/*--------------------------------*- C++ -*----------------------------------*\
| =========                 |                                                 |
| \\      /  F ield         | OpenFOAM: The Open Source CFD Toolbox           |
|  \\    /   O peration     | Version:  v1912                                 |
|   \\  /    A nd           | Website:  www.openfoam.com                      |
|    \\/     M anipulation  |                                                 |
\*---------------------------------------------------------------------------*/
FoamFile
{
    version     2.0;
    format      ascii;
    class       volScalarField;
    location    "1.42";
    object      k;
}
// * * * * * * * * * * * * * * * * * * * * * * * * * * * * * * * * * * * * * //

dimensions      [0 2 -2 0 0 0 0];


internalField   nonuniform List<scalar> 
12556
(
36.90870648
36.90878718
36.90894713
36.90925377
36.95457553
36.95579072
36.95792598
36.9621931
36.97002856
36.98194126
36.99630848
37.00617566
37.00820382
37.00493912
36.99274973
36.97972103
36.96897758
36.96174768
36.95796193
36.95582445
36.9096251
36.9089896
36.90866173
36.9084207
36.72751697
36.72779132
36.72829223
36.72954423
36.77584883
36.78191992
36.79390934
36.83244183
36.86870354
36.92496627
36.99598149
37.03320466
37.04413864
37.0329061
36.99248898
36.9288958
36.87411806
36.83754127
36.7945607
36.78214872
36.73142458
36.72897218
36.72781933
36.72717954
36.547688
36.54842274
36.5498615
36.55279257
36.60163783
36.61649367
36.64497591
36.7083321
36.79429866
36.91669925
37.02954971
37.10040422
37.12386436
37.10455115
37.03550832
36.92554499
36.80567634
36.72077932
36.64514848
36.61658791
36.55745887
36.55206057
36.54946791
36.5483955
36.36925351
36.37030098
36.37297976
36.37949644
36.43369156
36.46389882
36.52520367
36.63434743
36.79524812
36.97092081
37.13364248
37.2515316
37.30133721
37.27249537
37.16457417
36.99251342
36.80982034
36.65037072
36.52166202
36.4655791
36.39021393
36.37929685
36.3741442
36.37213563
36.19264831
36.19454457
36.19969901
36.21228812
36.27594927
36.33022076
36.44487525
36.62478483
36.85352758
37.0984488
37.34830792
37.56602375
37.6849349
37.63841699
37.45658408
37.17048953
36.88371243
36.64990332
36.43704433
36.33372913
36.23067161
36.21050533
36.2012959
36.19770875
36.01721167
36.02022727
36.02890206
36.05063011
36.13165692
36.22261517
36.41722747
36.65972932
36.96381828
37.31564846
37.74410892
38.23568743
38.57684118
38.46485691
38.02653964
37.52336391
37.05486934
36.69905438
36.3980161
36.22592774
36.08224871
36.04594591
36.03040116
36.02433513
35.84427429
35.84942262
35.86415048
35.90062042
36.00035121
36.1431426
36.42603936
36.73713256
37.14174785
37.65117582
38.43224107
39.80095468
40.54430536
40.40982833
39.06767192
38.09889103
37.337408
36.80593678
36.40464203
36.14620099
35.94378721
35.88618143
35.8614887
35.85193125
35.67509121
35.68281918
35.70499411
35.75971595
35.88403674
36.09136469
36.45874656
36.85146341
37.37667676
38.09839945
39.42123451
42.52328887
43.41815846
40.72968224
38.91644643
37.72262049
36.96429482
36.43571929
36.09232141
35.81812923
35.73287043
35.69575469
35.68158672
35.5133505
35.5251262
35.55795432
35.63593055
35.78689821
36.06459739
36.51209018
36.99133047
37.64014575
38.56590198
40.36786189
45.0719721
48.49473062
42.74231364
39.88400093
38.18310614
37.15947512
36.485325
36.06116498
35.70610333
35.58801765
35.53588246
35.5160424
35.36124881
35.37726164
35.42120824
35.52401409
35.70935885
36.05800378
36.57978678
37.14449531
37.90304212
38.98506098
41.06937559
46.23600313
51.93332318
44.55559104
40.82584327
38.63709437
37.36299727
36.5479704
36.04704829
35.60961009
35.45514285
35.38554234
35.3589724
35.22249184
35.24438046
35.30257281
35.43530369
35.650231
36.06438359
36.65626953
37.29768623
38.14412472
39.34243887
41.62534208
46.73365005
53.59745279
45.87909478
41.5710819
39.02099548
37.55093624
36.61395174
36.04590776
35.52784143
35.33609477
35.2482371
35.21415394
35.09679846
35.12383111
35.19453094
35.35518617
35.60559962
36.08124662
36.73589439
37.44311477
38.36395924
39.65909585
42.13046009
46.48299676
54.30922414
46.69548905
42.07732594
39.30635138
37.70938463
36.67526732
36.0486108
35.46164678
35.23200843
35.12559219
35.08367784
34.98517191
35.01879241
35.10667073
35.29806297
35.56953374
36.09887095
36.80871405
37.58053891
38.55780963
39.94612101
42.65803861
45.94441975
44.17820857
54.13251699
47.08855748
42.35748904
39.47032804
37.8267577
36.72564775
36.04964358
35.40348171
35.14175431
35.01723968
34.96780702
34.88399403
34.92344257
35.02602489
35.24182335
35.5561933
36.14381409
36.92187508
37.73211837
38.76365338
40.25540651
43.23870305
44.47053702
54.95838661
54.11631675
47.16928492
42.3848974
39.54247549
37.91203114
36.76268724
36.04443322
35.34928547
35.06137639
34.92047316
34.86418783
34.79102665
34.83589629
34.95155198
35.18938858
35.53030233
36.16027255
36.99945021
37.9013766
39.046371
40.64187493
43.61216035
40.88058157
55.57946283
53.40811054
46.77038481
42.24203962
39.52981733
37.96440875
36.78032201
36.02727774
35.29589878
34.98661607
34.83158625
34.76940749
34.7012639
34.75103524
34.87784125
35.13528318
35.50000153
36.16268973
37.06054185
38.09461664
39.45808879
41.28441065
44.12943454
35.25838164
53.95262895
51.72852241
45.90955908
41.90788649
39.46363186
37.9740623
36.77423948
35.99372287
35.2360803
34.91103424
34.74566779
34.67862544
34.61263495
34.66662396
34.80226311
35.07572622
35.46042676
36.14871485
37.0896209
38.24064071
39.94131847
42.14435863
43.6514015
27.8487129
52.86310709
49.5246074
44.74244181
41.47906417
39.3931136
37.95176593
36.73756117
35.94223201
35.16886603
34.83332675
34.65927733
34.58816657
34.52028864
34.57781754
34.72041756
35.00698298
35.40817906
36.11234369
37.0808804
38.26919147
40.22545754
42.60119046
38.67611152
37.3841851
51.30342498
47.47594075
43.72196144
41.12856954
39.28426871
37.87868464
36.66422097
35.86733082
35.08797224
34.74633638
34.56807235
34.49391915
34.42480669
34.48515665
34.63276503
34.92870391
35.34162218
36.05445591
37.03961463
38.24410388
40.18422452
42.13824185
30.24723112
45.6722567
49.69146577
46.15151693
43.14485384
40.87224358
39.11924134
37.7605356
36.56316767
35.77316222
34.99523678
34.65126615
34.47061216
34.39473546
34.32194089
34.3844866
34.53589681
34.83904415
35.26087196
35.97695268
36.96849634
38.17795845
40.06461877
41.48932201
27.8340612
44.80586411
48.48335739
45.49573376
42.73610595
40.59570062
38.92329534
37.61204491
36.44053549
35.66214573
34.89026158
34.54630528
34.36466828
34.28770044
34.21547141
34.27960977
34.43343902
34.74054163
35.16697086
35.88263147
36.87471346
38.08105589
39.88846024
40.79085764
26.01103663
43.4361428
47.44178403
44.90100889
42.34480591
40.31450621
38.71166842
37.44405466
36.3016025
35.53718868
34.77541973
34.43374455
34.25224652
34.17472406
34.10046655
34.16576513
34.32150827
34.63173285
35.06167339
35.77452984
36.76343395
37.96045259
39.66843152
40.0806722
24.53518967
42.13310827
46.48823674
44.34445793
41.97393473
40.03725252
38.49349244
37.26446025
36.15072341
35.40129356
34.6507017
34.31190465
34.13095791
34.05321133
33.98411899
34.0501773
34.20687418
34.51747338
34.94686419
35.655478
36.63880229
37.82153984
39.41482403
39.38392033
23.34117524
40.89201803
45.60101236
43.81950794
41.62189019
39.76809748
38.27433678
37.07878239
35.991562
35.2571914
34.51995421
34.18535543
34.00544149
33.92772798
33.85877565
33.9253792
34.08307794
34.39469086
34.82462205
35.52796794
36.50416626
37.66834269
39.13454133
38.71163898
22.38470519
39.70363993
44.76562177
43.32116493
41.28596143
39.50838323
38.05752964
36.89074297
35.82718367
35.10724886
34.38184139
34.05069438
33.87161473
33.79400454
33.73596196
33.80286549
33.96077966
34.27067423
34.69658247
35.3941781
36.36220747
37.50361139
38.83429482
38.0701619
21.6282823
38.56370134
43.97428806
42.84533874
40.96390851
39.2580201
37.84492456
36.70278151
35.65995016
34.95333538
34.24175047
33.91526548
33.73729593
33.65988201
33.60275641
33.66989341
33.82843641
34.13866638
34.56443684
35.25588786
36.2148794
37.32899533
38.51959538
37.46228013
21.03397088
37.46381685
43.22020061
42.38847506
40.65389027
39.01634939
37.63737603
36.51643845
35.49156947
34.79701674
34.09542505
33.77176341
33.59435851
33.51705526
33.47739215
33.54460249
33.70296638
34.01012811
34.42914793
35.11448523
36.06352093
37.1456703
38.19685602
36.88909365
20.57745907
36.3993836
42.50113744
41.94760916
40.35435413
38.78261345
37.43518844
36.33267269
35.32327978
34.63940213
33.95139713
33.63240398
33.45590054
33.3787375
33.3380427
33.40534051
33.56416901
33.87179797
34.29201123
34.97098703
35.90898091
36.95483574
37.87178046
36.34957175
20.24096621
35.37126014
41.80845738
41.52024311
40.06390751
38.5560344
37.23832921
36.15202453
35.15592618
34.48149537
33.80002758
33.48263284
33.30625457
33.22906355
33.21397924
33.2812501
33.43966611
33.74312633
34.15330662
34.82613932
35.75183718
36.75784375
37.54816079
35.84206431
20.0096873
34.37858836
41.13619631
41.1044221
39.78137506
38.33590606
37.04662643
35.97480079
34.99010587
34.32381547
33.65654412
33.34388784
33.16815028
33.09095906
33.06875426
33.13604438
33.29479639
33.59927457
34.01425542
34.68051735
35.59252125
36.55605906
37.22804483
35.36494558
19.8663593
33.42289276
40.4806631
40.69852296
39.50571296
38.12155269
36.8598091
35.8011343
34.82622482
34.16709973
33.50101408
33.18840477
33.01236845
32.93496535
32.95001889
33.01724294
33.17548292
33.47489552
33.87448985
34.53456425
35.43142041
36.35081989
36.91223905
34.91664254
19.7969013
32.50639774
39.84103736
40.3012732
39.23601646
37.91235227
36.67756522
35.63104871
34.66457159
34.01142224
33.36269073
33.05507758
32.87941171
32.80185813
32.79736757
32.86457566
33.02295329
33.32387034
33.73557009
34.38869117
35.26898471
36.14333549
36.60179621
34.49498737
19.79251519
31.62830696
39.21583403
39.91166295
38.97154582
37.70776258
36.49957876
35.46448787
34.50535759
33.85755528
33.20101401
32.89191014
32.7156476
32.6376949
32.68886925
32.75599689
32.91393348
33.20964582
33.59633166
34.24326826
35.10577122
35.93458164
36.29722612
34.09668413
19.85391058
30.78793729
38.60482509
39.52894852
38.71167071
37.50728623
36.3255227
35.3013364
34.34881159
33.70515299
33.07447416
32.77029993
32.59407016
32.51585174
32.52497671
32.59207013
32.74984097
33.04618853
33.45950041
34.09895917
34.94247999
35.72542977
35.99892197
33.71941589
19.95769812
29.98542681
38.00862865
39.15265192
38.45590577
37.31051476
36.15512507
35.14154481
34.19541052
33.55570208
32.89988042
32.59402034
32.41708823
32.33828732
32.43310686
32.50014527
32.6576871
32.95151151
33.32340162
33.95701558
34.78079299
35.51656614
35.70704325
33.36153826
20.08077159
29.22223144
37.42786046
38.78251494
38.20386202
37.11708155
35.98811605
34.98494613
34.04650013
33.40927031
32.79702499
32.49319325
32.31588541
32.23673319
32.22333794
32.2903272
32.44753009
32.74064679
33.19503265
33.82069428
34.62608265
35.30920205
35.42342299
33.02449216
20.21355394
28.50191839
36.86771225
38.42170924
37.95646878
36.92719385
35.82453921
34.83152984
33.9063911
33.27179269
32.5721739
32.26699414
32.08854666
32.00848027
44.86941612
49.10962693
43.83352808
46.12439989
52.89165727
49.57750427
46.7248203
54.59713683
53.19988582
46.53708634
55.27486718
54.70890473
45.98070208
40.45786207
43.22912131
55.57730279
55.31526136
44.99244857
49.88975068
40.71962568
54.45389241
56.05435831
55.6024231
42.08348571
40.51543131
43.31834729
40.28822281
53.74741496
45.77422189
47.93781973
43.23798877
41.36931504
40.91298686
45.03595602
44.02687278
56.90501309
59.75231898
51.62160435
45.49598342
43.83983102
41.49745784
45.80314365
45.1518711
46.51778505
48.89493345
49.94868655
55.03741254
54.60493861
53.46337649
47.12413826
45.95575151
42.02089318
46.07562677
45.86572167
46.69449115
44.91861052
47.09124868
56.7652262
55.72092791
42.54296923
46.00126942
46.0837047
46.25395979
39.81381563
42.40538028
40.39921893
57.87226758
57.57518151
43.13632098
45.5331179
45.97032558
45.63884606
33.1322106
36.29468768
43.41410614
52.29649938
50.30950831
49.75380784
51.93042255
44.79427781
49.26391175
59.71451632
54.11531416
46.84590256
52.91614132
58.27197159
50.07647443
50.7962962
45.71259851
51.60622078
50.17434452
52.1180399
51.7622535
54.72301336
56.63736582
51.44271613
57.93238742
56.55271193
58.45469822
58.07697065
51.18721186
47.30008413
48.7144087
46.59145448
48.31973933
46.30525464
50.08132755
48.44468596
55.52634599
55.13245894
54.13463456
57.06560707
57.33295981
56.48075612
57.01988159
53.94680643
42.54897602
44.78425034
46.66415924
43.7313319
41.01990156
46.17064309
43.88241698
57.51399428
56.88376319
36.45988421
39.62403828
46.22347764
42.9455468
37.49558459
33.90444174
40.86675083
37.72678557
44.70098435
58.09745001
57.91192277
40.01036729
40.48063607
33.07048856
45.59150431
46.31279222
32.191228
84.4847563
33.8045607
32.2180336
45.59031463
40.15629952
43.83340119
41.81065908
43.73924141
48.04385486
44.30388399
68.23295693
49.74817942
45.58895027
50.86627827
50.47148494
56.15279789
54.26845653
48.14242899
47.41650814
66.11173542
47.88437469
46.12875395
49.99146386
58.4054598
58.19289718
50.28586771
48.42615606
44.07219119
58.85492076
47.48780117
56.64404446
45.31288062
51.82059769
46.17251783
45.63795637
42.01656075
55.06894358
57.66617197
57.8082436
57.37011039
57.63773114
55.00067057
39.39458794
57.64159069
42.34556408
42.35083127
41.86704119
44.23083661
45.13669414
42.31172893
42.36143379
74.11475928
50.35849511
67.81733541
48.43247807
63.32103427
49.3967402
58.93587979
59.1224692
54.72311872
54.69763255
41.49427375
50.78504677
56.35503522
42.20731926
41.5340938
53.67460997
42.80756784
56.21433296
41.22642178
45.7630376
45.3880163
51.33508349
48.88163295
58.2063232
35.26249546
43.45426892
42.93949179
44.11575522
43.64175038
35.39874709
64.01130196
59.41766881
50.87208821
59.88828793
61.00935841
54.69384279
59.48644387
51.16756622
46.86007673
53.91094626
46.71946658
60.05656888
54.81503029
47.56612489
57.51488566
63.83286768
57.88897987
57.47923976
50.93510489
46.40338423
50.84417743
52.21372372
50.27591224
54.04750037
46.85029545
49.7870046
52.14547315
55.79980604
55.96533405
57.27769432
55.87222722
55.27949624
56.43216646
56.03095965
57.16967857
58.93828841
53.89353322
52.79018039
55.0486121
54.21346717
58.8987762
47.40212612
47.27197058
49.37133174
49.26808066
55.73792021
54.61171726
55.65652997
42.65399523
42.46839702
45.09263599
44.9372059
41.70637009
44.7463734
57.19909082
41.55884842
41.27797354
38.40825494
44.71777776
44.27238513
45.25896729
44.85755231
38.57248402
39.4275778
36.53757567
36.37811321
39.78860248
39.63534622
67.65178456
39.52880995
53.82308971
52.04551469
42.74139442
42.25223051
32.51330134
32.91896423
41.69326104
45.14524674
33.33196272
82.67615329
46.43798298
73.3291882
33.25670288
43.14107929
53.1413097
41.91811403
68.07569034
40.40731559
41.78478463
43.51973396
44.95779938
45.41988211
43.91397611
36.39612479
42.24963509
56.05310179
55.39186699
55.96724171
57.49936494
42.80293517
49.39912266
55.49912587
54.31893959
39.7555591
58.55166472
58.47044506
50.6438971
44.17654883
43.78580871
46.93915665
48.47228808
44.01784709
44.30394122
57.8665631
61.48960192
59.74943678
59.6570855
54.81452278
44.66099478
44.55605409
50.08756731
49.6182018
54.41682019
45.88428519
47.43429731
47.15704807
47.77488178
47.52286096
46.0426632
46.22972039
45.88177031
41.37650513
33.6541394
39.65438286
39.20560427
77.105887
56.82995286
50.64089397
59.20224081
63.60146157
61.94272578
55.68449809
50.48137578
48.86173095
52.37268834
50.98733069
56.07861244
55.13525402
50.76380377
50.38837048
56.15857237
47.93561733
48.06272645
47.85266704
42.22624809
42.78987255
46.72707921
44.63954011
44.65974342
55.33748562
57.18719241
57.07080284
57.01409498
56.41044797
56.785563
56.533909
56.98665025
56.84439273
56.41899491
43.67706205
46.66065033
46.34056163
47.06093352
46.76359265
43.82715578
43.27959671
37.27382947
37.6485243
33.90613696
34.20126362
41.54383133
45.72040805
41.31670488
42.07047141
37.79579166
38.21586621
44.33419162
57.28063083
45.40927293
50.19037294
72.07835392
40.3899125
37.03450435
35.04882901
40.40994476
33.600823
33.83716391
33.08563215
38.79840325
58.77243607
38.28481052
40.81992389
39.94861742
39.06011838
38.6369628
32.911345
41.51386213
40.87736304
48.42894321
32.10556816
97.7896767
44.09034355
41.56919644
45.25031729
33.62025751
32.35603372
60.31653032
59.74840111
58.99687362
55.91986105
55.65049969
39.87267554
40.21180213
66.71890902
56.49465081
56.36508697
51.16071508
64.0836682
50.98348557
64.52415452
52.33788813
48.66922812
42.56228313
43.38302957
54.66336428
62.26851739
55.79141664
44.72933903
39.45692928
58.6337214
72.15923517
45.0436044
55.18704583
79.07068083
40.56190881
43.32828157
39.64355751
40.18720782
71.0184921
74.49792238
59.01382892
54.65311317
63.54592953
59.93848587
53.81188497
50.20913748
56.91543744
56.88200304
56.34467149
58.22724741
59.53505475
59.2827241
57.54054219
46.13528471
44.97569528
54.75560486
50.80779913
50.15956931
46.15846759
50.19082204
49.84982404
54.4622452
49.53131648
46.61272459
43.10975747
44.18679807
41.52163932
50.14487277
48.96942555
46.48938516
46.57168483
45.06975756
48.50361012
47.15091202
45.1263522
46.0856339
40.24154212
39.88815085
40.28865066
39.78757608
34.17977134
35.78703361
40.84634169
40.4297228
62.31488084
61.62722059
61.17968736
54.55200729
55.23047231
53.36816615
54.28769808
61.53023039
57.6182022
55.68586373
55.52283287
55.39708936
55.66844394
57.95495856
58.22440507
51.90715989
53.0530396
61.93459768
62.45449675
63.820539
62.96641577
58.90635934
64.77521744
66.11912162
65.41786761
65.50215075
64.69114816
66.56953565
65.26837248
56.08570491
62.84266023
63.9734229
44.79114129
51.04745296
50.03155139
52.006112
51.32252392
45.47075419
48.63242327
47.94156356
49.67944699
48.87063137
51.77795993
54.63386033
54.00627517
55.37780163
54.83337016
52.31611647
48.02470147
52.91145289
52.23685616
53.79022506
53.13342435
48.44967111
51.44505959
50.82967193
55.29489958
56.1615772
52.97668641
51.75039501
41.63841543
41.09055527
42.59053661
41.83072843
40.2160815
39.68075974
40.91648964
40.37716761
46.84669303
46.20414766
47.71936612
47.06685101
44.93002267
43.09238252
45.97164855
45.33004244
43.35660645
43.2493465
44.66025735
43.60109967
54.45292191
44.06809708
45.37751658
43.25534689
43.66375392
36.77819157
37.12588973
43.12789734
34.53082672
34.2894023
34.88642231
34.62943347
34.13271508
41.76931866
34.38743131
36.34495924
39.14775356
41.03084589
45.56859212
38.71026657
36.00242978
39.57225727
38.74371765
35.31689228
35.00028768
35.81014978
35.43672076
44.48420749
38.36570678
38.87200814
62.2342458
41.06991818
60.95006985
53.69216592
60.49187456
41.03338799
75.19826278
39.97616151
71.73452053
62.62991999
36.90068018
35.72874115
33.30713979
33.535727
40.25749938
39.07086852
33.08032656
33.25857209
67.52348046
32.84655487
38.43679619
37.71130165
83.27013064
88.88366054
32.0560493
92.81337975
75.51323722
42.76548829
33.55112144
82.17036571
53.21888552
91.64808504
57.0581945
32.49344112
42.94171916
40.79288609
39.34823491
65.40252568
64.85221863
54.75989234
48.67809175
48.3006427
65.71303209
39.64526013
43.31237679
40.52203829
57.81858471
57.92417481
55.45393002
46.94121551
46.0265815
50.43094826
57.60280256
46.66145674
46.92809202
41.73928507
42.11448247
44.79546904
52.19659052
56.67584765
59.84712927
49.38659804
48.39950789
48.31969481
48.40926737
48.41152239
49.53598484
41.88843735
40.5774675
43.54930826
50.9926256
52.96385325
57.74085018
41.37728357
40.97733532
35.90994591
60.78216854
62.63367968
55.64591694
48.2782693
48.12356729
48.13754003
47.92802568
44.4967261
45.20911361
45.55806875
46.63244755
48.81875188
37.3807856
41.93061638
41.5090026
54.47448113
50.97082918
41.83270628
32.66538265
32.71333758
34.07559912
47.80527018
68.76908605
60.66512921
39.53081375
44.57917705
42.37923261
32.16096895
33.73862549
32.5925497
32.63171594
32.24943043
68.93232767
55.58145876
45.45312035
47.99732758
65.10002786
40.33928121
40.13414166
48.34172117
57.9866211
48.298128
46.5504009
49.01475541
43.95981404
41.6446807
40.49411159
75.64571685
78.86871902
80.5585721
68.05713313
77.47987764
43.57317752
43.97556862
47.54916594
70.21049748
64.18669869
61.08928056
73.56899636
70.27764325
41.73977086
47.4758991
45.79519954
57.86478244
56.99150309
46.85280524
51.54013388
50.53837388
41.41231254
54.34741695
42.95668179
43.57092516
52.01561014
41.87436857
43.19791248
63.64149037
64.51339167
60.19058076
60.34387942
58.93515908
58.77079583
55.37515081
56.62213585
56.16547861
58.57503926
58.3136372
58.96529025
50.12729333
51.52583323
57.62528738
59.28635108
66.00869432
61.68065749
65.97941515
66.36777454
63.04124266
42.86503286
45.43230447
44.83756307
49.66589632
49.39043379
46.12832672
42.40484174
42.12475624
44.33148995
43.92681649
50.7688966
53.36220866
52.97403405
55.74276087
55.33867874
53.44481301
47.19421236
50.37521539
50.05010926
52.5844302
52.20418287
49.32922333
43.7249685
44.29834306
47.80107613
46.86031735
42.97134866
43.53784922
47.69402306
48.26636131
49.68361936
40.53182941
40.36057772
41.88446053
41.66499791
37.82000731
40.1137064
39.97323689
48.93100831
46.8977022
47.49610222
53.63484594
53.04999734
44.25804731
44.9635633
54.18369451
52.80442593
53.12724725
55.41643293
44.74479154
45.85117654
42.45734417
42.06563557
37.74413043
39.00877385
42.92813065
42.57438645
34.25604591
34.31929582
36.64996604
36.25118187
34.06882139
34.15275115
67.81325007
32.49575939
34.03703144
33.10974818
110.054823
32.36282784
42.34585106
70.44343451
63.20939117
32.28179832
32.31893065
33.40745792
80.64014397
86.99950342
84.17195945
66.89266697
33.13524392
32.20364925
32.23935563
45.72949324
39.78514165
39.66091098
65.05732305
64.00474677
50.28169907
48.08652341
41.17106186
59.0346097
61.6679335
64.1425039
44.64817284
63.21749429
55.76493561
63.65175013
62.01453976
46.78557381
45.55101001
46.47348564
52.35701378
54.56669384
55.01274751
53.86318407
54.1772315
60.95837289
60.48568649
60.86572368
59.63238109
60.01176637
60.34390397
50.10700562
47.01100773
47.33235138
46.52539583
46.73131301
50.29539894
62.86431148
61.93262537
62.01132137
61.30119274
61.63781478
62.38159587
50.40640524
48.35651601
48.72781812
47.66277117
48.00386157
50.37665885
53.22709472
53.22374899
52.43869404
52.54205507
37.37743329
39.94769457
39.80573882
33.99431494
36.37089611
36.24332953
36.76239067
36.52208483
34.08079641
68.8427234
70.26307001
61.70681336
70.14338708
33.09272646
33.03479202
33.24160235
33.17615864
32.63041038
34.41849122
32.77751899
32.92242493
33.68793213
35.92635427
35.81311149
36.13669888
36.02841273
33.75638133
33.38927546
33.30286537
34.52184843
33.55506439
33.07523883
70.62930383
67.71982349
51.94844939
70.44785658
35.63457832
34.48079142
39.00917603
32.97646136
35.02431098
34.89270772
32.12521312
96.89403853
97.89823431
64.56789766
90.40446154
81.27278156
32.48744903
32.5495716
33.68604658
32.29711332
65.21172379
72.28808769
65.68431221
68.69833755
63.44987051
53.56555778
70.47138925
64.48245789
56.62716154
55.96520257
66.83513817
50.96972494
57.09518544
57.53564075
54.22632737
60.77476789
54.06729378
57.69618156
65.72807122
67.29082449
58.7894277
64.39281588
68.85829769
61.84321045
63.60343901
60.7003863
65.23209478
75.34738561
74.99668551
73.37183747
47.56132228
65.9155087
59.19127369
73.60792707
75.53551035
51.40113205
56.12170831
61.48239203
77.59805148
64.69418833
48.72611504
51.59505844
69.08115578
64.71431755
69.69358315
62.15693882
65.66200782
68.90062325
70.85863941
70.08530993
56.29849437
56.94483281
57.28074044
55.85118141
56.05769415
55.86017985
58.61692985
58.76792985
59.13688133
57.88580258
58.22766801
58.11872651
45.73145404
47.02308885
47.02042376
50.49670911
50.38369543
47.84670281
51.42238655
51.26395005
50.35694069
50.0714302
50.7626308
48.06427924
46.58396878
46.45257533
46.95526622
46.785528
47.11602962
57.45313259
51.70677517
42.22603834
59.48795023
59.31817967
58.87496059
45.32208079
57.42487292
56.63875888
42.33603962
42.55897627
49.68062578
63.03669808
60.848724
57.55561602
57.10211059
56.03191165
58.58448115
58.09155627
57.78213924
67.32208283
67.03878438
60.8617285
67.93257079
70.21219325
62.92200129
67.02927885
67.27597406
63.58056887
62.02799114
61.99954508
61.97416601
62.0079735
63.27599534
65.20623014
65.57747826
65.42085876
69.22332978
68.99110151
69.35275777
69.34206441
65.2579628
66.91907912
68.40782756
70.16163986
67.09000706
48.07764321
47.89188775
44.76525118
45.64807589
48.95513546
48.76242594
42.97176464
42.67569251
43.5877292
43.26840219
54.14481471
53.74973482
51.25212511
52.87461569
54.94067457
54.54217953
51.09619473
50.7500001
47.64280256
48.86454766
51.8241788
51.46227436
51.34522724
49.88504591
50.2909984
49.09591743
49.48854525
50.94357965
52.36343715
51.4470682
51.82054142
50.70309404
51.09278145
52.16319602
41.44960441
38.13394739
38.30950857
37.8174176
37.97824093
41.27082831
42.27431083
38.89344445
39.1547451
38.48442077
38.68015912
42.03868485
40.02499025
36.896655
37.06098776
36.62211278
36.78400276
39.88392041
40.73536696
37.50546606
37.66688082
37.19154322
37.36056119
40.5645329
40.96851546
40.77277607
46.63370227
44.27503525
44.49044599
43.83377832
44.03027652
46.41037175
41.42070015
41.20744408
39.19814966
39.12823508
44.62389185
42.32227116
42.39897634
39.54065823
40.06544096
43.82207167
45.7783332
43.40911897
43.57147177
42.97938204
43.09414776
45.51396104
39.70194487
39.60033582
52.83001697
52.57437351
54.00965815
46.13723353
48.8879335
44.42101979
52.06671247
52.59552156
51.51404443
51.83511403
44.91563533
43.27272482
48.40641699
46.01760542
51.68485291
51.94472473
43.42412321
36.8454381
39.31225119
39.17312505
39.6399579
39.50924771
37.04285123
34.46874257
34.34691419
34.80312202
34.69411072
34.04424083
33.65633078
34.70856599
37.87803666
37.19106003
38.85179802
38.545785
36.27958289
36.77800316
34.98489052
35.88625952
36.30821144
39.32270376
36.35044521
36.53330333
36.0194425
36.27460751
39.24186395
35.21379908
35.09590771
35.67516827
35.54751352
59.60231874
44.85396368
46.31473718
42.17925918
43.46532121
60.62026423
59.17190681
58.30768081
48.1666983
52.83266156
61.23472142
70.48868355
51.93679062
55.53445813
45.36553627
48.66875151
72.21863339
32.86098494
32.80645449
32.97042697
32.92779561
33.57420244
33.88642179
35.98468942
32.59305181
32.57014747
32.734214
32.67777375
33.39163508
35.49807366
35.36733384
35.71136709
35.59159322
33.44903492
33.14672566
35.05976441
34.78701737
35.28938234
35.12834935
33.18458788
66.22975092
34.76178317
34.52068452
32.67342075
81.33968943
103.6541263
106.8491472
103.8458947
103.8092316
85.49872414
32.15727283
85.08393983
66.20394238
70.00337259
33.47428925
32.36046832
32.42479247
81.79381381
89.10319722
87.64638654
74.69368225
80.52145204
93.24055959
90.00544373
61.64982435
85.77597133
76.55711725
32.33902253
32.1750964
32.86458243
36.73558374
36.78585074
36.85735754
36.80612161
36.88517019
36.90827317
36.91262119
36.99293295
36.97545298
37.01528531
37.06713213
37.02599476
37.07771305
37.09664726
37.04332709
37.09762245
37.08836883
37.03839571
37.08051056
37.03837095
37.00940072
37.01927882
36.94644731
36.94617737
36.9211673
36.8388233
36.88666867
36.81677532
36.75982783
36.84545771
36.64714219
36.75089607
36.76920823
36.79005093
36.91113845
36.88677879
36.95126748
37.06557717
37.00476423
37.09929904
37.18258802
37.08786498
37.2030729
37.24009881
37.1225908
37.24412263
37.23317755
37.113908
37.2203196
37.14989119
37.05712293
37.11937199
37.0079753
36.95460745
36.96708173
36.84323312
36.8329045
36.80403816
36.69238558
36.73726778
36.62310981
36.77916248
36.75304981
36.83345715
37.00165145
36.92722406
37.05823681
37.22680153
37.09608659
37.28073658
37.42734354
37.2280487
37.46944054
37.55255016
37.29685375
37.56495066
37.55692924
37.28832105
37.53508378
37.40884134
37.20003574
37.36038995
37.17954704
37.03835325
37.11266976
36.91729174
36.85432312
36.85679481
36.69494954
36.68607728
36.64703467
36.85581361
36.79349835
36.92985148
37.16578608
37.03588567
37.25097214
37.52565011
37.28663882
37.62329986
37.93001922
37.51866658
38.02743379
38.2558485
37.67093514
38.28195654
38.27077253
37.66568544
38.19566566
37.94317096
37.51982347
37.8482634
37.5255591
37.24579216
37.41487924
37.09829684
36.95152738
37.00265264
36.75382832
36.70399516
36.71439279
36.99167926
36.88417711
37.09038957
37.42535288
37.22209699
37.55588798
38.028238
37.62809061
38.22440151
38.98157602
38.11042769
39.28055657
40.18011537
38.51662051
40.21124136
39.98325934
38.48562239
39.61160209
38.9829529
38.14947909
38.75810111
38.12447173
37.6513514
37.93042633
37.40660285
37.16327947
37.25618284
36.87686561
36.77783121
36.817845
37.17613453
37.03400857
37.30850727
37.77921993
37.50820669
37.97440472
38.77303942
38.1954832
39.15835229
41.44862724
39.36919181
40.59444086
41.13939012
40.07990214
41.8262654
41.8323525
40.55319932
41.23768699
40.54536043
40.04612465
40.26509047
39.02107006
38.32375958
38.68458867
37.85097966
37.5061723
37.62215184
37.06487535
36.91871515
36.95357775
37.40400759
37.23444126
37.57310428
38.18945709
37.88559841
38.45273106
39.58317375
38.98559287
39.68000462
40.30076134
39.98470127
42.954222
43.65091919
43.10272623
45.39039966
43.93020038
42.5218641
42.2470492
40.14132958
39.29602461
39.61518061
38.38513713
37.97553252
38.06266167
37.30208358
37.12171002
37.1061371
37.63903634
37.46293512
37.83935297
38.57241956
38.28770921
38.88699771
40.23842194
39.76276752
40.5638323
41.37100203
41.13998809
45.26309838
46.48532413
46.26548804
50.03795449
47.20311735
46.0086432
44.15492679
41.27479254
40.45170526
40.56343047
38.94099272
38.53303323
38.52419331
37.55590201
37.36658604
37.26124677
37.86276184
37.69600482
38.08768421
38.90784965
38.66027419
39.25863894
40.75657377
40.37731368
41.2191263
42.12084315
41.95104128
46.33933767
47.84984963
47.77120841
52.7232471
49.52989763
48.79000989
45.61686902
42.22812634
41.56297905
41.37943584
39.42412165
39.08157359
38.9308741
37.79039964
37.61744217
37.41372892
38.06959495
37.91403129
38.31396491
39.20381446
38.98341729
39.58467189
41.21170635
40.87223945
41.76127213
42.73833153
42.58019623
46.72983253
47.40684416
47.57175585
53.9575848
50.85017065
50.48230984