/*--------------------------------*- C++ -*----------------------------------*\
| =========                 |                                                 |
| \\      /  F ield         | OpenFOAM: The Open Source CFD Toolbox           |
|  \\    /   O peration     | Version:  v1912                                 |
|   \\  /    A nd           | Website:  www.openfoam.com                      |
|    \\/     M anipulation  |                                                 |
\*---------------------------------------------------------------------------*/
FoamFile
{
    version     2.0;
    format      ascii;
    class       surfaceVectorField;
    location    "1.42";
    object      Uf;
}
// * * * * * * * * * * * * * * * * * * * * * * * * * * * * * * * * * * * * * //

dimensions      [0 1 -1 0 0 0 0];


internalField   nonuniform List<vector> 
25162
(
(99.99755448 0.0105692606 -2.285833185e-21)
(99.99010163 0.009676506234 6.781840662e-21)
(99.99654457 0.0244581009 -2.249108131e-21)
(99.9869984 0.03192058651 2.311665434e-21)
(99.99453525 0.04598860836 -4.478919215e-21)
(99.97984881 0.06477045592 1.357453244e-20)
(99.99767954 0.05067835607 1.369824687e-21)
(99.96718392 0.1149822289 -8.856424295e-21)
(99.98650137 0.1114426998 -1.486332989e-21)
(99.99701791 0.09072093929 2.142279096e-21)
(99.99889863 0.05385826455 1.04928098e-21)
(99.98443116 0.1462199013 2.12159742e-21)
(99.99645698 0.08240871627 1.029793878e-21)
(99.99737314 0.06575876545 -1.076103439e-21)
(99.99568474 0.102989233 1.029751819e-21)
(99.97666338 0.2297052473 2.04335999e-21)
(99.99536473 0.1279425207 0)
(99.99520739 0.1548956038 -3.645935282e-21)
(99.97071588 0.3396443832 -3.645916307e-21)
(99.99467897 0.1862152191 -9.409348888e-22)
(99.99413188 0.2212536006 3.173878664e-21)
(99.96429637 0.4795208878 3.410738499e-21)
(99.9937066 0.2594749531 4.186512962e-22)
(99.99350428 0.2997606496 -2.621593441e-21)
(99.96193555 0.6398979907 3.791025136e-22)
(99.99362221 0.3404807305 -2.549970268e-21)
(99.99401037 0.3794635013 4.833748457e-22)
(99.96706264 0.7951897324 -1.642797273e-21)
(99.99445399 0.41468283 2.357881229e-21)
(99.99523195 0.4434241733 1.876504255e-21)
(99.98179888 0.9069799547 -7.966219594e-22)
(99.99698374 0.4629412936 0)
(99.9995093 0.4716161902 0)
(100.0028054 0.9412731844 9.749171967e-23)
(100.0020599 0.4686058909 0)
(100.0042175 0.454619911 8.188492236e-22)
(100.0223853 0.8858697441 -1.55358258e-23)
(100.0054826 0.4306665089 1.332069735e-21)
(100.0058513 0.3994416929 -5.809850432e-22)
(100.0333529 0.7644780596 -8.112610733e-22)
(100.006112 0.3637336684 -1.496936316e-21)
(100.0063446 0.3256759228 8.002379102e-23)
(100.0360342 0.6127321224 2.0086242e-21)
(100.0062595 0.2871365499 5.284818261e-22)
(100.0059353 0.2497534675 0)
(100.0327182 0.4637057917 0)
(100.0054745 0.2147622194 0)
(100.0050549 0.1827755611 7.905876844e-22)
(100.0264388 0.3366378777 1.64245775e-21)
(100.0049963 0.1545077627 -3.999760639e-21)
(100.0047385 0.1278675252 -1.496331327e-21)
(100.0211173 0.2317740888 3.232087924e-21)
(100.0039921 0.1052959299 3.231846741e-21)
(100.0029733 0.08663371278 -8.867723675e-22)
(100.0124865 0.1555300744 -4.142386468e-23)
(100.0009582 0.07329310711 1.73865446e-21)
(100.0072598 0.06893070067 -7.651902209e-21)
(100.0420589 0.16997059 3.055072314e-22)
(100.0156312 0.1557644348 -2.708807142e-21)
(100.0026211 0.07189396478 -1.556900507e-21)
(100.0049558 0.03923777499 -9.534905793e-22)
(100.0277676 0.1026963096 1.513203846e-20)
(100.0039833 0.01817973264 -7.648559481e-21)
(100.0197845 0.05388193283 -1.613379211e-20)
(100.0171322 0.01683136179 1.292523893e-21)
(99.97738898 0.02964825181 1.131181096e-20)
(99.96223362 0.01653241008 3.606787898e-22)
(99.967267 0.06917360618 1.800388348e-20)
(99.94993909 0.05520788633 -1.58541823e-20)
(99.9481738 0.129823886 9.439436375e-21)
(99.92308159 0.1133295456 -2.445353233e-20)
(99.94025354 0.1995850957 -1.61112417e-21)
(99.87725032 0.2039458971 4.708714839e-20)
(99.89869732 0.2524097659 -1.034012181e-20)
(99.91264024 0.2545273232 -2.223201254e-21)
(99.93355824 0.2488086609 4.347601623e-21)
(99.95870822 0.178023614 2.159870589e-21)
(99.93684487 0.2866124804 2.089600496e-21)
(99.91556977 0.3163437972 2.137046268e-21)
(99.85882031 0.4159021058 -4.33691594e-21)
(99.89596699 0.3997460879 -3.215997922e-23)
(99.90597851 0.4488783285 2.04368067e-21)
(99.87367492 0.5009644283 -2.606479705e-23)
(99.79412409 0.6522753458 0)
(99.86275928 0.5778517222 0)
(99.82647002 0.6632497292 -2.53057135e-21)
(99.87611715 0.6527753523 -4.949712446e-21)
(99.85844725 0.6916687868 -7.666116809e-23)
(99.81952541 0.7981534763 -1.113015436e-20)
(99.84886873 0.7520766567 -3.826358492e-21)
(99.82005911 0.9897478333 2.997552883e-23)
(99.84714651 0.9286394604 -2.4652074e-21)
(99.77334218 1.142452795 -1.341345818e-20)
(99.81415874 1.068533928 -3.276987763e-21)
(99.80016332 1.347564901 -5.877810246e-21)
(99.83635956 1.252028361 -5.584136893e-21)
(99.75219632 1.55012532 7.716993879e-22)
(99.80169621 1.437377345 -7.031940035e-21)
(99.81781427 1.712161937 5.081041916e-24)
(99.85993227 1.571860308 -4.357386323e-21)
(99.77999393 1.956802268 4.25116133e-21)
(99.83114546 1.797403637 -3.241912859e-21)
(99.88300007 1.997655791 -4.579306798e-21)
(99.92475314 1.810747464 -7.153487858e-21)
(99.86488341 2.267572756 -1.50911949e-20)
(99.90729826 2.061345785 -2.403900579e-21)
(99.98581432 2.122138854 -2.950812255e-21)
(100.0135989 1.894450637 -6.816073796e-22)
(99.99357824 2.382267541 9.485533384e-23)
(100.0126948 2.143252918 9.960492603e-22)
(100.0917819 2.049212649 1.362544299e-22)
(100.0822245 1.795412054 -1.992763017e-23)
(100.1176976 2.263189695 -1.623409263e-21)
(100.1132449 2.010908631 -1.091188966e-21)
(100.1637388 1.804103078 -3.393304432e-22)
(100.1228581 1.556290779 -2.55457168e-22)
(100.1953412 1.961922329 -7.493121486e-23)
(100.1725486 1.726275121 2.61667615e-21)
(100.1890068 1.468458579 2.722329586e-21)
(100.1334157 1.250402784 4.732368654e-21)
(100.2203353 1.57640173 4.723468227e-21)
(100.1876002 1.3752973 5.762230493e-22)
(100.1779748 1.121876511 -7.272862322e-21)
(100.1214212 0.9464370763 -6.74988515e-21)
(100.2032749 1.191192698 -2.455480809e-21)
(100.1702667 1.034201235 -2.397271689e-21)
(100.1464489 0.8204099296 -5.591395582e-21)
(100.0955601 0.688000516 5.055740301e-22)
(100.1622874 0.8618538665 -1.47824902e-21)
(100.136286 0.7489765356 6.0026151e-21)
(100.0849532 0.4574929795 -1.357092611e-20)
(100.1372101 0.6273327425 -1.356987167e-20)
(100.1896379 0.6708587843 1.370829318e-20)
(100.1160097 0.5152796797 -2.762258994e-20)
(100.0964757 0.4206084957 1.199609315e-20)
(100.1325742 0.4442605816 -1.658132751e-20)
(100.0776624 0.3415236967 2.419634655e-20)
(100.0586185 0.3045155729 2.686134337e-20)
(100.0685864 0.199320575 2.254875701e-20)
(100.1576124 0.3133590435 -1.529271851e-22)
(100.1236835 0.3602256639 4.786030498e-20)
(100.0727903 0.2844994106 2.563869762e-21)
(100.0476988 0.1140692597 -7.124652077e-22)
(100.1077485 0.1880512363 3.228714016e-20)
(100.0371031 0.05178128097 -7.531911463e-21)
(100.078502 0.09866649836 -1.711263568e-20)
(100.0659741 0.03073994086 7.647995165e-21)
(99.93852884 0.04051704135 -2.718820794e-20)
(99.92397148 0.01803360925 -1.358925753e-20)
(99.91060969 0.09605938967 -5.875047276e-20)
(99.89759135 0.06191106854 1.236143744e-20)
(99.85944206 0.1829514928 1.140059057e-20)
(99.84146528 0.1318884758 -4.971976978e-20)
(99.8091364 0.3052645762 2.997450211e-20)
(99.74953165 0.2442233392 5.397335009e-20)
(99.74390066 0.3336591859 -4.56105981e-20)
(99.83854569 0.3198086545 -8.912730185e-21)
(99.75176009 0.3670512372 -6.5893024e-20)
(99.77484501 0.398074918 -4.456984697e-21)
(99.75237556 0.5283152372 -8.626412245e-21)
(99.72103739 0.5148595607 -4.296521392e-21)
(99.61968439 0.6182772269 3.018549663e-20)
(99.6596911 0.6569422558 8.436052575e-21)
(99.64046348 0.8372833997 -7.441458531e-21)
(99.59034708 0.8290219472 5.52361513e-21)
(99.44716898 0.9945638337 -4.246272471e-20)
(99.55313984 0.9981251718 2.9335658e-21)
(99.47973583 1.073298892 -1.842060634e-20)
(99.54356611 1.219856373 -7.492919792e-21)
(99.50478834 1.223043875 0)
(99.42218967 1.347284666 7.802523114e-21)
(99.46982003 1.352755892 -7.442238226e-21)
(99.4243558 1.781131892 3.589198111e-21)
(99.3681499 1.80231455 1.404170822e-20)
(99.26836288 1.982122897 6.946145317e-21)
(99.33945434 1.969038316 1.741594454e-20)
(99.36465743 2.456127273 -2.110824964e-20)
(99.28798013 2.511444861 -2.994893547e-20)
(99.19051636 2.747912678 -8.185352433e-20)
(99.28679495 2.696904957 5.753403758e-21)
(99.4275532 3.145115285 -1.091704193e-19)
(99.33846899 3.254746229 3.984821478e-20)
(99.26291347 3.542406119 2.659152008e-20)
(99.37597228 3.428160134 1.040076432e-20)
(99.64332446 3.69945199 3.548057702e-22)
(99.55830777 3.88402338 0)
(99.53507665 4.1995695 0)
(99.64187047 3.997164762 1.502694427e-20)
(99.99008694 3.927742402 9.388673215e-23)
(99.93984577 4.192182571 -8.929788189e-21)
(99.98653995 4.483746574 7.16987112e-20)
(100.0449356 4.193488124 -2.089151004e-21)
(100.3353769 3.730090314 -2.232686786e-20)
(100.342393 4.03918889 1.539286556e-20)
(100.4377851 4.257229712 5.944901103e-22)
(100.4253015 3.926509812 -1.144536592e-21)
(100.5405558 3.184179965 3.923946233e-20)
(100.5994439 3.48069806 4.32379735e-20)
(100.7026906 3.609950235 1.879000583e-19)
(100.6325057 3.304469744 3.133201861e-20)
(100.5948485 2.519920194 7.001123863e-21)
(100.6742868 2.76429955 -2.431714864e-21)
(100.7620749 2.826954515 -2.864886231e-20)
(100.672802 2.585225664 1.068659733e-20)
(100.5441381 1.880527359 -6.692303379e-21)
(100.6284922 2.07392516 -1.569623676e-20)
(100.6952314 2.099509931 -5.410923068e-21)
(100.6034608 1.912353234 5.886702423e-21)
(100.5160965 1.479126561 -1.830498214e-20)
(100.4427053 1.337201182 -1.230426829e-20)
(100.5633934 1.483469753 -1.232086109e-20)
(100.4876167 1.34988856 6.519976929e-21)
(100.3333465 0.8662169759 -5.367481251e-20)
(100.449002 1.062379598 -2.812913052e-20)
(100.5156349 1.038356877 -8.142721413e-20)
(100.3827619 0.8681209112 -3.883277415e-20)
(100.2360552 0.5702035138 -6.072789434e-20)
(100.3223997 0.7038541778 2.426022259e-20)
(100.3650551 0.6767508391 -2.88286018e-20)
(100.267656 0.5664537478 -2.519383248e-20)
(100.1895032 0.2982906046 1.018583178e-20)
(100.3287215 0.4058535847 -2.574182736e-20)
(100.3160951 0.5013639938 -1.269837857e-22)
(100.2358282 0.4600273405 -1.478044539e-20)
(100.1335205 0.1697700567 1.513802269e-20)
(100.2286357 0.2410057534 2.68645128e-20)
(100.1033077 0.07650938343 -1.920526241e-21)
(100.1664824 0.1252543375 -3.869909786e-21)
(100.1381278 0.03873506249 0)
(99.89017929 0.03816414573 2.730311185e-20)
(99.88799805 0.01214990227 -4.561943696e-21)
(99.83713956 0.09499317673 2.301231162e-20)
(99.84402629 0.04543298433 3.190638221e-20)
(99.74186582 0.1913015766 -9.139366977e-21)
(99.75072694 0.1095320302 -4.492195987e-21)
(99.62284801 0.3503280265 0)
(99.5994042 0.2187099255 6.985484601e-21)
(99.54508189 0.3518743601 2.116994632e-20)
(99.64593045 0.3957952189 -6.163064974e-20)
(99.53281606 0.4020169208 1.591640028e-20)
(99.54485011 0.4706748338 0)
(99.46437979 0.6806467473 1.64637757e-22)
(99.43976948 0.620569945 -3.490290327e-20)
(99.29079277 0.7112831321 -3.487942312e-20)
(99.31610359 0.8060275642 7.064126366e-20)
(99.2167255 1.116369673 -1.047502937e-19)
(99.17300715 1.033319135 3.981473301e-20)
(98.95992896 1.190504885 -7.015865595e-20)
(99.0654767 1.297996379 -3.496162212e-20)
(98.96167648 1.322909064 -5.73248075e-20)
(98.97242946 1.66862084 8.213535419e-21)
(98.92827067 1.622459246 1.629284029e-20)
(98.79552159 1.750102557 4.133206705e-20)
(98.84569143 1.811564331 8.146154542e-21)
(98.68383647 2.512194141 -2.934032126e-20)
(98.60863204 2.468450869 4.039093131e-20)
(98.45174103 2.654941607 -3.277904752e-20)
(98.5407024 2.715521188 9.573914609e-20)
(98.51226722 3.555039939 3.417303192e-19)
(98.39462436 3.533060617 -2.011412186e-21)
(98.23070144 3.792069488 -3.198133451e-21)
(98.37197493 3.827821274 1.212266478e-19)
(98.58211242 4.720899663 -2.225344146e-20)
(98.41745304 4.755920382 0)
(98.28016871 5.103147747 4.282505473e-19)
(98.47975838 5.068748684 3.16634905e-19)
(99.04225625 5.794905819 -6.374709151e-20)
(98.84713517 5.943878543 -4.685731302e-19)
(98.80216863 6.365172935 -8.286203511e-22)
(99.03461349 6.187702153 -9.303753032e-20)
(99.91765 6.345833376 -1.541947753e-20)
(99.76012629 6.651789255 4.232821105e-21)
(99.86635129 7.052415024 9.968512606e-20)
(100.0334429 6.691112111 -7.977420902e-21)
(100.8442469 6.019869319 -1.062153916e-19)
(100.8128268 6.433081406 -1.318029212e-19)
(101.0203473 6.68801644 8.832375281e-21)
(101.0272324 6.229163428 -1.724718728e-19)
(101.3658991 4.981132875 -2.246507507e-19)
(101.4601311 5.384700061 1.232412881e-20)
(101.6596987 5.476348571 -2.144438338e-19)
(101.5319587 5.057798388 -4.940465726e-19)
(101.427034 3.751369554 -1.032707744e-19)
(101.5734166 4.066004226 1.638818422e-19)
(101.7134747 4.060890778 -3.173382373e-19)
(101.5446903 3.752465328 -7.099595459e-20)
(101.2572917 2.69604706 -4.10510295e-23)
(101.3950089 2.912376945 -7.174753935e-20)
(101.4838287 2.867197178 2.240663019e-20)
(101.3342172 2.667246016 1.735019821e-19)
(101.1324757 2.022219359 0)
(101.0118478 1.868715391 4.92774502e-20)
(101.1887022 1.975439673 0)
(101.0610682 1.83399169 0)
(100.733626 1.179864185 2.934959308e-20)
(100.9241127 1.385185599 1.9057876e-20)
(100.9826013 1.283669202 -1.640675401e-20)
(100.7838215 1.119590636 3.679156865e-20)
(100.5195561 0.7599636837 -3.339557051e-20)
(100.6594016 0.8969191829 -1.492506489e-20)
(100.6933442 0.8171048956 -1.504809284e-20)
(100.5509799 0.7116200283 -7.348321824e-21)
(100.3564947 0.3465681209 -9.434198661e-21)
(100.5402016 0.4266834891 -1.926050328e-20)
(100.5759209 0.5815052538 -2.55816223e-21)
(100.4743496 0.5615191309 5.910086575e-21)
(100.251402 0.1940399877 7.717129511e-21)
(100.3724125 0.2486955151 1.170666792e-20)
(100.1928464 0.08632275839 -1.949038562e-21)
(100.2680642 0.125747492 -3.435584025e-21)
(100.2195346 0.03830467524 -4.926281052e-22)
(99.8494217 0.01890399658 0)
(99.87019068 -0.00218222891 0)
(99.767116 0.05806767026 4.634387607e-21)
(99.80716121 0.002136685664 0)
(99.61925064 0.1393742827 1.179067064e-20)
(99.67417302 0.03861969503 -3.656918575e-21)
(99.41644669 0.3176560179 1.941406129e-20)
(99.45258547 0.1193796546 2.592909873e-20)
(99.34143972 0.2733296014 -7.798815481e-21)
(99.41865262 0.3840829456 2.741859703e-20)
(99.30209987 0.3398914826 2.189410804e-21)
(99.28173268 0.4420152148 -1.113540255e-20)
(99.1056767 0.7054667401 0)
(99.10749576 0.6023306585 -2.305941667e-20)
(98.91563336 0.6587877559 -1.897793233e-20)
(98.90087021 0.8052494856 4.703799914e-21)
(98.67563465 1.207749361 0)
(98.66020522 1.061289683 4.70329631e-21)
(98.378306 1.164263063 -4.877481036e-21)
(98.43536322 1.381240151 2.335339761e-20)
(98.31674777 1.375517361 6.071911727e-21)
(98.20361664 1.880280993 4.064354275e-19)
(98.17218538 1.777444937 1.383296712e-19)
(97.99150608 1.881209325 1.735322117e-19)
(98.02595197 2.002424582 -1.359617344e-19)
(97.65225444 2.942086644 1.457100766e-19)
(97.57851306 2.816732353 2.805981151e-19)
(97.35650443 2.97327545 -3.122341073e-19)
(97.43654365 3.132208057 -3.074420263e-19)
(97.20599191 4.354966608 -2.587519476e-21)
(97.06501238 4.223599911 -4.44900849e-19)
(96.80349177 4.476941212 -1.466256007e-19)
(96.96888052 4.640940858 3.362489017e-21)
(97.07987216 6.16990204 1.877792229e-22)
(96.833507 6.070261191 5.883915693e-19)
(96.5628698 6.479532869 1.019637615e-19)
(96.86596208 6.602065252 3.102364737e-20)
(97.72797834 8.218188692 3.624988727e-19)
(97.34951044 8.270691966 -4.245202327e-19)
(97.20788445 8.888096173 1.62752244e-19)
(97.67655781 8.798631173 2.294302238e-19)
(99.56297141 9.565924882 -2.334822901e-19)
(99.18109031 9.944414328 7.78233682e-20)
(99.39194349 10.58637343 0)
(99.80368725 10.09044589 -1.313799793e-21)
(101.7307801 9.045870277 -1.019037548e-19)
(101.6167927 9.667153268 1.048483284e-19)
(102.0588602 9.984254264 -7.585584854e-20)
(102.1049279 9.275048246 2.595477137e-19)
(102.8415901 7.092818244 0)
(103.0084763 7.672079946 -3.206164521e-21)
(103.3647786 7.668228435 0)
(103.1262724 7.078718221 0)
(102.8138846 4.948957747 -1.359649623e-19)
(103.0782556 5.355699154 -4.803397998e-20)
(103.2809725 5.22731732 2.189827775e-19)
(102.9750337 4.84390618 -1.269121288e-19)
(102.3105758 3.311980832 4.299111277e-21)
(102.5450107 3.557009293 -3.048479172e-19)
(102.63525 3.426925925 1.137689228e-19)
(102.3894407 3.20527672 -1.73938464e-19)
(101.9613354 2.350718061 -7.405661595e-21)
(101.7887798 2.20276342 -3.785019704e-21)
(102.008335 2.244049703 1.858273198e-20)
(101.8319051 2.116473013 2.25685216e-20)
(101.2579552 1.343945484 -9.360824943e-20)
(101.5285243 1.537214727 -5.918130902e-20)
(101.5546837 1.354471205 -3.303013797e-20)
(101.288148 1.220886123 -1.685694389e-20)
(100.8815414 0.8424316548 1.149605569e-20)
(101.0768196 0.9617397802 3.475096517e-20)
(101.0804694 0.8320989139 -3.870450003e-21)
(100.8948931 0.7497183078 -3.797018581e-21)
(100.543873 0.3304319078 1.979091724e-21)
(100.7621185 0.361258237 0)
(100.8649125 0.5559549572 -6.494267612e-23)
(100.7561685 0.5761839823 -1.031857297e-20)
(100.3787284 0.1781799293 4.424325077e-22)
(100.515956 0.2013242311 1.978913301e-21)
(100.2860469 0.07695133731 -1.981915445e-21)
(100.3635302 0.09500812305 -1.983949075e-21)
(100.2921104 0.02793393933 -1.982531407e-21)
(99.83515154 -0.01889127869 0)
(99.88803483 -0.02502456528 2.273324978e-21)
(99.72340666 -0.01799923573 -9.269816034e-21)
(99.80640633 -0.06793785019 -2.291998406e-21)
(99.52124126 0.02127679702 9.682341004e-21)
(99.63730574 -0.08223933939 -4.585418829e-21)
(99.22541986 0.162762998 1.263625827e-20)
(99.35257073 -0.05648529733 4.055621647e-21)
(99.16136908 0.09298670033 -4.3984147e-23)
(99.19873111 0.2671240636 -9.343475938e-21)
(99.08383452 0.1677867846 -9.498020113e-21)
(99.02654021 0.2848789016 0)
(98.7290168 0.5681687827 -1.897746384e-20)
(98.77569177 0.43065104 0)
(98.55407776 0.4334163996 -1.415188238e-22)
(98.47544565 0.6174971213 -1.041262149e-22)
(98.07831715 1.054872243 9.855746129e-21)
(98.12187273 0.8580348778 1.473912344e-20)
(97.79150622 0.8784675612 1.994333226e-20)
(97.77030758 1.203141414 -1.661957391e-20)
(97.66000337 1.125145593 -6.858364515e-20)
(97.34369876 1.741833528 -1.603265475e-19)
(97.35106461 1.592887614 3.715876781e-20)
(97.13099084 1.643524696 -2.209861719e-21)
(97.11663132 1.820590573 8.507235708e-19)
(96.4140693 2.857314344 -1.11607698e-18)
(96.37768349 2.656577538 -7.683530865e-19)
(96.08678774 2.74860513 -1.127841946e-18)
(96.12402991 3.002031885 -6.850762675e-19)
(95.4361019 4.517492454 7.683934971e-19)
(95.33164581 4.261293536 1.074731433e-19)
(94.94428263 4.411811696 -1.304689209e-18)
(95.06082715 4.771560175 -1.273121774e-18)
(94.5883501 7.111315785 1.332470864e-18)
(94.30742292 6.757222231 1.500107336e-18)
(93.78102847 7.165096519 2.215153213e-18)
(94.12534383 7.607144484 1.51595527e-18)
(94.8715165 11.04390941 -1.297759667e-18)
(94.20234998 10.79982968 -2.050948144e-19)
(93.71713845 11.77857713 6.101481148e-20)
(94.6173234 12.02715241 -6.042258955e-19)
(98.54860952 14.59663446 -8.321622287e-20)
(97.64610804 15.12004635 0)
(98.13347939 16.41911616 8.261133264e-20)
(99.13699948 15.56636244 0)
(103.6184233 13.41355313 -8.000198205e-20)
(103.4275075 14.49652184 1.718667459e-20)
(104.4634313 14.80018716 2.691600275e-19)
(104.4264959 13.56487099 -2.15382658e-19)
(105.5236164 9.409560185 7.603215117e-20)
(105.8950272 10.24689152 1.612645854e-19)
(106.502844 9.963666016 -2.545295675e-19)
(105.9753187 9.165445888 -6.902239741e-19)
(104.9854852 5.923753077 -4.487067255e-19)
(105.4595293 6.384804762 0)
(105.6777462 6.075921401 -5.110932124e-19)
(105.1492427 5.613982746 2.466907059e-19)
(103.7502197 3.618520696 -4.692341446e-19)
(104.1208749 3.865191328 0)
(104.16486 3.615150039 0)
(103.7928517 3.411833272 0)
(102.9513297 2.364226559 6.449290291e-20)
(102.7086375 2.243674689 6.861568945e-20)
(102.9573391 2.197559903 2.960446705e-21)
(102.7220767 2.099192568 3.580170182e-20)
(101.8614408 1.307480247 2.718544366e-20)
(102.2020811 1.446133747 -2.146458441e-22)
(102.1649051 1.196489974 1.638200342e-20)
(101.8429974 1.122490723 1.22195386e-20)
(101.2793369 0.7821684642 -1.600254425e-20)
(101.525504 0.8610395016 -8.136127457e-21)
(101.4761561 0.6904649978 -8.137703717e-21)
(101.255081 0.651675655 1.234607232e-20)
(100.7212584 0.2370034391 0)
(100.9607745 0.2041373863 1.299601089e-21)
(101.1409462 0.4111872338 -1.090824095e-20)
(101.0426546 0.4842698614 2.710587233e-20)
(100.4900795 0.1165382825 -4.977124595e-22)
(100.6294934 0.09362758095 -1.538649121e-21)
(100.361125 0.04606213678 -1.99130834e-21)
(100.4299669 0.03134127179 -2.247706155e-21)
(100.3355453 0.007185077409 2.560967256e-21)
(99.86572564 -0.07340151877 -1.794859658e-23)
(99.95729111 -0.05529773019 9.95866373e-23)
(99.72832087 -0.130921271 2.388890629e-21)
(99.86073577 -0.1609163687 -1.200347576e-22)
(99.47895408 -0.1577468323 -1.248246911e-20)
(99.66278244 -0.2457328696 1.913923658e-21)
(99.08827798 -0.07641526068 -1.117958355e-20)
(99.3265847 -0.3004590437 -1.895201408e-20)
(99.05630312 -0.1832659759 -1.621458753e-20)
(99.01538623 0.03902612057 -8.807200574e-21)
(98.93747361 -0.112802925 -3.552478231e-21)
(98.8261895 0.006306774544 3.280552266e-23)
(98.40080571 0.2560527098 1.440974247e-20)
(98.50648114 0.1025577659 1.471725038e-20)
(98.27790997 0.03908185274 7.267660781e-21)
(98.12387041 0.2328430989 2.512566724e-20)
(97.54323261 0.6355453021 -2.529292189e-20)
(97.67300772 0.4024036743 -2.034469098e-20)
(97.33990631 0.3282255508 -3.062450786e-20)
(97.18551491 0.6777996216 -1.29979023e-19)
(97.09937301 0.5637243354 9.338296438e-20)
(96.54117972 1.193844164 1.207298608e-21)
(96.60677815 1.013969125 -3.503411742e-19)
(96.37159346 0.9954871263 -1.782860315e-19)
(96.28616097 1.200568744 -3.684957182e-19)
(95.176541 2.167913129 -3.992154344e-19)
(95.22502953 1.904936094 4.378558684e-19)
(94.90663543 1.894291889 1.795314831e-21)
(94.83347504 2.196012926 5.176949562e-21)
(93.44387259 3.711094475 -9.135538216e-22)
(93.46732203 3.310471809 3.400770968e-19)
(92.98381508 3.330210199 1.110077168e-19)
(92.92452202 3.795291884 -7.873264277e-19)
(91.00041935 6.536423497 1.009934094e-18)
(90.9159908 5.857762314 0)
(90.04318272 6.003541595 -4.738671372e-19)
(90.10191296 6.876311371 4.461252326e-19)
(88.24572792 13.30907575 1.641971047e-19)
(87.43986338 12.04070671 -2.750092283e-19)
(85.49579367 13.55549779 1.023288184e-18)
(85.74680818 12.67927792 -2.055812052e-18)
(87.33393758 14.90682126 -1.206495812e-18)
(86.27419211 14.95342798 1.152203185e-19)
(93.41644501 25.26802148 0)
(94.84798348 24.81960241 8.710385209e-20)
(93.97283749 27.1389006 -1.336548396e-19)
(95.70546081 26.2426411 -8.41973538e-20)
(109.1327822 21.39989437 -1.333706821e-19)
(109.2259221 19.54433424 4.261035699e-19)
(110.9085134 18.97560345 -1.445617162e-20)
(110.0799862 22.12052382 -3.966825391e-20)
(112.1618657 20.72807684 4.181796126e-19)
(111.7934453 21.59736458 -6.715850041e-19)
(111.269031 12.16093671 3.291538533e-19)
(110.3312698 11.14650061 9.892244593e-19)
(111.9052815 11.21158149 1.114223046e-18)
(110.7986813 10.43546712 1.1691125e-18)
(107.9880072 6.078163237 7.493275193e-19)
(108.7697966 6.519771832 2.382373447e-19)
(108.8365611 5.885451068 -1.45472646e-19)
(108.0411112 5.576654719 4.66237517e-19)
(105.4951184 3.338074442 1.909237756e-20)
(106.0220633 3.519953049 3.684211699e-21)
(105.9475457 3.146734274 -1.276697219e-20)
(105.4418029 3.031916375 -2.639064435e-19)
(104.0222996 1.962253057 2.596521198e-19)
(103.701826 1.89842864 -3.102797334e-19)
(103.9500191 1.74176727 -1.396695403e-19)
(103.6478409 1.697742168 -2.812842768e-19)
(102.4509468 1.017810002 4.268706554e-21)
(102.8458058 1.058964525 0)
(102.7049847 0.771762466 -2.416204914e-21)
(102.3595656 0.7889536165 -4.398664571e-21)
(101.6572345 0.5543285408 4.371904663e-21)
(101.93924 0.5718289913 -2.350125213e-23)
(101.8215258 0.3778548017 -7.199207486e-21)
(101.5786546 0.3974294633 8.809488961e-21)
(100.8530723 0.06477286598 -2.098970285e-22)
(101.0842424 -0.04045902109 -2.774012596e-22)
(101.3628894 0.1442010907 8.424665226e-22)
(101.2876341 0.2474801008 6.501626155e-21)
(100.5588591 0.008065293675 -3.290989515e-21)
(100.6828688 -0.07115254878 -2.47096076e-22)
(100.3961177 -0.00683979733 2.471859119e-21)
(100.4439729 -0.0626068986 -2.163218899e-21)
(100.3290777 -0.02321521527 4.033731873e-22)
(99.95707338 -0.1415253946 1.877169991e-23)
(100.0907986 -0.09081530705 -3.371087671e-21)
(99.80104296 -0.2726604188 -6.217284363e-22)
(99.98446508 -0.2699831236 1.466725244e-21)
(99.51792707 -0.3850776313 -4.857993386e-21)
(99.76891027 -0.4387819508 -3.196925558e-21)
(99.05136462 -0.3969103679 1.002659707e-20)
(99.40140791 -0.5909083711 -1.106252174e-21)
(99.06246484 -0.531638496 1.060197056e-21)
(98.92429566 -0.2883356307 4.936698398e-21)
(98.90539847 -0.4775226107 1.019282249e-20)
(98.73893273 -0.3767347804 7.204349081e-21)
(98.19597593 -0.2104959031 -2.44660136e-21)
(98.36847752 -0.3559913216 3.824116426e-21)
(98.15981794 -0.4862466236 2.520323521e-21)
(97.93027692 -0.3174494865 7.656523257e-21)
(97.19425572 -0.03279115467 -2.639212027e-21)
(97.41624298 -0.2596847694 -2.791563076e-23)
(97.11583704 -0.4324702721 1.897364075e-20)
(96.81586163 -0.09367222601 2.333316884e-19)
(96.77921331 -0.253855213 -1.223609682e-19)
(95.97987319 0.2755181488 3.909372386e-19)
(96.11422911 0.09636911932 -3.612717431e-19)
(95.89385373 0.003332991253 -1.901643929e-19)
(95.73032295 0.1990157103 4.205824665e-19)
(94.28023305 0.8679760035 -2.350055199e-19)
(94.43675349 0.5990857759 -2.354512066e-19)
(94.13998634 0.4755915666 7.199871898e-19)
(93.94217426 0.7645658268 -2.463390865e-19)
(91.90834584 1.784858234 0)
(92.13844879 1.372389676 4.957345675e-19)
(91.68696544 1.181373936 -5.004556426e-19)
(91.37937038 1.620609767 0)
(87.808734 3.296570685 1.490687606e-18)
(88.25610839 2.557887169 -1.038246041e-18)
(87.45803913 2.164210683 5.065524112e-19)
(86.77495264 2.946403331 3.965060091e-19)
(79.16963577 6.054048884 6.369848693e-19)
(79.80258553 5.07624521 -6.104763328e-19)
(78.86012998 4.400136938 3.731496068e-20)
(77.91305396 5.425462977 -1.329556757e-18)
(127.0941306 24.14132097 0)
(125.0902912 23.09057945 7.316228993e-19)
(127.7023958 22.01611388 0)
(125.7760804 21.41057477 7.559217878e-19)
(118.996408 10.10598453 0)
(117.1960459 9.633943091 0)
(118.8470173 8.420099364 6.145255484e-19)
(117.1803342 8.348402929 5.026992415e-19)
(111.369805 4.588526457 -4.13697697e-19)
(112.4580693 4.725993841 -4.361725706e-19)
(112.1132998 3.897456297 -4.156807953e-19)
(111.1264277 3.916503812 -1.150112338e-18)
(107.2054958 2.233146103 9.187244353e-19)
(107.8486659 2.244814631 6.670203206e-19)
(107.5594035 1.818796346 0)
(106.9815543 1.868033145 -6.192989027e-19)
(104.9648946 1.075185226 -1.512395764e-19)
(104.5960961 1.103338009 -6.1912739e-19)
(104.7856319 0.8365186043 6.60092105e-19)
(104.4527236 0.884098001 4.416727086e-19)
(102.9149996 0.4646357978 -4.717773025e-21)
(103.3333232 0.390802949 -4.105340208e-20)
(103.0696583 0.1047408866 7.426159096e-21)
(102.7358473 0.2262972177 1.123029652e-21)
(101.9482582 0.1638037703 -2.004854217e-21)
(102.2346806 0.1018159037 1.328471417e-20)
(102.0380973 -0.082970541 4.92245347e-21)
(101.8045576 0.006370353819 9.766446723e-21)
(100.9031881 -0.1730580623 -3.374026193e-22)
(101.1020493 -0.3555415829 -1.039420751e-21)
(101.4727205 -0.224649129 -1.05105849e-21)
(101.4434995 -0.08326324854 -1.148127941e-21)
(100.5596799 -0.1398931771 1.062108671e-21)
(100.6514719 -0.2798911165 1.291906723e-21)
(100.370251 -0.0777691185 -4.197234695e-21)
(100.3853148 -0.1799630466 1.650063497e-21)
(100.2556993 -0.06124510523 -2.068998201e-21)
(100.1206418 -0.2177406097 -1.923091386e-21)
(100.296196 -0.1287194649 1.065847448e-21)
(99.95521423 -0.431754203 -1.123260367e-21)
(100.1863789 -0.3863211142 -7.886413776e-22)
(99.65588532 -0.640977673 5.767319169e-22)
(99.96632407 -0.6447452996 -2.831505632e-22)
(99.14073228 -0.766700411 6.556925417e-22)
(99.59095515 -0.9017388438 9.554860816e-22)
(99.20120707 -0.916970093 5.733133337e-22)
(98.96011889 -0.6821827635 1.667990374e-21)
(99.01342569 -0.8901456905 -1.682797835e-23)
(98.7983223 -0.823079291 -1.683037181e-23)
(98.17456728 -0.7801056191 -2.518022957e-21)
(98.40703451 -0.8932489221 0)
(98.24165324 -1.083087048 -1.237362579e-21)
(97.95035379 -0.964177805 -1.31981036e-21)
(97.1097186 -0.8562370291 4.073450814e-21)
(97.4147545 -1.036544334 -1.891340614e-20)
(97.17828137 -1.288936287 -2.028796799e-20)
(96.7541822 -1.015951509 -2.700617242e-19)
(96.77745745 -1.197282296 2.330729418e-19)
(95.80492263 -0.8623407762 2.413370615e-19)
(95.9981241 -1.011080317 -3.053883533e-19)
(95.82691084 -1.159779958 -2.025542407e-19)
(95.59077319 -1.008788721 -7.956010916e-19)
(93.99336335 -0.7583500908 -9.587612633e-19)
(94.23267506 -0.9715286304 -4.704712721e-19)
(94.0254311 -1.168322463 1.000639647e-18)
(93.72029952 -0.9561890556 -1.514829906e-18)
(91.51167193 -0.670301216 9.70609176e-19)
(91.89372923 -0.9544201334 -5.167003783e-19)
(91.59514183 -1.253173785 1.067601958e-18)
(91.14672112 -0.9909180082 1.268062492e-19)
(87.56371275 -1.015623205 -5.097896421e-19)
(88.26712509 -1.356232456 1.08285368e-18)
(87.85252586 -1.889123627 -5.298679535e-19)
(87.04777535 -1.642985996 -3.729243251e-19)
(82.00028283 -3.371991683 0)
(82.65800881 -3.38348128 0)
(82.58548151 -3.897331099 0)
(81.98188507 -3.993819059 0)
(140.4342835 5.922704938 -3.514097365e-19)
(138.6964927 6.976010475 -2.373103085e-18)
(139.0394154 4.525063991 1.173094714e-18)
(137.5901936 5.575381644 1.079247406e-18)
(124.1074789 2.391999627 1.61496128e-19)
(122.3165327 3.121930014 -7.099766267e-19)
(122.8168874 1.057741876 -7.103172612e-19)
(121.4102278 1.898082283 -8.269888269e-20)
(113.7634506 1.182965421 6.952149694e-19)
(114.872494 0.814273357 -3.89770197e-20)
(114.0512027 0.1351375472 9.558476462e-19)
(113.1327426 0.5700133599 6.619631254e-20)
(108.3549674 0.3027561014 1.879683987e-20)
(109.0068938 0.08299097067 -6.690002827e-19)
(108.4990494 -0.2675029842 -1.558546351e-19)
(107.9465038 -0.02064980848 -2.957273492e-19)