/*--------------------------------*- C++ -*----------------------------------*\
| =========                 |                                                 |
| \\      /  F ield         | OpenFOAM: The Open Source CFD Toolbox           |
|  \\    /   O peration     | Version:  v1912                                 |
|   \\  /    A nd           | Website:  www.openfoam.com                      |
|    \\/     M anipulation  |                                                 |
\*---------------------------------------------------------------------------*/
FoamFile
{
    version     2.0;
    format      ascii;
    class       volScalarField;
    location    "0.78";
    object      nut;
}
// * * * * * * * * * * * * * * * * * * * * * * * * * * * * * * * * * * * * * //

dimensions      [0 2 -1 0 0 0 0];


internalField   nonuniform List<scalar> 
12556
(
1.155902292
1.155873225
1.155842198
1.155814006
1.156029941
1.156021203
1.156024968
1.156042263
1.156079024
1.156148622
1.156260066
1.156399543
1.156521308
1.156537886
1.15651123
1.156397919
1.156267046
1.156171726
1.156087127
1.156056946
1.155817211
1.155823889
1.155845285
1.155871402
1.155180502
1.155097
1.155006532
1.15492795
1.155121299
1.155107598
1.155143135
1.155328892
1.155504588
1.155831228
1.15635264
1.157024826
1.157690416
1.153608021
1.157736213
1.15716948
1.15653221
1.155990563
1.155519573
1.155297076
1.15496091
1.154962875
1.155016377
1.155094625
1.154434377
1.15428847
1.154135714
1.154018331
1.154212287
1.154223092
1.154322603
1.154634859
1.155080569
1.155885764
1.157190465
1.046275278
0.9502362044
0.9038010739
0.9478482645
1.065495643
1.157436431
1.156219236
1.1552107
1.154689768
1.154180348
1.154124443
1.154188803
1.154313178
1.153668671
1.153466879
1.153264138
1.153123137
1.153314323
1.153387826
1.153610462
1.154173586
1.155120553
1.156977193
0.9054850584
0.7214267535
0.6199712813
0.6211020242
0.674461778
0.7773826243
0.9507132769
1.157355713
1.155419937
1.154365011
1.153500598
1.153353001
1.153390266
1.153540304
1.152880026
1.152620774
1.152371258
1.152229291
1.152456372
1.152632782
1.153109642
1.154040077
1.15600986
0.8909864663
0.5997320319
0.4372991532
0.3737004514
0.3833207057
0.4490427376
0.5480669157
0.694956263
0.9378537414
1.15648071
1.154448391
1.153036588
1.152637039
1.152599976
1.152754418
1.15209297
1.151786344
1.151508108
1.15137475
1.151652293
1.15199038
1.152856541
1.154401114
1.067628332
0.6555991568
0.3940231155
0.2421484217
0.1844148464
0.2121999732
0.2887192961
0.3889099148
0.5207701129
0.7236943681
1.056595095
1.155036308
1.152755536
1.15200011
1.151829
1.151958112
1.151302005
1.150946708
1.150644785
1.150550171
1.150917675
1.151480398
1.152859337
1.155337147
0.8948785351
0.5196484404
0.2794093069
0.1223050496
0.06641254522
0.1040044218
0.1888984251
0.2882903837
0.4090670313
0.5818738419
0.8926900912
1.156204862
1.152668141
1.151420313
1.151048693
1.151123924
1.150531679
1.15014284
1.149839589
1.149791773
1.15027891
1.151129622
1.153168957
1.156651866
0.8122175202
0.4817840011
0.2657640493
0.1055541198
0.05752695868
0.1405772826
0.2348051653
0.3455842066
0.498491961
0.7790065756
1.157685615
1.152826994
1.150945769
1.150291691
1.150277349
1.14979725
1.149372242
1.149070539
1.149104547
1.149770926
1.15095308
1.153743018
1.158120266
0.7990166028
0.5207576146
0.3620963716
0.270294817
0.06723723933
0.1350907985
0.2177293728
0.3187294214
0.4577726478
0.7166522652
1.071320032
1.153195564
1.150578961
1.14958168
1.149454234
1.149127454
1.148686493
1.148403145
1.148552717
1.14935655
1.150947464
1.154512506
1.159570809
0.820760612
0.5905845575
0.4969699401
0.5638613953
0.09265293607
0.1510061913
0.2257026054
0.3191692162
0.4469337494
0.6896702566
1.015826277
1.15380096
1.150413634
1.149019101
1.148747617
1.148515209
1.14804657
1.14779709
1.148107303
1.149025316
1.151094145
1.155414097
1.16095732
0.8526454419
0.651369784
0.5921862764
0.5722988761
0.1259598431
0.180424506
0.2508651861
0.3399859063
0.4619563264
0.6936936551
0.9894491496
1.154582371
1.150442303
1.148646263
1.148224309
1.148001924
1.147524722
1.147311712
1.147763035
1.148800069
1.151355294
1.156386789
1.162268136
0.8843315893
0.6862372296
0.6082645137
0.4920079551
0.1639971176
0.2220540593
0.293414447
0.3804208288
0.5014702017
0.7245876102
0.9950730093
1.155568333
1.150732783
1.148544301
1.14796188
1.14753687
1.14704916
1.146899307
1.147514454
1.148691553
1.151678633
1.157382388
1.163446783
0.920694813
0.707195029
0.5729005039
0.4317702082
0.07352915819
0.2118337362
0.2839765555
0.3595188074
0.4474195726
0.5732861718
0.7791304567
1.026452792
1.156611166
1.151204721
1.148667645
1.147955727
1.14718098
1.146688305
1.1465946
1.147336434
1.148759491
1.152270081
1.158449775
1.164532124
0.9782440232
0.7504748868
0.5721062202
0.2747015352
0.1377981422
0.3148786538
0.3959448211
0.4685572663
0.5492575481
0.6697339914
0.859053459
1.079752387
1.157673364
1.151861782
1.149017752
1.148187099
1.146851672
1.146348739
1.146306892
1.147187533
1.148818982
1.152717469
1.159252506
1.165146086
1.091739258
0.8653677507
0.6757529716
0.07185458602
0.1903940944
0.4669945485
0.6128194238
0.6493305974
0.7086154099
0.8111653095
0.9804279254
1.165577568
1.158654317
1.152544416
1.149478885
1.148572379
1.146611618
1.146099913
1.146096788
1.147089423
1.148897741
1.153118164
1.159917043
1.165478958
1.157910996
1.079662834
0.8550155619
0.0479535961
0.2014623721
0.4649905975
0.7091046335
0.904459728
0.9351284637
0.9989598791
1.148947759
1.166550432
1.159518205
1.153238898
1.150021101
1.149063725
1.146356584
1.145828487
1.145849469
1.14695796
1.148959202
1.153435981
1.160391443
1.165459201
1.157851472
1.10837946
0.8637980708
0.07162930091
0.1791549842
0.4422907612
0.6908726223
0.8981162808
1.043115912
1.122289216
1.160367469
1.167101544
1.160181849
1.153836917
1.150526145
1.14954343
1.14616872
1.14562689
1.145655304
1.146837321
1.14897579
1.153647041
1.160634549
1.165086165
1.156409402
1.10772532
0.8775473002
0.1184903539
0.1468458315
0.4146644357
0.6757860089
0.8972861511
1.045004135
1.123159967
1.160684244
1.167312672
1.160636343
1.154326241
1.151008243
1.150015734
1.145928287
1.145367852
1.145390429
1.146644123
1.148932417
1.153740055
1.160645154
1.164345324
1.153527595
1.099872805
0.8614775551
0.1448251579
0.1328753097
0.4035059175
0.6758256958
0.900470281
1.045846947
1.123245429
1.160530244
1.167211865
1.160855702
1.154643303
1.151357557
1.150370013
1.145745645
1.145174238
1.145181634
1.14645994
1.148823187
1.153715362
1.160437842
1.163277312
1.150037534
1.087484378
0.8056074429
0.1168292412
0.1440336208
0.4098000294
0.6789868084
0.9025745245
1.046013113
1.122820783
1.160030303
1.16686696
1.160944616
1.154899451
1.15166931
1.150687129
1.145483947
1.144901593
1.144891017
1.146200774
1.148657296
1.153583965
1.1600358
1.161930838
1.146041167
1.073305357
0.7404849705
0.09613617128
0.1562033626
0.415707759
0.6804352945
0.9034720847
1.045696301
1.122065518
1.159286987
1.166344437
1.160858894
1.154999752
1.151837196
1.150862918
1.145284858
1.144703154
1.144676905
1.145980977
1.1484485
1.153366697
1.159470234
1.160349764
1.141567335
1.057062191
0.6784013742
0.08394111481
0.166676405
0.4209753609
0.6812498082
0.9030176754
1.044926642
1.121078731
1.158380378
1.165702552
1.160729401
1.155092989
1.151998346
1.151023361
1.144988205
1.144409262
1.144373659
1.145696394
1.148217034
1.153088591
1.158774919
1.158569935
1.136590369
1.037492791
0.6265634252
0.07639281103
0.1758034022
0.4257091505
0.6818324967
0.9014980598
1.04364474
1.119892016
1.157361988
1.164986611
1.160480252
1.155051911
1.152020189
1.151042201
1.144767806
1.14420346
1.144166682
1.14548062
1.147973904
1.152770778
1.157976818
1.156604152
1.130972642
1.013263101
0.5837518936
0.07140554727
0.1839487217
0.4300407556
0.6823020325
0.8993963649
1.041857926
1.118505774
1.156259632
1.164226557
1.160252825
1.155055272
1.152078816
1.151087977
1.144435099
1.143886101
1.14385571
1.145194373
1.147730134
1.152425533
1.157091736
1.154443337
1.124455854
0.985314005
0.5477146041
0.06800878663
0.1914101871
0.4340562592
0.6826874635
0.897057447
1.039677692
1.116931659
1.155091499
1.163441608
1.159925304
1.154927761
1.151998361
1.150993328
1.144196356
1.143672975
1.143657985
1.144995837
1.147484412
1.15205716
1.156124688
1.152063129
1.116741407
0.9560501786
0.5169334614
0.06579656173
0.1983050756
0.4378406347
0.6829928212
0.8946539463
1.037244597
1.115202516
1.153874426
1.162644193
1.159663614
1.154888933
1.15200011
1.15097316
1.143835541
1.143335719
1.143339893
1.144709522
1.147241241
1.151665516
1.155073927
1.149423866
1.107639956
0.9271979525
0.4903939497
0.06463450411
0.2046864415
0.4414144501
0.6832473151
0.8922786815
1.03467738
1.113360551
1.152625
1.16184342
1.159296926
1.154707241
1.15185316
1.150805217
1.143584397
1.143117349
1.143150312
1.144528264
1.146994328
1.151248952
1.153933803
1.146477906
1.09717622
0.8995492687
0.4672368986
0.06432875484
0.210629991
0.4448144717
0.6834928193
0.8899867452
1.032061576
1.111445882
1.151358052
1.161045835
1.159033894
1.154654785
1.1518318
1.150757096
1.143211458
1.142772026
1.142831614
1.144241526
1.146748594
1.150805065
1.152695552
1.143170628
1.085550188
0.8733656085
0.4467385335
0.06465055237
0.2162160612
0.4480807755
0.683766306
0.8878094747
1.029455188
1.109492684
1.150086247
1.160256632
1.158648991
1.154440869
1.151646256
1.150548144
1.142949149
1.142547091
1.142645696
1.144074127
1.146496388
1.150331748
1.151346965
1.139453651
1.073031531
0.8487047953
0.4285022514
0.06547354798
0.2215001592
0.4512578114
0.6840973211
0.885766281
1.026896792
1.107528043
1.148819683
1.159480229
1.1584015
1.154388806
1.151620804
1.150494837
1.142588488
1.142215104
1.142343656
1.143795364
1.146244501
1.149826471
1.149873625
1.135291118
1.059879171
0.8254721887
0.4121758797
0.0667238099
0.2265600644
0.4543966747
0.6845096666
0.8838676773
1.024411566
1.105572941
1.147566169
1.158718587
1.158017464
1.154166299
1.151424285
1.150276227
1.142302617
1.141970242
1.142145815
1.143629006
1.14598434
1.149286786
1.14825955
1.130668376
1.046301696
0.8035223029
0.3974034351
0.06834035915
0.2314551349
0.457524056
0.6850104931
0.8821163897
1.022015729
1.103643687
1.146331696
1.157975671
1.157782546
1.154108881
1.151393072
1.150218219
1.141993304
1.141688257
1.141894514
1.143384766
1.145722914
1.148708739
1.146487325
1.125589124
1.032458554
0.7827186734
0.3839011761
0.07011939801
0.2362191934
0.460637499
0.6855977861
0.8805121016
1.019720094
1.101752394
1.145120981
1.157248857
1.157436373
1.153917599
1.151225979
1.150033082
1.14165123
1.14139094
1.14165024
1.143180676
1.145453322
1.148090692
1.144544802
1.12007005
1.01848108
0.7629873496
0.3715613159
0.07208516535
0.2408868517
0.4637464403
0.686274825
0.8790555898
1.01753372
1.099911196
1.143941038
1.156547844
1.157167827
1.153817501
1.151156009
1.149937555
1.141444176
1.141208108
1.141496459
1.143029124
1.145184254
1.147435159
1.142437996
1.114139378
1.004471398
0.744279405
0.360297741
0.07417412526
0.2454809745
0.4668571178
0.6870433401
0.8777479746
1.015464294
1.09812938
1.142810052
1.155873554
1.156953665
1.153723432
1.151081825
1.149851348
1.14102772
1.140848602
1.141204635
1.142769485
1.144938982
1.146764748
1.140233949
1.107857587
0.9905901489
0.7266791591
0.3500713038
0.07645428868
0.2499940394
0.4699520763
0.6878955863
0.8765860928
1.013517367
1.09641281
1.141791855
1.155287676
1.156621737
1.153604417
1.151006339
1.149749608
0.2354536168
0.05961889472
0.05010542609
0.5434141452
0.08418772984
0.06244689193
0.5819802821
0.1185144882
0.08821781765
0.5007520485
0.1503397138
0.1236262073
0.4372185691
0.05468894542
0.06897565569
0.1858065036
0.1543402076
0.3248200972
0.0998813048
0.05628494389
0.1263462863
0.2534028629
0.1891048222
0.1016367093
0.06768111207
0.05192120122
0.09839945594
0.03037005088
0.02129788515
0.06485724484
0.114774535
0.120286106
0.4645145383
0.5143667237
0.2801789321
0.04294491063
0.05029709687
0.08929298871
0.1291729124
0.1166805502
0.5754358472
0.6793015071
0.5382489413
0.619848902
0.2201108017
0.2559367171
0.07063994546
0.05225475903
0.1216830311
0.1572163007
0.1351709364
0.6097639149
0.6038731684
0.6702028822
0.5424172251
0.133812906
0.1795823219
0.1222695061
0.09306842998
0.5815686568
0.5222587334
0.59493573
0.4760170508
0.07464718107
0.1011495755
0.02284382176
0.1413025999
0.1360462231
0.5626176024
0.3895446763
0.5114529394
0.3923434991
0.02792277211
0.04663026425
0.2512601696
0.1409368929
0.1080976341
0.08295341992
0.2284389444
0.0383709815
0.07413133036
0.04872563865
0.03164822392
0.05211997222
0.03349881528
0.0467940063
0.2610951093
0.3002308221
0.4371394013
0.2293011582
0.2053801633
0.2792490153
0.233923994
0.05180902793
0.04272440401
0.07380164955
0.06105180932
0.06776623332
0.04799414106
0.06138343797
0.07233612963
0.1830254892
0.2150429636
0.6103329721
0.1642696767
0.1345274135
0.2029330185
0.1667761484
0.08912095043
0.07219113283
0.105567534
0.09526550418
0.1161116325
0.06834478053
0.09216481669
0.1010069637
0.1026926832
0.1319136835
0.5323925391
0.1042467457
0.07693814272
0.1328645961
0.1057619626
0.1351492285
0.1267326601
0.04758748084
0.07281280643
0.473404288
0.01563543084
0.05024056902
0.02972224483
0.07581301997
0.0518047931
0.01368708248
0.147156524
0.1428467659
0.02584673271
0.004672914373
0.02758908095
0.3864588431
0.08394758965
0.01741724437
0.009596294937
0.02938332995
0.017753397
0.08215366055
0.330122049
0.2479466145
0.1237284962
0.1373048615
0.08279832472
0.04565736305
0.01663756318
0.009075579305
0.3956663086
0.3056918763
0.2518062561
0.009326863727
0.1567436375
0.1943329727
0.1657145286
0.009764960133
0.07593980629
0.06668935459
0.09626082164
0.163223511
0.1507601496
0.2165476898
0.09275704692
0.1562382847
0.04251747438
0.01472664404
0.02568803525
0.02445544483
0.03179241735
0.05078084467
0.0647404303
0.04726566948
0.1387428583
0.1285991415
0.1370069105
0.1174116962
0.1273539357
0.1353803657
0.03698686069
0.0112722883
0.06687932663
0.02670795746
0.04632285192
0.0372735626
0.02167428804
0.03423526773
0.02541757873
0.0156659441
0.02446843962
0.02200922463
0.01089846967
0.01771720779
0.02317125117
0.05391026057
0.05474833746
0.06167776095
0.06038842587
0.02329443569
0.01081650234
0.1093855039
0.01970685153
0.03693242266
0.009903964128
0.01667227629
0.105119939
0.08945579305
0.2659297545
0.250807798
0.09476246744
0.08078160093
0.01008239363
0.04168396879
0.1866868288
0.1725192048
0.2063659253
0.1924453099
0.04206886215
0.05360346963
0.04286450853
0.1253150492
0.07042278325
0.06934228291
0.04013221688
0.06976367925
0.1427133633
0.04699643441
0.02696132723
0.01683347565
0.06060366168
0.02997219535
0.05220797717
0.02847820015
0.07482617812
0.03923540224
0.03884561667
0.2229249538
0.029989428
0.2218539909
0.2584294723
0.03420289884
0.03898262084
0.0304616643
0.03362704565
0.2521527779
0.0499440104
0.0495984393
0.06494913794
0.07042123582
0.06573144665
0.07701883239
0.0720265623
0.06527744119
0.05827226426
0.05815453774
0.05310083531
0.06404862228
0.05954792051
0.05984833704
0.1495293704
0.1476104325
0.1859800208
0.1837215419
0.0846317371
0.009645782728
0.08308147185
0.09393059389
0.09197922072
0.1185884172
0.1167580132
0.03949000463
0.05796740858
0.1329943448
0.04402659086
0.02511133963
0.06354048766
0.2260600427
0.2114666201
0.2457562895
0.2309387744
0.06487652891
0.03358044339
0.04573585374
0.04474406057
0.06838076452
0.06749932167
0.006542705031
0.04483651361
0.1135878257
0.09960891552
0.1669716648
0.1562023787
0.02183216948
0.0112432007
0.027905852
0.01800084193
0.02791910847
0.01055417486
0.01644629656
0.0108885251
0.0279419968
0.07152693617
0.01191192768
0.02419172822
0.003625179567
0.02385875073
0.01772978665
0.6332734937
0.359315985
0.3693501118
0.2385589963
0.007981151712
0.005315321585
0.184173498
0.3934531714
0.2863084197
0.006307550387
0.01530723726
0.0112287921
0.1241519737
0.1185107704
0.048555499
0.2039034917
0.1696549682
0.09974014542
0.0108155321
0.01875441794
0.01470409817
0.009414909202
0.01424395545
0.0100531856
0.04618229875
0.02066753722
0.01935637642
0.05505929768
0.06632306168
0.02034481731
0.02778053423
0.01300417277
0.01286574928
0.0543824774
0.1500091671
0.346902374
0.3313090479
0.3680332651
0.3521493237
0.1537039749
0.2858279769
0.2707442301
0.09083106181
0.03074792363
0.09137390226
0.08587087067
0.01029815921
0.01602081016
0.1167464175
0.04496227607
0.02336286104
0.02086108533
0.03872894871
0.04531653028
0.04116502806
0.05153410015
0.0467575549
0.03986794205
0.05084860245
0.01362986099
0.0130867508
0.04447325414
0.1965143787
0.3894510831
0.3733169341
0.05815308302
0.06024902409
0.1400776022
0.02948011698
0.03215464215
0.07647553878
0.1048980126
0.1056229113
0.09756463345
0.07559362183
0.08490288398
0.07896390979
0.09462980847
0.08724907164
0.07688113096
0.1172707714
0.3058978287
0.2907791714
0.3261807309
0.3109616984
0.1192607745
0.09989295239
0.03472443768
0.03543317804
0.02008332641
0.02085741627
0.08157377091
0.1269574491
0.05380492241
0.05772902912
0.03573724077
0.03639907135
0.1103246415
0.1343147935
0.06074716196
0.08032108091
0.006777574099
0.02279312197
0.04791553181
0.03625852465
0.07257035487
0.01947237933
0.01994480855
0.01904740929
0.06101436017
0.01049354216
0.004386233524
0.1177611608
0.09835059036
0.08396455057
0.07947738433
0.02717225324
0.02628688592
0.03960595879
0.08931018726
0.01719294759
0.01074229827
0.02495221856
0.03266911518
0.002888501513
0.02888265249
0.01873891757
0.0128280071
0.006545255763
0.01262436569
0.009471673832
0.009331287831
0.03526838583
0.0267845435
0.006495942134
0.03878179004
0.04073720302
0.01704302958
0.01153930473
0.008086812016
0.01193396106
0.01861743459
0.01137527846
0.01617502029
0.05533852515
0.01004826868
0.009231991562
0.01074565206
0.01415473199
0.04457029579
0.01065247332
0.01012161568
0.01433562539
0.01072432682
0.01055633138
0.02434862145
0.01632045791
0.03456796915
0.02730930631
0.01040809323
0.02221563159
0.02232941203
0.01936228545
0.03106877359
0.02374824394
0.01894041773
0.01702980703
0.0132596852
0.01778208209
0.01385704328
0.04870280406
0.05680045936
0.01903141662
0.01786858436
0.0189719002
0.01967491293
0.06481643187
0.01137059178
0.0117401581
0.01543158545
0.01159497205
0.0119088632
0.05579586462
0.01236062869
0.01854875274
0.01570245851
0.0139465215
0.02621576669
0.06819702113
0.06235881387
0.01280397636
0.05201228802
0.04487667696
0.06021972463
0.05445229202
0.01355242363
0.01252946468
0.0471449409
0.0387014813
0.1002001854
0.09338176472
0.03423551791
0.04421068206
0.1078398719
0.1020890189
0.04724018131
0.04612752568
0.07374629133
0.09613996782
0.1239775275
0.07148184613
0.08960449873
0.07498285094
0.06305099035
0.159061334
0.1433589418
0.1392225935
0.16358971
0.06296617336
0.04352627072
0.05227351658
0.06553332413
0.03795621998
0.04292884685
0.03216313652
0.03054623404
0.04365599135
0.02235340386
0.02246160233
0.01787659897
0.03199396208
0.03273760221
0.02331107962
0.03225872071
0.03547092829
0.03774399202
0.03368627599
0.02805832405
0.09946350379
0.08573292028
0.1073364127
0.1024238809
0.02924282931
0.07593062953
0.07329431703
0.08184210443
0.0768854381
0.03595245198
0.1292810375
0.123113667
0.1395249796
0.1315099253
0.0366420091
0.03172060366
0.1139703704
0.1090758737
0.1211731545
0.1157106718
0.03210654364
0.0145257858
0.01389166274
0.05058959589
0.04622468935
0.01447207188
0.01474375917
0.04153959453
0.04072457609
0.04380993954
0.04182019445
0.0392540775
0.0381677049
0.04045898036
0.0395301907
0.06935347185
0.06711565324
0.0724819298
0.07014589436
0.06108718933
0.04661410794
0.06617454084
0.06385590224
0.03291943931
0.02779075476
0.04279550974
0.03571554056
0.009233497796
0.01757184821
0.01641251683
0.0259195502
0.01824477066
0.03376847515
0.03437297172
0.09841000603
0.02002178498
0.01982361085
0.02066464797
0.02020676949
0.01919287573
0.08404380553
0.02142718228
0.03175564417
0.0385204245
0.05185413826
0.1249242229
0.03526538152
0.02276024168
0.03802650855
0.03506431051
0.02143392445
0.02090107101
0.02235251197
0.02165949481
0.1118816509
0.03662724531
0.03749663719
0.006605188395
0.03589040897
0.009240862476
0.01008423907
0.009235105504
0.03320790996
0.006950303738
0.02558067507
0.009953108221
0.01045906393
0.04725803843
0.0408754026
0.01888268366
0.01936612469
0.07158535125
0.06322167347
0.01801924397
0.01881366537
0.009609736821
0.02609025377
0.07674102567
0.06810745012
0.0115604513
0.01122633774
0.01638970161
0.01090006949
0.01139311167
0.02268377204
0.02876635431
0.007332170704
0.01276793453
0.01064262943
0.0116405458
0.01952283955
0.05949535264
0.1271373912
0.1655779311
0.009472747746
0.009450205889
0.1933655177
0.247538862
0.205786541
0.006500718823
0.04703470881
0.01589969263
0.02342317839
0.1414352561
0.1472870414
0.1647872687
0.005238908855
0.008414594908
0.006144048971
0.005082730777
0.00630444525
0.004973227678
0.06392915332
0.04042694634
0.02497680077
0.02735009396
0.02406179736
0.02762761477
0.235441478
0.4331923221
0.4166622197
0.455413085
0.4387250936
0.2405111823
0.05782894971
0.05007683343
0.01440540598
0.08499374681
0.09887420973
0.1384812759
0.115534235
0.1096722798
0.04470042538
0.02921564309
0.03502903329
0.03410660561
0.4111796667
0.3948329849
0.2009239289
0.1575986006
0.06643762806
0.07057726199
0.07390273204
0.08562648666
0.174404706
0.05512005435
0.1243186016
0.1175681922
0.01068854377
0.01099443523
0.0177062354
0.01859810325
0.01887294003
0.03052099531
0.01202190361
0.009810502849
0.01004643417
0.03412900173
0.06917142373
0.0600269013
0.01738418791
0.02916407462
0.0181860088
0.01834265421
0.01776140655
0.01433630308
0.009659475434
0.01271912406
0.01150577497
0.009788532095
0.02938782423
0.03702257535
0.07543789696
0.04096465572
0.03987313619
0.03637316255
0.02684770325
0.05786355236
0.01896447996
0.02656024493
0.01038277524
0.007194111166
0.007282994701
0.0105775667
0.01025875126
0.02599340733
0.01641356541
0.01102380468
0.02162156084
0.02030003986
0.01872845002
0.02134193318
0.02590132797
0.02127873802
0.01178641661
0.01275470787
0.00747916274
0.009334300341
0.01220020548
0.0763278525
0.07014072764
0.02860342139
0.00959074088
0.01755007165
0.015743108
0.01089875189
0.01730763477
0.01476915852
0.0510896875
0.03855338746
0.04402608617
0.07165740367
0.1046986511
0.1027482827
0.04190189853
0.07059305849
0.066261826
0.1013378242
0.09866730419
0.06778260602
0.03905165853
0.04733837203
0.03977879108
0.03037746777
0.03192182939
0.02587832783
0.05058651741
0.04879993906
0.05975874694
0.02233555433
0.03269394893
0.03100048214
0.05231347236
0.05188770893
0.02971707501
0.02720549783
0.0267733868
0.02994525679
0.02921289623
0.03482543523
0.05967351043
0.05891219537
0.06429650861
0.06331634075
0.0381146439
0.03082787595
0.05376587604
0.05316509382
0.05813344317
0.05737408102
0.03309998403
0.06355482459
0.06565440486
0.1555220033
0.1418635139
0.06087569807
0.06289302933
0.09346372106
0.09719057313
0.1931494856
0.02514202293
0.02500605793
0.02652602932
0.02630601671
0.01908518412
0.02472455138
0.02462907369
0.1767357274
0.08811105682
0.09207754305
0.009985927738
0.01009281828
0.0151386213
0.0143831368
0.009698002298
0.01001719343
0.009681068708
0.07798409406
0.03343046799
0.04101187102
0.1331163699
0.1265707312
0.05829413044
0.06790581544
0.1410263685
0.1350762312
0.02989821738
0.02996726967
0.04610018304
0.04440193197
0.0295136848
0.02948007241
0.009680864373
0.02077141936
0.03266252647
0.03251697314
0.008123511736
0.01334044715
0.02505528064
0.01179907995
0.01160743053
0.01732306114
0.0175642318
0.02835411935
0.01074628958
0.007641133096
0.01063119064
0.0106105251
0.02648403004
0.01685199319
0.01742395716
0.01603000163
0.04384244318
0.03701449267
0.009630477522
0.009692642995
0.01092796562
0.01155166339
0.01967478017
0.006967635845
0.004652283796
0.008601376378
0.01328590898
0.00934472881
0.01026524196
0.009294829583
0.009576745931
0.01178824531
0.01114170183
0.007379154493
0.005495702495
0.01761136646
0.01817970761
0.01695361387
0.01717913021
0.02007678904
0.03021754492
0.03066028109
0.02962500474
0.03003324943
0.01989037536
0.01276966878
0.02270197584
0.02265725274
0.02343330044
0.02284743191
0.01251580388
0.02223788186
0.03377493204
0.0373469675
0.03101529121
0.03199110126
0.02157294635
0.01355191135
0.0226803446
0.02266011291
0.02261877614
0.02266010625
0.01332230451
0.01627848572
0.0166706338
0.01572117475
0.01643699202
0.03487824851
0.05380704022
0.0533291067
0.02032703933
0.03347783623
0.03323960541
0.03473074422
0.03381596441
0.02051738383
0.01001418314
0.009803324035
0.01014797854
0.0100033312
0.01889339629
0.01871181899
0.01929042627
0.01908577446
0.01474315661
0.03244887314
0.01944449658
0.02032412648
0.01964750426
0.032784307
0.0325724764
0.03309604727
0.03292106161
0.01977244648
0.02014473765
0.01957677255
0.02936883258
0.02107168259
0.01513764054
0.00670408998
0.009792970882
0.01099935655
0.006591388009
0.03890502511
0.02676706082
0.003062724303
0.02716942536
0.04148299258
0.04109276556
0.01715076361
0.010675223
0.007818507135
0.004371266638
0.0113158427
0.01132968952
0.01797889603
0.01812260335
0.02908215212
0.01817333172
0.009177456956
0.008155370782
0.0153460768
0.004090153375
0.009560339358
0.007399793558
0.005196803863
0.006487502349
0.009417096695
0.008210783101
0.009540281737
0.01091578521
0.01004997639
0.04071943866
0.03068935921
0.009061462676
0.01113869605
0.01258078326
0.01892667686
0.02129056271
0.0134899593
0.01671186774
0.01475508312
0.009462956014
0.006509650091
0.009530451299
0.01016573008
0.006909162525
0.01018219853
0.01017696777
0.01256912771
0.0106042539
0.01057082524
0.01034991894
0.01014459359
0.01153894939
0.0110907391
0.01065522679
0.01049187078
0.01071804665
0.01290605302
0.01198712667
0.02771237731
0.02214611726
0.02482704604
0.02764896181
0.03110228494
0.02685514171
0.02493844527
0.0267519069
0.01690097869
0.02670381896
0.02835520028
0.01946033826
0.0268248938
0.01793613388
0.01861110956
0.02902536264
0.02943963102
0.02835416562
0.02888871235
0.01838448454
0.01918210086
0.03367167655
0.03315579164
0.01153914864
0.01163834496
0.01327429919
0.01040809305
0.01076224589
0.01116965613
0.01182661126
0.01137438168
0.01488087768
0.02801129501
0.02505363317
0.0323125604
0.03069847067
0.01737283024
0.009255757392
0.01054704818
0.01864934594
0.007045292662
0.00924906597
0.009247910538
0.01330361597
0.009326349294
0.009562295947
0.0230764516
0.02049349063
0.01106457637
0.04886285906
0.04475840929
0.08933740479
0.07884006439
0.04406551489
0.0674396857
0.09743191691
0.09280924978
0.03730575943
0.03390189555
0.03415744123
0.0237030052
0.02917452463
0.0501285727
0.04873027425
0.04140973506
0.03206302488
0.04446057199
0.04252862142
0.04131664964
0.04268645534
0.0302888075
0.02127844118
0.02270454972
0.03407004128
0.02435339457
0.0232423509
0.02580299443
0.02459378022
0.0344361864
0.02386750598
0.02449672352
0.01974120143
0.02545489937
0.04733225687
0.04755536809
0.02958209832
0.02919599894
0.05072577957
0.0507163129
0.02793056676
0.02751461392
0.02874145925
0.0282952572
0.06109879539
0.06035374631
0.03528048956
0.03736981124
0.06256251258
0.06183377828
0.05520490577
0.05455111425
0.03132913228
0.03254708647
0.05659955349
0.05589995173
0.01423110304
0.0227013934
0.02270584656
0.02271040879
0.02272435053
0.01414103739
0.01493412483
0.02102447637
0.0183417303
0.02257088023
0.02215223514
0.01483453541
0.04125387008
0.02386027478
0.02412861903
0.02345375717
0.02365134295
0.04099560534
0.04266051543
0.02504460884
0.02550184888
0.02438538439
0.02469154253
0.04215812635
0.03885556644
0.02226345072
0.02250105699
0.02190572046
0.02213278906
0.03862136515
0.04016541594
0.02307433405
0.02325737308
0.02265891138
0.0228920258
0.03988593455
0.02558502944
0.02540697701
0.06861573492
0.04483278787
0.04517756374
0.0440740549
0.04436944784
0.06778920566
0.02603809242
0.0258347753
0.02352877917
0.02476872719
0.05888416665
0.04016341889
0.0398385839
0.02636762977
0.02774392807
0.05215016566
0.06565374114
0.04331778252
0.04352525895
0.04254890809
0.04249156955
0.06426752812
0.0242948132
0.02434896389
0.009926359941
0.01029103361
0.009560367713
0.01356195384
0.01163052701
0.01716995674
0.01066537081
0.01052314566
0.01074878167
0.01072901037
0.016892591
0.0231841324
0.01227053001
0.01438103432
0.01078352421
0.01038181195
0.02006735478
0.03371108287
0.05118644906
0.0508717505
0.0526129569
0.05224726459
0.03427495289
0.01998155409
0.01975131218
0.02054611889
0.02027407569
0.02032149623
0.01597072159
0.02249619046
0.04157538635
0.03696754946
0.04870595469
0.04692793211
0.03181361918
0.0246098336
0.01731519022
0.0221213707
0.02344467783
0.03733552357
0.02157018639
0.02184886929
0.02094723373
0.02163257517
0.03739959127
0.02127206876
0.02104397271
0.02209607363
0.02184941291
0.009492126517
0.01309708027
0.01237845443
0.01753020074
0.01455750699
0.009384362097
0.009220951774
0.00948798615
0.01151540092
0.01035282378
0.006739928307
0.01013580728
0.0109439301
0.0107536131
0.01326119466
0.0118410615
0.009934079755
0.01829562292
0.01825762674
0.01852391181
0.01846895635
0.02800065426
0.02792054396
0.04248958436
0.01753258431
0.01851710171
0.01803830971
0.01810037743
0.01909304158
0.03202233504
0.03168789824
0.03242682873
0.0321604193
0.01917439154
0.01854576545
0.03101239659
0.02930513019
0.03155627629
0.03102406523
0.01853839511
0.009901580054
0.03951797739
0.03889112191
0.02595199249
0.01157733249
0.01010555502
0.01027877094
0.00748991372
0.01043592752
0.01123357093
0.01696231122
0.01107965575
0.01156301885
0.0113272049
0.02848027619
0.01766996804
0.01786940782
0.01045096396
0.01074503364
0.01067286227
0.0108403632
0.01105050725
0.007737143397
0.007673967817
0.01121335129
0.01067991473
0.0109326502
0.01434511589
0.01764397409
0.02656695924
1.154790235
1.155040213
1.155450684
1.155152072
1.155615009
1.155735569
1.155807633
1.156552585
1.156210067
1.156835712
1.157851032
1.156859434
1.134208755
1.022635858
1.157540541
1.023001955
0.9726563218
1.154028332
0.9711822684
0.9999508875
1.157873236
1.014485592
1.104100699
1.157311817
1.135436369
1.157391757
1.156679219
1.157098791
1.156306997
1.1561097
1.154261387
1.154800956
1.15494098
1.155050253
1.156076872
1.155644466
1.156562688
1.068970431
1.156799816
0.9973878646
0.8341425674
1.092934911
0.7951413957
0.710708398