/*--------------------------------*- C++ -*----------------------------------*\
| =========                 |                                                 |
| \\      /  F ield         | OpenFOAM: The Open Source CFD Toolbox           |
|  \\    /   O peration     | Version:  v1912                                 |
|   \\  /    A nd           | Website:  www.openfoam.com                      |
|    \\/     M anipulation  |                                                 |
\*---------------------------------------------------------------------------*/
FoamFile
{
    version     2.0;
    format      ascii;
    class       volVectorField;
    location    "1.57";
    object      U;
}
// * * * * * * * * * * * * * * * * * * * * * * * * * * * * * * * * * * * * * //

dimensions      [0 1 -1 0 0 0 0];


internalField   nonuniform List<vector> 
12556
(
(99.99922887 0.001926547597 -4.226377134e-21)
(99.99878726 0.006908067443 -2.023989187e-25)
(99.99773663 0.01576538896 -4.224460741e-21)
(99.99577505 0.03151758801 -4.207180164e-21)
(99.99966578 0.02593625986 4.076259377e-21)
(99.99780364 0.04440916806 0)
(99.99655855 0.07393130494 0)
(99.99609522 0.1154385163 -7.32530609e-21)
(99.99483475 0.1716261141 8.637684887e-22)
(99.99381138 0.2423783279 -5.813502948e-21)
(99.99364088 0.321318217 6.429368483e-22)
(99.99520454 0.3942232766 0)
(99.99715379 0.4410515534 0)
(100.0017567 0.4491187287 4.450320874e-22)
(100.0046315 0.416229043 -1.102892088e-21)
(100.0057639 0.3551338204 8.324210348e-22)
(100.0059312 0.2832572572 0)
(100.0055408 0.2143499557 1.488077888e-21)
(100.005254 0.1539131066 6.135450503e-21)
(100.0028188 0.1092871264 -1.750329248e-21)
(100.0116198 0.1260382894 -1.526754765e-20)
(100.0080891 0.07809681826 0)
(100.0060679 0.04196765704 -1.927180383e-21)
(100.005842 0.01331945205 -1.358225009e-20)
(99.99297244 0.004820765989 1.690991855e-20)
(99.98834333 0.01786685832 4.229104667e-21)
(99.97840638 0.04165052751 2.958189311e-20)
(99.96132331 0.08591775105 -1.267155219e-20)
(99.96259181 0.1221313354 4.103502142e-21)
(99.93514956 0.2120709798 -3.805127635e-23)
(99.89920794 0.3536221435 0)
(99.87924692 0.4857428603 -7.322981264e-21)
(99.83611914 0.7307718522 -6.869828534e-21)
(99.79744378 1.0464261 -1.222543609e-20)
(99.77983802 1.410182988 -5.197670235e-21)
(99.80797029 1.757025221 -1.089301808e-20)
(99.88414557 1.993344819 -3.766038773e-22)
(99.98255893 2.049816465 -4.393225068e-22)
(100.0784938 1.914816153 -3.964061746e-22)
(100.1389781 1.642555097 4.292001033e-21)
(100.1561575 1.309055227 -8.789579416e-21)
(100.1407308 0.9924771473 0)
(100.1520939 0.7539960218 -2.623359802e-20)
(100.1097263 0.518507832 5.077370453e-20)
(100.1090732 0.3599722227 1.478410121e-20)
(100.0773136 0.2222573239 3.060470097e-20)
(100.0587664 0.1197552011 -3.069526833e-20)
(100.0516052 0.03798945882 1.550984111e-20)
(99.98195647 0.004918985609 -1.687223325e-20)
(99.96898373 0.02014430377 -3.385087594e-20)
(99.94136849 0.05181943909 -7.609515643e-20)
(99.89587738 0.1113119699 1.013055034e-19)
(99.86722579 0.1870702685 -8.381509879e-21)
(99.78801778 0.3396035369 -8.208656964e-21)
(99.67746976 0.5798242506 -1.427200179e-20)
(99.61056153 0.8497413965 0)
(99.47198663 1.310428964 2.838136121e-20)
(99.34500397 1.921894127 -9.070909591e-20)
(99.2973268 2.658798506 -7.001971071e-19)
(99.40839913 3.416937421 1.048922437e-18)
(99.69328356 3.926324751 -5.007861418e-19)
(100.0948182 4.053599977 6.748652367e-23)
(100.4267647 3.741377863 2.152946182e-19)
(100.6061196 3.148422807 3.45748303e-21)
(100.6401349 2.468649856 -9.537065744e-21)
(100.5690428 1.825379141 -2.308717272e-20)
(100.5049571 1.290838706 -1.574798854e-19)
(100.3737056 0.8741493807 -3.526058139e-20)
(100.3022903 0.5460594601 -1.52206644e-20)
(100.2170866 0.3350880727 3.462589801e-20)
(100.1655784 0.1804833801 -3.897915919e-21)
(100.142895 0.05690297647 0)
(99.97245147 0.0004035794578 -8.488771371e-21)
(99.94764595 0.00782140332 5.946863676e-20)
(99.89509459 0.03638601079 -1.701085662e-20)
(99.80903275 0.09633696051 0)
(99.73797706 0.2005285233 0)
(99.57905845 0.3942284402 -6.609130199e-20)
(99.35661921 0.7090815284 -1.324532601e-19)
(99.1700879 1.103691378 3.143490841e-20)
(98.85427179 1.766832361 -4.039701745e-21)
(98.55614242 2.722200834 0)
(98.40672244 4.00352148 1.365975289e-18)
(98.62290228 5.398260531 0)
(99.43280907 6.355421053 0)
(100.4497855 6.450158214 0)
(101.1836091 5.754812255 0)
(101.479255 4.68215288 0)
(101.4596093 3.540562425 0)
(101.2732328 2.545143609 0)
(101.0532414 1.711375709 5.785610228e-20)
(100.7735218 1.130967124 -4.496873629e-20)
(100.573133 0.6573601323 -3.907552133e-20)
(100.4132292 0.3984026874 1.982220742e-20)
(100.3138941 0.2123391203 -3.982123891e-21)
(100.2683319 0.06637348813 0)
(99.97533984 -0.009879968967 0)
(99.93673419 -0.02280264867 0)
(99.85584583 -0.01244639626 8.54321635e-21)
(99.72151252 0.03289835939 1.295063156e-20)
(99.59550187 0.1482435709 2.146998469e-20)
(99.33485661 0.349813899 0)
(98.96875199 0.6855233221 0)
(98.60600497 1.171058389 0)
(98.03025129 2.01550908 2.474772569e-19)
(97.38223658 3.393546266 0)
(96.92828222 5.451360165 -9.51481954e-19)
(97.3566755 7.913888092 -3.41892306e-19)
(99.15895307 9.71615381 0)
(101.4550107 9.529226884 -8.069029632e-20)
(102.7694079 7.948442121 -2.601278248e-20)
(103.0439209 6.065577168 1.471735674e-18)
(102.7493392 4.406286418 9.222568651e-19)
(102.2509571 3.032841613 -6.076445432e-22)
(101.7660201 1.93596248 -9.699123242e-20)
(101.2794339 1.245308914 8.084647344e-21)
(100.8884307 0.6640891679 0)
(100.6353718 0.3969019111 4.07480633e-21)
(100.4774224 0.2068693418 -3.059887169e-21)
(100.4038432 0.06380184587 -1.015180313e-21)
(100.0030933 -0.02634424234 0)
(99.95036078 -0.07270506123 0)
(99.84134244 -0.0968052362 -1.714242433e-20)
(99.65784119 -0.08648612252 3.481812633e-20)
(99.46268166 0.01903958091 0)
(99.0960733 0.1889793803 0)
(98.56463773 0.495158054 2.732396931e-20)
(97.98916133 1.003200329 -2.75566922e-19)
(97.04900196 1.932142545 0)
(95.76348227 3.636184891 -5.49615811e-19)
(94.47868782 6.579245129 0)
(94.51527133 11.04267919 0)
(98.47474554 15.0179297 7.326165838e-20)
(103.8623817 13.81326188 0)
(105.797699 10.0457325 -4.799640899e-19)
(105.5183932 6.969376728 5.957515629e-19)
(104.5427624 4.78522857 -1.233861416e-18)
(103.4964902 3.1726543 1.383291007e-19)
(102.5730139 1.881369107 2.504605332e-20)
(101.8321855 1.171185979 -1.681452774e-20)
(101.2090613 0.55042753 0)
(100.8487562 0.3195307044 0)
(100.6267853 0.1583518326 -1.032883958e-21)
(100.5228824 0.0476475887 -3.104741521e-21)
(100.0678051 -0.04861839827 4.175125721e-21)
(100.0022897 -0.1406378203 -4.205088966e-21)
(99.86840291 -0.2145908795 8.577863815e-21)
(99.64109 -0.2590282847 -3.143581866e-20)
(99.37676613 -0.1885886614 8.740952985e-23)
(98.91014581 -0.09059709731 2.682709059e-20)
(98.22573666 0.1266590246 1.014291666e-20)
(97.44247866 0.560252325 -1.280482576e-18)
(96.06072828 1.396755864 1.161911494e-18)
(93.91487277 3.032066866 3.173783256e-19)
(90.88711214 6.10131176 1.555349658e-18)
(87.42194827 12.9674599 0)
(94.70832681 25.24513959 1.749439157e-19)
(110.3380009 19.82134317 0)
(110.9243119 11.20907945 0)
(108.8459099 6.785209987 0)
(106.690379 4.333760505 -1.578839608e-18)
(104.8625721 2.759980358 -1.147126039e-18)
(103.3716059 1.481009493 0)
(102.3522505 0.8606791399 9.295120768e-21)
(101.4808115 0.3149675037 2.729913033e-21)
(101.0136907 0.159977067 -3.225461682e-21)
(100.731734 0.06608314818 -3.669869884e-21)
(100.598604 0.01793139977 8.820237972e-21)
(100.1799307 -0.07558043763 -4.175561518e-21)
(100.1045042 -0.2231023644 4.206596014e-21)
(99.95201728 -0.3590120118 -5.3340267e-21)
(99.69210634 -0.4739633587 -3.581994383e-21)
(99.36651739 -0.4615608889 1.526664073e-20)
(98.82320155 -0.4691794372 9.074872859e-21)
(98.0271922 -0.4012025246 -4.700056884e-21)
(97.08176022 -0.1394164913 1.152992475e-18)
(95.34524531 0.3735770906 -3.104312253e-19)
(92.52471439 1.335080732 -1.790874586e-19)
(87.97314312 2.768495181 0)
(79.58888166 5.199249471 -2.522002988e-18)
(125.9414576 22.08429814 1.709064445e-18)
(117.749968 8.917268118 3.862646736e-18)
(112.3541572 4.730388234 -1.096096503e-21)
(108.7172202 2.822049534 0)
(106.0866244 1.689616083 -9.097962965e-19)
(104.0048241 0.7191748397 -4.981899846e-21)
(102.7350696 0.3314535604 2.103950929e-20)
(101.6426661 -0.03406930825 -3.341563175e-21)
(101.0905466 -0.07030643621 2.730590521e-21)
(100.7623242 -0.06366678661 -5.276213347e-22)
(100.6050301 -0.0238003552 -8.307616037e-21)
(100.3471997 -0.105482137 -2.008132863e-21)
(100.2658857 -0.3146432242 -1.508337241e-21)
(100.1032958 -0.5198308678 -5.170383991e-22)
(99.82575428 -0.7145753317 1.562290831e-21)
(99.45475119 -0.7767568803 -2.972365496e-23)
(98.86891595 -0.9105286084 0)
(98.02726556 -1.026116336 2.343029459e-21)
(96.99153971 -0.9896978471 0)
(95.10979609 -0.9160006748 -1.594544618e-18)
(92.19663367 -0.8237806905 -9.416895441e-20)
(88.0255046 -1.233951124 1.952300072e-18)
(82.86738093 -3.274595067 0)
(138.2101387 5.447962895 -5.178169079e-18)
(122.2218551 1.966660131 1.476935123e-18)
(114.5793668 0.7910684354 2.168597134e-18)
(109.9673603 0.3387085373 1.971947836e-18)
(106.8166335 0.08567349654 0)
(104.3160257 -0.3117713902 -5.117047029e-21)
(102.8869581 -0.3633350856 1.188848693e-20)
(101.6487611 -0.4611454074 1.153814335e-21)
(101.0482059 -0.349091905 0)
(100.6936657 -0.2189787151 4.198863311e-21)
(100.5212282 -0.07395099363 4.146207949e-21)
(100.5735476 -0.1361919845 3.955510613e-21)
(100.4908858 -0.4086507005 6.16779726e-23)
(100.3275843 -0.6847638309 0)
(100.0491506 -0.9619621244 2.018276706e-22)
(99.65172404 -1.107345498 -2.089518042e-21)
(99.06152785 -1.371320702 2.220054243e-21)
(98.2398672 -1.671624307 7.137580782e-20)
(97.19478216 -1.862855594 -1.807270623e-20)
(95.37545515 -2.189322611 0)
(92.73368529 -2.717474257 0)
(89.43735223 -3.837710467 0)
(86.25196879 -5.722369231 -6.826193287e-19)
(134.6666238 -10.81583358 0)
(121.6340798 -5.920038022 -4.686109977e-18)
(114.4885117 -3.761907788 2.265911426e-19)
(109.9459233 -2.490443185 -4.418485101e-18)
(106.8129106 -1.736732196 -1.79473634e-18)
(104.2044907 -1.455953859 4.337799394e-20)
(102.7554625 -1.132342939 0)
(101.4729476 -0.9174779848 -1.130818953e-21)
(100.8690882 -0.646001333 -4.659683063e-21)
(100.5115345 -0.384221851 5.198175258e-22)
(100.3351444 -0.1274779756 0)
(100.8586696 -0.1656294339 -1.947207513e-21)
(100.7789764 -0.498560472 1.963345428e-21)
(100.6235166 -0.8415089124 1.912887887e-21)
(100.3611626 -1.198175364 -1.7875419e-21)
(99.9544843 -1.426352238 -2.05761192e-21)
(99.39563358 -1.808896412 0)
(98.64320002 -2.27270849 -2.194210211e-21)
(97.65077733 -2.663124895 -1.194257547e-18)
(95.99403824 -3.290889601 -3.244626284e-19)
(93.70379271 -4.181861807 -1.818457364e-20)
(91.0020544 -5.516028885 -7.911511304e-19)
(88.47390247 -7.078262584 1.609492584e-18)
(125.3811651 -19.41877382 3.179879277e-18)
(117.5556335 -11.5493621 0)
(112.4401104 -7.453190286 0)
(108.8138662 -4.981870695 0)
(106.0951663 -3.437723866 -1.410682857e-18)
(103.6698988 -2.527585248 0)
(102.3432849 -1.865235929 -2.825727881e-20)
(101.1142932 -1.349716939 -1.40976405e-20)
(100.5523924 -0.9283583257 1.061300055e-21)
(100.2144972 -0.5425797815 -3.355558528e-21)
(100.0451811 -0.1790024872 4.916898501e-22)
(101.1981426 -0.1919301801 7.140569508e-21)
(101.1253042 -0.5784517134 0)
(100.9843711 -0.9779371751 -1.909142962e-21)
(100.7498227 -1.411138199 0)
(100.3478853 -1.710830525 0)
(99.85195412 -2.189172648 -6.106290095e-21)
(99.20046476 -2.783250232 -2.063792945e-21)
(98.30388879 -3.330010316 -1.082390509e-18)
(96.85718073 -4.166165562 1.169474477e-18)
(94.90053894 -5.279856217 0)
(92.57048619 -6.758290799 -1.398250029e-18)
(90.21378657 -8.300343884 -1.439699776e-18)
(115.8457135 -22.23619744 0)
(112.2672753 -14.25230332 0)
(109.3454517 -9.66922366 -4.000893799e-19)
(106.8918465 -6.701621573 1.883172038e-18)
(104.8257828 -4.725992256 0)
(102.8007279 -3.382036675 2.250321834e-21)
(101.6971787 -2.476628198 -3.426408997e-20)
(100.6010557 -1.717787079 8.348175077e-21)
(100.1142516 -1.168354802 0)
(99.81329265 -0.6796675448 3.866248117e-21)
(99.65995875 -0.223880514 0)
(101.5844905 -0.2144578833 7.131430014e-21)
(101.5208903 -0.6473889774 1.124994582e-19)
(101.3977966 -1.094102088 -2.265500316e-19)
(101.1944406 -1.586232653 -3.989104738e-22)
(100.8336389 -1.939903556 -1.791103255e-21)
(100.4060805 -2.489971798 0)
(99.87301997 -3.175329742 0)
(99.09280077 -3.829547751 0)
(97.88050238 -4.794605786 8.006635772e-19)
(96.2601065 -6.051312456 5.006834876e-19)
(94.29774922 -7.730885685 -6.03415796e-19)
(92.17886849 -9.535477455 -5.106354978e-19)
(103.0087297 -30.76004248 -1.876280484e-19)
(107.3536115 -20.32639508 0)
(107.2882087 -14.47039093 0)
(106.1035721 -10.41764513 -6.411625992e-19)
(104.6988851 -7.544804037 3.051486804e-19)
(103.2891708 -5.4943109 0)
(101.7388669 -3.9427952 -6.818638813e-20)
(100.892236 -2.911151751 0)
(99.98193352 -1.994629367 0)
(99.5827077 -1.348940661 1.206744472e-20)
(99.32785432 -0.7862106908 2.226811475e-21)
(99.19621754 -0.2589788833 -7.210003465e-21)
(102.0075578 -0.231059698 0)
(101.9547133 -0.6988146609 0)
(101.8529442 -1.17979738 0)
(101.6835492 -1.707203744 0)
(101.363231 -2.114983535 0)
(101.0079617 -2.719499885 0)
(100.5864126 -3.462951036 0)
(99.94415434 -4.170088713 9.105647073e-19)
(98.96749859 -5.191707733 0)
(97.69651639 -6.506684238 4.872747515e-19)
(96.215804 -8.298521682 1.078206303e-18)
(94.75642204 -10.70650299 7.143660749e-19)
(96.59280173 -20.04977643 7.09870303e-20)
(102.3436039 -16.64537662 2.569497904e-19)
(103.5119881 -13.09157854 -7.258419378e-19)
(103.3124013 -10.07025115 4.390282015e-19)
(102.6261348 -7.661328026 2.408048932e-19)
(101.7126744 -5.777201085 -8.773026115e-20)
(100.6166195 -4.221394775 -9.409408703e-20)
(100.0095954 -3.162723637 -3.545521738e-20)
(99.30297234 -2.162138923 -1.962648807e-20)
(98.98905806 -1.468038663 1.930300907e-20)
(98.78304668 -0.8585769341 0)
(98.67540486 -0.282815514 1.929983623e-20)
(102.4568902 -0.2416711431 0)
(102.4157151 -0.7318970973 0)
(102.3376639 -1.234622717 0)
(102.2044091 -1.777187674 0)
(101.9255356 -2.216340297 0)
(101.6534844 -2.845018957 0)
(101.340331 -3.591218036 -4.881812958e-20)
(100.8538804 -4.317058772 7.752306345e-19)
(100.1178955 -5.310524487 0)
(99.17937101 -6.549469739 -4.837679e-20)
(98.22023228 -8.158521779 7.2046251e-21)
(97.65289212 -10.48531193 6.086464087e-19)
(98.22820014 -13.22242149 -5.625844385e-19)
(100.3672794 -12.85262754 5.735574981e-20)
(101.1611666 -11.12086614 6.506229786e-21)
(101.2112995 -9.131835072 3.127818879e-19)
(100.8628165 -7.289112672 -7.309463149e-19)
(100.2810574 -5.714045129 -2.491799363e-20)
(99.52513416 -4.269773013 0)
(99.12580196 -3.2571893 0)
(98.60016931 -2.231803446 -3.63500119e-20)
(98.36329061 -1.527476125 1.793574028e-20)
(98.20437843 -0.8965443691 7.52076786e-22)
(98.12005457 -0.2953690747 -1.328069646e-20)
(102.9212938 -0.2465234126 0)
(102.8912314 -0.7468341448 0)
(102.8357653 -1.258888617 0)
(102.7369194 -1.801841986 0)
(102.4978405 -2.255964069 0)
(102.2998989 -2.882557074 0)
(102.0781134 -3.59990654 1.755875446e-22)
(101.7230765 -4.314176748 8.493499695e-20)
(101.1833328 -5.222646126 -6.526375793e-19)
(100.4937772 -6.288848508 -1.0000463e-20)
(99.82434268 -7.533237886 -2.738371888e-19)
(97.13434251 -8.662836453 0)
(99.21755968 -10.19880865 1.255993763e-19)
(99.72967949 -10.16929606 4.62962148e-20)
(99.84867279 -9.292675092 2.11900619e-20)
(99.73368742 -8.027412478 0)
(99.46101659 -6.670016241 0)
(99.05882127 -5.411024583 0)
(98.53334758 -4.14534269 -3.037767136e-20)
(98.29127826 -3.226731907 4.641938643e-20)
(97.9052815 -2.222287466 1.127529592e-20)
(97.73324559 -1.535497138 1.925239259e-20)
(97.61504343 -0.9040008609 -2.186370842e-20)
(97.55100841 -0.297852223 0)
(103.3901524 -0.2463068452 0)
(103.3697769 -0.7457632508 0)
(103.3334587 -1.256049145 0)
(103.2641448 -1.787346988 0)
(103.061524 -2.242690553 0)
(102.9243038 -2.847002457 0)
(102.7723671 -3.514926117 0)
(102.5010707 -4.190303124 7.544841014e-20)
(102.0988832 -4.989155711 -4.063115459e-19)
(101.5388398 -5.853279827 -1.22885572e-19)
(100.9589883 -6.758444258 -2.1294393e-19)
(95.3353433 -6.887640251 1.518835776e-19)
(99.80519748 -8.290076754 0)
(99.46349037 -8.312907863 0)
(99.06347399 -7.798218292 2.986372625e-20)
(98.71240319 -6.959331546 -8.907452476e-20)
(98.37786686 -5.975865577 0)
(98.05279851 -4.989286123 0)
(97.67131271 -3.917276813 0)
(97.5272663 -3.105572311 0)
(97.24202795 -2.153062385 3.88648378e-20)
(97.12044865 -1.502256071 -3.635100445e-20)
(97.0340776 -0.8862780154 -2.461197101e-21)
(96.98602726 -0.2924108693 2.469485813e-21)
(103.8541318 -0.2418894001 0)
(103.8417222 -0.7315085441 0)
(103.8204981 -1.230867874 0)
(103.7746121 -1.740970157 0)
(103.6029905 -2.185935261 0)
(103.5109316 -2.755010106 0)
(103.4057275 -3.363836209 0)
(103.1791372 -3.975252016 0)
(102.8355239 -4.658971757 2.945001919e-20)
(102.303889 -5.34862656 4.116869555e-19)
(101.764179 -6.026891058 0)
(93.92178611 -5.700442322 5.406745519e-19)
(100.0573608 -6.965451005 -8.936954109e-20)
(99.24549541 -6.955880412 -2.646179939e-20)
(98.51831241 -6.606917521 1.221911925e-19)
(97.97319077 -6.018023101 1.772614105e-20)
(97.55614399 -5.292327453 0)
(97.24218648 -4.523258069 0)
(96.93117268 -3.628107459 0)
(96.83936207 -2.919358639 0)
(96.62349306 -2.039922785 0)
(96.53814403 -1.436123048 0)
(96.47552573 -0.8501715158 0)
(96.43924789 -0.2816115085 0)
(104.3058018 -0.2341533569 0)
(104.2995646 -0.7069335185 0)
(104.2893835 -1.188321665 0)
(104.2606084 -1.670839676 0)
(104.1131573 -2.096883736 0)
(104.0510743 -2.623866649 0)
(103.9709667 -3.170871949 0)
(103.7635758 -3.712975248 0)
(103.4252985 -4.284777988 0)
(102.8718977 -4.835555447 0)
(102.2361365 -5.344987223 0)
(94.56700924 -5.117478262 -9.791769887e-20)
(100.127482 -5.961138127 -4.397754456e-20)
(99.0494804 -5.912074533 -6.362641862e-22)
(98.1216895 -5.649517749 0)
(97.42801393 -5.215425076 0)
(96.92828709 -4.665585536 0)
(96.58985669 -4.057015296 0)
(96.30322869 -3.310452842 0)
(96.23209301 -2.699165751 0)
(96.05726822 -1.901184959 0)
(95.99495267 -1.349084099 0)
(95.94777326 -0.8008028454 0)
(95.9204671 -0.2658989944 0)
(104.739607 -0.2239778126 0)
(104.7377543 -0.6748587673 0)
(104.7347322 -1.133287586 0)
(104.7170827 -1.584737158 0)
(104.5871127 -1.986385601 0)
(104.5416823 -2.468567452 0)
(104.4698815 -2.957774151 0)
(104.2624258 -3.431230185 0)
(103.9049634 -3.908335598 0)
(103.3181025 -4.349482795 0)
(102.4726657 -4.720341337 0)
(95.67024413 -4.60640628 0)
(100.1668745 -5.146616405 0)
(98.90688853 -5.083183952 0)
(97.82746326 -4.872186127 0)
(97.01463653 -4.537058988 0)
(96.43750326 -4.107464539 0)
(96.05937141 -3.617025421 0)
(95.77194194 -2.991369594 0)
(95.7004434 -2.466513798 0)
(95.5456723 -1.750527068 0)
(95.49561903 -1.250605193 0)
(95.45702084 -0.7440630955 0)
(95.43523838 -0.2475498585 0)
(105.1517142 -0.2121939596 0)
(105.152586 -0.6379290731 0)
(105.1532164 -1.070225453 0)
(105.1413878 -1.489377683 0)
(105.023089 -1.863638417 0)
(104.9834756 -2.301514485 0)
(104.9065607 -2.738646639 0)
(104.6874947 -3.148669389 0)
(104.2977783 -3.548279083 0)
(103.6719079 -3.906255882 0)
(102.5618011 -4.174326028 0)
(96.6681345 -4.138153465 0)
(100.1734141 -4.479710323 -5.038372248e-35)
(98.78234324 -4.409679307 0)
(97.59335345 -4.232226709 0)
(96.68937954 -3.962927702 0)
(96.04496187 -3.617789158 0)
(95.62356125 -3.216810678 0)
(95.3201672 -2.687819991 0)
(95.23619159 -2.235957802 0)
(95.08705716 -1.597547552 0)
(95.04105319 -1.147883623 0)
(95.00576115 -0.684281699 0)
(94.98695344 -0.2281131085 0)
(105.5397923 -0.1995233551 0)
(105.5419634 -0.5984418604 0)
(105.5433194 -1.003001772 0)
(105.5328523 -1.390053544 0)
(105.4217105 -1.735925629 0)
(105.3795384 -2.132009797 0)
(105.2880384 -2.522204447 0)
(105.0504 -2.876708836 0)
(104.6227867 -3.21379026 0)
(103.9565517 -3.508778351 0)
(102.5529163 -3.699734228 0)
(97.54416034 -3.721087437 0)
(100.1529791 -3.927811551 0)
(98.66840648 -3.853093628 0)
(97.3993414 -3.698730058 0)
(96.42529119 -3.475261459 0)
(95.72418919 -3.191116177 0)
(95.26141845 -2.85784262 0)
(94.93366315 -2.407241249 0)
(94.83063904 -2.016257959 0)
(94.67765516 -1.448839196 0)
(94.62991852 -1.046077768 0)
(94.59417968 -0.6245955283 0)
(94.57640509 -0.2086333487 0)
(105.9028101 -0.1865488202 0)
(105.9051212 -0.5582369488 0)
(105.9049372 -0.9347350309 0)
(105.8923218 -1.29084984 0)
(105.7846768 -1.608690108 0)
(105.7339845 -1.966432017 0)
(105.6215492 -2.314005827 0)
(105.361623 -2.621945628 0)
(104.8950129 -2.908712793 0)
(104.1884081 -3.15538928 0)
(102.4790131 -3.287677472 0)
(98.27033528 -3.348866809 0)
(100.1155527 -3.464519187 -6.756281572e-35)
(98.56237581 -3.387108939 0)
(97.23359926 -3.249693818 0)
(96.20521175 -3.059488891 0)
(95.45690599 -2.820617015 0)
(94.95625637 -2.539297127 0)
(94.60122912 -2.152427766 0)
(94.47558535 -1.812342176 0)
(94.31285614 -1.308625877 0)
(94.25959684 -0.9486231703 0)
(94.22090862 -0.5671374314 0)
(94.20276962 -0.1898158848 0)
(106.2407821 -0.1737208819 0)
(106.242321 -0.5187038768 0)
(106.2389357 -0.8677686282 0)
(106.2215792 -1.19476531 0)
(106.11458 -1.485793825 0)
(106.051324 -1.808888629 0)
(105.9145818 -2.117991387 0)
(105.6299466 -2.387563194 0)
(105.1260203 -2.633871849 0)
(104.3786619 -2.842788353 0)
(102.3638795 -2.930178078 0)
(98.84634938 -3.016094235 0)
(100.0673293 -3.071930757 0)
(98.46284322 -2.993310776 0)
(97.08877481 -2.869033185 0)
(96.01783202 -2.703900358 0)
(95.23035495 -2.499529224 0)
(94.69582245 -2.258778522 0)
(94.31326098 -1.924049653 0)
(94.16372649 -1.626592996 0)
(93.98788557 -1.179338926 0)
(93.92679631 -0.8576533467 0)
(93.88359078 -0.5132723943 0)
(93.86412603 -0.1721164217 0)
(106.5544737 -0.1613769284 0)
(106.5545421 -0.4808544018 0)
(106.5467852 -0.8037829449 0)
(106.5228664 -1.103902131 0)
(106.4143349 -1.369843712 0)
(106.3358831 -1.661879349 0)
(106.1733509 -1.937374057 0)
(105.8629744 -2.174723821 0)
(105.3246648 -2.388555216 0)
(104.5355336 -2.567410423 0)
(102.2239917 -2.6202007 0)
(99.28758803 -2.719784725 0)
(100.0122804 -2.737245981 2.333200338e-35)
(98.36896969 -2.658498621 0)
(96.96009402 -2.544830519 0)
(95.85550216 -2.399209052 0)
(95.03550752 -2.22175618 0)
(94.47105672 -2.013222271 0)
(94.06201125 -1.721438331 0)
(93.8887185 -1.459765178 0)
(93.69810163 -1.062151423 0)
(93.62793183 -0.7743691086 0)
(93.57932192 -0.4638032356 0)
(93.55790435 -0.1558085485 0)
(106.8451656 -0.1497602121 0)
(106.8432465 -0.4453987994 0)
(106.830332 -0.7439327459 0)
(106.7986337 -1.019647069 0)
(106.6869595 -1.262485328 0)
(106.591721 -1.526968052 0)
(106.4028868 -1.773455468 0)
(106.0670532 -1.983575137 0)
(105.4976682 -2.171231295 0)
(104.6653519 -2.325731749 0)
(102.0713022 -2.351820293 0)
(99.61653403 -2.457741871 0)
(99.95298402 -2.450939151 0)
(98.28015253 -2.372847769 0)
(96.84427155 -2.268001345 0)
(95.71284331 -2.137958333 0)
(94.86578251 -1.981932466 0)
(94.27508812 -1.79935479 0)
(93.84122074 -1.543193649 0)
(93.64509929 -1.311620509 0)
(93.4391443 -0.9574040198 0)
(93.35936812 -0.6993158447 0)
(93.30494882 -0.4191274039 0)
(93.28120029 -0.1410340146 0)
(107.1145016 -0.1390360857 0)
(107.1102271 -0.4128072101 0)
(107.0916639 -0.6889670005 0)
(107.0514246 -0.9428445193 0)
(106.9353975 -1.164696627 0)
(106.8225242 -1.40494397 0)
(106.6075946 -1.626540614 0)
(106.2473641 -1.813616649 0)
(105.6500255 -1.980056916 0)
(104.7730171 -2.114598462 0)
(101.9145964 -2.120338256 0)
(99.85674213 -2.227928633 0)
(99.89115994 -2.205838038 0)
(98.19591078 -2.128925869 0)
(96.7389526 -2.031549655 0)
(95.58596606 -1.914183401 0)
(94.71629025 -1.775480989 0)
(94.10263383 -1.614050734 0)
(93.64584086 -1.387617851 0)
(93.42822318 -1.181389195 0)
(93.20699554 -0.8649214434 0)
(93.11755831 -0.6325977403 0)
(93.05724553 -0.3793604484 0)
(93.03096412 -0.1278417863 0)
(107.3643804 -0.1293083482 0)
(107.3574979 -0.3833635948 0)
(107.3330127 -0.639326217 0)
(107.2838025 -0.8739390262 0)
(107.1625217 -1.076938396 0)
(107.031667 -1.296037881 0)
(106.7913045 -1.496360315 0)
(106.4081859 -1.663971423 0)
(105.7855686 -1.813129525 0)
(104.8625292 -1.931206121 0)
(101.7601104 -1.921765855 0)
(100.0294062 -2.028150246 0)
(99.82793589 -1.996350029 0)
(98.11579952 -1.920941208 0)
(96.6423418 -1.829951449 0)
(95.47192865 -1.723031421 0)
(94.58326627 -1.598489176 0)
(93.94950876 -1.454423535 0)
(93.47168677 -1.252897578 0)
(93.23406013 -1.068000369 0)
(92.99798309 -0.7842191444 0)
(92.89911575 -0.574037839 0)
(92.83302157 -0.3444351609 0)
(92.80412242 -0.116219864 0)
(107.5968065 -0.1206371109 0)
(107.5871507 -0.357220582 0)
(107.5566243 -0.5952364984 0)
(107.498245 -0.8131197274 0)
(107.3710332 -0.9993543132 0)
(107.2221872 -1.200168132 0)
(106.9572428 -1.382281004 0)
(106.5530513 -1.533644221 0)
(105.9072826 -1.668670816 0)
(104.937025 -1.773057001 0)
(101.6120366 -1.752586737 0)
(100.1521334 -1.855937845 0)
(99.76411137 -1.818047485 0)
(98.03941178 -1.744334989 0)
(96.55302572 -1.658823324 0)
(95.3684497 -1.560570417 0)
(94.46375922 -1.447674864 0)
(93.81235564 -1.317918821 0)
(93.31528197 -1.137286969 0)
(93.05913504 -0.9702928229 0)
(92.8087988 -0.7146750777 0)
(92.70088711 -0.5233055426 0)
(92.62923164 -0.3141810688 0)
(92.5977047 -0.1061212733 0)
(107.8139293 -0.1130497591 0)
(107.8013887 -0.3344360633 0)
(107.7647974 -0.5567731336 0)
(107.6972104 -0.7603846867 0)
(107.5634761 -0.9318862878 0)
(107.3968682 -1.117068577 0)
(107.1082645 -1.283283505 0)
(106.6848402 -1.42167179 0)
(106.0175715 -1.545066223 0)
(104.9990905 -1.638051717 0)
(101.4729597 -1.609645062 0)
(100.2386221 -1.709060288 0)
(99.70026932 -1.667402434 0)
(97.9663475 -1.59544464 0)
(96.46983437 -1.514617622 0)
(95.27368794 -1.423572605 0)
(94.35537191 -1.320278647 0)
(93.68837492 -1.202291992 0)
(93.17368952 -1.039182782 0)
(92.90040778 -0.8871260022 0)
(92.63639336 -0.6556050168 0)
(92.51989345 -0.4799951267 0)
(92.44294067 -0.2883726969 0)
(92.40881354 -0.09747899068 0)
(108.0176233 -0.1065611187 0)
(108.0021441 -0.3150228745 0)
(107.9595308 -0.52391757 0)
(107.8828068 -0.715709341 0)
(107.7422088 -0.8743382498 0)
(107.5582459 -1.046270363 0)
(107.2472395 -1.198874499 0)
(106.8058923 -1.326965546 0)
(106.118395 -1.440830417 0)
(105.0508187 -1.524266604 0)
(101.3448485 -1.490159418 0)
(100.2991049 -1.585585256 0)
(99.63677695 -1.541630169 -3.846889037e-36)
(97.89619481 -1.47133769 0)
(96.39177556 -1.394474637 0)
(95.18612998 -1.309410034 0)
(94.25613648 -1.214029271 0)
(93.57519236 -1.105840603 0)
(93.04435418 -0.957280029 0)
(92.7551849 -0.8174283101 0)
(92.47816801 -0.6063927382 0)
(92.35354432 -0.4436831679 0)
(92.27157061 -0.2667772622 0)
(92.23490452 -0.09022477419 0)
(108.2108156 -0.1011525669 0)
(108.1922973 -0.298927528 0)
(108.1436698 -0.4965825184 0)
(108.0578895 -0.6787715053 0)
(107.9094799 -0.82647192 0)
(107.708599 -0.987263512 0)
(107.3768463 -1.129197723 0)
(106.9182324 -1.248417251 0)
(106.2114191 -1.354690548 0)
(105.0938607 -1.430198539 0)
(101.2294516 -1.392093239 0)
(100.3409276 -1.483925375 0)
(99.57381514 -1.43847452 0)
(97.82853377 -1.369666528 0)
(96.3179924 -1.296110409 0)
(95.10450504 -1.215962216 0)
(94.16443286 -1.127042895 0)
(93.47111158 -1.027088683 0)
(92.9248536 -0.8904929384 0)
(92.62105534 -0.7602862023 0)
(92.33110379 -0.5663063618 0)
(92.19879805 -0.4139644633 0)
(92.1120223 -0.2491441367 0)
(92.07282796 -0.08427519845 0)
(108.39242 -0.09688132531 0)
(108.3709808 -0.2862323588 0)
(108.3164683 -0.4747411032 0)
(108.2218564 -0.650122409 0)
(108.0673505 -0.7879041533 0)
(107.8500021 -0.939655414 0)
(107.4986459 -1.074095756 0)
(107.023941 -1.185144462 0)
(106.2981894 -1.285544475 0)
(105.1296156 -1.354569065 0)
(101.128469 -1.313973177 0)
(100.3689745 -1.402639735 0)
(99.51144499 -1.356040026 0)
(97.76296101 -1.288537034 0)
(96.24771953 -1.217706273 0)
(95.02768333 -1.141524375 0)
(94.07878177 -1.057732092 0)
(93.37431371 -0.96398384 0)
(92.8132997 -0.8373587978 0)
(92.49572911 -0.7145928963 0)
(92.194875 -0.5353552583 0)
(92.0553353 -0.3904901594 0)
(91.96401957 -0.235351797 0)
(91.92246691 -0.07961646647 0)
(108.5762472 -0.09354422434 0)
(108.551318 -0.2765835302 0)
(108.4905518 -0.4581356421 0)
(108.3858555 -0.6265826498 0)
(108.2187209 -0.7586293963 0)
(107.9842909 -0.9035355494 0)
(107.6141816 -1.03230854 0)
(107.1245537 -1.136491516 0)
(106.3800144 -1.232346256 0)
(105.1593136 -1.296115795 0)
(101.0430059 -1.254490604 0)
(100.3864894 -1.340284575 0)
(99.44972587 -1.292796985 0)
(97.69914357 -1.22648134 0)
(96.18028146 -1.157866637 0)
(94.95464972 -1.084789899 0)
(93.99781241 -1.004927149 0)
(93.28281752 -0.9157946059 0)
(92.70813806 -0.7969950262 0)
(92.37737968 -0.6805685501 0)
(92.06041992 -0.5107809808 0)
(91.91306688 -0.3728522482 0)
(91.81708409 -0.2249790336 0)
(91.7727621 -0.07603667139 0)
(108.718795 -0.09180986966 0)
(108.6917414 -0.2711274736 0)
(108.6262153 -0.4482121492 0)
(108.515593 -0.6162049634 0)
(108.361788 -0.7378468853 0)
(108.1128326 -0.8780844318 0)
(107.7249122 -1.003189695 0)
(107.2213331 -1.10165187 0)
(106.4579918 -1.194100452 0)
(105.1842494 -1.253845008 0)
(100.973037 -1.212569817 0)
(100.39592 -1.295705041 0)
(99.38875411 -1.247624491 0)
(97.63679707 -1.182411402 0)
(96.11505393 -1.115543418 0)
(94.88447299 -1.044774153 0)
(93.92032719 -0.9677554491 0)
(93.19538096 -0.8818875298 0)
(92.60776328 -0.7689279236 0)
(92.26462538 -0.657152636 0)
(91.95375874 -0.4984808622 0)
(91.80164553 -0.3619477625 0)
(91.7021487 -0.2188679814 0)
(91.65623688 -0.07406716605 0)
(108.9927706 -0.08964148365 0)
(108.9608194 -0.2659447381 0)
(108.8857642 -0.439425006 0)
(108.7566285 -0.5994658581 0)
(108.4953451 -0.7268779376 0)
(108.2309942 -0.8638043864 0)
(107.8273995 -0.9867257575 0)
(107.3152061 -1.080057973 0)
(106.533034 -1.169913233 0)
(105.2059977 -1.227090883 0)
(100.9176694 -1.187520128 0)
(100.399101 -1.268466298 0)
(99.32869896 -1.219852631 0)
(97.57571816 -1.155608981 0)
(96.05149625 -1.090005053 0)
(94.81633299 -1.020775612 0)
(93.84526769 -0.9455794213 0)
(93.11068149 -0.8619159021 0)
(92.51498885 -0.7530178504 0)
(92.16148982 -0.6441267878 0)
(91.75851985 -0.4825315282 0)