/*--------------------------------*- C++ -*----------------------------------*\
| =========                 |                                                 |
| \\      /  F ield         | OpenFOAM: The Open Source CFD Toolbox           |
|  \\    /   O peration     | Version:  v1912                                 |
|   \\  /    A nd           | Website:  www.openfoam.com                      |
|    \\/     M anipulation  |                                                 |
\*---------------------------------------------------------------------------*/
FoamFile
{
    version     2.0;
    format      ascii;
    class       volScalarField;
    location    "1.41";
    object      p;
}
// * * * * * * * * * * * * * * * * * * * * * * * * * * * * * * * * * * * * * //

dimensions      [0 2 -2 0 0 0 0];


internalField   nonuniform List<scalar> 
12556
(
950.0306533
947.9332372
943.1524997
933.9874445
921.9016903
897.1964413
858.6282786
799.5557011
714.3007306
596.9664487
445.4426517
263.9529274
65.57859391
-130.890994
-307.6164305
-454.3774073
-568.7379857
-653.4516922
-713.6273583
-754.3687121
-787.3066451
-801.7051892
-809.7963314
-813.4548473
951.3419074
949.7566399
945.9815785
938.6370559
926.3803991
904.8040423
869.9178843
821.404211
743.1205069
631.7669632
482.5940312
297.6702362
91.99791654
-115.0180496
-302.2611467
-455.3598823
-572.5471854
-657.9972448
-724.0211313
-761.5918502
-793.4757136
-805.7589013
-812.6883385
-815.8051759
954.4928365
954.0222805
952.5886265
949.2358794
939.6199455
925.1014032
899.2621477
855.6928122
786.8007133
680.6821568
528.0502545
329.0780471
96.71155307
-138.775816
-343.6787768
-501.4959999
-614.1316909
-691.2050603
-752.2424532
-781.8104255
-807.5387782
-815.3676331
-819.6862434
-821.5519616
958.5978396
959.7073328
961.6157754
963.5558121
959.6249524
955.0988673
943.7456236
912.8410254
862.723106
772.8840691
626.963003
408.0979626
121.2113852
-178.980933
-422.9066596
-587.1115835
-688.6431533
-750.0288917
-795.0618754
-811.8965767
-827.2943969
-829.1988231
-829.6831657
-829.7075949
961.967376
964.892064
970.7439959
978.8794385
982.3764907
990.9918641
998.5675451
990.601026
971.2061561
917.0073825
800.1275938
565.7485736
174.479766
-260.110651
-568.3720182
-730.0655669
-800.4568276
-830.1107159
-849.5231422
-849.1474263
-849.8450821
-844.4981302
-840.3545565
-838.2052419
962.8058384
967.54782
977.3828318
992.4435683
1003.118933
1027.290463
1056.992065
1078.303187
1103.055091
1111.910301
1074.236972
872.1214453
260.4807321
-483.1366004
-855.4064906
-952.7600358
-949.1659075
-927.1648719
-910.8534052
-888.8091982
-871.8447593
-858.4493332
-849.3167458
-844.8920032
959.3755263
965.7435165
978.9507287
999.9801998
1019.613963
1057.259878
1108.931594
1159.561919
1231.104529
1319.630445
1446.136457
1543.367344
475.2898218
-1220.637819
-1386.576419
-1263.886434
-1127.094213
-1030.151706
-970.1857585
-925.0899694
-889.7009208
-867.9983889
-854.2337408
-847.6920305
950.1859209
957.7122673
973.30252
998.515237
1025.769374
1073.654663
1140.944333
1215.448403
1320.916992
1470.588503
1745.114689
2333.549447
-3103.734907
-2138.269402
-1610.113226
-1298.553267
-1121.526014
-1016.033985
-951.303257
-898.2693107
-870.1291432
-852.8166836
-844.5733825
934.0947183
942.1699944
958.8654023
985.9800628
1018.803604
1071.391004
1145.818752
1232.97464
1349.774015
1505.247887
1750.860859
2087.418703
-4503.010836
-2648.470755
-1842.380112
-1409.455658
-1176.886385
-1038.22794
-959.8598945
-894.2933669
-862.5067464
-843.1810398
-833.9362096
910.4977256
918.4632258
934.8659702
961.4050542
997.195434
1048.928778
1121.272854
1207.613761
1314.232342
1445.759813
1618.809971
1795.861903
-4078.106438
-2599.865234
-1847.839389
-1415.970687
-1178.135969
-1029.067205
-947.5380877
-875.9613525
-843.7766728
-824.2141031
-814.8215464
879.4038262
886.6554893
901.4758397
925.1285708
961.4926923
1007.636779
1070.867734
1148.650182
1237.061363
1339.41534
1463.644887
1587.828822
-3023.085536
-2166.973789
-1653.667063
-1321.927938
-1124.594406
-988.1035004
-913.7894773
-843.2437998
-813.8659767
-795.8179932
-787.1022056
841.3786353
847.4289763
859.7507128
878.3448177
914.2113686
950.6687688
1000.19635
1064.843899
1132.353591
1207.697236
1298.89746
1414.003354
-1953.331022
-1602.475999
-1356.401434
-1162.823218
-1029.39776
-920.9204204
-861.5807657
-797.7371975
-774.0189859
-758.8470664
-751.4737579
797.4730966
802.0115625
811.3991791
824.6917644
855.651489
881.8406467
914.8838257
964.6129597
1009.787282
1057.158464
1110.552053
1205.285929
-750.7419907
-989.8555298
-1073.350898
-1048.646312
-980.0711535
-911.6455862
-836.8260399
-795.6228973
-743.7185723
-726.4769342
-714.8930764
-709.289789
748.9789686
751.8999375
758.1418902
766.4834653
791.2445791
806.8127389
823.7123323
856.1213696
878.9662652
896.2337441
900.1868652
911.9369613
287.468049
-396.3519231
-677.4960281
-787.9512286
-806.0204874
-787.4915765
-745.9708432
-722.5503315
-684.5583528
-673.6429155
-665.9526711
-662.2943604
697.3363823
698.5799024
701.3449168
704.5661016
723.4713628
727.9663258
730.0897206
744.1827939
745.6361581
735.0875979
692.4592428
570.2156038
260.9492569
-152.8515187
-438.542133
-593.9879186
-656.423006
-670.1976841
-655.2262118
-647.939273
-622.9333248
-617.9599419
-614.1168256
-612.3393497
643.9787061
643.7028887
643.2150884
641.7508152
655.1978568
650.5261866
640.8423389
637.2575759
618.2869106
585.9042418
521.2899399
407.3749498
190.6037583
-87.44135723
-315.5482836
-460.9355162
-535.1388872
-566.0738117
-570.4373704
-575.5097538
-561.6155234
-561.752641
-561.317217
-561.1789269
590.2802193
588.7633749
585.614584
580.3584689
588.7415351
576.9993314
558.4105188
541.8305577
504.1799819
453.9408337
380.4748396
273.2698196
107.8661955
-82.09876282
-250.6248319
-368.9405395
-437.8266659
-477.2222137
-493.9932979
-507.6962519
-502.7077802
-506.891776
-509.1925176
-510.325249
537.4396101
534.9716779
529.7834261
521.68589
525.8830348
509.1272924
484.7477435
461.2587622
411.9704182
349.9921841
270.7976149
178.8599145
49.21987415
-86.70607583
-207.2655799
-297.1413703
-358.9038003
-402.2141672
-426.6725148
-445.7434196
-447.495821
-454.5842868
-458.9396501
-460.9987755
486.3813295
483.2338759
476.5883843
466.5327916
467.605918
447.7755009
420.175994
393.8319725
344.2311712
281.1384455
202.6718206
121.4151743
19.95679076
-80.11513576
-167.7861919
-240.3710074
-297.4473193
-340.6012199
-368.4651947
-390.3148112
-396.6247154
-405.5881412
-411.3299428
-414.0671403
437.7717319
434.1977843
426.6379611
415.4049042
414.341644
393.0005535
364.1547321
337.3912498
290.1855795
232.9351323
165.4678953
96.75228493
15.19202502
-63.63126183
-135.6224485
-197.8209837
-249.0821244
-289.9114597
-318.5211558
-341.2668079
-350.3715386
-360.3584443
-366.9150986
-370.0394551
392.0516856
388.2704819
380.2714248
368.5251082
366.0713689
344.424002
315.8509296
289.9431583
246.3443016
195.5117212
138.1253654
79.17583091
12.98375985
-51.76418991
-111.8263902
-165.0766026
-210.430905
-247.9063923
-275.749009
-298.1121408
-308.6747863
-319.0315891
-325.9390395
-329.233813
349.467762
345.6520458
337.5883955
325.8525251
322.5736399
301.4682591
274.2815962
249.7904531
210.2795575
165.4768142
116.0223354
65.95025807
10.89779446
-43.0329671
-93.58558953
-139.2292693
-179.0277949
-212.7616802
-239.009607
-260.2209363
-271.293306
-281.5347964
-288.445058
-291.7458941
310.1007659
306.3781945
298.5218578
287.1733778
283.5100208
263.4960245
238.2158131
215.5919738
180.2005201
140.8649973
98.12699263
55.39414419
9.070169053
-36.32415344
-79.16839179
-118.3550532
-153.1131994
-183.1538592
-207.2653727
-226.9408243
-237.8689043
-247.6634844
-254.3352957
-257.5266172
273.9044719
270.3657269
262.9052892
252.1980231
248.477566
229.8932327
206.7724038
186.2275957
154.7958226
120.3576487
83.38410644
46.76810626
7.503347934
-30.97729393
-67.46664386
-101.1508604
-131.4091557
-157.9481042
-179.7151479
-197.6498097
-208.0037233
-217.1438123
-223.4195338
-226.4242764
240.7455879
237.4518928
230.5124883
220.6067797
217.061429
200.0862563
179.2191691
160.811468
133.0908892
103.0254215
71.0409759
39.59799431
6.172846964
-26.5860362
-57.75228749
-86.71659495
-112.9822231
-136.2779302
-155.6699358
-171.792338
-181.3039967
-189.6714617
-195.4544383
-198.2244862
210.4338511
207.4229411
201.0807343
192.0676593
188.853891
173.5604314
154.9397927
138.6387078
114.3469551
88.19164875
60.56094034
33.55338773
5.049151218
-22.8877146
-49.52976188
-74.41273585
-97.13864275
-117.4674888
-134.5497223
-148.8755356
-157.3941499
-164.9329602
-170.1708305
-172.6797536
182.7398667
180.031669
174.3261791
166.2472136
163.4732514
149.8645058
133.423063
119.1483218
98.00068228
75.35290553
51.55403961
28.39536011
4.103569552
-19.70615471
-42.45245345
-63.77624227
-83.35760844
-100.9894416
-115.8776482
-128.4725873
-135.9208233
-142.6168795
-147.2887437
-149.5256963
157.4102591
155.0122022
149.9572908
142.820422
140.5584756
128.5953009
114.2336971
101.8824725
83.61030237
64.12287654
43.72670735
23.9449724
3.309867346
-16.91828613
-36.26894816
-54.46115399
-71.23728661
-86.42209799
-99.25227329
-110.2077274
-116.5566723
-122.4225148
-126.5284523
-128.4929966
134.1818449
132.0932415
127.6860561
121.4778987
119.777944
109.397902
97.00296361
86.46453651
70.82472068
54.20106468
36.8507616
20.065594
2.644695655
-14.43587051
-30.79268122
-46.20422019
-60.46306708
-73.4246005
-84.33809328
-93.75442998
-99.00277055
-104.0666379
-107.6195738
-109.3175964
112.78972
111.0048337
107.2323388
101.9272389
100.8247119
91.95621266
81.41882116
72.57305585
59.35598502
45.34549468
30.74507041
16.64827246
2.087337097
-12.19302882
-25.8801382
-38.79871892
-50.78128698
-61.70561287
-70.85180102
-78.82545142
-82.98671345
-87.28466574
-90.30466103
-91.74565562
92.96807289
91.47916216
88.32343484
83.8873156
83.42145967
75.98458896
67.24636846
59.93519578
48.96556827
37.35676335
25.26479615
13.60499466
1.619877827
-10.13897272
-21.41811996
-32.07961241
-41.98843132
-51.03382274
-58.53664328
-65.16596243
-68.25523608
-71.82804676
-74.33792629
-75.53233896
74.47439396
73.27129667
70.7126034
67.11167176
67.29569196
61.2189212
54.19574704
48.33888437
39.45512445
30.0685778
20.28882787
10.86319127
1.226664736
-8.233280408
-17.31469248
-25.91152094
-33.91883424
-41.2448903
-47.15596581
-52.54404311
-54.59242888
-57.47833033
-59.50126358
-60.46114596
57.00225975
56.08211197
54.10732113
51.30009706
52.24370041
47.42014327
41.94416136
37.59550199
30.64815296
23.33636941
15.71084727
8.360464019
0.8937183427
-6.442231638
-13.49159208
-20.17661626
-26.42095477
-32.16612412
-36.53387032
-40.75161465
-41.73981954
-43.98321103
-45.53571849
-46.2654678
40.51788111
39.8576792
38.44675824
36.45079001
37.85190756
34.37212545
30.35668759
27.48724595
22.37937948
17.03010027
11.436909
6.042151407
0.6085224937
-4.737130654
-9.880958012
-14.77076525
-19.35544089
-23.59544663
-26.51745127
-29.58336253
-29.71422307
-31.30292164
-32.40589866
-32.92962857
24.03643801
23.69468237
22.85892469
21.65792336
24.14248754
21.87646163
19.26752916
17.84232525
14.49728038
11.02734499
7.38139059
3.859460513
0.3594487088
-3.09243785
-6.421890042
-9.600284792
-12.59952518
-15.40107031
-16.92465403
-18.93762421
-17.70607864
-18.65881193
-19.30841694
-19.5673317
10.59999156
10.35422808
9.964908195
9.404850012
10.74929836
9.647743529
8.410845116
8.50193917
6.861392043
5.20704749
3.455229582
1.773094758
0.1348258341
-1.484360935
-3.058662437
-4.580038452
-6.038649842
-7.44874446
-7.543449157
-8.478123569
-8.082371784
-8.535003072
-8.850463668
-9.071729789
2135.581179
-4843.02994
-3308.721952
1825.894391
-4449.848807
-4883.353065
1610.742479
-3291.000181
-4325.354797
1436.500305
-2128.778041
-3139.368721
1221.648103
-803.8455235
-847.4804074
-1105.713078
-1991.864556
942.894544
374.120388
-755.0401377
234.0611051
-406.2719799
-992.1324818
2280.704083
728.6234329
-2929.759877
-1021.208549
-6590.260526
-4398.622549
-4454.546753
-2855.796436
-2320.501244
1655.810656
1806.085146
2044.82607
-6354.301323
-6810.728404
-4183.616058
-2933.026474
-2943.908468
1503.053608
1597.889287
1777.339632
1711.302387
1751.764606
1861.65948
-4590.595704
-5488.922515
-3161.235732
-2479.710517
-2854.733138
1341.702805
1421.325386
1574.969174
1522.523928
1568.172359
1638.093204
-2990.951354
-3664.983187
1160.263983
1217.446201
1398.631951
1331.936619
1400.487789
1484.726463
-1632.692718
-1600.355857
-2188.744235
953.4694556
947.8982117
1187.339194
1090.154167
1138.519736
1278.61086
640.0897525
377.5713595
388.3553898
2655.453771
2237.202053
3094.894706
2735.804525
-6831.946331
-6639.577139
-4475.679046
-6338.318415
-6656.106223
1876.72376
1987.635019
1924.197149
1993.452319
1881.036455
2197.75429
2011.91477
-5544.000029
-6313.76965
-4688.794169
-6178.257446
-5451.01854
-6638.425327
-6217.037742
-4730.472489
1649.227802
1737.11681
1684.80892
1745.645163
1651.323097
1873.116457
1753.628848
-3765.403703
-4527.803805
-3746.354049
-4419.257743
-3692.120899
-5397.034665
-4533.686197
-3896.842788
1490.393252
1563.902491
1501.322546
1568.019755
1495.463728
1645.472595
1572.059177
-2275.346699
-2898.530774
1286.655155
1394.435854
1318.521733
-1585.205006
1400.584607
1292.691697
1489.666966
1406.701059
-1627.784192
-1009.604649
-1519.611099
-1580.681348
1051.375976
1127.47494
1070.636826
-11.83958988
1133.602327
969.6340006
1284.642462
1143.851675
-88.00904932
1770.756308
2084.899824
2211.99841
2321.531057
2680.541554
2943.460475
-8568.586323
-5688.431123
1960.778512
2006.700519
2195.575235
-3579.992721
-2082.066097
-1833.710332
-2325.818655
-2054.307889
-2004.175837
-2313.747642
-145.1393732
-472.7501449
-863.0966165
2233.613443
2612.438329
2282.110686
2372.686689
3972.051525
3564.790783
-4160.870367
-6208.556544
-4254.93044
-2364.609332
-2699.411854
-2551.903685
-2853.977352
-2249.576287
-3595.463596
-2943.573923
-2696.392647
-1164.333194
-266.3671695
-434.1342277
1103.921604
2141.067936
3036.546477
-3887.693756
-1282.547432
746.9652496
-8659.539672
-6036.866179
-8306.842105
-5391.423135
-8156.470303
-5702.086914
-6567.313603
-6600.260316
-5013.487766
-5074.478961
-3156.226213
-3501.758526
-3273.123173
-3482.254867
-3127.917226
-3927.745917
-3535.83067
-3369.596536
1440.358241
1405.547879
1368.985517
-1627.727049
-1910.164655
-1970.17581
1210.542988
1172.15467
1113.836749
1240.05687
1189.970905
1219.099612
2727.708826
2410.14701
2441.934798
2416.443071
2745.296988
2203.070222
2381.505288
2382.832477
3048.407915
3493.158143
3822.170025
2810.583268
3399.871621
2980.397749
3451.590246
2805.618109
-6858.086555
-6852.771483
1939.144329
2010.768534
1931.371302
2102.322783
2087.792281
2188.524764
2016.589772
2077.026466
2076.466655
-5902.378083
-5950.640666
-5848.417311
-5234.962975
-5423.021834
-4931.231634
-5163.84107
-5801.027679
-6463.630987
-5639.686769
-5686.516844
-5476.593995
-5608.121302
-6432.366974
1698.253925
1691.561943
1817.691568
1809.026464
-4079.715464
-3971.175551
-4134.883961
1535.207688
1530.098285
1608.040121
1603.199954
-3074.003634
-2726.949918
-2626.92147
-2746.615839
-3095.842116
1335.562045
1300.587111
1255.651846
1356.071374
1315.067723
1343.988416
-1215.743528
1348.883079
1339.954219
1450.189609
1445.216269
-1976.600076
-1218.555643
-1258.223977
-1534.77461
1092.395924
1026.026278
972.1404658
995.2936042
508.9648648
215.5201576
1225.743202
-253.6541812
173.1778977
-166.8272597
1217.836336
-341.6620459
-202.2666399
140.2703284
-7309.312939
-2213.139502
-2375.702346
740.9794327
679.7064484
909.9001035
789.699768
804.0535395
1002.322289
272.9160475
-91.46053053
-287.9746057
4812.012599
-2409.786761
-2589.366965
-905.5522405
-1167.405096
-1168.594678
-109.652475
-364.239947
-72.26527304
1660.239054
2817.911076
3901.207313
-5014.819647
-1659.92484
698.5800355
-6456.023925
-7362.633386
-7220.046541
-6729.574216
-4769.498026
-4967.557202
-4757.890005
-5762.475041
-5580.320384
-5317.230748
1600.051968
1575.201992
1544.865379
1618.133634
1585.627592
1605.194612
1451.176876
1417.177339
1445.58424
1170.864405
1154.854403
1122.366846
916.9450928
702.4270983
431.8006325
-6854.810533
-7405.106497
-7417.164681
-6656.620009
-5550.070272
-5283.966209
-5683.296202
-5603.605271
-6657.11484
-5703.704874
-5993.36258
-5825.621012
-6170.882745
1684.127159
1664.608493
1629.407017
1660.006546
1675.429721
1667.759115
-4692.327321
-4497.406369
-4355.429941
-4094.699999
-3841.400371
-4117.348926
-5000.468663
-4582.134228
-4847.261778
-4210.597769
-4490.395424
-4942.063698
1525.821823
1494.179594
1462.20205
1534.892234
1504.570118
1530.888288
1555.294463
1571.186106
1580.439096
1510.341803
1531.889741
1511.828303
1629.096233
1636.60731
1654.379949
1583.134758
1593.223307
1584.587158
-2538.257831
-2679.582904
-2359.149368
-1415.224241
-1425.734507
1381.092522
1306.077106
1471.788738
1482.019004
1505.080305
1444.456996
1423.466028
-1768.095082
819.0266533
1006.095914
958.1707216
1110.697619
1071.242167
1083.522665
182.5921693
418.1413338
183.9756431
1091.661402
461.7299658
740.1890986
547.0621955
609.8553596
1255.302759
1176.381223
-7892.92512
-7032.841679
-7527.408644
-3727.573586
-3795.827522
-2018.995523
-2163.943855
-2171.374764
2293.224591
2267.753528
3948.38728
4465.997336
4564.658392
4306.054801
3877.887695
-2775.907391
-2594.185092
-2552.451527
-2594.833889
-2795.186171
-1170.682814
-989.9651114
-1007.579254
-992.7630344
-1171.457843
-765.1762629
-942.4272919
-517.9247752
-549.1261662
-715.143646
-336.8938278
-495.2474936
-416.4386382
-8560.073452
-7429.963505
-6992.422337
-7712.241897
-7528.415673
-6808.763751
-6082.492695
-7341.335846
-6963.389428
-6846.823436
-6482.134889
-6698.961211
-7166.586385
-7012.585643
-5235.154161
-5036.329136
-4830.976407
-5094.98891
-5303.827286
-4821.29121
-5032.315472
-5370.197833
-5257.427011
-5521.812207
-5304.722751
-3301.753324
-3367.361588
-3336.02716
-3252.213469
-3399.485482
-3769.566022
-3657.493318
-3815.374198
-3448.669238
-3605.456012
-3711.455962
-1838.732264
-1818.505459
-1966.660802
1193.539017
1165.321905
1177.768152
1242.048454
1228.154738
1202.861706
2571.68292
2527.448472
2534.179189
2548.619375
2434.34768
2735.332784
2591.371834
2580.665074
2270.771022
2287.243183
2221.050354
2400.592722
2312.629034
2297.031397
3036.915011
2963.60542
2792.489855
3147.024395
3048.972467
-7510.488395
-7418.823397
-6858.977319
-7604.381071
-7751.573618
-7558.688564
-7756.687059
-7772.473383
-7808.968832
-7741.410166
-6798.928264
-7500.168501
-7546.004817
1975.144606
1972.665937
1952.217483
2006.054009
1980.835452
1985.104626
1922.558575
1904.306192
1946.805981
1928.451436
2125.166161
2136.667102
2096.560022
2202.396872
2151.690325
2138.56252
2043.251049
2042.694482
2014.580503
2084.632673
2052.756723
2053.699112
-6199.175347
-6047.557491
-5754.928045
-6113.798522
-6425.024049
-6242.084267
1726.577673
1707.530056
1756.052657
1732.224434
1677.49649
1663.134202
1700.388409
1682.109239
1862.249772
1834.693693
1897.323317
1871.415725
1788.854349
1763.242191
1825.518295
1798.134526
-4079.094164
-4253.863889
-3870.142904
-4028.076856
-4123.190644
-4548.953421
-4748.993552
-4309.228947
-4488.76661
1547.386482
1566.124972
1550.577181
1572.276683
1550.487557
1584.090308
1577.849426
1545.764187
1516.091878
1533.824171
1542.222594
1617.634337
1630.877999
1623.372803
1634.459194
1620.769266
1657.396438
1639.505825
1594.857892
1585.958421
1613.196259
1598.648594
1589.024548
1597.21895
1612.021296
-2796.507577
-2898.961555
-2965.607272
-2785.584909
-3020.268086
-2945.562967
-1182.042955
-1377.382687
-1401.899738
-1183.003725
1374.386582
1315.298257
1461.738844
1475.70868
1466.016096
1429.348478
1450.850048
1458.615302
-1856.157541
1063.422447
1056.612348
1011.604395
644.5735118
557.2288804
1073.378574
293.5959732
442.6585081
344.8228916
1245.068294
-408.1840535
24.65349827
240.3722726
-19.26367438
1177.349628
-2792.044797
-2080.072925
-1393.78517
-2359.239645
-2416.774713
-1128.620555
-1203.692095
-1668.840864
-2421.120557
-957.2149584
-941.1659811
-772.8696664
-2165.42486
-1629.541516
-1593.263113
1820.548729
3378.791198
4502.19086
-5994.371324
-2140.002553
699.0298724
-1905.453617
-1578.404927
-3734.021863
-6345.450399
-7179.662705
-7394.607395
1798.443239
1772.406802
1729.394553
1832.651092
1787.243435
1814.428858
-1620.910522
-1768.380323
-1775.202489
-2265.40187
-1986.331226
-1931.92275
1261.257921
1237.032086
1251.434997
-7446.440735
-7498.17049
-6783.162961
1715.723912
1676.913836
1696.621775
1724.600905
1730.986738
1753.810103
1761.296074
1786.140834
1776.50261
1304.373988
1291.15283
1269.427389
-1598.095251
-1549.494931
-1539.231383
1298.171261
1306.759872
1299.746758
-1701.006612
-1711.595359
-1609.930323
-1425.881923
-1421.349143
-1571.120913
1121.757836
1276.549949
1283.889327
1290.705479
1151.257816
-8478.642229
-3617.936431
-2035.608182
-2108.113496
-2113.55582
-2357.664677
-2204.468904
-2171.497365
2339.61094
-5153.355591
-4630.274216
-5589.088946
-2505.617154
-2560.121246
-2402.919724
-762.8010135
-778.1798884
-594.9110607
-601.5135987
-704.1616337
-2495.630367
-2013.846529
-4834.425521
-8465.484447
-8003.477032
-7853.023692
-8306.981108
-8309.538065
-3205.317059
-3239.006083
-3187.105136
-3517.738464
-3515.37499
-3487.16007
-3054.060847
-3200.15409
-3277.218986
-3889.823215
-3833.94508
-3888.660814
-1964.894791
-1942.165726
-1975.269944
2668.350027
2741.434988
2447.984254
2453.181424
2461.414338
2424.656933
2218.256223
2230.807899
2211.804762
2390.213919
2358.551062
2349.823527
3213.076695
3028.144233
3124.99048
3343.638951
3359.592846
3503.818215
2805.352109
2872.384239
2878.375235
1960.314336
1957.86271
1958.094029
2008.885691
2001.099429
2003.39602
1923.345478
1918.927183
1954.609524
1947.765881
2100.981873
2103.914354
2091.473818
2194.077481
2176.675792
2172.059316
2022.852391
2023.632171
2016.019733
2080.308562
2070.915098
2069.452399
1705.316362
1724.583315
1717.353253
1673.836472
1680.594839
1698.66704
1830.531274
1857.127394
1841.709358
1851.962093
1842.209313
1913.391604
1904.436461
1773.408826
1832.549002
1822.978081
1785.054438
1795.001833
1821.625226
-4258.939294
-4329.987317
-3943.898956
-4008.902538
-4033.73078
-4397.695736
-4413.865168
-4296.814339
-4437.908598
-4264.601843
1321.152375
1298.963909
1311.701217
1367.899689
1350.528455
1329.107348
1353.509009
1363.944759
1358.042671
1331.492955
1335.601886
1343.986582
-1977.752497
996.368658
1008.194139
981.325732
693.0100686
1004.561059
386.1607574
508.3792101
625.0940169
1232.411123
1236.729655
1231.994302
-318.7159819
-159.3266411
-137.773876
-153.8558446
1207.744466
1215.068792
1225.301166
-55.09015083
-138.2207725
-284.5676127
-2248.658204
-2294.539119
-2401.401176
-2351.609633
-2330.11512
4933.43299
5072.723901
4837.396231
-2468.699507
-2494.489732
-2409.50306
-2608.219766
-2550.083217
-2538.589824
-3280.647126
-2546.26373
-5667.829208
-6718.660451
-6729.88151
-6634.384677
-6680.769607
-7311.736194
-7132.04432
-7173.755673
-7051.880424
-7092.577753
-7266.667622
-5706.808575
-5621.118803
-5679.497532
-5495.337596
-5561.09431
-5647.481344
-7453.856907
-7247.657425
-7233.235622
-7214.167749
-7241.557789
-7455.03972
-5934.32726
-5847.656728
-5902.258985
-5738.314508
-5793.384759
-5882.572157
-6553.950556
-6593.789899
-6439.960424
-6498.484583
1574.824943
1569.4049
1565.33347
1516.031958
1511.871066
1505.820119
1524.182009
1518.578605
1523.728295
-1551.549253
-1606.794922
-1410.551344
-1494.348313
1398.017307
1394.392838
1409.385376
1402.383998
1310.240422
1303.265008
1309.997024
1304.490134
1489.690657
1486.415484
1479.515358
1500.040166
1493.569569
1498.059795
1422.472324
1418.207258
1436.504445
1419.501706
1427.517597
-1773.982373
-1767.746177
-1757.993524
-1609.742482
995.5298387
1019.24742
1110.28544
1100.298747
1093.523154
1077.293389
1108.460626
408.8506539
396.0474703
1075.297579
964.3956227
743.6439355
1257.276777
1272.597652
1266.797932
1163.628549
-8335.890932
-8638.888087
-8216.203664
-7849.86487
-7423.399453
-6559.295426
-8223.644206
-7891.534712
-3665.906451
-3818.640849
-2171.974835
-2160.829812
-2167.402985
2315.029164
2238.987789
4565.128715
4376.990417
4294.464535
3819.378835
3680.818167
4153.933897
3969.784511
4108.287501
-2679.064163
-2606.986537
-2735.019031
-1008.50067
-1003.984024
-991.8128799
-1112.402551
-804.2144703
-781.2398074
-768.103943
-930.5154662
-869.4016922
-869.1266446
-525.9105656
-582.6420825
-577.6084945
-397.5453468
-404.8375482
-452.4057218
-8213.028734
-8117.451487
-8521.738099
-7655.233965
-7992.477228
-8033.344156
-8338.310824
-8321.078865
-6911.970916
-6794.538727
-6833.032527
-6745.269229
-6760.614995
-6866.75458
-7110.495699
-6961.836055
-7007.9758
-6874.742543
-6917.245855
-7060.55786
-5170.644983
-5094.435179
-5158.439811
-5161.052991
-5235.191316
-4872.333879
-4902.00923
-4869.749083
-4969.615253
-5443.58329
-5484.889442
-5440.350416
-5354.812327
-5425.942636
-5225.04127
-5291.698397
-5377.945889
-3341.817739
-3252.621289
-3243.510312
-3266.746903
-3200.349215
-3259.667594
-3436.033398
-3461.751774
-3395.582224
-3727.875516
-3773.40925
-3799.560047
2618.893954
2486.9396
2277.569348
2252.147613
2239.068808
2322.36687
2329.89488
2303.376762
3143.462561
3242.328822
3246.389036
3543.287797
3413.163083
2957.211851
2951.872893
3044.460622
-7470.786434
-7264.40257
-7283.620887
-7238.351632
-7247.957202
-7440.597806
-7649.749751
-7694.429282
-7787.672798
-8083.533905
-8022.028112
-8126.055147
-8137.330217
-7797.646566
-7819.443202
-7987.083654
-7979.794874
-7753.188343
1974.825616
1967.380586
1967.781726
1994.763409
1992.603998
1983.731189
1931.773358
1927.457096
1941.414491
1936.335056
2129.522649
2116.538646
2113.347137
2154.559899
2159.611966
2143.736756
2042.883535
2032.756975
2032.014316
2062.25864
2062.11543
2052.834189
-6152.464544
-6058.351514
-6104.504665
-5954.45613
-6006.632539
-6097.81666
-6364.940472
-6273.863589
-6361.665441
-6149.827723
-6203.819347
-6298.029699
1720.794839
1723.027353
1727.877047
1709.654519
1716.983072
1714.4367
1747.201704
1746.318136
1757.002138
1732.041397
1737.576597
1738.868971
1673.049428
1675.600545
1679.205998
1666.5343
1671.454704
1668.319272
1693.575857
1694.297525
1701.705202
1682.917705
1687.865191
1687.42885
1871.740139
1861.891856
1853.107844
1857.801523
1867.249426
1838.741731
1848.254454
1843.906213
1892.727086
1881.645261
1794.969538
1786.471208
1779.787795
1783.071117
1791.947212
1764.586458
1767.592958
1769.871021
1816.376368
1819.934555
1829.30686
1801.409818
1810.647849
1807.260955
1813.626177
1804.361601
-4169.778488
-4205.437183
-4102.803665
-4068.915478
-4098.33242
-4606.492511
-4638.323208
-4588.388346
-4788.721088
-4703.975943
-4672.022072
-4357.645699
-4391.949036
-4360.52575
-4534.496697
-4480.423329
-4423.131969
1553.048315
1549.02109
1543.424103
1560.495829
1554.888027
1559.645049
1564.111394
1556.334164
1582.455137
1580.552969
1542.534049
1532.959977
1527.380748
1527.166879
1526.156073
1537.992823
1533.212921
1538.521149
1622.011507
1626.879983
1637.798622
1624.417063
1651.313099
1653.979793
1660.513654
1642.531043
1648.024707
1645.397059
1591.319398
1588.315611
1606.922183
1602.493443
-2906.190389
-2889.06446
-2954.07646
-2778.565771
-2830.542077
-2866.081482
-3090.076097
-3136.235151
-3002.08139
-3008.304857
-3019.508573
-1335.61806
-1341.746076
-1397.715512
-1199.780878
-1265.389432
-1272.586009
1369.570528
1357.161443
1389.68995
1381.499881
1320.494405
1327.356001
1323.079519
1330.619938
1324.097442
1346.873463
1338.524684
1465.761058
1463.137956
1458.688763
1473.415742
1468.024441
1470.403477
1454.253457
1447.367488
1442.404515
1454.715811
1451.099333
1456.40022
-1918.039634
1058.456381
1037.592859
1040.899604
604.4645457
614.6766082
668.9848277
560.2307589
566.1865858
552.2679936
1053.282527
387.9799571
338.3803092
272.7878045
1237.681579
1239.905661
1245.344144
-386.3082323
114.0442161
56.71852536
224.1386863
213.9380958
224.9896516
39.16226462
-94.25647175
-74.64021581
27.37679623
1190.495261
1205.652234
1197.853926
844.7118305
793.9425596
766.1975442
772.706989
695.9400258
663.5954165
664.7007809
554.8956073
523.5611311
512.138189
369.9491097
345.6671261
317.2996818
151.5251225
142.3199474
93.8131827
-76.37289059
-65.71161367
-131.7389051
-283.8109493
-258.5851973
-330.1357671
-451.1927757
-420.180681
-486.5134869
-575.3441443
-545.836484
-600.6260345
-662.9237269
-638.528684
896.5452672
857.7749108
807.1698541
840.6695128
773.4603691
711.5519945
745.0889429
639.2263902
570.8453806
596.2123946
442.237664
383.0021865
382.5786757
183.5712934
156.7220867
112.7800977
-99.44620238
-81.3471339
-166.621943
-346.8867602
-296.4421733
-398.5225427
-526.7874759
-466.3215387
-561.3586633
-644.5071261
-589.5692463
-666.5671499
-719.426054
-674.6012075
969.582238
951.0060642
878.3794264
941.187964
896.9182329
799.9142669
876.025731
788.2841281
669.7372193
748.4885214
586.6053332
470.1554889
516.2431944
256.6080394
197.1618055
158.0157504
-140.8863521
-107.1364753
-232.9138817
-463.2063322
-369.3969311
-522.8620326
-655.3842934
-552.9538485
-687.0419575
-754.1005399
-667.544637
-769.2358928
-800.8129481
-737.733117
1056.305472
1067.361493
978.8069301
1069.06799
1065.54028
934.9623393
1060.011674
1019.475138
837.7271039
994.7983357
854.2893852
639.0399217
774.3531173
399.6855689
284.1726016
236.4447635
-260.9421297
-158.5412914
-402.0785399
-700.8612532
-506.8947818
-764.0196443
-872.7319781
-699.9577745
-888.9323812
-908.201004
-788.3523679
-908.9084605
-904.0220864
-824.7521923
1140.983608
1185.676226
1098.391179
1201.177041
1251.612007
1111.946227
1270.160473
1330.315461
1091.922076
1348.927217
1359.375823
951.9946846
1317.055902
658.113792
452.8287466
450.9069713
-741.2923687
-325.7469264
-945.2915878
-1208.494828
-794.9248013
-1226.28817
-1201.050534
-943.214966
-1178.388993
-1104.666435
-954.1629722
-1081.170152
-1021.260591
-932.4889725
1204.805402
1276.669404
1212.347404
1303.700835
1401.603601
1294.698876
1442.856717
1613.479252
1411.022699
1695.278257
2167.713224
1540.439242
1857.510442
1899.09859
1362.644821
547.6024437
-905.1641526
-315.8563028
-1688.77765
-1632.680087
-1327.142261
-1948.085061
-1617.252577
-1300.40253
-1527.767533
-1314.267271
-1158.087446
-1259.283954
-1133.014263
-1050.716103
1231.872057
1315.831844
1292.000805