/*--------------------------------*- C++ -*----------------------------------*\
| =========                 |                                                 |
| \\      /  F ield         | OpenFOAM: The Open Source CFD Toolbox           |
|  \\    /   O peration     | Version:  v1912                                 |
|   \\  /    A nd           | Website:  www.openfoam.com                      |
|    \\/     M anipulation  |                                                 |
\*---------------------------------------------------------------------------*/
FoamFile
{
    version     2.0;
    format      ascii;
    class       volScalarField;
    location    "0.75";
    object      p;
}
// * * * * * * * * * * * * * * * * * * * * * * * * * * * * * * * * * * * * * //

dimensions      [0 2 -2 0 0 0 0];


internalField   nonuniform List<scalar> 
12556
(
769.4824416
768.9470503
767.4834361
764.1803631
758.9614319
747.5474895
728.1256899
696.1801412
647.0587181
574.6484469
473.4408486
341.0776733
181.6499224
6.560361089
-168.2336421
-327.0976566
-460.485639
-565.5393318
-644.0334382
-699.6704645
-746.6741547
-768.1252752
-780.5764558
-786.3791692
769.8226586
769.5786743
768.6982587
766.5027748
761.3520778
751.8877721
734.9922221
709.3278707
665.8409652
599.7319008
504.1761083
374.477724
212.6085238
30.86656493
-153.8154043
-321.6482859
-460.7178849
-568.7129312
-656.3635948
-708.8201789
-755.0383523
-773.9386066
-784.9623911
-790.0594645
770.5774662
770.9859447
771.4769241
771.4903566
768.5775486
763.2952709
752.4317829
731.2029573
696.2696245
638.8989061
545.6920625
403.8248248
221.3921762
18.73141823
-179.7623686
-358.0214192
-501.3433096
-605.1726184
-690.5578294
-734.7574334
-774.3389416
-787.85752
-795.6570093
-799.1406098
771.2280456
772.5589126
775.054892
778.2001501
778.644228
779.5626414
777.698886
765.8422335
745.7314085
700.684762
608.7767604
450.7628406
218.7271777
-37.46815709
-264.2744147
-442.0487952
-578.5415684
-673.4936473
-744.5905315
-774.4002297
-802.502626
-808.3332875
-811.2795265
-812.4086862
770.8558855
773.236484
778.0106272
785.0165217
789.0720571
798.2440398
807.6267241
810.0341769
810.6186022
790.9829775
719.4702187
538.4836311
215.9880286
-158.1085473
-436.075866
-608.3751121
-711.1434023
-772.609046
-816.7643854
-825.8631848
-835.3840327
-831.874431
-828.8592011
-827.1417125
768.4212547
771.8445041
778.8146719
789.6057214
798.8021339
816.0865623
838.1343122
856.9718597
889.0259838
922.2826985
921.2676146
771.5579437
251.2955243
-405.114753
-747.0887354
-867.7882354
-900.8485988
-904.7419335
-902.8038185
-883.2418642
-869.2513394
-855.0894693
-845.3242457
-840.5293306
762.931476
767.2620583
776.1358869
790.2366373
804.3870552
829.2927597
862.8351244
899.4749202
968.2456846
1074.66253
1227.045044
1367.237461
526.3883428
-1040.54928
-1257.480497
-1210.416282
-1132.496511
-1055.343849
-992.7785717
-938.9795038
-899.6351059
-873.8711352
-857.5309771
-849.8168718
753.5336533
758.5206585
768.7672576
785.2138278
803.8609468
834.2982962
876.1302731
927.6804653
1025.438341
1187.48975
1461.230462
1992.721296
-2726.334746
-1955.85156
-1577.352499
-1355.095454
-1195.615632
-1068.096295
-983.5690636
-918.7356334
-883.7425355
-862.3093496
-852.1948927
739.5840245
744.8906185
755.7916754
773.3459528
795.3288979
828.5660672
874.2333942
934.0325941
1042.535689
1209.540669
1439.29465
1697.607341
-4123.336643
-2455.991024
-1826.870813
-1502.321788
-1285.533158
-1110.273814
-1005.459499
-921.5763887
-881.0932364
-856.7933913
-845.249815
720.732395
725.9870783
736.7532865
754.0516546
778.0095571
811.0721414
855.9730443
917.0580028
1019.926361
1162.715736
1320.288221
1448.233776
-3821.557291
-2446.682225
-1847.148429
-1517.639949
-1297.196649
-1106.802971
-997.7989016
-905.0695871
-864.027771
-839.3937967
-827.636103
696.9708841
701.827688
711.7191989
727.4233999
752.0980395
782.303436
822.6619806
879.6371826
968.577343
1082.29022
1195.931661
1288.311285
-2873.385039
-2068.664725
-1662.930986
-1414.508934
-1230.231546
-1056.516971
-959.6816342
-869.2964358
-832.3942387
-809.9587777
-799.1725192
668.6094016
672.7740022
681.247636
694.0092547
718.8863726
743.742219
776.8472644
825.9551741
896.9119293
983.5271254
1071.926162
1167.786066
-1885.620578
-1551.702479
-1363.157492
-1223.257014
-1102.552914
-969.4929741
-896.1307168
-817.1078957
-788.0296909
-769.729519
-760.8385808
636.2547934
639.523927
646.2972957
655.9414337
678.1382508
697.2589881
721.3598687
760.6645555
811.1156366
869.6121519
931.377816
1027.21108
-768.8445184
-979.6008839
-1049.529076
-1035.711546
-998.8788196
-945.5094648
-861.9747609
-815.6132748
-753.9474992
-734.2457866
-721.0134763
-714.5461946
600.6608136
602.9452117
607.8395362
614.5235457
633.1310761
646.0587294
660.7865821
688.7812923
717.3713836
743.7209456
762.819078
816.5314361
237.4446949
-417.0409706
-653.8884532
-748.3234305
-785.4433812
-785.4748393
-749.291933
-727.4197614
-685.8468771
-674.7226204
-666.6250459
-662.7223281
562.6969069
563.9173159
566.6267276
570.0835207
585.1993779
591.2170312
596.8670793
611.7232055
618.3545041
612.7635103
581.5069211
493.239282
198.9056194
-178.0345384
-404.5780911
-532.3288399
-607.1991539
-643.3315687
-641.3324987
-640.1884062
-616.2159739
-612.6251958
-609.3659039
-607.8561858
523.257092
523.4733945
524.041841
524.4180792
536.0426059
535.9798031
533.6516827
536.8055153
526.4879798
499.3794605
440.6547068
323.6913136
150.2172246
-79.42608519
-257.7963737
-384.9357517
-471.9383849
-525.7234231
-545.3414929
-558.4281157
-548.3363211
-550.844809
-551.6833507
-552.177593
483.2337657
482.58931
481.3078424
479.0290939
487.3407232
482.1925202
473.4984731
468.0247185
446.0543284
407.8944981
344.037455
249.4734651
121.4682505
-33.56790919
-172.0190131
-285.1704668
-372.041531
-431.5852146
-462.5632509
-484.3470225
-484.5886617
-491.5654135
-495.5740726
-497.5066938
443.4424655
442.0993051
439.3176337
434.9126234
440.2631764
431.2251093
417.8156724
406.5368582
378.370948
336.7619301
276.8589505
198.770635
102.0315957
-13.26123268
-123.6144167
-220.6765225
-298.6287381
-356.3541033
-392.3879768
-418.8676606
-426.1861673
-436.1158835
-442.2967553
-445.2019527
404.54607
402.6646363
398.7266873
392.7293026
395.6768388
383.9116402
367.4361252
352.5186069
321.5979738
279.8881134
225.7208708
160.1480327
84.0231189
-7.793640409
-97.25176374
-177.5112479
-244.4105936
-297.3540709
-334.2293957
-362.0948995
-373.5489637
-385.1500855
-392.6215183
-396.1676685
367.0552421
364.7939958
360.0375421
352.9547368
354.0660872
340.6136618
322.4261933
305.6770907
274.2680565
234.1366385
185.1780258
128.2446973
64.77398324
-8.44031641
-80.35639769
-146.2392295
-203.2389125
-250.3655528
-285.866425
-313.1637517
-326.693983
-338.9491055
-347.0184375
-350.858503
331.3408567
328.8475067
323.586336
315.8633595
315.6678455
301.3743912
282.4522003
265.2479164
234.7616868
197.3685394
153.6616962
103.8379434
51.01002885
-8.98961815
-67.86926761
-122.5704195
-171.0995436
-212.5008982
-245.3063887
-271.0436799
-285.251949
-297.4367837
-305.5935896
-309.486819
297.6468094
295.0469224
289.551632
281.5573694
280.5048835
266.0233489
247.1917322
230.3289093
201.5907344
167.4222745
128.726867
85.66375697
40.72580714
-9.179827452
-58.11418407
-103.9730352
-145.3583274
-181.4640278
-211.0850128
-234.7268264
-248.6914024
-260.3405157
-268.2409866
-272.0197202
266.1010887
263.4944568
257.9837666
250.0195433
248.4380737
234.2703482
216.1104809
200.0786835
173.5232835
142.7129576
108.6162145
71.43212022
32.92357753
-9.069254023
-50.17232727
-88.90474285
-124.2701751
-155.624302
-181.9753635
-203.3057883
-216.4615365
-227.2989836
-234.726434
-238.2833945
236.7351769
234.1979829
228.8370781
221.131446
219.289371
205.7801451
188.6858052
173.7510704
149.5707627
122.0634721
92.11532291
60.03451186
26.88543955
-8.726914452
-43.50328879
-76.38711802
-106.6554494
-133.8041789
-157.0033025
-176.0012534
-188.0346037
-197.9152489
-204.7440023
-208.0165349
209.5079039
207.0964257
202.0043208
194.719425
192.8240038
180.2011273
164.4395087
150.7209392
128.956949
104.5947421
78.37594887
50.7095638
22.12393249
-8.218084313
-37.77320467
-65.77876596
-91.70125894
-115.14881
-135.4060063
-152.1583253
-162.9185494
-171.7859433
-177.9550844
-180.9123112
184.3262882
182.0803248
177.3393598
170.5841385
168.7900679
157.1921477
142.8641933
130.4664575
111.066458
89.64210718
66.78056197
42.9410671
18.30373534
-7.597260748
-32.76475091
-56.64174392
-78.82899196
-99.02177294
-116.5801103
-131.2278623
-140.6670183
-148.5218295
-154.014775
-156.6475852
161.0586687
159.0047258
154.6689719
148.5118473
146.9374944
136.4396097
123.583227
112.5393261
95.40741633
76.70114134
56.87021269
36.36984087
15.18913639
-6.907275558
-28.33022753
-48.66748492
-67.61730781
-84.94234886
-100.0475708
-112.7533099
-120.8807606
-127.7575698
-132.5856044
-134.8987381
139.5461195
137.7003764
133.8024324
128.2821277
127.0154295
117.6479268
106.2629414
96.55675128
81.57927983
65.37972663
48.29463591
30.73123071
12.61007375
-6.180189738
-24.36304953
-41.62859781
-57.74771388
-72.53579009
-85.41841707
-96.34688781
-103.204418
-109.1557041
-113.3460851
-115.3522339
119.6132915
117.9844334
114.5412208
109.6748628
108.7837489
100.5467894
90.63442787
82.19839765
69.25732435
55.36989986
40.78375772
25.83001413
10.44146726
-5.439513743
-20.78324483
-35.35259725
-48.97395586
-61.50529075
-72.37301503
-81.68020551
-87.32265116
-92.40859515
-95.99639471
-97.71216517
101.0766115
99.66793919
96.68536599
92.47516295
92.01223609
84.88641594
76.41468335
69.20020442
58.17445136
46.42320576
34.12219025
21.51785874
8.588919318
-4.70200938
-17.52739967
-29.7028257
-41.09779944
-51.60626883
-60.64435203
-68.4705083
-72.9554036
-77.2367693
-80.25959722
-81.70299092
83.74150764
82.55391815
80.03172075
76.46736772
76.49179891
70.43892268
63.3565482
57.33724864
48.10775302
38.33669034
28.13880611
17.67147475
6.979237096
-3.979327876
-14.54347034
-24.56843248
-33.95672831
-42.6228344
-50.00780307
-56.47201603
-59.8469124
-63.38291253
-65.87703297
-67.06497583
67.43964656
66.46993496
64.40438777
61.47323882
62.00633324
56.99421291
51.1793787
46.41553406
38.86499031
30.93964355
22.69208303
14.1909339
5.55399943
-3.279128743
-11.78731676
-19.85770175
-27.42009027
-34.4016467
-40.24689507
-45.46391007
-47.78706193
-50.62763356
-52.62644846
-53.57604853
51.89630326
51.15054001
49.5444804
47.22308599
48.40669895
44.3586129
39.75848195
36.22514916
30.27137599
24.08212037
17.66139191
10.99383345
4.26494081
-2.60578022
-9.219155298
-15.48991849
-21.37414766
-26.83768381
-31.17113885
-35.24794487
-36.50553841
-38.70973102
-40.23747323
-40.95568039
37.24223721
36.69569649
35.53870548
33.87299061
35.26002026
32.34715227
28.93723095
26.60231871
22.17488446
17.63197608
12.93931712
8.00539851
3.071609551
-1.960887917
-6.802099978
-11.39105157
-15.70644603
-19.73179168
-22.66615721
-25.61989748
-26.07362862
-27.63014924
-28.7121373
-29.22769437
22.15400769
21.89728535
21.21024408
20.20731858
22.68172205
20.80572678
18.54288657
17.39691716
14.44158114
11.46753176
8.421780185
5.153388866
1.939568124
-1.343231674
-4.500734594
-7.492664534
-10.31589259
-12.97453633
-14.57256665
-16.5120043
-15.54943611
-16.48214676
-17.11856038
-17.36307244
11.39024337
11.12433823
10.7597289
10.16431182
10.37754396
9.418666954
8.347896858
8.471703692
6.960898779
5.472375786
3.989490949
2.356220871
0.8474850789
-0.7462819323
-2.278840374
-3.731443341
-5.11052544
-6.432471496
-6.658857253
-7.548554171
-7.890175087
-8.360408309
-8.665338797
-8.893903501
1742.435625
-4412.972634
-2887.552853
1472.439657
-4162.376981
-4469.750928
1305.004001
-3123.553399
-4055.013509
1183.059188
-2051.081567
-2984.684921
1038.113711
-822.0847885
-861.8259031
-1091.533045
-1923.611366
843.8407684
325.5085972
-775.2490883
188.7314224
-427.4034263
-984.1738215
1962.10338
743.3416167
-2536.168731
-853.2723403
-5830.259182
-3681.942316
-4062.089466
-2622.717222
-2101.59753
1351.743657
1459.695512
1667.745463
-5908.839624
-6232.899527
-3911.8339
-2741.438404
-2716.426023
1226.621127
1295.103369
1436.199343
1380.91906
1409.006488
1496.218952
-4337.565581
-5156.430783
-2999.605829
-2350.49818
-2678.366348
1103.667469
1169.730932
1278.123674
1242.126461
1276.185857
1323.277476
-2862.536217
-3485.938748
969.2170127
1031.437803
1154.124715
1111.69056
1168.511247
1222.340753
-1608.418063
-1566.678768
-2117.233068
806.2261866
839.376488
1011.316079
950.8006391
1014.38237
1091.197897
559.878694
308.970432
337.3707311
2174.511705
1789.028022
2709.965335
2254.469848
-6242.931042
-5889.010337
-4012.867416
-5632.333014
-6081.165443
1507.710702
1591.107409
1554.059101
1593.038653
1510.698342
1755.758125
1607.149525
-5205.68847
-5875.284052
-4349.42439
-5746.040067
-5116.680169
-6073.944945
-5777.612668
-4381.39918
1331.273255
1397.443654
1360.397756
1403.36967
1332.463766
1504.709651
1409.79227
-3578.440982
-4279.285729
-3537.917464
-4176.679466
-3508.375982
-5068.346304
-4281.883144
-3673.683834
1226.162859
1273.573975
1227.442859
1276.588927
1230.085153
1328.197889
1278.950621
-2197.909288
-2776.811052
1096.150442
1164.715772
1102.513614
-1564.84887
1169.71451
1100.830508
1226.151661
1173.557909
-1605.264465
-1007.123808
-1490.221087
-1559.423889
1022.900309
1009.501842
937.7801669
-48.082606
1015.374841
919.2604235
1095.927062
1019.378752
-123.4385653
1461.15567
1705.829494
1882.536595
1936.686934
2215.320846
2565.783597
-7253.539849
-4557.175107
1585.294065
1605.784986
1759.168703
-3416.547996
-2005.190561
-1762.881307
-2212.154841
-2004.720179
-1950.593832
-2239.704
-178.4421673
-492.925281
-867.4092442
1792.157148
2146.606116
1890.874911
1866.238394
3587.547372
3007.304351
-3507.549292
-5490.128543
-3791.435893
-2287.109104
-2599.143091
-2443.498554
-2734.264573
-2172.743354
-3419.374757
-2817.250391
-2577.081444
-1166.830686
-309.3019128
-464.3560343
1197.293085
1965.468761
2682.328138
-3216.523538
-942.7409462
907.9197343
-7371.325462
-5234.396572
-7139.388074
-4353.143931
-6979.188195
-4908.004593
-6066.93187
-6091.152385
-4725.289006
-4780.807506
-3022.584311
-3347.384853
-3123.96227
-3326.82142
-2995.781366
-3739.530075
-3376.430029
-3213.13108
1193.584669
1166.579209
1142.660712
-1597.10722
-1862.494953
-1927.605124
1052.046461
1018.666848
984.785044
1059.741752
1029.258257
1056.557255
2180.595831
1898.971284
1972.146741
1910.574902
2205.063686
1731.678896
1880.370246
1918.029325
2594.678247
2952.44384
3432.006082
2267.036717
2852.328978
2512.925032
2887.157075
2252.973197
-6192.74593
-6176.625664
1553.340301
1597.222819
1547.607887
1677.479326
1646.449626
1721.888429
1600.121367
1639.035595
1657.138022
-5521.046027
-5562.503916
-5465.196101
-4882.393123
-5036.605029
-4620.883857
-4822.234975
-5424.267839
-5963.230798
-5191.569295
-5199.162851
-5078.437623
-5172.835608
-5940.322611
1366.861024
1361.734299
1461.245155
1454.222066
-3866.869356
-3778.762466
-3917.915985
1255.686287
1252.289913
1301.82585
1298.599032
-2946.049051
-2623.833334
-2524.856603
-2643.298538
-2967.508603
1125.366269
1097.945667
1069.403101
1134.210353
1107.36869
1131.17702
-1215.854114
1135.003399
1128.716499
1200.342456
1197.394031
-1935.186129
-1217.108543
-1247.700252
-1509.454098
972.2488776
933.5257602
924.3973732
942.6855208
472.8896361
176.4580254
1062.226185
-297.8160069
133.0184531
-212.9746565
1058.397525
-373.6662552
-246.296499
100.0290444
-5680.936784
-2150.609837
-2301.649439
624.4400466
585.5343047
805.7772031
697.9566452
717.9619671
960.0462024
211.8336493
-129.6528246
-315.2439834
4528.195851
-2335.313339
-2500.279358
-911.8534146
-1161.472539
-1169.52754
-144.7324205
-388.5209926
-106.7740284
1905.017581
2693.712689
3557.305295
-3955.160754
-1071.074405
1100.758314
-5986.923533
-6741.428022
-6638.920657
-6183.168961
-4502.10389
-4692.593764
-4496.656199
-5418.40134
-5252.793496
-5001.657148
1296.63218
1280.015619
1259.284779
1310.484811
1287.293828
1300.176856
1196.689077
1174.204986
1196.809378
1030.241136
1015.63838
997.9199407
863.9423257
629.8298642
367.7687505
-6236.239581
-6742.49872
-6781.75232
-5999.678048
-5001.3129
-4709.675394
-5182.875789
-5065.996856
-6010.157104
-5347.481314
-5624.344304
-5475.202001
-5753.414993
1356.821092
1344.88008
1318.686863
1337.76892
1348.321067
1344.191538
-4435.402872
-4257.717659
-4120.994974
-3878.565737
-3637.489251
-3889.45035
-4709.815479
-4310.443922
-4546.930458
-3974.33475
-4227.845343
-4656.588149
1249.085623
1225.33666
1204.031192
1252.57661
1232.285457
1252.439795
1268.933405
1281.632565
1285.66786
1241.599093
1258.03816
1241.007278
1316.535133
1320.672837
1333.75831
1286.639151
1291.613656
1286.494399
-2442.519345
-2579.717795
-2280.852243
-1410.208032
-1414.955247
1157.180438
1105.479486
1214.00869
1220.994891
1238.255506
1201.891691
1183.825867
-1738.660485
806.1145152
921.4323577
886.0006779
991.5973722
969.5534204
987.0651115
142.9997442
380.2400168
144.4690345
995.6502309
438.1263266
688.6512696
508.9897773
588.1787751
1076.781231
1036.32667
-6613.983408
-5486.816872
-6258.969496
-3552.549236
-3614.436075
-1968.152853
-2104.576562
-2116.803055
1802.113756
1781.1799
3460.175772
3920.16666
4229.058536
3734.614489
3363.170611
-2671.66314
-2505.956017
-2462.442474
-2508.792261
-2689.469952
-1177.071004
-1004.380546
-1017.244813
-1007.631886
-1179.280878
-790.893877
-959.8562193
-556.5383972
-581.4442882
-742.3279975
-373.6231991
-528.9509683
-457.6542111
-7418.850858
-6479.087299
-6027.144492
-6817.479593
-6587.938066
-5843.235287
-5139.803175
-6173.213038
-6438.488991
-6347.041108
-6005.441755
-6162.330971
-6597.721694
-6477.126028
-4938.257213
-4755.494067
-4558.570357
-4811.741743
-5005.331649
-4555.165109
-4753.358081
-5062.923806
-4947.395389
-5198.394729
-4999.024075
-3160.643487
-3220.503371
-3189.894757
-3108.226935
-3244.982393
-3589.321708
-3483.818935
-3630.162362
-3290.748432
-3435.502494
-3535.361111
-1802.462885
-1780.073738
-1919.289353
1037.039938
1021.384622
1032.457776
1068.225662
1056.855068
1042.562419
2037.629535
1999.831589
2012.836796
2048.128659
1944.851409
2223.248679
2087.508202
2053.799346
1788.155256
1817.243935
1761.499558
1915.012468
1838.908714
1809.675925
2484.056762
2449.270889
2277.674013
2575.755296
2479.956615
-6788.370847
-6746.473525
-6228.985032
-6905.0671
-6988.089812
-6872.710817
-6935.684893
-6884.982708
-7023.426172
-6940.072145
-6088.688937
-6718.44307
-6801.503122
1571.631235
1573.478491
1559.579308
1597.23564
1579.346095
1579.279239
1540.763306
1528.596487
1556.4069
1544.544688
1673.219361
1693.535926
1662.773
1746.110074
1705.352507
1682.765299
1618.257018
1623.33484
1603.179079
1653.852577
1630.621942
1626.014012
-5803.965876
-5671.73004
-5392.600764
-5703.56976
-5997.141529
-5840.159834
1385.307415
1371.100809
1408.308799
1389.296256
1349.259867
1339.767291
1365.586035
1352.235277
1495.623968
1473.167117
1523.5388
1503.06306
1435.429999
1413.900971
1465.656386
1443.149923
-3873.793731
-4032.247776
-3680.200404
-3826.290919
-3920.756334
-4306.477425
-4488.566383
-4083.873607
-4251.344454
1264.849664
1278.300542
1265.916085
1283.501068
1267.030241
1288.340962
1287.371663
1264.06644
1243.474748
1258.511922
1261.380101
1307.700758
1316.468005
1312.395951
1319.157203
1310.101027
1335.668115
1322.608102
1292.232272
1288.468538
1303.833296
1294.312894
1289.283364
1293.908453
1303.642839
-2697.650124
-2784.08879
-2848.309886
-2685.748272
-2898.044634
-2827.712535
-1189.492432
-1368.998416
-1397.065915
-1189.470457
1152.897247
1112.135272
1208.813215
1216.694411
1210.189138
1187.665251
1206.25008
1207.705328
-1820.205086
975.4124959
961.1124368
938.7786721
628.7212249
536.6352771
986.1711341
259.1741416
414.2886255
308.9036688
1070.153509
-450.0710416
-18.84715826
203.8140364
-63.66256121
1031.589021
-2437.461119
-1876.112937
-1249.385447
-2287.965992
-2340.624692
-1111.457774
-1175.077967
-1610.481688
-2349.249986
-969.3229733
-957.7393314
-796.4691846
-2094.383021
-1591.188194
-1550.837279
2300.087107
3395.381669
4333.995363
-4451.801454
-1198.750456
1375.607873
-1616.571732
-1242.05773
-3119.392794
-5560.948248
-6284.966699
-6534.61994
1446.308666
1428.369543
1394.877397
1475.028938
1439.921472
1459.081235
-1594.330534
-1733.025877
-1743.203157
-2193.269318
-1932.194083
-1877.231595
1076.793369
1062.325095
1074.019298
-6600.426907
-6698.306433
-6060.721478
1384.190493
1354.220203
1366.217371
1386.982896
1389.405269
1407.511567
1413.374788
1433.863231
1428.034204
1104.824801
1094.83418
1081.907816
-1577.72598
-1532.079735
-1521.341876
1105.36273
1111.345277
1104.828803
-1673.694312
-1685.24163
-1590.245251
-1413.754153
-1405.83789
-1547.095877
1010.422608
1091.116537
1097.34075
1100.884338
1021.127532
-7155.877545
-3452.617188
-1986.12599
-2053.143144
-2059.272678
-2283.88593
-2141.183491
-2107.164199
1838.609017
-4574.965488
-4054.656075
-4857.723049
-2418.697927
-2472.613842
-2326.768829
-791.780902
-806.2525328
-630.6512294
-636.1814511
-734.8838182
-1985.630677
-1437.379386
-3852.390225
-7289.380778
-6918.38848
-6769.15043
-7311.362615
-7293.067972
-3068.671884
-3099.933229
-3051.546817
-3363.900757
-3356.193817
-3329.144418
-2924.381615
-3060.033767
-3136.081671
-3703.088798
-3651.823132
-3701.792546
-1920.778284
-1898.431982
-1930.490954
2124.047736
2184.848102
1932.142474
1942.288874
1956.842223
1924.801566
1743.273478
1758.523753
1743.24145
1894.868206
1867.601752
1853.449441
2710.606754
2515.498978
2570.33805
2775.10475
2775.954523
2922.235155
2243.93675
2305.527412
2320.176471
1561.036196
1560.504248
1563.04501
1596.702283
1591.551994
1592.574619
1543.399934
1541.082885
1561.582526
1556.818078
1656.378614
1661.326027
1652.221185
1729.587289
1715.966027
1709.40513
1603.394363
1605.84703
1601.079497
1644.414328
1638.341473
1634.935656
1370.17542
1384.607524
1381.296376
1348.693227
1351.863929
1365.132853
1470.221924
1491.742891
1480.310867
1486.493024
1478.442989
1537.552802
1530.332891
1420.36986
1470.477946
1462.574993
1435.004499
1441.174091
1462.966348
-4041.904165
-4104.788381
-3751.325407
-3809.173703
-3834.391075
-4165.131701
-4186.22272
-4066.797085
-4202.957719
-4041.706951
1114.014765
1099.847205
1109.502346
1147.539512
1133.387804
1119.379199
1138.534571
1146.325333
1141.565469
1122.936174
1126.050854
1131.700577
-1934.373811
929.9733275
937.0935571
927.1374772
691.9394282
939.0630108
350.6005919
481.8881674
603.3666259
1067.906648
1068.327401
1064.643696
-361.5616493
-205.6655662
-183.2903104
-198.6094827
1052.592662
1058.913503
1064.864211
-98.03056885
-176.9796795
-321.9329189
-2185.876749
-2228.573122
-2326.241306
-2279.904854
-2258.414671
4551.103791
4869.12344
4361.685596
-2389.278527
-2414.285534
-2336.640071
-2518.569337
-2464.854874
-2452.753251
-2432.447804
-1636.333889
-4278.526545
-6238.291458
-6243.254804
-6171.281705
-6210.314749
-6705.15662
-6545.301097
-6573.989548
-6487.918119
-6517.51236
-6673.097718
-5367.252477
-5286.244218
-5339.175126
-5172.910663
-5232.154238
-5313.463089
-6790.967161
-6607.053288
-6586.555662
-6600.313485
-6613.549751
-6805.77082
-5572.006798
-5488.646311
-5536.952388
-5391.289167
-5440.343964
-5525.544844
-6106.068377
-6137.925661
-6006.969799
-6059.630984
1283.550643
1279.188695
1276.83833
1245.404668
1242.252797
1238.078563
1250.804209
1247.084751
1251.34691
-1535.275835
-1587.018748
-1404.9332
-1482.786535
1169.436456
1168.193085
1176.270495
1171.47223
1107.087677
1105.515256
1112.02396
1103.163949
1226.69882
1224.424248
1219.488997
1234.197124
1229.640027
1233.144034
1185.431506
1183.141593
1194.968591
1179.855962
1186.32578
-1745.662416
-1738.268627
-1727.637418
-1591.442547
929.18851
975.0400967
1106.153616
996.149405
988.6542516
979.6083994
1004.427709
381.5291056
365.9803719
1082.047725
961.0783153
731.4909837
1077.858953
1089.530586
1084.758104
1028.453116
-6913.166089
-7225.239541
-6922.488986
-6266.545272
-5964.369556
-5149.561422
-6732.235145
-6411.618428
-3496.862275
-3640.500946
-2114.193209
-2102.390737
-2110.856415
1819.922151
1755.676059
4078.950651
3909.906589
3776.146541
3222.606245
3079.182177
3605.55807
3394.10261
3517.426285
-2585.146381
-2521.625185
-2635.302229
-1023.381184
-1019.822192
-1008.980356
-1122.962453
-828.8601502
-808.5500813
-795.3349801
-949.8214598
-892.2341571
-890.6602331
-562.4069392
-617.442907
-614.5453484
-438.1067986
-444.0473842
-490.9793852
-7154.573319
-7041.142226
-7352.663544
-6744.664538
-7034.127576
-7090.851117
-7283.278729
-7257.705575
-6398.127568
-6289.632187
-6319.206416
-6253.524798
-6265.335402
-6363.472486
-6553.485688
-6418.73311
-6454.649787
-6351.375334
-6384.108529
-6514.393833
-4880.209299
-4806.500882
-4864.330541
-4873.842995
-4942.851701
-4609.020447
-4636.873934
-4600.216926
-4694.25528
-5126.759553
-5169.768361
-5128.704287
-5045.070964
-5109.987414
-4923.876073
-4985.025222
-5065.219969
-3198.18876
-3117.369153
-3105.894625
-3130.854522
-3065.599559
-3120.244849
-3282.004773
-3308.361789
-3248.812382
-3550.783413
-3595.499123
-3622.487956
2078.80021
1965.368363
1798.864778
1776.681741
1761.15788
1830.708613
1843.27895
1820.806346
2559.266538
2655.115654
2675.794046
2942.507716
2815.104359
2394.653135
2379.079154
2466.56575
-6769.892956
-6576.727406
-6580.684151
-6572.867571
-6573.065533
-6756.327498
-6935.533191
-6956.087386
-6940.078461
-7188.382418
-7146.199541
-7175.566253
-7202.799372
-6926.850692
-7023.310431
-7141.128376
-7151.70645
-6967.186491
1572.755344
1567.891261
1566.517013
1586.547033
1585.621446
1579.225314
1547.487726
1545.358962
1552.65894
1549.823488
1679.999158
1670.614622
1665.405395
1695.217686
1702.547937
1690.444024
1619.383406
1612.080799
1609.701316
1631.189084
1632.780643
1626.602493
-5764.878444
-5673.570557
-5714.705501
-5582.964126
-5628.583559
-5716.604352
-5942.47837
-5858.715099
-5940.238876
-5752.815224
-5797.84544
-5886.578966
1381.153068
1382.43597
1385.598882
1372.163747
1377.957337
1376.397369
1401.069739
1398.96356
1408.345344
1387.962129
1391.746681
1394.314813
1346.445214
1348.075707
1349.980787
1342.285621
1345.633477
1343.347714
1360.371833
1360.009312
1365.783159
1351.970986
1355.229494
1355.884944
1502.80144
1494.724785
1488.199269
1491.779263
1499.520479
1476.087793
1483.924855
1480.69944
1520.158503
1510.856171
1439.49968
1432.514063
1427.795088
1430.106598
1437.428108
1414.581244
1415.904623
1418.980042
1458.162743
1460.597677
1468.317696
1445.32834
1452.94632
1450.67374
1454.878392
1447.274671
-3958.631562
-3993.167556
-3896.815272
-3864.639508
-3897.107581
-4359.902985
-4391.902506
-4344.192311
-4527.379724
-4452.061453
-4419.758052
-4131.165467
-4165.463915
-4130.713107
-4293.614483
-4242.612515
-4191.599427
1268.746733
1265.712945
1261.844397
1273.723837
1269.847919
1273.578674
1277.071069
1271.074402
1288.450275
1288.385955
1262.525165
1253.725033
1249.797524
1250.458655
1251.205703
1258.094821
1255.009313
1259.454804
1308.011721
1311.448089
1321.592826
1312.38465
1331.230726
1332.927826
1337.843213
1324.79226
1328.641
1326.95784
1290.40257
1289.106396
1299.150337
1296.43663
-2795.043487
-2777.514004
-2836.024424
-2675.876442
-2724.38987
-2758.399391
-2964.563706
-3007.30266
-2880.600913
-2891.059547
-2902.418782
-1333.850228
-1337.432118
-1391.71593
-1203.786171
-1265.685594
-1274.175717
1150.882007
1141.135764
1165.936749
1160.234284
1116.45873
1120.502207
1117.196314
1122.84584
1118.994134
1133.574492
1127.997426
1210.813589
1209.146977
1206.72512
1215.385029
1212.01029
1213.423007
1207.548332
1201.596781
1198.69897
1204.790352
1203.247377
1207.608719
-1877.849642
968.521821
956.4702297
962.5062294
586.3054545
603.8566033
666.0455668
543.3835693
550.8524877
532.8389389
975.6881093
355.2941966
302.7876671
235.7699158
1066.611357
1067.818859
1069.700942
-428.3034376
72.53900447
13.63044283
186.0351783
173.5643156
186.5434638
-4.986923566
-138.5512918
-119.4253965
-17.51895673
1042.345213
1053.837819
1047.275275
724.3601073
698.0532636
679.1835853
686.6891104
644.307896
619.5031455
626.4521933
560.7315724
531.9686118
533.2913817
434.9305962
410.7755814
395.7954795
265.73862
255.5066688
218.7819965
75.66480887
75.63825772
25.45745756
-121.407348
-109.8637567
-169.4278644
-304.2592207
-282.6009341
-346.0524565
-455.8136153
-428.7517811
-487.9870866
-569.6317123
-543.9388138
756.1349687
739.4445647
706.8342124
731.7787966
698.7119951
656.0144368
683.1624541
618.5176921
573.3530444
589.9509934
480.7509088
444.1996987
435.3965019
278.0735198
268.8506169
220.0926153
40.80049345
69.8702338
-18.38606784
-185.16939
-131.4159818
-236.1139009
-373.4176888
-315.8663618
-414.2846099
-523.2781753
-469.2772759
-554.7568146
-632.7795815
-582.3592453
798.4889314
795.5994577
752.3034034
792.9202073
775.3399098
715.4324851
764.9143756
712.2289292
637.3864813
685.1157332
563.9172128
497.3659456
508.2536839
298.8438072
281.1711361
215.1973005
-39.98627442
25.59922786
-120.0693708
-326.5819433
-212.0983805
-383.033717
-519.7926902
-401.9444866
-557.1775506
-648.5422232
-547.6275657
-672.6456217
-730.1229062
-654.0010943
845.3488167
862.749517
811.6539799
868.6603963
883.6920543
799.0958392
886.0206802
873.9097766
744.9741926
859.7798241
755.7179601
597.6964421
690.8368069
373.0747106
311.0220344
233.3100085
-199.6541862
-69.97444902
-323.6313894
-592.4026178
-378.2768648
-652.6399745
-771.7808871
-572.2224095
-795.0675985
-839.4920184
-690.4706452
-848.6026984
-865.7533454
-760.3151875
889.7554832
932.2765703
880.3577542
949.6394663
1012.571556
914.8368456
1037.294008
1119.262373
928.4379951
1146.34954
1191.780303
835.3432234
1168.898926
663.7604355
419.011488
486.6815574
-609.3288088
-264.5887162
-807.2883785
-1081.113806
-687.8842836
-1109.078408
-1122.918299
-850.0747217
-1117.523337
-1086.08202
-896.6136002
-1073.173371
-1031.765891
-905.1399779
922.5317216
987.1065948
947.8813765
1014.665534
1121.34672
1043.964852
1166.882677
1346.650854
1185.021854
1426.137328
1856.287829
1348.181101
1633.45847
1723.226674
1246.396534
688.4327219
-636.6984981
-184.177192
-1442.350284
-1433.279328
-1160.394287
-1778.028822
-1549.424897
-1227.433562
-1490.136486
-1344.336714
-1152.515955
-1303.400134
-1195.52021
-1074.246761
934.6480861
1010.080372
996.1645745
1041.981839
1162.586494
1139.021653
1212.167562