/*--------------------------------*- C++ -*----------------------------------*\
| =========                 |                                                 |
| \\      /  F ield         | OpenFOAM: The Open Source CFD Toolbox           |
|  \\    /   O peration     | Version:  v1912                                 |
|   \\  /    A nd           | Website:  www.openfoam.com                      |
|    \\/     M anipulation  |                                                 |
\*---------------------------------------------------------------------------*/
FoamFile
{
    version     2.0;
    format      ascii;
    class       volVectorField;
    location    "0.75";
    object      U;
}
// * * * * * * * * * * * * * * * * * * * * * * * * * * * * * * * * * * * * * //

dimensions      [0 1 -1 0 0 0 0];


internalField   nonuniform List<vector> 
12556
(
(99.99945808 0.001365620678 -3.816820179e-21)
(99.99909248 0.005020064076 -2.378457578e-25)
(99.99823968 0.0118126989 -3.81650964e-21)
(99.996648 0.02417200157 -3.802979264e-21)
(99.99968733 0.02018159146 3.686144441e-21)
(99.9982197 0.03506064758 0)
(99.99717595 0.05908089747 0)
(99.99674908 0.09331879727 -6.680283779e-21)
(99.99559982 0.1405217355 7.909724745e-22)
(99.99455644 0.2016404454 -5.378994829e-21)
(99.99413526 0.2726757706 5.701352686e-22)
(99.99511236 0.3423154015 0)
(99.99732065 0.3936831976 0)
(100.0002397 0.4120063033 3.680402657e-22)
(100.0032933 0.392445529 -1.014153628e-21)
(100.0049927 0.3425832312 8.021820139e-22)
(100.0054477 0.2783979537 0)
(100.0053039 0.213818908 1.476853296e-21)
(100.0051489 0.1553876335 6.099145216e-21)
(100.0027793 0.1113604824 -1.754139324e-21)
(100.0117667 0.1297363588 -1.535148151e-20)
(100.0082838 0.08079387048 0)
(100.0062555 0.04358244245 -1.94370331e-21)
(100.00605 0.01388085663 -1.370473751e-20)
(99.99510205 0.00327467105 1.52673313e-20)
(99.99134357 0.01258565907 3.819638272e-21)
(99.98332345 0.03056110635 2.672631171e-20)
(99.96949532 0.06499302923 -1.144854695e-20)
(99.97003289 0.09429098925 3.71018547e-21)
(99.94767441 0.1663656412 -3.121984765e-23)
(99.9177282 0.2810068271 0)
(99.9002845 0.3900991697 -6.646114832e-21)
(99.86184204 0.5946201682 -6.265836111e-21)
(99.82399142 0.8648503689 -1.1246136e-20)
(99.7997284 1.188768025 -4.830152813e-21)
(99.8115328 1.520470043 -6.799091417e-21)
(99.87154644 1.775395502 -7.440402283e-21)
(99.95814959 1.87868031 -4.975130873e-22)
(100.0499941 1.806515181 -3.628637164e-22)
(100.1161755 1.586652502 4.116840563e-21)
(100.1414516 1.289616622 -8.56826257e-21)
(100.1333999 0.9930037523 0)
(100.149446 0.7652972724 -2.616992255e-20)
(100.109721 0.5310488621 5.076854858e-20)
(100.1106874 0.3727566432 1.486661409e-20)
(100.079549 0.2313195074 3.085552212e-20)
(100.0608876 0.1250457448 -3.094682037e-20)
(100.053723 0.03979792151 1.564925978e-20)
(99.98777317 0.002870740893 -1.523332943e-20)
(99.97727346 0.01296414613 -3.055633107e-20)
(99.95503055 0.03626912016 -6.872549078e-20)
(99.91832567 0.08178351973 9.150023802e-20)
(99.89430711 0.1422549546 -7.564216223e-21)
(99.82968922 0.263542646 -7.4248486e-21)
(99.73808213 0.4562699949 -1.291737217e-20)
(99.67950795 0.676658165 0)
(99.55658564 1.056353624 2.585688706e-20)
(99.43217567 1.573031148 -1.970921434e-19)
(99.35082423 2.237236053 1.286429512e-18)
(99.40865794 2.950705662 -9.870396833e-19)
(99.62954577 3.488073819 4.719494622e-19)
(99.97819381 3.71221286 1.618243004e-20)
(100.3065022 3.539514769 0)
(100.5199167 3.064841648 -9.297369788e-21)
(100.5895378 2.453192713 -9.28240287e-21)
(100.5454686 1.841713808 -2.280604498e-20)
(100.4989885 1.321392443 -1.56947022e-19)
(100.3756329 0.9026222413 -3.530983888e-20)
(100.3092201 0.5694296579 -1.533668638e-20)
(100.2242159 0.3518886248 3.490688012e-20)
(100.1722626 0.1899350122 -3.933735503e-21)
(100.1494245 0.0600893857 0)
(99.98268106 -0.001308042974 -7.660733549e-21)
(99.96266572 0.001398507943 5.367603998e-20)
(99.92041992 0.02104532054 -1.535199774e-20)
(99.85115654 0.06555113001 0)
(99.79281354 0.1478405563 0)
(99.66372924 0.3001986482 -5.968003337e-20)
(99.48107434 0.5497635435 -1.196366364e-19)
(99.32229016 0.8677020142 2.841059801e-20)
(99.04640502 1.406007966 1.640758998e-19)
(98.73532836 2.22830534 -7.695974941e-19)
(98.52669416 3.364368077 1.358535594e-18)
(98.61390677 4.677056861 -1.147810896e-18)
(99.25895976 5.663465288 -9.082757703e-19)
(100.1626719 5.928703109 -8.112676956e-21)
(100.8960186 5.467837369 7.848892193e-19)
(101.2811287 4.599374737 -5.563885678e-19)
(101.3603675 3.565998854 0)
(101.2335315 2.600893033 0)
(101.04988 1.773026915 5.789887056e-20)
(100.782305 1.181113393 -4.51817064e-20)
(100.5902053 0.6948537511 -3.942222836e-20)
(100.4288918 0.4231759777 2.002170254e-20)
(100.328322 0.2262341361 -4.024633064e-21)
(100.282156 0.07099738241 0)
(99.98864149 -0.01016598936 0)
(99.95758754 -0.0250242768 0)
(99.89275132 -0.02132501865 7.702236289e-21)
(99.78497252 0.0102177148 1.16777615e-20)
(99.68261669 0.09999423695 1.934270196e-20)
(99.47215891 0.2560014141 0)
(99.1742795 0.5182671249 0)
(98.87284181 0.9027507603 5.915896386e-20)
(98.34847502 1.597018517 6.336558379e-19)
(97.70722043 2.764046854 -2.005172065e-19)
(97.15407393 4.588198302 1.568677933e-18)
(97.35412448 6.877477979 -1.308151254e-18)
(98.82521519 8.705952915 7.170552368e-19)
(100.9036213 8.800359568 0)
(102.2316574 7.59470399 -2.076478067e-20)
(102.6909271 6.019162383 1.566757317e-18)
(102.5988781 4.511239448 4.744387521e-19)
(102.2108252 3.154322924 -6.892198954e-22)
(101.7782265 2.037237055 -9.774156777e-20)
(101.3061297 1.319920165 8.164290741e-21)
(100.921024 0.7146883578 0)
(100.6638331 0.4294208365 4.125593449e-21)
(100.5028744 0.2250238146 -3.097894108e-21)
(100.4277462 0.06973538323 -1.027932256e-21)
(100.0157285 -0.02400759612 0)
(99.9734214 -0.06696436203 0)
(99.88629007 -0.09225093044 -1.545672867e-20)
(99.73960185 -0.09021957292 3.13553629e-20)
(99.58173075 -0.009648549928 0)
(99.2879549 0.1186061179 0)
(98.85992386 0.3538884841 2.453260688e-20)
(98.38236242 0.7518894378 -1.194310268e-19)
(97.52576105 1.509038593 0)
(96.28912112 2.931232644 0)
(94.91547342 5.511137807 1.076447813e-19)
(94.63953165 9.57843373 0)
(97.94124403 13.48003479 -1.489403059e-19)
(102.8829728 12.82627758 0)
(104.9138325 9.677989187 1.677236972e-18)
(104.9853575 7.004177379 -1.718749333e-19)
(104.3546029 4.992785984 0)
(103.4960582 3.37742846 0)
(102.6212373 2.022249078 2.528218646e-20)
(101.888433 1.270320167 -1.702766714e-20)
(101.2637642 0.6110619185 0)
(100.8943268 0.3581603805 0)
(100.666166 0.1796873262 -1.047541761e-21)
(100.5592128 0.05450988027 -3.151128968e-21)
(100.0736801 -0.04252275665 3.766086971e-21)
(100.0212088 -0.123388789 -3.792095636e-21)
(99.91440315 -0.1899360757 7.728303053e-21)
(99.73320522 -0.2330513933 -2.831538753e-20)
(99.52065096 -0.1817217666 7.760801256e-23)
(99.1485459 -0.1126682248 2.407469274e-20)
(98.60154909 0.04894274526 -4.971519235e-20)
(97.93062859 0.3916570951 2.43603827e-19)
(96.71212523 1.043158336 -4.708333807e-19)
(94.69027983 2.368283934 5.398181205e-19)
(91.7551681 4.943840451 7.140359815e-19)
(88.21666131 10.81388803 0)
(93.77347341 22.43739482 0)
(108.4080368 18.73692348 -1.787042627e-19)
(109.5774973 11.00025489 0)
(108.1517578 6.991228317 7.914595104e-19)
(106.5184515 4.658409766 -1.287230031e-18)
(104.9417644 3.033049059 0)
(103.4823347 1.6508099 0)
(102.447677 0.9721321671 9.486933204e-21)
(101.5629016 0.380292461 2.777950922e-21)
(101.0793507 0.2010743034 -3.279895311e-21)
(100.7869615 0.08860831094 -3.730024468e-21)
(100.6488916 0.02510693838 8.955605181e-21)
(100.1709005 -0.06481959002 -3.766485773e-21)
(100.1105364 -0.191522451 3.793461943e-21)
(99.98900735 -0.3089939783 -4.806499627e-21)
(99.78216113 -0.4097324784 -3.222159286e-21)
(99.52109932 -0.4056684261 1.371642203e-20)
(99.08934226 -0.4217466337 8.135006744e-21)
(98.45253755 -0.3781078643 6.257186716e-20)
(97.63586567 -0.1730973033 0)
(96.13648851 0.1834990741 5.040210421e-19)
(93.54408383 0.8879063726 -7.561597655e-20)
(89.41750441 1.908266694 -4.379341185e-19)
(82.03409902 3.389298383 0)
(122.6595037 22.03746562 1.609929425e-18)
(116.042275 9.29465538 0)
(111.5961133 5.19691162 -3.778518502e-19)
(108.6244349 3.24245449 -5.346348492e-19)
(106.2793117 1.982354177 4.052392117e-19)
(104.1914088 0.888972562 -5.109695204e-21)
(102.8740587 0.440549972 2.150826116e-20)
(101.7529524 0.02851233068 -3.407778648e-21)
(101.1765767 -0.0314038082 2.78223692e-21)
(100.8336087 -0.04234032666 -5.407014051e-22)
(100.6693956 -0.01701661581 -8.442933476e-21)
(100.3136356 -0.08952206159 -1.813508306e-21)
(100.2485431 -0.2670735026 -1.362162669e-21)
(100.1189685 -0.4414028035 -4.663957899e-22)
(99.89819072 -0.6071980558 1.408702598e-21)
(99.60090085 -0.663287162 -2.549501263e-23)
(99.13577773 -0.7801758079 0)
(98.45295058 -0.8779161242 -3.187237206e-20)
(97.56966111 -0.8594316505 -1.038416937e-18)
(95.96309909 -0.8820039158 3.07234857e-20)
(93.31535897 -0.9311428904 -3.223419752e-19)
(89.66908817 -1.444669119 -8.808741402e-19)
(85.57796304 -3.37569401 -9.752388264e-19)
(135.4430405 7.414814514 0)
(120.6737211 3.075461776 4.02070909e-20)
(113.9354319 1.519937868 5.138240618e-19)
(109.9984066 0.7936616383 1.166756103e-18)
(107.124409 0.3407963935 5.52458072e-19)
(104.571632 -0.175927783 -5.26936595e-21)
(103.0660201 -0.2751234801 1.21885593e-20)
(101.783222 -0.410425958 1.180461892e-21)
(101.1521704 -0.3167689612 0)
(100.7793135 -0.2009459759 4.271664914e-21)
(100.5982231 -0.0682155404 4.215277976e-21)
(100.5051555 -0.1149566165 3.574193037e-21)
(100.4389018 -0.34486099 5.353334459e-23)
(100.3086614 -0.5775764957 0)
(100.0869454 -0.8108221568 1.845300424e-22)
(99.76810862 -0.9338791276 -1.880818805e-21)
(99.29825094 -1.15473752 1.992187595e-21)
(98.61628585 -1.395795912 -4.176916263e-20)
(97.73836278 -1.56832587 6.752938865e-22)
(96.18124881 -1.932284106 1.565111912e-20)
(93.77279406 -2.503648135 2.926822122e-19)
(90.88966727 -3.525550942 -7.941753161e-19)
(88.34114777 -5.063469966 -1.023425881e-19)
(133.2491863 -8.282004775 0)
(120.6166676 -4.39542323 -3.073776567e-18)
(114.1094049 -2.88293909 1.68372168e-19)
(110.133059 -2.083304306 5.957157793e-19)
(107.2072242 -1.578914869 -1.066011106e-19)
(104.5034562 -1.376598542 4.472071154e-20)
(102.9610367 -1.075046662 0)
(101.6224568 -0.8832863255 -1.157042089e-21)
(100.9864995 -0.6227271848 -4.745080715e-21)
(100.6084018 -0.370889028 5.292800518e-22)
(100.4222009 -0.1232280919 0)
(100.7454142 -0.1394918414 -1.760532164e-21)
(100.6814108 -0.4197316308 1.774723256e-21)
(100.5572933 -0.7079607299 1.731339798e-21)
(100.3482695 -1.006357005 -1.613285728e-21)
(100.0208769 -1.19672072 -1.854234204e-21)
(99.57267813 -1.513107697 0)
(98.93123666 -1.88413397 -1.955990863e-21)
(98.10744678 -2.225926832 4.588710383e-19)
(96.67963716 -2.852740696 -4.520941123e-19)
(94.55565626 -3.73229953 -4.543594387e-21)
(92.13058819 -4.883826255 -7.172992761e-19)
(90.01954975 -6.079383009 3.544022449e-19)
(124.9205559 -17.04831426 -1.632783398e-18)
(117.0844614 -9.977888408 1.360936186e-18)
(112.3346403 -6.61490843 -1.489949172e-18)
(109.0953171 -4.687896108 -5.244891779e-19)
(106.512468 -3.389443488 -1.971811212e-19)
(103.9766194 -2.506292827 0)
(102.5575707 -1.841161346 -2.90057403e-20)
(101.27 -1.331731615 -1.43555914e-20)
(100.6776425 -0.9146083259 1.081048575e-21)
(100.3186973 -0.5342937184 -3.406419705e-21)
(100.1391348 -0.1763373616 4.99596184e-22)
(101.0311135 -0.1616443042 6.478539889e-21)
(100.9724716 -0.4869474289 0)
(100.8597692 -0.8225954621 -1.727963578e-21)
(100.6728989 -1.185586463 0)
(100.3462264 -1.434283144 0)
(99.94506536 -1.828874644 -5.512783653e-21)
(99.37344418 -2.307222048 5.674857995e-20)
(98.63380753 -2.786366067 3.845357059e-19)
(97.37565741 -3.603869012 4.729238552e-19)
(95.51456318 -4.687859107 -2.672205421e-19)
(93.33763641 -5.956845727 -6.506409137e-19)
(91.28438481 -7.125918665 3.333739984e-19)
(115.9710489 -20.27385417 -1.639405963e-18)
(112.2017036 -12.86806501 4.852835424e-19)
(109.439429 -8.986339909 7.701621616e-19)
(107.213815 -6.544887307 0)
(105.2166123 -4.768072644 1.766028649e-19)
(103.0881654 -3.402651127 2.299849938e-21)
(101.9049505 -2.478287448 -3.499749804e-20)
(100.7558691 -1.712728321 8.5100931e-21)
(100.24214 -1.162517581 0)
(99.92111025 -0.6756692519 3.926323678e-21)
(99.75770663 -0.2225703316 0)
(101.3565236 -0.1809294594 6.470276352e-21)
(101.3052305 -0.5459213236 1.021919032e-19)
(101.2066781 -0.9218886311 -2.058037762e-19)
(101.0446589 -1.33570647 -4.643530916e-22)
(100.7498757 -1.629353055 -1.625423273e-21)
(100.3983852 -2.084290567 0)
(99.91519569 -2.643400002 0)
(99.27220678 -3.223177871 0)
(98.20920991 -4.169664637 4.087431381e-19)
(96.62386584 -5.406294355 2.891594161e-20)
(94.7026707 -6.886742165 7.073878524e-20)
(92.73777446 -8.300261221 -4.772328054e-19)
(104.0105283 -29.21574704 -5.998251333e-19)
(107.7249651 -18.86595612 3.550592373e-19)
(107.4429747 -13.38300214 1.664055438e-19)
(106.2797601 -9.913652968 -1.16172554e-18)
(105.0023092 -7.492154847 0)
(103.6243711 -5.578667341 4.444308837e-19)
(101.9960616 -3.980329325 -6.92436497e-20)
(101.0847723 -2.926058039 0)
(100.1316879 -1.996399454 0)
(99.70969731 -1.348234438 1.219300308e-20)
(99.43652625 -0.7850319074 2.253899472e-21)
(99.2953396 -0.2585810456 -7.285618442e-21)
(101.7136987 -0.1955221342 0)
(101.671075 -0.5911130607 0)
(101.5896833 -0.997213544 0)
(101.4549506 -1.442943778 0)
(101.1917753 -1.782621131 0)
(100.8933536 -2.285353402 0)
(100.4981722 -2.9011205 0)
(99.96750754 -3.539657266 3.661220197e-19)
(99.10955141 -4.554088958 -3.606366884e-19)
(97.83451948 -5.877901369 4.04551749e-19)
(96.33451814 -7.566397736 -7.460513085e-19)
(94.80773588 -9.836830219 3.475160284e-19)
(97.29122891 -18.97298724 -2.182228946e-20)
(102.7540044 -15.53265299 -1.11184742e-19)
(103.7273854 -12.25402564 1.372344991e-20)
(103.5116999 -9.71167235 0)
(102.8911781 -7.655339698 -5.388207234e-19)
(101.995016 -5.854807786 -1.780465021e-19)
(100.844195 -4.257069954 -9.460748295e-20)
(100.1864314 -3.179427601 -3.5740249e-20)
(99.44676263 -2.165127504 -1.980644896e-20)
(99.11373395 -1.469318259 1.942738273e-20)
(98.89114651 -0.8585689321 0)
(98.77452798 -0.2828300867 1.946251863e-20)
(102.0944154 -0.2053162812 0)
(102.06136 -0.6216613354 0)
(101.9994333 -1.04794231 0)
(101.8941533 -1.509251723 0)
(101.6636003 -1.877000122 0)
(101.4294501 -2.403854467 0)
(101.127452 -3.028232872 -5.692014183e-20)
(100.722536 -3.6811945 0)
(100.1048879 -4.657652689 3.167381001e-19)
(99.16311789 -5.926817445 -1.311177641e-18)
(98.18402635 -7.529967559 3.441923374e-19)
(97.41469224 -9.67485041 2.197367976e-19)
(98.76536455 -12.36580087 1.174393176e-19)
(100.7140304 -11.98818924 1.379112408e-19)
(101.386266 -10.47358059 2.012871105e-20)
(101.4225678 -8.84978073 -1.806283858e-19)
(101.1153774 -7.274578921 0)
(100.53711 -5.751236184 -2.459610849e-20)
(99.73570662 -4.288720067 0)
(99.29206371 -3.266793786 0)
(98.73963672 -2.232402345 -3.646171358e-20)
(98.48609443 -1.528164195 1.799037646e-20)
(98.31169965 -0.8963161915 7.562535277e-22)
(98.21886211 -0.2953595127 -1.337714354e-20)
(102.4896791 -0.2104292746 0)
(102.4658982 -0.637478807 0)
(102.4228974 -1.073933058 0)
(102.3461332 -1.538360721 0)
(102.147597 -1.921284287 0)
(101.9721141 -2.451005436 0)
(101.7529246 -3.058943601 0)
(101.4613747 -3.685498286 -1.462430162e-19)
(101.0396675 -4.555804204 5.473423157e-19)
(100.3702885 -5.638513331 0)
(99.68758892 -6.906925751 -1.272318911e-19)
(97.47551303 -8.110692698 0)
(99.57143288 -9.540358973 -4.520652058e-20)
(100.0031502 -9.492078186 0)
(100.1041712 -8.796508797 3.864773365e-19)
(99.99718537 -7.794281051 -1.351638446e-19)
(99.73672559 -6.623248372 2.192003194e-19)
(99.3172854 -5.404196208 0)
(98.74169623 -4.143379332 -2.989620043e-20)
(98.45470448 -3.226008594 4.609287173e-20)
(98.04340342 -2.218473145 1.126715459e-20)
(97.85563092 -1.534018692 1.927960059e-20)
(97.72245929 -0.9027328052 -2.188717043e-20)
(97.65001448 -0.2974829307 0)
(102.8908068 -0.2113539541 0)
(102.8752781 -0.6400507056 0)
(102.848711 -1.077532763 0)
(102.7969278 -1.535081964 0)
(102.627615 -1.921912467 0)
(102.5022333 -2.437808751 0)
(102.348603 -3.012038086 0)
(102.1355738 -3.595494518 -2.486016302e-20)
(101.8493309 -4.332633092 7.277103154e-19)
(101.3508208 -5.186394255 -4.44330308e-19)
(100.7613215 -6.106126807 -4.910636299e-20)
(98.90540911 -6.784362807 0)
(100.0881562 -7.671673225 -3.480876206e-19)
(99.79196374 -7.767001806 4.88138058e-21)
(99.4238594 -7.413411248 2.206515504e-19)
(99.07043586 -6.756931844 -1.891713718e-19)
(98.70686545 -5.887105771 0)
(98.33381822 -4.947122761 0)
(97.88812424 -3.896518654 0)
(97.69436817 -3.093592426 0)
(97.38209848 -2.144138724 3.86685609e-20)
(97.24424607 -1.49794874 -3.61588491e-20)
(97.14285925 -0.8835289537 -2.457132296e-21)
(97.08612369 -0.2916121897 2.465301979e-21)
(103.290022 -0.2087443982 0)
(103.2814457 -0.6315096673 0)
(103.268189 -1.062296043 0)
(103.2366979 -1.504770057 0)
(103.0928645 -1.885776685 0)
(103.0062968 -2.376566335 0)
(102.9005518 -2.907212018 0)
(102.7336072 -3.443380783 0)
(102.5147787 -4.057419522 1.365154477e-19)
(102.0985493 -4.713245504 0)
(101.5289537 -5.376715604 -2.525068697e-21)
(100.08168 -5.821252516 2.24226739e-19)
(100.2277044 -6.402863936 -1.343152209e-19)
(99.76995505 -6.511877456 8.287977306e-22)
(99.04076042 -6.295905621 -9.488309818e-20)
(98.43442741 -5.826591074 1.56695734e-23)
(97.94487433 -5.178259094 0)
(97.55574771 -4.456451745 0)
(97.16370897 -3.590863146 0)
(97.01580415 -2.897861997 0)
(96.76817152 -2.026751236 0)
(96.66509865 -1.429253046 0)
(96.58673289 -0.8460325616 0)
(96.54134726 -0.2804275553 0)
(103.6810052 -0.2032839953 0)
(103.6779869 -0.6140811933 0)
(103.674833 -1.03207919 0)
(103.6586124 -1.453694428 0)
(103.5351504 -1.821441129 0)
(103.4760272 -2.280594623 0)
(103.4006883 -2.763543586 0)
(103.2588171 -3.246520523 0)
(103.0533385 -3.768868356 0)
(102.6511493 -4.283220636 -2.525271568e-21)
(102.0681126 -4.768237056 -6.885180785e-20)
(100.4882605 -5.100363811 3.865597706e-21)
(100.2977711 -5.526694747 -3.919370959e-22)
(99.76167656 -5.551313939 -3.006242558e-21)
(98.7646178 -5.384944226 0)
(97.96783994 -5.032957221 0)
(97.37068715 -4.546030919 0)
(96.93662246 -3.979774458 0)
(96.55618281 -3.264187377 0)
(96.4212705 -2.671717517 0)
(96.20843112 -1.885557724 0)
(96.12634184 -1.340471356 0)
(96.06225084 -0.795733886 0)
(96.02530467 -0.2644595225 0)
(104.0589074 -0.1956683063 0)
(104.0600192 -0.5900037463 0)
(104.0638238 -0.9907634644 0)
(104.0579856 -1.38805688 0)
(103.9497041 -1.737558623 0)
(103.907702 -2.161998965 0)
(103.8482647 -2.597898036 0)
(103.7145651 -3.027178143 0)
(103.4995044 -3.470234779 0)
(103.0716491 -3.887036598 0)
(102.4395469 -4.25999124 0)
(99.94568666 -4.433122319 0)
(100.4921884 -4.803203957 0)
(99.70687908 -4.78944668 0)
(98.54273627 -4.648303847 0)
(97.61487161 -4.374544029 0)
(96.92508913 -3.994833921 0)
(96.43730355 -3.541573998 0)
(96.04458838 -2.94411252 0)
(95.90316191 -2.43722697 0)
(95.70423013 -1.734285492 0)
(95.63204303 -1.241397281 0)
(95.57525424 -0.7386999197 0)
(95.54325033 -0.2460298197 0)
(104.4202637 -0.1865725742 0)
(104.4241419 -0.5614236222 0)
(104.4320022 -0.9419912118 0)
(104.4321484 -1.313410821 0)
(104.3343232 -1.641715776 0)
(104.3007781 -2.030885643 0)
(104.2458392 -2.423889681 0)
(104.1084595 -2.80150118 0)
(103.8704917 -3.177906351 0)
(103.4066733 -3.519046805 0)
(102.7247168 -3.814591497 0)
(99.39150892 -3.876157058 0)
(100.6020773 -4.203084309 -6.328807761e-35)
(99.64244451 -4.175175621 0)
(98.36164921 -4.048686357 0)
(97.33576528 -3.825186509 0)
(96.56912744 -3.518773923 0)
(96.02908335 -3.148182122 0)
(95.61042281 -2.644279627 0)
(95.451801 -2.208075769 0)
(95.25287876 -1.582425814 0)
(95.18243156 -1.139237642 0)
(95.12775937 -0.6792606487 0)
(95.09816669 -0.2266996106 0)
(104.762844 -0.1765990212 0)
(104.7682852 -0.5302492964 0)
(104.7777 -0.8889488411 0)
(104.7800824 -1.234337408 0)
(104.68884 -1.540095953 0)
(104.6568556 -1.895354972 0)
(104.5974474 -2.249611932 0)
(104.4491867 -2.58048854 0)
(104.1809925 -2.901812777 0)
(103.6782441 -3.184493704 0)
(102.9484782 -3.423857228 0)
(98.95527585 -3.415494197 0)
(100.654093 -3.707907288 0)
(99.57300027 -3.668839447 0)
(98.20694564 -3.552793001 0)
(97.10659235 -3.363544851 0)
(96.27703918 -3.108942974 0)
(95.6892082 -2.799556925 0)
(95.2394754 -2.370083424 0)
(95.05764585 -1.992223671 0)
(94.84989335 -1.436290058 0)
(94.7756525 -1.038963874 0)
(94.71950585 -0.6204621686 0)
(94.69044609 -0.2074956584 0)
(105.0855131 -0.1662465598 0)
(105.0915136 -0.4980635618 0)
(105.1004662 -0.8342999335 0)
(105.102031 -1.154382479 0)
(105.0144007 -1.43749894 0)
(104.9787524 -1.761215824 0)
(104.908666 -2.080566379 0)
(104.7448896 -2.370752212 0)
(104.4431965 -2.646948005 0)
(103.9024801 -2.884470868 0)
(103.1238211 -3.081686908 0)
(98.6251373 -3.030213312 0)
(100.671809 -3.294327084 -8.27552573e-35)
(99.50088657 -3.245959014 0)
(98.07068766 -3.137860858 0)
(96.91267472 -2.9732131 0)
(96.03170125 -2.756471775 0)
(95.40147068 -2.493351305 0)
(94.91971038 -2.123493838 0)
(94.71203947 -1.793844422 0)
(94.4902712 -1.299732153 0)
(94.40873761 -0.9437824886 0)
(94.34878464 -0.5643226638 0)
(94.31894274 -0.1890917959 0)
(105.3880426 -0.1559098011 0)
(105.3937939 -0.4661005677 0)
(105.4007526 -0.7801311619 0)
(105.3991592 -1.076235428 0)
(105.3127526 -1.33742985 0)
(105.2697624 -1.632416901 0)
(105.1848579 -1.920414751 0)
(105.0028672 -2.176011318 0)
(104.6669374 -2.415338744 0)
(104.0912088 -2.617885263 0)
(103.2602598 -2.78239952 0)
(98.38615435 -2.706075747 0)
(100.6676494 -2.945095731 0)
(99.42761042 -2.889514367 0)
(97.9480905 -2.787777778 0)
(96.74464235 -2.641585169 0)
(95.82148722 -2.453384192 0)
(95.15419037 -2.22600021 0)
(94.64148935 -1.904336497 0)
(94.4074767 -1.614650777 0)
(94.16901528 -1.17480418 0)
(94.07816095 -0.8556028943 0)
(94.01300097 -0.5120873845 0)
(93.9815037 -0.1719069651 0)
(105.6708781 -0.1458907771 0)
(105.6757459 -0.4352805832 0)
(105.6795994 -0.7279867929 0)
(105.673156 -1.001842992 0)
(105.5861345 -1.24235812 0)
(105.5333064 -1.511550257 0)
(105.4310388 -1.771315785 0)
(105.2292886 -1.998175361 0)
(104.8600055 -2.207348356 0)
(104.2528041 -2.382634175 0)
(103.3653307 -2.521153193 0)
(98.2235728 -2.431895326 0)
(100.6487495 -2.648141746 2.804037236e-35)
(99.35415481 -2.587270889 0)
(97.83607966 -2.490831359 0)
(96.59630314 -2.358968382 0)
(95.63834193 -2.192871795 0)
(94.93887774 -1.993630315 0)
(94.39723256 -1.711299611 0)
(94.13760441 -1.454870519 0)
(93.88137491 -1.062348948 0)
(93.78019768 -0.7754166712 0)
(93.70909939 -0.4644403031 0)
(93.67540441 -0.156177152 0)
(105.9349427 -0.1364132207 0)
(105.9384431 -0.4062658991 0)
(105.9384167 -0.6789597066 0)
(105.9259615 -0.9325417583 0)
(105.8369564 -1.153908599 0)
(105.7726778 -1.400117432 0)
(105.6518749 -1.635100471 0)
(105.4294192 -1.837754322 0)
(105.0286222 -2.02236638 0)
(104.3931866 -2.176208277 0)
(103.4452804 -2.293778348 0)
(98.12484527 -2.199376268 0)
(100.6196488 -2.39469293 0)
(99.28111741 -2.330134878 0)
(97.73253057 -2.238203046 0)
(96.46336007 -2.117761276 0)
(95.4764888 -1.969168549 0)
(94.74917971 -1.792454727 0)
(94.18092713 -1.542518493 0)
(93.89705518 -1.313866701 0)
(93.62297845 -0.9624399406 0)
(93.5111599 -0.7035864473 0)
(93.43385132 -0.4216708507 0)
(93.39765479 -0.1420096546 0)
(106.1815062 -0.1276351903 0)
(106.1832804 -0.3795117907 0)
(106.1788604 -0.6337880439 0)
(106.1596394 -0.8691996767 0)
(106.0676025 -1.073106108 0)
(105.9908828 -1.299029179 0)
(105.8509979 -1.512605578 0)
(105.6077556 -1.69471221 0)
(105.1777306 -1.859340913 0)
(104.5166635 -1.99615556 0)
(103.5052013 -2.096720301 0)
(98.07986056 -2.002587782 0)
(100.5833012 -2.17816258 0)
(99.20883226 -2.111179507 0)
(97.63590997 -2.023139986 0)
(96.34273106 -1.91197911 0)
(95.33169063 -1.777483148 0)
(94.58027146 -1.619028921 0)
(93.98779672 -1.395974325 0)
(93.68133807 -1.190578628 0)
(93.3898676 -0.8746959853 0)
(93.26751792 -0.6400686787 0)
(93.18401989 -0.3838054701 0)
(93.14518063 -0.1294248769 0)
(106.4120901 -0.1196617253 0)
(106.4118795 -0.3553113498 0)
(106.4027482 -0.5929368125 0)
(106.3763096 -0.8123249378 0)
(106.2804512 -1.000512399 0)
(106.1907407 -1.208718392 0)
(106.0316162 -1.403870671 0)
(105.7680885 -1.568604019 0)
(105.3112654 -1.717000414 0)
(104.6265295 -1.840186971 0)
(103.5491357 -1.926874595 0)
(98.08019182 -1.836776777 0)
(100.5416829 -1.993304642 0)
(99.13748931 -1.924958859 0)
(97.54504901 -1.840327277 0)
(96.23209728 -1.736813923 0)
(95.20071383 -1.613806772 0)
(94.42836622 -1.470281489 0)
(93.81392644 -1.269643907 0)
(93.48660598 -1.083730776 0)
(93.17847239 -0.7984806243 0)
(93.04595035 -0.5845730139 0)
(92.95645373 -0.3507076192 0)
(92.91493454 -0.1183884277 0)
(106.6283331 -0.1125587645 0)
(106.6259571 -0.3338392305 0)
(106.6119406 -0.5566743929 0)
(106.5780511 -0.7621864811 0)
(106.4777698 -0.9363874006 0)
(106.3748278 -1.12929575 0)
(106.1965139 -1.308376773 0)
(105.9135469 -1.458846587 0)
(105.4323143 -1.594029777 0)
(104.7253449 -1.706233552 0)
(103.5802777 -1.781552691 0)
(98.11757312 -1.698000042 0)
(100.4963796 -1.836055864 0)
(99.06720673 -1.767214739 0)
(97.45903791 -1.685577625 0)
(96.12967246 -1.588414021 0)
(95.08104175 -1.474831691 0)
(94.29045054 -1.343561433 0)
(93.65609176 -1.161650713 0)
(93.3095752 -0.9920221762 0)
(92.98561308 -0.7330646391 0)
(92.84340179 -0.536685403 0)
(92.74818347 -0.3221553167 0)
(92.70401049 -0.1088365641 0)
(106.8320342 -0.1063618503 0)
(106.8273615 -0.3151816689 0)
(106.8083787 -0.5251257986 0)
(106.7669583 -0.7188676992 0)
(106.661712 -0.8807835722 0)
(106.5455096 -1.060596874 0)
(106.348379 -1.225754439 0)
(106.0467346 -1.364640382 0)
(105.5433237 -1.489111305 0)
(104.8151197 -1.592405453 0)
(103.6011375 -1.658300636 0)
(98.1844246 -1.583217572 0)
(100.4485312 -1.703340626 0)
(98.99801994 -1.634559861 0)
(97.37711774 -1.55553821 0)
(96.03401349 -1.463654098 0)
(94.97063467 -1.35781416 0)
(94.1640313 -1.236583399 0)
(93.51158256 -1.07031169 0)
(93.14739613 -0.914221063 0)
(92.80837999 -0.6776915465 0)
(92.65700949 -0.4959410436 0)
(92.55637214 -0.2978861184 0)
(92.50959912 -0.1006900367 0)
(107.024739 -0.1010945633 0)
(107.0176931 -0.2993815634 0)
(106.9937293 -0.4983244756 0)
(106.9448055 -0.6824318214 0)
(106.8342748 -0.8336135097 0)
(106.7049233 -1.002331231 0)
(106.4895553 -1.155775111 0)
(106.1698753 -1.28518428 0)
(105.6462593 -1.401017648 0)
(104.897433 -1.497079956 0)
(103.613613 -1.555104875 0)
(98.27464965 -1.489480473 0)
(100.3988074 -1.59270036 -4.500325065e-36)
(98.92989897 -1.524292564 0)
(97.29863666 -1.447527982 0)
(95.94392645 -1.360012832 0)
(94.86781183 -1.260517976 0)
(94.04696709 -1.147542513 0)
(93.37807901 -0.9942344812 0)
(92.9975619 -0.8491996648 0)
(92.6443355 -0.6317030469 0)
(92.48432491 -0.4618773037 0)
(92.37856935 -0.2776432078 0)
(92.32927638 -0.09387264593 0)
(107.2090561 -0.0967479488 0)
(107.1995169 -0.2864180271 0)
(107.1705292 -0.4762360371 0)
(107.1141296 -0.6526374102 0)
(106.997393 -0.7947501384 0)
(106.855004 -0.9541707489 0)
(106.6222944 -1.098716047 0)
(106.2849128 -1.219573375 0)
(105.7427565 -1.328669899 0)
(104.9735896 -1.418927966 0)
(103.6192045 -1.47037923 0)
(98.3825659 -1.414150297 0)
(100.3478366 -1.502106499 0)
(98.86277706 -1.434283404 0)
(97.22302049 -1.359420771 0)
(95.85840061 -1.275466934 0)
(94.77119348 -1.181116716 0)
(93.93771567 -1.075097937 0)
(93.25337712 -0.9323631473 0)
(92.85784256 -0.796030353 0)
(92.49058129 -0.5943293012 0)
(92.32240971 -0.4340652273 0)
(92.21176614 -0.2611598892 0)
(92.15997275 -0.08829496403 0)
(107.3836324 -0.09338404248 0)
(107.3716911 -0.2763930995 0)
(107.3377587 -0.4588836328 0)
(107.2740741 -0.6300792204 0)
(107.152849 -0.7639301264 0)
(106.9975387 -0.9159296728 0)
(106.7477745 -1.054071688 0)
(106.3937517 -1.167294093 0)
(105.8342339 -1.271177974 0)
(105.0446987 -1.356840984 0)
(103.6191362 -1.402771881 0)
(98.50316293 -1.355607584 0)
(100.2961507 -1.430074178 0)
(98.79652643 -1.362871189 0)
(97.14972079 -1.289533617 0)
(95.77652028 -1.208388002 0)
(94.6795318 -1.118063544 0)
(93.83482477 -1.017307184 0)
(93.13566541 -0.8833459639 0)
(92.72610525 -0.7535887023 0)
(92.34707261 -0.5655987753 0)
(92.1712321 -0.4121468244 0)
(92.05597161 -0.2483115786 0)
(92.00186103 -0.08394330966 0)
(107.5618899 -0.09082174481 0)
(107.5469904 -0.2690133768 0)
(107.5077584 -0.4460840312 0)
(107.4355379 -0.6117854004 0)
(107.3031924 -0.7412500617 0)
(107.1341245 -0.8877493681 0)
(106.8676192 -1.021003291 0)
(106.4977727 -1.127864496 0)
(105.9218683 -1.227828892 0)
(105.1117083 -1.309956704 0)
(103.6144185 -1.351361739 0)
(98.63252226 -1.312792362 0)
(100.244037 -1.375461133 0)
(98.73096546 -1.308785951 0)
(97.07821049 -1.236573845 0)
(95.69744338 -1.157521874 0)
(94.59163999 -1.070202013 0)
(93.73638731 -0.9732250003 0)
(93.02364674 -0.8461645688 0)
(92.60069564 -0.7221169082 0)
(92.2044232 -0.5426338926 0)
(92.02028462 -0.3956986691 0)
(91.90026283 -0.2386636682 0)
(91.84340077 -0.08059689561 0)
(107.7005592 -0.08966005868 0)
(107.6839468 -0.2652359335 0)
(107.6407168 -0.4390227265 0)
(107.5640118 -0.6053310096 0)
(107.4467062 -0.7259302198 0)
(107.265935 -0.868958314 0)
(106.9830892 -0.9991789962 0)
(106.5982466 -1.100818409 0)
(106.006689 -1.198004157 0)
(105.1755406 -1.277563369 0)
(103.6061018 -1.315517865 0)
(98.76710903 -1.285188963 0)
(100.191658 -1.337411483 0)
(98.66585681 -1.271070313 0)
(97.00796082 -1.199561611 0)
(95.62038311 -1.12192165 0)
(94.50649136 -1.036688147 0)
(93.64136012 -0.9423309113 0)
(92.9159101 -0.8203844203 0)
(92.4804214 -0.7005520258 0)
(92.09076171 -0.531645576 0)
(91.90163319 -0.3856635896 0)
(91.77804845 -0.2330871611 0)
(91.71966327 -0.07881043721 0)
(107.970197 -0.08823557996 0)
(107.9494657 -0.2621976092 0)
(107.8981427 -0.4337545477 0)
(107.8050971 -0.5934752854 0)
(107.5815502 -0.7194051415 0)
(107.3879613 -0.8600759169 0)
(107.0905996 -0.9885873919 0)
(106.6961906 -1.085950638 0)
(106.0894604 -1.181138578 0)
(105.2370325 -1.258904576 0)
(103.5954712 -1.294688087 0)
(98.90346189 -1.272496062 0)
(100.1390713 -1.315360694 0)