/*--------------------------------*- C++ -*----------------------------------*\
| =========                 |                                                 |
| \\      /  F ield         | OpenFOAM: The Open Source CFD Toolbox           |
|  \\    /   O peration     | Version:  v1912                                 |
|   \\  /    A nd           | Website:  www.openfoam.com                      |
|    \\/     M anipulation  |                                                 |
\*---------------------------------------------------------------------------*/
FoamFile
{
    version     2.0;
    format      ascii;
    class       surfaceScalarField;
    location    "0.4";
    object      phi;
}
// * * * * * * * * * * * * * * * * * * * * * * * * * * * * * * * * * * * * * //

dimensions      [0 3 -1 0 0 0 0];
oriented        oriented;


internalField   nonuniform List<scalar> 
25162
(
0.0004352050523
0.9162147949
0.0005363414275
0.9165988636
0.000623316301
0.9165630251
0.0003001593497
0.9165994862
0.0003736707523
0.4583401103
0.0003100490677
0.4583112519
0.000376476803
-0.000387728654
-0.0004751835749
0.4582895352
0.000535648351
-0.0005926065063
0.4582401939
0.0006874125567
-0.0007899264303
0.4582198441
0.0009000823224
-0.001026365404
0.458200109
0.001161256423
-0.001295786752
0.4582024334
0.001428353311
-0.001556789146
0.4582315197
0.001656769399
-0.001733100323
0.4582907065
0.001775893792
-0.001779542499
0.4583679034
0.00174663911
-0.001682855118
0.4584246929
0.001588162232
-0.001480377336
0.4584537963
0.001361581017
-0.001228303398
0.4584566682
0.001106635185
-0.0009852045766
0.4584622377
0.000837966828
-0.0007888158088
0.4584366846
0.0007021311592
-0.00057868318
0.4584524896
0.000476193541
-0.001804304921
0.9185830267
0.0002960998738
-0.0004248216358
-0.001122450927
0.918668146
-2.127545782e-05
0.9157488245
0.9137787245
0.001197596819
0.9150171981
0.001891320729
0.9159051397
0.002134015655
0.9163203302
0.0005940035218
0.9171418772
0.0009976211433
0.458089304
0.0007063931654
-0.4582016936
-0.4581934335
-0.0008598072741
0.4580011448
0.001052096042
-0.4580563936
-0.001289977851
0.4577701174
0.0007413179636
0.0008349360138
-0.2289718775
-0.0008984848582
0.2288962753
0.0009740870343
-0.001299993769
-0.2289163296
0.2288170894
0.001399233961
-0.001807109835
-0.2288716174
0.2287422812
0.001936446074
-0.002398189172
-0.2288697493
0.2287271516
0.002540786881
-0.00296989982
-0.2289285168
0.2287976388
0.003100836178
-0.00339639844
-0.2290596518
0.228984719
0.003471233924
-0.003496242382
-0.2292132121
0.2292129538
0.003496500642
-0.003290597748
-0.2293140238
0.2293996656
0.003204955978
-0.002850347263
-0.2293717376
0.2295071482
0.002714936601
-0.002308828389
-0.2293767439
0.2295242094
0.002161362843
-0.001784214391
-0.2293486073
0.2294806425
0.001652179244
-0.4587993848
-0.002460077528
0.4601343258
0.00112513655
0.0001001431402
0.4608212478
-0.001717995092
-0.4592033959
-0.001964527219
0.9179019026
0.0007467981389
0.001898853159
-0.001190903829
0.9178945226
0.0002634596637
0.914294461
0.9140421842
0.001522087016
0.9134951111
0.004063883885
0.9133633429
0.006850408603
0.9135338055
0.002781463614
0.9149728256
0.006237996591
-0.4580672049
0.4579083372
0.002940331374
-0.4578408658
-0.002901032181
0.4585183697
0.002223528293
-0.4573801758
-0.002270169332
0.4571936198
0.001189269376
0.001267455963
-0.2285296074
-0.001472159549
0.2283703488
0.001631418095
-0.228315996
-0.002204825695
0.2280926379
0.002428183806
-0.2281238261
-0.003205060201
0.2277845295
0.003549737034
-0.2279279001
-0.004689926847
0.2275758629
0.005065895705
-0.2281349156
-0.006108424327
0.2278617931
0.006399271108
-0.2287307592
-0.007055990976
0.2286065577
0.007177662962
-0.2294507134
-0.007232013502
0.2295266779
0.007135165852
-0.2299593654
-0.006578586199
0.2302044833
0.006311783154
-0.2301219992
-0.005364899048
0.2304141669
0.005071664071
-0.2301518858
-0.004230199736
0.2304330472
0.003949038314
-0.002880293891
-0.2300840504
0.2307045707
0.002259773561
-0.462629293
0.0009547755659
0.4612951988
0.0003793186244
-0.4598233735
-0.0006585092846
0.4596968178
0.0007850649532
-0.0003173572323
0.9193906013
-0.0007373966946
-0.0004339447664
0.001342331449
0.9162348339
0.0006285781378
0.9150082144
0.9146707623
0.000534457208
0.9129606539
0.00115566749
0.9127421326
0.00235723081
0.9123322422
0.003140145714
0.9120740845
0.002115826184
-0.4571729078
0.4567665546
0.003546498955
-0.4600977982
-0.004722102019
0.4570927232
0.007727177065
-0.4587229802
-0.008931159733
0.4603474005
0.001973110371
0.005333629013
-0.2277856271
-0.001916349927
0.2276066406
0.002095336405
-0.227258668
-0.002909125105
0.2269222488
0.003258736402
-0.2266377134
-0.00447900588
0.2262377514
0.004937963333
-0.2263849612
-0.006426616523
0.2259166982
0.006957893584
-0.226803112
-0.008558979836
0.2263421234
0.009055636347
-0.2280630432
-0.01024903281
0.2278109577
0.01049676656
-0.2297317076
-0.01068053115
0.2298171887
0.01055201214
-0.2310314874
-0.00971881553
0.23135358
0.009331659513
-0.231574535
-0.007981370156
0.2320228506
0.007481545208
-0.2338128954
-0.001236119341
0.2376924988
-0.002645694184
-0.00283814584
-0.2313840369
0.2313259774
0.002896205398
-0.4610904317
-0.004400894767
0.4620813473
0.003409979217
-0.4602855335
-0.002381814944
0.4611248288
0.001542519655
0.00243525315
0.9190213094
-0.001115219936
-0.0009507413256
0.001773995705
0.9168960914
0.0008238527557
0.9159583573
0.9154946151
0.0001687164782
0.9127919374
0.0003809320619
0.912529917
0.000733132736
0.9119800415
0.001285797475
0.9110431666
0.0004782531595
-0.4565173016
0.4557510854
0.002052013644
-0.4557119416
-0.00244105767
0.4551286195
0.003024379727
-0.4543287554
-0.003828177107
0.453632035
0.002402586722
0.002122310707
-0.2283244059
-0.004190512943
0.2264953207
0.006020416459
-0.2267373493
-0.009059442738
0.2286429406
0.00722533966
-0.2249894167
-0.004903330407
0.2246104219
0.005387303691
-0.2241677343
-0.007446304682
0.2234260378
0.008273150434
-0.2243986451
-0.01104555785
0.2234816314
0.01200247225
-0.2267359383
-0.01441824986
0.2262275612
0.01492232274
-0.230263542
-0.01513154823
0.2307048635
0.01464058766
-0.2326844763
-0.01161989864
0.2334801377
0.01073171718
-0.2410329402
-0.0007970157718
0.2375990539
0.004131448438
-0.2330739876
-0.006385816636
0.2334878012
0.005915631173
-0.004438260943
-0.2324797835
0.2329344862
0.003983558319
-0.463502612
-0.005203321831
0.4648450355
0.003860898332
-0.4619000329
-0.002929791649
0.4626925748
0.002137249705
0.003234111889
0.9205595977
-0.002758983768
-0.002013416367
0.001781420229
0.9183487831
0.0008127666364
0.9169270109
0.9163073817
-8.077828715e-05
0.9128727157
-7.222770371e-05
0.9125213664
0.000161519887
0.9117462939
0.0002924412218
0.9106026453
0.0003095999438
-0.4548904356
0.4545987787
0.0005840981907
-0.4546629412
-0.001521000257
0.4539356548
0.002248286593
-0.4528854905
-0.002745118469
0.4519379783
0.001814946253
0.001877684449
-0.2255377261
-0.002216129181
0.2254087248
0.002382275041
-0.2244407662
-0.003181003025
0.2241792516
0.003558268749
-0.224721878
-0.007140566339
0.2225852414
0.009405287205
-0.2221327132
-0.01349029216
0.2228651103
0.01283381126
-0.2198796867
-0.01643618239
0.2195341469
0.01680054751
-0.2239338111
-0.02195426243
0.2229207344
0.0229663895
-0.234400949
-0.01998430679
0.2348865403
0.01947015487
-0.2428227244
-0.009521972039
0.2405790263
0.01167369229
-0.2359586377
-0.01103026868
0.236917004
0.009944140362
-0.2351249475
-0.00719516992
0.2358299231
0.006385780517
-0.003996618374
-0.2346564214
0.2350690386
0.003569659221
-0.4659953252
-0.005534950551
0.4671664292
0.004363846521
-0.4630970645
-0.00351875362
0.4634607993
0.003155018769
0.002733836837
0.9225303926
-0.002279192936
-0.002425438839
0.001505374946
0.9195772449
0.000621619713
0.9178107661
0.9169290015
-0.0004566788959
0.9133293946
-0.0007894473717
0.9128541349
-0.0009811297835
0.9119379763
4.028969114e-05
0.9102503118
-0.0006690859745
-0.4544771362
0.4541821233
0.0003353026329
-0.4529190579
-0.0005577735
0.4525730768
0.0009037546489
-0.4516195308
-0.001840220703
0.4512632467
0.001045607796
0.001151258466
-0.2250248819
-0.001257809477
0.2249713186
0.001380537301
-0.2238401706
-0.001997906309
0.223506762
0.002476298946
-0.220270929
-0.003592387662
0.2198523273
0.004137788287
-0.216001084
-0.007507774725
0.2137532405
0.009799198518
-0.2140416927
-0.02273746279
0.1090521674
0.1035326296
0.01009587104
0.01409848752
-0.01779118271
-0.1088052619
0.1081861226
0.01841032197
-0.01471490659
-0.2441290089
0.02841127653
-0.01501308432
0.1222474433
0.12319828
-0.02119815681
-0.243138198
0.2459605542
0.01831425069
-0.2409046609
-0.01117856328
0.2423052439
0.009642498664
-0.2378356455
-0.00683849088
0.2384815785
0.006060986827
-0.004221379184
-0.2361052818
0.2365302068
0.003745635689
-0.46834693
-0.004869757219
0.4690104828
0.004206204412
-0.4642881334
-0.003170402329
0.4651251435
0.002333392194
0.001642635671
0.9239656611
-0.001455823988
-0.001622080214
0.0007752806123
0.9204446
0.0002897971743
0.9182962496
0.9172187986
-0.0008445181309
0.9141739128
-0.001638264029
0.9136478808
-0.002241077727
0.91254079
-0.001130597628
0.9107946325
-0.001654800811
-0.4541471302
0.4541445415
-0.001128008965
-0.4524210428
0.001175323917
0.4523241488
-0.001078429907
-0.4500236463
0.0009220671499
0.4498021692
-0.0002892700514
-0.0004041413777
-0.2249305261
-0.0002284991298
0.224951458
0.0002936678332
-0.2233303654
-0.0003587645107
0.223599275
0.0002409689578
-0.2190264645
-0.0004829512693
0.2189036924
0.000726035775
-0.2108712958
-0.00167680484
0.2105895558
0.001972850632
-0.09888063673
-0.001583639408
0.09909942035
0.001364855789
-0.02320869662
-0.1324811308
0.1349170807
0.02077274671
-0.02115683477
-0.255753868
0.2590881574
0.01778975053
-0.2465824435
-0.010941187
0.2480101779
0.009383103938
-0.2407714849
-0.00605000978
0.2414539963
0.005220011252
-0.003149451702
-0.2377783981
0.2380955666
0.002759288186
-0.4700662884
-0.003139719875
0.4709461822
0.002259826093
-0.465805704
-0.001630511073
0.466394987
0.001041228004
-0.0001670044482
0.9246907165
-4.692116693e-05
-0.0005111297094
-0.0003281696519
0.9206057652
-0.000212456499
0.9181805364
0.9170063421
-0.001221586825
0.9153954996
-0.00237043745
0.9147967314
-0.003586541198
0.9137568938
-0.002067767989
0.9118549583
-0.002579098969
-0.454322946
0.454492227
-0.002237048962
-0.4523906532
0.002434733101
0.4525743865
-0.002618466389
-0.4497336941
0.002783617469
0.4499397014
-0.001387928738
-0.001585660494
-0.2255473771
0.001716688086
0.2257125257
-0.00178739908
-0.2240288547
0.002025335401
0.2242616952
-0.002103720003
-0.2191524687
0.002377171269
0.2193974199
-0.002506162748
-0.2112705237
0.003183444051
0.2117085525
-0.003615231496
-0.1025943424
0.003067419041
0.1029754239
-0.003448500589
-0.01051338811
-0.1477733737
0.1485635818
0.009723179934
-0.009928739587
-0.2670414027
0.2686079585
0.008343677892
-0.2515124223
-0.004871320382
0.2521974414
0.004060858986
-0.2427581027
-0.002254009732
0.2429512192
0.001907985178
-0.001084207185
-0.2387959465
0.2389116859
0.0008855027533
-0.4721043789
-0.0006039945064
0.4730794745
-0.0003711010392
-0.4667053598
0.0008272012793
0.4669038666
-0.001025708023
-0.002356967947
0.9242612195
0.001587288311
0.001199176645
-0.001687604601
0.9199364019
-0.0008832481863
0.91737618
0.9161230939
-0.001560931144
0.9169564307
-0.00322798101
0.9164637813
-0.004820620964
0.9153495337
-0.00299550871
0.9135456175
-0.003515771458
-0.4548466416
0.4551956654
-0.003344532432
-0.4528257466
0.003746095323
0.4532907152
-0.004211063913
-0.4503110048
0.004643759385
0.4509592717
-0.002457761794
-0.002810227761
-0.2263889553
0.003003882972
0.2266684788
-0.003183941863
-0.2251947484
0.003792867919
0.2255732856
-0.004014814696
-0.2203903182
0.004731085957
0.2207778804
-0.005004859687
-0.2130245868
0.005967542412
0.2134259552
-0.006365397569
-0.1043210265
0.003804827869
0.1044244514
-0.001945473532
-0.001962779326
0.00557317646
-0.1479931087
0.1472670996
-0.004847167324
0.005242754233
-0.2694314908
0.2685728973
-0.004404024885
-0.2524305331
0.002915353778
0.2520221251
-0.00263343117
-0.2429398199
0.002074868531
0.2426623558
-0.001950637102
0.001649522664
-0.2388999706
0.2387606401
-0.001592778293
-0.4731146395
0.003209172312
0.4727188558
-0.00281338862
-0.4667728756
0.002760479137
0.4671738943
-0.003161497839
-0.004810186616
0.9226167794
0.003495713573
0.002958913114
-0.003172153117
0.9182983684
-0.001612410355
0.9158164372
0.9145106836
-0.001987086678
0.9189435174
-0.0039559292
0.9184326238
-0.006049260682
0.9174428652
-0.003895549544
0.9157952138
-0.004403307417
-0.4557182911
0.4562366689
-0.004413927292
-0.453814663
0.005053288035
0.4543909771
-0.005629602197
-0.4519655445
0.006302021783
0.453226091
-0.003670091412
-0.003857083672
-0.2276724078
0.004157994389
0.2280531544
-0.004433426015
-0.2268584855
0.005326698101
0.2273305823
-0.00563975283
-0.2220425708
0.006630870819
0.222496599
-0.006973669337
-0.2145490972
0.008016351653
0.2149144945
-0.008380428403
-0.1049902501
0.004608730755
0.1050402632
-0.002318117689
-0.002340626173
0.01490302719
-0.1402260013
0.1390624643
-0.01373949016
0.01684308418
-0.2634705492
0.2610779781
-0.01448472035
-0.2493053505
0.009341762444
0.248283937
-0.008450613783
-0.2411876649
0.006164973199
0.2404538576
-0.005582125834
0.004391783113
-0.2380657932
0.2377499875
-0.004148732718
-0.4720069015
0.006893141327
0.471013975
-0.005900214829
-0.4674586398
0.005011283676
0.4666527234
-0.004205367323
-0.007092878049
0.9199585462
0.005053442379
0.004697668866
-0.004623287112
0.9158287774
-0.002277489228
0.9134706394
0.9122331944
-0.002376454884
0.9213199723
-0.004759473436
0.9208156424
-0.007250242409
0.9199336342
-0.004714352681
0.918303286
-0.005043961909
-0.4568984562
0.4575505063
-0.005366402746
-0.4551595088
0.006118342741
0.4559638282
-0.006922662153
-0.4544894909
0.007793638805
0.4558445942
-0.004520887026
-0.004578642073
-0.2293176887
0.005162412836
0.2297835647
-0.005516718255
-0.22886875
0.006624687253
0.2294219493
-0.007016623419
-0.2239639085
0.008218877899
0.224488516
-0.008635542017
-0.2161162249
0.009901957962
0.2165844044
-0.01037001595
-0.1053708049
0.005713020531
0.1054308708
-0.002868682959
-0.002904403547
0.01843644932
-0.1310375822
0.1298592379
-0.01725810501
0.02243276572
-0.2533656685
0.2507009824
-0.01982483755
-0.2439449224
0.01408121587
0.2419708455
-0.01224654734
-0.2377043885
0.008715502329
0.2365952816
-0.007750330794
0.006481293383
-0.2363749132
0.2358564331
-0.006018824201
-0.4697833843
0.009998108663
0.4683212164
-0.008535940749
-0.4657927273
0.007260819083
0.4647084902
-0.006176582013
-0.009154688639
0.9179837477
0.005817459092
0.005312028099
-0.005898540601
0.9125726294
-0.002863174857
0.9104352736
0.9093700195
-0.006403685515
0.9277236578
-0.01296894761
0.9273809045
-0.01960353801
0.9265682246
-0.00563148672
0.9253139066
-0.02098267192
-0.4583403113
0.4591611779
-0.006452353364
-0.4567943202
0.007343068788
0.4578008776
-0.00834962615
-0.4574403858
0.009327080688
0.4587454619
-0.005267047397
-0.005284358091
-0.231199531
0.006218057868
0.2318088644
-0.006708804533
-0.2311595482
0.007740678257
0.2316951337
-0.008113964656
-0.226165974
0.009301398329
0.2269418256
-0.009971848062
-0.2183006724
0.01160038159
0.2189911651
-0.0061054652
-0.006185409094
-0.05313768452
0.003549690601
0.05316885233
-0.003580858408
-0.05787647359
0.006655002761
0.05740107821
-0.01298982107
0.006810213688
0.01718845195
-0.1227759789
0.2422498585
-0.0308112167
0.01686056739
-0.1227116822
-0.2432442402
0.02260042146
0.2403027161
-0.01974151889
-0.2366131159
0.01483562466
0.2350425595
-0.01341629899
-0.2337403973
0.01041101018
0.232852657
-0.009655917702
0.007896762991
-0.2344589871
0.233952986
-0.00742106561
-0.4665410498
0.01208402435
0.4647655483
-0.01030852275
-0.463589575
0.008982964843
0.462361089
-0.007754478813
-0.01078146023
0.9149035987
0.007141225979
0.006720383266
-0.00694620868
0.9087373779
-0.003420591258
0.9069096562
0.9059494283
-0.002837184641
0.9305608425
-0.005753367272
0.9302970871
-0.008831356044
0.9296462134
-0.006010876584
0.9286501119
-0.006156684709
-0.4619889993
0.462851385
-0.006873262281
-0.4606051171
0.007839887734
0.4616417568
-0.008876527377
-0.4609262439
0.009999446219
0.4618946303
-0.005461652418
-0.005411913197
-0.2335452731
0.005974379148
0.2339755784
-0.006279916274
-0.2336886934
0.007392823152
0.2343098148
-0.00785164042
-0.2287431234
0.0095840198
0.229560948
-0.01030503388
-0.2218799162
0.01300049601
0.2228047791
-0.006950538358
-0.00697482055
-0.05464261908
0.008847713736
0.1096811131
-0.05456466172
-0.004634338515
-0.004687207495
-0.1115403165
0.009379498462
0.1114834586
-0.01845777776
0.0091351372
0.0306422075
-0.2358484495
0.2338074313
-0.02860488
-0.2334398568
0.01828920662
0.2319279348
-0.01688370937
-0.2315599986
0.013639659
0.2303462918
-0.01257705127
-0.2305659072
0.009697083914
0.2304867629
-0.009725711504
0.008345549192
-0.232868233
0.2324305635
-0.007912367305
-0.4632415103
0.01286894708
0.4619089351
-0.01153637192
-0.4611144557
0.01023371103
0.4596306492
-0.008749904485
-0.01019831345
0.9109923566
0.006979956429
0.007129599099
-0.007613744608
0.906152809
-0.003724681709
0.9030205933
0.9022247466
-0.002984851652
0.9335456942
-0.006049130867
0.9333613664
-0.009274253458
0.932871336
-0.006317982872
0.9321196476
-0.006425806287
-0.4638028904
0.4647355759
-0.007250668336
-0.4627013163
0.008262442294
0.4637753237
-0.00933644963
-0.4625344809
0.01049430792
0.4630608192
-0.005466035914
-0.005519119968
-0.2348685539
0.005462384643
0.2350124844
-0.005500899182
-0.2359889531
0.005931685116
0.2364416647
-0.006231096034
-0.2323242099
0.007846403175
0.2332513579
-0.008662837511
-0.2264289123
0.01211483435
0.2279692513
-0.01363236784
-0.1126194534
0.01752554744
0.2237362918
-0.01686882319
-0.1117735626
-0.2256351601
0.02284510355
0.226240204
-0.02345014742
-0.2290994275
0.02182490324
0.2279097452
-0.02067778771
-0.2271433236
0.01726808212
0.2260073971
-0.01626035114
-0.2259992431
0.01378986141
0.2252034353
-0.01314584909
-0.2283785528
0.01163783909
0.2274982439
-0.01083665847
0.009959458405
-0.2321551684
0.2299078284
-0.007712118375
-0.4607667036
0.01456156074
0.4579630039
-0.01175786106
-0.4581142628
0.01056179498
0.4563424245
-0.008789956686
-0.01057104368
0.9071727939
0.007271774706
0.007118831743
-0.007657188138
0.9032389535
-0.003924364748
0.89928777
0.8983003818
-0.003057883391
0.9366035776
-0.006189235002
0.936492718
-0.009467860791
0.9361499618
-0.006457308277
0.9356233386
-0.006514243467
-0.4656885998
0.4666416004
-0.007410308933
-0.4648481656
0.008424125282
0.4659134028
-0.009489362461
-0.4638548674
0.01062772154
0.4650666457
-0.005914365087
-0.005925029116
-0.2349182405
0.005422316444
0.2347086712
-0.005148734488
-0.2372973379
0.004574404954
0.2373798728
-0.004530738229
-0.2356209826
0.005089142848
0.2361916446
-0.005543809502
-0.2318403101
0.007690815583
0.2328112821
-0.008600956027
-0.2227886143
0.01110205835
0.2227576022
-0.01105886521
-0.2265915092
0.01389925341
0.2266438305
-0.01397460724
-0.2253904909
0.013182516
0.2248771046
-0.01274596255
-0.2236063417
0.01146830301
0.2231482315
-0.01113638289
-0.2237136877
0.0105421877
0.2235199614
-0.01046836459
-0.2267642941
0.01046841126
0.226747001
-0.01049352427
0.009452728986
-0.2282311153
0.2277184131
-0.00894002681
-0.4575317136
0.01499176176
0.4551254739
-0.01258552211
-0.4537349279
0.009444668781
0.4523998691
-0.008109609905
-0.009776147904
0.9018701847
0.007805806755
0.007272950298
-0.005247746001
0.8987105516
-0.003983101169
0.8980231251
0.8943172807
-0.003062215252
0.9396657928
-0.006188513081
0.9396190158
-0.009440295327
0.9394017441
-0.006447972031
0.9390661225
-0.006435107181
-0.4675720415
0.4685052723
-0.007381202839
-0.466957355
0.008361901924
0.4679765205
-0.009381067446
-0.4662542271
0.01045711985
0.4673960144
-0.005821049549
-0.005777857595
-0.2336011753
0.006424642836
0.2332675068
-0.006082408684
-0.236949485
0.004565955759
0.2365899372
-0.004129808699
-0.2370657189
0.003289369305
0.237074079
-0.003204355594
-0.2347503502
0.003546326605
0.2350907622
-0.003822171014
-0.2230887321
0.004623094427
0.2232740563
-0.004791093084
-0.22697347
0.006319020202
0.2271473106
-0.006524750936
-0.2242280671
0.006957595604
0.2242809474
-0.007087158041
-0.2227567812
0.007637193251
0.2229272181
-0.007904109804
-0.223781209
0.008946094335
0.2241126967
-0.009343744557
-0.2269323266
0.01039342369
0.2265398188
-0.01000129843
0.008728252153
-0.2263516951
0.2259372176
-0.008313774671
-0.4517161415
0.01414787413
0.4502555408
-0.0126872735
-0.4510671444
0.01128636707
0.4497124244
-0.009931647071
-0.00900282779
0.8956505326
0.008512298504
0.006710181454
-0.004876858335
0.8945845822
-0.003629971833
0.8967762387
0.8906873088
-0.00300910766
0.9426749005
-0.006070892297
0.9426808005
-0.009232041632
0.9425628934
-0.00630803064
0.9423773588
-0.006235247326
-0.4694007837
0.4702879369
-0.007195183842
-0.4689608891
0.008119022713
0.4699100771
-0.009068210728
-0.4684857921
0.01005665476
0.4695187135
-0.005580518768
-0.005509057356
-0.2340311424
0.006126791614
0.2343117045
-0.006407353763
-0.2350192327
0.006820167187
0.2343934028
-0.006180504961
-0.2363660788
0.004425782239
0.2359387397
-0.003951556523
-0.2353463455
0.002991637794
0.2352250231
-0.0028281529
-0.2238082383
0.00260379686
0.2239297673
-0.002712552772
-0.2278460879
0.003722559415
0.228125271
-0.004024833052
-0.2250843357
0.005218488153
0.2255166783
-0.005698789137
-0.2241434407
0.007372572211
0.2247188387
-0.007991986864
-0.2256092047
0.009890278662
0.2258477442
-0.01013361518
-0.2254180034
0.00921733881
0.225094845
-0.008894180371
0.007908705627
-0.2248394837
0.2245065958
-0.007575817667
-0.4489034012
0.01306400019
0.4476574124
-0.01181801139
-0.4484619293
0.01059511503
0.4472560041
-0.009389189792
-0.01193190002
0.8913410841
0.00801667069
0.00822467781
-0.007838732361
0.8904914145
-0.001049372799
0.8899868791
0.889637936
-0.002910151758
0.9455850523
-0.005860591193
0.9456312399
-0.008882600497
0.9455849027
-0.006063949342
0.9455064637
-0.005947756091
-0.4711324444
0.471960428
-0.006891932947
-0.4708170744
0.007745903102
0.4716840953
-0.008612924002
-0.4704930011
0.009503465005
0.4714088262
-0.005253879665
-0.005165410401
-0.2350910159
0.005729366909
0.2353310674
-0.005969418429
-0.2348388194
0.006692408498
0.235078833
-0.006932422083
-0.2344025292
0.007642126548
0.2345550541
-0.007794006888
-0.2344779263
0.006819515301
0.23416072
-0.006493176404
-0.2239683221
0.005756469653
0.2238552913
-0.005639385779
-0.2290241569
0.006582490317
0.2293219358
-0.00688729118
-0.2270622094
0.008210150852
0.227597241
-0.008753511376
-0.2263046784
0.009635720746
0.2261724417
-0.009503484019
-0.2251313026
0.008990963841
0.2249277863
-0.008787447589
-0.2242496649
0.008104560191
0.2240037927
-0.00785868795
0.007087661725
-0.2236271383
0.2233574696
-0.006817993025
-0.4465108939
0.01189108427
0.4454570887
-0.01083727903
-0.4461526796
0.009781726071
0.4450932129
-0.008722259298
-0.01118784446
0.88741215
0.007434439566
0.007682338952
-0.007387663479
0.8866912335
-0.003669097749
0.8862683134
0.8859688383
-0.002777362244
0.9483624145
-0.005582888925
0.9484367666
-0.008433771444
0.9484357852
-0.005748158469
0.9484245657
-0.005603714935
-0.4727439782
0.4735061887
-0.006510369063
-0.4725065067
0.007289250911
0.4732881138
-0.008070857994
-0.4722686133
0.008862841406
0.4730718262
-0.004877245628
-0.004788808642
-0.2359939864
0.005289582648
0.2361976344
-0.005493230725
-0.2357272253
0.006093016377
0.2359216683
-0.006287459405
-0.2351625788
0.006847826369
0.2353401719
-0.007025419543
-0.2343379754
0.007517540788
0.2344803409
-0.007659906294
-0.2235222883
0.007741349817
0.2234869843
-0.00770604582
-0.2297537702
0.008433876412
0.2297884745
-0.00846858082
-0.2277106068
0.008486260742
0.2276818248
-0.00845747882
-0.2258342189
0.008265508411
0.2257372272
-0.008168516722
-0.2244005524
0.00778952902
0.2242480673
-0.007637043998
-0.2233542124
0.007116107845
0.223163082
-0.006924977501
0.006312768491
-0.2226491326
0.2224290034
-0.006092639283
-0.4444879434
0.01072785888
0.4435959693
-0.009835884754
-0.4441283979
0.008927846025
0.4432023032
-0.008001751303
-0.01035324644
0.88386975
0.006818479747
0.007077166729
-0.006868620447
0.8832066075
-0.003420447007
0.8828201399
0.8825483913
-0.002622392957
0.9509848075
-0.005262068494
0.9510764421
-0.007923981953
0.9510976987
-0.005388646822
0.9511187637
-0.005229533148
-0.4742244623
0.4749204197
-0.006084604257
-0.4740259743
0.006788923235
0.4747250235
-0.007487972433
-0.4738213436
0.00818753543
0.4745203414
-0.004481956909
-0.004404576309
-0.2367593693
0.00484183297
0.2369319422
-0.005014405883
-0.2364481027
0.005512869937
0.2366064783
-0.005671245536
-0.2358108277
0.006118394055
0.2359495908
-0.006257157113
-0.2348445799
0.006632945439
0.2349476715
-0.006736037081
-0.2234684538
0.006742942929
0.2234866071
-0.006761096278
-0.2298672837
0.007309223717
0.2298865793
-0.00732851924
-0.2276014747
0.007326097806
0.227576305
-0.007300928125
-0.2254821165
0.007148769077
0.2254069926
-0.007073645222
-0.2238458927
0.006780809596
0.2237274943
-0.006662411178
-0.2226526159
0.00625356704
0.2225007198
-0.006101670878
0.005607842453
-0.2218535418
0.2216731083
-0.00542740892
-0.4427733062
0.009628768866
0.4420143596
-0.00886982227
-0.4423612723
0.008087658941
0.4415528665
-0.007279253086
-0.009490859157
0.8806949779
0.006204759978
0.006460871268
-0.00632159524
0.8800373436
-0.003155330683
0.8796538754
0.8793930606
-0.002454907276
0.9534397147
-0.004917837669
0.9535393725
-0.007383921157
0.9535637821
-0.005007166526
0.9535878945
-0.004845885402
-0.4755732038
0.4762056987
-0.00563966148
-0.4753831984
0.006273315405
0.4760057593
-0.006895876279
-0.4751719104
0.007512227434
0.4757793395
-0.004092537453
-0.004027119011
-0.2374081456
0.004406626481
0.2375546564
-0.00455313729
-0.2370369763
0.004969420388
0.2371670292
-0.005099473228
-0.2363203866
0.005460632018
0.2364306143
-0.005570859723
-0.2352111841
0.00586284082
0.2352856243
-0.005937280998
-0.223595688
0.005911166064
0.2236466815
-0.005962159612
-0.229927965
0.006379399148
0.2299370738
-0.006388507911
-0.2275045548
0.006373248189
0.2274817121
-0.006350405433
-0.2252050266
0.006224216431
0.2251443557
-0.006163545592
-0.2234102901
0.005928977244
0.2233155066
-0.005834193764
-0.2220906687
0.005505033421
0.2219673747
-0.005381739387
0.004976510154
-0.2211991668
0.2210491682
-0.004826511547
-0.4413131327
0.008613918031
0.4406645251
-0.007965310392
-0.4408194214
0.007289393195
0.4401130413
-0.006583013137
-0.008641562582
0.8778595109
0.005617200762
0.005859828817
-0.005775266643
0.8771710477
-0.002888431517
0.8767670402
0.8765046291
-0.002283674107
0.9557233888
-0.004567820058
0.9558235185
-0.006840392357
0.9558363545
-0.004625546482
0.9558410137
-0.004467965055
-0.4767958735
0.477368592
-0.00519826502
-0.4765913531
0.005766954303
0.4771451168
-0.006320718006
-0.4763458745
0.006863771736
0.4768743209
-0.00372392423
-0.003668293873
-0.2379597239
0.003998511612
0.2380846998
-0.004123487537
-0.2375222918
0.004473669363
0.2376301592
-0.004581536775
-0.2367276878
0.00487716847
0.2368167682
-0.00496624895
-0.2354755779
0.005196548178
0.2355291489
-0.005250119141
-0.223831523
0.005211339748
0.2239015029
-0.005281319562
-0.2299530349
0.00560427825
0.2299550717
-0.005606315081
-0.2274158291
0.005582498733
0.2273946623
-0.005561331935
-0.2249784843
0.005453259228
0.2249278931
-0.005402668056
-0.2230581121
0.005209142964
0.2229802092
-0.005131240149
-0.2216311898
0.004860118157
0.2215291283
-0.004758056691
0.004419973595
-0.220653253
0.2205268544
-0.004293575023
-0.4400631763
0.007698461308
0.4395049562
-0.007140241206
-0.4394719216
0.006553133612
0.4388528322
-0.00593404422
-0.00783498265
0.87532987
0.005070185747
0.005294437717
-0.005250864329
0.8745869294
-0.0026307072
0.8741468831
0.8738739219
-0.002114994654
0.9578383835
-0.004224518023
0.9579330419
-0.006311615269
0.9579234517
-0.004256030627
0.9578921457
-0.004106716679
-0.4779009517
0.4784187295
-0.004773808417
-0.4776660653
0.005284046069
0.4781590658
-0.005777046614
-0.4773679798
0.006256763791
0.4778300854
-0.003385323728
-0.003333545675
-0.238431003
0.003624000017
0.2385381653
-0.003731162226
-0.2379263149
0.004028092305
0.2380167376
-0.004118515011
-0.2370588496
0.004363893643
0.2371320676
-0.004437111703
-0.2356657511
0.004621154955
0.2357042743
-0.004659678151
-0.2241293978
0.004618695905
0.2242100313
-0.004699329433
-0.2299530843
0.004952447792
0.2299500867
-0.004949450246
-0.2273332494
0.004919953855
0.2273134339
-0.004900138342
-0.224787839
0.00480547141
0.2247446211
-0.00476225344
-0.2227662823
0.004598783357
0.2227008267
-0.004533327786
-0.2212484135
0.004305564179
0.2211624464
-0.004219597132
0.003933246296
-0.2201916356
0.2200837803
-0.003825391004
-0.4389854432
0.006883065126
0.4385013254
-0.006398947366
-0.4382903359
0.005886027347
0.4377455824
-0.005341273786
-0.007087543703
0.8730716375
0.004571376414
0.004774399834
-0.004760791663
0.8722601773
-0.002388695391
0.8717747868
0.8714852265
-0.001953738167
0.9597921217
-0.003897479788
0.9598767835
-0.005811174208
0.9598371461
-0.003907543843
0.9597584068
-0.003769891452
-0.478898797
0.4793669418
-0.004375688587
-0.478623267
0.004834064552
0.4790631382
-0.005273935738
-0.4782630632
0.005698856555
0.4786691927
-0.003075926123
-0.00302905998
-0.2388359372
0.003283954573
0.2389284468
-0.003376464213
-0.238266265
0.003630406955
0.238342897
-0.003707038961
-0.237332501
0.003913531518
0.2373935811
-0.003974611626
-0.2358024554
0.004123351147
0.2358301447
-0.004151040512
-0.2244612505
0.004114532376
0.2245471118
-0.004200393676
-0.2299354152
0.004399012698
0.2299288779
-0.004392475437
-0.2272558382
0.004359479186
0.2272372215
-0.004340862477
-0.2246238708
0.00425663756
0.2245862759
-0.004219042667
-0.2225194574
0.004078385141
0.2224634637
-0.004022391409
-0.2209242526
0.003827855406
0.2208507518
-0.003754354641
0.003508604797
-0.2197964633
0.2197034084
-0.003415549886
-0.4380490012
0.006164345018
0.4376258357
-0.005741179488
-0.4372497865
0.005290252014
0.4367681439
-0.004808609426
-0.006408675689
0.8710513936