/*--------------------------------*- C++ -*----------------------------------*\
| =========                 |                                                 |
| \\      /  F ield         | OpenFOAM: The Open Source CFD Toolbox           |
|  \\    /   O peration     | Version:  v1912                                 |
|   \\  /    A nd           | Website:  www.openfoam.com                      |
|    \\/     M anipulation  |                                                 |
\*---------------------------------------------------------------------------*/
FoamFile
{
    version     2.0;
    format      ascii;
    class       pointVectorField;
    location    "0.4";
    object      pointDisplacement;
}
// * * * * * * * * * * * * * * * * * * * * * * * * * * * * * * * * * * * * * //

dimensions      [0 1 0 0 0 0 0];


internalField   nonuniform List<vector> 
26316
(
(0 0 0)
(0 0 0)
(0 0 0)
(0 0 0)
(0 0 0)
(0 0 0)
(0 0 0)
(0 0 0)
(0 0 0)
(0 0 0)
(0 0 0)
(0 0 0)
(0 0 0)
(0 0 0)
(0 0 0)
(0 0 0)
(0 0 0)
(0 0 0)
(0 0 0)
(0 0 0)
(0 0 0)
(0 0 0)
(0 0 0)
(0 0 0)
(0 0 0)
(0 0 0)
(0 0 0)
(0 0 0)
(0 0 0)
(0 0 0)
(0 0 0)
(0 0 0)
(0 0 0)
(0 0 0)
(0 0 0)
(0 0 0)
(0 0 0)
(0 0 0)
(0 0 0)
(0 0 0)
(0 0 0)
(0 0 0)
(0 0 0)
(0 0 0)
(0 0 0)
(0 0 0)
(0 0 0)
(0 0 0)
(0 0 0)
(0 0 0)
(0 0 0)
(0 0 0)
(0 0 0)
(0 0 0)
(0 0 0)
(0 0 0)
(0 0 0)
(0 0 0)
(0 0 0)
(0 0 0)
(0 0 0)
(0 0 0)
(0 0 0)
(0 0 0)
(0 0 0)
(0 0 0)
(0 0 0)
(0 0 0)
(0 0 0)
(0 0 0)
(0 0 0)
(0 0 0)
(0 0 0)
(0 0 0)
(0 0 0)
(0 0 0)
(0 0 0)
(0 0 0)
(0 0 0)
(0 0 0)
(0 0 0)
(0 0 0)
(0 0 0)
(0 0 0)
(0 0 0)
(0 0 0)
(0 0 0)
(0 0 0)
(0 0 0)
(0 0 0)
(0 0 0)
(0 0 0)
(0 0 0)
(0 0 0)
(0 0 0)
(0 0 0)
(0 0 0)
(0 0 0)
(0 0 0)
(0 0 0)
(0 0 0)
(0 0 0)
(0 0 0)
(0 0 0)
(0 0 0)
(0 0 0)
(0 0 0)
(0 0 0)
(0 0 0)
(0 0 0)
(0 0 0)
(0 0 0)
(0 0 0)
(0 0 0)
(0 0 0)
(0 0 0)
(0 0 0)
(0 0 0)
(0 0 0)
(9.518936017e-08 -2.559508315e-07 2.775557562e-17)
(0 0 0)
(0 0 0)
(5.277323201e-08 -2.866936212e-06 3.330669074e-16)
(-2.42309622e-07 -2.437234341e-06 2.91433544e-16)
(0 0 0)
(0 0 0)
(0 0 0)
(0 0 0)
(0 0 0)
(0 0 0)
(0 0 0)
(0 0 0)
(0 0 0)
(0 0 0)
(0 0 0)
(0 0 0)
(0 0 0)
(0 0 0)
(0 0 0)
(0 0 0)
(0 0 0)
(0 0 0)
(0 0 0)
(0 0 0)
(0 0 0)
(0 0 0)
(0 0 0)
(0 0 0)
(0 0 0)
(0 0 0)
(0 0 0)
(0 0 0)
(0 0 0)
(0 0 0)
(0 0 0)
(0 0 0)
(0 0 0)
(0 0 0)
(0 0 0)
(0 0 0)
(0 0 0)
(0 0 0)
(0 0 0)
(0 0 0)
(0 0 0)
(0 0 0)
(0 0 0)
(0 0 0)
(0 0 0)
(0 0 0)
(0 0 0)
(0 0 0)
(0 0 0)
(0 0 0)
(0 0 0)
(0 0 0)
(0 0 0)
(0 0 0)
(0 0 0)
(0 0 0)
(0 0 0)
(0 0 0)
(0 0 0)
(0 0 0)
(0 0 0)
(5.930499667e-06 -2.316213111e-06 4.857225733e-16)
(3.414133965e-05 -1.4531238e-05 3.080868893e-15)
(4.462711019e-07 -2.273160776e-07 2.775557562e-17)
(6.489160683e-05 -4.520772352e-05 8.007483565e-15)
(0.0001614538895 -9.395665495e-05 1.99146255e-14)
(0.0001919460897 -0.0001272818233 2.69784195e-14)
(8.928098934e-05 -7.088308374e-05 1.255939797e-14)
(0.0001094153451 -0.0001493902279 2.645106356e-14)
(0.0001930080185 -0.0002199734827 4.660161146e-14)
(0.0001621989081 -0.0002431221644 5.150047055e-14)
(9.465169792e-05 -0.0001700359175 3.010092176e-14)
(5.852148387e-06 -0.0001989174255 3.522182546e-14)
(1.002908023e-05 -0.000274968219 5.821731985e-14)
(-4.717880995e-05 -0.0002714794487 5.746791931e-14)
(-2.864305178e-05 -0.0001956861017 3.463895837e-14)
(-0.0001011196104 -0.0001500039993 2.654820808e-14)
(-0.0001777601656 -0.0002208199098 4.674038934e-14)
(-0.000195937967 -0.0001929389666 4.084232952e-14)
(-0.0001067466655 -0.0001255688734 2.221833828e-14)
(-6.314351745e-05 -4.579605128e-05 8.10462808e-15)
(-0.0001563393966 -9.48456058e-05 2.009503675e-14)
(-0.0001178040856 -6.335361808e-05 1.341982081e-14)
(-3.692054913e-05 -2.374232498e-05 4.204969706e-15)
(0 0 0)
(-6.220558044e-06 -2.494493348e-06 5.273559367e-16)
(0 0 0)
(0 0 0)
(0 0 0)
(0 0 0)
(0 0 0)
(0 0 0)
(0 0 0)
(0 0 0)
(0 0 0)
(0 0 0)
(0 0 0)
(0 0 0)
(0 0 0)
(0 0 0)
(0 0 0)
(0 0 0)
(0 0 0)
(0 0 0)
(0 0 0)
(0 0 0)
(0 0 0)
(0 0 0)
(0 0 0)
(0 0 0)
(0 0 0)
(0 0 0)
(0 0 0)
(0 0 0)
(0 0 0)
(0 0 0)
(0 0 0)
(0 0 0)
(0 0 0)
(0 0 0)
(0 0 0)
(0 0 0)
(0 0 0)
(0 0 0)
(0 0 0)
(0 0 0)
(0 0 0)
(0 0 0)
(0 0 0)
(0 0 0)
(0 0 0)
(0 0 0)
(1.656329124e-05 -1.031762951e-06 1.026956298e-15)
(9.05127128e-05 -6.015274303e-06 6.009082121e-15)
(2.143355462e-05 -2.746839695e-06 1.415534356e-15)
(0.0003064917105 -4.897541286e-05 2.536859611e-14)
(0.0004907823264 -4.065221756e-05 4.060640713e-14)
(0.0006272713961 -5.660880067e-05 5.653810753e-14)
(0.000421986723 -7.34656333e-05 3.803901638e-14)
(0.0006609266328 -0.0001572439564 8.137934771e-14)
(0.0008768872917 -0.0001082292689 1.078998002e-13)
(0.0008859168203 -0.0001246845696 1.241229342e-13)
(0.0006817174427 -0.0001848137448 9.559020242e-14)
(0.0005442460821 -0.000253477122 1.308120279e-13)
(0.0006808810335 -0.0001650486786 1.634248292e-13)
(0.0005471919586 -0.0001744523942 1.723066134e-13)
(0.0004403547137 -0.0002695094749 1.389444115e-13)
(2.885888785e-05 -0.0002913204524 1.497829638e-13)
(3.664038706e-05 -0.0001875624531 1.840888553e-13)
(-0.0001452012131 -0.0001866341233 1.828259766e-13)
(-0.0001189752824 -0.0002892767799 1.486033518e-13)
(-0.0004959870957 -0.0002554803063 1.310895836e-13)
(-0.0006184692674 -0.0001676696625 1.637301406e-13)
(-0.0007284198881 -0.0001563446551 1.526140325e-13)
(-0.0005782962679 -0.0002358636895 1.210143097e-13)
(-0.0006353527372 -0.0001592011388 8.179568134e-14)
(-0.0008414016247 -0.0001107513854 1.084132784e-13)
(-0.0008000883076 -9.31646991e-05 9.134359935e-14)
(-0.0005879726942 -0.0001304679344 6.708522626e-14)
(-0.0003020044019 -4.977692832e-05 2.570166302e-14)
(-0.0004822853899 -4.152242144e-05 4.105049634e-14)
(-0.0003415026192 -2.702304647e-05 2.679800826e-14)
(-0.0001898095386 -2.880411458e-05 1.489086632e-14)
(0 0 0)
(-1.644076195e-05 -1.04130242e-06 1.054711873e-15)
(0 0 0)
(0 0 0)
(0 0 0)
(0 0 0)
(0 0 0)
(0 0 0)
(0 0 0)
(0 0 0)
(0 0 0)
(0 0 0)
(0 0 0)
(0 0 0)
(0 0 0)
(0 0 0)
(0 0 0)
(0 0 0)
(0 0 0)
(0 0 0)
(0 0 0)
(0 0 0)
(0 0 0)
(0 0 0)
(0 0 0)
(0 0 0)
(0 0 0)
(0 0 0)
(0 0 0)
(0 0 0)
(0 0 0)
(0 0 0)
(0 0 0)
(0 0 0)
(0 0 0)
(0 0 0)
(0 0 0)
(0 0 0)
(0 0 0)
(0 0 0)
(0 0 0)
(7.125737682e-06 1.032750281e-06 3.747002708e-16)
(0 0 0)
(0.0003036195025 3.383331414e-05 1.890154699e-14)
(0.0004514547198 7.657201557e-05 2.807476474e-14)
(0.0007072975724 0.0001277077056 4.690692279e-14)
(0.0005190406343 6.164345161e-05 3.445854713e-14)
(0.001192529203 0.0001764845032 9.860168237e-14)
(0.00144878321 0.0003258220141 1.19751431e-13)
(0.001624611197 0.0003977976911 1.462441279e-13)
(0.00136507411 0.0002199515766 1.229155666e-13)
(0.001571668683 0.0003447302507 1.93067784e-13)
(0.001794731993 0.0005983902241 2.203792704e-13)
(0.001725140365 0.0006539802583 2.411404409e-13)
(0.001525484465 0.0003803321857 2.133293542e-13)
(0.001082770244 0.0004592348883 2.589872761e-13)
(0.001198574172 0.0007737957426 2.865069293e-13)
(0.0009441793849 0.0007975966339 2.957772915e-13)
(0.0008569255245 0.0004753715887 2.68673972e-13)
(5.984693896e-05 0.0004944183345 2.810390809e-13)
(6.618060242e-05 0.0008254997338 3.074207555e-13)
(-0.0002382181819 0.0008212833702 3.06213388e-13)
(-0.0002182831807 0.0004913060046 2.797345688e-13)
(-0.0009760995293 0.0004541250442 2.593758541e-13)
(-0.001078907713 0.0007677376945 2.868816296e-13)
(-0.001307108269 0.0007351057427 2.747940764e-13)
(-0.001175240537 0.0004322064466 2.469691118e-13)
(-0.001501412655 0.0003394912138 1.937616734e-13)
(-0.001712942731 0.0005914747178 2.209760153e-13)
(-0.001731548258 0.0005301067568 1.978972541e-13)
(-0.001500844926 0.000301009358 1.71612724e-13)
(-0.001160888581 0.000174281441 9.861556016e-14)
(-0.001444528651 0.0003318551156 1.223326995e-13)
(-0.001248808616 0.0002664930376 9.740819262e-14)
(-0.0009910649034 0.0001384076203 7.742417818e-14)
(-0.0003453104643 3.98647732e-05 2.184363801e-14)
(-0.0005157458417 8.985657803e-05 3.262667914e-14)
(-0.0002913448554 4.781562024e-05 1.733335697e-14)
(-0.0001665633094 1.812495249e-05 9.908740495e-15)
(0 0 0)
(0 0 0)
(0 0 0)
(0 0 0)
(0 0 0)
(0 0 0)
(0 0 0)
(0 0 0)
(0 0 0)
(0 0 0)
(0 0 0)
(0 0 0)
(0 0 0)
(0 0 0)
(0 0 0)
(0 0 0)
(0 0 0)
(0 0 0)
(0 0 0)
(0 0 0)
(0 0 0)
(0 0 0)
(0 0 0)
(0 0 0)
(0 0 0)
(0 0 0)
(0 0 0)
(0 0 0)
(0 0 0)
(0 0 0)
(0 0 0)
(0 0 0)
(0 0 0)
(0 0 0)
(0 0 0)
(3.293601476e-05 9.125605871e-06 1.637578961e-15)
(7.490640695e-05 2.422679994e-05 3.719247132e-15)
(0.0002661582194 9.055239295e-05 1.393329896e-14)
(0.0001789121631 5.214658888e-05 9.36750677e-15)
(0.001054378687 0.0003642124861 6.530886942e-14)
(0.001247714132 0.0005030418248 7.727152251e-14)
(0.001611012754 0.0006921108403 1.06276099e-13)
(0.001396258689 0.0005139479258 9.212075547e-14)
(0.002220084393 0.001013750782 1.821875983e-13)
(0.00245232052 0.001309794404 2.010197564e-13)
(0.002592827236 0.001505653523 2.312872116e-13)
(0.002369820608 0.00117576279 2.117750419e-13)
(0.002374536343 0.001599964565 2.902816876e-13)
(0.002519525299 0.001981841072 3.070738108e-13)
(0.002340023249 0.002093210318 3.25045546e-13)
(0.00221365927 0.001696410891 3.081979116e-13)
(0.00144170675 0.001887978111 3.443079155e-13)
(0.001484808155 0.002268938717 3.538280779e-13)
(0.001140986498 0.00228776662 3.572142582e-13)
(0.001117157107 0.001916438621 3.498867862e-13)
(7.632912396e-05 0.001941812022 3.554379013e-13)
(7.623449836e-05 0.002294398784 3.591155151e-13)
(-0.0002807117864 0.00229279641 3.59060004e-13)
(-0.0002763387781 0.001937906449 3.549521788e-13)
(-0.001306707565 0.001881596804 3.450434383e-13)
(-0.001347158687 0.002261152311 3.543276783e-13)
(-0.001673772826 0.002224209272 3.484851296e-13)
(-0.001614116178 0.001837460815 3.369110546e-13)
(-0.002271693308 0.001590478273 2.909200658e-13)
(-0.002417262516 0.001977930301 3.081424005e-13)
(-0.002548004173 0.001853268923 2.877836858e-13)
(-0.002371213352 0.001474034791 2.68410294e-13)
(-0.002217660743 0.00103497026 1.873501354e-13)
(-0.002443209429 0.001331538328 2.063627047e-13)
(-0.00224466437 0.001129143833 1.749017597e-13)
(-0.002014077963 0.0008676223109 1.569577801e-13)
(-0.001104293647 0.0003868926051 6.981915046e-14)
(-0.001301170005 0.0005322672727 8.225364834e-14)
(-0.0009394724364 0.0003619055073 5.587197371e-14)
(-0.0007699682113 0.000254023825 4.579669977e-14)
(-5.094225064e-05 1.43138508e-05 2.567390744e-15)
(-8.75092824e-05 2.873989997e-05 4.413136523e-15)
(-2.221903188e-06 6.953946868e-07 1.110223025e-16)
(0 0 0)
(0 0 0)
(0 0 0)
(0 0 0)
(0 0 0)
(0 0 0)
(0 0 0)
(0 0 0)
(0 0 0)
(0 0 0)
(0 0 0)
(0 0 0)
(0 0 0)
(0 0 0)
(0 0 0)
(0 0 0)
(0 0 0)
(0 0 0)
(0 0 0)
(0 0 0)
(0 0 0)
(0 0 0)
(0 0 0)
(0 0 0)
(0 0 0)
(0 0 0)
(0 0 0)
(0 0 0)
(0 0 0)
(3.134688428e-06 1.584666266e-06 1.526556659e-16)
(8.553678776e-08 3.962197792e-08 0)
(0 0 0)
(0.0002352069075 0.0001087923318 1.168509733e-14)
(0.0002968817681 0.0001510768682 1.476596623e-14)
(0.0006162134602 0.0003298835925 3.222422329e-14)
(0.0005257126141 0.0002558055966 2.749189765e-14)
(0.00171219318 0.0009869550897 1.059707877e-13)
(0.001863456111 0.001181829354 1.153244167e-13)
(0.002266644145 0.001531520254 1.493943858e-13)
(0.002148244038 0.001319206634 1.416089468e-13)
(0.002988015595 0.002280970223 2.447486658e-13)
(0.003108600317 0.002610733084 2.545880173e-13)
(0.00319813789 0.002921907511 2.849664948e-13)
(0.003090028327 0.002566201494 2.753491879e-13)
(0.002815240491 0.003172377993 3.41005002e-13)
(0.00286718315 0.003555770079 3.471389842e-13)
(0.002588956928 0.003644833442 3.561595463e-13)
(0.002560807902 0.003275057875 3.526345882e-13)
(0.001525277909 0.003310855786 0)
(0.001538146412 0.003657044825 0)
(0.001358357517 0.003653248675 0)
(0.001168935587 0.003641595469 0)
(0.001160973532 0.003470218426 0)
(0.001159982255 0.003303023384 0)
(7.271501984e-05 0.003292016572 0)
(7.208053126e-05 0.003458263829 0)
(-0.0001100490849 0.00345742301 0)
(-0.0001084282609 0.003291195153 0)
(-0.00139189705 0.003300051625 0)
(-0.001397984354 0.003470774899 0)
(-0.001405373522 0.003644138539 0)
(-0.001586571995 0.00364867001 0)
(-0.001765127835 0.003649920536 0)
(-0.001755935544 0.003307069645 0)
(-0.002706531371 0.003171434972 3.433642259e-13)
(-0.002754916924 0.003550789771 3.492206524e-13)
(-0.002976763637 0.003408650195 3.352179645e-13)
(-0.00290691077 0.00302564368 3.27599059e-13)
(-0.002970124477 0.002316784981 2.505634589e-13)
(-0.003080032943 0.002645607829 2.596256543e-13)
(-0.002931471776 0.002324922039 2.280120537e-13)
(-0.002796631085 0.002014117532 2.17659224e-13)
(-0.001816646667 0.001065029705 1.147276718e-13)
(-0.001986977954 0.001281569558 1.254552018e-13)
(-0.001567860176 0.0009520624994 9.314771177e-14)
(-0.001412070355 0.0007794714991 8.390510509e-14)
(-0.0003153121499 0.0001481086914 1.591782262e-14)
(-0.0003941026962 0.0002036262482 1.990074772e-14)
(-0.0001412493934 6.952331202e-05 6.786238238e-15)
(-9.610891338e-05 4.300476213e-05 4.62130334e-15)
(0 0 0)
(0 0 0)
(0 0 0)
(0 0 0)
(0 0 0)
(0 0 0)
(0 0 0)
(0 0 0)
(0 0 0)
(0 0 0)
(0 0 0)
(0 0 0)
(0 0 0)
(0 0 0)
(0 0 0)
(0 0 0)
(0 0 0)
(0 0 0)
(0 0 0)
(0 0 0)
(0 0 0)
(0 0 0)
(0 0 0)
(0 0 0)
(0 0 0)
(0 0 0)
(0 0 0)
(0 0 0)
(2.824547349e-05 1.906342216e-05 1.276756478e-15)
(1.609623165e-05 1.01811043e-05 7.355227538e-16)
(1.316811967e-05 7.772387257e-06 5.967448757e-16)
(0.0004265618407 0.0002766032105 2.120525977e-14)
(0.0004423622724 0.0003073764471 2.198241589e-14)
(0.0008193203368 0.000598905881 4.281297539e-14)
(0.0007977821705 0.0005442199109 4.168887457e-14)
(0.002150567495 0.001737926138 1.330185961e-13)
(0.002183794944 0.001891139096 1.350725087e-13)
(0.00260229091 0.002401163809 1.714461906e-13)
(0.002567450339 0.002210537241 1.691424778e-13)
(0.003346131023 0.003582154578 2.739475313e-13)
(0.003375838099 0.003873733905 2.764455331e-13)
(0.003424939207 0.004276326292 3.051725539e-13)
(0.003399755817 0.003959816779 3.028410855e-13)
(0.002934496591 0.004641266156 3.552713679e-13)
(0.002940712316 0.004987893468 3.561595463e-13)
(0.002610243063 0.005027770177 0)
(0.002611077615 0.004689332483 3.591155151e-13)
(0.00154615191 0.004681254258 0)
(0.001546480465 0.004852800011 0)
(0.001369103278 0.004851081347 0)
(0.001368789233 0.004679805873 0)
(-0.001421146789 0.004664609127 0)
(-0.001422819145 0.004834483121 0)
(-0.001600156377 0.004834494257 0)
(-0.001598671733 0.004664871005 0)
(-0.002828114348 0.004644121556 3.573530361e-13)
(-0.002836420255 0.004990980753 3.582273367e-13)
(-0.003125929732 0.00488944882 3.509414981e-13)
(-0.003106822565 0.004534604139 3.489430966e-13)
(-0.00338993519 0.003709731391 2.854522174e-13)
(-0.003434909507 0.004028918934 2.891853423e-13)
(-0.0033210602 0.003595794242 2.580574643e-13)
(-0.003270715055 0.003303898587 2.541855615e-13)
(-0.002334726126 0.001917025327 1.473404732e-13)
(-0.002388549731 0.002102227448 1.507405312e-13)
(-0.001941262214 0.001608624524 1.152966611e-13)
(-0.001890705144 0.001461540221 1.122851812e-13)
(-0.0005718195389 0.0003761200021 2.885192085e-14)
(-0.0006457429541 0.0004553882888 3.258504577e-14)
(-0.0003080658765 0.0002069556107 1.480759959e-14)
(-0.0002536050079 0.0001589080554 1.21846977e-14)
(0 0 0)
(0 0 0)
(0 0 0)
(0 0 0)
(0 0 0)
(0 0 0)
(0 0 0)
(0 0 0)
(0 0 0)
(0 0 0)
(0 0 0)
(0 0 0)
(0 0 0)
(0 0 0)
(0 0 0)
(0 0 0)
(0 0 0)
(0 0 0)
(0 0 0)
(0 0 0)
(0 0 0)
(0 0 0)
(0 0 0)
(0 0 0)
(0 0 0)
(0 0 0)
(0 0 0)
(0 0 0)
(4.636591677e-05 3.913208332e-05 2.095545959e-15)
(4.187792516e-05 3.357618059e-05 1.887379142e-15)
(3.673899097e-05 2.790353657e-05 1.665334537e-15)
(0.0005255076336 0.0004384858239 2.611799665e-14)
(0.0005433521702 0.0004786326587 2.700617507e-14)
(0.0009475918911 0.0008781995087 4.952982469e-14)
(0.0009253576393 0.0008123335901 4.836409051e-14)
(0.002316487952 0.002409730856 1.433297925e-13)
(0.002343139606 0.002573371891 1.44995127e-13)
(0.002755376515 0.003224609945 1.816602424e-13)
(0.002730016882 0.003026109313 1.799393967e-13)
(0.003459809738 0.004770797124 2.835648383e-13)
(0.003475601916 0.005060549756 2.849664948e-13)
(0.003500562963 0.005547158083 3.12361248e-13)
(0.003488954345 0.005235687606 3.111955138e-13)
(0.002947633566 0.006012910214 3.575334473e-13)
(0.002947696225 0.006351004959 3.577416141e-13)
(0.002604103533 0.006373917003 0)
(0.002605845232 0.006038218691 0)
(0.001542586194 0.006033809926 0)
(0.001541816037 0.006201776183 0)
(0.001364878613 0.00620101781 0)
(0.001365625428 0.006033051462 0)
(-0.001430441921 0.006019894064 0)
(-0.001431138116 0.006188848756 0)
(-0.001608045084 0.006188261676 0)
(-0.001607380344 0.00601939245 0)
(-0.002847050929 0.00601468953 3.590738817e-13)
(-0.002848294561 0.006352493301 3.591016373e-13)
(-0.003166209475 0.006278373213 3.549938121e-13)
(-0.003160548372 0.005936247441 3.544387006e-13)
(-0.003553102437 0.005006210252 2.989691827e-13)
(-0.0035753739 0.005318919476 3.008010507e-13)
(-0.003493243535 0.004797434149 2.712968739e-13)
(-0.00346542934 0.00450739948 2.691458167e-13)
(-0.002581684012 0.002729826146 1.629113511e-13)
(-0.002620682908 0.002925932749 1.653677195e-13)
(-0.002175507856 0.002286643367 1.292022045e-13)
(-0.002135613438 0.002125862425 1.268291028e-13)
(-0.0007406748459 0.0006272130587 3.738676035e-14)
(-0.0007708724682 0.0006892701859 3.891331701e-14)
(-0.0003975551916 0.0003386137666 1.910971381e-14)
(-0.0003747706783 0.0003023134199 1.801336857e-14)
(0 0 0)
(0 0 0)
(0 0 0)
(0 0 0)
(0 0 0)
(0 0 0)
(0 0 0)
(0 0 0)
(0 0 0)
(0 0 0)
(0 0 0)
(0 0 0)
(0 0 0)
(0 0 0)
(0 0 0)
(0 0 0)
(0 0 0)
(0 0 0)
(0 0 0)
(0 0 0)
(0 0 0)
(0 0 0)
(0 0 0)
(0 0 0)
(0 0 0)
(0 0 0)
(0 0 0)
(0 0 0)
(6.839375498e-05 6.926737092e-05 3.094746681e-15)
(6.166219657e-05 5.984657448e-05 2.789435349e-15)
(5.566857289e-05 5.168147319e-05 2.525757381e-15)
(0.000587724664 0.0005995809155 2.921274334e-14)
(0.0006056971383 0.0006460305656 3.010092176e-14)
(0.001024398142 0.001149568487 5.355438315e-14)
(0.001002398747 0.001075915635 5.240252676e-14)
(0.002407773817 0.003063033544 1.490751966e-13)
(0.002433413994 0.003236729235 1.5068502e-13)
(0.002840789422 0.004026898872 1.874334021e-13)
(0.002816566348 0.003818419725 1.857958232e-13)
(0.003512677476 0.005927092668 2.882971639e-13)
(0.003527300195 0.006224025911 2.896155538e-13)
(0.003537772914 0.006795579092 3.16219273e-13)
(0.003527244089 0.006478579702 3.151368055e-13)
(0.002945975007 0.007361942296 3.582134589e-13)
(0.002945356597 0.007699331321 3.583799923e-13)
(0.002596634207 0.007713883911 0)
(0.002598551408 0.007379073278 0)
(0.00153598496 0.007374636085 0)
(0.001535116199 0.007541948382 0)
(0.001358420124 0.007541152045 0)
(0.001358838973 0.007457488055 0)
(0.001359257551 0.00737389409 0)
(-0.00143406059 0.007370060859 0)
(-0.001434240786 0.007538379542 0)
(-0.00161094437 0.007537513149 0)
(-0.001610787727 0.007369248839 0)
(-0.002849483203 0.007362626832 3.590877595e-13)
(-0.002849129795 0.007697098397 3.590183706e-13)
(-0.003160185205 0.007591326004 3.541472671e-13)
(-0.003164247878 0.00726980156 3.546329896e-13)
(-0.00356136198 0.006139642613 2.995659276e-13)
(-0.003548428983 0.006396458082 2.984834602e-13)
(-0.003460338059 0.005758968657 2.687294831e-13)
(-0.00347517007 0.00553122715 2.698674617e-13)
(-0.002594184802 0.003356985958 1.637162628e-13)
(-0.0025776809 0.003487805475 1.626893065e-13)
(-0.002132604402 0.002716565112 1.266764471e-13)
(-0.002148302981 0.002617158009 1.276201367e-13)
(-0.0007502763541 0.0007774988814 3.788636072e-14)
(-0.0007405466703 0.0008024211167 3.738676035e-14)
(-0.0003750817264 0.0003871282665 1.804112415e-14)
(-0.0003819905606 0.0003770638927 1.837419106e-14)
(0 0 0)
(0 0 0)
(0 0 0)
(0 0 0)
(0 0 0)
(0 0 0)
(0 0 0)
(0 0 0)
(0 0 0)
(0 0 0)
(0 0 0)
(0 0 0)
(0 0 0)
(0 0 0)
(0 0 0)
(0 0 0)
(0 0 0)
(0 0 0)
(0 0 0)
(0 0 0)
(0 0 0)
(0 0 0)
(0 0 0)
(0 0 0)
(0 0 0)
(0 0 0)
(0 0 0)
(0 0 0)
(9.793942529e-05 0.0001157385852 4.427014311e-15)
(8.993630412e-05 0.0001024821502 4.066191828e-15)
(8.219525576e-05 9.01890768e-05 3.719247132e-15)
(0.0006618601962 0.0007981547413 3.290423489e-14)
(0.0006816362914 0.000853668258 3.388955783e-14)
(0.001116308633 0.00147100219 5.838385331e-14)
(0.001092533518 0.001386250577 5.71348524e-14)
(0.0025116282 0.003778092523 1.556116347e-13)
(0.002538529388 0.003966002111 1.573186026e-13)
(0.00293960073 0.004895069829 1.941224959e-13)
(0.002914386985 0.004672500054 1.92415528e-13)
(0.003571098089 0.007129967437 2.935290899e-13)
(0.003585890793 0.007437315561 2.948613576e-13)
(0.003579463599 0.00808378804 3.204936316e-13)
(0.003569008613 0.007758591059 3.194111642e-13)
(0.002942628158 0.008711719987 3.587685704e-13)
(0.002941423222 0.009048947266 3.588657149e-13)
(0.002588604468 0.009053903103 0)
(0.002590670257 0.008718898532 0)
(0.001528757558 0.008714417197 0)
(0.001527787044 0.008881884713 0)
(0.00135139438 0.008881097336 0)
(0.001351860186 0.008797363503 0)
(0.00135231815 0.0087136452 0)
(-0.001434179736 0.008714685864 0)
(-0.00143387663 0.008882773007 0)
(-0.001610408345 0.008881728327 0)
(-0.001610750536 0.008713687716 0)
(-0.002841714248 0.008683991113 3.581857033e-13)
(-0.002835451024 0.009000630517 3.574640584e-13)
(-0.003111653712 0.008782605162 3.488598299e-13)
(-0.003130309829 0.008505519816 3.508859869e-13)
(-0.003437920364 0.007010326628 2.892686091e-13)
(-0.003370264741 0.007139031097 2.836203494e-13)
(-0.003268382321 0.006391936104 2.539357613e-13)
(-0.003323944754 0.006257946381 2.5821012e-13)
(-0.002391933574 0.003661447471 1.510180869e-13)
(-0.002332686118 0.003708929843 1.473127176e-13)
(-0.00188940026 0.002828076214 1.122990589e-13)
(-0.00194499041 0.002802834753 1.155880947e-13)
(-0.0006054141257 0.0007420661476 3.058664433e-14)
(-0.0005729445319 0.0007293872412 2.894906537e-14)
(-0.0002546356175 0.0003087508192 1.225408663e-14)
(-0.0002764236946 0.0003227150096 1.329492072e-14)
(0 0 0)
(0 0 0)
(0 0 0)
(0 0 0)
(0 0 0)
(0 0 0)
(0 0 0)
(0 0 0)
(0 0 0)
(0 0 0)
(0 0 0)
(0 0 0)
(0 0 0)
(0 0 0)
(0 0 0)
(0 0 0)
(0 0 0)
(0 0 0)
(0 0 0)
(0 0 0)
(0 0 0)
(0 0 0)
(0 0 0)
(0 0 0)
(0 0 0)
(0 0 0)
(0 0 0)
(0 0 0)
(0.0001237733569 0.0001671753097 5.606626274e-15)
(0.0001280030614 0.0001674842229 5.787037516e-15)
(0.000116851511 0.0001479574782 5.273559367e-15)
(0.0007462473698 0.00103857321 3.71092046e-14)
(0.000771502139 0.001109565361 3.83582055e-14)
(0.001223063811 0.001850911306 6.397660179e-14)
(0.001193258938 0.001747439566 6.242228956e-14)
(0.002624220496 0.004557288887 1.627031843e-13)
(0.002656889064 0.004768494572 1.647570969e-13)
(0.003050011944 0.005835416794 2.015887457e-13)
(0.003019613309 0.005589900215 1.995348331e-13)
(0.00363221736 0.008378534631 2.990108161e-13)
(0.003649635291 0.008702150966 3.005512506e-13)
(0.003624122222 0.009411810082 3.250594238e-13)
(0.003611954563 0.009074092292 3.238381785e-13)
(0.002936940502 0.01005880077 3.590738817e-13)
(0.002935179736 0.01039471094 3.591155151e-13)
(0.002580086099 0.01039352358 0)
(0.00258222161 0.01005859709 0)
(0.001520488348 0.01005399196 0)
(0.001519370064 0.01022144334 0)
(0.001343312115 0.01022061836 0)
(0.001343855817 0.01013686149 0)
(0.001344391496 0.01005316683 0)
(-0.001430450627 0.01005612798 0)
(-0.001429655196 0.01022366461 0)
(-0.001606124122 0.01022248012 0)
(-0.001606974017 0.01005494328 0)
(-0.002803382417 0.009898302726 3.537725668e-13)
(-0.002785524112 0.01016837762 3.517047764e-13)
(-0.003009947824 0.009767551397 3.37868622e-13)
(-0.003043104112 0.009552495685 3.414490912e-13)
(-0.003178250364 0.007486236502 2.676470157e-13)
(-0.003127845181 0.007615720097 2.634836793e-13)
(-0.002956081629 0.006644919521 2.298716772e-13)
(-0.003047763579 0.006627606399 2.369354712e-13)
(-0.002063101797 0.003647812678 1.303679387e-13)
(-0.001933980723 0.003534714879 1.22235555e-13)
(-0.001496775177 0.002575400857 8.905376436e-14)
(-0.001626294438 0.002707012614 9.672818102e-14)
(-0.0004064858287 0.0005753661868 2.055300374e-14)
(-0.0003549882165 0.0005193363795 1.794397964e-14)
(-0.0001152422684 0.0001605670303 5.551115123e-15)
(-0.0001450560251 0.0001955489199 6.994405055e-15)
(0 0 0)
(0 0 0)
(0 0 0)
(0 0 0)
(0 0 0)
(0 0 0)
(0 0 0)
(0 0 0)
(0 0 0)
(0 0 0)
(0 0 0)
(0 0 0)
(0 0 0)
(0 0 0)
(0 0 0)
(0 0 0)
(0 0 0)
(0 0 0)
(0 0 0)
(0 0 0)
(0 0 0)
(0 0 0)
(0 0 0)
(0 0 0)
(0 0 0)
(0 0 0)
(0 0 0)
(0 0 0)
(0.0002200001166 0.0003343531729 9.964251646e-15)
(0.0002005844541 0.0002963371852 9.076073226e-15)
(0.0001716798628 0.0002463831688 7.771561172e-15)
(0.0008525964915 0.001345012171 4.239664175e-14)
(0.0009157831104 0.001487272979 4.554689959e-14)
(0.001386800958 0.002370079738 7.256695245e-14)
(0.001309906547 0.00217451988 6.854239398e-14)
(0.002767304064 0.005449466067 1.71682113e-13)
(0.002816233927 0.005709709252 1.747352263e-13)
(0.00319115455 0.006897815335 2.110811526e-13)
(0.003152237479 0.006617946236 2.084582507e-13)
(0.003707333064 0.009704017853 3.056166431e-13)
(0.003714265109 0.01001075414 3.062827769e-13)
(0.003678365501 0.01080065472 3.304578833e-13)
(0.003664140029 0.01044800238 3.290562267e-13)
(0.002929523682 0.01139962517 0)
(0.002927847345 0.01173452233 0)
(0.002572229773 0.01173296768 0)
(0.002573098836 0.01156557757 0)
(0.002574014644 0.01139817209 0)
(0.001511168914 0.01139352373 0)
(0.001510586854 0.0114771404 0)
(0.001422534659 0.0114766967 0)
(0.001423124408 0.0113931034 0)
(-1.657872759e-05 0.01140743656 0)
(-1.577057828e-05 0.01144914413 0)
(-1.52428706e-05 0.01149085839 0)
(-0.0001014495978 0.01148954265 0)
(-0.0001029187445 0.01140618255 0)
(-0.001420173528 0.01139442884 0)
(-0.0014180838 0.01156127024 0)
(-0.001415923865 0.01172806524 0)
(-0.001769904766 0.01172580891 0)
(-0.001773772546 0.01139201061 0)
(-0.001597039232 0.01139323503 0)
(-0.002711437619 0.01087716471 3.430589146e-13)
(-0.002670435889 0.0110375957 3.381739333e-13)
(-0.002825072306 0.01037624435 3.179262409e-13)
(-0.002895565018 0.01032183438 3.255590242e-13)
(-0.002869053141 0.007671168156 2.419592304e-13)
(-0.002767390664 0.007621027401 2.335215354e-13)
(-0.002555035599 0.006496191382 1.990352327e-13)
(-0.002661723999 0.006570738517 2.072508831e-13)
(-0.00160318742 0.003217158162 1.014327511e-13)
(-0.001506711491 0.00311365029 9.536815782e-14)
(-0.001099692322 0.002139186285 6.551703624e-14)
(-0.001184536282 0.002237638912 7.054079543e-14)
(-0.0001678157109 0.0002694747547 8.493206138e-15)
(-0.0001364114828 0.0002255404981 6.911138328e-15)
(-1.081198292e-05 1.702310629e-05 5.273559367e-16)
(-2.065734661e-05 3.158883181e-05 9.992007222e-16)
(0 0 0)
(0 0 0)
(0 0 0)
(0 0 0)
(0 0 0)
(0 0 0)
(0 0 0)
(0 0 0)
(0 0 0)
(0 0 0)
(0 0 0)
(0 0 0)
(0 0 0)
(0 0 0)
(0 0 0)
(0 0 0)
(0 0 0)
(0 0 0)
(0 0 0)
(0 0 0)
(0 0 0)
(0 0 0)
(0 0 0)
(0 0 0)
(0 0 0)
(0 0 0)
(0 0 0)
(0 0 0)
(0.0002086151639 0.0003539388402 9.478529073e-15)
(0.0002357438814 0.0003899726997 1.071365219e-14)
(0.0002519048891 0.0004060273253 1.144917494e-14)
(0.001013512998 0.001796812315 5.066780329e-14)
(0.0009808822372 0.001784700715 4.904410211e-14)
(0.001460182829 0.002796766887 7.68274333e-14)
(0.001499304513 0.00279808823 7.88813459e-14)
(0.002934961899 0.006506342569 1.833672103e-13)
(0.00288633247 0.006567156576 1.803418526e-13)
(0.003251789074 0.007892683253 2.167155344e-13)
(0.003299809276 0.007803396155 2.199074256e-13)
(0.003765598633 0.01112826134 3.135408599e-13)
(0.00373069086 0.01131718265 3.107097912e-13)
(0.003662902209 0.01211782673 3.326922071e-13)
(0.003690129316 0.01189223064 3.350791866e-13)
(0.002883459273 0.01274234412 0)
(0.002882156191 0.01307729719 0)
(0.002525542041 0.01307590984 0)
(0.00252619343 0.01290847221 0)
(0.002526845123 0.01274095677 0)
(0.001457018233 0.01273679478 0)
(0.00145636654 0.01290431022 0)
(0.001278067246 0.01290361657 0)
(0.001278393243 0.01281981995 0)
(0.001278718938 0.01273610113 0)
(0.001367868586 0.01273644795 0)
(3.058522912e-05 0.01273124546 0)
(3.025938522e-05 0.01281496428 0)
(2.993331313e-05 0.0128987609 0)
(-0.00014837146 0.01289806724 0)
(-0.0001477197676 0.0127305518 0)
(-0.001395848286 0.01272569615 0)
(-0.001397151368 0.01306064922 0)
(-0.001746962978 0.01300934691 3.577416141e-13)
(-0.001751057784 0.01271425217 3.588379593e-13)
(-0.002548622711 0.01147570395 3.239075674e-13)
(-0.002489728619 0.01152462625 3.169964291e-13)
(-0.00258629346 0.01063337652 2.924882558e-13)
(-0.002658611959 0.01063574072 3.002181836e-13)
(-0.002411178813 0.007224989444 2.039063363e-13)
(-0.00231434909 0.007123212019 1.958988527e-13)
(-0.002051391809 0.005826288815 1.602051825e-13)
(-0.002192314126 0.006062904232 1.710992459e-13)
(-0.001136419146 0.002553414391 7.203959651e-14)
(-0.0009899056385 0.002284039601 6.278311204e-14)
(-0.0006711696569 0.001457274218 4.005129561e-14)
(-0.0007650023916 0.001617734114 4.563016631e-14)
(-2.807725664e-05 5.044307585e-05 1.429412144e-15)
(-1.26816648e-05 2.338984481e-05 6.383782392e-16)
(0 0 0)
(0 0 0)
(0 0 0)
(0 0 0)
(0 0 0)
(0 0 0)
(0 0 0)
(0 0 0)
(0 0 0)
(0 0 0)
(0 0 0)
(0 0 0)
(0 0 0)
(0 0 0)
(0 0 0)
(0 0 0)
(0 0 0)
(0 0 0)
(0 0 0)
(0 0 0)
(0 0 0)
(0 0 0)
(0 0 0)
(0 0 0)
(0 0 0)
(0 0 0)
(0 0 0)
(0 0 0)
(0 0 0)
(0 0 0)
(4.874715879e-05 9.096455042e-05 2.220446049e-15)
(8.844113887e-05 0.0001612901179 4.024558464e-15)
(0.0001313793064 0.000234031474 5.967448757e-15)
(0.000751900519 0.001473097474 3.758104938e-14)
(0.0006426078882 0.001288848678 3.212707878e-14)
(0.001044582684 0.002205367637 5.495603972e-14)
(0.001181183816 0.00243601501 6.21447338e-14)
(0.002528916483 0.006195699204 1.58012492e-13)
(0.002345628395 0.005882687994 1.465494393e-13)
(0.002710137578 0.007251038682 1.806194083e-13)
(0.002895476802 0.007567761517 1.929845173e-13)
(0.003457871481 0.01129872366 2.880889971e-13)
(0.003305952122 0.01105875356 2.754324546e-13)
(0.00331077946 0.01208038346 3.008704397e-13)
(0.00344060792 0.01226242232 3.126665593e-13)
(0.002847467049 0.01393007582 3.552436123e-13)
(0.002799684937 0.01402585359 3.493733081e-13)
(0.002499235047 0.01429375717 3.560762796e-13)
(0.002520149379 0.01407254194 3.589073483e-13)
(0.001451805299 0.01407676268 0)
(0.001450501914 0.01441179356 0)
(0.001093895545 0.01441040624 0)
(0.001095198929 0.01407537536 0)
(0.001273506005 0.01407606904 0)
(2.53720397e-05 0.01407121337 0)
(2.406865495e-05 0.01440624425 0)
(-0.000332540049 0.01440485692 0)
(-0.0003312366642 0.01406982604 0)
(-0.001388312762 0.01394030546 3.559097461e-13)
(-0.001367520864 0.01405042295 3.503863866e-13)