/*--------------------------------*- C++ -*----------------------------------*\
| =========                 |                                                 |
| \\      /  F ield         | OpenFOAM: The Open Source CFD Toolbox           |
|  \\    /   O peration     | Version:  v1912                                 |
|   \\  /    A nd           | Website:  www.openfoam.com                      |
|    \\/     M anipulation  |                                                 |
\*---------------------------------------------------------------------------*/
FoamFile
{
    version     2.0;
    format      ascii;
    class       surfaceVectorField;
    location    "0.4";
    object      Uf;
}
// * * * * * * * * * * * * * * * * * * * * * * * * * * * * * * * * * * * * * //

dimensions      [0 1 -1 0 0 0 0];


internalField   nonuniform List<vector> 
25162
(
(99.99900901 0.004103614947 -1.741676093e-21)
(99.9961569 0.00367870535 5.162483268e-21)
(99.99844075 0.01006685445 -1.719811172e-21)
(99.99441793 0.0126818066 1.742960741e-21)
(99.99733464 0.02021321226 -3.429954273e-21)
(99.99050417 0.0274437723 1.035386392e-20)
(99.9987261 0.02336955144 1.059551171e-21)
(99.98356773 0.05160340569 -6.814865362e-21)
(99.99276773 0.05218280665 -1.14007431e-21)
(99.99783299 0.04279072974 1.649842898e-21)
(99.99930991 0.02568271829 8.170037563e-22)
(99.99153828 0.07232870105 1.64014847e-21)
(99.9980556 0.04120011482 8.018258927e-22)
(99.99856374 0.0321503839 -8.272968524e-22)
(99.99757937 0.05258368395 8.017931438e-22)
(99.98678231 0.118522439 1.596170134e-21)
(99.99733325 0.06671844397 0)
(99.99717085 0.08237666074 -2.925379099e-21)
(99.98254748 0.1823575297 -2.925363874e-21)
(99.99676536 0.1010447027 -7.585502e-22)
(99.99629627 0.1226916548 2.549372352e-21)
(99.97702715 0.2688755011 2.781622802e-21)
(99.99585291 0.1472869377 3.427024627e-22)
(99.99548744 0.1745097123 -2.262527369e-21)
(99.97266818 0.3775366197 3.246580763e-22)
(99.99524574 0.2037582345 -2.303102913e-21)
(99.99519356 0.2340781034 2.586677928e-22)
(99.97205842 0.4980705797 -1.527447248e-21)
(99.99540335 0.2639763952 2.050215775e-21)
(99.99591603 0.2917177835 1.741018308e-21)
(99.9779679 0.6082922866 -7.647036254e-22)
(99.99673631 0.3153438194 0)
(99.99782978 0.3329568441 0)
(99.99054337 0.6784211154 1.575201427e-22)
(99.99914613 0.3430969665 0)
(100.0005604 0.3450025246 4.16381369e-22)
(100.0061627 0.6859086853 -7.322111039e-24)
(100.0018488 0.338433399 8.846505168e-22)
(100.0029037 0.324604503 -2.128164259e-22)
(100.018547 0.6310659509 -5.541493677e-22)
(100.0037084 0.3047595095 -9.938315805e-22)
(100.0042347 0.2806559455 7.835482672e-23)
(100.0249447 0.5353521485 1.591096317e-21)
(100.0044929 0.2539898694 4.073236752e-22)
(100.0045097 0.2263156884 0)
(100.0255473 0.4252878151 0)
(100.0043511 0.1990008388 0)
(100.0041938 0.1729223927 6.814207444e-22)
(100.0223753 0.3218078792 1.408586983e-21)
(100.0042984 0.1490034406 -3.451766934e-21)
(100.0041916 0.1258156053 -1.287811828e-21)
(100.0189626 0.2304754616 2.8024931e-21)
(100.003632 0.1055496858 2.802283975e-21)
(100.0027206 0.08839349642 -7.911669101e-22)
(100.0114856 0.1603086023 -4.372607616e-23)
(100.0007388 0.07612425505 1.541000441e-21)
(100.0074485 0.07523764544 -6.903473069e-21)
(100.0419453 0.1839430521 3.886029035e-22)
(100.0148922 0.1642096905 -2.464796068e-21)
(100.0024907 0.07579492362 -1.446354553e-21)
(100.0053385 0.04397172232 -8.698250101e-22)
(100.0292408 0.1145911748 1.378434831e-20)
(100.0044861 0.02078780115 -6.98899847e-21)
(100.0217837 0.0615750866 -1.469813708e-20)
(100.0195905 0.0195345772 1.27839301e-21)
(99.99078699 0.01136157253 8.619166981e-21)
(99.98547894 0.005840561569 2.05445567e-22)
(99.98522909 0.02814288448 1.376529462e-20)
(99.97868878 0.02065513515 -1.205497901e-20)
(99.9748179 0.05645392837 7.136442376e-21)
(99.96401026 0.04603868553 -1.87054604e-20)
(99.96919292 0.09191988336 -1.219200465e-21)
(99.93910528 0.08850834916 3.59703199e-20)
(99.94769512 0.1160985129 -7.91783771e-21)
(99.95396843 0.1185244278 -1.697270011e-21)
(99.96483046 0.1181586694 3.340139316e-21)
(99.97852241 0.08362032703 1.661893827e-21)
(99.96579506 0.1412542045 1.622676555e-21)
(99.95467669 0.1539695095 1.650671681e-21)
(99.92377561 0.2036332786 -3.336818644e-21)
(99.94315279 0.1988890478 -1.844990984e-23)
(99.94677012 0.2307158746 1.596420633e-21)
(99.92946226 0.2544539586 -1.50048512e-23)
(99.88417744 0.3329337238 0)
(99.92215721 0.2995427 0)
(99.90102753 0.3432176813 -1.982045044e-21)
(99.9262494 0.3478386492 -3.897085168e-21)
(99.91691278 0.3660136901 -4.487101864e-23)
(99.89318229 0.4234290874 -8.764631735e-21)
(99.90987746 0.4013221894 -3.013270481e-21)
(99.88677423 0.5468331718 2.740939961e-23)
(99.9018232 0.5167675876 -1.97628727e-21)
(99.85620788 0.6327499835 -1.083664655e-20)
(99.88055587 0.595547943 -2.640891399e-21)
(99.86085981 0.78183112 -4.938543643e-21)
(99.8820749 0.732392161 -4.650028535e-21)
(99.82544551 0.9021298386 4.544850993e-22)
(99.85736039 0.842300492 -5.923616823e-21)
(99.85103939 1.054150663 -4.605571305e-23)
(99.87881332 0.9770179973 -3.86366976e-21)
(99.8164064 1.211570859 -3.88318907e-21)
(99.8540437 1.120777677 -2.897665065e-21)
(99.87266593 1.319587675 -4.625967926e-21)
(99.90420849 1.20731687 -6.517375182e-21)
(99.84768737 1.507565752 -3.867485455e-21)
(99.88492 1.379864075 -2.571933323e-21)
(99.93175099 1.509736313 -2.067597297e-21)
(99.96002384 1.361222193 -2.090816316e-21)
(99.92438001 1.709598321 -2.080929477e-22)
(99.95130782 1.547704137 -1.589040781e-21)
(100.011474 1.563438584 8.783842983e-23)
(100.0244949 1.38723026 -2.318362176e-22)
(100.0224592 1.748579574 -4.269262833e-23)
(100.0308939 1.565409566 -6.266762874e-22)
(100.0833591 1.471499288 -2.218314126e-22)
(100.0688358 1.283193322 -1.998400201e-22)
(100.104337 1.619639656 -7.060925501e-23)
(100.0965253 1.433331389 1.804522941e-21)
(100.1258308 1.269397317 2.084054839e-21)
(100.0921591 1.091387645 3.62639619e-21)
(100.149242 1.377084779 3.622706299e-21)
(100.130175 1.208202199 4.706538127e-22)
(100.1359145 1.020472695 -5.873790336e-21)
(100.0943925 0.8678362606 -5.479603194e-21)
(100.1567471 1.093575994 -1.979557605e-21)
(100.1333921 0.9536770962 -1.94947003e-21)
(100.1221339 0.7796496343 -4.675168278e-21)
(100.0799766 0.6579769938 4.302932069e-22)
(100.1355871 0.8254808273 -1.253729456e-21)
(100.1158256 0.7201138675 5.112176035e-21)
(100.0764092 0.4566471213 -1.191814406e-20)
(100.1216022 0.6210116443 -1.191721804e-20)
(100.1712162 0.6737438212 1.204760629e-20)
(100.1057593 0.5195505076 -2.444635581e-20)
(100.0900214 0.4317722873 1.051019337e-20)
(100.1253673 0.4622540265 -1.500583242e-20)
(100.0740213 0.3569351337 2.140417878e-20)
(100.0553493 0.3149892841 2.378401397e-20)
(100.070357 0.2193799774 2.047758034e-20)
(100.1586842 0.3443226396 -1.897264409e-22)
(100.1209434 0.3843762987 4.282006406e-20)
(100.0712718 0.3029113499 2.335149002e-21)
(100.0514889 0.1289239792 -7.082716129e-22)
(100.1141232 0.213662353 2.94067445e-20)
(100.0418225 0.05961694604 -6.840254537e-21)
(100.0871261 0.1148425493 -1.559480129e-20)
(100.0758242 0.03636901578 6.98768433e-21)
(99.97542373 0.01417945468 -2.069106571e-20)
(99.97209403 0.005109993334 -1.034086006e-20)
(99.96014395 0.03653237186 -4.480439695e-20)
(99.95764266 0.01959491565 9.730898576e-21)
(99.93223918 0.07593200019 9.438046695e-21)
(99.92703914 0.04828892855 -3.792818842e-20)
(99.90231613 0.1359135211 2.290656038e-20)
(99.87690285 0.09877345272 4.123736829e-20)
(99.86923353 0.149043135 -3.654830127e-20)
(99.91640134 0.146990054 -6.780449688e-21)
(99.87079437 0.1655608879 -5.037933686e-20)
(99.88208975 0.1847032589 -3.40147235e-21)
(99.86693346 0.2561419561 -6.654078002e-21)
(99.85159042 0.2455814582 -3.317528372e-21)
(99.79678185 0.2957477042 2.326007229e-20)
(99.81568591 0.3207181172 6.557818437e-21)
(99.7989501 0.4233334596 -5.763636496e-21)
(99.77368171 0.4132663549 4.238298851e-21)
(99.6927952 0.4971681139 -3.279956859e-20)
(99.74765678 0.5085756989 2.284186203e-21)
(99.70672931 0.5450150441 -1.42458953e-20)
(99.73286291 0.6390059419 -5.891092182e-21)
(99.7126239 0.6361358029 0)
(99.66324026 0.7017946828 6.090946086e-21)
(99.68785919 0.7105556229 -5.873135311e-21)
(99.63920435 0.9725411628 2.876072997e-21)
(99.60851708 0.9764450414 1.127346444e-20)
(99.54365626 1.075761108 5.587630937e-21)
(99.58215734 1.07859806 1.400842362e-20)
(99.55533773 1.412583612 0)
(99.51012632 1.431584586 0)
(99.43375709 1.574943288 0)
(99.49114849 1.561578476 0)
(99.52306721 1.936335477 1.069066357e-21)
(99.46194276 1.985284396 5.087913191e-21)
(99.38744152 2.178186345 -1.997772176e-24)
(99.4652182 2.130070703 -6.269601092e-21)
(99.59857074 2.453726647 1.712281859e-20)
(99.52880612 2.550857993 5.612551108e-21)
(99.48279201 2.778634723 1.199079375e-20)
(99.56944041 2.67418928 6.19615242e-21)
(99.80276213 2.811739531 2.122228371e-21)
(99.74369956 2.967991999 3.655612483e-21)
(99.74553343 3.202034162 -1.275065215e-21)
(99.81542061 3.028669707 1.450519019e-21)
(100.0698856 2.882808143 2.197101149e-22)
(100.044693 3.087709406 -1.163549713e-22)
(100.0934078 3.284928699 4.385256183e-22)
(100.1190508 3.062224885 2.196657699e-22)
(100.294847 2.65576025 -4.493378034e-22)
(100.3112043 2.876969259 3.901806836e-22)
(100.3834214 3.013896394 1.952603147e-21)
(100.3609879 2.782182313 9.108945764e-21)
(100.4122968 2.232726038 4.23049419e-21)
(100.4602056 2.440643716 3.374010351e-21)
(100.5331397 2.522021351 -1.700496817e-22)
(100.47679 2.311408783 7.099265231e-21)
(100.4251382 1.747031546 -5.44791873e-21)
(100.4859913 1.919798448 -1.266697703e-20)
(100.5460991 1.961064955 -4.417206837e-21)
(100.478194 1.790471213 4.924417018e-21)
(100.4346164 1.429374145 -1.556241825e-20)
(100.3754979 1.295919141 -1.049753338e-20)
(100.4798407 1.445050311 -1.051168973e-20)
(100.4180557 1.317667642 5.598449818e-21)
(100.3026 0.8773156585 -4.706847013e-20)
(100.4029394 1.069604032 -2.46387098e-20)
(100.4713208 1.063145647 -7.138599598e-20)
(100.3523231 0.8900335425 -3.351526412e-20)
(100.2245805 0.5984478677 -5.417648002e-20)
(100.30371 0.7346626217 2.148908315e-20)
(100.3492016 0.7187126374 -2.570527776e-20)
(100.2582829 0.6019930836 -2.249307699e-20)
(100.1966976 0.3355191244 9.154784221e-21)
(100.3379499 0.4605984134 -2.329319989e-20)
(100.3126413 0.5559556817 -1.596191634e-22)
(100.2338186 0.4971212582 -1.333747485e-20)
(100.1452707 0.1964842926 1.376403557e-20)
(100.2449385 0.2829226416 2.45240391e-20)
(100.1174221 0.09042139575 -1.755730734e-21)
(100.1871925 0.1512926361 -3.547456559e-21)
(100.1611 0.04767271052 0)
(99.95805327 0.009821996784 2.077512775e-20)
(99.96284337 0.0004120720861 -3.46518528e-21)
(99.92920041 0.02972044806 1.746399041e-20)
(99.93890832 0.006052461025 2.426076434e-20)
(99.87725752 0.07063296048 -6.94616482e-21)
(99.88852752 0.02827296522 -3.438262019e-21)
(99.81011136 0.1492928663 0)
(99.80559518 0.07419507061 5.292401825e-21)
(99.77240321 0.1438688108 1.608342011e-20)
(99.8192926 0.1738784138 -4.704289804e-20)
(99.76331037 0.1700539027 1.209214933e-20)
(99.7656694 0.2088926541 0)
(99.71577261 0.3197018251 2.228304869e-22)
(99.70607719 0.2846690652 -2.673230025e-20)
(99.62645836 0.32579625 -2.671431668e-20)
(99.63475337 0.380234465 5.420197832e-20)
(99.56958435 0.5493075097 -8.058217528e-20)
(99.55052094 0.4994799638 2.898540928e-20)
(99.43287562 0.5732875764 -5.387557637e-20)
(99.47973583 0.6418992333 -2.684105759e-20)
(99.42401755 0.6526883955 -4.402649532e-20)
(99.40980193 0.8506961824 6.346653396e-21)
(99.38942238 0.8200503284 1.261591866e-20)
(99.31203553 0.8846898014 3.188059209e-20)
(99.33398266 0.9245822212 6.2929813e-21)
(99.18759267 1.338844902 -1.487616325e-21)
(99.15169871 1.303535759 7.844179611e-23)
(99.04667684 1.406942042 -2.876516495e-21)
(99.08783668 1.454118619 -2.920102537e-21)
(98.96443548 2.019821106 1.344222791e-21)
(98.90161202 1.987547983 2.78675415e-21)
(98.77305335 2.146732747 7.304370038e-21)
(98.84810151 2.191573834 -4.086332461e-21)
(98.85169274 2.87634404 -1.26727106e-21)
(98.75060567 2.867898922 3.041993097e-21)
(98.62234528 3.097074726 -2.625367843e-21)
(98.74596807 3.11202384 -2.005825499e-21)
(98.99638791 3.801153254 -4.066339009e-22)
(98.8571716 3.85845214 3.888629986e-21)
(98.77545156 4.163450348 -1.656829687e-20)
(98.94447195 4.093336801 -1.016389305e-20)
(99.49921372 4.494813166 3.973641213e-21)
(99.36062712 4.660631883 -5.029078416e-21)
(99.38571636 4.981967699 -3.508511636e-21)
(99.54092688 4.780754256 4.743180466e-21)
(100.1962317 4.618055043 1.43142878e-22)
(100.1239737 4.878721284 -6.028994127e-22)
(100.2473367 5.120116985 2.58790868e-22)
(100.3098459 4.823250018 -5.876167756e-22)
(100.7516653 4.157399787 -1.869974236e-21)
(100.7686371 4.443719745 -3.505514328e-22)
(100.919476 4.568423455 -6.938834994e-22)
(100.8796321 4.263963216 5.75947393e-21)
(101.0065802 3.390381653 -1.908932029e-21)
(101.0834865 3.644307146 1.488179548e-21)
(101.2106701 3.681480342 8.824968258e-21)
(101.1128755 3.426123871 -9.668304515e-22)
(101.0123298 2.579155854 3.959026787e-20)
(101.1134192 2.781780142 -1.954924593e-20)
(101.2044735 2.768091199 -7.60674446e-20)
(101.0896389 2.575186871 1.861009449e-19)
(100.9748574 2.007773173 0)
(100.8762831 1.857680645 4.179001831e-20)
(101.0353046 1.980515748 0)
(100.9288587 1.838697845 0)
(100.6761037 1.224654106 2.610729614e-20)
(100.8439478 1.43384197 1.678360186e-20)
(100.9145628 1.354907067 -1.504333508e-20)
(100.7327941 1.179592386 3.281207349e-20)
(100.4996504 0.8186262119 -3.000086711e-20)
(100.6295725 0.9626993999 -1.339408125e-20)
(100.6725465 0.8946362468 -1.351434484e-20)
(100.5357761 0.7784324417 -6.508205883e-21)
(100.3746508 0.4049189954 -8.262703576e-21)
(100.560906 0.5117311226 -1.758203321e-20)
(100.5766767 0.655222238 -2.343580672e-21)
(100.4724782 0.6286645148 4.961032442e-21)
(100.2771284 0.23505718 7.064634368e-21)
(100.4050935 0.3098412552 1.07490906e-20)
(100.2226968 0.1072990429 -1.791408841e-21)
(100.3076874 0.1633279345 -3.16617002e-21)
(100.2622925 0.05099448032 -4.56179779e-22)
(99.94772541 -0.003619212482 0)
(99.96627087 -0.00880162209 0)
(99.90329651 0.00362895504 3.498202243e-21)
(99.93212165 -0.02171346135 0)
(99.82328208 0.03294592326 8.847329914e-21)
(99.86096434 -0.01758218846 -3.01626334e-21)
(99.71113406 0.1134370779 1.512810317e-20)
(99.74195066 0.01045849931 1.953865496e-20)
(99.67493547 0.08792285384 -5.865202426e-21)
(99.70886228 0.1531401439 2.081975893e-20)
(99.65029277 0.1224443341 1.687672953e-21)
(99.6359528 0.1759527205 -8.412110658e-21)
(99.53266102 0.3119040486 0)
(99.53889077 0.2551137823 -1.744198016e-20)
(99.43803519 0.2763916918 -1.430529991e-20)
(99.42255922 0.3562064545 3.556237134e-21)
(99.28495695 0.5659703585 0)
(99.28479254 0.4854287858 3.555856392e-21)
(99.13259257 0.527118612 -3.664662581e-21)
(99.14905362 0.6546339385 1.774305385e-20)
(99.08764714 0.6413771816 4.573991028e-21)
(98.98988099 0.9229690262 3.364452475e-19)
(98.98126609 0.8625787764 1.315638808e-19)
(98.87464456 0.9133369759 7.673243931e-20)
(98.88216764 0.9851140277 1.852629402e-19)
(98.5651455 1.5310581 -1.311804966e-19)
(98.54003969 1.449020059 -3.077370164e-21)
(98.39038314 1.536073341 -1.068641074e-19)
(98.41438657 1.638392453 -7.901841585e-20)
(98.10131694 2.420821551 -1.955426653e-20)
(98.03867757 2.320631966 -1.943834486e-20)
(97.84336996 2.469769744 -1.966565255e-20)
(97.9160609 2.595036722 -1.964787543e-20)
(97.73920518 3.696550766 1.046427204e-20)
(97.60344678 3.594291173 5.815636541e-21)
(97.37005558 3.860713177 6.433460821e-20)
(97.54040881 3.98708979 1.196305634e-20)
(97.85529725 5.324901071 2.092964296e-20)
(97.60644749 5.299325933 1.874035616e-20)
(97.43259405 5.73472427 -2.804103499e-20)
(97.74802605 5.749566927 7.419505333e-20)
(98.90251589 6.706683402 -1.688247943e-20)
(98.60480956 6.89550243 -6.646600204e-21)
(98.67395239 7.404137538 1.142354761e-20)
(99.01292309 7.138803115 -1.969096465e-20)
(100.4954172 6.888004067 2.533847346e-21)
(100.3430104 7.276908463 5.190838838e-21)
(100.6293592 7.593952596 8.390015555e-21)
(100.7489726 7.133380227 -2.886164769e-21)
(101.6239961 5.911990351 -1.797916828e-20)
(101.6650658 6.318275068 1.553574634e-21)
(101.950142 6.394740188 3.200061707e-20)
(101.8586798 5.970641736 -1.021912128e-19)
(102.0090165 4.532550273 2.706609091e-20)
(102.1514763 4.855569572 1.603380934e-19)
(102.3537031 4.806359984 1.222803224e-19)
(102.1718824 4.492561161 -3.014362864e-21)
(101.9046892 3.275856585 2.31183117e-20)
(102.0694923 3.502046715 -2.367526078e-20)
(102.1813292 3.417205441 -4.938428377e-20)
(101.9990131 3.207156373 1.578690654e-21)
(101.7407795 2.434942416 -4.094960258e-22)
(101.5922795 2.279383202 -3.404627447e-21)
(101.8022559 2.349028703 1.631088781e-20)
(101.6450506 2.211042909 1.991839989e-20)
(101.1829539 1.447338754 -8.462379023e-20)
(101.4286319 1.654841974 -5.359560442e-20)
(101.477943 1.495384552 -2.997072788e-20)
(101.2285674 1.340667087 -1.546213923e-20)
(100.8639875 0.942578138 1.043431421e-20)
(101.0481995 1.077944368 3.140846943e-20)
(101.0695106 0.9590789087 -3.545877925e-21)
(100.8892497 0.8590372358 -3.451187798e-21)
(100.5809111 0.4162264987 1.830917772e-21)
(100.8065689 0.4791331687 0)
(100.8855406 0.6757795195 -1.021442195e-22)
(100.7689857 0.6781782425 -9.410795156e-21)
(100.4261756 0.2359089864 4.081841919e-22)
(100.5751458 0.2845007806 1.830752708e-21)
(100.3389401 0.106006812 -1.835865252e-21)
(100.4302172 0.1453990181 -1.838350498e-21)
(100.362278 0.04468076257 -1.850362977e-21)
(99.95448839 -0.02677615201 0)
(99.9915449 -0.02251036715 1.714424281e-21)
(99.8945375 -0.04313265482 -7.009532251e-21)
(99.94761296 -0.06354173806 -1.727071479e-21)
(99.78613171 -0.03911600779 7.243149376e-21)
(99.85730087 -0.0894571754 -3.487928641e-21)
(99.62361526 0.0216410629 9.502912946e-21)
(99.70487542 -0.09348622815 2.502148983e-21)
(99.59582248 -0.02056860293 1.373901531e-23)
(99.6036582 0.07661445479 -7.046320348e-21)
(99.55078422 0.01713923046 -7.10777739e-21)
(99.51458054 0.07786900893 0)
(99.34718098 0.2182473019 -1.430494677e-20)
(99.3783676 0.145592785 0)
(99.26419093 0.1377686899 -8.33637219e-23)
(99.2137174 0.2343009831 -5.665013563e-23)
(98.98024747 0.4560744405 7.366253231e-21)
(99.01548785 0.3503154439 1.106194029e-20)
(98.83834464 0.3525824498 1.489327135e-20)
(98.80720325 0.5219654887 -1.157259418e-20)
(98.74934498 0.4818167131 -1.195725304e-20)
(98.52797247 0.8122170396 -1.419877568e-20)
(98.54524011 0.7290991257 -1.412069257e-20)
(98.41492259 0.7526258701 -2.862856775e-20)
(98.39013465 0.8495048044 -5.699032622e-20)
(97.84432032 1.429104412 -2.257947986e-21)
(97.85185774 1.307224933 7.674018399e-21)
(97.66726153 1.351640993 3.03079865e-20)
(97.65295176 1.494703472 -3.106374774e-20)
(96.98585385 2.416568713 -3.117973256e-20)
(96.96331286 2.228850268 -2.314505135e-20)
(96.68164508 2.325940322 -1.507003736e-20)
(96.70412227 2.550029233 -1.513639272e-19)
(96.01051849 4.123263214 -9.183897121e-20)
(95.88810915 3.862001992 5.777189709e-20)
(95.48057086 4.090947854 7.372509826e-20)
(95.63374193 4.433485232 -1.254937373e-19)
(95.61138528 6.963612253 6.003361428e-20)
(95.20640338 6.698470021 6.719064107e-21)
(94.74288026 7.316723567 8.227477651e-20)
(95.3051696 7.630060951 -6.986852312e-20)
(97.62605702 10.11920901 -2.735611145e-20)
(96.92980458 10.33924657 -2.552673399e-20)
(97.08371155 11.34389422 -5.864838976e-20)
(97.9092485 10.91940047 -1.783586787e-20)
(101.3758138 10.23371452 4.841620704e-20)
(101.1058726 10.95119052 -1.26192644e-20)
(101.8203066 11.34589024 5.709520995e-20)
(101.9583917 10.48696562 -3.596082129e-20)
(103.372022 7.912960368 2.198164439e-19)
(103.5287713 8.522349659 1.027478576e-19)
(104.0449753 8.429464105 -6.440159226e-20)
(103.7731829 7.825988809 -1.922375432e-20)
(103.6350773 5.530947128 8.453282648e-20)
(103.912683 5.919817447 3.107082482e-20)
(104.1569117 5.716026183 8.735146803e-20)
(103.8331109 5.364187084 -2.856152015e-20)
(103.1501747 3.716716773 -2.97030588e-20)
(103.4128291 3.951877806 1.576669547e-23)
(103.5180443 3.760836546 -9.393444227e-20)
(103.2399843 3.559624696 -2.974671208e-20)
(102.7039605 2.58800339 2.841662241e-20)
(102.4920279 2.448556549 0)
(102.743368 2.439175476 -4.594189519e-22)
(102.5300265 2.321797846 -4.421541422e-20)
(101.792988 1.491260372 2.453537428e-20)
(102.1144267 1.662673109 -2.002250733e-22)
(102.113847 1.426145818 1.499822708e-20)
(101.8006458 1.320774481 1.115063751e-20)
(101.2794435 0.9385735746 -1.472353994e-20)
(101.5178794 1.041315001 -7.510502836e-21)
(101.4927951 0.8767320114 -7.511957891e-21)
(101.2734193 0.8144902842 1.146937017e-20)
(100.7888693 0.3523033882 0)
(101.0440864 0.3556350946 1.222337032e-21)
(101.1927651 0.5750184715 -1.012931699e-20)
(101.0824422 0.6332454173 2.509304293e-20)
(100.5687654 0.1922716617 -4.638733381e-22)
(100.7260455 0.199556447 -1.445487206e-21)
(100.4452637 0.08384259177 -1.860241078e-21)
(100.5324671 0.09456550512 -2.111306675e-21)
(100.4413526 0.02802288223 2.38981666e-21)
(99.9879962 -0.05882650506 -1.210109429e-23)
(100.0470463 -0.04013474304 5.247337079e-23)
(99.91443373 -0.1090208641 1.7918874e-21)
(99.99500673 -0.1174616498 -6.274946517e-23)
(99.78126815 -0.1427285687 -9.384599058e-21)
(99.88920762 -0.1836144457 1.404672327e-21)
(99.56951373 -0.1172783525 -8.504771719e-21)
(99.70980067 -0.2326680103 -1.427895633e-20)
(99.55912432 -0.1781291508 -1.214559259e-20)
(99.52427562 -0.05746821231 -6.707191718e-21)
(99.49230065 -0.1436950286 -2.644997443e-21)
(99.42783565 -0.08325219512 2.951629724e-23)
(99.19379319 0.03604113171 1.07837558e-20)
(99.25647471 -0.04304446627 1.09508979e-20)
(99.13983868 -0.08522688138 5.403578507e-21)
(99.04902695 0.01425378769 1.861850034e-20)
(98.71435816 0.2164948893 -1.875247153e-20)
(98.79661558 0.09409356429 -1.500977033e-20)
(98.61323845 0.04986265368 -4.973510612e-20)
(98.51147234 0.2340504959 -1.509131464e-20)
(98.46873525 0.17156184 3.586521374e-21)
(98.10590382 0.4972601669 -3.77696372e-20)
(98.15871192 0.4020248015 -1.545527329e-20)
(98.01809643 0.388489269 1.509491495e-20)
(97.9522266 0.495045948 -3.780137011e-20)
(97.17893692 0.9861964031 3.933168151e-20)
(97.23984731 0.8418022935 -6.370693835e-20)
(97.04017087 0.8232138034 4.054919896e-21)
(96.95615624 0.987980608 -3.273510077e-20)
(95.81287733 1.817129671 4.514107031e-20)
(95.88897701 1.57862434 3.659595016e-20)
(95.56142805 1.563718775 3.664513277e-20)
(95.4499262 1.844262217 -1.930296679e-20)
(93.76077903 3.429127687 -1.014465197e-20)
(93.80963294 2.988955452 -1.148737262e-24)
(93.22993291 2.989594704 7.952201747e-20)
(93.12927032 3.555789744 -1.011265884e-20)
(90.97170261 7.48500079 1.614279239e-19)
(90.62512361 6.521661476 2.825323351e-21)
(89.0893171 7.137240109 -1.268391302e-19)
(89.42529174 6.636921456 2.702213271e-19)
(90.05932211 8.532015687 -1.313477862e-19)
(89.37401519 8.313280703 5.368445064e-19)
(92.24309583 16.68377507 1.300918688e-19)
(93.32636756 16.63960111 -6.144612445e-20)
(92.27707811 18.13105057 -1.245632787e-20)
(93.70603635 17.83309847 -4.604270336e-20)
(104.2771011 16.85777737 -2.09452902e-19)
(104.6091898 15.54831828 -1.42971132e-19)
(105.9896102 15.46945133 -4.56505197e-21)
(104.8337379 17.67282411 0)
(106.6035854 16.93503789 0)
(106.1866152 17.4902656 0)
(107.340132 10.56593706 1.086048261e-19)
(106.7853064 9.738634887 -8.118832753e-21)
(107.983351 9.985836532 -1.102052006e-20)
(107.280763 9.295243039 6.62904505e-20)
(106.0208483 5.959964093 1.158314913e-19)
(106.5321654 6.346137893 1.918302595e-19)
(106.7342075 5.892861283 1.175082927e-19)
(106.1922479 5.594706957 1.544090029e-19)
(104.7278681 3.660395442 -3.110121068e-20)
(105.1149063 3.847577194 3.656773374e-20)
(105.1481812 3.53524052 3.654033831e-20)
(104.7629387 3.398753072 -1.067587064e-19)
(103.7880198 2.34381659 -7.087120118e-20)
(103.5074524 2.254584961 3.37955166e-20)
(103.7656759 2.135183269 3.499244389e-20)
(103.4939545 2.067900754 1.721304756e-20)
(102.4280585 1.293350122 3.946427956e-21)
(102.8135453 1.378238969 0)
(102.7198148 1.090006906 -2.295307777e-21)
(102.3699793 1.06845534 -4.143079489e-21)
(101.696634 0.7695015122 4.128301228e-21)
(101.9790297 0.817045622 -1.170724431e-23)
(101.8901036 0.6203932523 -6.716696222e-21)
(101.6407607 0.6118398174 8.358053203e-21)
(100.9640353 0.2082726232 -1.72864282e-22)
(101.2177472 0.1418728925 -2.732099328e-22)
(101.465236 0.3498454506 7.593808541e-22)
(101.370429 0.4351659011 6.095898756e-21)
(100.6787584 0.1017137082 -3.099937345e-21)
(100.8264667 0.05564896058 -2.222140155e-22)
(100.520153 0.03948912357 2.309646512e-21)
(100.5911155 0.01223274771 -2.079134785e-21)
(100.4785894 0.001437367141 3.8295253e-22)
(100.0565688 -0.09806925362 1.272371347e-23)
(100.1395587 -0.06061100209 -2.542288807e-21)
(99.97283019 -0.190232732 -4.628043131e-22)
(100.0819621 -0.18013079 1.104935205e-21)
(99.82153542 -0.2717896041 -3.648644079e-21)
(99.96618969 -0.2936211782 -2.402857444e-21)
(99.56960223 -0.2971749977 7.470202433e-21)
(99.76944973 -0.3964846319 -8.249482794e-22)
(99.58201285 -0.3727280402 7.824006969e-22)
(99.49552722 -0.2420226429 3.649806229e-21)
(99.49498961 -0.3472396654 7.587173571e-21)
(99.40171566 -0.2965246581 5.353412597e-21)
(99.10655713 -0.2221970389 -1.820684331e-21)
(99.2039362 -0.2959156645 2.819508435e-21)
(99.09619658 -0.3717239204 1.861285017e-21)
(98.96448716 -0.2848143048 5.64347331e-21)
(98.54105903 -0.1416687263 1.940158641e-21)
(98.67333816 -0.2596509568 3.106854457e-20)
(98.50195013 -0.351492647 2.853069093e-20)
(98.32902601 -0.1754835798 1.947559507e-20)
(98.31110771 -0.2592944041 1.947146948e-20)
(97.82057548 0.002303483041 5.43273993e-20)
(97.9115083 -0.0881526756 2.301678714e-20)
(97.77973682 -0.1408348807 -6.935943091e-20)
(97.67506515 -0.0455194713 6.530068634e-20)
(96.73367516 0.2380935782 1.439481908e-19)
(96.85737659 0.1037369856 6.835269233e-20)
(96.67352998 0.02282272919 7.206943626e-22)
(96.51843266 0.165029538 6.837517421e-20)
(95.03021113 0.6090869744 3.980367659e-20)
(95.22816984 0.3936987007 -1.602389157e-20)
(94.94261973 0.2600015435 1.18059363e-19)
(94.68958473 0.4829313651 4.098292719e-20)
(92.24453877 1.126909513 1.147900671e-19)
(92.60140082 0.7497120104 0)
(92.18954846 0.4529041909 0)
(91.68054257 0.8076336975 -1.002863068e-19)
(86.72325089 1.360870527 0)
(87.29894547 0.9187059703 0)
(86.91931757 0.3417312726 0)
(86.12183912 0.7269223004 -3.386468687e-21)
(117.4312378 22.18396843 0)
(116.0866896 21.01450029 0)
(118.3184411 20.67841034 0)
(116.934909 19.84594095 0)
(113.6058716 10.06722206 3.253589013e-21)
(112.3013172 9.494051171 2.823676389e-20)
(113.7783176 8.771670735 -2.834481792e-20)
(112.5128555 8.505016288 3.196176478e-20)
(108.9416697 5.09426487 5.047446293e-20)
(109.7136459 5.282173673 3.752009069e-20)
(109.6456889 4.603123284 5.07142039e-20)
(108.9174452 4.537100302 -5.047390165e-20)
(106.3785371 2.844349947 5.331492668e-21)
(106.8736432 2.902487373 -2.167224724e-20)
(106.7534966 2.504179061 1.156376253e-19)
(106.2939986 2.503527944 8.894543151e-20)
(104.8118222 1.601533657 7.693125003e-20)
(104.4809132 1.594321743 1.039272382e-19)
(104.6977494 1.356009735 -6.773643488e-21)
(104.3917118 1.371469149 3.08080962e-20)
(102.9730386 0.8189259223 -4.492222123e-21)
(103.3972706 0.7881505244 4.527310316e-20)
(103.1761207 0.487278796 7.203377078e-21)
(102.8285307 0.5724022799 1.070126642e-21)
(102.0498916 0.4311958411 -1.809455285e-21)
(102.3468741 0.4023793989 1.263076275e-20)
(102.1788505 0.2056030382 4.653634532e-21)
(101.9312651 0.2654819113 9.216893233e-21)
(101.0681672 -0.007653440141 -2.974770802e-22)
(101.2970484 -0.1487711326 -9.804450323e-22)
(101.6388433 0.01088908286 -9.967719573e-22)
(101.5861783 0.1422943109 -1.142929234e-21)
(100.7294482 -0.03225118044 9.917573845e-22)
(100.8495852 -0.1359489592 1.223609561e-21)
(100.5420583 -0.02466857646 -3.968422836e-21)
(100.5839214 -0.09543446021 1.531822014e-21)
(100.4553069 -0.03333470685 -1.9605964e-21)
(100.1663315 -0.1418594077 -1.450045113e-21)
(100.2733759 -0.08254163566 8.031986349e-22)
(100.076923 -0.2810797275 -8.432975852e-22)
(100.2133087 -0.2472317078 -5.992139215e-22)
(99.91597794 -0.4164803314 4.31783251e-22)
(100.0939439 -0.4114459165 -2.129376335e-22)
(99.63678039 -0.5032868384 4.791378256e-22)
(99.89107455 -0.572546191 7.275063155e-22)
(99.67497879 -0.5874489559 4.298576845e-22)
(99.53409654 -0.4607003828 1.261988642e-21)
(99.57117546 -0.576277153 -1.135033795e-23)
(99.45191716 -0.5425206663 -1.135195232e-23)
(99.11078036 -0.5302378624 -1.859067712e-21)
(99.24021703 -0.5883451905 0)
(99.15104429 -0.6939249218 -9.135165617e-22)
(98.98450434 -0.6309235666 -9.641373177e-22)
(98.49839543 -0.573295618 -2.807829789e-21)
(98.67509031 -0.669102435 -3.155339256e-21)
(98.53092554 -0.8007046982 -2.638852677e-21)
(98.29827972 -0.6570667757 3.83585424e-20)
(98.30895508 -0.7500982195 -8.292231397e-20)
(97.73613973 -0.5951295335 1.546967958e-20)
(97.85661782 -0.6657816912 1.570919193e-20)
(97.74748494 -0.7495926204 3.92415943e-20)
(97.61570637 -0.6798774615 7.772181136e-21)
(96.62004347 -0.6429031396 -3.471469972e-20)
(96.78811733 -0.7405177604 6.877472433e-20)
(96.6415634 -0.8616597409 1.372072601e-19)
(96.44460463 -0.7675784082 6.877981169e-20)
(94.92533221 -0.7576659581 -2.454773892e-23)
(95.18526654 -0.8888628705 -4.911010587e-21)
(94.98243263 -1.067608 3.346278853e-20)
(94.68830024 -0.9542678455 -2.516489852e-20)
(92.56729196 -1.195576777 -1.839539482e-19)
(92.97299454 -1.31940389 -1.356740194e-19)
(92.77130841 -1.599893253 -1.811525683e-19)
(92.3491447 -1.537588876 -2.314223085e-20)
(90.2274049 -2.884953186 1.944477695e-19)
(90.52006718 -2.774225273 9.504759693e-20)
(90.57527379 -2.983547904 1.87123766e-19)
(90.34897358 -3.141291982 7.404079862e-22)
(131.5311559 10.03752284 6.347757266e-20)
(129.8994587 10.60106727 1.308820735e-19)
(130.6266276 8.634602876 1.350066399e-19)
(129.2590169 9.272216089 -1.14235966e-19)
(118.8292216 4.667229717 1.582311067e-19)
(117.3185688 5.021986823 3.213545347e-19)
(118.0214265 3.418185592 7.615224365e-20)
(116.7964944 3.926129701 1.619828625e-19)
(111.3414476 2.504709184 8.672335202e-22)
(112.1781343 2.304705351 -9.298280569e-20)
(111.7057991 1.647015464 -9.00133395e-20)