/*--------------------------------*- C++ -*----------------------------------*\
| =========                 |                                                 |
| \\      /  F ield         | OpenFOAM: The Open Source CFD Toolbox           |
|  \\    /   O peration     | Version:  v1912                                 |
|   \\  /    A nd           | Website:  www.openfoam.com                      |
|    \\/     M anipulation  |                                                 |
\*---------------------------------------------------------------------------*/
FoamFile
{
    version     2.0;
    format      ascii;
    class       volVectorField;
    location    "1.88";
    object      U;
}
// * * * * * * * * * * * * * * * * * * * * * * * * * * * * * * * * * * * * * //

dimensions      [0 1 -1 0 0 0 0];


internalField   nonuniform List<vector> 
12556
(
(99.99766434 0.005564980549 -4.592341657e-21)
(99.99713798 0.01817037964 7.1857482e-25)
(99.99555955 0.03658115791 -4.576058708e-21)
(99.99294077 0.06449789484 -4.534838079e-21)
(99.9998989 0.04917044236 4.355517878e-21)
(99.99668854 0.07787955717 0)
(99.99508827 0.121106913 0)
(99.99478257 0.1785156047 -7.388083565e-21)
(99.9936848 0.2507355854 8.469890503e-22)
(99.99333333 0.3324788549 -5.2802394e-21)
(99.99375504 0.4107105544 8.014659236e-22)
(99.99602898 0.4661355768 0)
(100.0011666 0.4807957786 0)
(100.0057659 0.4503070957 1.702905894e-21)
(100.0060803 0.3866910775 -2.156228053e-21)
(100.006525 0.3090837467 1.07366571e-21)
(100.0058223 0.2334623471 0)
(100.0049391 0.1688586739 1.593728714e-21)
(100.004398 0.1163537385 6.511902493e-21)
(100.002348 0.07948290097 -1.783127466e-21)
(100.0086765 0.08787978768 -1.535947238e-20)
(100.0057424 0.05302934892 0)
(100.0040558 0.0276682402 -1.911239467e-21)
(100.0037799 0.008614808885 -1.34386118e-20)
(99.97918798 0.01509472393 1.842416042e-20)
(99.97273434 0.04982244102 4.594135487e-21)
(99.95803467 0.1009337444 3.203293591e-20)
(99.93279762 0.1788945564 -1.371755504e-20)
(99.9395576 0.2335517961 4.392101898e-21)
(99.90203475 0.3735305101 -6.746595468e-23)
(99.85585395 0.5814719382 0)
(99.83405827 0.7591939545 -7.536360989e-21)
(99.79169201 1.079354497 -6.842589442e-21)
(99.77075653 1.454734143 -1.148677317e-20)
(99.79024999 1.822878269 -4.525935397e-21)
(99.85963074 2.096987656 -2.701241931e-21)
(99.96528076 2.18720299 -7.019731172e-22)
(100.0736826 2.066353314 8.683613755e-22)
(100.1444104 1.784173621 -6.965102346e-22)
(100.168905 1.428988237 5.533362013e-21)
(100.1583278 1.077579686 -1.025124009e-20)
(100.1285011 0.7808248741 0)
(100.1269893 0.5665979427 -2.732640849e-20)
(100.0873127 0.3757221767 5.229767185e-20)
(100.0814799 0.2485780624 1.486903194e-20)
(100.0549036 0.1495190467 3.04094026e-20)
(100.0394828 0.07825851265 -3.049954232e-20)
(100.0335406 0.02440260747 1.535005316e-20)
(99.94373169 0.02032642167 -1.838311687e-20)
(99.9253863 0.06816897992 -3.695402214e-20)
(99.88533699 0.1403587931 -8.260119374e-20)
(99.81827349 0.253893797 1.098290636e-19)
(99.79023607 0.3721678386 -9.069731266e-21)
(99.67795316 0.6113386024 -8.73790485e-21)
(99.53402978 0.971742401 -1.5126053e-20)
(99.4657198 1.348972705 0)
(99.3289874 1.970448898 2.84496097e-20)
(99.2667897 2.710719877 -2.487820879e-20)
(99.3440714 3.46590592 -2.596094179e-19)
(99.60327848 4.068638211 0)
(100.013248 4.304541499 -6.867989771e-20)
(100.4128047 4.064493947 0)
(100.6414873 3.439055878 0)
(100.6895835 2.695121295 4.44159878e-21)
(100.6258873 1.999944129 -1.094929529e-20)
(100.5056749 1.414183262 -2.482655693e-20)
(100.4171582 0.9552933365 -1.641626487e-19)
(100.2944548 0.6249075694 -3.59741026e-20)
(100.2235098 0.3702967033 -1.515860455e-20)
(100.1532201 0.2205637626 3.440251479e-20)
(100.1108411 0.1152678666 -3.854543718e-21)
(100.0923447 0.03577872836 0)
(99.90044977 0.0186633243 -9.287315226e-21)
(99.86512742 0.06511456086 6.496289432e-20)
(99.78939446 0.1418965667 -1.859272354e-20)
(99.66557577 0.2663315468 0)
(99.57219339 0.4343739111 0)
(99.35263696 0.7449025139 -7.114547858e-20)
(99.05458231 1.231545078 -1.420171997e-19)
(98.84033386 1.801865689 3.310009508e-20)
(98.52337472 2.711284177 -1.889872928e-19)
(98.33550648 3.839010886 -4.932705698e-19)
(98.41927833 5.101868224 8.602625457e-19)
(98.94569307 6.271963341 0)
(99.94583612 6.863834061 -3.419986917e-19)
(100.9976398 6.471348514 2.522578133e-20)
(101.5661723 5.294994218 -4.868617803e-19)
(101.6014587 3.93453878 -1.735168908e-19)
(101.3859381 2.790935467 1.888534706e-19)
(101.1080108 1.923764297 0)
(100.8543628 1.23475133 5.894585047e-20)
(100.6019607 0.7883253067 -4.512070827e-20)
(100.419439 0.4288400237 -3.867820108e-20)
(100.2887414 0.2520849011 1.951855464e-20)
(100.2078114 0.1293623148 -3.909938628e-21)
(100.1708766 0.03970986913 0)
(99.8661126 0.008427517497 0)
(99.81097952 0.0349713772 0)
(99.69365353 0.09579615701 9.438682619e-21)
(99.5010925 0.2038924925 1.420830916e-20)
(99.3273202 0.3990779189 2.347580938e-20)
(98.96292748 0.736266715 0)
(98.4610567 1.273163216 0)
(98.01969793 1.986369048 0)
(97.41133269 3.120480252 0)
(96.92404752 4.630045351 -3.148315174e-19)
(96.77771243 6.586254699 -1.061456613e-18)
(97.48726399 8.838986209 -3.250745087e-19)
(99.56588431 10.33257807 -5.927670275e-19)
(102.0173566 9.699361194 0)
(103.2128022 7.483315623 -6.282091431e-19)
(103.1101988 5.123711383 -9.341703868e-20)
(102.5026057 3.374442853 -4.318891923e-19)
(101.9114913 2.218618804 -3.453743849e-22)
(101.4064501 1.350041169 -9.575295559e-20)
(100.9784696 0.834921201 7.93268143e-21)
(100.6419442 0.4064078069 0)
(100.4368884 0.2321645755 3.967565205e-21)
(100.3096146 0.1139539065 -2.980183785e-21)
(100.2504761 0.03417462474 -9.876116575e-22)
(99.85941487 -0.01093257353 0)
(99.78385827 -0.0243292575 0)
(99.62506371 -0.004558351781 -1.887812601e-20)
(99.35981609 0.06129464609 3.861819362e-20)
(99.09416518 0.2487234947 0)
(98.56843891 0.549593825 0)
(97.83311894 1.046145094 3.025026138e-20)
(97.11064294 1.800116732 3.329990046e-19)
(96.1021354 2.969047551 0)
(95.03482328 4.701448399 -1.507789168e-18)
(94.06300804 7.470741215 -2.414695016e-18)
(94.27352646 11.83801893 -1.174663588e-19)
(98.47077543 15.88464567 0)
(104.2477262 14.38842785 3.230946151e-19)
(106.2017947 9.828384469 8.265145146e-19)
(105.4516665 6.048096595 -4.613095034e-19)
(104.0052155 3.614023577 1.951154117e-18)
(102.8490192 2.206891329 0)
(102.0180553 1.249142844 2.453670587e-20)
(101.3768427 0.7298801738 -1.630856488e-20)
(100.8579957 0.2921259973 0)
(100.5696041 0.1530791997 0)
(100.3932192 0.06539071469 -9.971613328e-22)
(100.3104532 0.01817852824 -2.984047334e-21)
(99.89832086 -0.03904021692 4.62962225e-21)
(99.8043579 -0.1106549337 -4.66701851e-21)
(99.60995414 -0.1553750052 9.535997896e-21)
(99.28092729 -0.1618617007 -3.483542781e-20)
(98.91331905 -0.01954827385 6.583616753e-23)
(98.2428181 0.1796842833 3.001062146e-20)
(97.30504414 0.5382184714 -6.250799629e-20)
(96.28035891 1.177834587 -1.496878606e-18)
(94.82283322 2.172089151 -1.780950507e-18)
(92.96736082 3.738607092 -2.364805769e-19)
(90.24615754 6.639710699 -4.320752378e-19)
(86.73900553 13.89622802 2.926098124e-18)
(94.65848566 26.6986925 0)
(111.0032008 20.71825688 0)
(111.4463008 11.35797627 0)
(108.5948637 6.012068446 1.541922121e-18)
(105.79096 3.226008167 -1.127449374e-18)
(103.8439276 1.79373905 0)
(102.5855561 0.8839097108 0)
(101.7390609 0.4528267838 8.75317986e-21)
(101.0260943 0.08610821793 2.601262956e-21)
(100.6567791 0.01236125214 -3.080518607e-21)
(100.4353637 -0.01595300027 -3.503209443e-21)
(100.3301026 -0.008125143119 8.458861532e-21)
(99.99823418 -0.07404287267 -4.630109472e-21)
(99.89055118 -0.218151635 4.668689665e-21)
(99.67067339 -0.3454047889 -5.936319781e-21)
(99.29605097 -0.447328692 -4.007515599e-21)
(98.84288927 -0.3862419877 1.712425044e-20)
(98.06752791 -0.3435569704 1.025151847e-20)
(96.99423993 -0.2182145133 1.829908497e-22)
(95.72423149 0.1760887259 4.044000007e-19)
(93.93991709 0.7508761147 0)
(91.46390146 1.61755398 0)
(87.13428252 2.958212602 -1.018981164e-18)
(78.17830851 5.698292673 0)
(127.3313355 22.82465114 3.545177747e-18)
(118.5406662 9.099052549 2.308999581e-18)
(111.9958209 4.217291305 0)
(107.469373 1.982236985 6.39242967e-19)
(104.7084002 0.9312739975 5.719105499e-19)
(102.9999638 0.262930184 -4.609327557e-21)
(101.9925837 0.02011359583 1.97075161e-20)
(101.1029131 -0.203367457 -3.154491425e-21)
(100.6700021 -0.1806926269 2.584363084e-21)
(100.4138542 -0.1249550168 -4.779786697e-22)
(100.2901256 -0.04340906894 -7.920710734e-21)
(100.170383 -0.113165293 -2.235985027e-21)
(100.0552801 -0.3382908977 -1.681039258e-21)
(99.82304072 -0.5584644443 -5.768556424e-22)
(99.42656298 -0.7689028345 1.752060103e-21)
(98.91322992 -0.8143886711 -3.455574325e-23)
(98.09750132 -0.959727516 0)
(96.97485147 -1.107099547 8.358495749e-21)
(95.58381352 -1.036345089 1.682191423e-18)
(93.70732466 -0.9688025518 -2.56702395e-18)
(91.19373511 -0.9463707595 0)
(87.19372642 -1.448170966 -3.185490836e-18)
(81.50779393 -3.67987857 0)
(139.7884843 5.346246551 0)
(123.1456975 1.892616424 -3.092511708e-18)
(114.1842343 0.5380508615 -3.735426662e-19)
(108.5173284 -0.0574659992 1.328808967e-18)
(105.2023982 -0.3076065979 -4.51878361e-19)
(103.1688061 -0.5450917076 -4.670809583e-21)
(102.0663786 -0.5319680157 1.100951132e-20)
(101.0563338 -0.5498221234 1.076476941e-21)
(100.5869984 -0.4089351046 0)
(100.3106239 -0.252848385 3.985436468e-21)
(100.1752325 -0.0849288993 3.942608043e-21)
(100.4200578 -0.1531599078 4.405223428e-21)
(100.3044286 -0.4610140927 6.797810539e-23)
(100.074049 -0.7755411499 0)
(99.68133548 -1.096762016 2.27302262e-22)
(99.13962436 -1.260087524 -2.353924835e-21)
(98.34690315 -1.594071466 2.524034741e-21)
(97.2637605 -2.003254016 1.111094855e-20)
(95.8946129 -2.23868324 0)
(94.15009319 -2.589188643 1.031534373e-18)
(91.93567977 -3.131157888 -6.471482626e-20)
(88.80305443 -4.356583192 9.907142253e-19)
(85.30481776 -6.539149252 1.755521898e-20)
(135.9327246 -11.40125288 0)
(122.4735543 -6.259685563 -1.352805948e-19)
(114.1100668 -3.775534557 -1.379840838e-18)
(108.5008877 -2.419014658 1.315638553e-18)
(105.1526601 -1.710633416 3.668717945e-20)
(103.0306299 -1.433205112 3.937973009e-20)
(101.9232169 -1.138961986 0)
(100.8688012 -0.9172951771 -1.049828293e-21)
(100.3947865 -0.6501677947 -4.380916338e-21)
(100.1152087 -0.3880779985 4.89697489e-22)
(99.97645329 -0.1289185518 0)
(100.7460574 -0.1909051832 -2.169045375e-21)
(100.6362819 -0.5764785613 2.189497899e-21)
(100.4204911 -0.9782825668 2.135427708e-21)
(100.0567776 -1.402704243 -2.005544343e-21)
(99.51508341 -1.681108405 -2.321531325e-21)
(98.79514299 -2.178881277 0)
(97.81994648 -2.808034743 -2.558121209e-21)
(96.56054181 -3.290027935 -8.251321506e-19)
(95.03647269 -3.921445715 0)
(93.17284713 -4.768316683 9.782048199e-19)
(90.63873801 -6.227721344 -2.513602515e-21)
(87.90424216 -8.119498704 -4.407465828e-19)
(126.3087399 -20.22842143 0)
(118.1994594 -12.02219217 0)
(112.0668993 -7.265226254 -4.023345034e-19)
(107.4693164 -4.499888167 -3.241802002e-20)
(104.5523086 -3.024742508 -5.691106989e-19)
(102.5837876 -2.275437755 0)
(101.5637237 -1.724007122 -2.5865165e-20)
(100.5387449 -1.267910711 -1.318667764e-20)
(100.0926763 -0.8810063169 1.002438529e-21)
(99.82652114 -0.5182785718 -3.170631262e-21)
(99.6925844 -0.1714062829 4.64344693e-22)
(101.1411449 -0.2237328568 7.933509422e-21)
(101.0426383 -0.6761943778 0)
(100.8508071 -1.149252483 -2.131225685e-21)
(100.5327474 -1.67081689 0)
(100.0105323 -2.044770405 0)
(99.40420551 -2.666757718 -6.902724745e-21)
(98.58182372 -3.459336522 -3.353748346e-20)
(97.48155452 -4.117253712 -1.930037436e-19)
(96.20253068 -4.923283979 1.868623827e-20)
(94.65687716 -5.949326019 0)
(92.51738258 -7.576493336 -7.626567453e-19)
(90.02581486 -9.491285768 1.95564205e-19)
(116.4473005 -23.12209995 2.123829851e-18)
(112.7043039 -14.71286685 8.553497705e-19)
(109.0291148 -9.298714667 -9.263827348e-19)
(105.7881164 -5.934064736 -5.484934222e-19)
(103.5418763 -4.052903393 4.590187079e-19)
(101.8826339 -2.970593976 2.069048792e-21)
(101.0206734 -2.223619508 -3.162156305e-20)
(100.0868778 -1.576649524 7.809177631e-21)
(99.69232608 -1.079760785 0)
(99.45235837 -0.6326999971 3.65013774e-21)
(99.33005889 -0.2089070775 0)
(101.5937638 -0.2506621403 7.92331012e-21)
(101.5095782 -0.7585384662 1.24967003e-19)
(101.34573 -1.288032487 -2.518124857e-19)
(101.0775804 -1.880269149 -4.966647837e-22)
(100.6250472 -2.323019099 -1.998113776e-21)
(100.1320155 -3.02905003 0)
(99.48533692 -3.928285203 3.608815259e-20)
(98.56260735 -4.684347719 -2.909489501e-18)
(97.54015928 -5.582786731 1.68021681e-18)
(96.30750766 -6.720146808 -4.736788216e-20)
(94.5816406 -8.552653304 1.31644539e-18)
(92.44564892 -10.78851459 -6.617527194e-21)
(103.2070396 -31.91421787 -5.12829739e-19)
(107.6672351 -21.16193682 0)
(107.5826271 -14.81721002 -5.05299225e-19)
(105.8939237 -9.930322033 -2.383019441e-19)
(103.8778718 -6.658338685 7.040619995e-19)
(102.3111317 -4.713661429 6.204408322e-20)
(101.0178397 -3.458393136 -6.334998184e-20)
(100.3416944 -2.595327693 0)
(99.54613815 -1.812124287 0)
(99.21329896 -1.235094571 1.144855214e-20)
(99.00739658 -0.7242433044 2.109031004e-21)
(98.90146149 -0.2389369905 -6.852309882e-21)
(102.0890387 -0.2691953701 0)
(102.0208823 -0.8159045065 0)
(101.8889534 -1.383099997 0)
(101.6730128 -2.012416616 0)
(101.2877238 -2.519507431 0)
(100.9104657 -3.281278852 0)
(100.4225482 -4.227834223 0)
(99.70020541 -5.020343843 0)
(98.9226272 -5.938959982 7.255142777e-19)
(98.01007646 -7.101125285 -7.85323948e-20)
(96.7999832 -8.98484865 -1.050592135e-18)
(95.59802976 -11.66433077 0)
(96.48248436 -21.02397811 -1.721025779e-19)
(102.4587845 -17.37850311 -2.490308358e-19)
(103.747754 -13.33301829 0)
(103.1987311 -9.558691439 0)
(102.0495437 -6.79039071 -3.837928529e-19)
(101.025843 -5.026485972 1.304043742e-21)
(100.0836879 -3.73494915 -8.903705251e-20)
(99.59268375 -2.834346661 -3.349586262e-20)
(98.94729325 -1.964092641 -1.865513476e-20)
(98.6784766 -1.342966607 1.84074907e-20)
(98.51049628 -0.7888584301 0)
(98.42319434 -0.2601096102 1.839720578e-20)
(102.6119912 -0.2794282202 0)
(102.5605121 -0.8477758472 0)
(102.462483 -1.435049756 0)
(102.2997772 -2.074211504 0)
(101.9791129 -2.612844167 0)
(101.7195929 -3.385579953 0)
(101.3842503 -4.308816662 2.249923579e-19)
(100.8343657 -5.146722239 0)
(100.2556888 -6.058960812 5.919382431e-19)
(99.62952442 -7.125738105 0)
(98.96680052 -8.680425155 4.643442768e-19)
(98.73666954 -11.15885337 3.23901413e-19)
(98.00295591 -13.87047897 1.325295577e-19)
(100.4037949 -13.42266241 -6.678469173e-20)
(101.3281505 -11.26867777 -7.860846758e-19)
(101.1308486 -8.673278051 -2.566140028e-19)
(100.4625493 -6.537252247 -3.259720421e-19)
(99.81365582 -5.069613031 -2.415312236e-20)
(99.14879482 -3.828045644 0)
(98.82672775 -2.947984072 0)
(98.31978874 -2.038324865 -3.485963405e-20)
(98.11213962 -1.402377451 1.720217238e-20)
(97.98179555 -0.8254273606 7.198358788e-22)
(97.91306396 -0.2721644919 -1.268077892e-20)
(103.1473072 -0.2819487006 0)
(103.1111674 -0.8553779474 0)
(103.044217 -1.445987212 0)
(102.9302193 -2.076024284 0)
(102.668444 -2.623430234 0)
(102.5044772 -3.374587094 0)
(102.2948507 -4.22954833 0)
(101.8865732 -5.087862203 0)
(101.4515893 -5.98355688 -1.838756193e-18)
(101.0102301 -6.921807069 -1.107463506e-19)
(100.6323946 -8.055007804 1.160251185e-18)
(97.23560488 -8.950728723 7.624372296e-19)
(99.05387243 -10.63141333 -4.134261156e-19)
(99.72542726 -10.53572526 8.175231504e-20)
(99.89097371 -9.330587671 1.727371275e-20)
(99.60919561 -7.620476416 -8.205572637e-19)
(99.15764176 -6.077219699 -4.184985277e-19)
(98.73265871 -4.901804337 0)
(98.27603834 -3.776429459 -2.987623276e-20)
(98.08086007 -2.953703102 4.509455614e-20)
(97.69111797 -2.04582643 1.087525845e-20)
(97.5374047 -1.418427886 1.854029954e-20)
(97.4403205 -0.8365192681 -2.106612798e-20)
(97.3882145 -0.2758361587 0)
(103.6810082 -0.2779480702 0)
(103.6578054 -0.8424685723 0)
(103.6163452 -1.422233037 0)
(103.542607 -2.027806038 0)
(103.3328857 -2.566336445 0)
(103.2411891 -3.271578868 0)
(103.1182785 -4.042550439 0)
(102.8138998 -4.849108815 4.947409173e-21)
(102.4612175 -5.708130465 1.619382773e-19)
(102.0751551 -6.517403893 2.686724142e-18)
(101.9562019 -7.398959243 0)
(93.04575304 -7.11316915 1.693502498e-19)
(99.56632273 -8.634176319 0)
(99.30879434 -8.533549458 -1.876017914e-19)
(98.90283569 -7.730491448 4.409472425e-19)
(98.48800976 -6.615653335 2.909319994e-19)
(98.11453925 -5.550532958 -1.981646744e-21)
(97.80850542 -4.608452814 0)
(97.49286692 -3.625492766 0)
(97.37915637 -2.874398495 0)
(97.08274785 -2.000227777 3.780800291e-20)
(96.97272093 -1.398218551 -3.537587009e-20)
(96.90239975 -0.8257726046 -2.38380689e-21)
(96.86383124 -0.2726462182 2.391888372e-21)
(104.2013561 -0.2687837929 0)
(104.1884371 -0.8134200138 0)
(104.1664459 -1.371272459 0)
(104.1235155 -1.941201218 0)
(103.955495 -2.456579151 0)
(103.9136048 -3.102271232 0)
(103.8419835 -3.783465113 0)
(103.5945306 -4.484967336 0)
(103.2553378 -5.242200775 2.504581789e-19)
(102.8655118 -5.943867323 -3.420443295e-21)
(100.8587666 -6.46481212 1.423368593e-18)
(97.30370592 -7.041417532 0)
(99.54863074 -7.256834506 9.20920855e-21)
(98.81273361 -7.057853491 -2.987614033e-19)
(98.15392283 -6.489481775 0)
(97.66243073 -5.77120297 -8.124186159e-20)
(97.29624323 -5.009815348 0)
(97.0374406 -4.25159222 0)
(96.79921365 -3.404134188 0)
(96.73450966 -2.732620038 0)
(96.50758672 -1.913098795 0)
(96.43033312 -1.347655626 0)
(96.3807523 -0.7982998489 0)
(96.35250183 -0.2645773562 0)
(104.6994961 -0.2557669673 0)
(104.6942472 -0.7724451851 0)
(104.6859703 -1.30041148 0)
(104.6646839 -1.828255524 0)
(104.5272272 -2.310862508 0)
(104.5141938 -2.891727687 0)
(104.4653522 -3.487756789 0)
(104.2376198 -4.084097909 0)
(103.886665 -4.695243502 0)
(103.4553897 -5.27463665 -1.23877765e-20)
(98.34659153 -5.466616494 -3.662147586e-21)
(99.87618497 -6.112100637 -2.466431528e-19)
(99.34159119 -6.127236502 -6.716455297e-20)
(98.39930044 -5.944716019 5.490978435e-20)
(97.63301331 -5.56906596 0)
(97.06117961 -5.062667668 0)
(96.65541312 -4.478992086 0)
(96.40029397 -3.86828414 0)
(96.19604349 -3.144963062 0)
(96.15513394 -2.553670244 0)
(95.97418806 -1.799315486 0)
(95.91898869 -1.276494654 0)
(95.88351645 -0.7579660029 0)
(95.86345528 -0.2517519797 0)
(105.1692556 -0.2401402967 0)
(105.1692123 -0.7235140481 0)
(105.1693581 -1.216433812 0)
(105.1613875 -1.699674941 0)
(105.0447545 -2.144286293 0)
(105.0435165 -2.660890091 0)
(104.9958247 -3.181089901 0)
(104.7668012 -3.682411907 0)
(104.3873541 -4.176653413 0)
(103.8751118 -4.62229486 0)
(98.22076719 -4.74379595 0)
(100.1853743 -5.222286823 0)
(99.26795399 -5.231376805 0)
(98.162979 -5.097378307 0)
(97.26884262 -4.822053294 0)
(96.60558438 -4.439098351 0)
(96.14860797 -3.982986749 0)
(95.87372096 -3.486693358 0)
(95.67623603 -2.871637536 0)
(95.64050358 -2.35592557 0)
(95.48658526 -1.670636863 0)
(95.44431466 -1.192717763 0)
(95.41719499 -0.7097078992 0)
(95.40237671 -0.2361363274 0)
(105.6068091 -0.2230135709 0)
(105.6098118 -0.6701665728 0)
(105.6138652 -1.125337403 0)
(105.6121238 -1.563915311 0)
(105.5088206 -1.968764979 0)
(105.5066497 -2.425266393 0)
(105.4451706 -2.877770333 0)
(105.2036992 -3.298629594 0)
(104.7873806 -3.701790288 0)
(104.1738336 -4.049114867 0)
(98.29145082 -4.137120701 0)
(100.2929176 -4.507877641 0)
(99.22494491 -4.506024636 -2.08074443e-35)
(97.99097519 -4.401351748 0)
(96.99387006 -4.191070569 0)
(96.25227111 -3.894330302 0)
(95.7427089 -3.531861916 0)
(95.43655156 -3.124494665 0)
(95.22968797 -2.600715957 0)
(95.18637294 -2.152870452 0)
(95.04517685 -1.536029024 0)
(95.00851391 -1.102633878 0)
(94.98503907 -0.65732421 0)
(94.97319035 -0.2191070699 0)
(106.0102912 -0.2052956239 0)
(106.0145878 -0.6152741953 0)
(106.0190391 -1.031980083 0)
(106.0179742 -1.427388196 0)
(105.9221657 -1.792977944 0)
(105.9105114 -2.195085024 0)
(105.8264055 -2.58618277 0)
(105.5662231 -2.942648952 0)
(105.111198 -3.274840753 0)
(104.3961824 -3.551270589 0)
(98.40041217 -3.623204164 0)
(100.346095 -3.918235189 0)
(99.18586949 -3.907349762 0)
(97.85667062 -3.821636507 0)
(96.78008701 -3.655770725 0)
(95.97277873 -3.420611609 0)
(95.41339806 -3.128021716 0)
(95.07143585 -2.790699961 0)
(94.84559761 -2.342868742 0)
(94.78683411 -1.954017613 0)
(94.64821397 -1.401925812 0)
(94.61158447 -1.011116319 0)
(94.58816684 -0.603758145 0)
(94.57746688 -0.2016372873 0)
(106.3794275 -0.1876799557 0)
(106.3836677 -0.5609837231 0)
(106.3859762 -0.9399705943 0)
(106.381554 -1.294740394 0)
(106.2888489 -1.622926832 0)
(106.2623102 -1.976393532 0)
(106.1518849 -2.313992634 0)
(105.8691026 -2.61794409 0)
(105.3770625 -2.894770988 0)
(104.5656993 -3.118488534 0)
(98.53389264 -3.185235947 0)
(100.3704007 -3.422967621 0)
(99.14907673 -3.406009742 -3.069685109e-35)
(97.74829889 -3.333820555 0)
(96.60969165 -3.19962545 0)
(95.74770234 -3.009582927 0)
(95.14299412 -2.77002662 0)
(94.76508155 -2.48848267 0)
(94.51403765 -2.10395964 0)
(94.43557908 -1.765299806 0)
(94.29261876 -1.272798152 0)
(94.25205333 -0.9216952723 0)
(94.22614619 -0.5511498683 0)
(94.21521579 -0.1844233255 0)
(106.7151301 -0.1706727966 0)
(106.7183092 -0.5088224641 0)
(106.7167214 -0.8518315756 0)
(106.7061812 -1.169137972 0)
(106.6134037 -1.462521396 0)
(106.5688083 -1.772982149 0)
(106.4305672 -2.064897283 0)
(106.124322 -2.325416335 0)
(105.5983559 -2.558598551 0)
(104.6980491 -2.742327282 0)
(98.68489589 -2.809856764 0)
(100.3771207 -3.003182415 0)
(99.11428888 -2.982066787 0)
(97.65875697 -2.920143492 0)
(96.47104527 -2.809429381 0)
(95.56355976 -2.653288794 0)
(94.91839522 -2.454634172 0)
(94.50590056 -2.217465965 0)
(94.2270372 -1.885995219 0)
(94.12651974 -1.590125384 0)
(93.97470799 -1.151545383 0)
(93.92756924 -0.8367454156 0)
(93.89746668 -0.5009653757 0)
(93.88530056 -0.1679479588 0)
(107.0191009 -0.1546281416 0)
(107.0205002 -0.4598322095 0)
(107.0138724 -0.7692432752 0)
(106.9954432 -1.052573203 0)
(106.9003923 -1.314129812 0)
(106.8361811 -1.586894373 0)
(106.6701639 -1.840013276 0)
(106.3411517 -2.064367428 0)
(105.7847383 -2.2627619 0)
(104.8039448 -2.415639811 0)
(98.84815691 -2.486702957 0)
(100.3722796 -2.645328978 0)
(99.08142818 -2.621366018 1.116515746e-35)
(97.58349562 -2.567547131 0)
(96.35634888 -2.474806629 0)
(95.41084508 -2.344735714 0)
(94.72988415 -2.178132002 0)
(94.28490973 -1.976603893 0)
(93.97769311 -1.689621006 0)
(93.85414811 -1.430249327 0)
(93.69066679 -1.03988989 0)
(93.63532246 -0.7577627929 0)
(93.59994977 -0.4541564117 0)
(93.5858419 -0.1525315346 0)
(107.2935437 -0.1397778495 0)
(107.2926765 -0.4146761173 0)
(107.2803321 -0.6932441935 0)
(107.2529833 -0.9461645687 0)
(107.1542035 -1.178969541 0)
(107.0699026 -1.418903372 0)
(106.8770921 -1.639138546 0)
(106.5268613 -1.833240573 0)
(105.9432935 -2.003571728 0)
(104.8907905 -2.132349836 0)
(99.01974369 -2.207821893 0)
(100.359463 -2.339310935 0)
(99.05040768 -2.313402536 0)
(97.51940685 -2.266143106 0)
(96.26017252 -2.187511372 0)
(95.28268904 -2.077890631 0)
(94.57015059 -1.936770554 0)
(94.09508203 -1.764153395 0)
(93.76005276 -1.514556834 0)
(93.61350225 -1.286296581 0)
(93.43675397 -0.9386972364 0)
(93.37229488 -0.6856048139 0)
(93.33104025 -0.4112925338 0)
(93.31451962 -0.1383711061 0)
(107.5409784 -0.1262579933 0)
(107.5375366 -0.37372626 0)
(107.5191425 -0.6243955267 0)
(107.4823754 -0.8504209153 0)
(107.3788977 -1.057525849 0)
(107.2747408 -1.269012429 0)
(107.0566575 -1.461403133 0)
(106.6871576 -1.630105175 0)
(106.0793451 -1.777542376 0)
(104.9638122 -1.887311246 0)
(99.19680665 -1.967177512 0)
(100.3409067 -2.077447951 0)
(99.02109999 -2.050217268 0)
(97.46426695 -2.008348879 0)
(96.17862246 -1.94100401 0)
(95.17403956 -1.847681645 0)
(94.43363768 -1.727064864 0)
(93.9309016 -1.57808866 0)
(93.56916791 -1.359990361 0)
(93.4002216 -1.158210202 0)
(93.20938451 -0.8482532078 0)
(93.13540408 -0.6206721352 0)
(93.08798617 -0.3726604358 0)
(93.06875989 -0.1255706931 0)
(107.7641069 -0.1141343649 0)
(107.757912 -0.3371439133 0)
(107.7333708 -0.5629173834 0)
(107.6870483 -0.7654315502 0)
(107.578253 -0.9497579975 0)
(107.4548987 -1.136717271 0)
(107.2133214 -1.30556295 0)
(106.8265827 -1.452879967 0)
(106.1970329 -1.581474348 0)
(105.0267526 -1.676124681 0)
(99.37732338 -1.759746048 0)
(100.3181904 -1.853631952 0)
(98.99335756 -1.825580407 0)
(97.4164038 -1.788192957 0)
(96.10879517 -1.730000615 0)
(95.08106295 -1.649820502 0)
(94.31600634 -1.545842417 0)
(93.78791977 -1.416302139 0)
(93.400835 -1.224783425 0)
(93.21041741 -1.045489891 0)
(93.00517534 -0.7684600828 0)
(92.92160019 -0.5630482138 0)
(92.86796016 -0.3383465042 0)
(92.8458629 -0.1141677251 0)
(107.9656622 -0.1034263419 0)
(107.9566259 -0.3049525538 0)
(107.9259926 -0.5088102065 0)
(107.8702092 -0.6910380725 0)
(107.755703 -0.8553364161 0)
(107.614039 -1.021272285 0)
(107.3508208 -1.170262105 0)
(106.9487727 -1.299568988 0)
(106.2996417 -1.412600883 0)
(105.082298 -1.495187178 0)
(99.55990366 -1.581661477 0)
(100.2924939 -1.66313484 0)
(98.96703591 -1.634605385 0)
(97.37452266 -1.600957245 0)
(96.04847109 -1.550247644 0)
(95.00079363 -1.480741427 0)
(94.21381952 -1.390330576 0)
(93.66250547 -1.276787565 0)
(93.25150654 -1.107696495 0)
(93.04066647 -0.9474218331 0)
(92.82100418 -0.6990073518 0)
(92.72796785 -0.5126200947 0)
(92.66818662 -0.3083103687 0)
(92.64314116 -0.1041571982 0)
(108.1484182 -0.09412165707 0)
(108.1365057 -0.2770855027 0)
(108.0999205 -0.4619353196 0)
(108.0349112 -0.6269237092 0)
(107.9143842 -0.7737762319 0)
(107.7553947 -0.9218425257 0)
(107.4722611 -1.054078212 0)
(107.0567506 -1.168339033 0)
(106.3898706 -1.268536081 0)
(105.1323974 -1.341487145 0)
(99.74362436 -1.429897446 0)
(100.2646463 -1.50219986 0)
(98.94196258 -1.473398092 0)
(97.33757466 -1.442852012 0)
(95.99588946 -1.398272726 0)
(94.93086464 -1.337456958 0)
(94.12428271 -1.258127801 0)
(93.551573 -1.157790432 0)
(93.1181338 -1.00755078 0)
(92.88792239 -0.863206179 0)
(92.65393803 -0.6394551149 0)
(92.5516951 -0.4691566301 0)
(92.48592855 -0.2824323331 0)
(92.45790911 -0.09550645428 0)
(108.3148811 -0.08619618392 0)
(108.3001053 -0.2534372531 0)
(108.2577565 -0.422078769 0)
(108.1838332 -0.572763335 0)
(108.0571542 -0.7045232638 0)
(107.8818693 -0.8376056496 0)
(107.5802628 -0.9553127478 0)
(107.1529966 -1.057679366 0)
(106.4699454 -1.147238659 0)
(105.1784803 -1.21250184 0)
(99.92766983 -1.301965867 0)
(100.2353045 -1.36778336 0)
(98.91794574 -1.338853333 -1.862269232e-36)
(97.30467735 -1.310841799 0)
(95.9496116 -1.271254956 0)
(94.86934536 -1.217484621 0)
(94.04511639 -1.14717857 0)
(93.45273603 -1.057916159 0)
(92.99791664 -0.9233742058 0)
(92.74944584 -0.7920062171 0)
(92.50142837 -0.5893724409 0)
(92.39029364 -0.432369723 0)
(92.31873827 -0.2605628115 0)
(92.28776541 -0.0881744011 0)
(108.468235 -0.07960136463 0)
(108.4505734 -0.2338557427 0)
(108.4026129 -0.3889879436 0)
(108.3200909 -0.5280457537 0)
(108.1866774 -0.647033154 0)
(107.9960986 -0.7676669002 0)
(107.6777094 -0.8730711181 0)
(107.2394843 -0.9660865939 0)
(106.5417302 -1.046953245 0)
(105.2216367 -1.106174283 0)
(100.1112744 -1.195888242 0)
(100.2050085 -1.257446069 0)
(98.8947949 -1.22848363 0)
(97.27506588 -1.202497167 0)
(95.90842333 -1.166914934 0)
(94.81461013 -1.118775529 0)
(93.97438685 -1.055697916 0)
(93.36396584 -0.9754637844 0)
(92.88843126 -0.853975789 0)
(92.62277389 -0.7330403376 0)
(92.36053339 -0.5481728165 0)
(92.24082675 -0.4019466799 0)
(92.16364035 -0.2425136689 0)
(92.12969634 -0.08209838771 0)
(108.6087373 -0.07434904624 0)
(108.5883265 -0.2183035002 0)
(108.534985 -0.3624655553 0)
(108.4442431 -0.4929219197 0)
(108.3053789 -0.6006715389 0)
(108.1004273 -0.7111499087 0)
(107.7671392 -0.8075532706 0)
(107.3181101 -0.892059819 0)
(106.6068967 -0.9661492679 0)
(105.2627699 -1.020770137 0)
(100.2936057 -1.110072143 0)
(100.174228 -1.169212944 0)
(98.87231864 -1.140292026 0)
(97.24805746 -1.11586318 0)
(95.87126036 -1.083406785 0)
(94.7652298 -1.039650839 0)
(93.9103235 -0.9821958679 0)
(93.28294949 -0.908622597 0)
(92.7878228 -0.7979724312 0)
(92.50559237 -0.6853978617 0)
(92.23083323 -0.5159168201 0)
(92.10289808 -0.3776293777 0)
(92.02030768 -0.2282145746 0)
(91.98354363 -0.07727965667 0)
(108.7472188 -0.07024979896 0)
(108.7236651 -0.2063960251 0)
(108.66475 -0.3421384079 0)
(108.5651138 -0.4648672747 0)
(108.4162194 -0.5651488305 0)
(108.1968846 -0.6678107979 0)
(107.8496499 -0.7579283801 0)
(107.3908019 -0.8347462877 0)
(106.6669403 -0.903607534 0)
(105.302666 -0.954889562 0)
(100.4735458 -1.04334672 0)
(100.1434319 -1.10156595 0)
(98.85032095 -1.072734963 0)
(97.22303144 -1.049417289 0)
(95.83717631 -1.019284073 0)
(94.71994415 -0.9787946097 0)
(93.85137931 -0.9255597427 0)
(93.2079247 -0.8570872592 0)
(92.69417098 -0.7549000956 0)
(92.39600422 -0.6493167417 0)
(92.1036985 -0.4900074342 0)
(91.96689861 -0.3590357366 0)
(91.87872929 -0.2172597136 0)
(91.83872114 -0.07351386264 0)
(108.8534284 -0.06784412458 0)
(108.8278476 -0.1991119714 0)
(108.7646379 -0.329215452 0)
(108.6591798 -0.4498255835 0)
(108.518683 -0.5396690299 0)
(108.2872065 -0.6368951 0)
(107.9268708 -0.7229945967 0)
(107.458941 -0.7933656997 0)
(106.7231683 -0.858375536 0)
(105.3420517 -0.9074731405 0)
(100.6501188 -0.9948882633 0)
(100.1130013 -1.053373819 0)
(98.82859234 -1.024632107 0)
(97.19940179 -1.001993668 0)
(95.80530214 -0.9734316229 0)
(94.67761553 -0.9351828228 0)
(93.79618955 -0.8848857442 0)
(93.13742532 -0.8199986836 0)
(92.60579871 -0.7241836773 0)
(92.29251108 -0.6238180721 0)
(92.003341 -0.4762266345 0)
(91.86063905 -0.3472301904 0)
(91.76817298 -0.2105991023 0)
(91.72615092 -0.07135875635 0)
(109.0521648 -0.06518633264 0)
(109.0222715 -0.1923565361 0)
(108.9508393 -0.3178093959 0)
(108.8303771 -0.4312611268 0)
(108.6130677 -0.5249965017 0)
(108.3689705 -0.6186349219 0)
(107.9971882 -0.7029530498 0)
(107.5237639 -0.7672141632 0)
(106.7767446 -0.8296565232 0)
(105.3815539 -0.8777298817 0)
(100.8223593 -0.9641082078 0)
(100.083288 -1.023796218 0)
(98.80696598 -0.9951375123 0)
(97.17663109 -0.9727619235 0)
(95.77484862 -0.9450414491 0)
(94.63721649 -0.9080658741 0)