/*--------------------------------*- C++ -*----------------------------------*\
| =========                 |                                                 |
| \\      /  F ield         | OpenFOAM: The Open Source CFD Toolbox           |
|  \\    /   O peration     | Version:  v1912                                 |
|   \\  /    A nd           | Website:  www.openfoam.com                      |
|    \\/     M anipulation  |                                                 |
\*---------------------------------------------------------------------------*/
FoamFile
{
    version     2.0;
    format      ascii;
    class       volScalarField;
    location    "1";
    object      k;
}
// * * * * * * * * * * * * * * * * * * * * * * * * * * * * * * * * * * * * * //

dimensions      [0 2 -2 0 0 0 0];


internalField   nonuniform List<scalar> 
12556
(
36.90870695
36.90878395
36.90893219
36.90920107
36.95454029
36.95568469
36.9577271
36.9618847
36.96966535
36.98173799
36.99696228
37.00712627
37.00977763
37.00704858
36.99730977
36.98269003
36.97097189
36.96287829
36.95855337
36.95608981
36.90988879
36.90908162
36.90867912
36.90842054
36.72750102
36.72775637
36.72820881
36.72936465
36.77560864
36.78140528
36.79304518
36.83127438
36.86742504
36.92474922
36.9983313
37.03742157
37.05124235
37.04201762
37.00864453
36.94415575
36.88426054
36.84345866
36.79789832
36.7836535
36.73200617
36.72925984
36.72794989
36.7272471
36.54761983
36.54832787
36.54967988
36.55242909
36.60112784
36.61549888
36.64334811
36.70638896
36.79273608
36.91757335
37.03540145
37.11059892
37.13918378
37.12218352
37.05996882
36.95355119
36.82880689
36.73472481
36.6528733
36.62028621
36.5593366
36.55293059
36.54992385
36.54870568
36.36910404
36.37008575
36.37259515
36.37884121
36.43277853
36.46227024
36.52276164
36.63167758
36.79420922
36.97693785
37.14905303
37.27311685
37.32773628
37.3006156
37.19823014
37.03078306
36.84562297
36.6778675
36.53701744
36.47316326
36.39335898
36.38108475
36.37517144
36.37287537
36.19245472
36.19425746
36.19918373
36.21138678
36.27461191
36.32793416
36.44154895
36.62153601
36.85595482
37.11544101
37.3808563
37.60721647
37.73223978
37.68573242
37.50378719
37.22054337
36.93211051
36.68965152
36.46505234
36.34747885
36.23694574
36.21360811
36.20303229
36.1989274
36.01706859
36.01994093
36.02829502
36.04948252
36.12996681
36.21980302
36.41327595
36.65747865
36.97420324
37.34951108
37.80416515
38.30987319
38.65889915
38.54185905
38.09702465
37.59029395
37.11862849
36.75285924
36.44274811
36.24823807
36.09211219
36.05058104
36.03285103
36.02592691
35.84439435
35.84939027
35.86379795
35.899707
35.99878277
36.14041786
36.42301703
36.73737944
37.16147268
37.70781444
38.53327208
39.94112663
40.68031559
40.55720507
39.17628542
38.19240485
37.421264
36.87593248
36.45749675
36.17978867
35.95790845
35.89256111
35.86454281
35.85367229
35.67577145
35.68332746
35.7051976
35.7594893
35.88328167
36.09012509
36.45814215
36.85529807
37.40666971
38.17970069
39.57784135
42.77602452
43.62636103
40.89718895
39.04504105
37.83222563
37.05281203
36.49961846
36.13832427
35.83737204
35.7412312
35.69935516
35.68332774
35.51501647
35.52668022
35.55939495
35.63737487
35.78806618
36.06630213
36.51535827
37.00144621
37.68341903
38.6745081
40.58152395
45.49713611
48.85696657
42.97753465
40.05293897
38.32039124
37.26729495
36.56113749
36.11806075
35.73102532
35.5987077
35.54018287
35.51786286
35.36434107
35.38033167
35.42442654
35.52794067
35.71389295
36.06526372
36.58908725
37.16306435
37.96106261
39.12046187
41.32920589
46.73728981
52.36061736
44.85018356
41.03594887
38.80196546
37.4887868
36.63478218
36.11491482
35.64065798
35.46876351
35.39106724
35.36135305
35.22759443
35.24966189
35.30852757
35.44310534
35.65969776
36.07777727
36.67354014
37.32766326
38.2193645
39.5028926
41.92154611
47.32599145
54.04313929
46.21803325
41.81939613
39.21183736
37.69294128
36.7101285
36.1195607
35.56521291
35.35330721
35.25578805
35.21789692
35.10446081
35.13190218
35.20385516
35.36764847
35.62150466
36.10245949
36.76271104
37.48672737
38.45686819
39.84104231
42.45523184
47.12512714
54.76517667
47.06968103
42.35727772
39.51669406
37.86317698
36.77861287
36.12625173
35.50553498
35.25351943
35.13611868
35.08979026
34.99601388
35.03037321
35.12036528
35.31663819
35.59352213
36.12781068
36.84665011
37.63764616
38.66578216
40.14455683
43.0074608
46.60285351
43.66676877
54.59954174
47.48933003
42.66085709
39.69196307
37.98750142
36.83362892
36.13109703
35.45333463
35.16802526
35.03150833
34.97717796
34.89853341
34.93908239
35.04468602
35.26712798
35.58782123
36.1831334
36.97231132
37.80453356
38.88746649
40.46750878
43.6094429
45.14146725
54.58236972
54.59512609
47.59048809
42.69842559
39.76884451
38.07472024
36.87318677
36.13034804
35.40436354
35.09257237
34.93896973
34.87745251
34.80971068
34.85608277
34.97573353
35.22208574
35.57143993
36.21165235
37.06245064
37.98699398
39.17992123
40.85809399
43.99119496
41.59509045
55.56160574
53.89205377
47.19943172
42.55348221
39.75266386
38.12505857
36.89135228
36.11802983
35.35545006
35.02241353
34.85436879
34.78678136
34.72439743
34.77609852
34.90791467
35.17576639
35.55065058
36.22774762
37.1368231
38.19592812
39.6066391
41.51163648
44.53454731
36.18295513
54.0013679
52.22450064
46.3297303
42.20679008
39.67675607
38.12994658
36.88531422
36.08704778
35.29886167
34.95071285
34.77241505
34.6999205
34.64038916
34.69674495
34.83841699
35.12415294
35.52067546
36.22387521
37.18249816
38.36225904
40.1191345
42.42184166
44.16621832
28.2009449
53.09807182
50.01282193
45.12856969
41.75758879
39.59480917
38.10211279
36.85075315
36.03636095
35.23358717
34.87605521
34.68937273
34.61289661
34.55268214
34.61301873
34.76266511
35.06331469
35.47805539
36.20011787
37.18811129
38.41316033
40.43922919
42.95624642
39.47497432
36.85183011
51.61277234
47.91244108
44.06090804
41.38366177
39.47715733
38.02616586
36.77620929
35.9604463
35.15316733
34.79095518
34.60069022
34.52135456
34.46174749
34.52533725
34.68096716
34.99269511
35.42079761
36.15370242
37.16339051
38.40715491
40.42928369
42.52171367
30.69153834
45.79481523
50.04281648
46.52266329
43.44404357
41.10577125
39.29981757
37.90135341
36.67151027
35.86366583
35.05966042
34.6967386
34.50484631
34.42404731
34.36322131
34.42942945
34.58979645
34.91030878
35.34877442
36.08699052
37.10654761
38.35975525
40.33315978
41.85813051
28.01178795
45.11082176
48.81139599
45.82222986
43.00394224
40.8078469
39.08997617
37.74405231
36.54351173
35.74869114
34.95280527
34.59163551
34.39962186
34.3180469
34.26082948
34.32903285
34.49269972
34.8186024
35.26297489
36.00278629
37.02614382
38.28023104
40.17512752
41.12911156
25.99381807
43.86558922
47.74760031
45.19144163
42.58447012
40.50611328
38.86391673
37.56608486
36.39802797
35.61873209
34.83518971
34.47809141
34.28713435
34.20535462
34.14958086
34.21933581
34.38576128
34.71609637
35.16515165
35.90411433
36.92737248
38.17556932
39.96756258
40.37679671
24.36460352
42.67160072
46.77879278
44.60486079
42.18825773
40.20935643
38.63128805
37.37594188
36.23978841
35.4770787
34.7069652
34.35451994
34.16505819
34.08342974
34.036673
34.10755663
34.27572788
34.60762129
35.05720695
35.79383822
36.8144692
38.05107631
39.72064933
39.63119138
23.04805648
41.53410875
45.88367575
44.05481702
41.81346829
39.9217748
38.39789907
37.17949
36.07275394
35.32669734
34.57219973
34.22569608
34.03821324
33.95700291
33.91443875
33.98623126
34.15617135
34.49015721
34.9412505
35.67450279
36.6908643
37.91068961
39.44195519
38.90636588
21.98349999
40.4470951
45.04668984
43.53569074
41.45715391
39.6447182
38.1672013
36.98063063
35.90020157
35.17013589
34.42963907
34.08825453
33.90254808
33.82183785
33.79443998
33.86687217
34.03773968
34.37097837
34.81897347
35.54835805
36.5592958
37.75703207
39.13837951
38.21115209
21.12203168
39.40301428
44.25906844
43.04291839
41.11681912
39.37806429
37.94111224
36.78190972
35.72463371
35.00939679
34.28487525
33.94976708
33.76609342
33.68597199
33.6637638
33.7367721
33.90896897
34.24344004
34.69212915
35.41725428
36.42173653
37.59164571
38.81627552
37.55038438
20.4265145
38.39360897
43.5127649
42.57256722
40.79040456
39.12109019
37.72050572
36.58492317
35.54784886
34.84614311
34.13361727
33.80284995
33.62065669
33.54104942
33.54067622
33.61406955
33.78672394
34.11894632
34.56174644
35.28263915
36.27950554
37.41566925
38.48408728
36.92614798
19.86834825
37.41852159
42.80378696
42.12138498
40.47619996
38.87297288
37.50568362
36.39065743
35.37114445
34.6815484
33.98463948
33.6600166
33.47960875
33.40053051
33.40338323
33.47718944
33.65095443
33.9844311
34.42918438
35.14558847
36.13341497
37.23037994
38.14832793
36.33892246
19.42638023
36.47884182
42.12690378
41.68664223
40.1726753
38.63286361
37.29659451
36.19966115
35.19539973
34.51666168
33.82809838
33.5064487
33.32705697
33.24835976
33.28115471
33.35521485
33.52912993
33.85916772
34.29478852
35.00689511
35.98400023
37.03728037
37.81374495
35.78788164
19.08195688
35.57477143
41.47561407
41.2660892
39.87849069
38.39997026
37.09303439
36.01223678
35.02122904
34.35202226
33.67961787
33.36406381
33.18615165
33.10783359
33.13762959
33.21202344
33.38688378
33.7186771
34.15981747
34.86715418
35.83165075
36.83793414
37.48148702
35.27107831
18.82179279
34.70474616
40.84479491
40.85773967
39.59240796
38.17351783
36.8946891
35.82850248
34.84904417
34.18838746
33.51876005
33.20451477
33.02718494
32.94907539
33.02037424
33.09495156
33.26979199
33.59718654
34.023945
34.72680423
35.67671978
36.6338484
37.15293226
34.78625627
18.63502352
33.86747926
40.2319444
40.45990954
39.31334709
37.95279444
36.70120544
35.64846856
34.67913567
34.02582943
33.3755704
33.06757375
32.89139533
32.81349754
32.86918079
32.94405826
33.11963992
33.4492808
33.88873818
34.58623871
35.51964601
36.42635706
36.82920973
34.33122795
18.51250397
33.06266362
39.63553188
40.07135512
39.04044022
37.73719364
36.51223894
35.47206914
34.51171739
33.8651404
33.20835577
32.90006708
32.72418967
32.64633485
32.76185306
32.83686599
33.01242826
33.33746061
33.75307098
34.44580643
35.36099227
36.21659713
36.51132938
33.90373111
18.44647616
32.29046727
39.05449828
39.69106956
38.7729654
37.5261773
36.3274472
35.29918308
34.34702415
33.70595989
33.07731886
32.7750741
32.59992139
32.52213131
32.59929654
32.67460497
32.85063188
33.17711322
33.61963963
34.30614718
35.20147082
36.00561437
36.19990236
33.5015447
18.43046345
31.55145688
38.48856893
39.31837627
38.51037278
37.31931558
36.14655488
35.12976456
34.18555248
33.54982014
32.89672251
32.59404513
32.41914958
32.34125711
32.50821575
32.58364409
32.7597784
33.08420719
33.48679125
34.16846931
35.04278994
35.79423639
35.89534975
33.12296898
18.45150315
30.84680927
37.93860829
38.95295308
38.25222435
37.11622937
35.96929104
34.96364818
34.0287209
33.39679712
32.7902103
32.49037675
32.31565494
32.23768703
32.29999519
32.37577585
32.55233787
32.87711341
33.36135893
34.0359254
34.89031957
35.58379621
35.59981561
32.76924514
18.50522297
30.17970236
37.40927703
38.5973785
37.99933387
36.9171011
35.79569853
34.80082193
33.88111318
33.25312166
32.55745881
32.25790458
32.08326083
32.00499799
45.28073641
49.5131281
44.05182214
46.61720431
53.35933472
49.98527324
47.30135039
55.06652944
53.66965636
47.17543336
55.74049652
55.1774793
46.63924349
40.47750989
42.79736671
56.04602016
55.78107836
45.66777249
49.11441675
40.67394394
54.03980583
56.52700828
56.071503
42.30560688
40.65417411
43.53316386
40.42174752
54.51419787
46.10907582
48.2863793
43.48714016
41.55803256
41.16272213
45.48364648
44.41106106
57.44271141
60.57823651
52.04474897
45.81189059
44.10746864
41.78596487
46.31159241
45.60640816
47.04849407
49.64212431
50.72022916
55.21749602
54.87358408
53.90765066
47.48619791
46.28505079
42.33969986
46.65541299
46.38429666
47.31171058
45.54895126
47.78557043
56.98534157
55.88561485
42.8885943
46.63374762
46.6699261
46.89893349
40.32010305
42.97069544
41.47236703
58.21910479
57.87250546
43.50490934
46.19725392
46.60785512
46.30907217
33.39339808
36.70204
44.07080312
51.55883976
49.53176008
50.35410486
52.6524425
45.09644731
49.83866141
60.56901777
54.89252145
47.18030368
53.60543002
59.0543834
50.84830648
51.56072219
46.18017995
52.43705866
50.96441862
52.86183399
52.59329483
55.00623338
57.15701732
51.88466071
58.47769714
56.89194965
59.22443447
58.63618561
51.62518857
48.00067607
49.45676201
47.13218008
49.05407439
46.9754594
50.8691779
49.18294825
55.68083457
55.3103615
54.60622229
57.35995545
57.62848164
56.81009265
57.31436142
54.41853092
43.11746616
45.41078948
47.2876184
44.32598166
41.54609106
46.83671631
44.48130454
57.8017575
57.11052601
36.87243531
40.12586197
46.87006945
44.87586401
37.9343241
34.19097754
41.38993098
38.17189861
47.07073885
58.44380381
58.26236514
40.92208702
40.63948174
33.33028585
46.26334617
45.5824587
32.31237014
87.25398236
34.08851387
32.34790899
44.90082291
40.35653783
44.20554512
42.0721328
44.07364107
48.54468268
44.59070048
70.35627174
50.51638641
46.04910413
51.61846662
51.11068605
61.3088878
54.7232139
48.53820581
47.78792304
71.25410401
47.42460484
45.6653737
49.32317251
58.74265056
58.54464261
50.91430368
48.94857599
44.42880034
60.14729959
48.09246313
57.72954534
45.61381725
52.46217185
46.48945242
45.17992572
41.98964189
55.53492782
57.99491519
58.16986301
57.67032159
57.96211273
55.46714646
39.98184034
62.57922097
41.99190323
42.49809504
42.04680564
44.50316554
45.45324958
42.49116327
42.53685321
77.06655023
50.96859088
69.98580685
49.05109922
65.03175152
49.96449541
59.65357781
59.85419353
54.94241927
54.92510111
42.2926934
54.56071897
56.54880226
43.2733626
41.91503659
58.29955579
44.21532791
56.39931198
41.76645535
46.42642007
46.0455181
50.98465187
48.43694312
62.78643167
35.64744045
44.09315963
43.57756383
44.75909973
44.28207674
35.77860245
65.59207026
60.7452602
51.53836524
61.21536261
62.29744327
55.77153389
60.79043118
51.85024078
47.2886409
54.78147483
47.18146618
61.26378116
55.73718439
48.04045989
58.64888318
65.36788078
58.76978101
58.36051576
51.74636954
47.10518221
51.65293432
53.02032481
51.14508387
55.09339854
47.5694314
50.63441088
52.96707774
56.19378751
56.37653876
57.71753682
56.45765739
55.87093607
57.00089654
56.61234774
57.59596544
59.60860383
54.47741969
53.35403421
55.64093354
54.80131875
59.55801034
48.10696828
47.97266033
50.13873348
50.03222517
55.90846655
59.44421064
55.82532778
43.21982091
43.02900841
45.72651814
45.56643396
41.96754042
44.34344122
57.45565047
41.70022091
42.03230969
38.88234762
45.36694144
44.91712306
45.91463858
45.50822437
39.05052654
40.04284957
36.95045248
36.78456375
40.2887802
40.13246714
72.48401712
39.91607561
53.62829727
51.73776863
43.37921931
42.8892938
32.68472222
32.94438921
42.97554527
48.23712164
33.60455983
86.41425372
50.10817972
77.44816053
33.52714933
42.67432922
58.29846463
43.66934444
70.15151283
41.30328733
43.18235469
43.89729495
45.58727706
46.0804371
44.57053872
37.31958955
42.51486686
56.01180231
55.8579894
56.43907229
58.85020402
44.54458364
52.68766961
55.42694297
54.16204728
39.9952596
58.88211247
58.80606723
49.99839701
44.48452347
44.11421723
47.44940631
49.11136372
44.27888638
44.59829049
58.50987216
62.33641729
60.43605344
60.4557199
55.00822458
45.09166997
44.79509128
52.28609024
51.8620515
54.65597146
46.54220983
48.12410409
47.8431104
48.46758929
48.21368137
46.70522303
46.90075831
46.54707682
41.91968733
33.95885312
40.19439322
39.73906577
80.10015641
59.9017743
49.82913749
60.08339581
64.8074402
62.84785545
56.46545025
50.98359425
49.31234308
52.92686126
51.50485608
56.86377435
55.46204605
52.47592897
52.45307855
56.62211213
48.65530485
48.7529905
48.54548181
42.76867198
43.34957786
47.41047266
44.78997416
44.69917745
55.50683791
57.47723932
57.59276531
57.54694871
56.69076126
57.33711206
57.09824783
57.52258661
57.3918967
56.69502458
44.2737143
47.33886066
47.01346508
47.74559001
47.44352275
44.42782558
43.86181749
37.65824658
38.04319261
34.05145993
34.35701306
42.08078598
46.37283447
41.83006589
42.60782776
38.19373152
38.62587867
44.94590412
57.5453568
44.96874738
49.85534105
76.97077025
41.52687648
37.46079945
35.4104835
40.92395423
33.74894636
33.98108856
33.21954092
39.27527235
62.96532376
38.17722029
41.42857484
40.54520557
39.59205537
39.16544475
33.1657034
43.03043668
41.5126009
47.64837596
32.21162755
100.2155874
45.91993251
42.71492643
44.97789591
33.90220389
32.49714829
61.80477378
61.37943581
60.42965168
61.02249748
60.74194773
40.42332336
40.93333674
71.72876621
57.6737814
57.53087975
51.94532789
66.23518768
52.12527096
66.6123858
53.2032496
51.72173143
44.13668969
43.05779601
59.0441226
67.89247027
60.46283393
47.30137736
39.88144798
63.02664068
76.69816979
47.69579131
59.6666962
83.45696097
41.90510321
45.56709476
40.41633559
41.32576083
75.30538676
77.50992315
60.22333699
55.58014294
65.13849559
61.19231724
54.68684269
50.86779603
58.12682181
57.40426005
57.38418038
58.87289884
60.32022759
59.9381702
58.1011976
46.74522896
45.47207559
54.95562137
54.25512266
53.0922568
47.65934756
53.45639662
52.57629899
54.69682536
51.92807142
47.30724853
44.73745356
46.14082114
42.20887848
49.84504734
48.59991118
48.97614235
46.17529438
44.83904851
48.10430416
46.74749709
47.25413344
48.96470825
40.44894845
40.3559009
40.83821736
40.3291315
34.52437141
36.18176114
41.40510442
40.98171704
63.80143347
63.06993575
62.56892046
55.42454222
56.1432285
54.18878375
55.14775847
62.92993669
58.82675001
56.69430517
56.54915987
56.32293761
56.64671027
59.18322604
59.32723588
52.656186
53.85964562
63.34633603
63.89658047
65.2839109
64.30787213
59.79340111
66.03272243
67.65659666
66.47290531
67.30782105
66.41329235
68.16809716
67.04384061
56.9303449
64.26856575
65.46837691
45.42490797
51.90490778
50.84985582
52.90308865
52.19091508
46.13369626
49.39603619
48.67817756
50.48422279
49.64364024
52.71481924
55.6385011
54.98743232
56.40339439
55.84472328
53.2782898
48.79523165
53.84676261
53.14354269
54.76240538
54.07803896
49.2370924
52.75726128
52.4628097
55.63755755
56.6133897
54.10652608
52.92732306
42.15474939
41.58942508
43.13672611
42.3533236
40.68608868
40.13367221
41.40944738
40.8530992
47.54279678
46.87725182
48.44750729
47.77074932
45.55992442
43.65573658
46.63707406
45.97295683
43.63456423
43.75853032
44.48677577
43.75430336
59.21519729
45.04495192
46.56144787
43.80675747
44.50860582
37.15266461
37.50649014
43.70601185
34.74997772
34.49702351
35.12555882
34.85275221
34.32091284
42.31156549
34.57965779
36.70611445
39.58270322
41.53687422
46.21650786
39.12853429
36.29305344
40.02110891
39.16311308
35.57566333
35.24426619
36.09193723
35.69983352
45.10022938
38.77926989
39.29875244
67.8888609
41.50700247
66.47256805
57.79514848
65.9648968
41.55497044
79.76757064
40.93177117
76.50910411
67.27148742
37.32279894
36.11101199
33.45087557
33.6806461
40.76833673
39.55195349
33.21780268
33.40179413
72.834283
33.09549907
38.96415512
38.23088224
87.0340676
91.93372343
32.16931414
95.59739073
79.55737913
44.90465595
33.83188449
86.24608472
58.47947763
94.65395561
62.41584298
32.6378168
43.1472093
40.96116314
39.46440372
70.94331783
70.35361785
55.22744121
49.10115437
48.70312052
71.54745733
39.97110118
45.5396322
41.83492648
58.18241156
58.31389179
55.92059787
47.46710454
46.4601069
51.27016373
59.04725429
47.11932799
47.44689008
41.90041265
42.29151178
45.10520765
52.89378781
57.68551474
61.03664508
50.14583403
49.06079608
48.99873491
49.03922741
49.06584569
50.29836346
41.6798195
40.65470299
45.70836137
50.69542281
52.78223069
58.06014763
41.94491791
41.53820568
36.30634269
62.05861758
64.03386462
56.48252205
48.96115314
48.81272853
48.86326072
48.64979567
45.11044057
45.84607126
46.20683356
47.31749502
49.56876606
37.82740666
42.50839609
42.07893069
58.57339565
54.91521137
43.47885894
32.81597148
32.86650345
34.37037042
50.86564849
73.82255562
65.48429827
40.10936689
44.11923844
42.10834323
32.27951724
34.0215352
32.72938138
32.77677121
32.38277804
71.19585819
60.53645188
48.12201997
51.33148722
70.13344934
40.99679805
40.60196066
47.91924353
59.24120545
48.72973737
46.92205069
49.52745996
43.58752866
42.89635171
41.20868562
80.20650641
83.54997136
84.92816351
72.76027666
81.97267116
43.80192456
44.23185122
48.07387028
72.7340988
65.94653031
62.55222849
76.20023154
72.90278307
42.72013064
50.36167974
48.28645068
63.35566191
62.27538639
49.53663815
51.35743675
50.27334582
42.06760461
59.22535796
44.21822483
45.10370565
56.18153165
43.49807487
45.22204577
65.2160312
66.15291196
61.55285042
61.69488316
60.12610298
59.97214175
56.48669974
57.76809842
57.29274676
59.77944501
59.50891099
60.2438585
50.77502483
52.25329507
58.69561825
60.52903749
67.8183534
63.15857797
67.71770891
68.14222611
64.51608976
43.41460106
46.08868592
45.47389085
50.48974149
50.20120568
46.81716264
42.93773945
42.64512511
44.94668518
44.52444372
51.66044093
54.35412867
53.94747474
56.85084214
56.42764665
54.46124789
47.92963392
51.22971438
50.88946091
53.53957003
53.1411857
50.1555291
44.31401898
44.9056342
48.51877418
47.54791085
43.53693699
44.12095089
48.4152456
49.00782676
50.46245818
40.98789997
40.80827743
42.39503433
42.16547842
38.13605984
40.55255472
40.40557979
49.68452253
47.59166428
48.21056458
58.12458648
57.40564842
46.00049132
46.8688291
58.90075395
57.07269449
57.43561152
55.58605133
44.71787706
45.55213522
43.04477263
42.64590079
38.20004191
39.4965822
43.52427115
43.16391344
34.5678776
34.62902373
37.06469108
36.65576289
34.37676759
34.45091128
72.42092339
32.65902422
34.42963804
33.39168192
110.0105371
32.44251478
44.05703326
74.92687634
68.40486719
32.3978876
32.43596004
33.68412888
84.72737661
90.64257916
87.97414114
71.55413889
33.39518267
32.31207389
32.35415355
48.9412387
40.36981545
40.39315928
70.35121419
69.32700193
53.73719084
51.15062075
42.36013988
60.12224265
62.99151923
66.42725721
46.91476438
68.77543195
60.02774262
69.20753887
67.32071204
49.53241848
45.90442852
46.89627005
53.388815
55.19317772
55.62337789
54.50627273
54.7978856
61.76031829
61.44565825
61.87499731
60.48588917
60.9145587
61.07721455
52.43587892
47.08649093
47.44353307
46.55683017
46.79452699
52.81123532
63.91752862
63.1017169
63.21116256
62.36858379
62.75289912
63.35559305
52.23776976
48.53490963
48.95014923
47.79047086
48.16472478
52.36930843
54.03307123
53.95391232
53.2728087
53.31503274
37.76539136
40.42682821
40.28102684
34.13719479
36.77771936
36.64222284
37.18883536
36.93865144
34.22745471
73.61174408
75.1423522
66.49819248
74.97959679
33.22209828
33.16240351
33.3782224
33.30761898
32.71931128
34.73509851
32.93596137
33.08380164
33.83297013
36.30362656
36.1848296
36.52743318
36.4126099
33.90414709
33.54668323
33.44401717
34.82231911
33.757769
33.19094071
76.11974871
72.7552214
55.73493876
75.47765494
36.10693157
34.84353881
38.92206997
33.23550349
35.42320629
35.28942494
32.24119009
99.59234295
100.6146179
65.48438543
93.66743743
85.31830495
32.61805872
32.68467144
33.96886249
32.43288552
66.80111297
74.95201002
67.59849669
70.61104036
65.23516594
54.68187864
72.53411653
66.19498592
61.85275667
61.2467592
71.67164127
54.96619887
61.75837896
58.76101948
55.29059524
62.77100864
55.36753416
59.13016614
67.64906233
69.27896983
60.24874012
66.27186856
71.24153636
67.2521959
69.12401296
66.00604738
70.08740117
80.17671431
79.69140183
78.07989947
50.74323946
70.77217495
63.78348923
78.18525882
80.21149267
55.28362415
60.73609808
66.38100668
82.00270268
69.43512001
52.66359318
56.26076537
71.43281717
66.5301105
72.23375743
63.608631
67.58897392
71.22195944
73.43132404
72.60147389
56.91453859
57.49794292
57.86211243
56.45424766
56.46847509
56.31729668
59.21774978
59.52044952
59.93243631
58.53935352
58.9132879
58.73380765
46.31217821
46.91197651
46.92550562
53.77264874
53.5020742
50.11380597
54.96601138
54.91692245
53.77406232
52.64766339
53.5111941
49.58343714
46.57687852
46.47207008
46.90266226
46.76248646
47.97450059
62.74300126
55.61008537
43.43704611
65.07855349
64.78772032
64.27960643
47.60929046
62.78269287
61.70814811
43.10706357
43.47266244
53.21578532
64.56577123
62.25016064
58.73290387
58.26731263
57.17538657
59.84049131
59.27949757
58.96402953
69.18350098
68.90284513
62.20810506
69.95798458
72.36492387
64.39229944
68.85544786
69.12875985
65.00546836
63.23829891
63.22347042
63.19068072
63.21466648
64.66679561
66.47362904
66.99105724
67.22504725
71.33911102
71.00389089
71.62859247
71.55123936
67.04022159
68.61941507
70.43762851
71.95865964
68.86717702
48.83729462
48.64237301
45.40334489
46.31790431
49.74890738
49.54771052
43.52844597
43.21978457
44.17059964
43.83727517
55.17550348
54.760738
52.16502446
53.86349395
56.0103501
55.59224285
51.98244505
51.62027262
48.39578801
49.67106595
52.74364748
52.36476425
52.73920572
50.21248194
50.66866717
49.34151699
49.77895772
52.4272596
53.39701278
52.01776594
52.53450285
51.1300146
51.58584175
53.32686972
41.96001481
38.49310878
38.67606341
38.16328143
38.33011638
41.77529647
42.81048719
39.28729186
39.56013443
38.85954802
39.06385105
42.56756757
40.48932664
37.20698116
37.37640324
36.9213491
37.08865222
40.34281865
41.22285866
37.83923947
38.00590384
37.51353215
37.68767312
41.04605835
41.44191795
41.2370349
47.32201521
44.88329817
45.10712504
44.42607204
44.63042899
47.09103395
41.91194096
41.68925535
39.59090139
39.53557302
45.24314319
42.86006115
42.94043109
39.96254202
40.50348853
44.4113091
46.43657778
43.9863201
44.15531095
43.54196655
43.66081273
46.16371467
40.12287014
40.01879116
57.38846079
56.90327479
58.68716084
48.40437156
52.10741013
45.40547155
56.17716613
56.92135406
55.31122034
55.80306014
46.02763319
43.92469877
51.29311792
47.96046622
55.70320644
56.09766713
44.27742991
37.21827005
39.77412592
39.63291822
40.11083716
39.97701526
37.42155235
34.68544538
34.55691401
35.03725848
34.92147458
34.20844643
33.65461528
34.97029119
38.3013614
37.62606002
39.29974563
38.9900183
36.6593527
37.09767194
35.18288171
36.16805223
36.61294209
39.76345855
36.63873287
36.82945126
36.28571545
36.56245771
39.68045703
35.46695706
35.34508605
35.94973353
35.8166685
64.85348821
47.17052487
48.93737454
43.6002397
45.34984157
66.09154102
64.5767379
63.50381975
51.17096922
56.86956479
66.95867238
75.13990377
56.06642024
59.71431083
48.10280521
52.16386626
77.07693446
32.98190591
32.92990843
33.09531259
33.05222208
33.86013311
34.15956979
36.37829424
32.71869624
32.69357601
32.85182665
32.79885983
33.53556572
35.85354462
35.71603553
36.07723257
35.952044
33.59532128
33.28889976
35.39306916
35.09779555
35.63447125
35.46279186
33.32498175
71.11551947
35.15775824
34.91153854
32.90464373
84.96896349
105.7718265
108.2467307
106.0752345
105.8509992
88.64468796
32.23683724
88.37974584
71.18472235
74.59519188
33.75269678
32.48398911
32.55052083
85.81857598
92.25807965
91.11112067
78.9172286
84.36570454
95.84107799
92.98397531
66.88981878
89.26114846
80.87932523
32.4214894
32.28884672
33.10439269
36.7338285
36.78410966
36.85604631
36.80457027
36.88516386
36.90758339
36.91318457
36.99633792
36.97700562
37.01977911
37.07441906
37.02943562
37.0859828
37.10843409
37.04968937
37.11064608
37.10293666
37.0469586
37.09604453
37.05836737
37.02140163
37.04152078
36.97181641
36.96301872
36.94631881
36.86028908
36.89810972
36.83615547
36.77299914
36.85235473
36.6446443
36.74897518
36.76739179
36.788654
36.91346513
36.88686736
36.95545986
37.07602192
37.00931069
37.1116765
37.19962695
37.09699774
37.22134858
37.2620723
37.13659114
37.26753179
37.25786564
37.13034728
37.24562706
37.17916238
37.07950697
37.1505401
37.04307153
36.98242589
37.00274833
36.87741092
36.85957133
36.83650398
36.71897629
36.75317268
36.61988093
36.77853626
36.75119019
36.83477483
37.01171396
36.93096738
37.07192391
37.25130187
37.1093393
37.30816956
37.46165783
37.24847646
37.5058265
37.59185235
37.32236525
37.60614558
37.59982163
37.31539363
37.57701675
37.45084809
37.23225622
37.40342485
37.22565151
37.0759504
37.15953044
36.96350159
36.89143565
36.90188024
36.73440425
36.71794323
36.64434974
36.86003307
36.79361962
36.93791578
37.18905534
37.04876192
37.27993722
37.57236599
37.31574232
37.67490149
37.99319199
37.55914575
38.09758763
38.3281221
37.71666158
38.35698721
38.34384544
37.70916885
38.26470078
38.00705155
37.56679669
37.91176797
37.58802834
37.29541604
37.47686751
37.15882215
37.00101241
37.06202911
36.80707973
36.74654216
36.71383502
37.002771
36.89008581
37.10791715
37.46719514
37.24940732
37.60645014
38.10837157
37.68197358
38.31347361
39.09680861
38.18607436
39.41162868
40.29224799
38.59941505
40.35155219
40.11425879
38.56628112
39.74308986
39.08567729
38.22242061
38.85579332
38.21240067
37.71893376
38.01539187
37.48700645
37.22822577
37.33443198
36.94637144
36.83484123
36.82117129
37.19631753
37.0471292
37.33719602
37.84177932
37.55434467
38.05057282
38.89666826
38.28551833
39.30050286
41.69022495
39.5062835
40.75884347
41.2978351
40.21700545
41.99898021
41.99687385
40.69123739
41.40197419
40.70123487
40.19023922
40.417083
39.14591048
38.4200469
38.80316464
37.95640019
37.59260375
37.72360502
37.15356114
36.99260223
36.96186761
37.43329199
37.25555762
37.61288107
38.27302146
37.95191317
38.554946
39.75437231
39.12065175
39.8515354
40.4951704
40.16183235
43.23607539
43.93911626
43.35524845
45.66941143
44.1774787
42.73037192
42.46617091
40.31151586
39.4310571
39.77555716
38.52261421
38.08978991
38.19320216
37.41188403
37.21540104
37.12228202
37.68039251
37.49512019
37.89334782
38.67865525
38.37672113
39.01578959
40.45281852
39.94540086
40.79045619
41.63117598
41.38513533
45.70214299
46.96122204
46.724871
50.43408806
47.52935449
46.30544374
44.4366465
41.49118591
40.63155025
40.76741412
39.10927889
38.67779171
38.6827248
37.68667117
37.48155544
37.28803751
37.91900388
37.74089844
38.15834617
39.037165
38.77235195
39.41309111
41.00609489
40.601127
41.48920428
42.43224887
42.25049922
46.84987702
48.45426634
48.3496818
53.16000757
49.9100959
49.15181668
45.94501167
42.48445969
41.78755148
41.61998117
39.62252894
39.25704281
39.11602607
37.93954555
37.75225617
37.4531508
38.14179622
37.97451712
38.40180541
39.35420543
39.11834201
39.76160294
41.48915401
41.12920835
42.06575994
43.08842576
42.92024918
47.33057942
48.08068677
48.24230157
54.40756309
51.2661531