/*--------------------------------*- C++ -*----------------------------------*\
| =========                 |                                                 |
| \\      /  F ield         | OpenFOAM: The Open Source CFD Toolbox           |
|  \\    /   O peration     | Version:  v1912                                 |
|   \\  /    A nd           | Website:  www.openfoam.com                      |
|    \\/     M anipulation  |                                                 |
\*---------------------------------------------------------------------------*/
FoamFile
{
    version     2.0;
    format      ascii;
    class       surfaceScalarField;
    location    "1";
    object      meshPhi;
}
// * * * * * * * * * * * * * * * * * * * * * * * * * * * * * * * * * * * * * //

dimensions      [0 3 -1 0 0 0 0];
oriented        oriented;


internalField   nonuniform List<scalar> 
25162
(
0
0
0
0
0
0
0
0
0
0
0
0
0
0
0
0
0
0
0
0
0
0
0
0
0
0
0
0
0
0
0
0
0
0
0
0
0
0
0
0
0
0
0
0
0
0
0
0
0
0
0
0
0
0
0
0
0
0
0
0
0
0
0
0
0
0
0
0
0
0
0
0
0
0
0
0
0
0
0
0
0
0
0
0
0
0
0
0
0
0
0
0
0
0
0
0
0
0
0
0
0
0
0
0
-6.27761972e-09
8.974702987e-08
-1.005049701e-06
0
1.384501836e-08
8.544581259e-07
0
0
0
0
0
0
0
0
0
0
0
0
0
0
0
0
0
0
0
0
0
0
0
0
0
0
0
0
0
0
0
0
0
0
0
0
0
0
0
0
0
0
0
0
0
0
0
0
0
0
0
0
0
0
0
0
0
0
0
0
0
0
0
0
0
0
2.966855314e-08
-1.337261906e-06
-2.606759604e-06
8.453286767e-06
9.901380731e-06
-7.509870513e-05
-2.23671036e-05
0.0001062574186
1.349949313e-05
-0.000197339218
-2.377255364e-05
0.0002211874851
-1.014844678e-06
-0.000256518639
9.933671691e-07
0.0002540260271
-1.410191421e-05
-0.0002043571664
2.526747644e-05
0.0001762366898
-6.873990354e-06
-7.874418485e-05
1.91519714e-05
4.905828982e-05
0
-1.444011158e-06
4.164779203e-07
0
0
0
0
0
0
0
0
0
0
0
0
0
0
0
0
0
0
0
0
0
0
0
0
0
0
0
0
0
0
0
0
0
0
0
0
0
0
0
0
0
0
0
0
0
0
0
0
0
0
0
1.408780887e-06
-2.567556239e-06
-6.829402878e-06
1.836841921e-05
4.384516149e-05
-0.0001596078719
-6.57599109e-05
0.0002278645692
8.281972599e-05
-0.000455628463
-0.0001085470823
0.0005305728953
7.012287163e-05
-0.0007221626396
-8.981752219e-05
0.0007692530227
4.405902551e-06
-0.0008433911639
-8.628341809e-06
0.0008433214592
-7.03204606e-05
-0.0007651248517
8.660337661e-05
0.0007140351242
-8.886899992e-05
-0.0005014693405
0.000120232518
0.0004180739587
-3.548625034e-05
-0.0001746822405
6.077709059e-05
0.0001083649979
0
-2.598812774e-06
1.096504444e-06
0
0
0
0
0
0
0
0
0
0
0
0
0
0
0
0
0
0
0
0
0
0
0
0
0
0
0
0
0
0
0
0
0
0
0
0
0
0
0
0
0
0
0
0
0
-4.710050141e-07
8.557462983e-07
4.815899003e-05
-0.0001034626861
-6.582296749e-05
0.0001774640187
0.0001426432238
-0.000470735884
-0.0001695208819
0.0005801806739
0.0001935841846
-0.0009008647047
-0.0002223279726
0.0009962795586
0.0001537594533
-0.001221055713
-0.0001740775411
0.001272184612
2.715873784e-05
-0.001351948027
-3.394665999e-05
0.001354609048
-0.0001283662428
-0.001287692746
0.0001380741387
0.001237970824
-0.0002216370364
-0.0009997694979
0.0002535758442
0.0008939346087
-0.0001619977795
-0.0005449546109
0.0002032589632
0.0004315041238
-3.731044961e-05
-0.000129743994
6.024837993e-05
6.414142725e-05
0
0
0
0
0
0
0
0
0
0
0
0
0
0
0
0
0
0
0
0
0
0
0
0
0
0
0
0
0
0
0
0
0
0
0
0
0
0
0
0
0
0
1.321753977e-05
-1.0884455e-05
-2.082038985e-05
4.679417004e-05
0.0001305305965
-0.0002788954057
-0.0001496539492
0.0003860786714
0.0002445485735
-0.0007553862217
-0.0002734464639
0.0008811987588
0.0003050829413
-0.001196790687
-0.0003198747144
0.001269621435
0.0002208449994
-0.00142450699
-0.0002298057516
0.001448083356
4.86721443e-05
-0.001470470104
-5.014166093e-05
0.00147109183
-0.0001491072218
-0.001457135779
0.0001467866517
0.0014367366
-0.0003093425518
-0.001305291479
0.0003226857314
0.001221229458
-0.0003393137331
-0.0008611318381
0.0003768940567
0.0007264695572
-0.000147930147
-0.0003298040561
0.0001791782581
0.0002190235986
-1.461969555e-05
-3.453336436e-06
6.166259566e-06
2.190650926e-07
0
0
0
0
0
0
0
0
0
0
0
0
0
0
0
0
0
0
0
0
0
0
0
0
0
0
0
0
0
0
0
0
0
0
0
-4.153081044e-07
6.97369777e-09
2.54632213e-07
4.427703161e-05
-4.744187552e-05
-5.236022455e-05
0.0001062305389
0.0001896797764
-0.0003872458731
-0.0002074704125
0.0005151418492
0.0003396284659
-0.0008830036058
-0.0003537526976
0.0009941028157
0.0003705959736
-0.001249150258
-0.0003923469752
0.001304437512
0.000223623783
-0.001351848812
-8.147201029e-05
-0.0001179101678
0.0006631408961
0.0006644663113
-0.0006608584997
3.076065912e-05
-3.084377472e-05
0.0006609416153
-0.0006758515847
-0.0001158191453
0.001345036036
-0.0006747092864
7.256139332e-05
4.878258708e-05
-0.001286046136
-0.0003673321855
0.000366289778
0.001240020769
-0.000459498177
-0.0009751618982
0.0004732030067
0.0008577662195
-0.0002646250393
-0.0004621463347
0.0002940569236
0.000338877901
-6.691307229e-05
-2.992334089e-05
3.944085522e-05
2.108352803e-05
0
0
0
0
0
0
0
0
0
0
0
0
0
0
0
0
0
0
0
0
0
0
0
0
0
0
0
0
0
0
0
0
0
1.740790262e-06
0
-3.732614427e-06
2.113540213e-06
3.073083781e-06
6.836361007e-05
-6.866727049e-05
-7.024069432e-05
0.0001341688832
0.0002335564611
-0.0004243382815
-0.000236783661
0.0005392207501
0.0003864128787
-0.0008732317476
-0.0003910586106
0.0009667937469
0.0004189740605
-0.001142795356
-0.0004232880778
0.001157678847
0.0001263746536
-0.0005920213114
-0.0001255752678
0.0005912219256
-0.0005870510954
-6.499969945e-05
6.591095597e-05
0.0005861398388
-0.001150321588
-0.0003580530561
0.0003550429741
0.001129693353
-0.0005226221537
-0.0009358730018
0.0005285548077
0.0008359293721
-0.0003543714596
-0.0004873342527
0.0003632332666
0.0003720753118
-0.0001014719001
-6.234403351e-05
7.26003508e-05
4.424822449e-05
0
0
0
0
0
0
0
0
0
0
0
0
0
0
0
0
0
0
0
0
0
0
0
0
0
0
0
0
0
0
0
0
0
4.854972823e-06
0
-6.119272935e-06
4.838653292e-06
5.195631063e-06
7.992152939e-05
-7.205912344e-05
-8.193064614e-05
0.0001325871862
0.0002494829841
-0.0003897936152
-0.0002519993583
0.0004890009275
0.0004040140314
-0.000771073335
-0.0004063996212
0.0008468526352
0.0004290822239
-0.000975288411
-0.0004298375416
0.0009799894923
0.0001286426584
-0.000495468891
-0.0001286231049
0.0004954493375
-0.0004983980973
-6.778949545e-05
6.804060949e-05
0.0004981469832
-0.0009840683026
-0.000349872723
0.0003487571473
0.0009734734329
-0.0005412043726
-0.0008287394649
0.0005431080246
0.0007486181917
-0.0003967844731
-0.0004569422325
0.0004032220245
0.0003566238379
-0.0001058695852
-8.579719511e-05
9.012876542e-05
5.135389886e-05
0
0
0
0
0
0
0
0
0
0
0
0
0
0
0
0
0
0
0
0
0
0
0
0
0
0
0
0
0
0
0
0
0
7.333856013e-06
0
-8.991084847e-06
5.964597428e-06
6.272017258e-06
8.688367156e-05
-6.641947659e-05
-8.886455956e-05
0.0001184279693
0.0002579829086
-0.0003343204327
-0.0002603935553
0.0004164285024
0.0004118578832
-0.00064697406
-0.0004141165921
0.0007078883939
0.0004312835946
-0.0008071348324
-0.0004317468132
0.0008093844362
0.000128462444
-0.0004095477119
-0.0001282982587
0.0002059168835
0.0002034666431
-0.0004115330839
-6.845809813e-05
6.854042804e-05
0.000411450754
-0.0008111049885
-0.0003495607043
0.0003504714446
0.0007992832483
-0.0005398597238
-0.000672343578
0.0005376402594
0.0006051837038
-0.0003982463344
-0.0003665892326
0.0003951695898
0.0002858005066
-8.490605019e-05
-8.717688466e-05
8.580531657e-05
4.112341193e-05
0
0
0
0
0
0
0
0
0
0
0
0
0
0
0
0
0
0
0
0
0
0
0
0
0
0
0
0
0
0
0
0
0
1.078683579e-05
0
-1.282895324e-05
6.934559505e-06
7.069532528e-06
9.499076813e-05
-5.9094176e-05
-9.712351332e-05
0.0001019622507
0.0002677723963
-0.0002755305521
-0.0002703166486
0.0003405695507
0.0004210530643
-0.0005209941131
-0.0004234661692
0.0005678553898
0.0004330230658
-0.0006409308812
-0.0004333592461
0.000641764007
0.0001280950639
-0.0003258965065
-0.0001280171791
0.000164205324
0.0001616132976
-0.0003264221499
-6.836003164e-05
6.834998563e-05
0.0003264321959
-0.0006382655631
-0.0003557333467
0.0003580058398
0.0006200739722
-0.000523287868
-0.0004939150258
0.0005092761675
0.0004449321112
-0.0003630250202
-0.0002585354025
0.0003525498856
0.0001980130823
-5.247059553e-05
-6.690519664e-05
6.254842798e-05
2.267380546e-05
0
0
0
0
0
0
0
0
0
0
0
0
0
0
0
0
0
0
0
0
0
0
0
0
0
0
0
0
0
0
0
0
0
1.526160867e-05
0
-1.615675393e-05
7.245186052e-06
6.897586766e-06
0.0001040066727
-4.883225471e-05
-0.0001066658917
8.148384234e-05
0.0002784837483
-0.0002103698558
-0.0002816327428
0.0002580441777
0.0004312762863
-0.0003891758429
-0.0004343167379
0.0004228584292
0.0004341291964
-0.0004733630583
-0.00043425367
0.0004735062436
0.0001276183582
-0.0002418952754
-0.0001275693859
0.0001221894103
0.0001196568928
-0.0002412978985
-6.786632322e-05
6.771680961e-05
0.0002414474121
-0.0004595398136
-0.0003628472223
0.0003642388997
0.0004374988943
-0.000482243577
-0.0003381964922
0.0004807823172
0.0002874392758
-0.0003059782803
-0.0001506718572
0.0002840117913
0.0001109133851
-2.460627306e-05
-4.078604205e-05
3.448703811e-05
8.177450325e-06
0
0
0
0
0
0
0
0
0
0
0
0
0
0
0
0
0
0
0
0
0
0
0
0
0
0
0
0
0
0
0
0
0
2.221393414e-05
0
-2.815210672e-05
6.882450174e-06
6.801578133e-06
0.0001151492845
-3.439190024e-05
-0.0001215817945
5.411434369e-05
0.0002923666834
-0.000137965203
-0.0002982697814
0.0001692397333
0.0004447110016
-0.0002571151738
-0.0004427043346
0.0002739693801
0.0004344945902
-0.00030481128
-0.0004344939166
0.0001576912976
0.0001471193087
6.515136186e-05
-8.013596516e-05
-6.512901134e-05
8.011361464e-05
1.366568797e-05
-3.970813661e-05
-1.366968146e-05
7.882723336e-05
-3.911510326e-05
-0.0001570583363
-6.673911149e-05
0.0001443481452
0.0003044889784
-0.000146607261
-7.843241478e-05
-0.0003633871956
-0.0002779568223
0.0003639591363
0.0002538976267
-0.0004417566331
-0.0001796545697
0.0004251590736
0.0001525398354
-0.0002282309579
-7.488338105e-05
0.000212190782
5.262835122e-05
-6.429148248e-06
-1.333413783e-05
1.032987393e-05
6.605114932e-07
0
0
0
0
0
0
0
0
0
0
0
0
0
0
0
0
0
0
0
0
0
0
0
0
0
0
0
0
0
0
0
0
0
3.215960665e-05
0
-2.685303029e-05
4.470746992e-06
3.028959313e-06
0.0001312363985
-2.09584327e-05
-0.0001280023258
3.327796519e-05
0.0003092970162
-7.955382411e-05
-0.0003045693806
9.528778119e-05
0.0004590606638
-0.0001311097585
-0.0004525625044
0.0001370670091
0.0004303800665
-0.000135772806
-0.0004303800665
7.315899336e-05
6.261381261e-05
6.439212564e-05
-7.315899336e-05
-0.000125805155
6.141302936e-05
3.787732237e-05
3.528167099e-05
3.047227522e-05
-3.787735282e-05
-3.047222953e-05
7.315899336e-05
-3.528168622e-05
-0.000135772806
-0.0001419604696
0.0001431236141
0.0001339547706
-0.0003543313157
-0.0001090934218
0.0003483419213
9.707549548e-05
-0.0003670462338
-5.999773828e-05
0.0003560242688
4.158116765e-05
-0.0001521300741
-1.659972242e-05
0.0001299753097
1.287177197e-05
-4.176118256e-07
-1.897491741e-06
8.521646434e-07
0
0
0
0
0
0
0
0
0
0
0
0
0
0
0
0
0
0
0
0
0
0
0
0
0
0
0
0
0
0
0
0
0
0
1.715419735e-05
0
-6.460394868e-06
-1.317255378e-07
-4.410407464e-07
0.0001045110173
-1.385623308e-06
-9.269623086e-05
4.065349871e-06
0.0002713725346
-1.887428661e-05
-0.0002546321599
2.389172626e-05
0.0004078851845
-2.65708538e-05
-0.000385964511
2.131609872e-05
0.0004146931957
1.034674972e-05
-0.0003982316252
-2.289033939e-05
0.000125805155
3.247744512e-05
-0.0002396986347
-3.247744512e-05
0.0001138934797
4.902727783e-05
3.247744512e-05
-4.902727781e-05
-3.247744512e-05
-0.0001489939707
3.686691159e-05
0.0001499272728
-4.117898721e-05
-0.0003282425397
5.078568045e-05
0.0003156046712
-5.024994102e-05
-0.0002886122844
3.503616873e-05
0.0002654744728
-2.716117853e-05
-7.651366908e-05
6.595844573e-06
6.239526785e-05
-3.597534507e-06
0
0
0
0
0
0
0
0
0
0
0
0
0
0
0
0
0
0
0
0
0
0
0
0
0
0
0
0
0
0
0
0
0
0
0
0
0
1.600495806e-07
0
0
-1.343065668e-08
0
5.030562899e-05
4.928543429e-06
-3.585259835e-05
-9.722916398e-06
0.0001908095358
2.46192925e-05
-0.0001659999703
-2.941602937e-05
0.0003056157268
4.936008801e-05
-0.0002753162354
-5.949916239e-05
0.0003300190489
0.0001004001497
-0.0003019837012
-0.0001155000909
0.0002232450506
0.0001536218383
-0.0002089076129
-0.0001622394881
4.601705053e-05
0.0001774642817
-4.150452563e-05
-0.0001804085401
-0.0001433356424
0.0001836037414
0.0001372244622
-0.0001810928289
-0.0002574748192
0.0001536643708
0.0002316874138
-0.000137122799
-0.0001796385632
7.398235711e-05
0.0001483644814
-5.288050174e-05
-2.414756508e-05
8.315976457e-06
1.398164974e-05
-2.073799994e-06
0
0
0
0
0
0
0
0
0
0
0
0
0
0
0
0
0
0
0
0
0
0
0
0
0
0
0
0
0
0
0
0
0
0
0
0
0
0
0
0
0
0
4.232167276e-06
2.526914019e-08
-7.203374877e-07
-1.811602474e-06
8.76452211e-05
2.587142623e-05
-6.281695384e-05
-3.72257714e-05
0.0001789455466
7.533602402e-05
-0.0001464827939
-8.929485295e-05
0.0002086707227
0.000134917674
-0.0001764606095
-0.0001507187436
0.0001489297623
0.0001943253929
-0.0001262548272
-0.000206087856
2.177865169e-05
0.0002278645746
-1.516438799e-05
-0.0002295875949
-0.0001061788704
0.0002137389691
9.216106659e-05
-0.0002006316268
-0.000142890759
0.0001394879855
0.0001127001758
-0.0001142312958
-6.169360733e-05
4.180257755e-05
3.896066637e-05
-2.362618439e-05
-1.837096815e-07
8.426528262e-08
0
0
0
0
0
0
0
0
0
0
0
0
0
0
0
0
0
0
0
0
0
0
0
0
0
0
0
0
0
0
0
0
0
0
0
0
0
0
0
0
0
0
0
0
0
0
0
0
8.214696134e-06
1.212741805e-06
-1.335411644e-06
-5.444971673e-06
5.791985159e-05
3.471414113e-05
-3.471154275e-05
-4.748082696e-05
8.599624993e-05
8.797494484e-05
-6.043855763e-05
-0.0001010060704
6.244320332e-05
0.000133642702
-4.485993621e-05
-0.0001410715961
1.794010132e-06
0.0001478416892
5.855723323e-08
-0.0001440247562
-4.59899068e-05
0.0001137101813
3.176394851e-05
-9.829057812e-05
-3.637313186e-05
4.597252556e-05
1.915807239e-05
-3.000130376e-05
-1.736959413e-06
1.572865056e-06
4.741830269e-09
-1.658013796e-08
0
0
0
0
0
0
0
0
0
0
0
0
0
0
0
0
0
0
0
0
0
0
0
0
0
0
0
0
0
0
0
0
0
0
0
0
0
0
0
0
0
0
0
0
0
0
0
0
0
0
0
0
0
0
2.082673291e-07
0
0
-2.674580705e-07
8.280329943e-06
7.128471326e-06
-1.328594717e-06
-1.10243428e-05
8.802295958e-06
2.168467485e-05
-2.908141851e-06
-2.371098567e-05
-5.693166991e-07
2.256279642e-05
1.949445269e-07
-1.980622737e-05
-3.30859215e-06
7.898144906e-06
2.717722455e-07
-4.32263924e-06
0
0
0
0
0
0
0
0
0
0
0
0
0
0
0
0
0
0
0
0
0
0
0
0
0
0
0
0
0
0
0
0
0
0
0
0
0
0
0
0
0
0
0
0
0
0
0
0
0
0
0
0
0
0
0
0
0
0
0
0
0
0
0
0
0
0
0
0
0
0
0
0
0
0
0
0
0
0
0
0
0
0
0
0
0
0
0
0
0
0
0
0
0
0
0
0
0
0
0
0
0
0
0
0
0
0
0
0
0
0
0
0
0
0
0
0
0
0
0
0
0
0
0
0
0
0
0
0
0
0
0
0
0
0
0
0
0
0
0
0
0
0
0
0
0
0
0
0
0
0
0
0
0
0
0
0
0
0
0
0
0
0
0
0
0
0
0
0
0
0
0
0
0
0
0
0
0
0
0
0
0
0
0
0
0
0
0
0
0
0
0
0
0
0
0
0
0
0
0
0
0
0
0
0
0
0
0
0
0
0
0
0
0
0
0
0
0
0
0
0
0
0
0
0
0
0
0
0
0
0
0
0
0
0
0
0
0
0
0
0
0
0
0
0
0
0
0
0
0
0
0
0
0
0
0
0
0
0
0
0
0
0
0
0
0
0
0
0
0
0
0
0
0
0
0
0
0
0
0
0
0
0
0
0
0
0
0
0
0
0
0
0
0
0
0
0
0
0
0
0
0
0
0
0
0
0
0
0
0
0
0
0
0
0
0
0
0
0
0
0
0
0
0
0
0
0
0
0
0
0
0
0
0
0
0
0
0
0
0
0
0
0
0
0
0
0
0
0
0
0
0
0
0
0
0
0
0
0
0
0
0
0
0
0
0
0
0
0
0
0
0
0
0
0
0
0
0
0
0
0
0
0
0
0
0
0
0
0
0
0
0
0
0
0
0
0
0
0
0
0
0
0
0
0
0
0
0
0
0
0
0
0
0
0
0
0
0
0
0
0
0
0
0
0
0
0
0
0
0
0
0
0
0
0
0
0
0
0
0
0
0
0
0
0
0
0
0
0
0
0
0
0
0
0
0
0
0
0
0
0
0
0
0
0
0
0
0
0
0
0
0
0
0
0
0
0
0
0
0
0
0
0
0
0
0
0
0
0
0
0
0
0
0
0
0
0
0
0
0
0
0
0
0
0
0
0
0
0
0
0
0
0
0
0
0
0
0
0
0
0
0
0
0
0
0
0
0
0
0
0
0
0
0
0
0
0
0
0
0
0
0
0
0
0
0
0
0
0
0
0
0
0
0
0
0
0
0
0
0
0
0
0
0
0
0
0
0
0
0
0
0
0
0
0
0
0
0
0
0
0
0
0
0
0
0
0
0
0
0
0
0
0
0
0
0
0
0
0
0
0
0
0
0
0
0
0
0
0
0
0
0
0
0
0
0
0
0
0
0
0
0
0
0
0
0
0
0
0
0
0
0
0
0
0
0
0
0
0
0
0
0
0
0
0
0
0
0
0
0
0
0
0
0
0
0
0
0
0
0
0
0
0
0
0
0
0
0
0
0
0
0
0
0
0
0
0
0
0
0
0
0
0
0
0
0
0
0
0
0
0
0
0
0
0
0
0
0
0
0
0
0
0
0
0
0
0
0
0
0
0
0
0
0
0
0
0
0
0
0
0
0
0
0
0
0
0
0
0
0
0
0
0
0
0
0
0
0
0
0
0
0
0
0
0
0
0
0
0
0
0
0
0
0
0
0
0
0
0
0
0
0
0
0
0
0
0
0
0
0
0
0
0
0
0
0
0
0
0
0
0
0
0
0
0
0
0
0
0
0
0
0
0
0
0
0
0
0
0
0
0
0
0
0
0
0
0
0
0
0
0
0
0
0
0
0
0
0
0
0
0
0
0
0
0
0
0
0
0
0
0
0
0
0
0
0
0
0
0
0
0
0
0
0
0
0
0
0
0
0
0
0
0
0
0
0
0
0
0
0
0
0
0
0
0
0
0
0
0
0
0
0
0
0
0
0
0
0
0
0
0
0
0
0
0
0
0
0
0
0
0
0
0
0
0
0
0
0
0
0
0
0
0
0
0
0
0
0
0
0
0
0
0
0
0
0
0
0
0
0
0
0
0
0
0
0
0
0
0
0
0
0
0
0
0
0
0
0
0
0
0
0
0
0
0
0
0
0
0
0
0
0
0
0
0
0
0
0
0
0
0
0
0
0
0
0
0
0
0
0
0
0
0
0
0
0
0
0
0
0
0
0
0
0
0
0
0
0
0
0
0
0
0
0
0
0
0
0
0
0
0
0
0
0
0
0
0
0
0
0
0
0
0
0
0
0
0
0
0
0
0
0
0
0
0
0
0
0
0
0
0
0
0
0
0
0
0
0
0
0
0
0
0
0
0
0
0
0
0
0
0
0
0
0
0
0
0
0
0
0
0
0
0
0
0
0
0
0
0
0
0
0
0
0
0
0
0
0
0
0
0
0
0
0
0
0
0
0
0
0
0
0
0
0
0
0
0
0
0
0
0
0
0
0
0
0
0
0
0
0
0
0
0
0
0
0
0
0
0
0
0
0
0
0
0
0
0
0
0
0
0
0
0
0
0
0
0
0
0
0
0
0
0
0
0
0
0
0
0
0
0
0
0
0
0
0
0
0
0
0
0
0
0
0
0
0
0
0
0
0
0
0
0
0
0
0
0
0
0
0
0
0
0
0
0
0
0
0
0
0
0
0
0
0
0
0
0
0
0
0
0
0
0
0
0
0
0
0
0
0
0
0
0
0
0
0
0
0
0
0
0
0
0
0
0
0
0
0
0
0
0
0
0
0
0
0
0
0
0
0
0
0
0
0
0
0
0
0
0
0
0
0
0
0
0
0
0
0
0
0
0
0
0
0
0
0
0
0
0
0
0
0
0
0
0
0
0
0
0
0
0
0
0
0
0
0
0
0
0
0
0
0
0
0
0
0
0
0
0
0
0
0
0
0
0
0
0
0
0
0
0
0
0
0
0
0
0
0
0
0
0
0
0
0
0
0
0
0
0
0
0
0
0
0
0
0
0
0
0
0
0
0
0
0
0
0
0
0
0
0
0
0
0
0
0
0
0
0
0
0
0
0
0
0
0
0
0
0
0
0
0
0
0
0
0
0
0
0
0
0
0
0
0
0
0
0
0
0
0
0
0
0
0
0
0
0
0
0
0
0
0
0
0
0
0
0
0
0
0
0
0
0
0
0
0
0
0
0
0
0
-0.0005067960664
0.0005068027814
0.0001286359434
5.538919272e-05
0.0005082816782
-5.508581823e-05
-0.0002533847887
-0.000255200264
-4.98257153e-05
-0.0005895222395
5.229685942e-05
-0.0004200606376
0.0001285939255
0.000211392887
0.0002085362691
5.690783034e-05
0.0004226551624
-5.676136122e-05
-0.0002100430426
-0.0002127585889
5.621475482e-05
-0.0002483065436
-0.0002509171158
-0.0003363656572
0.0001281843466
0.0001694907093
0.0001667856652
5.666437006e-05
0.0003366276227
-5.697896186e-05
-0.0001667802304
-0.0001695328005
5.699058319e-05
-0.0002042123019
-0.0002074035349
-0.000252322525
0.0001277141417
0.000127435013
0.0001247917285
5.640774192e-05
0.0002517119222
-5.634922891e-05
-0.0002517704352
-0.000326465746
5.67079661e-05
-8.284077266e-05
8.284011964e-05
6.515201488e-05
4.047260144e-05
-7.91879887e-06
7.925100788e-06
-4.047890336e-05
-4.112095736e-05
8.156977071e-05
1.368947605e-05
5.498577991e-05
0.0001675342575
-5.517577647e-05
-0.0001673442609
-0.0002411021912
5.621203459e-05
-4.054337769e-05
4.054337769e-05
6.439212563e-05
4.054346237e-05
-1.97052541e-05
1.970553936e-05
-4.054374763e-05
-3.976003314e-05
-7.866902342e-06
8.367752124e-05
-3.718330215e-05
1.32687386e-05
1.12527799e-05
9.418881593e-05
0.0001789948789
-8.390900863e-05
-9.409779347e-05
-4.182949392e-05
-5.334739886e-05
-0.0001568241158
5.475155941e-05
-0.0006027025225
0.0006025756633
0.0001265015127
4.239998271e-05
-0.0006609897329
-4.226874957e-05
0.0006005257229
-5.053116582e-05
-0.0005998202723
-4.4045309e-05
-0.0006717213941
3.991511836e-05
3.538125042e-06
0.0001384462562
-3.432160704e-06
-0.0001385522206
0.0002995187705
-1.677747363e-06
-0.000300417463
2.576439805e-06
0.0005081018119
-6.760962914e-05
0.0002892941012
0.001024898754
-0.0002881951632
-0.001026222348
-0.0002884236285
-0.001155494336
0.000289740639
-0.0008487961721
0.0008514579577
0.0004308705263
-0.0001402533521
0.0001403029667
-0.0004201102522
0.0001404387916
-0.0004954397015
-0.0001404679811
3.828909687e-06
0.0001154535571
-3.919422458e-06
-0.0001153630443
-4.145500103e-06
0.0001256331742
-0.0001254143162
3.92664213e-06
0.0004226001592
-6.840309497e-05
0.000290033463
0.0008552406095
-0.000289845091
-0.0008554931842
-0.0009844546724
0.0002896165712
-0.0006827454124
0.0006838364611
0.0004326635649
-0.000139933839
0.0001399841957
-0.0003364160139
-0.000409602781
-0.000140198283
-0.0001282319443
-0.0003785377601
0.0001282922775
0.0001905210865
0.0001879563404
-4.522362281e-05
9.37092602e-05
4.508226148e-05
-0.0001879852791
9.441738028e-05
4.515620674e-05
0.0001031036934
-0.0002057940864
-4.504962357e-05
0.0001025838098
3.700500543e-06
9.38965419e-05
-3.716722211e-06
-9.388032023e-05
-3.40844783e-06
0.0001040612595
-0.0001039778499
3.325038274e-06
0.0003367711305
-6.850353945e-05
0.0002921862534
0.0006815507698
-0.0002911499804
-0.0006841849469
-0.0008115419748
0.0002902876983
-0.0005151016346
0.0005154895624
0.0004338220323
-0.0001395512744
0.0001396054969
-0.0002523767476
-0.0003259384527
-0.0001398918928
-0.00012796098
-0.0002944082917
0.0001279535837
0.000148540342
0.0001458753461
-2.227016603e-05
7.244887486e-05
2.234669757e-05
-7.25254064e-05
4.475547212e-05
8.233693552e-05
-0.0001641467849
-4.473701725e-05
8.179139454e-05
6.591829462e-06
0.0001454911742
-6.58571276e-06
-0.0001454972909
-6.566299445e-06
0.0001643686089
6.894166038e-06
-8.208900767e-05
-8.260746787e-05
-0.0003470468568
0.0004343655743
0.000178827278
0.0001683485947
-0.000139327389
8.555075057e-05
0.0001393008882
-0.0001683650224
-0.0002419431226
-0.0001395034271
-6.520580055e-05
-0.0001039514426
0.0001039490274
6.520821572e-05
-2.360348829e-05
5.209206224e-05
2.336659104e-05
-5.185516499e-05
2.302752308e-05
6.100718117e-05
-6.117502641e-05
-2.285967784e-05
-5.16804967e-05
-7.334468705e-06
5.146568237e-05
7.549283038e-06
6.181920554e-06
0.0001032670386
-6.271403708e-06
-0.0001031775555
-6.399028481e-06
0.0001217020699
-0.0001216693675
6.36632607e-06
-0.0002082451157
0.0004334841207
0.0001214635403
8.367752124e-05
-0.00013772781
4.313414355e-05
0.00013772781
-8.367752124e-05
7.764005237e-05
-0.0001577725382
-0.0001393308683
-6.515998378e-05
-6.172390678e-05
6.171664233e-05
6.516724823e-05
-2.234436974e-05
2.899339431e-05
2.285881742e-05
-2.950784198e-05
2.390644889e-05
3.938487113e-05
-3.975619378e-05
-2.353512624e-05
4.6093074e-07
-4.609307465e-07
0.000125805155
-4.609307444e-07
-4.238933608e-05
4.238933607e-05
4.609307435e-07
-3.787750734e-05
-1.970509958e-05
4.225996967e-05
-0.000271443938
-4.207040692e-05
0.000135809343
0.0001354450323
-4.263043586e-05
-0.0002518930578
4.250854375e-05
0.000126567383
0.0001254475668
-0.0002994683172
3.669429684e-05
-3.618032083e-05
0.0002989543411
-0.0002748603907
0.0002750787889
4.204157142e-05
0.0001264677
-4.307686798e-06
-0.0001263055133
0.0001373899461
-0.0001374993859
3.647564862e-06
-5.40766947e-05
0.0005425592595
5.468513799e-05
-0.0002707204864
-0.0002724472163
-7.857631268e-06
-0.0001362923203
8.34853899e-06
0.0002731913586
4.603478808e-06
0.0001265511828
-4.68696159e-06
0.0001036984857
4.527654626e-05
-0.0002084115189
0.0001045926937
0.0002271402332
4.511749358e-05
-0.0002271726016
-4.50851252e-05
0.0001286036672
-0.0004520884619
-0.0001285577734
0.0004520425682
4.216833949e-05
-4.197683315e-05
0.0001138055902
0.0001131431367
-2.161995625e-05
0.0001036876921
2.163074988e-05
-0.0002488854524
-4.250871164e-05
0.0001247411486
0.0001240225796
-0.0002299834222
4.217586261e-05
0.0001153764571
0.000114599442
0.0001045555515
-3.512075532e-06
-0.0001044519238
0.0001150002103
-0.0001148318153
3.660514651e-06
-2.971136454e-05
0.0002291848345
-0.0002292182026
2.974473262e-05
-4.607831702e-06
4.537728439e-06
0.0001150703136
4.225007554e-06
0.0001046066692
-4.276125273e-06
4.485642634e-06
0.0001257510104
0.0001155144545
-4.668729105e-06
0.0002315292448
-2.971670047e-05
-0.0002315239089
8.295857791e-05
4.488859718e-05
-0.0001666555675
8.356386448e-05
9.318225057e-05
-0.0001854713869
-4.534457359e-05
9.241008713e-05
-0.0003681588659
-0.0001282839238
0.0001854561195
0.0001827547258
2.192928706e-05
-2.197929878e-05
9.323226229e-05
-2.116833805e-05
8.288349102e-05
2.124342494e-05
-2.157033122e-05
0.0001030540684
9.39015072e-05
2.173704006e-05
0.0001667956808
-6.634389427e-06
-8.303397043e-05
-8.369362041e-05
9.325481786e-05
-9.321234268e-05
3.658025355e-06
-5.7256179e-05
0.0003684299704
5.710566545e-05
-0.0001826752023
-0.0001856042546
-9.49791768e-06
-9.23416112e-05
9.616123455e-06
0.0001854782233
9.478075388e-06
0.0001668011679
-9.483562469e-06
4.173683998e-06
0.0001041125831
-9.444623028e-05
0.0001882914938
-4.436517644e-06
-5.010121684e-06
0.0003791506388
-5.696371988e-05
-0.0001883683924
-0.0001910747056
6.170586195e-05
2.315985653e-05
-6.18381954e-05
7.177890483e-05
-7.184949168e-05
-2.219957917e-05
-0.0002837054119
-0.0001278206813
0.0001431544473
0.0001404106658
2.177298281e-05
-2.160957805e-05
7.161550006e-05
-2.289636912e-05
6.1471025e-05
2.313120607e-05
-2.113898366e-05
8.230758113e-05
7.231264796e-05
2.190920971e-05
0.0001244324743
-6.439512431e-06
-0.0001243919903
0.0001429232997
-0.0001428995908
6.568120633e-06
4.06584279e-05
2.414096548e-05
-4.08929445e-05
5.08591474e-05
-5.093543944e-05
-2.352719625e-05
-0.0001012929985
-6.519926911e-05
0.0001012864671
7.622000369e-06
5.053086e-05
-5.027907992e-05
-7.873780449e-06
2.337693596e-05
-2.318139429e-05
5.066360572e-05
-2.273098036e-05
4.019372857e-05
2.319567969e-05
-2.262664246e-05
6.073745451e-05
5.229551798e-05
2.317348022e-05
8.03429895e-06
-5.209279528e-05
8.515051292e-06
0.0001666974983
-8.795150551e-06
-8.185380518e-05
-8.456359389e-05
0.0001005637129
-0.0001004761638
6.094371414e-06
-7.336497056e-06
5.053288835e-05
4.098550245e-05
-4.334134865e-05
-4.061584451e-05
2.188565164e-05
2.108603907e-05
2.826262976e-05
-2.864791017e-05
-2.195908933e-05
-5.905268474e-05
-6.515450172e-05
5.904720268e-05
1.668654105e-05
5.721574838e-05
-5.71203918e-05
-1.678189763e-05
1.864313829e-05
-1.851581931e-05
2.813531078e-05
-4.046943353e-05
4.122263277e-05
2.025101913e-05
1.998128408e-05
-2.229463999e-05
3.894853076e-05
1.897971386e-05
2.865681873e-05
5.981529356e-05
1.665117868e-05
-5.977993119e-05
-0.001017328982
0.001023468141
0.0004277861237
0.0001404114941
-0.0005067687689
0.0001383883158
-0.0005911440949
-0.0001392655323
-0.0001280671352
-0.0005527094536
0.0005526873806
0.0001280892082
-4.507130102e-05
4.502531532e-05
-0.000274814405
4.337901519e-05
-0.0003002436074
-4.260372498e-05
-1.98241714e-05
0.0001418966739
-5.741900064e-06
-0.0001163306024
0.0001546772618
6.14591155e-06
-0.0001568916811
-3.931492284e-06
-0.000462862742
0.0004628761513
0.0001285902579
4.514405509e-05
-0.0002300099837
4.526867619e-05
-0.0002488844866
-4.526964199e-05
-2.231841336e-05
7.839402978e-05
8.666364698e-06
-6.474198112e-05
0.0002517384489
-6.789284994e-05
0.0003001117471
0.0005050747376
-0.0002975007119
-0.0005150517802
-0.0006421237222
0.0002933353554
-2.343196712e-05
5.672949573e-05
1.208698955e-05
-4.538451815e-05
-5.085896873e-06
0.0001136161186
5.116910754e-06
-5.64885071e-05
-5.715862539e-05
2.159256547e-06
6.111158254e-05
-6.109106652e-05
-2.179772563e-06
-1.431723268e-05
5.993196192e-05
1.420056432e-05
6.841861344e-06
0.0001246461848
-7.352132268e-06
-0.0001241359139
0.0001561326563
8.208131903e-06
-7.657802536e-05
-7.924771156e-05
4.523734619e-05
-0.0002518617278
-0.0002714553481
-4.505989101e-05
-0.0005387893434
-0.0001284016912
0.0005391238994
1.367645356e-05
-0.0001294558744
-1.387583171e-05
0.0001296552525
-0.0001550226054
9.662025118e-06
-1.175200708e-05
0.0001571125874
-0.0001448893325
-1.377877936e-05
0.0001449268162
1.374129567e-05
-2.92645872e-06
5.372005769e-06
0.0002970732235
-0.0001386900029
0.0002765059261
-7.227298206e-06
0.0005530074837
-5.499224411e-05
-0.0002748616799
-0.0002772302544
6.187700777e-05
2.199921315e-06
-6.191767254e-05
2.841488545e-06
6.655106827e-05
-6.674252085e-05
-2.650035966e-06
-5.65476095e-05
0.00028331497
-0.0002832795311
5.651217056e-05
-9.401368809e-06
9.408645094e-06
0.0001429160234
9.245169136e-06
0.0001244496375
-9.262332372e-06
9.564796531e-06
0.0001642818878
0.000145514007
-9.424201595e-06
0.0002942691433
-5.664402392e-05
-0.0002941727289
8.441877736e-06
4.527915188e-05
-4.549403441e-05
-8.226995203e-06
-3.447230253e-05
-1.426961369e-05
3.460333376e-05
1.413858246e-05
-1.642334894e-05
7.064375145e-05
1.635281773e-05
-3.492666311e-05
-3.564655713e-05
0.0003112636495
1.860797865e-05
-0.0003112308718
-1.864075641e-05
-0.0006586281267
6.606056841e-05
-2.280796773e-05
-3.370151011e-05
0.0003234902465
0.0003255867896
-0.0002996794799
0.0003056340498
3.073972694e-05
0.0003016706025
-1.176974263e-06
-0.0003021713756
0.0006469995043
1.306806658e-05
-0.0003230449843
-0.000314565486
-4.485507066e-06
-1.797159357e-05
2.10875208e-05
-2.148271855e-05
0.0003116588473
0.0001818582117
-0.0002016823831
-4.267876664e-06
0.0002865519628
4.959547596e-06
-0.0001431569148
-0.0001440867189
4.991002941e-06
3.128747407e-05
0.0001455797347
3.76060454e-06
-2.601348048e-06
0.0001535180053
0.0001456675189
1.220157893e-06
0.0002883433789
-5.058234576e-06
-0.000143636543
-0.000143916478
-3.051624321e-06
0.0001203708373
-0.0001203908088
3.071595847e-06
0.0001210568457
-3.08954612e-06
-0.0001210189239
-3.75881493e-06
9.886800967e-05
-9.887946602e-05
3.770271275e-06
9.974209854e-05
-3.661321221e-06
-9.983959225e-05
7.226806397e-05
-2.85826476e-06
2.366937903e-06
-7.177673711e-05
7.877642236e-05
-9.991847059e-05
-1.176365123e-06
-6.5928465e-06
0.0001533492684
-0.0001533292768
6.572854942e-06
2.778098958e-06
-1.763464e-06
7.77617874e-05
-2.051175625e-06
7.23943118e-05
1.924927802e-06
2.511678767e-06
-7.943053891e-06
8.182155277e-05
-7.639017764e-05
7.797813119e-05
3.193997545e-06
0.0001561145172
-6.600780307e-06
-7.769327038e-05
-7.841331302e-05
5.58899379e-05
2.161226283e-05
-5.60416954e-05
-2.146050532e-05
5.332040689e-05
-0.0001116604175
-5.328771124e-05
0.0001116277219
-5.325756415e-05
-0.0001038929715
0.0001038892671
5.326126862e-05
-5.105915049e-06
0.0001030012652
5.082101856e-06
-0.000102977452
0.000110944584
-5.053325162e-06
-5.517673217e-05
-5.580042352e-05
-7.425669926e-05
-6.408535356e-06
5.723326749e-05
2.057535545e-05
3.453504241e-05
-3.494026343e-05
-2.017013442e-05
5.29213993e-05
-6.963266741e-05
-5.293563734e-05
6.964690545e-05
-5.294502245e-05
-6.170029307e-05
5.299575969e-05
3.117742083e-05
3.0472135e-05
5.313264843e-05
-8.006292285e-05
-5.306543193e-05
7.999570634e-05
-7.224476237e-05
7.22034238e-05
5.296273788e-05
3.473629756e-05
2.101612672e-05
-3.517706883e-05
-0.0001415555114
1.254994154e-05
-5.242381678e-05
0.0001814293866
-0.0001294974206
1.382660175e-05
0.0001293472724
-4.210631959e-05
-0.0002631445086
4.223746778e-05
0.0001316493643
0.000131363996
-1.600956138e-05
1.645931113e-05
-0.0001299471704
1.609838127e-05
-0.0001393927123
-1.82611803e-05
-1.713111388e-05
2.584038652e-05
-0.0001263130118
0.0001176037391
-0.000129831645
-1.563379074e-05
-0.0002607128383
-4.236977102e-05
0.000130966873
0.0001300094167
-4.134060853e-05
-0.0002910624865
0.0002913011167
4.110197835e-05
-1.578893692e-05
1.593218411e-05
-0.0001450325796
7.288348785e-06
-0.000150409409
-1.190154517e-05
0.0001398315246
1.530989604e-05
-0.0001390430394
0.0001442622964
-0.0001441229405
-1.592829282e-05