/*--------------------------------*- C++ -*----------------------------------*\
| =========                 |                                                 |
| \\      /  F ield         | OpenFOAM: The Open Source CFD Toolbox           |
|  \\    /   O peration     | Version:  v1912                                 |
|   \\  /    A nd           | Website:  www.openfoam.com                      |
|    \\/     M anipulation  |                                                 |
\*---------------------------------------------------------------------------*/
FoamFile
{
    version     2.0;
    format      ascii;
    class       volScalarField;
    location    "1";
    object      nut;
}
// * * * * * * * * * * * * * * * * * * * * * * * * * * * * * * * * * * * * * //

dimensions      [0 2 -1 0 0 0 0];


internalField   nonuniform List<scalar> 
12556
(
1.155879255
1.155848074
1.155818741
1.155798138
1.156029653
1.156032875
1.156060889
1.156118179
1.15622442
1.156389293
1.156592865
1.058807884
1.009664927
1.060390997
1.156600811
1.156403127
1.156242977
1.156143537
1.156073034
1.156047872
1.155826997
1.155843744
1.155868736
1.155894928
1.15510878
1.155021948
1.154943692
1.154900077
1.155131069
1.15519053
1.155353353
1.15568679
1.156193834
1.157000585
1.141469311
0.9846344937
0.9298943806
0.9576903542
1.07545723
1.157298073
1.156449059
1.155865509
1.15542639
1.15524508
1.154968272
1.155013849
1.155088056
1.155167243
1.154308393
1.154162253
1.154044088
1.153997493
1.154274493
1.154455863
1.154856397
1.155562035
1.15679758
1.069371913
0.8730244891
0.766009375
0.7306621119
0.7574144669
0.8547159039
1.029964354
1.157303679
1.155966837
1.15499895
1.154555764
1.154160859
1.154183749
1.154292762
1.154425532
1.153485722
1.15329869
1.153163639
1.15315729
1.153499417
1.153904645
1.154800398
1.156159227
1.032694844
0.7767466003
0.6217300966
0.5321344699
0.500229406
0.5229043323
0.6057831458
0.7538137348
0.9879673055
1.156824864
1.15499323
1.154083348
1.153403809
1.153386811
1.153506043
1.153680625
1.15264496
1.152415392
1.152284212
1.152351748
1.152860974
1.15363066
1.155322685
1.113615983
0.7788510355
0.5669362019
0.4263583358
0.3355028965
0.2975508268
0.3210442316
0.3995276388
0.5332973379
0.7372268233
1.044990217
1.155619584
1.153913826
1.15278823
1.152613035
1.152710217
1.152915356
1.151798115
1.15155065
1.151454101
1.151656833
1.152427161
1.153740826
1.156614043
0.9022681666
0.6198516774
0.4307925907
0.2898499946
0.1900574152
0.1493204491
0.1756630477
0.2528656209
0.3752539378
0.5604267781
0.8325184434
1.156983581
1.154120018
1.152333246
1.151891566
1.15192264
1.152135324
1.150939347
1.150689864
1.150667938
1.151119182
1.152155814
1.154293897
1.082743715
0.7704140318
0.5252485964
0.3500694425
0.2080822682
0.09629672621
0.05481160879
0.08699740649
0.1630809378
0.2756629866
0.442524842
0.6808596657
1.055723285
1.154779671
1.152009331
1.151219676
1.151129098
1.151330113
1.150141594
1.149906602
1.149993485
1.150739022
1.152097976
1.155295337
0.978713
0.7019445349
0.4854496685
0.3244637839
0.190331077
0.07866266691
0.05014435612
0.1233874242
0.222991294
0.3739297841
0.5935283311
0.9381049976
1.155839992
1.151886976
1.150641314
1.150366547
1.150528254
1.149410012
1.14920997
1.149453767
1.150569474
1.152395022
1.156671405
0.9206781191
0.6698557377
0.4873982629
0.3510037322
0.2430854427
0.1720111611
0.06192965105
0.1211360994
0.2073883754
0.3437389641
0.5439929216
0.864533509
1.15718425
1.151971738
1.150178527
1.149676197
1.149780231
1.148832381
1.14868412
1.149108421
1.150642312
1.153020041
1.158369361
0.8951116759
0.677086918
0.514519988
0.3995343277
0.3242991331
0.3186704347
0.08747412693
0.1382545373
0.2169105907
0.3443742474
0.531633652
0.825916307
1.158745785
1.152302821
1.14991065
1.149136505
1.149161489
1.148413023
1.148337516
1.148992712
1.151030296
1.153960338
1.160154931
0.8899952491
0.6946125344
0.5511628003
0.4511954577
0.3944807193
0.4384692751
0.1190024691
0.1676110794
0.2448441156
0.3666456384
0.5429145644
0.8172154719
1.131458264
1.152856915
1.149852147
1.148800965
1.148735975
1.148215169
1.148215978
1.149089914
1.151613825
1.155150726
1.148876541
0.8984914518
0.7227333015
0.5906629414
0.4943041971
0.4298932556
0.4454132165
0.1554696617
0.2092010383
0.2900269699
0.4127887831
0.5793088327
0.8347213873
1.119852689
1.153662646
1.150046169
1.148708136
1.148554545
1.148177455
1.148275004
1.149451567
1.152529228
1.156491792
1.139644357
0.9198275398
0.7662866774
0.6365333058
0.5369061425
0.4503770629
0.3867084973
0.05265536613
0.2026656605
0.2714103492
0.3603422364
0.4807579816
0.6440015649
0.8744306189
1.12536253
1.154575991
1.150462269
1.148871328
1.148624144
1.148345135
1.148536302
1.149978442
1.153511822
1.158140609
1.161516637
0.9810597118
0.8187805468
0.7015340189
0.5977498667
0.4973897902
0.2909104708
0.1069826974
0.2996031312
0.3798255438
0.4657189858
0.5798558622
0.7274447804
0.9324039866
1.158207587
1.155575025
1.151057726
1.149236901
1.148931155
1.148588689
1.148864471
1.150555615
1.154540715
1.159666916
1.168048438
1.052097297
0.9060055231
0.7933295423
0.698572501
0.6029911324
0.1069578716
0.15245361
0.4157943147
0.5714211873
0.6223617203
0.7113272966
0.8437203978
1.025210601
1.166214556
1.156573112
1.151750755
1.149755979
1.149386053
1.148955176
1.149310201
1.151219788
1.155597905
1.161124659
1.169839927
1.161362847
1.034602764
0.9362921898
0.8640039164
0.8085411975
0.04893845494
0.1818692533
0.4643441418
0.7736193328
0.8385075008
0.8868041989
0.9917722186
1.15856631
1.167391069
1.157501011
1.152472267
1.150365618
1.149975965
1.149284943
1.149699063
1.15179416
1.156542331
1.162451656
1.171346084
1.174039482
1.160722354
1.11420612
0.9904432059
0.5192944948
0.02880493688
0.2597610914
0.546483823
0.8356449704
1.028149112
1.113629107
1.158184929
1.171622138
1.168311323
1.158297325
1.153154385
1.150976058
1.150552321
1.149659121
1.150122832
1.152366559
1.157404718
1.163595023
1.172623513
1.175247017
1.161192097
1.09940448
0.8638494742
0.1561864463
0.0581274056
0.3488903511
0.6365299668
0.8860820567
1.042491288
1.123385763
1.160257231
1.17257958
1.168906257
1.158926939
1.153757522
1.151566565
1.151127917
1.149919402
1.150411906
1.152768416
1.158066912
1.164520149
1.173586143
1.176152232
1.161056841
1.091078434
0.7267906407
0.06550703433
0.1447250439
0.4174285595
0.6899966052
0.9050280036
1.046859282
1.125551159
1.16140543
1.173040763
1.169211402
1.159352316
1.154206806
1.152031436
1.151587455
1.150195267
1.150713969
1.153152498
1.158624349
1.165221019
1.174273321
1.176612682
1.160445765
1.081117755
0.6527419693
0.06021430407
0.1714069716
0.4344672572
0.697225132
0.9105582138
1.049689039
1.126735955
1.161867754
1.173102532
1.16926265
1.159648763
1.154583149
1.152438006
1.151987645
1.150323727
1.150857616
1.153353229
1.158974894
1.165717869
1.174718834
1.176788665
1.159433373
1.068979986
0.5939543892
0.05844663246
0.1827270254
0.4422779681
0.7007712968
0.9139177743
1.051378793
1.127208854
1.161828979
1.172853712
1.169108197
1.159762062
1.154789378
1.152681011
1.152226892
1.150474986
1.151032964
1.15357416
1.159272511
1.1660409
1.174965699
1.176744793
1.158067089
1.054177646
0.5523929461
0.05796967767
0.1912465458
0.4481008805
0.7025643323
0.9151919116
1.052080455
1.127133417
1.161424689
1.172368726
1.168795943
1.159798494
1.154949311
1.152876527
1.152413681
1.150466748
1.151046391
1.15362585
1.159402799
1.166231931
1.175060457
1.176532212
1.156323188
1.035363489
0.5229277818
0.05828727379
0.1978490248
0.452337413
0.7031809545
0.9147736421
1.051837474
1.126592283
1.160741724
1.171707214
1.168366187
1.159683599
1.154944313
1.152902662
1.15243169
1.150504975
1.151119505
1.153740574
1.159546081
1.16632262
1.175040334
1.176173625
1.154063177
1.012761452
0.5015870737
0.05918249561
0.2029735765
0.4552741244
0.7029055387
0.9131748572
1.050731344
1.125629193
1.159831033
1.170914437
1.167848765
1.159545005
1.154935906
1.152918753
1.152432632
1.150379109
1.151026622
1.153688207
1.159543244
1.166342369
1.174930796
1.175662456
1.151033989
0.9890209969
0.4860318965
0.060529995
0.2068158407
0.4571514859
0.7019097491
0.9107775086
1.048909117
1.124287951
1.158727236
1.17002335
1.16726577
1.159272423
1.154766986
1.152768017
1.152266944
1.150329249
1.151021436
1.15373075
1.159596653
1.166303715
1.174748945
1.174976912
1.146999828
0.966564233
0.4747067077
0.06226865304
0.2096334883
0.4581520075
0.700319764
0.9078116068
1.046527868
1.122622828
1.157460792
1.169058295
1.166633159
1.159022897
1.154640844
1.152653286
1.152130401
1.150113755
1.150845634
1.153598685
1.15950015
1.166222562
1.174505222
1.174089631
1.141896373
0.9465996384
0.4668444817
0.06437791888
0.2116808271
0.4584471422
0.6982344138
0.9044202086
1.043719837
1.120689887
1.15606018
1.168037915
1.16596329
1.158641722
1.154351867
1.152371936
1.151829343
1.15000028
1.150781841
1.153587278
1.159493203
1.166099882
1.174205035
1.172970636
1.135909806
0.9292535184
0.4616316969
0.06683818407
0.213150926
0.458181431
0.6957521486
0.9007055205
1.04058482
1.118537861
1.154550159
1.166976296
1.16526532
1.158326443
1.154149063
1.152170373
1.151601973
1.149725231
1.150548022
1.153396166
1.159324566
1.165948077
1.173850359
1.171594496
1.129263297
0.9141621808
0.4581735587
0.06963122721
0.2141968698
0.4574594369
0.6929585242
0.8967416727
1.037195897
1.116206874
1.152951244
1.165884032
1.164546257
1.157872263
1.15377908
1.15180226
1.151212323
1.149562492
1.150436708
1.153339528
1.159273424
1.165763842
1.173441712
1.169949742
1.122242222
0.901015159
0.456178638
0.07278055632
0.214899688
0.4563510982
0.6899152575
0.8925843654
1.033608365
1.11372913
1.151279561
1.164768867
1.163812105
1.157518669
1.153524615
1.151542303
1.150924524
1.149261022
1.150174368
1.153115782
1.159056035
1.165559786
1.172977618
1.168042319
1.115086387
0.8896041796
0.4554854758
0.07630136634
0.2153311314
0.454931371
0.6866768021
0.8882832284
1.029866986
1.111130561
1.149547626
1.163636379
1.163065865
1.157023914
1.153113629
1.151131308
1.150492198
1.149046133
1.150011369
1.153008267
1.158962107
1.165329079
1.172455933
1.165893775
1.107968356
0.8796986696
0.4558372329
0.08020860642
0.2155753194
0.4532816091
0.6833004016
0.8838851185
1.026009479
1.10843259
1.147765003
1.162490465
1.162312834
1.156634164
1.15280628
1.150814787
1.15014669
1.148761785
1.149761296
1.152791537
1.15873385
1.16508296
1.171873009
1.163536387
1.101002981
0.8710939949
0.4570263049
0.08451346025
0.2156937379
0.4514775377
0.6798403343
0.8794325558
1.022068235
1.105653359
1.14593919
1.161334038
1.161550549
1.156149326
1.152410309
1.150417934
1.149730682
1.148467399
1.149519735
1.15260535
1.158566704
1.164814116
1.171229216
1.161008217
1.094261668
0.8636037294
0.4588713612
0.0892243886
0.215746882
0.4495923302
0.6763483862
0.8749651048
1.018072564
1.10280946
1.144077849
1.160171744
1.160789885
1.155674173
1.152008095
1.150006506
1.149289073
1.14825843
1.149338144
1.152451541
1.158401635
1.164536573
1.170532473
1.15836663
1.087779501
0.8570461864
0.4611901511
0.09432110512
0.2157785432
0.4476929577
0.6728716088
0.8705165172
1.014047127
1.099915028
1.142186229
1.159019514
1.160030956
1.155313875
1.151716873
1.149712662
1.148979757
1.147845783
1.148988707
1.152167417
1.158128235
1.164277463
1.16982149
1.155750824
1.08156585
0.8512685139
0.4637666272
0.09973080481
0.2158167448
0.4458415937
0.6694693726
0.8661289566
1.010020088
1.09698394
1.140266565
1.157947012
1.159347196
1.154648826
1.151153699
1.149141271
1.148372487
0.1536286765
0.05533560709
0.04318527143
0.3030726483
0.08033786168
0.05834471702
0.4255944824
0.112697065
0.08418624464
0.4504344099
0.1426201979
0.1174364145
0.3957514974
0.03969910954
0.04939406337
0.1786735493
0.146479579
0.3349520788
0.07811422421
0.04076314917
0.1014080616
0.2429882353
0.1817530868
0.0765010825
0.05517360101
0.04454749833
0.08268803827
0.02806588092
0.01867204285
0.05937482389
0.1025140132
0.1040769171
0.3037984792
0.2959985696
0.1770397347
0.02769702624
0.04099072883
0.08407099441
0.1184554375
0.1050352989
0.3795657774
0.408431145
0.3106503976
0.3637423193
0.2056235364
0.2311131395
0.04938867065
0.03476141046
0.1149640142
0.14625872
0.1244512079
0.4247766251
0.44333704
0.4195298366
0.4591173715
0.134262168
0.1740860318
0.09398482903
0.06828187877
0.4420165543
0.3973858802
0.4402203993
0.4272074711
0.07939474829
0.1047108572
0.01698003056
0.1338463445
0.1281171372
0.4828550232
0.3916591502
0.3909620354
0.3683488324
0.0310362996
0.05114695734
0.2942213599
0.1084781207
0.07998069609
0.06312365876
0.1443262306
0.03019375982
0.05736734298
0.04208911297
0.02934097891
0.04703867303
0.03109182076
0.04850130631
0.2345453887
0.258927039
0.2518034645
0.2021487909
0.1883954067
0.1624809427
0.2049015231
0.03439370656
0.02756114815
0.06982238847
0.04100774665
0.04686529257
0.04970485292
0.04120537542
0.06829349415
0.176841066
0.2018024955
0.3795250879
0.1573234615
0.1329665389
0.1866611771
0.1593418734
0.06489754846
0.05064897962
0.1004763338
0.07007004589
0.09072707805
0.04736580168
0.06735800314
0.09622086497
0.1061358644
0.132600886
0.4595126101
0.1064022019
0.08082418973
0.1315587695
0.1077639591
0.1241505428
0.0980104
0.05213622977
0.07760240112
0.4157024796
0.01311988642
0.05436641989
0.03263899377
0.07975567065
0.05595697104
0.01228074128
0.1406095813
0.1358108001
0.01905684664
0.004739500137
0.03073713508
0.3623081979
0.06302486806
0.01920219607
0.01120586783
0.03228493845
0.01952864594
0.0603968036
0.2252106427
0.1605661676
0.0915993897
0.09774412755
0.06207744683
0.03544124132
0.01518700485
0.008179773055
0.2323509518
0.2621339779
0.1581189412
0.009801021315
0.1486134515
0.1827765788
0.1544905227
0.01174623023
0.05454734804
0.04710202926
0.07549340637
0.1570458237
0.1444617862
0.1436041512
0.06917942155
0.1090753531
0.04161134822
0.01259807142
0.02206443971
0.02140979145
0.02939701041
0.04542415532
0.04561988388
0.03289123707
0.131587526
0.1206365496
0.1305473291
0.09405970702
0.1172269858
0.1285076764
0.0274454731
0.01332038267
0.04779183082
0.02181837056
0.0370636972
0.02945757153
0.01883337262
0.02882813227
0.02083208254
0.01443966294
0.02228599907
0.01844640624
0.00972663538
0.01575947591
0.02112791189
0.03531324575
0.03589918993
0.04208619696
0.04106099009
0.01699011954
0.01027874303
0.08246049887
0.01427135139
0.02586268786
0.009713849038
0.0124783538
0.07868314094
0.09379467854
0.262036574
0.2495432286
0.0699654176
0.05848160326
0.01141707298
0.04618583007
0.1944054156
0.1819136475
0.2116352272
0.1994655932
0.04652907908
0.04992927208
0.04197456863
0.09169965765
0.06559178338
0.05561228434
0.04021713262
0.06513760933
0.1032569284
0.03658068514
0.02287486005
0.01440053521
0.05126742963
0.02548400065
0.04039037757
0.02456927858
0.05672740729
0.03976874922
0.03887979563
0.19988154
0.03148448145
0.1992657411
0.2193575279
0.03512412712
0.03920279101
0.03189281411
0.03463590776
0.2156308601
0.0328168054
0.03254555084
0.04434539648
0.06774968902
0.06315825799
0.07411205509
0.06943821552
0.04463282628
0.04919514705
0.05534046872
0.050189822
0.06151816959
0.05678058421
0.04830203985
0.1454421833
0.1438674871
0.1742488593
0.1725509206
0.06106436308
0.009565159698
0.05980319739
0.09698281846
0.09515082767
0.1191495227
0.1175408229
0.02746542345
0.04009205469
0.1095900901
0.03075421212
0.0182773477
0.06851624003
0.2286414229
0.2160499546
0.2452922296
0.2327950527
0.06984269971
0.02484546964
0.04984580437
0.0488215781
0.07264823772
0.07178932628
0.007740767097
0.03305526296
0.08611897034
0.07403359954
0.1770568695
0.168078775
0.02469851456
0.01231947583
0.01891465731
0.01393213622
0.03084762951
0.01269180959
0.01367173336
0.01316858926
0.03088747032
0.05113299687
0.01351870144
0.01607467319
0.003646792957
0.01784412845
0.01379313866
0.5674505135
0.3946872952
0.3923542957
0.2664936858
0.008795903804
0.005337712767
0.1467980912
0.3413679472
0.2726263299
0.005829985186
0.01254674616
0.01101915824
0.1022290596
0.09050083827
0.03535150909
0.1939835285
0.1632795857
0.07867961716
0.009093429238
0.01541207505
0.01229314489
0.00829780232
0.01214107968
0.008614726843
0.02992450318
0.01256332974
0.01183647331
0.03840733303
0.04583478611
0.01307382703
0.01808050277
0.008896011766
0.009031292067
0.03642533974
0.1483689874
0.3246863292
0.3132329582
0.3396601369
0.328464628
0.1516242521
0.2781198694
0.2659632605
0.09509309209
0.03414900874
0.09907566332
0.09380888268
0.01211477565
0.01722192941
0.08662254406
0.04579338618
0.01422346316
0.01267000042
0.03770964212
0.04188436237
0.03749116873
0.04853688483
0.04345341359
0.03951566872
0.03359621151
0.009005880681
0.008905373396
0.02883477161
0.1875637125
0.3541663205
0.3432969005
0.06069830552
0.06263580068
0.1376304388
0.019190065
0.02098067558
0.05422780833
0.07831805072
0.1005946848
0.09315244324
0.05349730753
0.08151871924
0.07597261935
0.09044563508
0.08369131843
0.05462427411
0.1195650848
0.2939101461
0.2820565847
0.3094003503
0.2978271609
0.1213709357
0.1024552592
0.03749637865
0.03822861526
0.02163376974
0.02246880094
0.08522719896
0.1264692568
0.0565056937
0.06029135865
0.03853199396
0.0392160557
0.111848091
0.1135446843
0.0422741054
0.05809805628
0.008372741847
0.01685465743
0.05201796735
0.03986280511
0.07667787391
0.0210185382
0.02149152356
0.02062673758
0.06535684331
0.01178636285
0.00440017907
0.1294043991
0.1124796527
0.09202426038
0.08778525915
0.03040961587
0.01704941254
0.02807937171
0.07130906701
0.01897239355
0.01192347029
0.01795299846
0.0222774232
0.00282780632
0.03182253546
0.02059401759
0.01190938707
0.006292368299
0.01149187011
0.009809147473
0.00961690612
0.02617445135
0.02000766359
0.007583050186
0.03870142279
0.04031706957
0.01466621252
0.01083782101
0.006993564392
0.01140661543
0.01595005657
0.01082454706
0.01286106612
0.03836314486
0.01079055377
0.01075063931
0.01230307703
0.01296825626
0.03275963751
0.01246765633
0.01229054548
0.01322856275
0.01236695495
0.01278038058
0.0172593601
0.01397155428
0.02383628514
0.01894586355
0.01283506019
0.01405642654
0.02150222275
0.01783405063
0.02582582037
0.02248543605
0.01735282736
0.01547493225
0.01225149196
0.0109003999
0.008521432164
0.03166867414
0.03779279957
0.01161729335
0.01101402746
0.01225095519
0.01274425625
0.04464868495
0.009019081133
0.008971323749
0.01078285309
0.009147971941
0.008942569241
0.03751943768
0.008853416499
0.01205383959
0.01227669201
0.01127823321
0.01878596024
0.04811620723
0.04328851958
0.01055999398
0.03498461873
0.02986878884
0.0415406453
0.03692660461
0.01083059792
0.01178011247
0.03404400149
0.02850919348
0.1075404547
0.1009277393
0.03808537569
0.04871641014
0.1147870691
0.1093359614
0.04510084168
0.04426122325
0.06754269525
0.07592940743
0.09166108501
0.05699808084
0.07125456607
0.06839530881
0.06018944816
0.1374501963
0.1266161384
0.09911467349
0.1295175671
0.06010833603
0.03794071857
0.0419654517
0.05215851959
0.03286069525
0.03673015975
0.02002262183
0.01899671927
0.04466151798
0.01370617997
0.01372363028
0.01071071314
0.01995287679
0.02364936154
0.01419653333
0.0201439939
0.03430512078
0.02758794288
0.02098106303
0.02967014372
0.0954159907
0.08375370646
0.1016311882
0.09782533831
0.03079681014
0.0754811166
0.07331790833
0.0804267298
0.07626050493
0.03660636711
0.117249026
0.1130412277
0.124037112
0.118736336
0.03718812798
0.03299646993
0.1065476768
0.1029297124
0.111689928
0.1077989764
0.03333492299
0.009275856971
0.009081770639
0.03336977584
0.03009143508
0.009059416316
0.009351184119
0.04391111864
0.04314415153
0.04608735715
0.04417499045
0.04172279008
0.04067065701
0.04288850897
0.04199713267
0.0700191712
0.06809037781
0.07264529373
0.07068731601
0.06265701512
0.04881355256
0.06728710216
0.06521227264
0.0220014277
0.01870329072
0.02838869402
0.02377355843
0.00662649274
0.01199339024
0.01121973127
0.01745609346
0.01226237811
0.03653162739
0.03713952716
0.1011067065
0.02165932024
0.02144242627
0.02232266822
0.02184537734
0.0207681875
0.08759106995
0.0231463308
0.03433978673
0.04137835409
0.05461861644
0.1246942087
0.03785854897
0.02449078986
0.04053097405
0.03753853067
0.02310391354
0.02255942842
0.02404441941
0.02332736139
0.113230922
0.0394462498
0.04033847095
0.007107268513
0.02558703098
0.01056199018
0.01060204786
0.01039670578
0.02383522822
0.008704417556
0.01872344969
0.01201563111
0.0123773994
0.0513642741
0.04483811103
0.02042256476
0.020909495
0.07572871042
0.06756671531
0.01953765482
0.02036137696
0.01181842523
0.02930397783
0.08517601109
0.0767085399
0.01355961936
0.01286898445
0.01819599969
0.01234892584
0.01395798727
0.01560104092
0.03171237037
0.009143329784
0.01365440527
0.01219782612
0.01373593669
0.02144303296
0.05139895026
0.1090464721
0.1410386778
0.01135673766
0.01098413169
0.1852607264
0.2356413859
0.1938472264
0.007505799023
0.03458951462
0.01367413533
0.01692125333
0.1347582064
0.1405138738
0.1576472524
0.004686648509
0.007108851183
0.005257826777
0.004828765501
0.005598850286
0.004376574679
0.05474094138
0.0341722039
0.02168379705
0.02482387976
0.02292647386
0.02667809027
0.2168844686
0.3562372489
0.3715522369
0.3364012707
0.3489655417
0.2204872116
0.04117912478
0.03591234359
0.01241603519
0.06193283306
0.07351900808
0.1322444664
0.1220302634
0.116519796
0.04920778767
0.0273786682
0.0285801739
0.03267677189
0.3680735935
0.357688917
0.1909962433
0.1519818142
0.06823951971
0.07200893746
0.07506196044
0.08575780072
0.1653918495
0.05993978938
0.1302896981
0.1239487706
0.01178871055
0.01171986178
0.01405589279
0.02029798046
0.02059820639
0.03350237642
0.01176706733
0.01207286355
0.01181034146
0.02542163559
0.04954619273
0.04268012615
0.01914878862
0.03207760149
0.01984886356
0.02002956305
0.01956017131
0.01439279352
0.00998810676
0.01159672245
0.01128439206
0.01167726765
0.0218890003
0.02717796076
0.05431181645
0.04052923957
0.0361107111
0.03294548633
0.02428700546
0.04023274018
0.01443322509
0.01980258934
0.01258718619
0.009086316031
0.0091688285
0.01287900274
0.01267097162
0.02227310888
0.01412872804
0.00980018865
0.0168281747
0.01885238039
0.01747920425
0.01317402217
0.01649339209
0.01557467987
0.01058341403
0.01106369461
0.006728182808
0.009979246233
0.01053819493
0.05476403107
0.04967814883
0.02044438564
0.009621464893
0.01260283972
0.01162237341
0.0115382183
0.01372145091
0.01248095167
0.04790696825
0.0371528793
0.04270876261
0.06629256232
0.09300796146
0.09172811671
0.04176519648
0.06718699661
0.06362666422
0.09068399693
0.08907447997
0.06385374968
0.0315423105
0.03808801507
0.03435414652
0.02645810515
0.02716874397
0.0224316634
0.04668289768
0.0453859624
0.04848204752
0.02388286626
0.03431847443
0.03267797494
0.05268913808
0.0523184556
0.03122851981
0.02899565256
0.02858470803
0.0316270848
0.0309190352
0.03564484396
0.05858177624
0.05798989113
0.06205246612
0.0613201757
0.03845479827
0.03222080151
0.05388591983
0.05337887964
0.05737978571
0.05677694382
0.03418660704
0.06565883147
0.06754515112
0.1503047228
0.1391212137
0.06321907866
0.06505864722
0.09250566796
0.09558972114
0.1795689667
0.02698515409
0.02683802811
0.02834727881
0.02812724426
0.02058664169
0.02656965104
0.02646206549
0.1672091566
0.08795669095
0.09135534904
0.009391255482
0.009370633295
0.01130989724
0.01091100196
0.009541622553
0.009225719645
0.006673347655
0.05546141819
0.02183092009
0.02679114323
0.1384759375
0.1324040041
0.06322240311
0.07281433097
0.1457255671
0.140283886
0.03278580247
0.03284230066
0.05020154123
0.04850385235
0.03238751365
0.03232907615
0.01145967374
0.02335109931
0.03735809634
0.03671251459
0.008814497424
0.01483617154
0.01688622896
0.01410427562
0.0136560865
0.01891978546
0.01916381225
0.03130522017
0.01286452883
0.009367291964
0.01268817842
0.01314821767
0.02927918037
0.01841150232
0.019007592
0.01362491613
0.03153101303
0.02622823238
0.01148018998
0.0114595518
0.01105699704
0.01123522273
0.01498107997
0.006363149536
0.004077248022
0.007376588381
0.01161617366
0.01109227168
0.01112528614
0.01090252161
0.01116178932
0.01103591561
0.009879806227
0.006493620972
0.005184665327
0.01089324781
0.01119636269
0.01052926665
0.01062963704
0.01225039602
0.01878628489
0.01901505925
0.01843350391
0.01861559355
0.01213092819
0.008876744907
0.01434601655
0.0143287328
0.01483122946
0.01445924263
0.008798656021
0.01349848131
0.02111936914
0.02346724527
0.01928899649
0.01988851354
0.01307506181
0.008999487573
0.01434497877
0.01435101968
0.01429461556
0.01433570477
0.008947456495
0.01019531392
0.01036764366
0.009862637183
0.01032658966
0.03766165508
0.05710181807
0.05663181843
0.02187024189
0.03650921764
0.03625189093
0.03785250159
0.03688081807
0.02208230009
0.01225371185
0.01176375204
0.01204733315
0.01233188828
0.02053232662
0.02033623513
0.02097423567
0.02074997803
0.01600357067
0.03563743641
0.02120582214
0.02214138022
0.0211928773
0.03574684055
0.03552279116
0.03608881111
0.03590194133
0.02132144187
0.02190048017
0.02128755797
0.03204874493
0.02290147547
0.0164214667
0.008198732259
0.01178660938
0.01159344349
0.008076043509
0.04384380196
0.03047373432
0.002981767622
0.03041081905
0.04666029959
0.04632171158
0.01893789758
0.01184566134
0.008709448523
0.003406447003
0.01349093671
0.01386781827
0.01960587624
0.01977580359
0.03201034334
0.0199845528
0.01071351755
0.01138839063
0.01453241907
0.004673319207
0.009052678271
0.006896968314
0.007024677595
0.00752345605
0.00985072423
0.006637466906
0.01127520259
0.01125642013
0.01123324363
0.04027110338
0.03125687811
0.008186901069
0.01019353373
0.01127516735
0.0184085123
0.02062543804
0.01207619301
0.01493544758
0.01442051463
0.01098769633
0.007236402004
0.01093695883
0.01243151741
0.008676210551
0.01229212214
0.01255533119
0.01263754634
0.01280973838
0.01256274513
0.01267342526
0.01258351852
0.01251983335
0.0129231315
0.01294079216
0.01270861725
0.01308471527
0.01331804012
0.01320769619
0.01745496546
0.01905773427
0.0173056477
0.02557041923
0.02156357037
0.01669535516
0.01565563251
0.01692102171
0.01045675384
0.01666055535
0.0176187639
0.01199554148
0.01660103682
0.01118701076
0.01142123534
0.01808738928
0.01824536553
0.0176945058
0.01792946882
0.01126378213
0.01243777184
0.02159396042
0.02119817802
0.009036048834
0.009000894024
0.009743819003
0.006987379612
0.009039178255
0.009001521976
0.008827848304
0.007891005588
0.01003860307
0.01782084568
0.0159006846
0.02061476706
0.01954165361
0.0113318327
0.01002258118
0.01045777012
0.01376301985
0.006821038589
0.01029603446
0.01024658484
0.01109537771
0.01002649294
0.01019320813
0.01624936963
0.01444592058
0.009960257312
0.04624197199
0.04329354997
0.08227183326
0.07391875559
0.04370015805
0.06359490297
0.08827005171
0.08493187237
0.03456801564
0.03188674151
0.0297853158
0.02258919875
0.02925161786
0.04217810839
0.04268697702
0.03757252274
0.01996152984
0.02876397851
0.02918798643
0.02615654703
0.02704407251
0.01883096457
0.01292598076
0.01387563959
0.02129707812
0.01499739548
0.01427563714
0.01604521304
0.01522875001
0.02159434558
0.01462319903
0.01523128866
0.01196979636
0.01561024952
0.048311187
0.04849802858
0.03109759787
0.03077620122
0.05136399176
0.05135595504
0.029684534
0.02929349465
0.03045774704
0.03003487927
0.05966350615
0.05909970305
0.03604180324
0.03780398674
0.06076050132
0.06021815778
0.05505497998
0.05451786027
0.03265063637
0.0337195882
0.05616384509
0.05560390321
0.009182438472
0.01442040361
0.01445119483
0.01438843483
0.01442083707
0.009152159005
0.009385328146
0.01343248207
0.0116937959
0.01438592643
0.01414780702
0.009387349058
0.04364372485
0.02569121526
0.02596127611
0.02526430773
0.02547181112
0.04339957675
0.04496666931
0.02690977255
0.02740068589
0.0262293553
0.02654102089
0.04449136678
0.04134246
0.02403973514
0.02427906027
0.02367106123
0.02390187279
0.04110763855
0.04261026322
0.02486761769
0.02505947171
0.02444486617
0.02467843069
0.04233583978
0.02742327358
0.02723753533
0.06938525204
0.04667310605
0.04699082518
0.04598322453
0.04626180953
0.06868282984
0.02786846389
0.02766201407
0.02531418658
0.02658101335
0.06058365358
0.04225539351
0.04195427738
0.02830920458
0.02972604852
0.05414704009
0.06680944144
0.04529099106
0.04548959926
0.04458077892
0.04453083075
0.06559400097
0.02613471356
0.02617942994
0.009399486891
0.009526291721
0.009362505878
0.01055639342
0.009845730963
0.0116342327
0.009261130131
0.009277119584
0.009132319876
0.009197498563
0.01157523783
0.01562111381
0.009753949578
0.01061850488
0.009369256411
0.009213901358
0.01353509655
0.03645110808
0.05454340563
0.05423661581
0.0559451473
0.05558432627
0.03704129567
0.02161387822
0.02137164137
0.02219688981
0.02192208263
0.02186570665
0.01708237276
0.02436707014
0.04483724468
0.04019370361
0.05204772588
0.05023520515
0.03462732036
0.02659306832
0.01846238093
0.02376685111
0.02527832427
0.0398527064
0.02331452881
0.02360534212
0.02262087596
0.02336878112
0.03992061924
0.02293595757
0.0227096872
0.0237719191
0.02352381366
0.01070702363
0.01127623932
0.01107360082
0.01343461936
0.01203074912
0.01073465202
0.01029865201
0.01045136766
0.01069872105
0.01062543623
0.006960516463
0.01243732869
0.01193161141
0.01208970866
0.01244478905
0.01214439854
0.01239389942
0.01987285443
0.01982871396
0.02012883754
0.02006316393
0.03067082955
0.03063330581
0.04646674122
0.01905609425
0.02010830163
0.01959119602
0.01966112752
0.02063691189
0.03492845865
0.03456278461
0.0353597599
0.0350768843
0.02071734476
0.02009228061
0.03386584947
0.03197294817
0.03443994498
0.03384183158
0.02007535544
0.01188867738
0.0446952011
0.04414577012
0.02908594267
0.01375290883
0.01115703033
0.01087217965
0.008297845775
0.01138129235
0.01306078263
0.01876179125
0.0130491313
0.01422593226
0.01393169195
0.03142300989
0.01927779465
0.01948214306
0.01257456543
0.01249363701
0.01254890915
0.01339720654
0.01317660103
0.008898945065
0.009181565208
0.01362122419
0.01266056303
0.01318348507
0.0156355429
0.01929652996
0.02929801488
1.155535974
1.156250878
1.156046135
1.156549536
1.157702469
1.156776309
1.149241104
0.9760531993
1.157749154
0.9418209539
0.8427601084
0.9977105379
0.8259311642
0.7887966849
0.9316091742
0.7869956328
0.8032484468
0.9490701177
0.8139033625
0.8876927623
1.055388262
0.9156656731
1.051705341
1.157550697
1.099040685
1.157344219
1.156628927
1.15699511
1.156098447
1.155985769
1.155923185
1.157442325
1.156427636
1.109353382
0.8976913659
1.129179779