/*--------------------------------*- C++ -*----------------------------------*\
| =========                 |                                                 |
| \\      /  F ield         | OpenFOAM: The Open Source CFD Toolbox           |
|  \\    /   O peration     | Version:  v1912                                 |
|   \\  /    A nd           | Website:  www.openfoam.com                      |
|    \\/     M anipulation  |                                                 |
\*---------------------------------------------------------------------------*/
FoamFile
{
    version     2.0;
    format      ascii;
    class       volScalarField;
    location    "1";
    object      omega;
}
// * * * * * * * * * * * * * * * * * * * * * * * * * * * * * * * * * * * * * //

dimensions      [0 0 -1 0 0 0 0];


internalField   nonuniform List<scalar> 
12556
(
31.93128244
31.93221046
31.9331491
31.93395097
31.96677542
31.96767625
31.9686683
31.9706803
31.97447199
31.98035316
31.98788735
31.99456645
31.99682346
31.99450371
31.98796804
31.98079385
31.97508883
31.97083847
31.96904717
31.96761199
31.93374863
31.93258761
31.93154896
31.93060167
31.79570759
31.79831901
31.80086533
31.80306712
31.83674099
31.84012016
31.84570772
31.86959884
31.88688951
31.914201
31.94877297
31.98153796
31.99660871
31.98604847
31.95652575
31.92276614
31.89441009
31.87521245
31.84789498
31.84056279
31.80347638
31.79984368
31.79666667
31.7938786
31.66191987
31.66654234
31.6709563
31.67461741
31.70920614
31.71667282
31.72978755
31.76496619
31.80568209
31.866249
31.9418981
32.01064462
32.04507375
32.02165706
31.95963397
31.88543995
31.82294117
31.77835526
31.73411829
31.7180749
31.6761189
31.66994045
31.66434467
31.65964773
31.52973924
31.53570368
31.54157303
31.54716318
31.58456606
31.59903238
31.62690428
31.68393828
31.76359304
31.88457122
32.03322669
32.17913473
32.25603259
32.20829122
32.07357726
31.92051062
31.79206683
31.70563551
31.63396676
31.60357814
31.55300745
31.54283057
31.53444378
31.52768157
31.39948204
31.40730132
31.41515206
31.4239006
31.46486239
31.49009075
31.54231231
31.63374577
31.78635955
32.02339132
32.34840582
32.74821488
32.99775919
32.88013498
32.49629246
32.12565942
31.83672654
31.67035865
31.55454688
31.49930092
31.43417395
31.4187043
31.40688073
31.39773202
31.27029653
31.27951074
31.28938879
31.30227816
31.3511934
31.39336167
31.48265073
31.62614168
31.89517004
32.35828768
33.18021103
34.6665992
35.92427376
35.30141451
33.76010459
32.70334315
32.0275094
31.68792654
31.49806852
31.40768508
31.32089811
31.29685302
31.2806171
31.26883288
31.14359974
31.15469371
31.16780851
31.18678548
31.24471736
31.309546
31.44541456
31.67074593
32.1213633
32.99418491
35.13288001
42.39450565
49.70951741
46.24645835
37.27297353
33.97822117
32.44432457
31.78441626
31.46645787
31.330469
31.21320937
31.17785585
31.15596929
31.14108793
31.0185908
31.03150065
31.0481738
31.07523826
31.14603308
31.23887368
31.43421373
31.76615976
32.45270386
33.92395835
38.43153172
61.96455928
80.48508296
45.31753735
36.27915712
33.13594322
31.96869578
31.46472862
31.26585387
31.11188232
31.06200929
31.03302617
31.01473399
30.89847494
30.9140028
30.9359071
30.97368361
31.05538075
31.18111329
31.44324199
31.89867973
32.8326411
34.86305707
41.22585259
76.31652024
157.2635907
56.86000544
39.40238857
34.05940517
32.22375397
31.4840438
31.21202241
31.01727598
30.95059321
30.913211
30.89100151
30.78285542
30.80074937
30.82774948
30.87661586
30.974217
31.13451109
31.4700652
32.04742713
33.19441452
35.60387961
42.76134848
81.79519692
195.8347086
66.68645625
42.4658395
34.99514419
32.49931362
31.52135367
31.1672459
30.92994076
30.84479956
30.79796619
30.77143935
30.67502172
30.69625558
30.72998394
30.79250431
30.90201335
31.09737873
31.50632254
32.1942784
33.50317478
36.14909191
43.8033764
90.94024361
194.1261257
72.02222699
44.54931247
35.736626
32.74990368
31.56246826
31.12930025
30.84963317
30.7459592
30.68920476
30.65795596
30.57306831
30.59694592
30.63629289
30.71137886
30.83710537
31.06713948
31.5456409
32.32682001
33.75969501
36.5818987
44.79590122
102.0525309
178.170052
73.34009185
45.48588866
36.18388589
32.93849929
31.59534384
31.09450665
30.77635832
30.65400362
30.58750745
30.55126151
30.47962118
30.50695441
30.55401923
30.64272674
30.77715066
31.0385814
31.57598109
32.44329811
33.96333472
36.94160254
46.01117298
111.1890291
829.293802
151.9395081
71.97945301
45.52279044
36.30529772
33.04417109
31.61101295
31.05874138
30.70680051
30.56860378
30.49210775
30.45136926
30.3902828
30.42052945
30.4742113
30.57370311
30.72841153
31.02893339
31.64001892
32.57571881
34.18630122
37.36458733
47.79788884
155.1730576
510.1981072
141.1884174
69.63831633
44.75547047
36.19736751
33.08620933
31.60620169
31.01860037
30.63787531
30.48723933
30.40188643
30.35643377
30.30650659
30.339595
30.39899427
30.5074436
30.67384215
31.00184134
31.66853615
32.72391242
34.53251184
37.9849265
49.42799627
388.892279
364.4492627
129.6122911
65.41902386
43.60829979
35.93796431
33.07232659
31.57743875
30.97031301
30.56914406
30.40797967
30.3145793
30.26553287
30.22258671
30.25823533
30.32254573
30.43945151
30.61742793
30.96812373
31.6785093
32.90831126
35.14086646
39.43997018
55.08012139
739.3563033
296.9241195
112.4693862
59.88698618
42.10470716
35.62045552
33.00113694
31.52482438
30.91256112
30.4957502
30.32672789
30.22727253
30.17447457
30.14081876
30.17897994
30.24708599
30.36996744
30.55669048
30.92499791
31.67056877
33.05033189
36.00692348
42.83117034
85.05042662
979.0316506
204.4111824
91.51747924
54.00447712
40.61433141
35.35788406
32.89812519
31.45276276
30.84482727
30.41843092
30.24404683
30.13909152
30.08372237
30.05471928
30.0950627
30.16632586
30.29477428
30.49003708
30.87104896
31.64280424
33.08079726
36.78284919
49.72654114
252.7426371
633.9837419
147.9340778
75.27130469
49.72553919
39.69688981
35.14122986
32.77390981
31.36350821
30.76418326
30.33251376
30.15447745
30.04662627
29.98915588
29.96883733
30.01128297
30.08493872
30.21647086
30.41664641
30.80617698
31.59743228
33.0794786
37.05442471
58.50613821
468.5227878
316.4263349
119.8835474
67.42448143
48.00298266
39.26580387
34.91606514
32.63404184
31.26192321
30.67338017
30.24073005
30.06111073
29.95130622
29.89269045
29.87598916
29.92005866
29.99585614
30.1308261
30.33654031
30.73133816
31.53675648
33.05605174
37.30690723
64.12661126
465.2015561
263.1796206
112.3476975
65.72085221
47.22810863
38.87612937
34.69311153
32.48566988
31.15116603
30.57370485
30.14085504
29.96028095
29.84943372
29.79029075
29.78364149
29.82908778
29.90644918
30.04258555
30.25000801
30.64800295
31.46371554
33.0163267
37.58267511
69.24624568
444.7444955
240.0607634
107.9583514
64.48814591
46.59551583
38.52665997
34.47800876
32.33357537
31.03373217
30.46658314
30.03649702
29.85660596
29.7455532
29.68630125
29.68302768
29.72924051
29.80801969
29.94645007
30.1577343
30.5575851
31.38095254
32.96490305
37.91349848
73.09433801
420.2991028
223.1235108
104.3934409
63.48864971
46.09771698
38.21889878
34.27392665
32.18111536
30.911596
30.35352656
29.92499592
29.74547855
29.63462036
29.57568995
29.5850993
29.63178278
29.71130362
29.84952367
30.06023589
30.46127372
31.2906598
32.90695604
38.36396566
75.78712158
395.4217615
209.9282965
101.4368355
62.65075402
45.70908733
37.95431879
34.08322571
32.03080344
30.78649127
30.23598059
29.8117519
29.63406607
29.52392631
29.46552339
29.47787232
29.52450299
29.60472408
29.74453347
29.95847795
30.3602368
31.19510888
32.8497524
38.94496096
77.56652417
371.4527373
199.2727123
98.94410297
61.9367587
45.39892178
37.73059445
33.90743733
31.88449832
30.65997004
30.1153171
29.69236979
29.51527816
29.40584321
29.34821256
29.3767852
29.42318754
29.50341304
29.64182538
29.85313267
30.25570371
31.09676219
32.8027082
39.57284995
78.61860994
348.9514856
190.5222257
96.81488478
61.32258236
45.14474581
37.54192205
33.74679254
31.74337202
30.53326559
29.99265264
29.57447668
29.39966892
29.291317
29.23452083
29.26445957
29.31029001
29.39071266
29.53047506
29.74536452
30.14878577
30.99783166
32.77388958
40.15902327
79.1022831
328.0384833
183.1463536
94.97451543
60.79018386
44.93267574
37.38179497
33.60033733
31.60791573
30.40725086
29.86898053
29.45033903
29.27564024
29.16805696
29.11219893
29.16292069
29.20814795
29.28810891
29.42556439
29.63563523
30.04042766
30.90011579
32.76625631
40.65508343
79.09732132
308.6205425
176.7685912
93.36689669
60.32556423
44.75375448
37.24464316
33.46660306
31.47816874
30.28253106
29.74497456
29.33144804
29.15923433
29.05278037
28.99781179
29.04641313
29.09082178
29.17070521
29.3097286
29.52507319
29.93138968
30.80504648
32.77582406
41.05265912
78.7184301
290.6479357
171.1409024
91.9437169
59.91593747
44.60134238
37.12610724
33.34406085
31.35390946
30.15948125
29.62128974
29.20428743
29.03130087
28.92545907
28.87139875
28.94705084
28.99071938
29.06991624
29.20594346
29.41364989
29.82228088
30.7136986
32.79773678
41.36437248
78.10987988
274.0430931
166.0844599
90.66511853
59.55059035
44.47043324
37.02287136
33.2313259
31.23483059
30.03834694
29.49820331
29.08750728
28.91720296
28.81236892
28.75910283
28.82629681
28.86905746
28.94800965
29.08604339
29.30251928
29.71357998
30.6266581
32.82529692
41.59917472
77.3185664
258.6101802
161.4927713
89.50300562
59.22138875
44.35704847
36.93228416
33.1271654
31.12059285
29.91927854
29.37620885
28.957425
28.78526765
28.68082644
28.62835459
28.73183169
28.77385593
28.85208278
28.98668013
29.19107661
29.60568362
30.54403012
32.85292407
41.76344166
76.37182329
244.2292244
157.2809238
88.43519477
58.92132866
44.25767124
36.85213233
33.03050669
31.01086703
29.80238181
29.25529023
28.84605063
28.67676951
28.57310466
28.52126906
28.60562327
28.64672397
28.72454679
28.86141023
29.08083115
29.49896686
30.46559368
32.87671245
41.86571039
75.31466381
230.8044585
153.3694289
87.44129716
58.64383371
44.16913398
36.78055067
32.94042349
30.90534129
29.68774233
29.13599456
28.71120084
28.53911161
28.43567014
28.38449663
28.51927484
28.55972461
28.63694536
28.77059354
28.97053012
29.39380477
30.39096385
32.89418626
41.91433944
74.18332545
218.2667246
149.705168
86.50374606
58.3829284
44.08861731
36.71592171
32.85609083
30.80371401
29.57549078
29.0180741
28.60990196
28.44045548
28.3374593
28.28673864
28.38504303
28.42457069
28.50119676
28.63634272
28.862665
29.29072015
30.31974306
32.904026
41.91726035
73.00857612
206.563068
146.2429333
85.60770801
58.13331868
44.01360988
36.65683263
32.77679073
30.70574664
29.46594128
28.90257796
28.46539558
28.29324313
28.19040538
28.14022848
28.31088796
28.3499197
28.42616564
28.56022142
28.7554655
29.19053516
30.25189868
32.90578316
41.88263167
71.82063385
195.6243316
142.9558695
84.7424728
57.89061772
43.9419857
36.60207535
32.70188163
30.61116242
29.35992059
28.78957405
28.38207955
28.21038529
28.10759246
28.05766319
28.13966446
28.17762754
28.25313179
28.38814599
28.654131
29.09497364
30.18844448
32.90025864
41.81972554
70.65891165
185.551726
139.8394846
83.90710414
57.65368826
43.87260531
36.5508583
32.63101422
30.51990035
29.25964042
28.68262567
28.19684919
28.02223945
27.91933563
27.86987528
75.6234299
186.9248008
91.52083404
81.02699631
237.2225306
194.1073253
89.57727469
231.2199212
238.92918
100.7952339
206.5784958
228.100151
110.1552797
1019.607502
866.4475808
184.6379928
203.2018384
136.3412123
628.7512582
997.8116207
532.8945743
179.1639912
182.5250933
58.6728998
49.21424338
83.32076871
45.77744205
606.5515002
200.6506949
148.5422873
62.80269392
50.1691136
42.46484312
69.36021021
65.82483069
2073.966747
1477.852145
193.6418737
77.47251661
66.99358566
43.59205713
74.53309417
69.86976416
84.57886867
241.4223837
219.4606039
1118.019483
1578.577605
195.6666467
85.25688296
80.12189064
44.61139726
82.60900963
75.41053362
94.95438807
339.2538043
274.4939955
606.3248948
818.4545571
45.78874026
92.87244325
83.59482302
103.8042424
507.8434521
410.3747844
2442.420046
387.0904869
451.7155684
47.58761154
112.8372624
94.40095972
119.1330122
1075.946505
717.5801242
149.7879119
475.2925238
619.2964366
191.729547
221.3662902
117.3826614
185.5210265
1439.06615
641.1928571
146.1562027
510.2062025
996.8242883
216.795166
199.1322436
78.7460109
259.3983294
270.5183714
226.977005
256.6759585
1599.311004
2073.825699
218.5733093
1426.015861
1213.946324
1030.147974
1423.022725
215.8234216
271.4339896
245.0750764
85.69210419
311.8039352
353.2878256
272.5214674
308.6630476
857.9805539
1092.033086
237.2936642
818.6087896
635.1850284
1199.390502
850.891635
238.788412
406.2478449
342.4621875
96.29477369
416.5889508
514.030406
356.0136393
412.7660575
465.5779683
582.6986321
707.2324846
517.0698508
104.0923462
3420.446075
697.752844
1047.549988
518.959099
682.1652049
3832.890684
353.8670778
380.4572515
2147.369278
8574.634574
1084.365403
120.4245276
723.245603
1682.743475
7786.454712
1055.864298
1656.43379
743.4304506
40.68176278
65.15204813
54.73927884
70.21672373
151.3802672
101.6696665
3787.440561
664.0530746
78.33315193
196.9163518
175.7519906
6255.357052
180.6568325
87.21767704
86.24038688
6066.125269
869.4209076
969.4990728
653.3441116
312.1835933
341.3351929
173.1830778
155.0815912
72.00846174
1445.454237
280.7194666
645.036535
166.420233
450.4720376
134.6440403
990.3560001
1276.620937
215.57681
480.7408317
407.8833317
613.1246144
494.4434282
219.0444459
1456.773589
4698.004742
878.6418622
83.20702156
65.90964854
106.5515989
174.111925
79.06194139
85.0019086
5337.143293
422.4921819
3736.260745
485.343513
2724.996714
379.6785583
1689.269183
1667.285352
1305.473605
1337.646778
2489.252257
5308.111974
685.7683744
3032.183948
1620.675965
6001.694649
3543.362259
716.7902973
445.2966415
177.1753437
184.5192048
728.7121785
828.2423946
5499.34574
771.8263459
226.8103463
239.5508222
211.4917272
222.0035848
768.9514419
1313.69971
1447.192007
205.1297214
933.2779116
771.0182429
1386.760573
933.2616258
208.8172028
152.6564171
476.1202789
226.3312526
686.9519338
508.4376443
163.8100822
674.2878624
972.2131693
1010.097728
955.8647298
258.8851854
1496.139687
259.216331
241.7073411
1456.123983
1405.343781
1491.540735
1461.90512
245.6377428
1712.347891
1732.234893
1301.545175
430.6623292
420.8901705
431.4316213
432.2799345
1290.439577
1211.676505
384.4401308
352.372125
415.4986767
393.911923
1233.033026
330.7635185
333.450325
287.7421044
289.9562923
915.5661949
6214.659506
933.4839978
445.6441007
452.2189608
383.7742452
387.6647519
1528.013595
1106.040625
524.2777921
1355.919012
2299.694155
567.4909715
198.4196077
207.9015621
187.1834206
195.4862178
559.1210922
1611.676098
741.295139
753.4488884
554.5734001
559.0311153
6220.217206
1207.555834
622.7233913
698.841728
245.0016169
255.1737649
1323.347691
2674.171343
2039.428087
3097.701535
1089.372518
6808.662948
3355.504205
5881.27999
1085.461159
834.5751635
4312.430812
2517.313195
4557.34688
2314.671039
3130.712722
49.02372635
115.5022662
115.2653832
167.2480104
4242.837391
7964.997128
381.556748
163.62986
175.316898
1324.415597
3550.289698
4781.460476
542.183829
598.4701172
1131.359329
285.2923181
302.7401877
635.4682294
168.0348147
123.8699798
257.3546452
518.9684773
154.1794662
182.1845666
1955.249576
4961.775148
5105.917265
1574.067115
1200.141405
3449.003101
2477.53571
5877.475392
5742.484145
1500.493114
313.6923063
148.217217
152.7397075
142.6943701
146.7850029
308.0326688
168.6350508
175.0131832
440.827892
994.4315917
405.6939098
423.6173019
6611.773815
3478.226677
575.2444474
1249.843465
4556.375579
4960.367276
687.5222555
282.5096103
236.2684628
339.1734175
298.2426333
720.2999152
1650.842269
5826.851458
5890.048201
1963.674722
259.4068127
137.6556371
141.4096129
704.6106413
692.0894662
344.4766511
2334.018887
2130.492761
1023.58623
733.8951722
380.5271952
396.8698737
1059.693728
420.8341637
429.603706
402.6258082
416.4639555
1037.908979
370.2896575
161.0657587
166.6809698
154.3165351
159.2988451
366.0499553
428.1070375
1004.316895
995.1496371
1573.995671
1529.098644
493.7483161
366.6727839
740.2805479
706.6987495
991.2212577
984.9506275
401.8477538
506.8080214
1063.742141
858.1240792
6272.8783
2463.822041
720.1511584
888.3088733
533.7126884
1605.67524
1581.139116
1610.508729
600.9358831
5342.218341
8676.28787
320.1481181
360.4670231
430.2349751
446.1505852
1090.632106
2308.8488
1399.830708
668.1951954
1697.815695
8404.901003
2106.545386
1917.408762
15905.57868
1065.352066
1577.989732
2303.443336
2814.570013
2089.466077
6220.978699
6316.163116
1544.380924
2045.882897
6265.042887
1490.223802
1426.960847
437.6399279
1661.049098
672.9703406
1635.863964
479.6376685
4778.188976
3431.806452
1122.373991
5471.834334
6294.752323
4914.448132
3647.473987
1217.395888
5055.211581
6150.622109
3605.515746
4824.687761
6530.084175
2427.963897
3261.419156
1695.580304
2181.255065
5867.162726
5514.198289
1530.32997
927.2488129
2522.223675
1688.974809
832.0394144
515.6268444
1538.4882
5266.252665
6734.100475
1859.026323
1596.07725
5159.391984
5275.199995
3815.639534
3568.04467
1230.845241
6015.593148
5917.99586
4419.919955
5843.524331
5879.328141
1457.826363
5865.314415
3924.662193
3644.096759
4091.139125
2246.831035
1035.930515
1122.697465
4637.894911
1319.874164
1501.20076
1158.005703
1265.957095
4363.021671
4156.556942
1188.137313
1415.539901
379.7474865
399.5842151
906.4994315
742.7017105
360.7122713
374.8237683
1414.63953
1424.947869
926.3610259
348.9259689
369.0017622
324.1585813
343.0373796
920.0914183
977.3598498
412.4716201
446.6188955
376.0033334
402.4281139
984.6092897
624.5239492
298.1876784
318.5009707
894.6655475
925.8054816
3260.507612
3385.209374
1184.622078
4817.733502
4929.934376
6206.20723
3373.339182
2808.248849
4801.742479
3328.229791
800.0024503
2329.588908
3120.355571
1530.997234
543.98542
607.135588
520.5399012
533.5112147
1498.002424
654.4158118
663.9329826
627.704532
650.9744498
1440.045091
474.532736
486.4369703
454.7299874
470.325472
1432.669314
1478.801573
505.377163
516.3090566
490.3074641
501.6563306
1477.042332
5687.588914
5776.715994
1667.303904
1881.378856
5972.407515
5659.959465
960.0017192
963.9643755
935.9774303
958.7624846
975.1526348
986.7967514
965.5138024
972.7592482
678.9968514
688.456333
666.904968
675.8036947
727.1320592
894.336394
693.1057001
704.9740022
1983.260579
2339.616647
1567.05961
1840.460842
6469.775525
3755.814745
4149.961058
2509.539582
3629.687931
1016.999988
1009.880658
432.2760909
1604.389119
1608.820899
1573.537646
1595.429169
1652.571407
483.057982
1493.958507
1068.909214
956.6041012
760.4893152
370.6387676
1033.545536
1481.906204
987.420358
1043.277731
1539.811135
1562.285424
1501.052557
1530.384553
398.3031189
983.0914239
974.2251384
6362.663536
1622.189089
6293.564651
5451.319333
6272.192647
1743.426581
6486.131513
2186.123383
6216.09309
5435.025989
726.6295415
805.3642575
1637.937054
1610.782379
538.3471672
585.3762952
1700.193958
1640.448688
6162.773941
1129.385889
457.4545652
498.3914736
6319.473756
7143.821161
1767.93332
7741.352726
5699.774445
2592.003934
1066.835563
6797.631528
4124.422087
7527.904363
4543.981557
1522.070915
74.11105483
46.46556551
38.63500131
6246.804316
6220.991151
167.3443152
85.79082358
87.09509308
6478.030788
1155.584333
3330.348217
2472.330251
397.405108
329.9843447
194.9745743
426.2000537
281.3593319
676.4722056
2508.245348
407.3112707
463.5730978
60.0747877
72.10195989
150.2888444
528.3827398
1079.71438
1605.965994
231.2098896
128.2479561
131.8757635
123.2285403
127.0350908
228.1237224
1012.158945
1132.053743
3681.397536
818.5548812
717.9399188
421.9002071
343.7255377
356.490546
737.8170084
1749.252095
2240.499475
751.3942981
133.0200101
136.4669863
255.8336221
320.1027433
661.0603469
636.6719587
615.5825573
551.7573285
299.7050108
631.090083
326.2606077
339.4864707
4968.600714
4685.653502
3093.283336
1616.711157
1595.600259
1025.908431
4322.712452
6114.751097
5544.657492
1577.765001
890.4667747
986.6030639
1685.721112
1060.600968
1648.929738
1636.419683
1655.54675
4077.632823
6060.853506
4149.622463
4548.892572
6005.981148
1872.940632
1493.929622
882.2986721
1461.690525
220.0175916
172.6619122
320.1329341
1083.384539
2972.055895
2080.974609
6303.021733
6635.978697
6776.21051
5649.52723
6469.327974
111.6150112
145.7851072
401.0384535
4322.162095
2806.006206
2154.565686
5784.128078
4420.120656
2742.921908
4758.547628
4364.405598
6576.138301
6240.490006
4700.675825
937.7950409
1011.981062
2057.660491
6155.544776
3508.592176
3880.765492
4869.168722
3170.07838
3623.285066
1361.305747
1780.559494
1441.222987
930.6456259
646.4618946
653.8032601
1352.482557
859.8106975
900.4518384
659.2061117
668.0803639
943.4662617
265.3158674
292.0183844
598.8492592
754.1043447
1319.012983
977.7268469
1450.589237
1501.394319
979.3345869
1817.813682
1342.970126
1391.576159
958.2571158
959.5314904
1499.17969
1480.833699
1491.885979
1421.145372
1440.033411
1449.31034
927.8334007
930.291016
916.1737751
920.2133883
1416.240634
1487.536985
950.7068737
953.3632263
933.0737187
935.9641805
1467.110469
674.9133054
664.8239504
322.8027255
341.7732608
688.667692
678.171969
523.3759905
512.6892952
281.0199285
1518.905537
1520.539336
1495.559225
1499.097389
1852.466294
1526.273516
1526.924639
297.1399625
541.0806587
527.7256897
6189.224283
6126.122602
4067.277565
4295.556838
6173.03332
6186.259358
6398.433548
1002.247204
2048.373448
1700.268437
310.8465876
322.0892077
604.2168603
542.4286906
298.6728549
307.6897474
1054.355086
1054.403103
738.3177919
755.7288983
1061.420397
1065.632408
6180.107194
1398.607568
921.6111477
909.5449412
11953.19715
2186.717422
2409.857418
5170.821387
4375.394576
1712.381341
1692.563025
1075.990799
6583.663901
7158.053556
6850.059524
5442.116999
1140.577784
1754.99388
1702.170035
3372.768729
1280.320915
1540.064107
6128.053136
6049.713214
4860.016754
4552.701979
2827.575847
1500.910776
2206.929047
1872.726406
4038.745094
6200.301789
5395.613367
6281.940615
6031.354839
4488.292612
255.8322742
370.01056
1327.334465
5066.732961
4967.986428
5176.644733
5155.198186
5041.495654
3270.772193
3253.999712
3281.301778
3272.232955
5034.8344
5907.106656
3282.199681
3311.076683
3139.107942
3236.305537
6002.193425
4735.164435
2987.859934
2693.591081
3233.376284
3155.233246
4845.529144
5804.527128
3383.40756
3410.917854
3343.249817
3359.773766
5852.982739
5299.794753
5204.067007
5401.477081
5162.888668
1002.754427
707.9779519
711.2790646
1560.896993
1007.354354
1010.767215
982.4670444
1001.568115
1549.994999
6007.301704
6205.802242
5519.743802
6080.139156
1618.038661
1630.705158
1591.391597
1605.188156
2044.50069
974.6800558
1553.156541
1494.206834
1596.431181
1015.57581
1018.637005
1012.153963
1014.223982
1590.14326
1531.778434
1571.059359
1086.542365
1474.04341
2021.192218
6428.76219
6064.072803
4807.453352
6243.21019
823.5355958
1143.395767
13053.35456
1092.884195
759.1722855
761.8333551
1702.469345
8075.412573
8366.153085
9698.622268
6237.259163
5959.724385
1663.687882
1652.760723
1061.183947
1622.897737
3338.462455
4964.08586
3443.668635
4421.885677
3398.482288
1408.4446
4578.689666
3409.986404
6279.006013
6518.218529
6221.539739
4883.097666
5497.822447
1459.136069
1768.909711
1549.771039
764.6836228
977.0665693
1444.795841
1524.909873
1001.994177
1419.680807
1859.960885
6120.682069
6357.441399
6035.137228
5637.879823
6405.048899
6354.316939
6218.864184
4015.276232
5524.872783
5077.193605
6169.2287
6374.329446
4415.683707
4699.797265
5129.593757
6430.786572
5306.582421
3954.305041
4259.695601
4092.406676
2901.457213
4070.156166
2131.9007
3134.405516
4265.974504
4690.409281
4290.608165
5442.849614
3451.142036
3284.118724
4706.269221
3401.502912
5034.168456
5184.881319
3290.715349
3284.803267
3308.335038
3285.835654
5214.394863
3723.510836
2172.458205
2213.657494
5950.902848
5944.084449
5143.13802
6278.617269
6075.433064
5973.885578
5963.816048
6202.943612
4939.276587
2613.617746
2922.645865
2275.197295
2392.964659
4233.604737
6260.163935
5317.585366
3156.069423
6573.177638
6292.49257
6273.271285
4290.9121
6261.680258
6053.849515
2652.845282
3009.338326
5342.812304
1396.259036
1437.862238
713.888357
788.2615469
1308.356517
940.9636388
671.5697614
694.2509083
1423.044467
1393.804272
848.7287894
1474.802648
1810.577028
926.7317947
1458.625373
1450.39423
3256.537394
2198.524063
2166.078519
2415.864779
2337.468458
3434.067086
5142.637163
4827.961751
3156.538511
4756.766675
4973.780869
4464.172104
4698.43154
3104.526662
4692.503666
4624.535066
6011.686205
4411.664076
1010.889975
1002.976295
1460.027398
1504.99095
968.556097
964.7899738
1466.367839
1475.40555
1450.225441
1459.545576
924.7780937
926.5822868
1447.347795
1424.809884
921.8217244
923.1807298
944.1915167
946.8506716
1482.23108
1473.06265
939.1032148
941.7461945
5743.485882
3482.044144
3506.19224
3429.24839
3451.877133
5728.403491
5689.413513
3872.535668
4492.510669
3554.169058
3646.207619
5680.71661
961.4214863
1498.298481
1489.75972
1510.561138
1504.8053
962.5738221
952.0493254
1459.963729
1443.764386
1481.528905
1471.829256
956.7601682
979.3642334
1547.728415
1539.450161
1559.767378
1551.704862
981.3947013
967.4396624
1521.627039
1516.628295
1534.618021
1527.150312
969.534526
1511.195147
1513.978207
682.0183515
961.6522656
959.9134482
966.1365094
964.7359116
685.6303688
1503.920027
1507.093997
1563.980784
1487.361392
746.787962
1014.309833
1023.505439
1411.64482
1362.558785
820.1982791
695.0601109
971.1935878
970.6682773
976.6982007
980.4625694
703.7795224
1535.232825
1528.634934
6105.488678
5973.287031
6268.317649
4585.313341
5292.386144
3902.74741
6065.9083
6135.67105
6056.64509
6067.199659
3976.387688
2811.880082
5258.702386
4516.687306
5945.317749
6088.372879
3271.305066
1021.046328
729.2197006
730.7409879
716.9672277
719.2138133
1010.26575
1604.776571
1616.951801
1578.476029
1592.981615
1564.479346
1970.137038
1435.145506
854.2309339
936.1182635
755.0713306
776.1492798
1058.682922
1395.012847
1905.652464
1521.785619
1448.392769
997.7605574
1571.497892
1560.216796
1604.080917
1564.585569
993.9840059
1546.347344
1556.388062
1512.277296
1522.57066
6057.097702
4183.178766
4419.28288
3245.364719
3769.49441
6156.840565
6270.406831
6076.125327
4782.905263
5352.209881
6576.772436
6041.48251
4698.981413
4939.267978
3865.296955
4295.302571
6218.941422
1659.646128
1660.718315
1644.174063
1647.408265
1103.984914
1115.112094
782.8888639
1716.967591
1625.874557
1676.866824
1668.208489
1625.028294
1026.485165
1033.366841
1020.290654
1024.949756
1621.603622
1656.800461
1045.096158
1097.734102
1034.684326
1047.898125
1659.994607
5981.785628
786.6114789
790.8240912
1131.290263
6178.253965
8907.101055
9218.867671
8919.30077
8834.935824
6787.088528
1718.217457
6772.845167
4976.571269
5354.352661
1074.139521
1685.046952
1670.787486
6750.569449
7384.405327
7147.632226
5890.573408
6402.690979
7838.82583
7455.11184
4910.705371
7050.33009
6134.897168
2073.576185
1673.29809
1129.919308
31.78942875
31.81325989
31.88112064
31.82273576
31.86065924
31.90554916
31.87403164
31.92234076
31.93870236
31.93745458
31.98376614
31.97270488
31.99482484
32.0187548
31.99415117
32.02112112
32.0143204
31.99255821
32.00648187
31.96704981
31.96593406
31.95339244
31.90411722
31.93209491
31.89087655
31.84902855
31.90142393
31.83777972
31.80784408
31.87959206
31.70162582
31.75015669
31.7939408
31.77015047
31.84451614
31.85070381
31.87186611
31.96477986
31.92445769
31.99597998
32.09190142
31.99559596
32.11230333
32.1646901
32.04155121
32.16782531
32.16277746
32.03061405
32.14338122
32.057435
31.97706574
32.02926372
31.92885262
31.903942
31.89947256
31.81811505
31.83656232
31.79417025
31.73669163
31.78694048
31.64403914
31.73572098
31.74099428
31.7734628
31.91582614
31.85138782
31.97164909
32.16610209
31.99575791
32.23698016
32.47337596
32.13915386
32.51444709
32.68748192
32.24360787
32.69037069
32.69513415
32.22448485
32.62788195
32.42612562
32.11645849
32.35487713
32.1085754
31.95820236
32.03619188
31.85986219
31.82035562
31.81341109
31.70423837
31.72392196
31.62374687
31.78612781
31.74024306
31.85714577
32.13095027
31.95542653
32.24878366
32.70396493
32.25980257
32.89644496
33.67307414
32.61515017
33.83480237
34.60888373
32.93725615
34.63809321
34.59582378
32.90398623
34.25909985
33.5861035
32.60405558
33.335452
32.65431485
32.21498838
32.47284856
32.0620441
31.89673638
31.96032186
31.73279411
31.70527166
31.65427817
31.93011734
31.81313552
32.05150187
32.56170324
32.218587
32.80247308
33.90823683
32.9262558
34.48534579
37.72587522
34.12110617
39.06451596
46.27125137
35.65880764
46.51084126
43.50520721
35.43660072
40.91077945
37.08290039
34.09535078
36.08439964
33.98966098
32.93516424
33.51084374
32.53204588
32.16025219
32.31149714
31.8516202
31.75242493
31.73608249
32.16108381
31.98180483
32.355245
33.22142583
32.71220639
33.66400253
36.04226076
34.36563808
37.55813337
52.41531618
39.25386714
47.58755738
54.9619031
44.52707831
70.38491946
67.37668969
49.79956118
53.32782641
46.32288296
43.03161516
42.81867135
36.67258739
34.58215052
35.50858874
33.37527806
32.72020908
32.93733884
32.08560647
31.9001971
31.86170464
32.46105213
32.23665399
32.73721056
33.99288909
33.42358582
34.64822298
38.29379956
36.66534163
39.27597368
42.30244974
41.17221924
65.09936099
74.92341954
70.52023269
110.1163843
75.83412423
62.40238367
53.94977482
40.70773199
37.67872766
38.44700296
34.55252823
33.65803046
33.80673859
32.42404824
32.1639733
32.01096202
32.76560573
32.53847601
33.10953966
34.64900279
34.16555928
35.44245774
39.75155029
38.72550376
41.7064077
45.51832031
44.9097473
77.09245779
91.93854637
90.73676573
177.7791215
106.9417856
95.83852828
64.64288631
44.93734984
41.93635754
41.57457108
35.83535046
34.90953328
34.76257114
32.80818687
32.52015796
32.16162277
33.04066023
32.83669782
33.43383688
35.15790133
34.78662306
36.03089489
40.68756222
40.01088446
43.06662307
47.23754229
46.84357012
82.6367873
109.9213103
106.7185182
198.2557021
123.1902616
119.0063491
71.14523257
48.09716427
46.01849619
44.02314881
36.89527564
36.17270099
35.57059509
33.15539753
32.897064
32.30395156
33.27634349
33.10057065
33.70440977
35.55710581
35.26056262
36.48823262
41.45244659
40.87355274
44.09393296
48.67102533
48.23871064
92.28091567
125.923147
122.8798116
189.0759196
125.3780127
125.7088595