/*--------------------------------*- C++ -*----------------------------------*\
| =========                 |                                                 |
| \\      /  F ield         | OpenFOAM: The Open Source CFD Toolbox           |
|  \\    /   O peration     | Version:  v1912                                 |
|   \\  /    A nd           | Website:  www.openfoam.com                      |
|    \\/     M anipulation  |                                                 |
\*---------------------------------------------------------------------------*/
FoamFile
{
    version     2.0;
    format      ascii;
    class       volScalarField;
    location    "1";
    object      p;
}
// * * * * * * * * * * * * * * * * * * * * * * * * * * * * * * * * * * * * * //

dimensions      [0 2 -2 0 0 0 0];


internalField   nonuniform List<scalar> 
12556
(
999.9347598
998.0014209
993.5312095
984.8063615
973.0914051
948.9037269
910.7293943
851.747122
765.9992261
647.1354314
492.4982366
305.5307309
99.54157253
-106.2281123
-293.1682879
-449.212603
-571.573245
-662.6732434
-727.6846108
-771.9026839
-807.8676269
-823.6631948
-832.5999017
-836.6529838
1001.145519
999.7292104
996.2790976
989.39243
977.5809541
956.5655137
922.1819198
873.8463454
795.3779053
682.956324
531.0464308
341.1774391
127.8873979
-88.55385655
-286.1298917
-449.7297187
-575.3179942
-667.3634034
-738.806135
-779.6507075
-814.5621139
-828.0855418
-835.7860661
-839.2625594
1004.035634
1003.750204
1002.680075
999.820463
990.8073102
976.9741307
951.8834748
908.8055543
840.3062057
733.8114737
577.8512892
371.4441039
129.4143924
-115.6967847
-329.9024486
-497.6027024
-619.2825453
-702.7192745
-769.0482968
-801.4566853
-829.8516871
-838.5798736
-843.5081188
-845.6382461
1007.706704
1009.024136
1011.358545
1013.88064
1010.668268
1007.025859
996.7005411
966.7979221
917.7751672
825.9496517
672.3036512
441.0286887
140.7878951
-169.8167848
-420.5282034
-590.1892341
-698.2989496
-765.6319482
-815.1079587
-833.9428037
-851.3121511
-853.7566611
-854.5706006
-854.7289647
1010.463043
1013.621593
1019.955027
1028.774005
1033.105648
1042.837236
1051.748253
1045.231076
1026.540214
968.0705408
839.8629988
586.5039143
173.1250483
-275.581483
-586.7097438
-747.9284544
-819.1955223
-851.6278617
-873.8590058
-874.2918683
-875.9232785
-870.621984
-866.4759216
-864.3130621
1010.484241
1015.490081
1025.833513
1041.681808
1053.334983
1078.815591
1110.183565
1133.152398
1158.444191
1165.120072
1117.257899
889.8851557
234.4573651
-534.6401564
-902.7378806
-990.83541
-980.6265566
-956.4885599
-940.2012047
-917.4124201
-900.0517486
-886.1841483
-876.6758464
-872.0843012
1006.014567
1012.644078
1026.399055
1048.277919
1069.052381
1108.147551
1161.671883
1214.506554
1289.148284
1381.411178
1509.960226
1587.57406
417.5904149
-1329.985185
-1466.725849
-1322.300006
-1172.501887
-1068.240228
-1004.792394
-957.0372686
-919.9931251
-897.172692
-882.6685779
-875.8241071
995.5378662
1003.32948
1019.476842
1045.566738
1074.056707
1123.49977
1192.979502
1270.538694
1382.587589
1544.102068
1837.805681
2453.079853
-3301.739007
-2242.199865
-1682.757678
-1354.708763
-1167.244372
-1055.125365
-985.9122203
-930.0420755
-900.3113792
-882.0322538
-873.3391143
977.9073686
986.2400858
1003.466938
1031.430676
1065.588866
1119.758124
1196.661067
1287.922109
1414.147981
1585.021719
1853.354448
2223.085454
-4681.404239
-2747.751485
-1916.994512
-1470.273877
-1226.912676
-1079.729505
-996.1078135
-926.7540019
-893.1155957
-872.6904641
-862.9217788
952.5231851
960.7182789
977.5915883
1004.887998
1042.035443
1095.30684
1169.989257
1260.693522
1377.055034
1522.968109
1712.156774
1905.111115
-4184.602386
-2673.681795
-1912.130834
-1472.168798
-1228.117586
-1070.688668
-983.9817344
-908.2008808
-874.1423952
-853.4661632
-843.5443076
919.4113307
926.8464637
942.0399027
966.2880886
1003.941954
1051.388404
1116.554726
1198.50422
1295.602684
1408.820057
1542.046011
1672.728485
-3077.654336
-2214.623038
-1703.70307
-1372.718814
-1171.468727
-1027.766936
-948.994607
-874.3660153
-843.3222991
-824.2711849
-815.0738721
879.1696059
885.3431625
897.9124044
916.8791788
953.8917835
991.2567822
1042.023655
1110.190519
1184.562068
1266.934856
1361.074371
1476.822347
-1973.939026
-1629.633209
-1393.001162
-1204.952821
-1070.809519
-957.0371008
-894.4378121
-827.0205302
-802.0115443
-786.0278084
-778.2580358
832.8970403
837.4920574
846.9935478
860.4308122
892.262621
918.8969756
952.4335187
1004.93626
1055.128451
1106.175206
1157.216267
1245.604672
-733.0313055
-992.9311185
-1087.39119
-1074.483242
-1013.867455
-946.890798
-868.7028069
-825.4213071
-770.7147173
-752.6176258
-740.4380543
-734.5418333
781.9373611
784.8511136
791.0789161
799.376798
824.7327322
840.2954703
857.0895458
891.5189164
918.0581921
936.8631584
935.4973969
930.9119477
300.9400705
-391.5177621
-683.4693831
-806.2838972
-832.7875255
-816.601951
-773.561562
-748.9916103
-709.1335048
-697.7039042
-689.6221186
-685.7773596
727.7874579
728.9638106
731.5868775
734.5835055
753.8887263
757.9226271
759.3381134
774.3224486
778.1455112
768.840793
722.9424706
589.9402179
280.1228086
-143.9360996
-440.7488038
-607.6324352
-677.8924032
-693.9491823
-678.7206472
-671.1160559
-645.0396523
-639.8285406
-635.7880236
-633.9206066
671.92992
671.5381916
670.8044922
668.962257
682.6457575
677.2098201
666.4794763
662.3634702
644.4181492
612.9787705
546.9319966
429.2038041
208.0225231
-78.63373344
-317.4477922
-472.1555151
-552.4831424
-585.468938
-590.3942773
-595.7198566
-581.2893883
-581.4282168
-580.9639097
-580.8137232
615.7816777
614.1129672
610.6438832
604.9032769
613.3545932
600.6848254
580.8627237
563.0836291
524.482318
474.1527333
399.7697666
290.5357572
119.3485967
-77.18373687
-253.9429535
-379.3686577
-452.0574111
-493.4018106
-510.9877441
-525.2615622
-520.1015534
-524.4705298
-526.8623998
-528.0390394
560.5766135
557.9314387
552.3699864
543.7161197
547.8637156
530.0671725
504.2969561
479.4812643
427.9260658
364.346857
283.5341401
189.8369799
55.41664588
-86.00087533
-211.9174737
-306.0099141
-370.391249
-415.5742624
-441.0991008
-460.9500307
-462.805761
-470.1988556
-474.727546
-476.8694701
507.2647817
503.9241548
496.8716939
486.2151032
487.1618353
466.2324871
437.1960576
409.5352351
357.7627567
292.4533332
211.6920483
127.3195987
22.55149151
-81.20987731
-172.090899
-247.441046
-306.7884481
-351.6927023
-380.729913
-403.4557475
-410.0518711
-419.3902173
-425.3580419
-428.2053978
456.5303625
452.7560739
444.7744348
432.9208651
431.6853647
409.2369004
378.9686659
350.9463795
301.736117
242.3835466
172.7107891
101.6159243
17.10106631
-64.49183634
-139.0664512
-203.5692922
-256.7907743
-299.2158356
-328.9788053
-352.6212493
-362.1156324
-372.5110878
-379.3233469
-382.5728775
408.82526
404.8436666
396.4242209
384.0614226
381.4035739
358.6800549
328.7453073
301.6531771
256.2361078
203.5608025
144.3770046
83.20618848
14.61749565
-52.42125288
-114.6302287
-169.8213396
-216.8670732
-255.7696067
-284.6965697
-307.9262862
-318.9269224
-329.699326
-336.8729791
-340.2986679
364.4008925
360.3899896
351.9186376
339.5869571
336.0907484
313.9614957
285.5129158
259.9131374
218.7744769
172.3391325
121.3740954
69.33024418
12.29000771
-43.54882441
-95.90120546
-143.1906577
-184.448104
-219.4399557
-246.6899205
-268.7076725
-280.2290558
-290.8745687
-298.0480037
-301.4785815
323.3375823
319.4288348
311.1850257
299.2722462
295.3914965
274.4213661
247.9780451
224.3434741
187.509582
146.7215083
102.7107411
58.25071932
10.25432811
-36.74085058
-81.10288802
-121.690881
-157.7070636
-188.8506896
-213.8692602
-234.2807905
-245.6445306
-255.8196986
-262.742807
-266.0581761
285.5847973
281.8716168
274.0491887
262.8162513
258.8881845
239.4240244
215.2456141
193.7883242
161.0886575
125.3594258
87.31068087
49.19149452
8.508304764
-31.32231093
-69.09683053
-103.9771405
-135.3198092
-162.8213372
-185.3969958
-203.9947194
-214.7561967
-224.2467268
-230.7565121
-233.8768465
251.0023631
247.5477675
240.2752828
229.8868563
226.1500491
208.374822
186.5557409
167.3333732
138.5044213
107.2964417
74.39897491
41.65573218
7.022830863
-26.87757632
-59.13435057
-89.12053289
-116.3199024
-140.4523394
-160.5576113
-177.2700394
-187.1526093
-195.837149
-201.8339556
-204.7095702
219.3913261
216.2340333
209.5894585
200.1387258
196.7540354
180.7407624
161.2712508
144.2504522
118.9938303
91.8336454
63.42052596
35.29751427
5.764597605
-23.13791801
-50.70555469
-76.46109368
-99.98944281
-121.0425381
-138.748003
-153.5935768
-162.4422615
-170.2638064
-175.693879
-178.2975976
190.5122354
187.6725671
181.6960303
173.2249803
170.3037358
156.0538081
138.8623923
123.9587773
101.9749344
78.44954691
53.9734463
29.86820415
4.702051922
-19.92324228
-43.45381548
-65.5210295
-85.78973052
-104.0453474
-119.4731357
-132.5215616
-140.2573905
-147.2022597
-152.0443825
-154.3651897
164.100822
161.5862198
156.291421
148.8075247
146.424021
133.8954406
118.8775863
105.9830862
86.9900365
66.74109432
45.75793833
25.18188185
3.80639008
-17.10793304
-37.12048388
-55.94336907
-73.30526639
-89.02395735
-102.3165274
-113.6637002
-120.2576934
-126.3396448
-130.594268
-132.6319134
139.8826493
137.6922121
133.0756828
126.5643892
124.7701443
113.8969549
100.9339973
89.93224985
73.67589501
56.39717334
38.53774183
21.09499375
3.051952843
-14.60194746
-31.51357485
-47.45648031
-62.21083522
-75.62549842
-86.93030059
-96.68109608
-102.1327097
-107.3815866
-111.0623847
-112.8231492
117.5815178
115.709157
111.756991
106.1911826
105.022732
95.72974338
84.70774532
75.47238029
61.73474487
47.16705933
32.12365686
17.49360046
2.416178295
-12.33814273
-26.48546856
-39.84712619
-52.24428901
-63.5487211
-73.02082372
-81.27581974
-85.59969701
-90.05326889
-93.18122748
-94.6750829
96.91999368
95.3576263
92.05099726
87.39489922
86.89323124
79.09646616
69.95584935
62.32017243
50.91912487
38.84323786
26.365536
14.2864284
1.87945039
-10.26493975
-21.91988301
-32.94516836
-43.19532368
-52.5533654
-60.32255217
-67.18371925
-70.39616256
-74.09682351
-76.69573511
-77.93363712
77.64555107
76.38258633
73.70092535
69.91969868
70.0964533
63.72198593
56.372925
50.25624486
41.02290716
31.25282411
21.13825372
11.39778693
1.424767098
-8.341375195
-17.72247797
-26.61112856
-34.89293118
-42.47045532
-48.59001431
-54.16458154
-56.29760725
-59.28503608
-61.37899656
-62.37345537
59.43598806
58.46979056
56.39974979
53.44967822
54.42425583
49.35787871
43.62063285
39.08219977
31.86165083
24.24449939
16.33318866
8.76250563
1.036980337
-6.533352213
-13.81301327
-20.72367678
-27.18064522
-33.12065133
-37.64179006
-42.00291293
-43.03791584
-45.3579685
-46.96440925
-47.72031456
42.2643266
41.57044163
40.09156676
37.99387006
39.43537456
35.77896238
31.56858717
28.57132794
23.26273327
17.68209743
11.85433148
6.323689113
0.7023797578
-4.812020101
-10.12211763
-15.17573289
-19.91472671
-24.29571615
-27.3188543
-30.48688338
-30.62563933
-32.26675175
-33.40704614
-33.94865549
25.07102993
24.71316767
23.83832956
22.5781742
25.16096794
22.77974964
20.03855264
18.54533481
15.06780455
11.43884381
7.612977128
4.030349685
0.4081599722
-3.152170754
-6.588010846
-9.871213974
-12.96857194
-15.85913574
-17.43237266
-19.50757791
-18.24810271
-19.23129909
-19.90276497
-20.17234525
11.171482
10.90961059
10.49865749
9.913177979
11.22966031
10.06007528
8.755024033
8.840145733
7.127054825
5.388211267
3.516415989
1.841390132
0.1419773366
-1.531010857
-3.155028285
-4.723055204
-6.223833538
-7.672497302
-7.764936066
-8.723751796
-8.25317815
-8.705985305
-9.02468244
-9.246887761
2273.673406
-5047.392965
-3529.803186
1938.448466
-4569.236672
-5076.537005
1698.590969
-3351.612986
-4435.904723
1502.062166
-2151.837698
-3194.221337
1263.809708
-784.1644618
-830.0645422
-1107.977563
-2011.392997
961.6058461
386.2842137
-735.0810273
246.2055343
-400.3896997
-992.6659514
2390.326851
687.7514852
-3138.884623
-1125.89334
-6980.973706
-4774.792269
-4641.918024
-2972.079589
-2437.636936
1752.301931
1916.631371
2175.228963
-6540.082411
-7071.496015
-4298.081969
-3020.965498
-3054.889852
1585.427093
1685.282917
1884.875497
1811.012934
1852.79195
1975.343451
-4681.60071
-5617.957084
-3221.228472
-2535.265468
-2934.347728
1407.943135
1487.204615
1659.624504
1599.045636
1644.212473
1724.838523
-3027.102696
-3722.268537
1210.335106
1260.677241
1461.833482
1386.159458
1453.214658
1548.559404
-1622.881577
-1601.732496
-2203.112071
991.2701091
970.3805809
1227.522807
1117.944307
1156.658746
1316.687679
661.2186122
399.1844882
401.3590305
2836.906853
2398.356101
3232.375923
2917.603936
-7099.014057
-7023.524595
-4706.689694
-6696.807504
-6918.343595
1992.400852
2119.566643
2046.970962
2126.331207
1996.673091
2355.554237
2147.511093
-5675.954833
-6496.330229
-4837.941466
-6359.179717
-5582.154619
-6894.77877
-6401.705557
-4885.187192
1737.491529
1836.47908
1781.488863
1845.783134
1739.540347
1987.728845
1854.681668
-3826.173376
-4616.85641
-3826.17209
-4506.629259
-3752.725276
-5525.357411
-4625.311597
-3983.844172
1554.929294
1639.220297
1575.089683
1643.391737
1560.037708
1732.854516
1648.166336
-2291.815353
-2932.036836
1325.678169
1446.379101
1371.107116
-1573.307263
1452.515141
1331.74235
1553.529414
1459.420994
-1616.393443
-1003.218162
-1519.996831
-1569.99842
1041.168679
1143.632106
1097.398807
1.783850791
1149.567109
964.1117074
1322.743616
1161.858979
-73.24666547
1873.183126
2217.073219
2326.472444
2459.614775
2855.041128
3078.276645
-9283.680257
-6278.280859
2086.922147
2141.465553
2350.87454
-3625.041176
-2106.261674
-1863.911218
-2374.254425
-2051.841718
-2008.131556
-2324.787321
-131.2396243
-463.6839796
-855.5291579
2391.925828
2786.604879
2422.377769
2560.626678
4098.567408
3779.393271
-4505.830217
-6576.737406
-4489.571908
-2377.023116
-2719.973448
-2587.050529
-2887.736952
-2266.530019
-3652.725168
-2979.973012
-2735.992342
-1146.871873
-240.9125256
-414.9830837
1005.772184
2178.994056
3159.534777
-4241.719244
-1478.972458
628.9517112
-9354.07665
-6456.109241
-8919.715204
-5937.676021
-8777.751138
-6117.736613
-6784.183065
-6821.912192
-5121.288701
-5184.90725
-3190.386133
-3541.462249
-3317.791594
-3524.24662
-3161.778328
-3984.022287
-3579.359249
-3417.322157
1498.384264
1463.092936
1422.108011
-1624.554121
-1912.153579
-1964.765733
1239.68839
1201.932797
1136.102512
1278.121208
1221.963557
1249.484875
2937.145598
2600.932684
2615.772951
2605.576149
2952.951145
2372.603837
2567.649467
2553.766731
3218.209254
3700.879493
3953.114457
3017.8954
3610.915819
3156.293635
3669.934445
3018.856035
-7177.361378
-7180.601495
2063.877462
2147.534655
2054.834353
2249.973381
2240.283344
2355.724255
2154.981266
2227.599823
2220.94753
-6056.256119
-6108.326456
-6004.500036
-5381.97508
-5588.853744
-5056.432935
-5305.345993
-5953.673377
-6682.595986
-5840.675317
-5911.876564
-5648.94708
-5801.525944
-6646.738712
1792.745204
1785.186435
1925.687075
1916.035604
-4152.377011
-4029.964476
-4209.349037
1605.524789
1599.704273
1690.075024
1684.503108
-3106.022199
-2749.212392
-2652.713853
-2768.189836
-3127.334508
1381.070717
1345.790342
1295.602254
1407.667369
1361.924735
1390.342033
-1198.658646
1395.253974
1385.474071
1508.969584
1503.259009
-1970.557618
-1202.838442
-1249.823651
-1530.092944
1112.144023
1039.19377
964.8629956
989.3915175
514.3037048
228.519414
1256.083489
-227.9624571
187.7042834
-141.6592716
1246.883597
-323.5085151
-177.428025
155.3480844
-8149.078894
-2217.2119
-2384.015404
772.3438182
705.2371143
931.8615424
811.250498
826.8814272
1000.728975
291.2431731
-80.6286087
-280.8388067
4875.492705
-2417.512554
-2602.628212
-894.3009194
-1158.130687
-1152.471917
-99.36282686
-354.9939279
-59.16560791
1488.131233
2818.966727
4008.967297
-5570.48957
-1988.444135
450.667492
-6655.364259
-7637.049269
-7474.450217
-6972.402374
-4867.071062
-5065.562789
-4850.992794
-5895.943965
-5705.428331
-5437.738699
1681.273199
1655.433536
1620.778984
1704.216836
1667.314285
1687.15101
1514.440912
1476.169075
1504.335737
1194.216726
1178.938756
1141.927412
918.6106979
719.5242893
450.2820794
-7143.200595
-7709.547088
-7701.157607
-6975.558648
-5818.031985
-5572.69905
-5917.196285
-5863.285154
-6968.08522
-5844.765369
-6139.078093
-5962.267026
-6342.666124
1777.046692
1756.563903
1716.9237
1748.416469
1766.21213
1758.226538
-4784.166544
-4579.693104
-4437.845977
-4169.814299
-3914.708739
-4201.911341
-5110.395823
-4687.92143
-4967.341151
-4299.147333
-4591.686464
-5049.509423
1595.384453
1563.050189
1526.871127
1609.387259
1574.840466
1601.154931
1628.48077
1644.503345
1655.937063
1574.993799
1598.495595
1578.529558
1714.277685
1721.967768
1742.015191
1659.385968
1671.74125
1662.913679
-2561.64369
-2700.635346
-2372.622563
-1395.440511
-1410.88664
1430.712833
1348.154055
1533.493154
1543.792044
1569.015396
1499.564447
1478.569738
-1757.659518
801.177429
1015.854466
965.9643526
1128.580118
1083.612319
1092.843337
196.4626791
426.11321
195.0884742
1100.457193
461.1764552
748.0840868
552.9640059
595.3679967
1290.297851
1198.880974
-8556.389227
-7859.566497
-8168.473333
-3779.430398
-3849.477445
-2019.407061
-2166.895886
-2171.322208
2472.294108
2445.001952
4127.735126
4667.196771
4656.734527
4521.073716
4068.701618
-2795.234958
-2607.509825
-2569.19983
-2606.931631
-2812.305672
-1149.629887
-967.2518509
-988.9034821
-969.2855048
-1148.106025
-739.9541775
-918.7361035
-489.9835542
-524.8652278
-690.3350356
-314.8385824
-471.3772086
-388.5954161
-9171.225337
-7932.291062
-7501.267927
-8179.139243
-8025.443198
-7316.821144
-6575.81802
-7945.674673
-7187.519499
-7059.235169
-6686.031839
-6936.360385
-7414.108501
-7242.665946
-5345.302044
-5137.245582
-4930.923954
-5197.862311
-5412.237258
-4916.90326
-5132.931454
-5485.413931
-5375.322362
-5645.302979
-5420.278881
-3337.372222
-3406.183288
-3375.139875
-3292.593959
-3443.941151
-3823.565254
-3710.162724
-3872.793654
-3494.475863
-3656.660957
-3764.434818
-1832.109055
-1815.068687
-1965.842245
1223.099315
1191.133954
1202.747803
1275.944403
1262.298811
1233.736592
2773.065771
2725.547043
2731.475333
2736.64306
2616.46105
2930.169002
2781.201958
2780.593414
2446.872219
2458.502582
2386.04283
2580.549025
2486.013749
2475.350527
3250.451676
3160.13117
2987.359271
3369.481634
3270.360246
-7855.183136
-7727.866014
-7154.080508
-7927.380013
-8114.079638
-7872.282662
-8169.871842
-8238.363231
-8189.045459
-8141.758651
-7152.068387
-7887.985087
-7905.481419
2106.121054
2102.710007
2078.38322
2141.650344
2112.220683
2117.449178
2042.465168
2020.777624
2071.642111
2049.557122
2283.640144
2292.056445
2246.609635
2365.391765
2308.960575
2299.140102
2186.488468
2184.390799
2151.650126
2232.95255
2196.022748
2198.687185
-6356.833392
-6196.26352
-5899.133536
-6282.288723
-6597.649977
-6403.498114
1824.006263
1802.429686
1856.830301
1830.501177
1768.358476
1751.602015
1794.48912
1773.782225
1973.641883
1943.262012
2012.716256
1983.776519
1892.977106
1864.939436
1933.172296
1903.119414
-4144.721336
-4328.57131
-3929.984674
-4092.507201
-4183.558337
-4631.573745
-4842.19355
-4385.015707
-4568.981518
1617.790436
1638.670133
1623.042383
1644.871588
1620.884331
1659.622715
1651.111287
1615.460543
1583.533023
1601.125609
1611.921018
1699.930612
1715.459375
1707.720714
1719.025001
1702.9616
1745.082083
1724.887236
1673.437799
1662.253667
1694.779351
1677.987608
1668.092593
1676.497394
1693.560106
-2813.593656
-2925.474428
-2990.764456
-2802.268913
-3045.840343
-2973.024051
-1158.943986
-1362.208073
-1383.202917
-1160.706982
1423.20967
1358.195027
1520.589302
1536.763529
1526.995404
1485.190772
1506.711595
1516.707033
-1848.216416
1070.013767
1067.043693
1015.550105
635.0234249
553.137803
1079.312457
301.81982
444.8152291
353.1381727
1278.941261
-380.0091698
43.94385074
250.913842
1.556910638
1202.334175
-2980.025511
-2192.575702
-1480.98585
-2365.224294
-2422.102158
-1132.938889
-1217.196985
-1694.091645
-2426.608777
-937.9632415
-918.3216882
-749.3750475
-2180.311561
-1634.386574
-1603.870765
1519.457411
3307.180488
4499.39402
-6774.437585
-2655.593661
296.1820831
-2067.764927
-1768.57256
-4061.213633
-6753.171171
-7650.631226
-7842.569394
1904.599238
1877.612132
1829.446991
1945.342329
1894.266125
1922.388573
-1613.854536
-1763.932687
-1767.026241
-2276.867033
-1991.59236
-1940.396302
1299.480305
1272.366301
1286.441205
-7884.219218
-7897.583837
-7145.461184
1814.022773
1770.406609
1791.123728
1822.325205
1829.101485
1854.413547
1862.795078
1890.148639
1880.012866
1346.375898
1333.159357
1308.603392
-1584.801075
-1536.254297
-1526.93162
1337.24199
1346.650329
1339.759738
-1691.217745
-1700.494492
-1596.704762
-1412.731741
-1410.962705
-1563.548483
1135.518504
1313.689709
1321.081717
1328.830005
1170.94821
-9190.369136
-3663.817928
-2034.246222
-2108.353027
-2112.543437
-2366.608871
-2209.585912
-2179.093457
2525.013833
-5446.467781
-4927.104338
-5969.594847
-2521.28845
-2573.975206
-2412.384399
-735.1044489
-750.1120129
-566.3704803
-573.4437394
-676.619325
-2771.031584
-2332.235904
-5354.723553
-9093.661062
-8580.113826
-8422.518007
-8821.057375
-8865.713782
-3240.240917
-3274.753561
-3221.992401
-3556.805503
-3557.796523
-3531.385538
-3088.696837
-3238.838199
-3313.728609
-3945.377109
-3887.71202
-3944.973191
-1960.43757
-1938.899787
-1972.269853
2875.447598
2955.835003
2641.233377
2645.433411
2650.272169
2610.91498
2390.01404
2401.326691
2380.074985
2573.900438
2539.780726
2533.262955
3403.861722
3224.829339
3339.548784
3564.599485
3585.021709
3728.153483
3021.793288
3091.523119
3093.84413
2088.802661
2085.844343
2084.370025
2145.314563
2136.010634
2138.618286
2041.127652
2035.542847
2079.802654
2071.780871
2255.358771
2257.560844
2243.244501
2360.082315
2340.424091
2337.058259
2162.845925
2163.220194
2154.026516
2230.214658
2218.946684
2218.102282
1800.126449
1821.856054
1814.191456
1765.158242
1772.18209
1792.673073
1938.964461
1968.381824
1952.42558
1961.676209
1950.999136
2028.881589
2018.90341
1876.226276
1940.425102
1929.950031
1889.497982
1899.863653
1929.145193
-4329.884665
-4404.66304
-4003.723317
-4073.042882
-4096.475297
-4474.478026
-4487.348832
-4377.197853
-4517.860324
-4339.874453
1366.687867
1341.95364
1354.601918
1416.711882
1399.33392
1375.475966
1399.902038
1411.16443
1405.246296
1376.147948
1380.274812
1389.53451
-1971.579695
995.7596677
1009.675883
976.908099
674.1659973
1003.3522
393.6094937
508.3031658
619.3658913
1262.929572
1268.378711
1263.583577
-292.515755
-134.0722348
-113.7676934
-129.6198096
1235.489346
1242.862783
1254.500887
-34.42338308
-119.0882946
-263.2434048
-2251.579211
-2299.142295
-2408.714318
-2358.732582
-2338.074031
5039.724924
5082.139701
4998.447543
-2478.879013
-2504.301457
-2415.742298
-2619.440197
-2561.267539
-2551.487281
-3735.537692
-3043.683749
-6403.967593
-6920.462902
-6935.956621
-6828.301607
-6877.90169
-7579.678099
-7392.796273
-7440.920067
-7300.297777
-7347.167381
-7527.58635
-5836.58656
-5749.300808
-5810.721712
-5616.539989
-5685.928812
-5774.739042
-7756.439316
-7535.97538
-7537.268286
-7489.574243
-7525.641227
-7750.094097
-6076.742556
-5987.718375
-6045.603919
-5872.201897
-5930.455547
-6021.932786
-6740.091171
-6784.116449
-6618.354494
-6680.616148
1648.845219
1643.400592
1638.598135
1581.414875
1577.224756
1570.471137
1590.926901
1584.614726
1589.776389
-1534.90512
-1591.282451
-1391.995916
-1477.839536
1448.477071
1444.054443
1461.3784
1453.652031
1352.490754
1344.313955
1350.793207
1346.577507
1552.201625
1548.903154
1541.286117
1563.976691
1556.776682
1561.2999
1475.784596
1470.796855
1491.543647
1473.956327
1482.141919
-1762.541181
-1756.790911
-1748.750568
-1596.430236
997.2053498
1012.638326
1088.40478
1112.094287
1105.997935
1087.46736
1119.866947
411.1756439
400.0644263
1052.941025
941.7936611
729.1406117
1292.22618
1308.727708
1302.890704
1184.769863
-9128.149705
-9415.236823
-8898.215283
-8735.875766
-8227.143127
-7309.662022
-9078.172029
-8741.961804
-3714.163402
-3867.391915
-2171.064821
-2161.784405
-2167.621936
2497.332159
2414.457685
4732.599808
4542.209185
4482.250978
4050.470826
3916.321387
4356.122698
4187.018628
4326.638868
-2695.113043
-2618.516816
-2752.39373
-984.198749
-979.2632053
-967.0485825
-1088.954782
-778.5874108
-753.8063243
-741.4838957
-905.7416589
-843.168735
-844.2177472
-498.9921221
-555.2307579
-549.3547483
-370.8122967
-378.8390007
-425.6665336
-8781.15292
-8696.363439
-9149.257601
-8135.33616
-8507.858533
-8514.835509
-8916.949637
-8901.100782
-7130.104967
-7011.280665
-7054.281197
-6955.304634
-6970.841851
-7077.662811
-7352.048856
-7198.541093
-7250.400401
-7100.976343
-7148.567596
-7296.572542
-5277.478674
-5200.341442
-5268.109817
-5265.149395
-5339.655185
-4963.2243
-4993.690614
-4966.580972
-5068.852431
-5564.868601
-5600.961376
-5554.517566
-5469.457965
-5543.401979
-5338.774795
-5407.178632
-5496.603192
-3377.602653
-3283.398961
-3277.984428
-3297.739545
-3233.822481
-3294.303633
-3478.812521
-3502.626865
-3433.121323
-3780.950819
-3825.419743
-3849.121954
2823.392633
2681.85884
2452.105033
2424.856461
2413.367734
2503.176485
2508.764426
2479.96722
3369.850212
3470.9737
3467.382564
3778.087425
3646.262442
3176.935034
3173.203341
3268.51797
-7802.806063
-7590.788377
-7619.920351
-7546.013524
-7564.887356
-7760.548915
-7987.597917
-8045.277834
-8217.935839
-8557.287082
-8472.20783
-8634.070226
-8639.753243
-8253.31466
-8210.334667
-8418.664267
-8386.28372
-8135.39226
2105.554944
2096.762533
2097.388086
2128.516457
2126.060851
2115.804847
2051.979037
2046.437568
2064.150968
2057.791711
2287.140584
2272.126575
2269.722454
2317.277585
2321.367617
2303.429763
2185.691761
2173.969844
2173.595993
2209.0367
2208.308195
2197.341969
-6308.15849
-6211.035615
-6260.453756
-6101.38963
-6156.718959
-6250.002832
-6540.715112
-6445.08516
-6531.1575
-6309.972549
-6370.35563
-6466.984028
1817.334912
1819.713398
1825.37019
1804.684117
1812.836399
1810.142419
1847.128672
1846.381826
1857.807682
1830.418866
1836.833703
1837.978086
1763.103093
1765.728628
1770.142126
1755.082299
1760.787094
1757.575303
1786.874044
1787.726868
1795.926983
1774.677997
1780.461613
1779.910597
1983.343033
1972.541649
1963.544022
1968.352798
1978.758874
1947.424302
1957.8646
1953.401338
2006.241624
1994.210793
1899.288969
1889.962825
1883.076302
1886.398838
1896.168342
1866.159926
1870.153459
1872.434908
1923.128283
1926.796261
1937.073404
1906.493335
1916.615927
1913.123106
1919.701309
1909.547056
-4236.974363
-4274.018487
-4167.208889
-4134.220738
-4158.991396
-4691.165959
-4722.910951
-4671.674005
-4880.802061
-4790.890461
-4760.087738
-4432.34727
-4465.384796
-4438.176104
-4616.284571
-4561.449885
-4500.219455
1624.174932
1620.125958
1613.812714
1633.021043
1626.699605
1631.473604
1635.979526
1627.457703
1657.222331
1654.56704
1611.530221
1601.463243
1595.764921
1595.448677
1593.690075
1607.67743
1602.1683
1607.456226
1705.946242
1711.053548
1722.452433
1707.301393
1738.231987
1740.961833
1748.283113
1727.941781
1734.211441
1731.541559
1669.139928
1665.373803
1687.798354
1682.600879
-2928.937177
-2913.008594
-2980.986404
-2798.412528
-2851.619103
-2887.021838
-3118.873985
-3166.627892
-3029.436854
-3033.002221
-3044.090073
-1316.557936
-1323.952122
-1379.875397
-1179.461596
-1246.139757
-1251.845514
1416.817334
1403.526492
1438.590636
1429.605252
1363.323328
1371.142749
1366.876914
1374.426042
1367.007894
1392.389493
1383.200194
1525.363822
1522.701863
1517.504172
1534.460908
1528.333666
1530.741254
1510.85572
1503.933762
1498.230801
1512.782645
1508.418471
1513.739932
-1911.620416
1066.159135
1042.513638
1044.291688
598.2037791
604.8598794
654.7644622
554.4992838
559.1845374
547.6003467
1056.048071
393.4767365
346.618597
283.0194984
1270.458685
1272.605814
1279.122569
-358.9849401
129.8655237
74.63349027
236.1589781
227.2619327
237.0824397
58.32522049
-71.86120484
-52.75554275
47.28516352
1215.919433
1232.087331
1224.18543
897.6360805
847.0759338
818.6001387
825.8454231
748.7924705
715.2343051
717.2841881
605.8171866
573.03191
562.0719357
415.4238717
390.6642432
360.8446068
188.4703257
180.4696865
128.2903889
-49.08511193
-36.97201949
-106.8224938
-266.252436
-240.0076055
-315.1629398
-444.0378926
-412.2701849
-482.0360208
-577.7548558
-546.6988171
-604.9956433
-672.2890039
-646.3953302
950.2847909
912.2656376
860.6152296
895.3768723
827.698264
764.9258412
798.5492778
688.2413594
621.907718
643.0727378
481.1065792
427.5321038
418.4278875
210.2033797
191.932392
136.4537315
-83.46851165
-55.97429199
-152.9898087
-339.032769
-280.2888469
-392.3734898
-525.611741
-459.9054716
-561.9210074
-650.7625873
-592.7703529
-674.7907179
-732.5542359
-684.7175975
1024.075288
1006.456323
933.2206873
996.5338688
949.9302281
853.9901824
927.4711166
832.3878056
717.5462479
789.2451677
614.9117355
506.4629154
539.7844192
265.5462353
219.9172687
162.3606192
-146.8394571
-95.59762343
-241.2085247
-475.0931789
-365.5726929
-535.2236538
-668.4795221
-554.6227356
-700.5110193
-769.3439081
-675.4039133
-785.2584793
-819.7300175
-752.1184982
1111.152102
1122.819419
1034.28013
1124.54152
1118.925867
987.6946585
1111.457885
1063.80688
881.0324805
1035.469887
878.5229172
665.1557831
791.0252454
389.3710594
288.0914852
217.3883532
-299.3925656
-171.7990114
-443.1100556
-741.9098039
-525.1741226
-803.5147592
-907.1011326
-717.8095183
-921.7140733
-937.2956201
-806.7094325
-937.2119269
-931.1919883
-845.4674895
1195.879656
1242.380953
1153.967844
1258.459101
1310.269777
1166.097371
1329.043867
1388.597736
1138.191247
1405.890819
1404.239941
978.1845078
1350.767875
622.1890869
438.3018807
401.641637
-830.1379903
-374.5884407
-1035.716095
-1286.261292
-844.4774478
-1298.9684
-1258.017905
-983.4130563
-1231.920727
-1148.99302
-986.7111864
-1123.249059
-1058.361512
-962.0489246
1259.883989
1335.717867
1269.511128
1364.524591
1469.409988
1355.582615
1513.629313
1695.351411
1474.825897
1781.49885
2274.146498
1596.869029
1925.959493
1939.669327
1382.128396
440.3705011
-1065.677022
-408.71433
-1828.811451
-1746.95875
-1427.994693
-2048.156723
-1692.93345
-1363.042219
-1597.827147
-1371.511779
-1206.118681
-1313.21889
-1179.071981
-1090.239965
1286.749705
1376.894072
1351.604365
1411.214225
1535.037818