/*--------------------------------*- C++ -*----------------------------------*\
| =========                 |                                                 |
| \\      /  F ield         | OpenFOAM: The Open Source CFD Toolbox           |
|  \\    /   O peration     | Version:  v1912                                 |
|   \\  /    A nd           | Website:  www.openfoam.com                      |
|    \\/     M anipulation  |                                                 |
\*---------------------------------------------------------------------------*/
FoamFile
{
    version     2.0;
    format      ascii;
    class       surfaceScalarField;
    location    "1";
    object      phi;
}
// * * * * * * * * * * * * * * * * * * * * * * * * * * * * * * * * * * * * * //

dimensions      [0 3 -1 0 0 0 0];
oriented        oriented;


internalField   nonuniform List<scalar> 
25162
(
0.0004820797036
0.9161679203
0.0006426452642
0.9165394344
0.0008180551242
0.9164745901
0.0004053976208
0.9164599758
0.0006026816969
0.4583356271
0.0004197704971
0.4582797885
0.0005402389268
-0.0005200274547
-0.0006772577799
0.4582440549
0.0007832028712
-0.0008880529082
0.4581859268
0.00103712606
-0.00119791815
0.4581593117
0.00136860647
-0.001554478295
0.4581454599
0.001744018388
-0.00192333088
0.4581692638
0.002089067034
-0.002233767586
0.4582367388
0.002328528746
-0.002378827487
0.4583353744
0.002376953054
-0.002321574393
0.458434673
0.002221901389
-0.002086420443
0.4584941088
0.001922311643
-0.001752909796
0.4585089282
0.001578981627
-0.001398283432
0.4584961389
0.001237144549
-0.001083556496
0.4584875641
0.0009109924338
-0.0008403271447
0.4584526902
0.0007376369149
-0.0006022595039
0.458460657
0.0004916024902
-0.001801449464
0.9186149847
0.0002728919389
-0.0004364271751
-0.001128278679
0.9186768292
-2.674456782e-05
0.9157484659
0.9137732554
0.001330081866
0.9148378384
0.002193766097
0.9156757502
0.002687873267
0.915980483
0.001009484934
0.916615057
0.001523307098
0.4579085379
0.001216500888
-0.4581155539
-0.4580653332
-0.001500411287
0.4577138102
0.001851934303
-0.4578727459
-0.002280205159
0.4573653688
0.001304877281
0.001482705006
-0.228857374
-0.001563038561
0.2287282695
0.001692142999
-0.002217927794
-0.2287873222
0.2286223518
0.002382898127
-0.003001040927
-0.2287556383
0.2285593055
0.003197373754
-0.003818734765
-0.228805706
0.2286148341
0.004009606586
-0.004482504212
-0.2289482119
0.2288034186
0.004627214044
-0.004758412347
-0.2291598333
0.2290974227
0.0048209597
-0.00469842184
-0.2293362406
0.2294088068
0.004625855618
-0.004183904044
-0.2294414822
0.2296068892
0.004018497131
-0.003456359688
-0.2294755261
0.2296826217
0.003249264113
-0.00268177911
-0.2294517413
0.2296509181
0.002482602296
-0.001996905749
-0.2293966661
0.2295618301
0.00183174175
-0.4588631712
-0.002695555391
0.4602739894
0.00128473726
-4.213213986e-06
0.4608973723
-0.001656620274
-0.4592365388
-0.00197344957
0.9180094183
0.0007123130008
0.001866703008
-0.001218847805
0.9179222274
0.000242834492
0.9142867836
0.9140160899
0.001709950102
0.9131278883
0.004497389372
0.9128883109
0.007650110964
0.9128277614
0.003429487283
0.9138873667
0.006948314002
-0.4577280366
0.457387987
0.003769536875
-0.4573342706
-0.003959524973
0.4577348048
0.003558990733
-0.4566688061
-0.003936454893
0.4560915964
0.00217880496
0.00233485969
-0.2280983224
-0.002667457209
0.2278216327
0.002944146874
-0.227812561
-0.003911436793
0.2274488143
0.004275183516
-0.2276537428
-0.005452731402
0.2272752381
0.005826697184
-0.2279808898
-0.007237992146
0.2274322346
0.007767954361
-0.2283681167
-0.009306813867
0.2279332226
0.00972813275
-0.2289678998
-0.01053987924
0.2289064132
0.0106038799
-0.2297042287
-0.01016625643
0.2300778802
0.009809559822
-0.2303032791
-0.008379357898
0.2308583308
0.00784171411
-0.2305716916
-0.006398708997
0.2309804477
0.005990980417
-0.2304799096
-0.004855979901
0.2308457746
0.00449011484
-0.003217194091
-0.2302941975
0.2309684965
0.002542895086
-0.4628683936
0.0006298760224
0.4616514127
0.000587104798
-0.4599524307
-0.0007798768706
0.459888572
0.0008437355948
-0.0003857186752
0.9195473446
-0.0007006775571
-0.0004515301199
0.001263973297
0.9162725355
0.0005802644163
0.9149704925
0.9145963543
0.0007268045923
0.9124010837
0.00161399479
0.9120011207
0.003238153553
0.9112036026
0.003903124953
0.9103275608
0.002894834538
-0.4564214351
0.455767447
0.004557113035
-0.4589886415
-0.006037053373
0.4556160564
0.009409638471
-0.4571401661
-0.01105607863
0.4582327616
0.003291221526
0.006672261544
-0.2267934903
-0.003543250086
0.2264364011
0.003900339226
-0.2259576669
-0.005438924094
0.2248769595
0.006509251253
-0.2244048677
-0.010539679
0.222846585
0.01205161977
-0.2242518714
-0.01669655615
0.2227025337
0.01819667679
-0.2256175354
-0.02219225516
0.2245175659
0.02326482892
-0.228530323
-0.02534407301
0.2283080558
0.02557063239
-0.2320090842
-0.02466477189
0.2328822667
0.0238263962
-0.2342462399
-0.01997021925
0.2359188269
0.01834966415
-0.2340668508
-0.0130887866
0.2358472638
0.01134939994
-0.234509712
-0.002111482642
0.2386906501
-0.002067953195
-0.003193157385
-0.2318283301
0.2318355561
0.00318593139
-0.4615746947
-0.00467085833
0.4626929181
0.003552635008
-0.4605472538
-0.002431651604
0.4614496691
0.001529236292
0.002238027532
0.9192334719
-0.001036682048
-0.0008874728037
0.001605069518
0.9169054935
0.0007298813545
0.9158456806
0.9153262357
0.0003000942878
0.9121009895
0.0007246717118
0.9115765433
0.001459099749
0.9104691746
0.00203828222
0.9086052592
0.001143119122
-0.4552608437
0.4542478438
0.003051282124
-0.4538323327
-0.003770139221
0.4528311453
0.004771326696
-0.4516120943
-0.006098734262
0.4502740005
0.003854896415
0.003581931614
-0.2265591679
-0.00604484473
0.2243951047
0.008208523147
-0.2206248837
-0.01523589443
0.2206340125
0.01517042824
-0.2166993471
-0.01845621446
0.2143587351
0.02071425936
-0.216966171
-0.02740556036
0.2148231542
0.02948190612
-0.2203675204
-0.03504513748
0.2187517057
0.03663014137
-0.2271722842
-0.04012326418
0.2265765225
0.04072315276
-0.2358343128
-0.04022705679
0.237007436
0.03909394755
-0.2422538829
-0.03261234607
0.244858189
0.03008193605
-0.2498595416
-0.01518968885
0.2491392148
0.01598220495
-0.2381169041
-0.01182907156
0.2404896564
0.009498983823
-0.004639820357
-0.2331649069
0.2336755041
0.004129223084
-0.464234708
-0.005247321167
0.4656802656
0.003801763575
-0.4622746845
-0.002804127934
0.4631070677
0.001971744786
0.0028195561
0.9207258747
-0.002493127687
-0.001818831189
0.001477330344
0.9182477193
0.0006529481784
0.9166700628
0.9159791839
-8.36610009e-05
0.9121846505
6.882298746e-07
0.9114921941
0.0004656198224
0.910004243
0.0007588033689
0.9076621687
0.0006499069736
-0.453148879
0.4525925437
0.001315138703
-0.4519477539
-0.002563530451
0.4508231594
0.003688125046
-0.4488743757
-0.00469614103
0.4472910138
0.003147720333
0.003131782678
-0.2194858562
-0.004994378514
0.2176143479
0.00683757998
-0.2098116332
-0.01381259203
0.2071017836
0.01643438172
-0.2088232984
-0.0264572662
0.2046707277
0.03051292225
-0.2105006459
-0.03744756432
0.209848468
0.03804170325
-0.2138199096
-0.04200549907
0.2134092028
0.04240159019
-0.2238655352
-0.04753720499
0.2226981324
0.04870545551
-0.2417384823
-0.04651014695
0.2420870321
0.0461843169
-0.2586489136
-0.03553091871
0.2569608931
0.03728965806
-0.255256737
-0.03103272823
0.2588024697
0.02758407752
-0.2493062278
-0.01727442975
0.2526736048
0.0139865851
-0.005030641811
-0.2368356234
0.2383644739
0.003513479037
-0.4668881234
-0.005141625335
0.4680708015
0.003958947288
-0.4635305065
-0.003110811181
0.4638878839
0.002753433803
0.00203672878
0.9225176419
-0.001797146087
-0.002031349836
0.001028077487
0.9192563705
0.0003780676263
0.9173200727
0.9163572515
-0.0006605964526
0.9128452469
-0.001134133214
0.9119657309
-0.001344285771
0.9102143956
6.311747257e-05
0.9071037542
-0.0008489887093
-0.4522978706
0.451813357
0.0005476310435
-0.4494532122
-0.0009925991382
0.4488115845
0.001634226844
-0.4464272001
-0.002932057997
0.4455240198
0.001873045523
0.001962346527
-0.2118823761
-0.00485974313
0.2098809012
0.00681051257
-0.1983174167
-0.01381766148
0.1971795193
0.01484545355
-0.1969540379
-0.02183419427
0.1949703733
0.0237208839
-0.20182899
-0.02928766713
0.1995595012
0.03152361966
-0.2051303004
-0.04770819636
0.1038285358
0.09795986261
0.02335361615
0.02769648227
-0.03401608341
-0.1086835276
0.108119479
0.03458013201
-0.02743756229
-0.251882596
0.05172903701
-0.02781987038
0.1273131477
0.128097844
-0.04396488646
-0.2621150886
0.2652839387
0.04084310414
-0.2698890847
-0.02946303249
0.2723787717
0.02707703637
-0.2621817116
-0.01933645243
0.2656104704
0.01600153022
-0.007300380377
-0.2449055378
0.2472035736
0.005038656685
-0.4692097464
-0.003937141172
0.4697840848
0.003362802807
-0.4646784967
-0.00241117051
0.4654416794
0.001647987846
0.0006266209869
0.9236194495
-0.000731783979
-0.0009966446225
9.910653219e-05
0.919783885
-5.041639323e-05
0.9174695956
0.9163068351
-0.001303082624
0.9141483295
-0.002515826742
0.913178475
-0.003466251305
0.9111648201
-0.001721846945
0.9078638691
-0.002504519281
-0.4517214708
0.4516527158
-0.001653091878
-0.4484537924
0.001630296471
0.4482545925
-0.001431096564
-0.4435952816
0.001148108763
0.4425402666
-0.00010001208
3.72354852e-06
-0.204730508
-0.001915947831
0.2034606274
0.003122203927
-0.190381067
-0.007709916143
0.1886974017
0.009281926153
-0.1902307702
-0.01406179162
0.1887356395
0.01546800605
-0.1963915928
-0.01835135583
0.1959877217
0.01874465742
-0.08877906167
-0.01202054917
0.08848838194
0.0123112289
-0.0341129531
-0.1417708838
0.1447715735
0.03111226335
-0.0380786841
-0.2745524371
0.2777567777
0.03489798176
-0.2823446054
-0.02569680547
0.2854488521
0.02268656979
-0.2753588257
-0.01409143269
0.2781046921
0.01145196335
-0.006818645412
-0.2533401798
0.2554213902
0.004784402407
-0.4707144505
-0.001684959605
0.4714266327
0.0009727774207
-0.4660143868
-0.0005059627721
0.4664553953
6.495427987e-05
-0.001488430806
0.9238504056
0.000899858332
0.0003576164063
-0.001195910595
0.9194913648
-0.0006429345925
0.9169166196
0.9156639005
-0.001965197756
0.9161135273
-0.003846929214
0.9150602064
-0.005784469657
0.9131023606
-0.003372068482
0.9096238606
-0.004172392719
-0.4519197256
0.4521802829
-0.003632625772
-0.4483356691
0.003951207543
0.4486553987
-0.004270937116
-0.441973784
0.004593560947
0.4417284647
-0.001978518061
-0.002378493602
-0.199784212
0.0007232826589
0.1986840236
0.0003183868327
-0.1839020241
-0.004139923249
0.1824948774
0.005450379053
-0.1860015622
-0.008590819007
0.1853552858
0.009163701701
-0.1972209825
-0.008778299158
0.1981247966
0.007870539356
-0.09228331957
-0.001771899174
0.09300369907
0.001051519676
-0.01510243863
-0.1579444264
0.1584217347
0.01462513031
-0.02139605675
-0.2841722886
0.2850968649
0.02048319095
-0.2923027611
-0.01664388637
0.2939622748
0.01506259033
-0.285030462
-0.009650467536
0.2868894223
0.00788538814
-0.002941078447
-0.2600200618
0.2613968565
0.001614467871
-0.4723769868
0.001291969821
0.4731155965
-0.002030579448
-0.4665882864
0.002272011344
0.4665895131
-0.002273238107
-0.003980371141
0.9227936235
0.00275178488
0.002285368341
-0.002743502323
0.918254496
-0.001404299011
0.9155774163
0.9142596015
-0.002592542646
0.91870607
-0.005309044709
0.9177767085
-0.00799837085
0.9157916867
-0.005033152192
0.9124979725
-0.005839330531
-0.4527824843
0.4533872927
-0.005637960591
-0.4491638989
0.0063559545
0.4499980716
-0.007190127252
-0.4417468123
0.008050365483
0.4419188661
-0.003882689537
-0.004350309113
-0.1957568894
0.002844615265
0.1947962444
-0.001933997875
-0.178730522
-0.001326660827
0.1776004005
0.002377084945
-0.1840197002
-0.004502418684
0.1838013074
0.004662155927
-0.2014422002
-0.002871192664
0.2026674338
0.001644172678
-0.09684512136
0.001195576585
0.0972745788
-0.0007912264322
-0.0008338075821
0.003576434896
-0.1552501583
0.1541673127
-0.002493589365
-0.002655468527
-0.2855370728
0.2848360722
0.003367380077
-0.2977351116
-0.003396806696
0.2983402987
0.002860998875
-0.2911562359
-0.0004951821328
0.292092966
-0.0003576824686
0.002314931992
-0.2633212794
0.2637084779
-0.002656976347
-0.4728979375
0.005393863116
0.4722422982
-0.004738223822
-0.4662438421
0.004445431552
0.4664199925
-0.004621581887
-0.006676319412
0.9204236714
0.004822988625
0.004223282849
-0.004385746893
0.9159639235
-0.002210561814
0.9134022312
0.9120490397
-0.003283407824
0.9219894778
-0.006590105671
0.9210834064
-0.01011227333
0.9193138544
-0.006607704573
0.9163666703
-0.007373266528
-0.4543045606
0.4552257316
-0.00752887559
-0.4509936786
0.008652645569
0.4521300062
-0.009788973147
-0.4424065418
0.01110601515
0.4430150429
-0.005716973534
-0.006009504712
-0.1920376577
0.004515005669
0.1911382076
-0.003656290914
-0.1744808719
0.0006830067435
0.1735145058
0.0002208646834
-0.1835575118
-0.001728510483
0.1835969578
0.001644616249
-0.2063839089
0.0008624840045
0.207619907
-0.002098979064
-0.09983412916
0.002784211807
0.1001393815
-0.0015295135
-0.001559950666
0.01342741405
-0.1449074153
0.1434679716
-0.01198797037
0.01152749763
-0.282101696
0.2813773485
-0.01078723107
-0.299959209
0.01150616072
0.2975717585
-0.009055715603
-0.2935875474
0.008546033687
0.2934149389
-0.008302427672
0.007172787971
-0.2622090339
0.2616481355
-0.006577735981
-0.4712670433
0.009247097252
0.4700134269
-0.007993480847
-0.466475573
0.006860585928
0.4654368989
-0.005821911802
-0.009143325339
0.9169575937
0.00650876086
0.006100642213
-0.005961422168
0.9127820203
-0.002937505915
0.910378315
0.9091115338
-0.003892266164
0.925881744
-0.007851957276
0.9250430975
-0.01203436512
0.9234962622
-0.007983361336
0.9207414849
-0.00842581842
-0.4563905888
0.4575469337
-0.009139706211
-0.4535302052
0.01050056717
0.4550244461
-0.01199480808
-0.4433594703
0.01365315808
0.4445902707
-0.006815628699
-0.008081577405
-0.1884167456
0.005412523995
0.1874611194
-0.004486890219
-0.1707876188
0.001517968595
0.1699304375
-0.0007053126352
-0.1840628547
-0.0002966725434
0.1843614799
-3.25948377e-05
-0.2113542235
0.003421759365
0.2126218372
-0.004689391803
-0.1021712169
0.004159262723
0.1024716801
-0.002209745175
-0.002249980764
0.01665360501
-0.1337877129
0.1324077826
-0.01527367472
0.01984242401
-0.2789035881
0.2786494373
-0.01956762394
-0.2969482058
0.01543645999
0.3005737146
-0.01900975027
-0.291923171
0.01966396143
0.2911481133
-0.01882717885
0.01144395053
-0.2571089326
0.2551743945
-0.009486684595
-0.4685276842
0.0124446785
0.4668145233
-0.01073151753
-0.4643445527
0.009214984574
0.4630226945
-0.007893126313
-0.01133937104
0.9142037062
0.007268591935
0.006824666614
-0.007330287764
0.908772937
-0.003569971355
0.9066179986
0.9055415625
-0.008104453123
0.9339861971
-0.0164324671
0.9333711115
-0.02495597883
0.932019774
-0.00930972004
0.9298728632
-0.02477763703
-0.4589793543
0.4603844848
-0.0107148505
-0.4565887885
0.01229080248
0.4583647295
-0.0140667435
-0.4428133655
0.01589876314
0.440247208
-0.006311355803
-0.007028995613
-0.1851261191
0.00302891084
0.1832053753
-0.001121456989
-0.1674701718
0.0003470481265
0.1673485261
-0.0002507738027
-0.1856891902
0.001704058013
0.1844967918
-0.000530520505
-0.2165170567
0.004822982505
0.217864028
-0.003085558275
-0.003084395591
-0.05254991649
0.002708109883
0.0526493847
-0.002807578094
-0.05813863183
0.006266220781
0.05763785391
-0.01216590449
0.006400461625
0.01475413198
-0.1242600368
0.2447509355
-0.02533541623
0.01429692482
-0.1242065392
-0.2776176947
0.02515962661
0.2798618758
-0.02738032041
-0.2997380741
0.0252003838
0.2986463455
-0.02406494296
-0.2874973782
0.01980429667
0.2857633904
-0.01803201357
0.01191185862
-0.2465797146
0.2443401291
-0.009663500203
-0.464786918
0.01460304208
0.462762993
-0.012579117
-0.4616531612
0.01100559983
0.460184937
-0.009537375488
-0.01308017142
0.9102554585
0.008740220794
0.008288198393
-0.008445878968
0.9041386446
-0.004161029724
0.9023331494
0.9013805327
-0.004614618774
0.9386008159
-0.009376121318
0.938132614
-0.01443940857
0.9370830612
-0.009886740862
0.935424507
-0.01010431148
-0.4638465803
0.4653363737
-0.01137653429
-0.4619238782
0.01304326325
0.4637310039
-0.01485038894
-0.4395356616
0.01683345237
0.4443202829
-0.01028822384
-0.01134265609
-0.1795126758
0.01132619885
0.1796394981
-0.01146857475
-0.1646022145
0.01059762195
0.1639725522
-0.009988421233
-0.1888154223
0.007727208687
0.1879974509
-0.006921692705
-0.2223634856
0.005084099376
0.2236872072
-0.003213031127
-0.003194789866
-0.05501544571
0.005632046216
0.1104781707
-0.05499237786
-0.003049168723
-0.003053224577
-0.1116550792
0.008073945711
0.1114952683
-0.01573393668
0.007819801901
0.02415698868
-0.2378277621
0.237654418
-0.02398298968
-0.2806188997
0.0252770385
0.2812328334
-0.02587296486
-0.2948376288
0.0252758337
0.3001841717
-0.03059293806
-0.2798487879
0.02706193378
0.2735488747
-0.02073613783
0.01134458408
-0.2345134484
0.2325736841
-0.009403356826
-0.4609866764
0.01546755971
0.4593907355
-0.01387161877
-0.4587021551
0.01230606849
0.4569773495
-0.01058126282
-0.01256265246
0.9054739491
0.008606774511
0.008737387404
-0.009155510135
0.9007315023
-0.004487283146
0.8976649224
0.8968932496
-0.004795560393
0.9433963763
-0.009731432124
0.9430684858
-0.01495085643
0.9423024856
-0.01024525877
0.9410896607
-0.01037075141
-0.4669098329
0.4684722927
-0.01180771861
-0.4655418242
0.01349803049
0.4673420803
-0.01529828663
-0.4524083288
0.01724643196
0.4615821228
-0.01326796289
-0.01316238404
-0.1839085098
0.01993077658
0.1867699025
-0.02280666379
-0.1637708407
0.02867425742
0.1645678429
-0.02949301745
-0.1827873497
0.02789479613
0.18078346
-0.02590757233
-0.2205704623
0.01541487464
0.2156845475
-0.01053287785
-0.1137145892
0.008805473286
0.2276248917
-0.009028390533
-0.1136873853
-0.2252314755
0.01529243778
0.2257870209
-0.01584798312
-0.246522688
0.02565348501
0.2510007969
-0.03012821515
-0.2863812945
0.03748574376
0.28696736
-0.03805970707
-0.2967098718
0.03520761901
0.2945391251
-0.03302160942
-0.263274232
0.0240140236
0.2635274658
-0.02425613729
0.01156659746
-0.2308542475
0.2285341215
-0.009246471505
-0.4579684824
0.01720603878
0.454873268
-0.01411082434
-0.4552268596
0.01265117176
0.4532218051
-0.01064611729
-0.01296411105
0.9007750966
0.008909470253
0.008753493253
-0.009219747507
0.8969871388
-0.004696615184
0.8931417901
0.8921966344
-0.004844173813
0.9482405501
-0.009811951597
0.9480362636
-0.0150244022
0.9475149362
-0.0103080368
0.9466884281
-0.01031513275
-0.4700156058
0.471563042
-0.01185547294
-0.4691082385
0.01350017849
0.4708325
-0.01522443999
-0.4679969844
0.01705281202
0.4700687295
-0.009656805533
-0.009467898241
-0.2000402089
0.02143801545
0.2060162499
-0.02742371512
-0.1710281733
0.04280603402
0.1748286956
-0.04662656924
-0.1771799348
0.05290003649
0.177419153
-0.0531594152
-0.203826342
0.04914187305
0.2013898706
-0.04671833702
-0.2203706404
0.03936624715
0.2162141331
-0.03521545965
-0.236013233
0.04189498634
0.2388791774
-0.04476249894
-0.2622877755
0.05383709269
0.2645911858
-0.05613690274
-0.2865384131
0.057650485
0.2850768278
-0.05617965389
-0.2843809949
0.04626496631
0.2795929221
-0.04146672134
-0.2491234382
0.02450817022
0.2431162904
-0.01849709867
0.01108248026
-0.2266230342
0.2260251219
-0.01048456791
-0.4541505036
0.01760098182
0.4514758998
-0.01492637804
-0.4503895265
0.01154688585
0.448818127
-0.009975486339
-0.01217318565
0.894603422
0.009440617817
0.008904242506
-0.006826060452
0.8916400136
-0.004753690188
0.8910694198
0.8874429442
-0.004777823921
0.953018374
-0.00965854465
0.9529169843
-0.01473820692
0.9525945984
-0.01012126155
0.9520821395
-0.01001065675
-0.4730481812
0.4745206405
-0.01159372089
-0.4724961213
0.01314045685
0.4740954695
-0.01473980497
-0.4719259829
0.01640853751
0.4736765009
-0.009140514041
-0.0090185414
-0.2279088932
0.01019525206
0.234643731
-0.01693181531
-0.1916581226
0.04124141088
0.1989604162
-0.04855717847
-0.1839776993
0.06621778446
0.1881797703
-0.0704383594
-0.1998506889
0.07837986021
0.2011614122
-0.07970699252
-0.2058771171
0.07507795987
0.2051821964
-0.07439395171
-0.2430589585
0.08072081847
0.2431392121
-0.08080596327
-0.2653327624
0.079022405
0.2635779598
-0.07726669194
-0.2753624196
0.06721976978
0.2703314996
-0.06218391588
-0.2609204024
0.04279844223
0.2534325714
-0.03530605468
-0.2254473113
0.01278995607
0.2245406134
-0.01188315876
0.01032909741
-0.2244032792
0.2239032131
-0.009829031348
-0.4478038671
0.01672321717
0.4460791122
-0.01499846227
-0.4472550082
0.01335354898
0.4456642684
-0.0117628092
-0.01136840091
0.8875416983
0.01010914525
0.008320979291
-0.006436095281
0.886707708
-0.00439036358
0.8890236881
0.8830525807
-0.004620634348
0.9576390084
-0.009321502204
0.9576178522
-0.01417045712
0.9574435534
-0.009725474186
0.9571649895
-0.009527832991
-0.4759161711
0.4772835228
-0.01109282586
-0.475617564
0.01251183859
0.4770640418
-0.01395831641
-0.4753149571
0.01544331706
0.4768422571
-0.008561782605
-0.008408834425
-0.2372997587
0.009357088804
0.2377027127
-0.009760042799
-0.2244612788
0.01524631783
0.2335864462
-0.0243741323
-0.2060418645
0.04965326456
0.2133155542
-0.05693739588
-0.2079691344
0.07378553551
0.2106437678
-0.07647269543
-0.2121655598
0.08041041134
0.2156358662
-0.08389087206
-0.2403283275
0.08441363464
0.2386071351
-0.0826981117
-0.2532218611
0.07306837402
0.2484786766
-0.06832638315
-0.2509250835
0.04970334373
0.2434734938
-0.04225051021
-0.2286892995
0.01760325084
0.2234889172
-0.01240269265
-0.2231177391
0.01111666147
0.2227006406
-0.010699563
0.00945752274
-0.2225614584
0.222150228
-0.009046292417
-0.444466444
0.01556511739
0.4429652442
-0.01406391763
-0.4441848407
0.01260311745
0.4427485928
-0.01116686953
-0.01419807691
0.8824101816
0.009555173149
0.009774420555
-0.009325859014
0.8818354901
-0.001808757809
0.8815065869
0.8812438229
-0.004395364797
0.9620343732
-0.008848187282
0.9620706747
-0.0133994413
0.9619948074
-0.009180279507
0.9618730405
-0.008927212781
-0.4785680258
0.4798165533
-0.01042880698
-0.4784271079
0.01170833697
0.4797125547
-0.01299378382
-0.4782608377
0.01429179618
0.4795717923
-0.007878067394
-0.007724683344
-0.2388005582
0.008555038212
0.2391331589
-0.008887638908
-0.2380289507
0.009871411296
0.2383494922
-0.01019195282
-0.2362823749
0.01112948031
0.2373158081
-0.01216285427
-0.2203859695
0.02735760691
0.2244229312
-0.0313976244
-0.2240365112
0.04172459268
0.226061014
-0.0437529633
-0.2322169403
0.04244920426
0.2299680465
-0.0402026927
-0.2324471319
0.02846345688
0.2270680725
-0.02308493612
-0.2236620649
0.01214795936
0.2234265442
-0.01191243864
-0.2224482375
0.01110553358
0.2221523776
-0.01080967371
-0.2215942594
0.009868170145
0.2212682518
-0.009542162556
0.008547895359
-0.2210504497
0.220712657
-0.008210102613
-0.4415709089
0.0142631039
0.4402799139
-0.01297210889
-0.4414263289
0.01169335739
0.4401497979
-0.01041682633
-0.01334653189
0.8777048131
0.008890236954
0.009161663341
-0.008805669338
0.8772946275
-0.004371217029
0.8770721347
0.8768726058
-0.004123852872
0.9661582261
-0.008284575019
0.9662313968
-0.01249978679
0.9662100192
-0.008541181839
0.9661760523
-0.008261616728
-0.4809802314
0.4821086541
-0.009669604545
-0.480916293
0.01081037256
0.4820464784
-0.01194055794
-0.4807815306
0.0130645584
0.4818964283
-0.007155951897
-0.007023504267
-0.2400384165
0.007735989293
0.2403129255
-0.008010498292
-0.2392071595
0.008805996916
0.2394619978
-0.009060835235
-0.2380679412
0.009786861545
0.2382784003
-0.009997320588
-0.2269823975
0.01019156259
0.2269265272
-0.01013569232
-0.2286412017
0.01104263532
0.2287791826
-0.01118061621
-0.2272181595
0.01121848466
0.2271979823
-0.01119830741
-0.2247850781
0.01099836837
0.2246774409
-0.0108907312
-0.2228171381
0.01046066593
0.2226414644
-0.01028499228
-0.2213770896
0.009676292142
0.2211508655
-0.009450068035
-0.2203984935
0.008717946862
0.2201404318
-0.008459885109
0.007657342801
-0.2198104157
0.2195307213
-0.007377648335
-0.4390857127
0.01292729218
0.4379820998
-0.01182367925
-0.4389819011
0.01071298951
0.4378573122
-0.009588400626
-0.01237636605
0.8734412754
0.008172839702
0.008467064043
-0.008199966253
0.8731182278
-0.004080412823
0.8729525812
0.872792193
-0.003825916049
0.9699841421
-0.007671361507
0.9700768423
-0.01153568837
0.970074346
-0.007859732828
0.9700717328
-0.007571636043
-0.4831509545
0.4841628367
-0.008871615093
-0.4831010309
0.009881371556
0.4840889843
-0.01086932498
-0.4829230423
0.01183884323
0.4838670857
-0.006446326206
-0.006336560373
-0.2410606517
0.006944383711
0.2412879627
-0.007171694736
-0.2401467063
0.007819761037
0.240351321
-0.008024375719
-0.2388180566
0.008591604282
0.238972101
-0.008745648707
-0.2268178796
0.008850415436
0.2267970641
-0.008829599937
-0.2290774003
0.00956461381
0.2291494021
-0.009636615689
-0.227136918
0.009642710045
0.2271160263
-0.009621818426
-0.2243942571
0.009460516083
0.2243107995
-0.00937705856
-0.2221802247
0.009046556774
0.2220451806
-0.008911512646
-0.2205514845
0.008440282462
0.2203746585
-0.008263456427
-0.2194472813
0.007683912306
0.2192401766
-0.007476807529
0.006822543532
-0.2187874556
0.2185543727
-0.006589460571
-0.4369616634
0.01163117295
0.4360183103
-0.01068781986
-0.4368326593
0.009725831579
0.4358461695
-0.008739341826
-0.01135736742
0.8696108482
0.007445711739
0.007742082888
-0.007552872302
0.8693137326
-0.003766486189
0.8691661951
0.8690257068
-0.003517073754
0.9735012159
-0.007039733553
0.9735995021
-0.01055411107
0.9735887235
-0.007169744049
0.9735743954
-0.006887029619
-0.4850897927
0.4859916028
-0.00807155421
-0.4850091357
0.008961411563
0.4858703181
-0.009822593955
-0.4847379553
0.01065909093
0.4855419346
-0.00578213175
-0.005680938428
-0.2419080064
0.006202533999
0.2420968688
-0.006391396421
-0.2409045778
0.006923993781
0.2410709281
-0.007090344016
-0.2393712659
0.007540937765
0.2394861032
-0.0076557751
-0.2267745444
0.00771282879
0.2267793821
-0.007717666497
-0.2293089299
0.008317307739
0.2293475131
-0.008355890931
-0.2270520668
0.008339433104
0.2270304038
-0.008317770134
-0.2240864014
0.008181551646
0.2240190339
-0.00811418414
-0.2216855963
0.007851667504
0.2215788976
-0.007744968827
-0.2199014804
0.007371665157
0.2197605652
-0.007230749938
-0.218680241
0.006764611454
0.2185119122
-0.00659628266
0.006058104331
-0.2179381304
0.2177435907
-0.005863564675
-0.4351451578
0.01041172897
0.4343363595
-0.009602930713
-0.4349499533
0.008769885714
0.4340864367
-0.007906369093
-0.01033856565
0.8661881652
0.006738014978
0.007023233663
-0.006897584299
0.8658727513
-0.003446277858
0.8657148887
0.865579429
-0.003210343589
0.9767115595
-0.006415508522
0.9768046671
-0.009592674267
0.9767658893
-0.006498502062
0.9767087088
-0.006228485623
-0.4868125231
0.4876132756
-0.007299254621
-0.4866718576
0.008081812659
0.4874218208
-0.008831775877
-0.4862845231
0.00955311721
0.4869708405
-0.005166448598
-0.005072985999
-0.242613786
0.005522884549
0.2427718554
-0.005680953903
-0.2415236463
0.006123120556
0.2416606404
-0.006260114594
-0.2397855971
0.006622943353
0.2398722889
-0.006709635153
-0.226827558
0.006744725452
0.2268539567
-0.006771124134
-0.2294315703
0.007260596216
0.229451051
-0.007280077
-0.2269648859
0.007249019186
0.2269429891
-0.007227122386
-0.2238351971
0.00710913015
0.2237792921
-0.007053225117
-0.2212913445
0.006839230966
0.2212050563
-0.006752942778
-0.219380122
0.006451197293
0.2192658655
-0.006336940791
-0.2180539956
0.005956480512
0.2179155059
-0.005817990743
0.005371002725
-0.2172297262
0.2170663387
-0.005207615247
-0.4335864783
0.009290686691
0.4328912857
-0.008595494093
-0.4333029864
0.007872953504
0.4325470418
-0.007117008894
-0.009356799426
0.8631398422
0.006068651448
0.00633647097
-0.006259904356
0.8627758562
-0.003132982387
0.8625879667
0.8624464466
-0.002914417588
0.9796259771
-0.005815692099
0.9797059416
-0.008675456028
0.9796256532
-0.005861580199
0.9795044577
-0.005609624705
-0.4883384687
0.4890478683
-0.006570979871
-0.4881197424
0.007258481065
0.4887729728
-0.007911711489
-0.4876057045
0.008534487959
0.4881933561
-0.00460460807
-0.004517531494
-0.2432059744
0.004908390528
0.2433392744
-0.005041690559
-0.2420356787
0.005412483144
0.2421498461
-0.005526650509
-0.2400997142
0.00582200713
0.2401659781
-0.005888270996
-0.226960476
0.005916845917
0.2270041978
-0.005960567791
-0.2294901474
0.006360664334
0.2294978286
-0.006368345493
-0.2268775011
0.006327746366
0.2268558161
-0.006306061392
-0.2236251845
0.006202242136
0.2235778824
-0.006154940034
-0.220970289
0.005977032469
0.2208991925
-0.005905935954
-0.2189550947
0.005657903285
0.2188610682
-0.005563876848
-0.2175366736
0.005249298177
0.217421451
-0.005134075542
0.004759280558
-0.216634037
0.2164957242
-0.004620967823
-0.4322458101
0.008274388922
0.4316463572
-0.007674936053
-0.431861759
0.007046811657
0.4311993995
-0.006384452127
-0.008433866639
0.8604297845
0.005448867077
0.00569505729
-0.005655809088
0.8599977987
-0.002834891944
0.8597670496
0.8596115547
-0.002635605432
0.9822615825
-0.005252452713
0.9823227889
-0.007819216131
0.9821924166
-0.005269414744
0.9819938804
-0.005039224124
-0.4896877432
0.4903155252
-0.005897196829
-0.4893810766
0.006501185737
0.4899506454
-0.007070754563
-0.4887378494
0.007609624204
0.4892427535
-0.004096321372
-0.004018206907
-0.2437065124
0.00435643974
0.2438197186
-0.004469645925
-0.2424638469
0.004783398185
0.2425598846
-0.004879435874
-0.2403408767
0.005122020152
0.2403921946
-0.005173338094
-0.2271564036
0.00520408735
0.2272133729
-0.005261056651
-0.2295083395
0.005588856956
0.2295083136
-0.005588830999
-0.2267914561
0.005542073911
0.2267702722
-0.005520890071
-0.2234465648
0.005428567163
0.2234059815
-0.005387983892
-0.2207043486
0.00523788163
0.2206449158
-0.005178448776
-0.2186037822
0.00497181443
0.2185254568
-0.004893489051
-0.217104815
0.004630560765
0.2170080388
-0.004533784618
0.004216928573
-0.2161292205
0.2160113235
-0.004099031511
-0.4310886663
0.007364150623
0.4305696664
-0.006845150741
-0.4305991037
0.006297504487
0.4300177312
-0.005716131919
-0.007583625792
0.8580213501
0.00488509564
0.005106964517
-0.005095865913
0.8575100388
-0.002557606575
0.8572287903
0.8570539481
-0.002377444482
0.984639027
-0.004732378508
0.9846777229
-0.007032363515
0.9844924016
-0.004727716299
0.9842090154
-0.004519782138
-0.4908801039