/*--------------------------------*- C++ -*----------------------------------*\
| =========                 |                                                 |
| \\      /  F ield         | OpenFOAM: The Open Source CFD Toolbox           |
|  \\    /   O peration     | Version:  v1912                                 |
|   \\  /    A nd           | Website:  www.openfoam.com                      |
|    \\/     M anipulation  |                                                 |
\*---------------------------------------------------------------------------*/
FoamFile
{
    version     2.0;
    format      ascii;
    class       pointVectorField;
    location    "1";
    object      pointDisplacement;
}
// * * * * * * * * * * * * * * * * * * * * * * * * * * * * * * * * * * * * * //

dimensions      [0 1 0 0 0 0 0];


internalField   nonuniform List<vector> 
26316
(
(0 0 0)
(0 0 0)
(0 0 0)
(0 0 0)
(0 0 0)
(0 0 0)
(0 0 0)
(0 0 0)
(0 0 0)
(0 0 0)
(0 0 0)
(0 0 0)
(0 0 0)
(0 0 0)
(0 0 0)
(0 0 0)
(0 0 0)
(0 0 0)
(0 0 0)
(0 0 0)
(0 0 0)
(0 0 0)
(0 0 0)
(0 0 0)
(0 0 0)
(0 0 0)
(0 0 0)
(0 0 0)
(0 0 0)
(0 0 0)
(0 0 0)
(0 0 0)
(0 0 0)
(0 0 0)
(0 0 0)
(0 0 0)
(0 0 0)
(0 0 0)
(0 0 0)
(0 0 0)
(0 0 0)
(0 0 0)
(0 0 0)
(0 0 0)
(0 0 0)
(0 0 0)
(0 0 0)
(0 0 0)
(0 0 0)
(0 0 0)
(0 0 0)
(0 0 0)
(0 0 0)
(0 0 0)
(0 0 0)
(0 0 0)
(0 0 0)
(0 0 0)
(0 0 0)
(0 0 0)
(0 0 0)
(0 0 0)
(0 0 0)
(0 0 0)
(0 0 0)
(0 0 0)
(0 0 0)
(0 0 0)
(0 0 0)
(0 0 0)
(0 0 0)
(0 0 0)
(0 0 0)
(0 0 0)
(0 0 0)
(0 0 0)
(0 0 0)
(0 0 0)
(0 0 0)
(0 0 0)
(0 0 0)
(0 0 0)
(0 0 0)
(0 0 0)
(0 0 0)
(0 0 0)
(0 0 0)
(0 0 0)
(0 0 0)
(0 0 0)
(0 0 0)
(0 0 0)
(0 0 0)
(0 0 0)
(0 0 0)
(0 0 0)
(0 0 0)
(0 0 0)
(0 0 0)
(0 0 0)
(0 0 0)
(0 0 0)
(0 0 0)
(0 0 0)
(0 0 0)
(0 0 0)
(0 0 0)
(0 0 0)
(0 0 0)
(0 0 0)
(0 0 0)
(0 0 0)
(0 0 0)
(0 0 0)
(0 0 0)
(0 0 0)
(0 0 0)
(0 0 0)
(0 0 0)
(-8.113925465e-07 9.461740871e-07 2.775557562e-17)
(0 0 0)
(0 0 0)
(-4.471233654e-07 1.059759343e-05 3.330669074e-16)
(2.067469081e-06 9.009982307e-06 2.91433544e-16)
(0 0 0)
(0 0 0)
(0 0 0)
(0 0 0)
(0 0 0)
(0 0 0)
(0 0 0)
(0 0 0)
(0 0 0)
(0 0 0)
(0 0 0)
(0 0 0)
(0 0 0)
(0 0 0)
(0 0 0)
(0 0 0)
(0 0 0)
(0 0 0)
(0 0 0)
(0 0 0)
(0 0 0)
(0 0 0)
(0 0 0)
(0 0 0)
(0 0 0)
(0 0 0)
(0 0 0)
(0 0 0)
(0 0 0)
(0 0 0)
(0 0 0)
(0 0 0)
(0 0 0)
(0 0 0)
(0 0 0)
(0 0 0)
(0 0 0)
(0 0 0)
(0 0 0)
(0 0 0)
(0 0 0)
(0 0 0)
(0 0 0)
(0 0 0)
(0 0 0)
(0 0 0)
(0 0 0)
(0 0 0)
(0 0 0)
(0 0 0)
(0 0 0)
(0 0 0)
(0 0 0)
(0 0 0)
(0 0 0)
(0 0 0)
(0 0 0)
(0 0 0)
(0 0 0)
(0 0 0)
(0 0 0)
(-5.054793996e-05 -2.3713763e-07 4.996003611e-16)
(-0.0002908353474 -1.385471994e-06 3.080868893e-15)
(-3.804075239e-06 2.990867436e-07 4.163336342e-17)
(-0.0005517956272 6.001416151e-05 8.021361353e-15)
(-0.00136821286 -6.539905433e-06 1.992850329e-14)
(-0.001621411164 -7.968245751e-06 2.700617507e-14)
(-0.0007577214795 9.443650911e-05 1.257327575e-14)
(-0.0009178990268 0.0001996933385 2.647881914e-14)
(-0.001601130434 -1.314437883e-05 4.664324482e-14)
(-0.001328761345 -1.548235668e-05 5.154210392e-14)
(-0.000787688945 0.0002270807943 3.012867733e-14)
(-2.370331156e-05 0.0002631729071 3.524958103e-14)
(-1.668114875e-05 -2.438252736e-05 5.825895322e-14)
(0.000469203905 -2.654414711e-05 5.750955268e-14)
(0.0002694898257 0.0002580123303 3.466671394e-14)
(0.0008768481548 0.0001960322425 2.657596365e-14)
(0.001559602031 -2.682683242e-05 4.679590049e-14)
(0.001704063422 -2.40871278e-05 4.088396288e-14)
(0.0009203605425 0.000163984618 2.224609386e-14)
(0.0005396373036 5.996408789e-05 8.118505868e-15)
(0.001340859466 -1.161900328e-05 2.010891453e-14)
(0.001007842719 -7.421101749e-06 1.34336986e-14)
(0.0003150919156 3.116304394e-05 4.204969706e-15)
(0 0 0)
(5.303103491e-05 -2.603439743e-07 5.273559367e-16)
(0 0 0)
(0 0 0)
(0 0 0)
(0 0 0)
(0 0 0)
(0 0 0)
(0 0 0)
(0 0 0)
(0 0 0)
(0 0 0)
(0 0 0)
(0 0 0)
(0 0 0)
(0 0 0)
(0 0 0)
(0 0 0)
(0 0 0)
(0 0 0)
(0 0 0)
(0 0 0)
(0 0 0)
(0 0 0)
(0 0 0)
(0 0 0)
(0 0 0)
(0 0 0)
(0 0 0)
(0 0 0)
(0 0 0)
(0 0 0)
(0 0 0)
(0 0 0)
(0 0 0)
(0 0 0)
(0 0 0)
(0 0 0)
(0 0 0)
(0 0 0)
(0 0 0)
(0 0 0)
(0 0 0)
(0 0 0)
(0 0 0)
(0 0 0)
(0 0 0)
(0 0 0)
(-0.0001411708668 -3.318147977e-05 1.026956298e-15)
(-0.0007709339542 -0.0001928323348 6.022959909e-15)
(-0.00018266799 -3.448239232e-05 1.415534356e-15)
(-0.002601103007 -0.0006078618859 2.539635169e-14)
(-0.004155399927 -0.001288327934 4.06341627e-14)
(-0.005292449409 -0.001786645187 5.659361868e-14)
(-0.003571234153 -0.0009076791479 3.808064974e-14)
(-0.005515434878 -0.001923815825 8.146261443e-14)
(-0.007275925955 -0.003385447394 1.079969447e-13)
(-0.007288577553 -0.003892470514 1.242339565e-13)
(-0.005647666632 -0.002257301544 9.567346915e-14)
(-0.004333280023 -0.00310122517 1.309230502e-13)
(-0.005348070051 -0.005148230368 1.635497293e-13)
(-0.004157630792 -0.005445933632 1.724453913e-13)
(-0.003408558079 -0.003304613383 1.390554338e-13)
(0.0001546485747 -0.003610554899 1.499078639e-13)
(0.0002652275582 -0.0058914047 1.842415109e-13)
(0.001807039741 -0.005876690434 1.829647545e-13)
(0.001408378168 -0.003599239008 1.487282519e-13)
(0.004534298581 -0.003214942121 1.312006059e-13)
(0.005727933396 -0.005325418848 1.638550406e-13)
(0.006605259185 -0.004977771375 1.527389326e-13)
(0.005190556097 -0.002975988843 1.211114542e-13)
(0.005535131893 -0.002017179037 8.186507028e-14)
(0.007372016803 -0.003547757144 1.084965451e-13)
(0.00696196306 -0.002987374047 9.142686608e-14)
(0.005092234927 -0.00165247911 6.714073741e-14)
(0.002586126134 -0.0006280050348 2.571554081e-14)
(0.004139764801 -0.001333600619 4.107825191e-14)
(0.002923256689 -0.0008678350715 2.682576383e-14)
(0.001621931371 -0.0003627189378 1.490474411e-14)
(0 0 0)
(0.0001401630791 -3.359260219e-05 1.054711873e-15)
(0 0 0)
(0 0 0)
(0 0 0)
(0 0 0)
(0 0 0)
(0 0 0)
(0 0 0)
(0 0 0)
(0 0 0)
(0 0 0)
(0 0 0)
(0 0 0)
(0 0 0)
(0 0 0)
(0 0 0)
(0 0 0)
(0 0 0)
(0 0 0)
(0 0 0)
(0 0 0)
(0 0 0)
(0 0 0)
(0 0 0)
(0 0 0)
(0 0 0)
(0 0 0)
(0 0 0)
(0 0 0)
(0 0 0)
(0 0 0)
(0 0 0)
(0 0 0)
(0 0 0)
(0 0 0)
(0 0 0)
(0 0 0)
(0 0 0)
(0 0 0)
(0 0 0)
(-6.073938909e-05 -2.398349542e-05 3.60822483e-16)
(0 0 0)
(-0.002582900515 -0.001052613118 1.891542478e-14)
(-0.00383744636 -0.001783420046 2.808864252e-14)
(-0.005998824003 -0.002967353932 4.693467837e-14)
(-0.004407075702 -0.001911541525 3.44863027e-14)
(-0.0100230395 -0.005413223543 9.86849491e-14)
(-0.0121513149 -0.007498230662 1.198485755e-13)
(-0.01355242481 -0.009134102451 1.463551502e-13)
(-0.01141485716 -0.00672950281 1.230127111e-13)
(-0.01285058672 -0.01053327441 1.932204396e-13)
(-0.01462552948 -0.0137285168 2.205735594e-13)
(-0.01389970948 -0.01503142764 2.4133473e-13)
(-0.01233626496 -0.01164358718 2.134958876e-13)
(-0.008247379538 -0.01422094932 2.592093207e-13)
(-0.009081159036 -0.01797093782 2.867428517e-13)
(-0.006838881457 -0.01860970564 2.960270917e-13)
(-0.006248199664 -0.01479805115 2.688821388e-13)
(0.0006429523108 -0.01565442664 2.812750033e-13)
(0.0007385924354 -0.01955162717 3.076705557e-13)
(0.003321753951 -0.01954822102 3.064631882e-13)
(0.003002074243 -0.01564304055 2.799704912e-13)
(0.009299159749 -0.01466230355 2.595840209e-13)
(0.01032665769 -0.01850905468 2.87117552e-13)
(0.01217771982 -0.01777988523 2.750022432e-13)
(0.01090464938 -0.01400101934 2.471634009e-13)
(0.01334341554 -0.01103946123 1.939282068e-13)
(0.01527005467 -0.01437417334 2.211564265e-13)
(0.01529622331 -0.01287809832 1.980637876e-13)
(0.01322100581 -0.009778553642 1.717515019e-13)
(0.01003693965 -0.005599453283 9.869882689e-14)
(0.0125181634 -0.007962816251 1.224437218e-13)
(0.01077479049 -0.006342153385 9.747758156e-14)
(0.008535068709 -0.00439753467 7.749356712e-14)
(0.002950429758 -0.001235194083 2.18575158e-14)
(0.004410900991 -0.002107963327 3.265443471e-14)
(0.002487605198 -0.001117417167 1.734723476e-14)
(0.001421248992 -0.0005592826807 9.922618283e-15)
(0 0 0)
(0 0 0)
(0 0 0)
(0 0 0)
(0 0 0)
(0 0 0)
(0 0 0)
(0 0 0)
(0 0 0)
(0 0 0)
(0 0 0)
(0 0 0)
(0 0 0)
(0 0 0)
(0 0 0)
(0 0 0)
(0 0 0)
(0 0 0)
(0 0 0)
(0 0 0)
(0 0 0)
(0 0 0)
(0 0 0)
(0 0 0)
(0 0 0)
(0 0 0)
(0 0 0)
(0 0 0)
(0 0 0)
(0 0 0)
(0 0 0)
(0 0 0)
(0 0 0)
(0 0 0)
(0 0 0)
(-0.0002807233562 -0.0001444130465 1.637578961e-15)
(-0.0006383732093 -0.0003578754733 3.73312492e-15)
(-0.002266763498 -0.001335217634 1.393329896e-14)
(-0.001524098106 -0.0008239683138 9.36750677e-15)
(-0.008939527081 -0.005701529281 6.536438057e-14)
(-0.01057312738 -0.007347255408 7.734091145e-14)
(-0.01361392122 -0.01007322508 1.063593658e-13)
(-0.01180592477 -0.008016499254 9.22040222e-14)
(-0.0185468148 -0.01570181048 1.823263762e-13)
(-0.02047759046 -0.01891491741 2.011862898e-13)
(-0.02153648697 -0.02172500274 2.314676228e-13)
(-0.01968967223 -0.01820371321 2.119554532e-13)
(-0.01927770564 -0.02486006707 2.9051761e-13)
(-0.02047633544 -0.02872586546 3.07323611e-13)
(-0.01882555184 -0.0304212239 3.25309224e-13)
(-0.01778412355 -0.02642056019 3.084477118e-13)
(-0.01093771463 -0.02969457314 3.445993491e-13)
(-0.01133124723 -0.03330432686 3.541333893e-13)
(-0.008376713011 -0.03370641479 3.574918139e-13)
(-0.008128767641 -0.03025798151 3.50164342e-13)
(0.0007821617413 -0.03102179035 3.557154571e-13)
(0.0007077456289 -0.03417511494 3.593930709e-13)
(0.003747828006 -0.03427212247 3.593514375e-13)
(0.003782317668 -0.03107872389 3.552436123e-13)
(0.01248047586 -0.03050287194 3.45320994e-13)
(0.01279572315 -0.03413953332 3.546052341e-13)
(0.01553458691 -0.0336786691 3.487626854e-13)
(0.01503637817 -0.02987557233 3.371747326e-13)
(0.02031269777 -0.02599211875 2.911559882e-13)
(0.02158890043 -0.03007127045 3.083922007e-13)
(0.02257559441 -0.02816658217 2.880196082e-13)
(0.02101800532 -0.02405833775 2.686184608e-13)
(0.01929555217 -0.01681475951 1.875166689e-13)
(0.02126633765 -0.02019496231 2.065292382e-13)
(0.01945025347 -0.01708929635 1.750405376e-13)
(0.01744360349 -0.01406241849 1.570826802e-13)
(0.009467882953 -0.006206598157 6.987466161e-14)
(0.01116168877 -0.007978142751 8.232303728e-14)
(0.008040723388 -0.005404521111 5.592748487e-14)
(0.006586922134 -0.004059882581 4.583833313e-14)
(0.0004343171027 -0.0002268471431 2.581268532e-15)
(0.0007461513322 -0.000425152468 4.427014311e-15)
(1.894009302e-05 -1.027578506e-05 1.110223025e-16)
(0 0 0)
(0 0 0)
(0 0 0)
(0 0 0)
(0 0 0)
(0 0 0)
(0 0 0)
(0 0 0)
(0 0 0)
(0 0 0)
(0 0 0)
(0 0 0)
(0 0 0)
(0 0 0)
(0 0 0)
(0 0 0)
(0 0 0)
(0 0 0)
(0 0 0)
(0 0 0)
(0 0 0)
(0 0 0)
(0 0 0)
(0 0 0)
(0 0 0)
(0 0 0)
(0 0 0)
(0 0 0)
(0 0 0)
(-2.672062163e-05 -1.927888397e-05 1.387778781e-16)
(-7.291336088e-07 -4.952515664e-07 1.387778781e-17)
(0 0 0)
(-0.002003862067 -0.001400769375 1.171285291e-14)
(-0.002529122699 -0.001884468437 1.476596623e-14)
(-0.005245281537 -0.004105449051 3.225197887e-14)
(-0.004475243269 -0.003286363494 2.751965322e-14)
(-0.01450465356 -0.0125653621 1.060540544e-13)
(-0.01578822527 -0.01457728529 1.154076834e-13)
(-0.01915932232 -0.0188365784 1.495192858e-13)
(-0.01815011306 -0.01674048668 1.417338469e-13)
(-0.02498412968 -0.02876482733 2.449429548e-13)
(-0.02602497044 -0.03192338095 2.547961842e-13)
(-0.02666805495 -0.03570920488 2.851885395e-13)
(-0.02572400778 -0.03233970124 2.755851103e-13)
(-0.02305316213 -0.04009148192 3.412825578e-13)
(-0.02356082048 -0.04357732512 3.474304178e-13)
(-0.02114396749 -0.04476893149 3.564371021e-13)
(-0.02081891653 -0.04149226549 3.529260217e-13)
(-0.01195429977 -0.04237507216 0)
(-0.01217319445 -0.04531943974 0)
(-0.01064076599 -0.04534387006 0)
(-0.00902381414 -0.0453044245 0)
(-0.008901896998 -0.0438473505 0)
(-0.00884066904 -0.04242369309 0)
(0.0004228671142 -0.04267321302 0)
(0.000375784738 -0.04408931157 0)
(0.00192721566 -0.04413965092 0)
(0.001965891469 -0.04272340618 0)
(0.01289417021 -0.04320404128 0)
(0.01289211536 -0.0446599828 0)
(0.01290031465 -0.04613882285 0)
(0.0144421191 -0.04623462306 0)
(0.01596245254 -0.04630164573 0)
(0.01599240547 -0.04337874371 0)
(0.0239983382 -0.04184119484 3.436417817e-13)
(0.0243424284 -0.04534049996 3.494982082e-13)
(0.0261645245 -0.0435884041 3.354816425e-13)
(0.02562198135 -0.03997404063 3.278488592e-13)
(0.02581037336 -0.03060516959 2.507716257e-13)
(0.02672714357 -0.03382550912 2.598476989e-13)
(0.02535284569 -0.029687049 2.281785871e-13)
(0.02421080642 -0.02656433882 2.178396352e-13)
(0.01558916047 -0.01392990746 1.148248163e-13)
(0.01704834522 -0.0162483252 1.255523463e-13)
(0.01342609582 -0.01203400239 9.321710071e-14)
(0.01209237525 -0.01016252148 8.398837181e-14)
(0.002689801182 -0.001914553985 1.59317004e-14)
(0.0033622338 -0.002552015827 1.99146255e-14)
(0.001204368705 -0.0008697243091 6.800116026e-15)
(0.0008194226267 -0.0005549586241 4.62130334e-15)
(0 0 0)
(0 0 0)
(0 0 0)
(0 0 0)
(0 0 0)
(0 0 0)
(0 0 0)
(0 0 0)
(0 0 0)
(0 0 0)
(0 0 0)
(0 0 0)
(0 0 0)
(0 0 0)
(0 0 0)
(0 0 0)
(0 0 0)
(0 0 0)
(0 0 0)
(0 0 0)
(0 0 0)
(0 0 0)
(0 0 0)
(0 0 0)
(0 0 0)
(0 0 0)
(0 0 0)
(0 0 0)
(-0.000240765462 -0.000214454974 1.276756478e-15)
(-0.0001372056492 -0.0001164020304 7.21644966e-16)
(-0.0001122461856 -9.048406776e-05 5.828670879e-16)
(-0.003633993954 -0.003212264812 2.121913756e-14)
(-0.003768918378 -0.003505840579 2.199629368e-14)
(-0.006976925673 -0.006816296834 4.285460875e-14)
(-0.006792270824 -0.00630610833 4.173050794e-14)
(-0.01824734417 -0.01997508206 1.331157407e-13)
(-0.01854292876 -0.02135672226 1.35183531e-13)
(-0.02206555982 -0.02705183368 1.715849685e-13)
(-0.02174821049 -0.02534365168 1.692812557e-13)
(-0.0281601756 -0.04087994233 2.741695759e-13)
(-0.02846952083 -0.0434517878 2.766675777e-13)
(-0.02882073411 -0.04795581788 3.054223541e-13)
(-0.02853633244 -0.04517791363 3.030908857e-13)
(-0.02440547741 -0.05311377507 3.555766792e-13)
(-0.02456037882 -0.05609749511 3.564371021e-13)
(-0.02173680448 -0.0566551897 0)
(-0.02163709529 -0.05377235083 3.594069486e-13)
(-0.01256473074 -0.05403992142 0)
(-0.01262168798 -0.05550084228 0)
(-0.0111104555 -0.05554220479 0)
(-0.01105370717 -0.05408358126 0)
(0.01271247826 -0.0548349687 0)
(0.01267309021 -0.0562822832 0)
(0.01418343628 -0.05633836548 0)
(0.01422434388 -0.05489324577 0)
(0.0246888542 -0.0550281822 3.576583474e-13)
(0.02465672226 -0.05802250088 3.585187702e-13)
(0.02710332024 -0.0569314143 3.512190538e-13)
(0.02703568237 -0.05381594815 3.492206524e-13)
(0.02926494145 -0.04409363166 2.856881398e-13)
(0.0295889509 -0.04698773222 2.894212647e-13)
(0.02855586842 -0.04190792379 2.582656311e-13)
(0.02817273759 -0.03924027491 2.543937283e-13)
(0.02000093065 -0.0226392917 1.474653732e-13)
(0.02044557837 -0.0243698992 1.508654313e-13)
(0.01659775313 -0.01859972312 1.153799278e-13)
(0.01617465463 -0.01721387073 1.123823257e-13)
(0.004878183483 -0.004394620792 2.887967643e-14)
(0.005508505253 -0.005226066888 3.261280135e-14)
(0.002626859457 -0.002370466199 1.482147738e-14)
(0.00216247586 -0.001853127404 1.219857548e-14)
(0 0 0)
(0 0 0)
(0 0 0)
(0 0 0)
(0 0 0)
(0 0 0)
(0 0 0)
(0 0 0)
(0 0 0)
(0 0 0)
(0 0 0)
(0 0 0)
(0 0 0)
(0 0 0)
(0 0 0)
(0 0 0)
(0 0 0)
(0 0 0)
(0 0 0)
(0 0 0)
(0 0 0)
(0 0 0)
(0 0 0)
(0 0 0)
(0 0 0)
(0 0 0)
(0 0 0)
(0 0 0)
(-0.000395234045 -0.0004188184195 2.109423747e-15)
(-0.0003569742974 -0.0003632152819 1.90125693e-15)
(-0.0003131671284 -0.0003054191575 1.665334537e-15)
(-0.004478579262 -0.004787932433 2.613187444e-14)
(-0.004631221899 -0.005165449524 2.703393065e-14)
(-0.008075989159 -0.009459524486 4.957145805e-14)
(-0.007884609409 -0.008852573123 4.840572387e-14)
(-0.01971556744 -0.02608038893 1.434408148e-13)
(-0.01995928363 -0.02753635055 1.451200271e-13)
(-0.02346457866 -0.0344374163 1.817990203e-13)
(-0.02322226466 -0.03268437499 1.800920524e-13)
(-0.02936770973 -0.05134288666 2.837868829e-13)
(-0.02956776536 -0.05385997498 2.851885395e-13)
(-0.02976852494 -0.05903226274 3.126110482e-13)
(-0.02959057282 -0.05633840696 3.11445314e-13)
(-0.02493149379 -0.06487813383 3.578248808e-13)
(-0.02503696294 -0.06776600898 3.580469254e-13)
(-0.02210950948 -0.06812202051 0)
(-0.02201835934 -0.06526238797 0)
(-0.0129613798 -0.06556052261 0)
(-0.01300784943 -0.06699130443 0)
(-0.01150066551 -0.06704070672 0)
(-0.01145399705 -0.06560993149 0)
(0.01236376394 -0.06638062344 0)
(0.01231635234 -0.06781980022 0)
(0.01382322279 -0.06787065176 0)
(0.01387087531 -0.0664322128 0)
(0.02443008985 -0.06678127039 3.593514375e-13)
(0.02433429895 -0.06966052041 3.594069486e-13)
(0.02704107789 -0.0689496807 3.552713679e-13)
(0.02709632188 -0.0660103709 3.547301342e-13)
(0.03039602423 -0.05577319615 2.992051051e-13)
(0.03051251134 -0.05852361631 3.010508509e-13)
(0.02980611744 -0.05276534724 2.715189185e-13)
(0.02962839121 -0.0501940645 2.693817391e-13)
(0.02204029177 -0.03026752058 1.630362512e-13)
(0.02235115326 -0.03205019383 1.655064974e-13)
(0.01855210555 -0.0249953408 1.293132268e-13)
(0.01822504849 -0.02351944421 1.269262473e-13)
(0.006315554146 -0.006891759856 3.741451593e-14)
(0.006571872351 -0.00748488161 3.894107259e-14)
(0.00338904229 -0.003670594529 1.913746939e-14)
(0.003195067988 -0.003315808697 1.802724636e-14)
(0 0 0)
(0 0 0)
(0 0 0)
(0 0 0)
(0 0 0)
(0 0 0)
(0 0 0)
(0 0 0)
(0 0 0)
(0 0 0)
(0 0 0)
(0 0 0)
(0 0 0)
(0 0 0)
(0 0 0)
(0 0 0)
(0 0 0)
(0 0 0)
(0 0 0)
(0 0 0)
(0 0 0)
(0 0 0)
(0 0 0)
(0 0 0)
(0 0 0)
(0 0 0)
(0 0 0)
(0 0 0)
(-0.0005830367478 -0.0007161403349 3.094746681e-15)
(-0.0005256427944 -0.0006234786346 2.803313137e-15)
(-0.0004745427634 -0.0005428755528 2.525757381e-15)
(-0.005011487939 -0.006284156054 2.922662112e-14)
(-0.005165530989 -0.006715576948 3.012867733e-14)
(-0.008739852627 -0.01192973265 5.359601651e-14)
(-0.008549749199 -0.01125699978 5.244416013e-14)
(-0.02056406755 -0.03185869077 1.492000967e-13)
(-0.02080208583 -0.03339792831 1.508099201e-13)
(-0.02430631789 -0.04148222336 1.875999356e-13)
(-0.02406998793 -0.03964690128 1.859484788e-13)
(-0.03008682206 -0.06135936578 2.885469641e-13)
(-0.03028148105 -0.06393452411 2.898514762e-13)
(-0.03041179265 -0.06980186094 3.164690732e-13)
(-0.03023894884 -0.06706389705 3.153866057e-13)
(-0.02533781775 -0.07639444029 3.585048924e-13)
(-0.02543802266 -0.07927417172 3.586714259e-13)
(-0.02246893778 -0.0795366379 0)
(-0.02237956262 -0.07668451016 0)
(-0.01332847277 -0.07698218402 0)
(-0.01337389613 -0.07840742731 0)
(-0.01186875575 -0.07845643006 0)
(-0.01184590932 -0.07774374654 0)
(-0.01182308268 -0.07703165949 0)
(0.01196832006 -0.07788089574 0)
(0.01191671458 -0.07931449284 0)
(0.01342194103 -0.07936290132 0)
(0.01347372994 -0.07792977473 0)
(0.02402539497 -0.0782629399 3.593791931e-13)
(0.02391650227 -0.08110873813 3.593098041e-13)
(0.02657616466 -0.08009401088 3.544387006e-13)
(0.02671318953 -0.07737735633 3.549105454e-13)
(0.0301709442 -0.06545759887 2.998157278e-13)
(0.0299888777 -0.06759436562 2.987332604e-13)
(0.02928729379 -0.06083743543 2.689515277e-13)
(0.02947174428 -0.05895075976 2.701033841e-13)
(0.02205882059 -0.03564918264 1.638550406e-13)
(0.02189710904 -0.03671748321 1.628280843e-13)
(0.01813327845 -0.02854781638 1.267874694e-13)
(0.01827979159 -0.02774154263 1.277172812e-13)
(0.006392720567 -0.008193728632 3.791411629e-14)
(0.006308706414 -0.00838571253 3.742839372e-14)
(0.003196381339 -0.004039762344 1.805500194e-14)
(0.003255517584 -0.003967625426 1.838806885e-14)
(0 0 0)
(0 0 0)
(0 0 0)
(0 0 0)
(0 0 0)
(0 0 0)
(0 0 0)
(0 0 0)
(0 0 0)
(0 0 0)
(0 0 0)
(0 0 0)
(0 0 0)
(0 0 0)
(0 0 0)
(0 0 0)
(0 0 0)
(0 0 0)
(0 0 0)
(0 0 0)
(0 0 0)
(0 0 0)
(0 0 0)
(0 0 0)
(0 0 0)
(0 0 0)
(0 0 0)
(0 0 0)
(-0.0008349903264 -0.001166476285 4.440892099e-15)
(-0.0007667354534 -0.001038798672 4.080069615e-15)
(-0.0007007214078 -0.000919809527 3.719247132e-15)
(-0.005647412735 -0.008122995894 3.293199047e-14)
(-0.00581726823 -0.008635113053 3.39173134e-14)
(-0.009535929956 -0.01485682977 5.842548667e-14)
(-0.009329733998 -0.01408605752 5.717648577e-14)
(-0.02153223292 -0.03819101128 1.557365348e-13)
(-0.02178449515 -0.03985398926 1.574296249e-13)
(-0.02527867407 -0.04911940022 1.942890293e-13)
(-0.02502955409 -0.04716188606 1.925681836e-13)
(-0.03087249476 -0.07178889413 2.937788901e-13)
(-0.03107375358 -0.07445329226 2.950972799e-13)
(-0.03111091182 -0.08092493932 3.207573096e-13)
(-0.03093414174 -0.07811724138 3.196748422e-13)
(-0.0257321738 -0.08791224546 3.59060004e-13)
(-0.02582789359 -0.09078859246 3.591571485e-13)
(-0.02282360966 -0.09095187751 0)
(-0.02273543875 -0.08809805111 0)
(-0.01368990283 -0.08839514264 0)
(-0.01373450859 -0.08982174001 0)
(-0.01223195514 -0.08987072329 0)
(-0.01220948657 -0.0891574301 0)
(-0.01218695613 -0.08844427167 0)
(0.01154482097 -0.08933286477 0)
(0.01148917239 -0.09076433731 0)
(0.01299299135 -0.09081117308 0)
(0.01304895812 -0.08938010919 0)
(0.0235386476 -0.08947533393 3.584771369e-13)
(0.02338304759 -0.09213885233 3.577554919e-13)
(0.02577337053 -0.08999490356 3.491373857e-13)
(0.02602473376 -0.08772874943 3.511774205e-13)
(0.02885675696 -0.07239166956 2.894906537e-13)
(0.02823151117 -0.07322480365 2.838562718e-13)
(0.02746203355 -0.065540519 2.541439281e-13)
(0.02797676527 -0.06459755641 2.584321646e-13)
(0.02026817564 -0.03767155609 1.51142987e-13)
(0.01975127727 -0.03790951587 1.474237399e-13)
(0.016028597 -0.02886195712 1.123962035e-13)
(0.01650881761 -0.02879155037 1.156852392e-13)
(0.005155789169 -0.007586100104 3.06143999e-14)
(0.004878834344 -0.007409775572 2.897682094e-14)
(0.002169662731 -0.003133077757 1.226796442e-14)
(0.002355372577 -0.003295177933 1.330879851e-14)
(0 0 0)
(0 0 0)
(0 0 0)
(0 0 0)
(0 0 0)
(0 0 0)
(0 0 0)
(0 0 0)
(0 0 0)
(0 0 0)
(0 0 0)
(0 0 0)
(0 0 0)
(0 0 0)
(0 0 0)
(0 0 0)
(0 0 0)
(0 0 0)
(0 0 0)
(0 0 0)
(0 0 0)
(0 0 0)
(0 0 0)
(0 0 0)
(0 0 0)
(0 0 0)
(0 0 0)
(0 0 0)
(-0.001055387102 -0.001652281916 5.606626274e-15)
(-0.001091436488 -0.001662654246 5.800915304e-15)
(-0.0009963035098 -0.001475779133 5.287437155e-15)
(-0.006372774056 -0.01033815764 3.713696017e-14)
(-0.006590056361 -0.01099279097 3.839983886e-14)
(-0.01046342213 -0.0183115831 6.403211295e-14)
(-0.01020434532 -0.01736929544 6.247780071e-14)
(-0.02259011078 -0.04508848004 1.628280843e-13)
(-0.02289640774 -0.04696253851 1.648958747e-13)
(-0.02637023315 -0.05739767965 2.017552792e-13)
(-0.02607099923 -0.05523284081 1.997013666e-13)
(-0.0317027201 -0.08261510309 2.992467385e-13)
(-0.03193286009 -0.08542524169 3.007871729e-13)
(-0.03185511402 -0.09239613297 3.253231018e-13)
(-0.03165818984 -0.08947671766 3.241018565e-13)
(-0.0261077112 -0.09939874316 3.593653153e-13)
(-0.02619866365 -0.1022615028 3.594069486e-13)
(-0.02317399407 -0.1023638756 0)
(-0.02308644163 -0.09951069217 0)
(-0.01404239486 -0.09980667272 0)
(-0.01408573699 -0.1012331793 0)
(-0.01258602238 -0.1012817367 0)
(-0.01256420997 -0.1005682227 0)
(-0.01254234887 -0.09985524108 0)
(0.01108955185 -0.1007565108 0)
(0.01102988404 -0.1021831393 0)
(0.01253321237 -0.1022287645 0)
(0.01259334411 -0.1008021514 0)
(0.02281800205 -0.09961513669 3.540640003e-13)
(0.02257706282 -0.1018204981 3.5199621e-13)
(0.02457890026 -0.09787717467 3.381461777e-13)
(0.02493396929 -0.0962104455 3.417405248e-13)
(0.02647360656 -0.07544008977 2.678690603e-13)
(0.02600624929 -0.07635057351 2.637057239e-13)
(0.02469920253 -0.06658504198 2.300659663e-13)
(0.02549543 -0.06676212328 2.371297603e-13)
(0.01744048796 -0.0366337084 1.30478961e-13)
(0.01634527022 -0.03531055278 1.223465773e-13)
(0.01268449006 -0.02569294032 8.91231533e-14)
(0.01378279198 -0.0271482004 9.681144775e-14)
(0.003461381484 -0.005747944513 2.056688153e-14)
(0.003022992146 -0.005162826946 1.795785742e-14)
(0.0009820629122 -0.00159504366 5.551115123e-15)
(0.00123607434 -0.001951916054 6.994405055e-15)
(0 0 0)
(0 0 0)
(0 0 0)
(0 0 0)
(0 0 0)
(0 0 0)
(0 0 0)
(0 0 0)
(0 0 0)
(0 0 0)
(0 0 0)
(0 0 0)
(0 0 0)
(0 0 0)
(0 0 0)
(0 0 0)
(0 0 0)
(0 0 0)
(0 0 0)
(0 0 0)
(0 0 0)
(0 0 0)
(0 0 0)
(0 0 0)
(0 0 0)
(0 0 0)
(0 0 0)
(0 0 0)
(-0.001876653603 -0.003253188917 9.964251646e-15)
(-0.001710858836 -0.00289371338 9.076073226e-15)
(-0.001464143886 -0.002415106139 7.771561172e-15)
(-0.007288753719 -0.0131582856 4.243827512e-14)
(-0.007832301669 -0.01449397596 4.558853295e-14)
(-0.01188720155 -0.02306652401 7.26224636e-14)
(-0.01122079653 -0.0212452353 6.858402735e-14)
(-0.0239312978 -0.05301508907 1.718070131e-13)
(-0.02438567072 -0.05534256411 1.74887882e-13)
(-0.02775497951 -0.06678554384 2.11247686e-13)
(-0.02737408529 -0.06430882184 2.086386619e-13)
(-0.03268212699 -0.09413434133 3.058664433e-13)
(-0.03282280028 -0.09677033278 3.065325771e-13)
(-0.0327074838 -0.1044125006 3.307215612e-13)
(-0.03248609562 -0.1013604059 3.293199047e-13)
(-0.0264677297 -0.1108223419 0)
(-0.02655918358 -0.1136751305 0)
(-0.0235299613 -0.1137741625 0)
(-0.02348451595 -0.1123482564 0)
(-0.02343946385 -0.1109222047 0)
(-0.01438592874 -0.1112181682 0)
(-0.0144073702 -0.1119305003 0)
(-0.01365730527 -0.1119545205 0)
(-0.01363593668 -0.111242385 0)
(-0.001378766925 -0.1118189891 0)
(-0.001398817357 -0.1121739499 0)
(-0.001416481429 -0.1125290562 0)
(-0.000681858711 -0.1125450668 0)
(-0.00064302849 -0.1118355675 0)
(0.01057950641 -0.1121513359 0)
(0.01050903479 -0.1135716347 0)
(0.01043797988 -0.114991516 0)
(0.01345348444 -0.1150840552 0)
(0.01359180966 -0.1122423756 0)
(0.01208621698 -0.112197007 0)
(0.02171353338 -0.107462357 3.433364704e-13)
(0.021310111 -0.1086068841 3.384514891e-13)
(0.02279627139 -0.1021469882 3.181899189e-13)
(0.02342117735 -0.1020325157 3.258227022e-13)
(0.02375977696 -0.07583399237 2.421673972e-13)
(0.02289658835 -0.07502107076 2.337019467e-13)
(0.02127641693 -0.06391307228 1.992017662e-13)
(0.02217846661 -0.06491986521 2.074174166e-13)
(0.01354409443 -0.03169264478 1.015160178e-13)
(0.01272844135 -0.03054691996 9.545142454e-14)
(0.009319785083 -0.02096326789 6.55586696e-14)
(0.0100384242 -0.02201720832 7.059630658e-14)
(0.001429647811 -0.002643811257 8.493206138e-15)
(0.001162200202 -0.002204300977 6.911138328e-15)
(9.216021771e-05 -0.0001663156803 5.134781489e-16)
(0.000176075946 -0.000309787132 9.992007222e-16)
(0 0 0)
(0 0 0)
(0 0 0)
(0 0 0)
(0 0 0)
(0 0 0)
(0 0 0)
(0 0 0)
(0 0 0)
(0 0 0)
(0 0 0)
(0 0 0)
(0 0 0)
(0 0 0)
(0 0 0)
(0 0 0)
(0 0 0)
(0 0 0)
(0 0 0)
(0 0 0)
(0 0 0)
(0 0 0)
(0 0 0)
(0 0 0)
(0 0 0)
(0 0 0)
(0 0 0)
(0 0 0)
(-0.001779778739 -0.003401151103 9.492406861e-15)
(-0.002011350479 -0.003758007567 1.072752998e-14)
(-0.002149260685 -0.003924436527 1.146305273e-14)
(-0.008677867754 -0.01733246124 5.070943665e-14)
(-0.00839925617 -0.01716573883 4.907185769e-14)
(-0.01254008274 -0.0268669651 7.691070003e-14)
(-0.01287350252 -0.02695654286 7.896461263e-14)
(-0.02551890103 -0.06244196719 1.83519866e-13)
(-0.02511475016 -0.06285283104 1.804806304e-13)
(-0.02845608337 -0.07546539634 2.168959456e-13)
(-0.02884741384 -0.07481527066 2.200739591e-13)
(-0.03355844045 -0.1065471684 3.137906601e-13)
(-0.0333139017 -0.1080602155 3.109595914e-13)
(-0.03295801285 -0.1157202847 3.329697629e-13)
(-0.03312282845 -0.1138797411 3.353567424e-13)
(-0.02649931941 -0.1222725829 0)
(-0.02659396989 -0.1251257299 0)
(-0.02355631275 -0.1252265013 0)
(-0.02350899851 -0.1238002592 0)
(-0.02346166227 -0.1223733543 0)
(-0.01434882342 -0.1226756642 0)
(-0.01439615965 -0.1241025691 0)
(-0.01287739736 -0.1241529526 0)
(-0.01285371825 -0.1234391688 0)
(-0.01283006112 -0.1227260477 0)
(-0.01358944227 -0.122700856 0)
(-0.002198395882 -0.1230787433 0)
(-0.002222051737 -0.1237918644 0)
(-0.002245730212 -0.1245056482 0)
(-0.0007269212538 -0.1245560333 0)
(-0.000679585019 -0.1231291284 0)
(0.00995203601 -0.1234818225 0)
(0.009857385526 -0.1263349695 0)
(0.01285277478 -0.1259506749 3.580330477e-13)
(0.01298080779 -0.123484543 3.591293929e-13)
(0.02013510404 -0.1116911212 3.241712454e-13)
(0.01961864262 -0.1117952905 3.172462293e-13)
(0.02067978905 -0.1031794052 2.927241782e-13)
(0.0212962745 -0.103549979 3.00454106e-13)
(0.01992338905 -0.07030702355 2.040728697e-13)
(0.01911536365 -0.06908011383 1.960515084e-13)
(0.01707700786 -0.05646702461 1.603439603e-13)
(0.01824445467 -0.05896732101 1.712380238e-13)
(0.009608756724 -0.02476807284 7.209510766e-14)
(0.008375469566 -0.02207830487 6.283862319e-14)
(0.005695699537 -0.01407521002 4.007905119e-14)
(0.00648964873 -0.01567700843 4.567179968e-14)
(0.0002393060504 -0.000487897029 1.415534356e-15)
(0.0001080946479 -0.0002255360091 6.383782392e-16)
(0 0 0)
(0 0 0)
(0 0 0)
(0 0 0)
(0 0 0)
(0 0 0)
(0 0 0)
(0 0 0)
(0 0 0)
(0 0 0)
(0 0 0)
(0 0 0)
(0 0 0)
(0 0 0)
(0 0 0)
(0 0 0)
(0 0 0)
(0 0 0)
(0 0 0)
(0 0 0)
(0 0 0)
(0 0 0)
(0 0 0)
(0 0 0)
(0 0 0)
(0 0 0)
(0 0 0)
(0 0 0)
(0 0 0)
(0 0 0)
(-0.0004156291013 -0.0008654602395 2.220446049e-15)
(-0.0007542002639 -0.001538126475 4.024558464e-15)
(-0.001120558155 -0.002237228384 5.981326545e-15)
(-0.006435183842 -0.01406126688 3.762268275e-14)
(-0.005497438864 -0.01227507954 3.214095656e-14)
(-0.008961891187 -0.0209842607 5.501155087e-14)
(-0.01013918461 -0.02322873358 6.220024495e-14)
(-0.02201123968 -0.05888578233 1.581512699e-13)
(-0.02040315778 -0.05580117688 1.466743393e-13)
(-0.02372175291 -0.0687197984 1.80772064e-13)
(-0.0253585145 -0.07186049568 1.931510507e-13)
(-0.03098147113 -0.1071284243 2.883249195e-13)
(-0.02961986174 -0.1046456254 2.756544992e-13)
(-0.0299391052 -0.1143062349 3.011202399e-13)
(-0.03110215617 -0.1162650229 3.129163595e-13)
(-0.02656545293 -0.1322521817 3.555350458e-13)
(-0.02618347923 -0.1328596853 3.496508638e-13)
(-0.02371396582 -0.1354904684 3.563677131e-13)
(-0.02382488875 -0.1337081598 3.59184904e-13)
(-0.01472746932 -0.1340895777 0)
(-0.01482214179 -0.1369433875 0)
(-0.01178455093 -0.1370441567 0)
(-0.01168987846 -0.134190347 0)
(-0.01320870703 -0.1341399612 0)
(-0.00257703961 -0.1344926569 0)
(-0.00267171208 -0.1373464666 0)
(0.0003658986622 -0.1374472365 0)
(0.0004605711319 -0.1345934268 0)
(0.009506844852 -0.133690427 3.562011797e-13)
(0.009300856761 -0.1343908708 3.506639423e-13)
(0.0119518032 -0.1303539366 3.399225346e-13)
(0.01227782421 -0.1307187048 3.480549182e-13)
(0.01794292938 -0.1095944265 2.914196662e-13)
(0.0171686477 -0.1070529342 2.788186348e-13)
(0.0176328714 -0.09599958052 2.500083474e-13)
(0.01854195328 -0.09892787857 2.630118345e-13)
(0.01582084432 -0.06096643341 1.622035839e-13)
(0.01470231723 -0.05778998908 1.506156311e-13)
(0.01250368419 -0.04496085901 1.172395514e-13)
(0.01360378589 -0.04795480714 1.2766177e-13)