/*--------------------------------*- C++ -*----------------------------------*\
| =========                 |                                                 |
| \\      /  F ield         | OpenFOAM: The Open Source CFD Toolbox           |
|  \\    /   O peration     | Version:  v1912                                 |
|   \\  /    A nd           | Website:  www.openfoam.com                      |
|    \\/     M anipulation  |                                                 |
\*---------------------------------------------------------------------------*/
FoamFile
{
    version     2.0;
    format      ascii;
    class       volVectorField;
    location    "1";
    object      U;
}
// * * * * * * * * * * * * * * * * * * * * * * * * * * * * * * * * * * * * * //

dimensions      [0 1 -1 0 0 0 0];


internalField   nonuniform List<vector> 
12556
(
(99.99803034 0.004720226124 -4.590972472e-21)
(99.99750881 0.01558787796 4.758175875e-25)
(99.9960145 0.03195729645 -4.578257053e-21)
(99.99353549 0.05738769097 -4.542560197e-21)
(99.99981587 0.04428734627 4.373334638e-21)
(99.99687988 0.0711923961 0)
(99.99532292 0.1121497297 0)
(99.99495918 0.1671763376 -7.525896224e-21)
(99.99378458 0.237520627 8.689704011e-22)
(99.99325179 0.3189965349 -5.526693656e-21)
(99.99364421 0.3998897805 7.773443867e-22)
(99.99522307 0.4610637136 0)
(100.0002627 0.4836445489 0)
(100.0050818 0.4604715876 1.401699591e-21)
(100.0063355 0.4011518261 -1.911788033e-21)
(100.0065445 0.3246082853 1.021629207e-21)
(100.0059837 0.2478796809 0)
(100.0051626 0.1810069946 1.573856633e-21)
(100.0046506 0.1259009963 6.442792285e-21)
(100.0024722 0.08682450018 -1.77927083e-21)
(100.0094216 0.09703977077 -1.536415054e-20)
(100.0063124 0.05902064044 0)
(100.0045347 0.0310574156 -1.917605073e-21)
(100.0042836 0.009710604837 -1.349018154e-20)
(99.9823868 0.01270145689 1.840592303e-20)
(99.97621111 0.04246332718 4.592990015e-21)
(99.9622642 0.08777624331 3.20508085e-20)
(99.93843291 0.1585563334 -1.372616727e-20)
(99.94357478 0.2101425532 4.408215929e-21)
(99.90778507 0.3412899128 -6.108410029e-23)
(99.86277304 0.5380712751 0)
(99.84067604 0.709585971 -7.641779614e-21)
(99.79663535 1.020142596 -6.995499439e-21)
(99.77029907 1.391847345 -1.192144859e-20)
(99.78197089 1.769979976 -4.792691851e-21)
(99.84309293 2.068913221 -6.010586362e-21)
(99.94714095 2.196448908 -1.034595651e-21)
(100.0566921 2.108722175 5.475955662e-22)
(100.1355703 1.847073347 -6.290899923e-22)
(100.1675732 1.49964412 5.270387129e-21)
(100.1616193 1.143208913 -9.955957556e-21)
(100.1335635 0.8362614118 0)
(100.1341719 0.6131814801 -2.714225564e-20)
(100.0931249 0.4101348694 5.206496529e-20)
(100.0884433 0.2748724807 1.487433458e-20)
(100.060236 0.1666165947 3.049801995e-20)
(100.0440524 0.08799471735 -3.058838463e-20)
(100.0378422 0.02756222948 1.540795439e-20)
(99.95263413 0.0166690999 -1.836490955e-20)
(99.93512858 0.05687967024 -3.689929014e-20)
(99.89705013 0.1203153083 -8.25993686e-20)
(99.83350516 0.2223175157 1.098629918e-19)
(99.80459514 0.3328974978 -9.078324207e-21)
(99.69730787 0.5564400271 -8.782631972e-21)
(99.55748363 0.8960313922 -1.521995549e-20)
(99.48703345 1.256750265 0)
(99.34496692 1.855574138 2.904291743e-20)
(99.26446239 2.585346227 0)
(99.31637153 3.356453829 -6.140135392e-20)
(99.5484159 4.010722638 -2.834027982e-20)
(99.94798492 4.322167138 -2.944213356e-20)
(100.3601822 4.145381721 5.913890327e-21)
(100.6178713 3.567450244 0)
(100.6897772 2.83307146 8.389016879e-21)
(100.6428839 2.126196811 -1.06748727e-20)
(100.5277938 1.517372418 -2.451548247e-20)
(100.4413334 1.035763592 -1.630506988e-19)
(100.3147117 0.6834944026 -3.588708981e-20)
(100.2425595 0.4111520759 -1.519576435e-20)
(100.1683117 0.2468748268 3.450376115e-20)
(100.1237152 0.1303918219 -3.869696134e-21)
(100.1042164 0.04063547025 0)
(99.91742368 0.01415029377 -9.268460301e-21)
(99.88377297 0.05110296177 6.485627591e-20)
(99.81176214 0.1170917632 -1.855994091e-20)
(99.69423643 0.2274320757 0)
(99.60340703 0.3835515503 0)
(99.39304909 0.6724875464 -7.13131892e-20)
(99.10549363 1.128209132 -1.425032025e-19)
(98.89100085 1.669502452 3.338053418e-20)
(98.56426566 2.541787565 2.286981288e-19)
(98.34796122 3.657895642 2.376712379e-19)
(98.38705295 4.960872119 0)
(98.87420344 6.20484503 -3.973386907e-19)
(99.85690506 6.88356465 -1.397051947e-19)
(100.9219882 6.576836869 7.206797742e-20)
(101.5355627 5.474527932 -5.426876245e-20)
(101.6173216 4.14349007 2.363815871e-19)
(101.4278352 2.976762677 0)
(101.1607185 2.072431779 0)
(100.9062594 1.344319634 5.882886191e-20)
(100.6443891 0.8663531512 -4.516859492e-20)
(100.4555376 0.4804244239 -3.882205209e-20)
(100.3178366 0.2851501327 1.961269652e-20)
(100.2324758 0.1482666591 -3.931293784e-21)
(100.1935123 0.04573825295 0)
(99.89244026 0.003556385787 0)
(99.83992268 0.01979293031 0)
(99.72853738 0.06892266767 9.396989394e-21)
(99.5456756 0.1621128577 1.417129285e-20)
(99.37835687 0.3421927078 2.344402862e-20)
(99.03044384 0.6536489977 0)
(98.54878082 1.15269415 0)
(98.11152767 1.829477358 0)
(97.5015546 2.917836874 -6.063826939e-19)
(96.97234928 4.445455533 -5.782468271e-19)
(96.77509969 6.478184141 -9.806667307e-19)
(97.46216804 8.817289858 7.267448717e-19)
(99.54124593 10.37102686 -2.588168788e-19)
(101.9929252 9.797375976 0)
(103.2125954 7.667227226 1.204232671e-18)
(103.1678552 5.368046636 0)
(102.5971034 3.611839002 -1.084502342e-19)
(102.0060061 2.398762303 -3.963403589e-22)
(101.4958501 1.479582417 -9.617557306e-20)
(101.0499302 0.9253808416 7.97765565e-21)
(100.6984404 0.4629997016 0)
(100.4825215 0.268677734 3.996402231e-21)
(100.3481116 0.1347080925 -3.001628563e-21)
(100.2857182 0.04076484371 -9.95018748e-22)
(99.8952282 -0.01567916958 0)
(99.82335843 -0.03894411417 0)
(99.67271951 -0.03034032093 -1.880991908e-20)
(99.42084424 0.02134474221 3.841409573e-20)
(99.16611116 0.1925153998 0)
(98.66593675 0.4674578411 0)
(97.95946957 0.9292914445 3.012094694e-20)
(97.26179611 1.63642177 -3.215250214e-19)
(96.24541997 2.788570661 2.167871488e-20)
(95.11974866 4.579770924 3.526660366e-18)
(94.09251365 7.467262053 -3.161939525e-19)
(94.32426361 11.93416944 1.181701073e-19)
(98.59571906 15.96365761 0)
(104.3578209 14.42823592 -6.554152092e-19)
(106.2762508 9.945419989 -4.285502586e-19)
(105.5683933 6.267380058 1.489972773e-18)
(104.1746601 3.864980922 -1.035794254e-18)
(103.0098811 2.408157128 1.321952582e-19)
(102.1501939 1.38268666 2.468073615e-20)
(101.4810787 0.8240198373 -1.644060567e-20)
(100.9368265 0.3470282286 0)
(100.6326601 0.1894163594 0)
(100.4460951 0.08576879628 -1.006324686e-21)
(100.3587871 0.02465010615 -3.014671975e-21)
(99.94273193 -0.04307411731 4.603683386e-21)
(99.85346248 -0.1230695611 -4.640014324e-21)
(99.66896937 -0.1771642564 9.478772632e-21)
(99.35649655 -0.1952453657 -3.465800724e-20)
(99.00494261 -0.06790486113 7.4024246e-23)
(98.36766194 0.1101990309 2.980517708e-20)
(97.46820409 0.4421386928 -4.068001461e-20)
(96.48536552 1.044848431 -1.058145568e-20)
(95.00965742 2.04764935 0)
(93.05853482 3.703637239 0)
(90.24667118 6.745326361 2.659847569e-18)
(86.78070792 14.10613699 2.610282775e-20)
(94.88793278 26.87329322 -2.941418042e-19)
(111.236049 20.67880147 -7.448970816e-19)
(111.5838613 11.34060815 0)
(108.7849345 6.160467041 -3.422555219e-19)
(106.0417188 3.440059944 0)
(104.0780528 1.983015287 0)
(102.7598864 1.004837147 0)
(101.8757898 0.5370222452 8.876689431e-21)
(101.1264131 0.1337563106 2.631994555e-21)
(100.7361086 0.04390887104 -3.115693876e-21)
(100.501711 0.001770415336 -3.544504259e-21)
(100.3905962 -0.002413076093 8.549945448e-21)
(100.0495319 -0.07696695733 -4.604165313e-21)
(99.94713969 -0.2271688594 4.641674254e-21)
(99.73831006 -0.3610008227 -5.898740801e-21)
(99.38228776 -0.4706150663 -3.97804729e-21)
(98.94908227 -0.4210500389 1.699103696e-20)
(98.20962747 -0.3901464012 1.015757194e-20)
(97.1833335 -0.2780682614 -5.318243334e-21)
(95.96234814 0.0970162558 1.895832196e-19)
(94.14051236 0.6971821775 3.562635241e-18)
(91.5308709 1.645741545 -4.182300824e-21)
(87.06582547 3.091033512 2.050860137e-18)
(78.06903663 5.954609293 -6.518432335e-20)
(127.6400149 22.58858907 0)
(118.6759209 8.943928186 -3.627821558e-18)
(112.2230776 4.248738765 9.306719906e-19)
(107.7880687 2.115480123 -6.741953079e-19)
(105.0077569 1.067687492 2.422226968e-18)
(103.2119633 0.3488112352 -4.690484811e-21)
(102.1549566 0.08207051101 2.000644626e-20)
(101.2197969 -0.1689544558 -3.198241667e-21)
(100.762221 -0.157599599 2.619144309e-21)
(100.4911806 -0.1118870687 -4.899117827e-22)
(100.3604949 -0.03914082084 -8.017296435e-21)
(100.2262074 -0.1147860655 -2.220267182e-21)
(100.1165923 -0.3432564841 -1.668808119e-21)
(99.89575698 -0.5666479276 -5.726650395e-22)
(99.51845671 -0.7803879479 1.737180127e-21)
(99.02690445 -0.8323418041 -3.427841874e-23)
(98.24433025 -0.9794921237 0)
(97.1720546 -1.125763939 -8.452837655e-20)
(95.82550196 -1.056301811 -9.828060128e-20)
(93.89088852 -0.9618828837 9.234165958e-19)
(91.22159973 -0.8915207395 8.709030335e-19)
(87.07753594 -1.351661888 -2.159140716e-18)
(81.30970666 -3.545357392 1.254359422e-18)
(139.9093835 4.902167156 -4.92630551e-18)
(123.1980338 1.644805468 -6.095254699e-18)
(114.3962234 0.4491777671 1.39646292e-18)
(108.8623939 -0.0377778504 -6.963931691e-19)
(105.5381652 -0.2499777722 -1.259731777e-18)
(103.403292 -0.5066519204 -4.76650134e-21)
(102.2407807 -0.5008135028 1.120295314e-20)
(101.1826884 -0.5326687916 1.094124299e-21)
(100.6870588 -0.396647525 0)
(100.3950514 -0.2456653421 4.037955927e-21)
(100.2522022 -0.0825322445 3.993333293e-21)
(100.477768 -0.1534553895 4.37334733e-21)
(100.3674708 -0.4618483605 6.837557855e-23)
(100.1480456 -0.7762356056 0)
(99.77358811 -1.096591515 2.244425562e-22)
(99.25333116 -1.261056086 -2.332118584e-21)
(98.48818046 -1.588495929 2.49630857e-21)
(97.45208639 -1.985316753 -5.496004269e-21)
(96.11609747 -2.211116833 1.583831181e-18)
(94.29921501 -2.547321302 -1.8968663e-18)
(91.9304053 -3.081605638 -1.237622122e-19)
(88.67589044 -4.30628815 -2.958347228e-20)
(85.11945066 -6.482591851 -7.61027589e-19)
(135.8364802 -11.8367305 0)
(122.4219895 -6.529015295 -6.014187045e-18)
(114.2631317 -3.95919948 -4.769311068e-19)
(108.8177715 -2.504368528 1.780501925e-18)
(105.4863101 -1.735954738 2.604806423e-18)
(103.2650739 -1.445926005 4.024606425e-20)
(102.0962461 -1.140919489 0)
(100.9963259 -0.9181582564 -1.068547701e-21)
(100.4969105 -0.6493779024 -4.449889637e-21)
(100.2022375 -0.3871146397 4.971283521e-22)
(100.0561697 -0.1285074417 0)
(100.8031156 -0.1900050618 -2.152889097e-21)
(100.6982276 -0.5736135117 2.172684654e-21)
(100.4923261 -0.9724027243 2.117793354e-21)
(100.1447787 -1.392538174 -1.987891136e-21)
(99.62238464 -1.667572674 -2.298670223e-21)
(98.92440884 -2.153455266 0)
(97.98791866 -2.763351995 2.126770709e-21)
(96.74947715 -3.232634842 0)
(95.14833087 -3.867816276 0)
(93.14732685 -4.737238947 -1.432473065e-20)
(90.5176676 -6.214864078 0)
(87.7410978 -8.110346302 1.777235169e-18)
(126.0837536 -20.57508076 -3.342066277e-18)
(118.0699254 -12.26523233 0)
(112.1565222 -7.49296268 -2.230764288e-20)
(107.7436657 -4.669194495 0)
(104.8535667 -3.125291582 -1.889051267e-20)
(102.7964377 -2.332787464 0)
(101.7236844 -1.755048475 -2.640615317e-20)
(100.6595672 -1.284772246 -1.34146683e-20)
(100.1912718 -0.8906236351 1.016680091e-21)
(99.91174589 -0.5229796512 -3.219346751e-21)
(99.77119899 -0.1728164743 4.713985547e-22)
(101.1954032 -0.2218736629 7.872275771e-21)
(101.1011483 -0.6703946123 0)
(100.9178092 -1.138327699 -2.11362836e-21)
(100.6132776 -1.652934034 0)
(100.107318 -2.020212468 0)
(99.51666658 -2.62682953 -6.828583785e-21)
(98.7239797 -3.397781158 -4.784671786e-21)
(97.63539938 -4.04491114 -1.827180526e-19)
(96.28385101 -4.870412464 8.463896115e-19)
(94.62370523 -5.937813754 8.360995314e-19)
(92.41207613 -7.591947762 0)
(89.88368047 -9.516687061 0)
(116.1590615 -23.36704298 2.12228609e-18)
(112.5277064 -14.91827288 8.1861814e-19)
(109.05695 -9.542805788 -6.439373629e-19)
(105.9924806 -6.150924619 2.295176549e-18)
(103.784378 -4.201548 -3.451008108e-20)
(102.0582235 -3.058636781 2.112862696e-21)
(101.157692 -2.27694372 -3.225963311e-20)
(100.1945392 -1.60535469 7.940658832e-21)
(99.78286555 -1.097418968 0)
(99.53208687 -0.6418089904 3.706645838e-21)
(99.40427723 -0.2117568926 0)
(101.6436263 -0.2481235156 7.862160504e-21)
(101.5630061 -0.7506606301 1.239741294e-19)
(101.4062268 -1.273645673 -2.497751313e-19)
(101.1489401 -1.857407467 -4.621572359e-22)
(100.7085272 -2.291370344 -1.980839314e-21)
(100.2255849 -2.981018103 0)
(99.60067168 -3.857421461 2.758470439e-19)
(98.68254234 -4.608400571 -2.768379351e-18)
(97.59640148 -5.537052145 0)
(96.27430941 -6.724583251 1.751259697e-21)
(94.49869526 -8.587680412 -2.449658099e-18)
(92.3338157 -10.8433504 -1.09715038e-18)
(102.7609634 -32.05093629 1.829266254e-19)
(107.367825 -21.30742581 8.388447625e-19)
(107.3812704 -14.98635887 1.37475278e-19)
(105.8666749 -10.16529256 0)
(104.010409 -6.886201012 7.434649168e-19)
(102.4870468 -4.881240192 5.645916875e-19)
(101.1509034 -3.56049389 -6.461691875e-20)
(100.4509769 -2.660407831 0)
(99.63736009 -1.848849853 0)
(99.29301105 -1.257337825 1.162924975e-20)
(99.0790678 -0.7361127311 2.14216435e-21)
(98.96891857 -0.2427235019 -6.957006651e-21)
(102.1334979 -0.2662689771 0)
(102.0682239 -0.8068502384 0)
(101.9419395 -1.366852555 0)
(101.7343636 -1.987343982 0)
(101.3576814 -2.484468536 0)
(100.9852993 -3.230124579 0)
(100.5137585 -4.15631823 2.722449277e-19)
(99.78961065 -4.947215069 -3.875845928e-20)
(98.95903522 -5.902278818 0)
(97.98023368 -7.116822718 6.203250921e-19)
(96.74210581 -9.027886173 -2.313715851e-19)
(95.53923213 -11.72698402 -7.303774412e-19)
(96.12214192 -21.07052467 3.783526824e-19)
(102.1717244 -17.45650884 -2.4462166e-19)
(103.5342828 -13.46414868 1.588705824e-19)
(103.1355399 -9.765466493 5.350955547e-19)
(102.1210507 -7.002129861 7.831068593e-19)
(101.1375789 -5.186734813 -4.923303738e-20)
(100.1763124 -3.836575939 -9.05976463e-20)
(99.67155479 -2.90128359 -3.407171763e-20)
(99.02184564 -2.003098443 -1.894753585e-20)
(98.74624688 -1.366837113 1.869357842e-20)
(98.57281486 -0.801917405 0)
(98.48261061 -0.2643049083 1.867525951e-20)
(102.650577 -0.2763754271 0)
(102.6013591 -0.8383665834 0)
(102.5076763 -1.418352167 0)
(102.3510877 -2.049005012 0)
(102.03636 -2.577863284 0)
(101.7771003 -3.336536202 0)
(101.4549417 -4.241924391 2.801820005e-20)
(100.9066245 -5.074007207 4.753070032e-19)
(100.2925109 -6.016246063 5.817445938e-19)
(99.61822686 -7.1321163 5.169672497e-19)
(98.92984553 -8.720640329 -1.252994708e-18)
(98.72140789 -11.22403575 0)
(97.70519915 -13.89300665 -6.981113222e-19)
(100.1360927 -13.46563048 1.365233358e-19)
(101.1229932 -11.36706987 1.887926024e-19)
(101.0500606 -8.840453668 5.898709032e-19)
(100.4895754 -6.714768158 6.962441153e-21)
(99.87431959 -5.20727302 -2.452221502e-20)
(99.20660122 -3.919070282 0)
(98.8814892 -3.009312215 0)
(98.37861666 -2.075004891 -3.53811792e-20)
(98.16804699 -1.425447557 1.745963684e-20)
(98.03462336 -0.8382422829 7.305562843e-22)
(97.96418231 -0.2762840075 -1.287129474e-20)
(103.1800065 -0.2789764347 0)
(103.1456225 -0.8462613184 0)
(103.0819864 -1.429960193 0)
(102.9722973 -2.052205069 0)
(102.7143004 -2.590776172 0)
(102.5489234 -3.330391287 0)
(102.3482334 -4.171538444 -7.52384167e-22)
(101.9479695 -5.017774628 7.032383742e-21)
(101.4939832 -5.929957344 0)
(101.0206547 -6.903560332 1.632014612e-18)
(100.6228356 -8.073912667 -1.306961245e-18)
(97.48690401 -9.042248384 -1.222821989e-18)
(98.77963859 -10.64242579 -2.129609422e-19)
(99.48676176 -10.57001139 -2.216623739e-19)
(99.71185638 -9.410664582 9.087649191e-20)
(99.5303199 -7.750249701 -1.289435491e-18)
(99.15521244 -6.213456587 -1.537034179e-19)
(98.75789302 -5.009485255 0)
(98.30558461 -3.848690544 -3.025365739e-20)
(98.11738437 -3.006461022 4.572039438e-20)
(97.73625568 -2.077494605 1.103250944e-20)
(97.58265114 -1.438737801 1.880833892e-20)
(97.48445305 -0.8478882385 -2.136978755e-20)
(97.43161221 -0.2794892778 0)
(103.7081535 -0.2751965294 0)
(103.6863285 -0.8340716619 0)
(103.6474358 -1.407599053 0)
(103.5767167 -2.006401201 0)
(103.3691794 -2.537275447 0)
(103.2756543 -3.233346065 0)
(103.1585005 -3.995088911 0)
(102.8649496 -4.789289248 -7.525569488e-20)
(102.5100865 -5.650219035 3.334510127e-19)
(102.1106752 -6.480769374 2.531948503e-18)
(101.9391712 -7.372899358 0)
(93.12899261 -7.00892235 0)
(99.33589645 -8.627042038 0)
(99.10980314 -8.558288179 -3.952443609e-19)
(98.76558397 -7.798226485 3.845184582e-19)
(98.41977661 -6.712781642 3.624696257e-19)
(98.09344628 -5.644764607 3.66585063e-21)
(97.81045322 -4.68459008 0)
(97.50495842 -3.679605805 0)
(97.40232729 -2.915822694 0)
(97.11708982 -2.025169545 3.832147603e-20)
(97.00930425 -1.414429762 -3.58550935e-20)
(96.93929258 -0.8348715871 -2.417125244e-21)
(96.90071186 -0.2755731682 2.425327127e-21)
(104.2234964 -0.2663331831 0)
(104.2116903 -0.805979428 0)
(104.1917569 -1.358402813 0)
(104.1510088 -1.922695516 0)
(103.9842518 -2.431722039 0)
(103.9407618 -3.070587428 0)
(103.8741437 -3.745688216 0)
(103.6375279 -4.439980223 0)
(103.3093965 -5.193732672 2.649122794e-19)
(102.8977606 -5.899776668 -7.821397682e-19)
(101.5155896 -6.48968033 -1.41569496e-18)
(96.41228885 -6.887021687 -7.971035688e-19)
(99.3652794 -7.246223366 -2.936782632e-19)
(98.66590324 -7.077247688 -2.742138387e-19)
(98.04989964 -6.538217293 4.884695308e-19)
(97.60067137 -5.83203819 2.217349026e-20)
(97.26504377 -5.067610868 0)
(97.02657606 -4.300967542 0)
(96.80107148 -3.440777592 0)
(96.74871917 -2.761730939 0)
(96.53424956 -1.930445977 0)
(96.4605487 -1.359034786 0)
(96.41222862 -0.8046805904 0)
(96.38447384 -0.2666349417 0)
(104.7172775 -0.2536476446 0)
(104.7129705 -0.7660438437 0)
(104.706432 -1.28940777 0)
(104.6868392 -1.812666124 0)
(104.5502817 -2.290202568 0)
(104.5363417 -2.866199392 0)
(104.492826 -3.457831452 0)
(104.276718 -4.050636409 0)
(103.9399715 -4.659935951 0)
(103.4954851 -5.239621599 0)
(99.29917314 -5.47222217 2.328666915e-19)
(99.32673946 -6.073275584 3.222418217e-19)
(99.20277626 -6.113542741 -7.930707024e-20)
(98.28560638 -5.95069931 1.411422811e-21)
(97.54555382 -5.589882184 0)
(97.00209369 -5.090743519 0)
(96.62092308 -4.508187328 0)
(96.38364736 -3.894809004 0)
(96.1927325 -3.165285182 0)
(96.16425173 -2.570690525 0)
(95.99609215 -1.808940977 0)
(95.94515255 -1.282820429 0)
(95.91153486 -0.7614547881 0)
(95.89231755 -0.2528698261 0)
(105.1833328 -0.238343451 0)
(105.184131 -0.7181141207 0)
(105.1858397 -1.207200238 0)
(105.1793303 -1.686722518 0)
(105.0635493 -2.127372174 0)
(105.0623109 -2.640481516 0)
(105.0207997 -3.157468564 0)
(104.8038715 -3.657065067 0)
(104.4392907 -4.149943509 0)
(103.932983 -4.597956766 0)
(99.03398309 -4.716474649 0)
(99.80231716 -5.190095994 0)
(99.14568021 -5.209075587 0)
(98.06215126 -5.085697655 0)
(97.19026959 -4.819627064 0)
(96.55059799 -4.442991778 0)
(96.11453107 -3.989926813 0)
(95.85554689 -3.494260586 0)
(95.67164323 -2.877460658 0)
(95.64775482 -2.361768561 0)
(95.50634825 -1.672921126 0)
(95.46863506 -1.194106703 0)
(95.44371089 -0.7103352643 0)
(95.42995614 -0.2363181853 0)
(105.617784 -0.2215041484 0)
(105.6215727 -0.6656481655 0)
(105.6271013 -1.117639061 0)
(105.6267552 -1.553188307 0)
(105.5243826 -1.954937089 0)
(105.523114 -2.40880866 0)
(105.4686693 -2.85905379 0)
(105.2393504 -3.27863756 0)
(104.8379255 -3.680279489 0)
(104.2472075 -4.0298182 0)
(98.96851813 -4.095425051 0)
(99.97877277 -4.47534131 0)
(99.10985263 -4.476016481 -2.316833978e-35)
(97.89729676 -4.376411088 0)
(96.92164992 -4.171876066 0)
(96.20158064 -3.880238036 0)
(95.7109887 -3.521542649 0)
(95.41961055 -3.116727394 0)
(95.22646347 -2.594227843 0)
(95.1942847 -2.14883518 0)
(95.06507362 -1.531610147 0)
(95.03300412 -1.099428584 0)
(95.01189713 -0.6552590344 0)
(95.00124374 -0.2184042327 0)
(106.0186753 -0.204024931 0)
(106.0237244 -0.6114788723 0)
(106.0295986 -1.025520208 0)
(106.0299354 -1.418416649 0)
(105.935222 -1.781535297 0)
(105.92519 -2.181512673 0)
(105.8485461 -2.571012425 0)
(105.6004861 -2.925930206 0)
(105.1599961 -3.256095112 0)
(104.4796683 -3.533511737 0)
(98.95518401 -3.572001704 0)
(100.0719306 -3.882436762 0)
(99.0726263 -3.870779928 0)
(97.76665196 -3.786555666 0)
(96.71227819 -3.624013821 0)
(95.92609295 -3.392879424 0)
(95.38503871 -3.104268498 0)
(95.05759195 -2.770840019 0)
(94.84552381 -2.326247692 0)
(94.79734557 -1.941469445 0)
(94.67013922 -1.391569305 0)
(94.63801077 -1.003781674 0)
(94.6170409 -0.5992487892 0)
(94.60761319 -0.2001284931 0)
(106.3856262 -0.1865950252 0)
(106.3905918 -0.5577451741 0)
(106.3942743 -0.9344482065 0)
(106.3912692 -1.287060947 0)
(106.2998322 -1.613213394 0)
(106.2754434 -1.964822823 0)
(106.1725406 -2.30088843 0)
(105.9015507 -2.603029633 0)
(105.4235178 -2.877158514 0)
(104.6540691 -3.100278657 0)
(98.98312016 -3.127058029 0)
(100.1209931 -3.383232997 0)
(99.03451757 -3.36370898 -3.246631394e-35)
(97.65964238 -3.290693735 0)
(96.5448759 -3.158170283 0)
(95.70462355 -2.971307523 0)
(95.11849764 -2.735714008 0)
(94.75545609 -2.458722308 0)
(94.51840714 -2.078911789 0)
(94.45015212 -1.74552775 0)
(94.31812152 -1.257297905 0)
(94.28193043 -0.9107365993 0)
(94.25851157 -0.5444780138 0)
(94.24890155 -0.1821998039 0)
(106.7194433 -0.1697221636 0)
(106.7233177 -0.5059824796 0)
(106.7230429 -0.8469687735 0)
(106.7139121 -1.162332264 0)
(106.6225442 -1.453960077 0)
(106.5804262 -1.762638136 0)
(106.4495281 -2.052847831 0)
(106.154404 -2.311228998 0)
(105.6418155 -2.541056365 0)
(104.786499 -2.722481877 0)
(99.04500607 -2.746526576 0)
(100.1438284 -2.959567767 0)
(98.99642256 -2.934760366 0)
(97.56994543 -2.870489776 0)
(96.40821448 -2.760324535 0)
(95.52372213 -2.606736386 0)
(94.89799517 -2.411959888 0)
(94.50112783 -2.179723777 0)
(94.23682516 -1.853975428 0)
(94.14628306 -1.564298911 0)
(94.00505357 -1.131664889 0)
(93.96217986 -0.8226619663 0)
(93.93459794 -0.4924174124 0)
(93.92378936 -0.1651033482 0)
(107.021733 -0.1537652055 0)
(107.0237886 -0.4572490659 0)
(107.0183923 -0.7647970816 0)
(107.0013253 -1.04628821 0)
(106.9077679 -1.306242229 0)
(106.8461707 -1.577165597 0)
(106.6870862 -1.828295918 0)
(106.3683167 -2.050155233 0)
(105.8245845 -2.244608498 0)
(104.8883409 -2.393534003 0)
(99.13348865 -2.419716074 0)
(100.1499966 -2.598109665 0)
(98.95897909 -2.569728365 1.133224982e-35)
(97.49351479 -2.512542683 0)
(96.29479613 -2.419585343 0)
(95.37395613 -2.291615088 0)
(94.71369327 -2.128799909 0)
(94.2854058 -1.932436846 0)
(93.99354964 -1.651885459 0)
(93.87996424 -1.399394641 0)
(93.72688509 -1.016325427 0)
(93.67574097 -0.7410234291 0)
(93.6429322 -0.4440066817 0)
(93.63021949 -0.149155781 0)
(107.2946168 -0.1389626599 0)
(107.2943551 -0.4122291347 0)
(107.2831359 -0.6890113282 0)
(107.2570547 -0.9401142393 0)
(107.1597876 -1.171376282 0)
(107.0780665 -1.409324194 0)
(106.8915983 -1.627241296 0)
(106.5506083 -1.818493287 0)
(105.9789357 -1.9843743 0)
(104.9677721 -2.10767941 0)
(99.24194621 -2.138338104 0)
(100.1450718 -2.288783542 0)
(98.92256625 -2.258051997 0)
(97.42756765 -2.206741362 0)
(96.19940547 -2.127367368 0)
(95.2485301 -2.019526444 0)
(94.55822605 -1.882119758 0)
(94.10112825 -1.714817605 0)
(93.78244648 -1.472159924 0)
(93.64603373 -1.251296016 0)
(93.47967707 -0.9120642461 0)
(93.4194113 -0.6666346403 0)
(93.38078651 -0.3997931225 0)
(93.36570594 -0.1345469571 0)
(107.5405454 -0.125457677 0)
(107.5376465 -0.3713166935 0)
(107.5202463 -0.6202118855 0)
(107.4846044 -0.8443803314 0)
(107.3825938 -1.049935592 0)
(107.2808367 -1.259244643 0)
(107.068376 -1.448984668 0)
(106.7070584 -1.614513405 0)
(106.1102249 -1.757082625 0)
(105.0307184 -1.86005933 0)
(99.36493101 -1.896051068 0)
(100.1325296 -2.023923882 0)
(98.88738764 -1.991722134 0)
(97.37009636 -1.945350087 0)
(96.11829745 -1.876897539 0)
(95.14245129 -1.785126899 0)
(94.4260094 -1.668164999 0)
(93.94268872 -1.524602021 0)
(93.59843709 -1.313811648 0)
(93.4399775 -1.11981458 0)
(93.25968133 -0.8190852662 0)
(93.18994997 -0.5998469503 0)
(93.14525594 -0.3600361668 0)
(93.12752524 -0.1213720609 0)
(107.7621651 -0.1133226931 0)
(107.7564395 -0.3346933691 0)
(107.732739 -0.5586541991 0)
(107.6873561 -0.7592282582 0)
(107.5799238 -0.9419544502 0)
(107.4586739 -1.126528266 0)
(107.2219185 -1.292415926 0)
(106.8423033 -1.436291983 0)
(106.2226596 -1.559693664 0)
(105.0815402 -1.646460364 0)
(99.49821526 -1.687788642 0)
(100.1146533 -1.797545897 0)
(98.85351262 -1.76449159 0)
(97.31956765 -1.722287337 0)
(96.04866773 -1.662721267 0)
(95.05192963 -1.583926651 0)
(94.31269027 -1.48355817 0)
(93.80557716 -1.359495695 0)
(93.43722526 -1.175554242 0)
(93.25778962 -1.004333022 0)
(93.06338222 -0.7372145156 0)
(92.98417364 -0.5406949809 0)
(92.93338062 -0.3247941477 0)
(92.91284614 -0.109659419 0)
(107.9621658 -0.1025828652 0)
(107.9535162 -0.3024002228 0)
(107.9235521 -0.5043688207 0)
(107.8684879 -0.6845429468 0)
(107.7551926 -0.8471635353 0)
(107.6152525 -1.010507855 0)
(107.3560155 -1.156268901 0)
(106.9600668 -1.28192244 0)
(106.3195922 -1.389500642 0)
(105.1234864 -1.463319345 0)
(99.63861186 -1.509590004 0)
(100.0930158 -1.604973632 0)
(98.82090237 -1.571451279 0)
(97.27476539 -1.532742096 0)
(95.98835874 -1.480449887 0)
(94.97402863 -1.412202579 0)
(94.21482296 -1.325364919 0)
(93.68612178 -1.217343786 0)
(93.29519315 -1.056024212 0)
(93.09595556 -0.9040367334 0)
(92.88754804 -0.6660731347 0)
(92.79905361 -0.489020687 0)
(92.74227006 -0.2940002416 0)
(92.71886599 -0.09939541195 0)
(108.1432868 -0.09323079684 0)
(108.1316714 -0.2743853197 0)
(108.09557 -0.4572417013 0)
(108.0310331 -0.6200421953 0)
(107.9115305 -0.7651229373 0)
(107.7538246 -0.9103993582 0)
(107.473824 -1.039174353 0)
(107.0634309 -1.149606598 0)
(106.4037727 -1.244127059 0)
(105.1590242 -1.307627192 0)
(99.78391273 -1.358264017 0)
(100.068704 -1.442318192 0)
(98.78944219 -1.408599572 0)
(97.23468872 -1.372812625 0)
(95.93565109 -1.32648809 0)
(94.90640195 -1.266836478 0)
(94.12960613 -1.191050922 0)
(93.58120994 -1.096234465 0)
(93.16924577 -0.953924205 0)
(92.95135836 -0.8180399892 0)
(92.72915902 -0.6051635142 0)
(92.63168568 -0.4445529892 0)
(92.56909256 -0.2675110994 0)
(92.54280398 -0.09053968962 0)
(108.308014 -0.08524621339 0)
(108.2934402 -0.2505549663 0)
(108.25138 -0.4170786798 0)
(108.1776638 -0.5654264747 0)
(108.0517939 -0.6953108242 0)
(107.877311 -0.825411993 0)
(107.5780004 -0.9394704078 0)
(107.1549138 -1.037840406 0)
(106.4774747 -1.121527638 0)
(105.1899881 -1.176819716 0)
(99.93238278 -1.23103802 0)
(100.0426018 -1.306278819 0)
(98.75903515 -1.272659779 -1.712135536e-36)
(97.1985141 -1.239332246 0)
(95.88914755 -1.197898445 0)
(94.84714065 -1.145235814 0)
(94.0547562 -1.078459975 0)
(93.48839321 -0.9947187816 0)
(93.05656474 -0.8682061402 0)
(92.82120349 -0.7454379655 0)
(92.58558262 -0.5540025861 0)
(92.47949064 -0.4069688117 0)
(92.41130574 -0.2451558608 0)
(92.3821619 -0.08304402744 0)
(108.4594973 -0.07858373024 0)
(108.4419393 -0.230766376 0)
(108.3940656 -0.3836416651 0)
(108.3114726 -0.5202083482 0)
(108.1786464 -0.6372055869 0)
(107.9883618 -0.7546766205 0)
(107.6714291 -0.8562448526 0)
(107.2365108 -0.9451306826 0)
(106.5425945 -1.019934124 0)
(105.2177383 -1.068768857 0)
(100.0824792 -1.125744021 0)
(100.0154778 -1.194306092 0)
(98.72962113 -1.16102589 0)
(97.16555673 -1.12976351 0)
(95.84768494 -1.092304465 0)
(94.79464855 -1.045262114 0)
(93.98835423 -0.9857281943 0)
(93.40567362 -0.9110994958 0)
(92.95465742 -0.7976743321 0)
(92.7029767 -0.6853915917 0)
(92.45385529 -0.511971533 0)
(92.33950292 -0.3759270404 0)
(92.26590508 -0.2267300255 0)
(92.23389971 -0.07684078735 0)
(108.5980389 -0.07325719434 0)
(108.5776305 -0.2149893341 0)
(108.524172 -0.3567469136 0)
(108.4330712 -0.4845389306 0)
(108.2945161 -0.5901917693 0)
(108.0893352 -0.6973307753 0)
(107.7566963 -0.7896850335 0)
(107.3101105 -0.8699852535 0)
(106.6008211 -0.9378222419 0)
(105.2433573 -0.9817298441 0)
(100.2329803 -1.04075265 0)
(99.98790898 -1.10443818 0)
(98.70112062 -1.071647084 0)
(97.13521613 -1.042085034 0)
(95.81025366 -1.007792387 0)
(94.74752902 -0.9651680074 0)
(93.92864571 -0.9112891419 0)
(93.3307758 -0.8433334958 0)
(92.86163925 -0.74083449 0)
(92.59433069 -0.6369493301 0)
(92.33334901 -0.4790542662 0)
(92.21110621 -0.3511436659 0)
(92.13233527 -0.2121417803 0)
(92.09761728 -0.07192253806 0)
(108.7342496 -0.06907832291 0)
(108.7105976 -0.2028390879 0)
(108.6513534 -0.3360181475 0)
(108.5510783 -0.4559533733 0)
(108.4023421 -0.5539836017 0)
(108.18227 -0.6531254983 0)
(107.8349225 -0.7390317193 0)
(107.3776598 -0.8115470645 0)
(106.6536833 -0.8739955134 0)
(105.2677474 -0.9143169544 0)
(100.3828221 -0.9748085409 0)
(99.96037121 -1.035131063 0)
(98.67343534 -1.002943632 0)
(97.10695118 -0.9747351687 0)
(95.77595978 -0.942874156 0)
(94.70455088 -0.9035928718 0)
(93.87408491 -0.8539853355 0)
(93.26185517 -0.7911508894 0)
(92.77561904 -0.6971524376 0)
(92.49333429 -0.6002496685 0)
(92.21593225 -0.4528091858 0)
(92.08526198 -0.3322212091 0)
(92.0011757 -0.2009875566 0)
(91.96335876 -0.06809144874 0)
(108.8386554 -0.06659518546 0)
(108.8128849 -0.1953297851 0)
(108.7491651 -0.3227200744 0)
(108.6427424 -0.4403162033 0)
(108.5016871 -0.5278091193 0)
(108.2689257 -0.621332912 0)
(107.9077418 -0.7030655089 0)
(107.4405546 -0.7690498155 0)
(106.7025277 -0.8275105486 0)
(105.2916963 -0.8654623936 0)
(100.5310475 -0.9270067477 0)
(99.93327904 -0.9852293727 0)
(98.64644772 -0.9537179544 0)
(97.08025359 -0.9265245506 0)
(95.74398483 -0.8964111794 0)
(94.66460386 -0.859488032 0)
(93.8233175 -0.8128864038 0)
(93.19746792 -0.7536685592 0)
(92.69484433 -0.666050184 0)
(92.39840837 -0.5743058275 0)
(92.12358754 -0.4385395884 0)
(91.98723798 -0.3201504491 0)
(91.89905182 -0.1941556868 0)
(91.85928981 -0.0658666461 0)
(109.0331828 -0.06380728142 0)
(109.0029404 -0.1881747268 0)
(108.9306886 -0.3106766731 0)
(108.8089388 -0.4209765799 0)
(108.5929623 -0.5123948799 0)
(108.3470998 -0.6021943074 0)
(107.9737517 -0.6819598062 0)
(107.5000532 -0.7417851025 0)
(106.7485688 -0.7975706946 0)
(105.3159397 -0.8344251014 0)