/*--------------------------------*- C++ -*----------------------------------*\
| =========                 |                                                 |
| \\      /  F ield         | OpenFOAM: The Open Source CFD Toolbox           |
|  \\    /   O peration     | Version:  v1912                                 |
|   \\  /    A nd           | Website:  www.openfoam.com                      |
|    \\/     M anipulation  |                                                 |
\*---------------------------------------------------------------------------*/
FoamFile
{
    version     2.0;
    format      ascii;
    class       surfaceVectorField;
    location    "1";
    object      Uf;
}
// * * * * * * * * * * * * * * * * * * * * * * * * * * * * * * * * * * * * * //

dimensions      [0 1 -1 0 0 0 0];


internalField   nonuniform List<vector> 
25162
(
(99.99776932 0.009567438966 -2.324364275e-21)
(99.99103988 0.008705876781 6.892653551e-21)
(99.99676092 0.02246107142 -2.289033048e-21)
(99.98793017 0.02901684629 2.344302349e-21)
(99.99477405 0.04292462285 -4.560408123e-21)
(99.98084771 0.05985748166 1.38085341e-20)
(99.99772214 0.04792397958 1.401461913e-21)
(99.96833443 0.1079545644 -9.024602112e-21)
(99.98675711 0.1056110023 -1.514104247e-21)
(99.99684541 0.08618476232 2.18683875e-21)
(99.99888058 0.0512888532 1.073715486e-21)
(99.98466635 0.140633027 2.167775539e-21)
(99.996507 0.07943175272 1.054373544e-21)
(99.9974117 0.06303312918 -1.098001979e-21)
(99.99572833 0.09977080189 1.05433048e-21)
(99.97683685 0.2231924355 2.093652034e-21)
(99.99539319 0.1245391541 0)
(99.99521094 0.1513992295 -3.763063839e-21)
(99.97067421 0.3328084633 -3.763044254e-21)
(99.99465003 0.1827642721 -9.732170644e-22)
(99.99406278 0.2180516264 3.276819352e-21)
(99.96379748 0.4737658641 3.53372405e-21)
(99.99358649 0.2568078042 4.344736817e-22)
(99.99332037 0.2979885428 -2.763454512e-21)
(99.96068774 0.6377971003 3.975891732e-22)
(99.99335917 0.3400462222 -2.721702735e-21)
(99.99355563 0.3808560148 4.482346679e-22)
(99.96475541 0.8003473566 -1.774705712e-21)
(99.99381586 0.4185485054 2.500742479e-21)
(99.99460603 0.4501133148 2.026745136e-21)
(99.97910662 0.923200998 -8.716931956e-22)
(99.99641254 0.4725175085 0)
(99.99893251 0.484038675 0)
(100.0002891 0.9688773957 1.345610074e-22)
(100.0015591 0.4837267733 0)
(100.0039684 0.4718208446 7.008400826e-22)
(100.0207562 0.9220453541 -1.39030217e-23)
(100.0056222 0.4496162177 1.247013271e-21)
(100.0062483 0.4189924009 -4.57475075e-22)
(100.0337108 0.8030067866 -7.632052213e-22)
(100.006364 0.382903065 -1.383199487e-21)
(100.0064683 0.3443749556 8.348948002e-23)
(100.0369981 0.6490931279 1.945691255e-21)
(100.006462 0.3048068857 5.108295212e-22)
(100.0061813 0.2660435575 0)
(100.0341741 0.4946165877 0)
(100.0057359 0.2294964183 0)
(100.0053253 0.1958984813 7.86899823e-22)
(100.0279093 0.3611851288 1.638387577e-21)
(100.005287 0.1660590587 -3.983511351e-21)
(100.0050307 0.1378434485 -1.485092577e-21)
(100.0224589 0.2501318723 3.221642652e-21)
(100.004257 0.11383828 3.221402248e-21)
(100.0031678 0.09389663127 -8.89560925e-22)
(100.0132692 0.1687775076 -4.499167133e-23)
(100.0009751 0.07972019313 1.740363916e-21)
(100.0078753 0.07557149278 -7.688113284e-21)
(100.0454282 0.1858045923 3.623509965e-22)
(100.0166948 0.1696268244 -2.725002574e-21)
(100.0027876 0.07850294892 -1.570269569e-21)
(100.0054254 0.04329328157 -9.600748213e-22)
(100.0301855 0.1127595902 1.523194831e-20)
(100.0044091 0.02015169229 -7.705087841e-21)
(100.0217422 0.05950419245 -1.624058635e-20)
(100.0189906 0.01863542001 1.335413619e-21)
(99.97929822 0.0267832987 1.1500091e-20)
(99.96586551 0.0146793859 3.586550463e-22)
(99.9692342 0.06340930067 1.832222831e-20)
(99.95359202 0.04965151105 -1.610762799e-20)
(99.95034779 0.1210456274 9.585381782e-21)
(99.92690372 0.1040056521 -2.487676837e-20)
(99.94186012 0.1888480922 -1.63229614e-21)
(99.88160992 0.1903532145 4.791374356e-20)
(99.90127634 0.2387344416 -1.053358851e-20)
(99.91446529 0.2415468236 -2.264051283e-21)
(99.93488713 0.2371815117 4.436190985e-21)
(99.95969893 0.1691116094 2.204018776e-21)
(99.93780292 0.2756814962 2.137667385e-21)
(99.91699305 0.3034548871 2.18427856e-21)
(99.86097753 0.3998707428 -4.426090949e-21)
(99.89735177 0.3855769979 -2.942883542e-23)
(99.9066314 0.4361529707 2.093980607e-21)
(99.87484698 0.4856168586 -2.484312624e-23)
(99.7956786 0.6334870906 0)
(99.86371458 0.5627617357 0)
(99.82746389 0.6457216765 -2.600442391e-21)
(99.87596055 0.6391793364 -5.09333233e-21)
(99.85865855 0.6764607998 -7.772445061e-23)
(99.81947964 0.7811765343 -1.145465274e-20)
(99.848746 0.7367541413 -3.937600309e-21)
(99.81833939 0.9758459483 3.058731742e-23)
(99.84508613 0.9167189532 -2.553115614e-21)
(99.77068399 1.127194496 -1.389826977e-20)
(99.81171698 1.055276529 -3.392886268e-21)
(99.79480333 1.340058413 -6.156051307e-21)
(99.83089886 1.246678377 -5.837068671e-21)
(99.74489354 1.542574609 7.657524151e-22)
(99.79527573 1.431847463 -7.37053395e-21)
(99.80752454 1.718716279 -6.856060879e-24)
(99.85020643 1.580175869 -4.637182666e-21)
(99.76661692 1.965865761 -2.396457347e-21)
(99.81979177 1.807871591 -3.461320508e-21)
(99.86907135 2.027373827 -3.863050154e-21)
(99.91211224 1.840922993 -6.131963894e-21)
(99.84686657 2.303998521 -3.707102577e-21)
(99.89336488 2.096823445 -3.905677189e-21)
(99.97325315 2.179343206 1.523286462e-21)
(100.0033581 1.948867619 -1.485476118e-21)
(99.97766162 2.450025889 -5.173846025e-22)
(100.0014873 2.206557669 -5.173266006e-22)
(100.0829364 2.12591516 -1.874258718e-24)
(100.0778688 1.86690072 -1.117042449e-22)
(100.1077008 2.352608642 1.440525872e-22)
(100.1059424 2.093648324 -9.803283556e-22)
(100.1622424 1.889347302 -3.145697818e-22)
(100.1243042 1.632902839 -2.526416075e-22)
(100.1946975 2.058504586 -8.411116465e-23)
(100.1724541 1.813752225 2.458353365e-21)
(100.1929428 1.552677349 2.635311622e-21)
(100.1373992 1.324183489 4.582710272e-21)
(100.2258001 1.669401128 4.57715354e-21)
(100.1927399 1.457925796 5.630330601e-22)
(100.1852502 1.19473213 -7.135960214e-21)
(100.1270888 1.009207181 -6.636017786e-21)
(100.2120385 1.270208996 -2.408530656e-21)
(100.1778304 1.103739528 -2.353743101e-21)
(100.1542274 0.8789837388 -5.536969467e-21)
(100.1009304 0.7379252032 5.016908298e-22)
(100.1710183 0.9243794764 -1.469470941e-21)
(100.1438678 0.8039523187 5.970647582e-21)
(100.0903389 0.4937460469 -1.356716429e-20)
(100.145619 0.6759916031 -1.356611015e-20)
(100.201656 0.7241672419 1.371563324e-20)
(100.1235931 0.5568422268 -2.76742234e-20)
(100.1030767 0.456166218 1.176915548e-20)
(100.1419604 0.4819663413 -1.668793298e-20)
(100.083112 0.3712808928 2.422772749e-20)
(100.0625775 0.3303480987 2.690019672e-20)
(100.0743543 0.2183612066 2.26840102e-20)
(100.170415 0.3430282523 -1.650462633e-22)
(100.1328539 0.3924465293 4.803481958e-20)
(100.0782459 0.3104347808 2.579501853e-21)
(100.0521353 0.1256808957 -7.088242428e-22)
(100.1171386 0.2067507204 3.250127266e-20)
(100.0409457 0.05722242479 -7.57685072e-21)
(100.0862779 0.1091931928 -1.722702943e-20)
(100.0729648 0.03409738475 7.703260211e-21)
(99.94388181 0.03598811232 -2.763028096e-20)
(99.93188302 0.01540104319 -1.381003487e-20)
(99.91608493 0.08693956077 -5.974601904e-20)
(99.90558201 0.0539802372 1.260369486e-20)
(99.86530009 0.1691755433 1.18829518e-20)
(99.84967856 0.1186942509 -5.056772418e-20)
(99.8141692 0.2872788917 3.049716916e-20)
(99.75834365 0.2248720467 5.492264378e-20)
(99.75066053 0.3146317944 -4.748315557e-20)
(99.84231267 0.3029087767 -9.071515574e-21)
(99.75712704 0.3465613947 -6.713583231e-20)
(99.77951694 0.3783856735 -4.538769357e-21)
(99.75623716 0.5074261248 -8.81121919e-21)
(99.72590215 0.492803641 -4.389358156e-21)
(99.62578841 0.5928080445 3.082660434e-20)
(99.66440509 0.6324925166 8.627664615e-21)
(99.64341248 0.8124615114 -7.608565069e-21)
(99.59450733 0.8022403482 5.640992615e-21)
(99.45198967 0.9639848586 -4.338783163e-20)
(99.55606905 0.9705684969 3.024020815e-21)
(99.4832368 1.043300874 -1.88603581e-20)
(99.54399157 1.192619516 -7.708426438e-21)
(99.50588447 1.194322876 0)
(99.42300806 1.316498519 8.011985757e-21)
(99.46976432 1.323619702 -7.663362224e-21)
(99.4185419 1.755036887 3.709476464e-21)
(99.36291698 1.773798028 1.452222451e-20)
(99.26151007 1.951859235 7.187797955e-21)
(99.33178114 1.941640953 1.802069732e-20)
(99.34758394 2.439828257 0)
(99.27106512 2.491358006 0)
(99.16972073 2.728294839 0)
(99.26613208 2.681419224 5.888587789e-20)
(99.39550553 3.157296213 -2.22764917e-20)
(99.30520247 3.262931908 -5.244410077e-20)
(99.22442213 3.557741514 -9.31327196e-21)
(99.33891212 3.447253036 -2.092638907e-20)
(99.60135247 3.759561909 -1.483095856e-20)
(99.51358403 3.942247368 -2.165149146e-21)
(99.48591632 4.270470476 1.535423919e-20)
(99.59670868 4.069395775 -3.670233123e-20)
(99.95259219 4.042211533 -1.695011732e-20)
(99.89781517 4.307052755 1.780354158e-20)
(99.94176531 4.61498615 -5.508068751e-21)
(100.0065967 4.322946068 -1.236363568e-20)
(100.313597 3.877414414 3.118384448e-21)
(100.3171414 4.191931565 -3.840138415e-22)
(100.4140949 4.42404801 9.47239039e-21)
(100.4055791 4.086871028 9.848690071e-21)
(100.5413734 3.34579854 0)
(100.5986036 3.653008382 -1.457971237e-20)
(100.7062103 3.793375243 -1.65751356e-21)
(100.636644 3.476717115 -6.333838532e-21)
(100.6087621 2.668769902 5.273394894e-21)
(100.6894858 2.926141519 -1.799301814e-21)
(100.781836 2.996324421 1.91554005e-21)
(100.6909875 2.740900849 8.873183457e-21)
(100.5684264 2.007239433 -6.597073972e-21)
(100.6553594 2.212035349 -1.54458914e-20)
(100.7264043 2.241666293 -5.337765281e-21)
(100.6315214 2.04310436 5.841649412e-21)
(100.5442308 1.586782334 -1.822076012e-20)
(100.4672542 1.435286707 -1.225607087e-20)
(100.5948851 1.592944597 -1.227259868e-20)
(100.5153518 1.450113718 6.51766541e-21)
(100.3546738 0.9354250675 -5.366320752e-20)
(100.4771007 1.145816188 -2.814925787e-20)
(100.54913 1.122119692 -8.14117996e-20)
(100.4079778 0.9386205215 -3.870542527e-20)
(100.2527618 0.6188552127 -6.092827766e-20)
(100.3447059 0.7630625851 2.429957846e-20)
(100.3910745 0.735076806 -2.892630528e-20)
(100.2869664 0.6157514098 -2.528271181e-20)
(100.2054259 0.3276121126 1.020243494e-20)
(100.3550348 0.4457642695 -2.588819915e-20)
(100.340055 0.547528399 -1.336147656e-22)
(100.2536897 0.5012888537 -1.485785429e-20)
(100.1459897 0.1873897223 1.523816543e-20)
(100.2490379 0.266007286 2.705675499e-20)
(100.1139648 0.08481107268 -1.934631534e-21)
(100.1830499 0.1393250814 -3.900498086e-21)
(100.1529478 0.04318317231 0)
(99.90060016 0.03217125686 2.77448109e-20)
(99.90156228 0.008847729757 -4.633532154e-21)
(99.84777456 0.08295190888 2.338119622e-20)
(99.8577286 0.03543636352 3.241692158e-20)
(99.75303147 0.172992501 -9.284808667e-21)
(99.76486187 0.0929860989 -4.573669338e-21)
(99.6336931 0.3269437628 0)
(99.614362 0.1947358933 7.092427342e-21)
(99.55824378 0.3256031041 2.153500846e-20)
(99.65507934 0.3719600921 -6.275853642e-20)
(99.5450304 0.3751992043 1.619086838e-20)
(99.55539272 0.4440447835 0)
(99.47331242 0.6508816014 2.237957591e-22)
(99.45030589 0.5904769165 -3.558262442e-20)
(99.30306727 0.6774913651 -3.555868699e-20)
(99.3264288 0.7724127049 7.206486486e-20)
(99.22477894 1.079953877 -1.06925702e-19)
(99.18281078 0.9962332045 4.019874901e-20)
(98.97113912 1.148261965 -7.158460709e-20)
(99.07271943 1.257828922 -3.564544753e-20)
(98.97021722 1.282254537 -5.851647405e-20)
(98.97562415 1.626820142 8.412296855e-21)
(98.93282125 1.579578419 1.669609751e-20)
(98.80007351 1.704709575 4.231503247e-20)
(98.84841647 1.767239253 8.343231651e-21)
(98.67524516 2.468047369 1.127891424e-19)
(98.60213537 2.421633837 1.552258064e-19)
(98.44343774 2.606790534 -1.721013221e-19)
(98.52982059 2.669931728 2.285810827e-19)
(98.48231387 3.533623341 -5.586402895e-20)
(98.36659991 3.507401858 -6.928361584e-21)
(98.19856096 3.774648116 -1.082337641e-20)
(98.33758581 3.814427212 3.957182721e-21)
(98.52925233 4.761333801 0)
(98.36546386 4.793527353 0)
(98.22470217 5.159095191 -2.022114689e-19)
(98.42348861 5.126544406 -1.743317722e-19)
(98.98332858 5.914386888 -1.671571802e-19)
(98.78803467 6.064691166 -6.15046509e-20)
(98.74562989 6.508507492 -1.986665292e-19)
(98.97826735 6.32827542 -8.968360243e-20)
(99.87460666 6.532513768 -6.955626936e-20)
(99.71904792 6.843025582 -5.261090562e-20)
(99.83378497 7.261513116 -1.228216968e-19)
(99.99809233 6.895400247 -9.270626212e-20)
(100.8332258 6.244863914 3.720937191e-21)
(100.8025553 6.663970251 -1.374082961e-20)
(101.0233836 6.931986237 6.331063279e-20)
(101.0267377 6.466849572 -5.290588823e-20)
(101.3914579 5.223067597 -5.624692793e-20)
(101.4873581 5.634230674 -2.122771102e-20)
(101.6993143 5.734004187 8.529456234e-20)
(101.5668682 5.307972093 -2.713487769e-20)
(101.4753551 3.979162958 2.152563967e-21)
(101.6257128 4.30611654 -1.016659884e-19)
(101.7758639 4.30508351 1.221329374e-19)
(101.6010781 3.984985878 5.541805708e-20)
(101.3138832 2.880192963 4.752402777e-20)
(101.4573295 3.110984569 -1.129299229e-20)
(101.553366 3.065775168 0)
(101.3968158 2.852231071 2.207718103e-19)
(101.1967559 2.173812212 0)
(101.070542 2.009956464 4.908329535e-20)
(101.2580098 2.12585476 0)
(101.1239441 1.974312249 0)
(100.7818945 1.276369812 2.945385001e-20)
(100.9837989 1.497191882 1.913656032e-20)
(101.0481596 1.390471707 -1.657783852e-20)
(100.836712 1.213168077 3.692178431e-20)
(100.5568005 0.8264431428 -3.356771319e-20)
(100.7057766 0.9745901901 -1.499516479e-20)
(100.743458 0.8899745196 -1.513480396e-20)
(100.5913243 0.7755799943 -7.371056919e-21)
(100.3866272 0.3820456211 -9.450032632e-21)
(100.5840799 0.4717000858 -1.940043931e-20)
(100.6200641 0.6371776129 -2.567479384e-21)
(100.5106562 0.6141371933 5.725897721e-21)
(100.2751458 0.2154450384 7.776465232e-21)
(100.4060856 0.2769067293 1.180409159e-20)
(100.2129928 0.09638642468 -1.965518675e-21)
(100.2953292 0.141483509 -3.466494995e-21)
(100.2438458 0.04324818174 -4.97496789e-22)
(99.86618331 0.01164987449 0)
(99.89059751 -0.006064604615 0)
(99.78423369 0.04356841967 4.698158802e-21)
(99.8277013 -0.009575478362 0)
(99.63710761 0.1172815926 1.195750654e-20)
(99.69547639 0.01930224994 -3.743772584e-21)
(99.43421819 0.288830434 1.968493216e-20)
(99.47488488 0.09175351148 2.628556786e-20)
(99.36172917 0.2424073094 -7.918816884e-21)
(99.43435745 0.3545323575 2.788322147e-20)
(99.32145142 0.3079889756 2.237460738e-21)
(99.29937243 0.4093121785 -1.13582948e-20)
(99.12171937 0.6680374522 0)
(99.12540982 0.5654176647 -2.343328035e-20)
(98.93587653 0.6182594492 -1.927619586e-20)
(98.91888494 0.7638699339 4.781476027e-21)
(98.69109911 1.160552756 0)
(98.67803252 1.015084793 4.780964106e-21)
(98.39844245 1.113428372 -4.952067738e-21)
(98.45175352 1.3316225 2.381879824e-20)
(98.33484605 1.322801595 6.180696684e-21)
(98.21429224 1.825170354 2.72981748e-19)
(98.18515652 1.72222946 0)
(98.00498171 1.823357263 0)
(98.03702781 1.944380942 -1.387376892e-19)
(97.64648675 2.890878439 -3.029464472e-19)
(97.57691024 2.7624412 2.688024493e-19)
(97.35158584 2.925023396 1.211330972e-18)
(97.42767188 3.086990661 -3.017822376e-19)
(97.16737524 4.367406413 -3.444911071e-21)
(97.02951741 4.231367204 -2.894051145e-19)
(96.76139466 4.505269478 2.853738224e-20)
(96.92461313 4.674488205 -5.654959315e-21)
(97.01921791 6.299522235 -3.138610633e-21)
(96.77229046 6.198916968 -4.637568511e-19)
(96.49862221 6.642867561 -1.01674279e-18)
(96.80465111 6.765251099 5.550863516e-19)
(97.69490676 8.466377983 2.249451172e-19)
(97.31372599 8.529112964 -1.95223693e-19)
(97.18502063 9.184442769 3.637524217e-19)
(97.65805792 9.081478014 3.773969788e-19)
(99.60119911 9.869123464 -2.363557343e-20)
(99.22621651 10.26585332 -1.715066584e-19)
(99.46400363 10.93376136 -3.792615017e-19)
(99.8715035 10.41491604 -1.141204335e-19)
(101.8195669 9.343095367 0)
(101.7230763 9.975076679 4.361781697e-20)
(102.1923331 10.29680157 0)
(102.217913 9.576009755 3.128636341e-19)
(102.9507273 7.380051224 6.020200949e-19)
(103.1317302 7.96210653 6.431271814e-19)
(103.5071964 7.956925103 9.770489909e-19)
(103.2518713 7.367735838 1.968676016e-19)
(102.9352846 5.224237807 -4.373668863e-20)
(103.2104404 5.636865227 0)
(103.4283287 5.505291396 0)
(103.1087944 5.11825163 0)
(102.4307042 3.545121917 -5.411902264e-20)
(102.6764752 3.801293676 -1.823530765e-21)
(102.7756865 3.666649457 -1.110369078e-19)
(102.5175391 3.435357327 -5.397270655e-20)
(102.074004 2.52995955 -4.433717067e-20)
(101.891739 2.370673512 -3.827187182e-21)
(102.1261609 2.416673653 3.574719843e-21)
(101.9400935 2.27987006 2.276680275e-20)
(101.342792 1.458103421 -9.429232192e-20)
(101.6291674 1.665937628 -5.964539286e-20)
(101.6601812 1.472034771 -3.335408989e-20)
(101.3770132 1.327614604 -1.705083377e-20)
(100.9457629 0.9195201649 1.158062073e-20)
(101.1540266 1.049215801 3.499486815e-20)
(101.1600108 0.91104482 -3.898641034e-21)
(100.9616578 0.8208828164 -3.824235424e-21)
(100.5904704 0.3681148982 1.998379307e-21)
(100.8246756 0.4050234946 0)
(100.9327642 0.6140637238 -7.354078455e-23)
(100.8150067 0.6330866898 -1.040280786e-20)
(100.4153127 0.2006103645 4.441589049e-22)
(100.5640163 0.2290399003 1.998199145e-21)
(100.3169132 0.08745016242 -2.00175327e-21)
(100.4020508 0.1102325843 -2.003870126e-21)
(100.3263245 0.03270481516 -2.004907769e-21)
(99.8592983 -0.02709414749 0)
(99.91618077 -0.02937944674 2.302098742e-21)
(99.74804909 -0.03462521512 -9.403696681e-21)
(99.83489897 -0.08102180318 -2.320718959e-21)
(99.54679988 -0.003722994353 9.798101561e-21)
(99.66652007 -0.1037810493 -4.660839346e-21)
(99.25100649 0.130110501 1.280270747e-20)
(99.38289844 -0.08692405419 4.037067228e-21)
(99.18972059 0.05864728916 -4.491022578e-23)
(99.22208675 0.2331604493 -9.48697335e-21)
(99.11126657 0.132153981 -9.623391058e-21)
(99.05225036 0.2479060117 0)
(98.75371757 0.5251820935 -1.927572001e-20)
(98.80221324 0.3890352674 0)
(98.58336351 0.3886547757 -1.374885642e-22)
(98.50279006 0.5710062799 -9.901193237e-23)
(98.10323908 1.001784277 9.992301774e-21)
(98.14955064 0.806235495 1.496202403e-20)
(97.82216247 0.8241287917 2.022146898e-20)
(97.79737587 1.144554588 -3.799608449e-21)
(97.68879435 1.067947994 3.560859228e-20)
(97.36696002 1.679148991 1.537919745e-19)
(97.37719853 1.530184521 -1.428227901e-19)
(97.15708951 1.581295185 -1.606816727e-19)
(97.14001604 1.758520482 1.74107923e-19)
(96.40784303 2.828317265 1.087448225e-20)
(96.37708278 2.622077492 3.609079501e-19)
(96.07900172 2.727561683 -3.384854462e-19)
(96.10993064 2.986592455 -3.283532209e-19)
(95.3677457 4.60669198 2.416510352e-18)
(95.26713086 4.337209362 1.479604976e-18)
(94.86587051 4.522869583 2.513195146e-18)
(94.97939725 4.885233601 1.051844352e-18)
(94.48941216 7.394131323 -6.041604982e-19)
(94.19921066 7.032897721 -8.325136325e-19)
(93.65607034 7.488684091 3.475581048e-19)
(94.01843226 7.941032212 -1.585722024e-19)
(94.85750341 11.52571035 -4.246158065e-19)
(94.16235267 11.29532424 -5.069064902e-19)
(93.68722136 12.33229833 -4.733867546e-19)
(94.62559779 12.56259982 5.140912416e-19)
(98.76132354 15.10193965 0)
(97.84946306 15.6752399 -2.356736936e-19)
(98.39029149 17.00225613 -1.066448659e-19)
(99.40549748 16.09242212 -1.692014956e-20)
(103.939323 13.76409998 -5.288671625e-19)
(103.7858584 14.87760786 -3.274073527e-19)
(104.8631265 15.15939788 -3.273843255e-19)
(104.7824621 13.89867022 -3.877137561e-19)
(105.7974315 9.672201098 -9.950798522e-20)
(106.2031624 10.50529156 -8.817872578e-19)
(106.829257 10.20402754 3.239181918e-19)
(106.2669596 9.416169986 -2.132201696e-19)
(105.2208969 6.182848329 7.436692842e-19)
(105.7162966 6.635602925 1.99131985e-19)
(105.9447245 6.318613051 -7.686712667e-20)
(105.3979002 5.868306547 9.893481567e-19)
(103.959445 3.859532196 -6.390380566e-19)
(104.3471593 4.109900883 -1.036195767e-18)
(104.4000421 3.849987332 3.795056289e-19)
(104.0105177 3.645907344 -1.036249358e-18)
(103.1362174 2.554937105 4.514228404e-19)
(102.8774873 2.424847186 6.585208934e-20)
(103.1450572 2.377683784 1.76739672e-20)
(102.894252 2.27146572 3.287103691e-20)
(101.9878786 1.423544262 2.737924129e-20)
(102.3470606 1.572311509 -2.288846348e-22)
(102.3114431 1.306728986 1.654283077e-20)
(101.971233 1.227258086 1.23365141e-20)
(101.3741786 0.8603748092 -1.616152291e-20)
(101.6366522 0.9468235377 -8.224577444e-21)
(101.5861516 0.7648166296 -8.22617084e-21)
(101.3502863 0.7213516073 1.248359602e-20)
(100.7847223 0.2714135803 0)
(101.0426147 0.2403429606 1.316517675e-21)
(101.2312724 0.4633389251 -1.103672142e-20)
(101.1253044 0.5418191364 2.741016688e-20)
(100.5393697 0.1368570399 -5.032053008e-22)
(100.6908445 0.1166443371 -1.558148307e-21)
(100.4024392 0.05555756292 -2.014835665e-21)
(100.4786959 0.04376372268 -2.275526443e-21)
(100.3787155 0.01111637758 2.581184641e-21)
(99.89809993 -0.08249683198 -1.788631723e-23)
(99.99401725 -0.0600219111 9.775788694e-23)
(99.76122652 -0.148999714 2.418582801e-21)
(99.89770519 -0.1751288589 -1.191749524e-22)
(99.51277019 -0.1847711861 -1.265473449e-20)
(99.70044293 -0.269119916 1.93591081e-21)
(99.12220773 -0.1114327353 -1.140846789e-20)
(99.3651452 -0.3330831611 -1.920224589e-20)
(99.09302147 -0.2197125746 -1.641559969e-20)
(99.04694059 0.002008766663 -8.932696574e-21)
(98.97340586 -0.1509571953 -3.591557576e-21)
(98.8603757 -0.03332735215 3.701739664e-23)
(98.43452831 0.2101723051 1.459932698e-20)
(98.54174355 0.05846943972 1.490051347e-20)
(98.3157962 -0.007464218396 7.362652003e-21)
(98.16025243 0.1843707166 2.542182905e-20)
(97.57892884 0.5807564232 -1.496924383e-20)
(97.71049748 0.3497335973 -9.945447718e-21)
(97.37991017 0.2738099602 -2.033513506e-20)
(97.22384887 0.6204135201 -2.370041413e-19)
(97.13952981 0.5066091861 2.678570054e-19)
(96.5732747 1.137271774 -3.60205852e-19)
(96.64238574 0.9565776828 3.388442199e-19)
(96.4043998 0.9417849501 5.417446876e-19)
(96.31551931 1.148710832 -5.241457621e-21)
(95.15354819 2.171165662 0)
(95.210304 1.898990584 3.922006382e-19)
(94.87658062 1.90398382 -8.486347417e-19)
(94.79457428 2.217468684 -8.189391522e-19)
(93.30734483 3.871076712 -2.174449567e-19)
(93.33531954 3.451710986 -8.647854993e-19)
(92.82291904 3.498434978 -9.004962287e-19)
(92.75758665 3.988908047 0)
(90.74777784 6.956569443 1.769501148e-18)
(90.65047174 6.246910634 4.084157306e-19)
(89.73553502 6.431693509 1.327298205e-18)
(89.81113552 7.342275684 6.048581636e-20)
(88.05997727 14.09180167 1.28898073e-20)
(87.17361215 12.76909307 1.294033717e-20)
(85.19850097 14.43373421 -2.721655274e-18)
(85.43250828 13.51662254 8.589837528e-21)
(87.15615853 15.76834251 -2.313260952e-19)
(86.05033242 15.81763196 -1.042319887e-18)
(93.76959572 26.29484713 -3.851100866e-19)
(95.23531657 25.780627 -9.550307634e-21)
(94.40241813 28.20650052 -7.806320807e-20)
(96.16556198 27.22773154 -1.494723205e-19)
(109.8634325 21.82425168 -2.487693043e-19)
(109.9181057 19.90260911 3.913501524e-19)
(111.6252794 19.25457734 4.324204872e-19)
(110.8613668 22.50097514 6.98133665e-19)
(112.9738571 21.03450109 -2.445851514e-19)
(112.6139103 21.94620265 -2.453495058e-19)
(111.8050417 12.27057806 8.197654664e-19)
(110.813024 11.27282975 0)
(112.4377939 11.28673967 -8.669172037e-19)
(111.2852123 10.53658421 0)
(108.3556554 6.246375258 -4.982942599e-19)
(109.1631511 6.663374777 -4.288727393e-20)
(109.2343303 6.018332109 -1.846726678e-19)
(108.4155944 5.735256439 -1.718147235e-19)
(105.8050526 3.532076663 -6.196064625e-21)
(106.3514292 3.70339086 6.133833805e-19)
(106.2802217 3.319136235 0)
(105.755846 3.21551248 -5.942069207e-19)
(104.2839754 2.12495542 0)
(103.9443406 2.060464923 -2.766357156e-19)
(104.2097611 1.892625702 0)
(103.8898635 1.848101866 0)
(102.6165961 1.117910408 4.321380509e-21)
(103.0370213 1.162728932 9.48190079e-21)
(102.8888564 0.8560785742 -2.461009205e-21)
(102.5231321 0.8733634883 -4.464777058e-21)
(101.7818057 0.6212789251 4.438293191e-21)
(102.0811521 0.6412653049 -2.317612182e-23)
(101.9592344 0.4342971491 -7.273399267e-21)
(101.6998498 0.452931842 8.963424753e-21)
(100.931258 0.0903190871 -2.053310457e-22)
(101.1797537 -0.01760429987 -2.831703934e-22)
(101.4735814 0.1817132726 8.439421305e-22)
(101.3914056 0.2900608573 6.589169071e-21)
(100.6189067 0.02319150374 -3.33443727e-21)
(100.7540438 -0.05683978456 -2.48492241e-22)
(100.4461516 -2.244897179e-05 2.50109986e-21)
(100.5005367 -0.05505581773 -2.207088309e-21)
(100.378678 -0.02077769729 4.118434425e-22)
(99.99833619 -0.1513198304 1.871995667e-23)
(100.1367638 -0.0958768677 -3.412208686e-21)
(99.84272635 -0.2921339822 -6.284586786e-22)
(100.0305654 -0.2852144621 1.486350872e-21)
(99.56029646 -0.414007787 -4.916240174e-21)
(99.81549264 -0.4638308546 -3.23554366e-21)
(99.09350107 -0.4342834845 1.016233212e-20)
(99.44845355 -0.625513989 -1.120209904e-21)
(99.10713367 -0.5701115074 1.067631991e-21)
(98.96412456 -0.327482621 4.989176108e-21)
(98.94911171 -0.5175692552 1.030813148e-20)
(98.78112506 -0.4182242871 7.279772055e-21)
(98.23751259 -0.2575284173 -2.479509505e-21)
(98.41139614 -0.4013656789 3.863116035e-21)
(98.20467193 -0.5338205791 2.547714083e-21)
(97.97382913 -0.3663394358 7.734852676e-21)
(97.23762249 -0.08654539831 -2.663192041e-21)
(97.46054018 -0.3115192753 -2.943544855e-23)
(97.16105825 -0.4856869742 4.225924099e-20)
(96.86097581 -0.148586224 4.680555405e-19)
(96.82482661 -0.3064272416 -3.589699615e-19)
(96.01172436 0.2290902555 9.475923174e-20)
(96.15120567 0.04746352745 5.127974437e-21)
(95.92494628 -0.04142937511 -8.864673707e-19)
(95.75612071 0.1581024382 8.69826473e-20)
(94.22420733 0.8880972013 -4.137577797e-19)
(94.39352904 0.6073004599 9.319469698e-19)
(94.07628282 0.4948757781 4.072088441e-19)
(93.86336428 0.7981416039 1.780545918e-18)
(91.67146125 1.94603204 -1.225010009e-19)
(91.91687479 1.508419473 -2.074448453e-21)
(91.42845691 1.329432389 5.748222271e-20)
(91.09958068 1.798822109 -2.112818079e-21)
(87.32481896 3.66795168 2.569909692e-18)
(87.77809025 2.883645081 -3.064648701e-20)
(86.92714173 2.48949786 2.067817439e-18)
(86.22612332 3.329492752 1.317422552e-18)
(78.35148095 6.809650836 -3.260119895e-20)
(78.98262586 5.764035421 -3.258991187e-20)
(77.96723797 5.087652339 -1.40059269e-18)
(77.00925082 6.195036062 1.401219598e-18)
(128.3935063 24.08274705 -1.955644069e-19)
(126.3048124 23.0634456 0)
(128.9486748 21.87938203 0)
(126.9554807 21.32126303 0)
(119.6733002 9.924439602 3.622997105e-19)
(117.8241424 9.501238216 -2.962846183e-18)
(119.48131 8.208942358 -1.208267477e-18)
(117.7795808 8.189187314 -1.262904789e-18)
(111.830019 4.587239201 6.614468491e-19)
(112.9355517 4.681280937 -4.562528007e-19)
(112.5849163 3.847970067 1.310652072e-18)
(111.5830566 3.908374137 1.265026233e-18)
(107.595274 2.325699357 -3.370523081e-19)
(108.2555289 2.31463464 -6.849691426e-19)
(107.9638707 1.880263001 -3.477128415e-19)
(107.3705573 1.952126063 -3.35741395e-19)
(105.2895538 1.170537871 1.223517548e-18)
(104.9016141 1.206553423 5.97908278e-19)
(105.1032329 0.9198195038 5.268237186e-19)
(104.7528753 0.9749811695 1.500220052e-18)
(103.1145856 0.5281595848 -4.803926987e-21)
(103.5626838 0.4508426141 -2.355858241e-21)
(103.2811906 0.1444058274 7.582401146e-21)
(102.926172 0.2736381967 1.147932315e-21)
(102.0954933 0.2068696771 -2.012366205e-21)
(102.3976987 0.1412647361 1.349971315e-20)
(102.1919801 -0.05567417863 4.996919434e-21)
(101.9450164 0.03875990454 9.921972664e-21)
(100.9910123 -0.1610446819 -3.444668305e-22)
(101.2049042 -0.3506947707 -1.053457066e-21)
(101.5959584 -0.2088318041 -1.066178814e-21)
(101.5633043 -0.05946459108 -1.177026349e-21)
(100.626697 -0.1329957096 1.075310879e-21)
(100.7274689 -0.2770838893 1.310014944e-21)
(100.4258351 -0.07465189924 -4.253752838e-21)
(100.445443 -0.1787637244 1.66605388e-21)
(100.3082398 -0.06083557455 -2.09995283e-21)
(100.1713992 -0.2282128328 -1.944534541e-21)
(100.3520395 -0.1341210024 1.077747909e-21)
(100.0061751 -0.4525344227 -1.135599859e-21)
(100.2422031 -0.4025541098 -7.962957926e-22)
(99.70710416 -0.6717106278 5.82274e-22)
(100.0222955 -0.6714467122 -2.863188034e-22)
(99.19077575 -0.8060511454 6.665512738e-22)
(99.64671455 -0.9385036712 9.649510432e-22)
(99.25379366 -0.9575579658 5.791208136e-22)
(99.00764873 -0.7231949417 1.686862544e-21)
(99.06472461 -0.9322596235 -1.71369212e-23)
(98.84774932 -0.866424455 -1.71393586e-23)
(98.22246822 -0.8284622079 -2.543728603e-21)
(98.45646204 -0.9402626 0)
(98.29254131 -1.132600086 -1.248261761e-21)
(97.99933693 -1.014356865 -1.330903603e-21)
(97.15607047 -0.9095429718 2.729235883e-21)
(97.46260791 -1.088985666 -4.367150036e-20)
(97.22532921 -1.34338096 -4.500529508e-20)
(96.80009348 -1.068816243 -2.755221445e-20)
(96.82287874 -1.250334987 4.562722387e-19)
(95.82934068 -0.9053165574 -8.397911195e-19)
(96.02812731 -1.057297071 3.693512193e-19)
(95.84899385 -1.203856345 -1.499176746e-19)
(95.60428815 -1.047925713 -4.851988357e-20)
(93.90401383 -0.7504347297 4.620695645e-19)
(94.15749793 -0.9744016439 4.632482005e-19)
(93.92920365 -1.168079618 -1.459076413e-18)
(93.60181368 -0.942741669 9.4330057e-19)
(91.20270247 -0.5828647528 -1.235286932e-19)
(91.60940127 -0.8859394607 -7.68808966e-20)
(91.27862134 -1.189231613 5.15342381e-19)
(90.7973214 -0.9063507131 3.145352314e-19)
(86.96357115 -0.8609681652 -1.080053264e-18)
(87.69974553 -1.233954291 -1.603619529e-18)
(87.25198432 -1.790734383 -5.37267641e-19)
(86.40361026 -1.515123075 -4.052824921e-19)
(80.99961028 -3.230484424 6.276797185e-19)
(81.70131994 -3.264572232 1.232075553e-18)
(81.60686303 -3.812223844 1.226731597e-18)
(80.95410324 -3.895594628 -2.17047695e-18)
(141.4322018 5.038768167 -5.037658357e-19)
(139.6988563 6.16571703 8.752412058e-20)
(139.9690892 3.660858272 1.282648424e-20)
(138.5255408 4.771974452 -2.463769014e-18)
(124.6827666 1.899739571 -4.718923003e-18)
(122.8805765 2.693727387 -4.492697581e-18)
(123.3341454 0.5745440297 -1.667738819e-18)
(121.9270593 1.46956181 -2.430518023e-18)
(114.2234032 0.985418269 7.176507047e-19)
(115.3271128 0.5651844339 6.915448398e-19)
(114.4941509 -0.1067150334 9.400660657e-19)
(113.5817429 0.3733407439 -5.944515643e-19)
(108.7752901 0.2596718546 -3.467594005e-19)
(109.4323219 0.006456716281 -3.486793367e-19)