/*--------------------------------*- C++ -*----------------------------------*\
| =========                 |                                                 |
| \\      /  F ield         | OpenFOAM: The Open Source CFD Toolbox           |
|  \\    /   O peration     | Version:  v1912                                 |
|   \\  /    A nd           | Website:  www.openfoam.com                      |
|    \\/     M anipulation  |                                                 |
\*---------------------------------------------------------------------------*/
FoamFile
{
    version     2.0;
    format      ascii;
    class       volScalarField;
    location    "1.72";
    object      nut;
}
// * * * * * * * * * * * * * * * * * * * * * * * * * * * * * * * * * * * * * //

dimensions      [0 2 -1 0 0 0 0];


internalField   nonuniform List<scalar> 
12556
(
1.155904431
1.155875808
1.155844557
1.155814794
1.156030568
1.156021408
1.15602454
1.156040341
1.156075145
1.156141624
1.156249715
1.156388025
1.156514194
1.156558736
1.156520982
1.156411414
1.156279269
1.156180867
1.156094241
1.156061427
1.155815602
1.155822066
1.155842617
1.155868388
1.155189251
1.15510647
1.155016263
1.154937516
1.155124799
1.155107412
1.155139365
1.155320127
1.155486463
1.155799104
1.15630618
1.156976572
1.157616356
1.157589511
1.157779079
1.157240242
1.156599594
1.156040101
1.155556046
1.155316037
1.154970839
1.154960274
1.155008945
1.155086807
1.154451119
1.154307302
1.15415323
1.154028851
1.154217748
1.154220813
1.154313403
1.154612821
1.155037125
1.155811745
1.157089059
1.063265246
0.9639001039
0.907429705
0.9447761419
1.053766392
1.15759301
1.156329839
1.155290347
1.154731308
1.154189477
1.154122456
1.154178028
1.154298817
1.153697878
1.153497785
1.15329265
1.153144774
1.153321236
1.153381372
1.153592698
1.154127929
1.155032714
1.156868378
0.9300818326
0.7355974363
0.6283120411
0.6244403591
0.6729616657
0.7688754385
0.9326341471
1.157541864
1.155560789
1.154440626
1.153536111
1.153356341
1.153375484
1.153517036
1.152922031
1.152664224
1.152408295
1.152248523
1.152462462
1.152618106
1.15305322
1.153952676
1.155858771
0.9192614077
0.6127459351
0.4430458699
0.3752811822
0.3853622198
0.4485341234
0.5419593061
0.6801334979
0.9122779345
1.156717552
1.154578188
1.153090044
1.15264916
1.152584252
1.152728967
1.152148156
1.151842497
1.151554423
1.151404148
1.151654404
1.151961279
1.15277961
1.154250962
1.10600699
0.6730183106
0.4002016736
0.2444509072
0.1860980807
0.2136663936
0.2889669911
0.3849010891
0.5087895797
0.7015039562
1.022711845
1.155250123
1.152839445
1.152020897
1.151811015
1.151922466
1.151370753
1.151014651
1.150696805
1.150568617
1.150911242
1.151430153
1.152734434
1.155122153
0.9279878522
0.5309208138
0.282512818
0.1232284523
0.06681887069
0.1046805326
0.1895830727
0.2862972367
0.3992352482
0.5628133531
0.8619599986
1.156508617
1.152783918
1.151446892
1.151022032
1.151070294
1.150613689
1.150222106
1.149896401
1.149819354
1.150257606
1.151050397
1.152982737
1.15641754
0.8399202696
0.4903324893
0.2681964651
0.1063245614
0.05769481341
0.1410551044
0.2332804995
0.3376075779
0.4809765718
0.7508391728
1.122633687
1.152970419
1.150978466
1.150253969
1.150202661
1.149888731
1.149456139
1.149126594
1.149109933
1.149721941
1.15083599
1.153492933
1.157928545
0.822879139
0.5274559081
0.3642575755
0.2728679267
0.06718682506
0.1353805895
0.2163824205
0.3116987134
0.4417929515
0.6909881919
1.036066386
1.153355765
1.150615643
1.149534022
1.149358238
1.1492266
1.14877656
1.148455568
1.148535835
1.14931144
1.150782865
1.154200928
1.159487835
0.8418390717
0.5949873865
0.4968943748
0.5624327334
0.09224726452
0.1509980622
0.2240871618
0.3122412163
0.4322868993
0.666091567
0.983343145
1.153981059
1.150462143
1.148973416
1.148647567
1.148620702
1.148137258
1.14783992
1.148069679
1.148959199
1.150871246
1.155037397
1.161030057
0.8714039917
0.6532244877
0.5871200276
0.5918380743
0.1252860274
0.1799192457
0.2484958738
0.3325755189
0.4473562387
0.6714820522
0.9598951211
1.154762526
1.150508859
1.148610599
1.148123806
1.148107145
1.147609872
1.147339766
1.147700938
1.148688655
1.151062661
1.155920309
1.16248274
0.9016546853
0.6864533844
0.5999995262
0.5087856051
0.1626496905
0.2205974787
0.2897345179
0.3715260002
0.4866100844
0.7034404905
0.9685881022
1.155749883
1.150826314
1.148536256
1.147889559
1.147636226
1.147122297
1.146903418
1.147423011
1.148509841
1.151304573
1.156763904
1.163893806
0.9379757336
0.7071701041
0.5650908363
0.4458361976
0.07844377441
0.2090491988
0.2806310009
0.3538612272
0.4370031572
0.5581413246
0.7588123964
1.002507043
1.156785045
1.151324157
1.148682975
1.147898165
1.147265287
1.14674108
1.146565841
1.147194603
1.148484584
1.151781879
1.157859047
1.165229424
0.9966515771
0.75101257
0.5657998329
0.2823720308
0.1388660576
0.3083116809
0.388320391
0.4597681252
0.5371381894
0.6549114015
0.8411651259
1.05889097
1.157845044
1.15200247
1.149058149
1.148152783
1.146914019
1.146374213
1.146236202
1.146979842
1.148454381
1.152096112
1.158522086
1.165939413
1.117436875
0.8672400587
0.6667055104
0.07422679904
0.2002694623
0.4821359117
0.5972719395
0.6368361559
0.6963463906
0.7978193247
0.9659423302
1.156719282
1.158815484
1.152691762
1.149517437
1.148538047
1.146639939
1.146085904
1.145971475
1.146800041
1.148426018
1.152338886
1.159038851
1.1662405
1.165042381
1.083370819
0.8931291221
0.05287846637
0.2090230109
0.4748207207
0.7093224796
0.8911506547
0.9263430447
0.9892987932
1.138959714
1.165568988
1.159664949
1.15337875
1.150055785
1.149010747
1.14634041
1.14576463
1.145657953
1.146570267
1.148358898
1.152473692
1.159368345
1.166333184
1.165694541
1.130398064
0.9259034785
0.1001875169
0.1681190517
0.4383620351
0.6788139436
0.8781854603
1.026641165
1.113772633
1.157294985
1.166190298
1.160309791
1.153950279
1.150523113
1.149448544
1.146092454
1.145497717
1.145382102
1.146333514
1.148224815
1.152477035
1.15946241
1.166238432
1.165433332
1.134601281
0.9655195667
0.196478132
0.1111825752
0.391728427
0.6491314875
0.871978465
1.029005331
1.115415568
1.157936429
1.166507164
1.16074556
1.154400864
1.150952842
1.149865164
1.145779703
1.145161435
1.145022961
1.14600752
1.148009189
1.152339328
1.159313463
1.165772096
1.164037204
1.132755087
0.9744751304
0.2617748905
0.08135020493
0.3634521335
0.6384821805
0.8732663059
1.030873291
1.116358821
1.158142722
1.166528297
1.160941736
1.154665831
1.151235771
1.150151048
1.145507886
1.144873716
1.144703562
1.145673732
1.147707973
1.152064761
1.158935514
1.164918108
1.161936649
1.126785538
0.9455620579
0.2367130462
0.08418414489
0.3619430022
0.6365975555
0.8754686963
1.032424464
1.116807728
1.158014131
1.166314194
1.161006533
1.154864477
1.151475647
1.150393969
1.145144589
1.144494562
1.144289758
1.145250288
1.147332814
1.15166883
1.158355807
1.163724239
1.15911915
1.118632233
0.9052935408
0.210606328
0.0912894769
0.364687502
0.6376400774
0.8778284592
1.033583358
1.116902452
1.157640616
1.165925247
1.160892538
1.15489984
1.151563928
1.150488129
1.14482665
1.14417186
1.143935175
1.14485049
1.146899778
1.151176674
1.157609879
1.162266164
1.155724389
1.108152589
0.8516417071
0.1884280969
0.1007380366
0.3706326752
0.640666507
0.8792242486
1.034210326
1.116721818
1.15709386
1.165414128
1.16073495
1.154927936
1.151644487
1.150565114
1.144401141
1.143743225
1.143480237
1.144373083
1.146431082
1.150617859
1.156737507
1.160605707
1.151888778
1.095391762
0.7934666866
0.1704634828
0.1113812262
0.3774817737
0.6440484638
0.879610003
1.034202185
1.11629029
1.156419988
1.164822619
1.160454764
1.154818052
1.151582326
1.150496698
1.144037105
1.143386811
1.143105181
1.143949981
1.145939625
1.150017771
1.155773868
1.15878322
1.147626467
1.079582501
0.7411131197
0.1568263782
0.1220273131
0.384219943
0.6472624433
0.8793858278
1.033583157
1.115610264
1.155645327
1.164180263
1.160199093
1.154755896
1.151559572
1.150456538
1.143556772
1.142914208
1.14261997
1.143447726
1.145438556
1.149392651
1.154742429
1.156816811
1.14282238
1.059888918
0.6963510259
0.1454986149
0.1321929224
0.3905991664
0.6502317769
0.8788491358
1.03248601
1.114698071
1.154788924
1.163507775
1.159842775
1.154561567
1.151396935
1.15027476
1.143158242
1.142532292
1.142233215
1.143020813
1.144929114
1.148750473
1.153654496
1.154705405
1.13730733
1.036833849
0.6578685902
0.1363496007
0.1416105332
0.3965967019
0.6529660808
0.8781605052
1.03106532
1.113590759
1.153869428
1.162819501
1.159557912
1.154460998
1.151320402
1.150170158
1.142639915
1.142028384
1.141727057
1.142504052
1.144418229
1.148093971
1.152513437
1.152435117
1.130880399
1.011946502
0.6243087677
0.1290688815
0.1501293067
0.4022149016
0.6554893983
0.8774055639
1.029449174
1.112334284
1.152905619
1.162126151
1.159168495
1.154217102
1.151095291
1.149918165
1.142218246
1.141628726
1.141333188
1.142079993
1.143902016
1.147423608
1.151317932
1.149981841
1.123395323
0.9865842917
0.5947443799
0.1232841937
0.15781409
0.4074982727
0.6578302753
0.876634679
1.027731579
1.110973116
1.151914307
1.161435269
1.158889624
1.15410793
1.150999248
1.14978835
1.14168375
1.141111872
1.140820131
1.141557145
1.143387063
1.146738771
1.150063633
1.147309074
1.114817704
0.9615302244
0.5684682194
0.1186531399
0.1647817614
0.4124794966
0.6600282232
0.875884343
1.025978492
1.109545626
1.150909375
1.16075224
1.158488004
1.153836781
1.150739895
1.149499294
1.141241834
1.140694965
1.140416714
1.141135609
1.142867691
1.146038884
1.148743517
1.144374638
1.105221353
0.937178007
0.5449606035
0.1148969497
0.1712148162
0.4172156127
0.6621317291
0.8751838509
1.024234498
1.108082539
1.149901572
1.160081256
1.158231222
1.1537324
1.150642272
1.149365812
1.140720837
1.14019235
1.139920952
1.140623513
1.142351128
1.145322573
1.147348287
1.141131209
1.094743678
0.9137007108
0.5237685331
0.1120464158
0.1772740193
0.4217766323
0.6641861589
0.8745532524
1.022529295
1.106607982
1.148899101
1.159423943
1.157834322
1.15345686
1.150375805
1.149070464
1.140244528
1.1397429
1.139490155
1.14018932
1.141830718
1.144588706
1.145866595
1.137548059
1.08355088
0.8911862475
0.5045941389
0.1099382964
0.1830882155
0.4262113973
0.6662158344
0.8740017506
1.020882479
1.105140926
1.147908224
1.158784008
1.157595256
1.153349719
1.150272541
1.148931047
1.139782364
1.139298004
1.139054152
1.13972617
1.141312908
1.143835046
1.144285345
1.13359477
1.071808742
0.8696514056
0.4872321111
0.1083645155
0.1887470057
0.4305381916
0.6682301012
0.8735337359
1.019307454
1.103695493
1.146933608
1.15815846
1.157237855
1.15310909
1.150039472
1.148672842
1.139231888
1.138776115
1.138553388
1.139229941
1.140794496
1.143062451
1.142593185
1.129262661
1.059668408
0.8490993568
0.4714837729
0.1072452742
0.1942923694
0.4347714593
0.6702445812
0.8731549747
1.017814787
1.102284487
1.145981444
1.157556351
1.156968173
1.152957547
1.149892496
1.148489369
1.138892507
1.138451736
1.138239893
1.138897341
1.140283933
1.142277089
1.140792793
1.124555626
1.047256289
0.8295108909
0.4571634295
0.1065453988
0.1997319175
0.4389221348
0.6722680637
0.872869731
1.016412126
1.100917756
1.145068142
1.156977129
1.156745762
1.152823541
1.149763174
1.148341349
1.138187579
1.137782153
1.1375972
1.138246965
1.139819011
1.141511333
1.138945797
1.119497627
1.034740195
0.8109831153
0.4440988869
0.1064432608
0.2050570487
0.4429739158
0.6742939462
0.8726677609
1.015100351
1.09959892
1.144254105
1.156483433
1.156403391
1.152627271
1.149575272
1.148111838
0.2375936285
0.05955096273
0.0502703333
0.5437644138
0.08386991234
0.06235279268
0.6016989754
0.1178052297
0.08784917547
0.5178950737
0.1491432693
0.1228598645
0.4515128662
0.05842012398
0.0736041553
0.1835889247
0.153056368
0.3334077932
0.09940831594
0.06013343857
0.1253166112
0.2486274425
0.1867428942
0.1023929307
0.06811306067
0.05211281717
0.09901761905
0.03031158303
0.02132934842
0.06483137143
0.1150627686
0.1208481098
0.4653681325
0.5154743659
0.28272255
0.04488324783
0.05001277137
0.08888262181
0.1291899183
0.1169013913
0.571649767
0.6842403168
0.5384258546
0.6193443019
0.2268393163
0.2644616256
0.07412874911
0.05484427882
0.1210660631
0.1568296868
0.135122643
0.602042914
0.6234524822
0.6921496567
0.5610873217
0.1364682502
0.1842530471
0.1267426037
0.09768574291
0.5735324833
0.5389139198
0.6141892023
0.492183044
0.07529167349
0.1025859838
0.02424511916
0.1401944168
0.1347147681
0.5564916594
0.3845065873
0.5276934919
0.4047421057
0.0278658656
0.04670638078
0.2600929055
0.1486010448
0.1133281539
0.08341976502
0.2299593292
0.03850188355
0.07447759015
0.04839841779
0.03158680639
0.0521383823
0.03342408749
0.04650363151
0.2698675488
0.3105040586
0.4406070971
0.2367379507
0.2117132498
0.286935688
0.241546121
0.05436690011
0.0446777077
0.07360853474
0.06364995221
0.07076726418
0.04767594059
0.06398108394
0.07216058283
0.1878651465
0.2215104522
0.631065381
0.1686029063
0.1374379074
0.209148611
0.1712287645
0.0935774304
0.07575097002
0.1050035098
0.09750232225
0.115194807
0.0713818274
0.09431008467
0.100494231
0.104182644
0.134493525
0.5507026284
0.1059020496
0.07769973674
0.1357005231
0.1074743523
0.133808278
0.1276887052
0.04767514841
0.07340798834
0.4893717205
0.01651632048
0.05038059619
0.02965339661
0.07654158486
0.05197522413
0.014340882
0.1457048671
0.1416437908
0.02744598791
0.004667674815
0.02753057682
0.3985402199
0.08399648356
0.01735147837
0.009495017328
0.02931243546
0.01768385681
0.08231954641
0.3325982551
0.2500933672
0.1247042325
0.1385070689
0.08325130589
0.04589090726
0.01652847965
0.009087189954
0.3991176763
0.3161486718
0.2536420249
0.009609978785
0.155492062
0.193248634
0.1652046638
0.009894243597
0.08065977451
0.07086396789
0.09587799646
0.1612902866
0.1491769554
0.2182305233
0.09331342455
0.1575615147
0.04310681434
0.01476611115
0.02571554257
0.02449436924
0.03172580629
0.05082325516
0.06879130416
0.05036217308
0.1377624843
0.1273726957
0.1357078112
0.1164366997
0.1261464632
0.1344454299
0.03939301422
0.01150466154
0.07147673389
0.02686815728
0.0466193399
0.03743169381
0.02172823123
0.03440101575
0.02557763359
0.01521065549
0.02444067395
0.02171457388
0.01090236183
0.01759811313
0.02315062197
0.05613332884
0.05698406706
0.06475804105
0.06340981735
0.02471772971
0.01127258278
0.1147289664
0.0208781919
0.03933388146
0.01025927857
0.01764184174
0.1102811396
0.09051301345
0.2736257719
0.2578267818
0.100454764
0.08576464458
0.01029908095
0.04170170592
0.1910245536
0.1763263179
0.2114972212
0.197006083
0.04209252087
0.05454247619
0.04346289632
0.1260989064
0.07186933306
0.06893467379
0.04062228313
0.07118117015
0.1437102164
0.04721993993
0.02701135289
0.01689432842
0.06037956147
0.03001646259
0.05242507674
0.02849574021
0.07377715184
0.03909823936
0.03873868671
0.2302229055
0.03018489538
0.2290747741
0.26692988
0.0345192052
0.03944040624
0.03067261736
0.03392745022
0.2604337651
0.05231392098
0.05194256663
0.06774423949
0.07013024812
0.06546832989
0.07668980897
0.0717320274
0.06809548011
0.05778777626
0.05795711476
0.05293966719
0.06380052448
0.05933476519
0.05937806539
0.153136839
0.1511268922
0.19137168
0.1890029313
0.08876225816
0.009978984702
0.0871354082
0.09521922103
0.09320315904
0.120831341
0.1189215799
0.04206530355
0.0616249544
0.131808345
0.04693367079
0.02665696632
0.06391925082
0.2320169932
0.2168061106
0.2525514294
0.2371013011
0.06528350661
0.0357160102
0.04580486612
0.04479917002
0.06890748213
0.06800328261
0.006642401151
0.04786180019
0.1198803984
0.1054975397
0.170591876
0.159453968
0.02177888881
0.01123189561
0.02912146584
0.01899215889
0.02784004918
0.01044677163
0.0174569972
0.01087384129
0.02786808695
0.07639263573
0.01228341183
0.02555746027
0.003620245869
0.0253002096
0.01877904903
0.6251660235
0.3706903444
0.3640190635
0.2450622795
0.007943047292
0.005293395558
0.1934467629
0.4078438163
0.2803425065
0.00626842336
0.01616711097
0.0116652431
0.1230917494
0.1224353043
0.05185667137
0.2007938213
0.1674940865
0.099305892
0.01085811776
0.01883257124
0.01475441243
0.00943092882
0.01429334947
0.010091819
0.04818324834
0.02148295596
0.02016640065
0.0547325149
0.06963481342
0.02154365854
0.02944100715
0.01363142188
0.01348993867
0.05710819646
0.1532953659
0.3583861819
0.3420499842
0.3805415712
0.3638871385
0.157135894
0.2944387732
0.2786610493
0.09193047399
0.03070092326
0.09241294879
0.08677005772
0.01020356974
0.01624792251
0.1235429256
0.04465529091
0.02422319172
0.02168213422
0.03863722257
0.04523342915
0.04112010897
0.05138983031
0.04665950457
0.03975988395
0.05331943046
0.01428492803
0.01371497753
0.04654814316
0.2020244549
0.402998055
0.3860832325
0.05867159138
0.06083781938
0.1432400262
0.03124403409
0.03407839707
0.08022646932
0.1070022978
0.1049935667
0.09702348004
0.07896289968
0.08448854584
0.07861087634
0.09412151603
0.0868146933
0.08030647316
0.1192847425
0.3154462093
0.2996217779
0.3366804691
0.320747613
0.1213488428
0.1013884748
0.03472523152
0.03544597237
0.01998490925
0.02076102151
0.08247391856
0.1295379799
0.05420266279
0.05823437824
0.03575490725
0.03642683116
0.1122163753
0.1330426524
0.06454107668
0.08515886357
0.006819352473
0.02416143114
0.04801846561
0.03622474391
0.07320779804
0.01937324103
0.01984627485
0.01894878599
0.06136835811
0.0107178406
0.004391457149
0.119637406
0.0997698583
0.08481676674
0.08022938053
0.02711551239
0.02772553257
0.04080834492
0.08911716636
0.01713561389
0.01062399282
0.026048384
0.03388142941
0.002895005094
0.02880699577
0.01866133572
0.01281610139
0.006524956045
0.01261947902
0.009766490616
0.009617560409
0.03755499439
0.0284231795
0.006605661648
0.03925615572
0.04127266997
0.01708237158
0.0114497898
0.008135228889
0.01184140184
0.01867849029
0.01183764528
0.0171099643
0.05890277629
0.01034360219
0.009428126067
0.01100660703
0.014907098
0.04758259686
0.01086061368
0.01014396602
0.01512413647
0.01098658788
0.01048353056
0.02599274793
0.01729486808
0.03689199476
0.02912711328
0.01041596717
0.02280158023
0.02228593105
0.01932578783
0.03086588811
0.02367976479
0.0189083077
0.01700579827
0.0132495118
0.01856052919
0.01447270908
0.05077964034
0.05650765389
0.01982395232
0.01865061689
0.0200547416
0.02082221948
0.06805108667
0.01187746051
0.01227764259
0.01625807464
0.01212102123
0.01245880343
0.05859570802
0.0129518922
0.01959324321
0.01662457909
0.01467326967
0.02783998368
0.07218123185
0.06601377682
0.01345106477
0.05511887011
0.04759914576
0.06375569844
0.05768051558
0.01428582108
0.01311297307
0.05032158955
0.04123858549
0.1014815785
0.09447108392
0.03420461278
0.04425836709
0.1093473291
0.1034251536
0.04797550435
0.04683044139
0.0752982443
0.09650604396
0.1242432775
0.0716879962
0.08992231527
0.07659855308
0.06421828959
0.1635057548
0.1472131315
0.139405721
0.1681659307
0.06413729769
0.04347397178
0.05241643235
0.06571916676
0.03792856458
0.04287812944
0.03331323974
0.0316863025
0.04338117454
0.02315812823
0.0232381064
0.01852598151
0.03306387753
0.03254883724
0.02408836888
0.03335045133
0.03539237894
0.03754297246
0.03487227797
0.02820482461
0.1017261366
0.08745091624
0.1099160976
0.1048074955
0.02941712925
0.07726675481
0.07452372778
0.08340802857
0.07825890695
0.0363190393
0.1326352578
0.1262641686
0.1432382802
0.1349393602
0.03702829938
0.03196666187
0.1168023124
0.1117233733
0.1242595481
0.1186063537
0.0323635634
0.01523001778
0.01456572939
0.0530351664
0.04838739412
0.01517422771
0.01545725994
0.04176710152
0.04092423936
0.04409707134
0.04205673022
0.03940749218
0.03829068018
0.04064987165
0.03969189607
0.07042257666
0.06809402414
0.07367868096
0.07124730938
0.06184546327
0.04696629553
0.06711307818
0.06470468879
0.03495604681
0.02950133249
0.0454095406
0.03792321906
0.009586470203
0.0185804153
0.01733597116
0.02750665418
0.01934151537
0.03375119111
0.03436880928
0.09985242362
0.01993860349
0.01973662981
0.02059079551
0.02012619697
0.01910314409
0.08501931216
0.02133427076
0.03172207254
0.03857748634
0.0522067249
0.1274209833
0.03529454905
0.02272102541
0.03814491462
0.03513811571
0.02137346904
0.02083068493
0.02230938915
0.02160347395
0.1138369847
0.03665833262
0.03753908512
0.006804918431
0.0382302173
0.009454422512
0.01041580436
0.00945222652
0.03536026879
0.0069677262
0.02714955422
0.009988233468
0.01060274217
0.04735021664
0.04087472634
0.01878384146
0.01926699285
0.07219556888
0.06362594853
0.01792040919
0.0187146347
0.009704332269
0.02603454457
0.07743624089
0.06857831549
0.01147010394
0.01108960952
0.01634094803
0.01076056144
0.0113775353
0.02395250632
0.02869067059
0.007267656904
0.01318357282
0.01050791617
0.01191138952
0.01944937804
0.05972594097
0.1277903549
0.1665190212
0.009615697466
0.009597638522
0.1910781777
0.2450240908
0.2044634651
0.006642465311
0.05023873707
0.01680567166
0.02493740914
0.1401779382
0.1458731835
0.1631892136
0.005248181736
0.00843241306
0.006148910811
0.005062650747
0.006315212494
0.004982845526
0.06423771333
0.0406341964
0.0250211988
0.02731013307
0.02398500244
0.02755444227
0.2429534991
0.4486284466
0.4314505558
0.4715545901
0.4543506277
0.248280041
0.06166470118
0.05344142665
0.015143453
0.09007576728
0.1045900163
0.1371301665
0.1172863069
0.1112367011
0.04475320006
0.02910527983
0.03475474898
0.03402446162
0.4257308451
0.4086362467
0.2066645437
0.1615995276
0.06724941004
0.07153365964
0.07497475838
0.08711995273
0.1792295088
0.05533308735
0.1263685612
0.1193873818
0.01095918932
0.01134451314
0.01875185472
0.01850465843
0.01877836346
0.03045705189
0.01250191692
0.009893628301
0.01022867068
0.0363111987
0.07362191893
0.06400164874
0.01732062732
0.02909073323
0.01809553178
0.01825158312
0.01768970478
0.01416650214
0.00996882392
0.01332046749
0.01197199645
0.009927308734
0.03121372801
0.03943697351
0.0800572551
0.041498451
0.03984257906
0.03635753278
0.02681816713
0.06156579165
0.0200660956
0.02817414188
0.0103580015
0.007171039418
0.007239294561
0.01063052002
0.01020884616
0.02607896709
0.01646483524
0.01102970716
0.0212233807
0.02022083103
0.01869095034
0.02192288021
0.02666414775
0.02256910623
0.01231553927
0.01339886198
0.007836454225
0.009604295596
0.01277636952
0.08077165343
0.07424768045
0.03040398547
0.009916102001
0.01858864485
0.01666244553
0.01124945363
0.01835570671
0.01557326085
0.05193625374
0.03904550252
0.04466245104
0.07314603233
0.1072513986
0.1052004989
0.0424424561
0.07193710192
0.06747143828
0.1037484306
0.1009975036
0.06912409804
0.03920509005
0.04749352809
0.03975305016
0.03040314201
0.03203950037
0.02597354341
0.05145921657
0.04964431089
0.05911546981
0.0223912831
0.03290876496
0.03118548021
0.05306119809
0.05261976686
0.02990650104
0.02729829001
0.02685579836
0.0301105023
0.02936028537
0.03516065809
0.06068346617
0.05989693131
0.06544870299
0.06443986933
0.03854481332
0.03104825476
0.05456830003
0.05394477296
0.05909177292
0.05830618706
0.03338492137
0.06425967982
0.066435607
0.1594230456
0.1451086295
0.06148582061
0.06357373036
0.09528056315
0.09917070379
0.1988867385
0.02517884739
0.02503989473
0.02660093214
0.0263749064
0.01905099199
0.02474971234
0.02465298486
0.1816734354
0.08970207709
0.09383506076
0.01035958576
0.01047909665
0.01597586321
0.01517924462
0.01003645618
0.01040095933
0.01003592734
0.08181401741
0.0354311829
0.04343991474
0.1354816747
0.1286992508
0.05856203859
0.06838186347
0.1437020164
0.1375155236
0.02982000111
0.02989050596
0.04617511791
0.04445041481
0.02943364315
0.02940100088
0.009778498285
0.0207100865
0.03264248813
0.03253532452
0.008052670582
0.01331638802
0.02635509205
0.01190027564
0.01185625975
0.01724571132
0.01748515573
0.02827811913
0.0106581275
0.007548481903
0.01054060582
0.01065938813
0.02640176362
0.01677954382
0.01734966523
0.01695132809
0.0468889784
0.0395052845
0.009778118191
0.009853493039
0.01132597071
0.01201302344
0.02084145057
0.006949223164
0.004641104944
0.008553750421
0.01394082915
0.00951478664
0.01054200743
0.009463048929
0.009767818898
0.01230753087
0.01116539355
0.007389839021
0.005474404957
0.01842491749
0.01901447028
0.01774227144
0.01797727628
0.02089292739
0.03144921148
0.03188225655
0.03086876473
0.0312674078
0.0206975574
0.01338463215
0.02396572204
0.0239086643
0.02475298427
0.02412498283
0.0131150936
0.02309333154
0.0350635076
0.03874533004
0.03223843304
0.03322437657
0.02240117387
0.01421026911
0.02391094673
0.02387975348
0.02386074036
0.02389758613
0.01396714342
0.01704099164
0.01745351396
0.01647488098
0.0172216794
0.03488240628
0.05410837286
0.05361809381
0.02022861097
0.03344808971
0.03320499125
0.03471784804
0.03379160167
0.02041877407
0.01009849688
0.009869322414
0.01030922487
0.0100713682
0.01879348782
0.0186138408
0.01918698966
0.01898527096
0.01467015089
0.03239424812
0.01934876922
0.02022930082
0.01954881971
0.03273979345
0.03252393534
0.03305810514
0.0328793222
0.01967370581
0.02004365458
0.01947531913
0.02929869349
0.02097483378
0.01504416301
0.006783879932
0.009891439366
0.01130401269
0.006653270634
0.03900689134
0.02681823138
0.003063008022
0.0271121413
0.04151939029
0.04113149619
0.01709000078
0.01052762579
0.00768180809
0.004323271303
0.01118446374
0.0112000537
0.01789170683
0.01803460387
0.02900804844
0.0180983099
0.009022728593
0.007979855056
0.01523729407
0.004056363226
0.009517476056
0.00737449433
0.005111396751
0.006409104007
0.009702458481
0.008639476508
0.009654845797
0.01130225936
0.01028792169
0.04124705102
0.03096200364
0.00897176646
0.01112248545
0.01258193336
0.01866653988
0.0210479668
0.01349478685
0.01672177899
0.01446954645
0.009662639549
0.006680543721
0.009747863902
0.01026313468
0.00690771913
0.01017730311
0.01018502426
0.0130969053
0.0106927155
0.01074273247
0.01034767663
0.01011641881
0.01190540902
0.01134935514
0.01079854941
0.01043023733
0.01082317183
0.0134499565
0.01237232549
0.02787283836
0.02198690163
0.02455331093
0.02747234449
0.030998815
0.02765501314
0.02565130632
0.02752068346
0.01765977523
0.02791430961
0.02961224143
0.02033758537
0.02804719397
0.01874880305
0.01941126144
0.03027711667
0.03068254708
0.02961013804
0.0301407505
0.01917151434
0.02028374966
0.03557247597
0.03502578705
0.01205891156
0.01216493284
0.01394429268
0.01084340978
0.01121913803
0.01166651991
0.01237246278
0.01189154679
0.01565798174
0.02959824966
0.02647073445
0.03413409493
0.03243310117
0.0183297809
0.009503019696
0.01095558825
0.01976531868
0.007331717184
0.00948317943
0.00948549211
0.01400900514
0.009591364635
0.009847215769
0.02448076602
0.02172588839
0.01155784688
0.04964966609
0.0454108285
0.09134026238
0.0804546484
0.04464962869
0.06876712869
0.09971373156
0.09493593637
0.03734698056
0.03390548026
0.03412837886
0.02352875247
0.02880703333
0.04986899467
0.04982619988
0.04177155197
0.0332221562
0.04427914814
0.04238429077
0.04285621777
0.04426422029
0.03141154991
0.02204362745
0.02349288799
0.03517858565
0.02508774931
0.02396189073
0.02657543318
0.02534503833
0.03436715275
0.02465915291
0.02526162707
0.0203409358
0.02628398009
0.04791096639
0.04813695332
0.02976553224
0.02936743656
0.05141223892
0.05140148306
0.0280430204
0.02761604188
0.02887626801
0.02841786012
0.06215476473
0.06138578337
0.0356271205
0.03777944934
0.0636643079
0.06291286096
0.05606001235
0.05538212481
0.03156451541
0.03281609151
0.05750463421
0.05677999556
0.01491677483
0.02389796902
0.02389141187
0.02392630233
0.02393046404
0.01482621876
0.01565282917
0.02208739037
0.01924597715
0.02373982455
0.02328687758
0.0155486635
0.041471709
0.02384263983
0.02411641847
0.02342768858
0.0236294634
0.04120482839
0.04292086819
0.02504995552
0.02551494381
0.02437824402
0.02469052627
0.04240500105
0.03899746536
0.0222164594
0.0224580278
0.02185278081
0.02208382267
0.03875642857
0.04034647815
0.02304075058
0.02322778233
0.02261841318
0.02285540447
0.04005848447
0.02563395583
0.02545160263
0.06965440631
0.04523604851
0.04559435547
0.04444834091
0.04475548781
0.06879355737
0.02609947944
0.02589105947
0.02353111172
0.02478935352
0.05957267989
0.04041859307
0.04008956467
0.02639133669
0.02778291939
0.05264409738
0.0665725511
0.04366398729
0.04387983366
0.0428665952
0.04280913945
0.06513273119
0.02430865229
0.02436446778
0.01029888186
0.01069464108
0.009887704027
0.01426805085
0.01217624254
0.01816607114
0.01110835855
0.01095176516
0.01119987409
0.01117414332
0.01783948518
0.02459064491
0.01286552373
0.01513449657
0.01123134003
0.0107974901
0.02127828088
0.03369794019
0.051424618
0.05110295549
0.0528842871
0.05251024569
0.03426673363
0.01989715566
0.01966430676
0.02047005941
0.02019508711
0.02023268712
0.01587602313
0.02241053874
0.04164063973
0.03697847698
0.04889342976
0.04708334508
0.03177970506
0.02456719071
0.01726638318
0.02207785924
0.02340268508
0.0374364515
0.02151144815
0.02179465296
0.02088533367
0.02157560106
0.03750070896
0.0212080911
0.02097624497
0.02204859419
0.02179765537
0.009724326548
0.01373353428
0.01297083599
0.01852540723
0.01536314306
0.009592200093
0.00944181729
0.009739626798
0.01200170676
0.01072202536
0.006975562646
0.01018940747
0.01126596442
0.01103412387
0.01390879245
0.01228992282
0.009964062047
0.01820006574
0.01816432543
0.01842696769
0.01837312766
0.02792273597
0.02783614841
0.04251472317
0.01744196244
0.01841968953
0.01794458441
0.0180080201
0.01899411454
0.03196585747
0.03162699724
0.03237598218
0.03210565782
0.01907533147
0.01844744211
0.03094614056
0.02922332584
0.03149427903
0.03095591168
0.01843950231
0.01002033083
0.03953684866
0.03891761831
0.02590127801
0.01146616468
0.009990353631
0.01016376892
0.007391438354
0.01031882324
0.01108672912
0.01690889688
0.01099647294
0.01169066476
0.01136759635
0.02840301967
0.01758890223
0.0177854966
0.01037413425
0.01061561544
0.01056017916
0.01079640013
0.01099411484
0.007612898702
0.007562900414
0.01136360269
0.01055584782
0.0108938337
0.01428848816
0.01756680206
0.0264961438
1.154772362
1.15500954
1.155435065
1.155116207
1.155560109
1.155706788
1.15574595
1.156473412
1.156165845
1.156750588
1.157772783
1.156807953
1.153693439
1.038348209
1.157471563
1.039012937
0.978927747
1.157874503
0.9749340592
0.9978823486
1.15789568
1.010686402
1.093812912
1.157382108
1.123172581
1.157531326
1.156749682
1.157223212
1.156408895
1.156164218
1.154223095
1.154737342
1.154903899
1.154975624
1.15597024
1.15557836
1.156430058
1.098070866
1.156703941
1.024829467
0.8508993655
1.112563037
0.8079942592
0.7192821328
0.9741849509
0.7024181955