/*--------------------------------*- C++ -*----------------------------------*\
| =========                 |                                                 |
| \\      /  F ield         | OpenFOAM: The Open Source CFD Toolbox           |
|  \\    /   O peration     | Version:  v1912                                 |
|   \\  /    A nd           | Website:  www.openfoam.com                      |
|    \\/     M anipulation  |                                                 |
\*---------------------------------------------------------------------------*/
FoamFile
{
    version     2.0;
    format      ascii;
    class       surfaceScalarField;
    location    "2.73";
    object      meshPhi;
}
// * * * * * * * * * * * * * * * * * * * * * * * * * * * * * * * * * * * * * //

dimensions      [0 3 -1 0 0 0 0];
oriented        oriented;


internalField   nonuniform List<scalar> 
25162
(
0
0
0
0
0
0
0
0
0
0
0
0
0
0
0
0
0
0
0
0
0
0
0
0
0
0
0
0
0
0
0
0
0
0
0
0
0
0
0
0
0
0
0
0
0
0
0
0
0
0
0
0
0
0
0
0
0
0
0
0
0
0
0
0
0
0
0
0
0
0
0
0
0
0
0
0
0
0
0
0
0
0
0
0
0
0
0
0
0
0
0
0
0
0
0
0
0
0
0
0
0
0
0
0
-5.329300536e-09
-9.356689429e-08
1.04775752e-06
0
9.270443944e-09
-8.907131603e-07
0
0
0
0
0
0
0
0
0
0
0
0
0
0
0
0
0
0
0
0
0
0
0
0
0
0
0
0
0
0
0
0
0
0
0
0
0
0
0
0
0
0
0
0
0
0
0
0
0
0
0
0
0
0
0
0
0
0
0
0
0
0
0
0
0
0
2.47538231e-08
1.607160792e-06
-2.265913873e-06
-1.017103015e-05
8.761663927e-06
8.981753606e-05
-2.015346994e-05
-0.0001269789562
1.08540924e-05
0.0002350776378
-1.801032826e-05
-0.0002631196792
-2.470500383e-06
0.0003037902199
5.477679333e-06
-0.0003004177935
-1.170021338e-05
0.0002409754349
2.169806339e-05
-0.0002077471876
-5.397933149e-06
9.304209905e-05
1.466116917e-05
-5.811422017e-05
0
1.733220848e-06
3.426949849e-07
0
0
0
0
0
0
0
0
0
0
0
0
0
0
0
0
0
0
0
0
0
0
0
0
0
0
0
0
0
0
0
0
0
0
0
0
0
0
0
0
0
0
0
0
0
0
0
0
0
0
0
1.202045314e-06
3.573378178e-06
-6.166198824e-06
-2.549928885e-05
4.347955992e-05
0.000222239863
-6.748203452e-05
-0.0003176111053
7.474969396e-05
0.0006343510332
-9.637300291e-05
-0.0007374154567
3.91358541e-05
0.0009959466943
-4.345425058e-05
-0.001057641923
-2.822993305e-05
0.00114883327
4.121072897e-05
-0.001145358254
-7.148513554e-05
0.001031284646
9.442056877e-05
-0.0009605469117
-6.578453014e-05
0.0006724901006
8.931191761e-05
-0.0005607082703
-2.537276437e-05
0.0002354382474
4.177537873e-05
-0.0001465887495
0
3.655563549e-06
9.762026285e-07
0
0
0
0
0
0
0
0
0
0
0
0
0
0
0
0
0
0
0
0
0
0
0
0
0
0
0
0
0
0
0
0
0
0
0
0
0
0
0
0
0
0
0
0
0
-3.992186451e-07
-1.406917602e-06
5.086242715e-05
0.0001708207443
-7.499895342e-05
-0.0002918899769
0.0001566903828
0.0007704299051
-0.0001882743099
-0.0009490565022
0.0001565741863
0.001463771103
-0.0001724458677
-0.001613185076
4.355647245e-05
0.001954855864
-3.996198801e-05
-0.002029371189
-9.116429485e-05
0.002135693377
0.0001082091664
-0.002133402863
-0.0001754301749
0.002009669772
0.0002034836951
-0.001926624001
-0.0001728033699
0.001547501943
0.0002030655116
-0.001382317809
-0.0001233334177
0.0008556027431
0.0001519186655
-0.0006750189741
-2.590158204e-05
0.0002034389669
3.976281407e-05
-0.0001012292277
0
0
0
0
0
0
0
0
0
0
0
0
0
0
0
0
0
0
0
0
0
0
0
0
0
0
0
0
0
0
0
0
0
0
0
0
0
0
0
0
0
0
1.237684495e-05
2.06185105e-05
-2.030011069e-05
-8.88846919e-05
0.0001576443982
0.0005370833396
-0.0001851157851
-0.0007456327839
0.0002947554558
0.00146576183
-0.0003077577147
-0.001710139535
0.0002077812127
0.002286756634
-0.0002335584685
-0.002409029956
2.725369875e-05
0.002660014246
-2.815955086e-05
-0.002693343949
-0.0001435835803
0.002725245953
0.0001468508494
-0.002724667924
-0.0002843668857
0.002691177289
0.0003018994463
-0.00264545715
-0.0003583829052
0.00240421074
0.0003797244937
-0.002229343653
-0.0002076141145
0.001553411999
0.0002314451653
-0.001310244621
-8.716794861e-05
0.0005987874232
0.0001032230584
-0.0003995899171
2.738670404e-05
-2.788085072e-06
4.844681733e-06
-4.188588962e-07
0
0
0
0
0
0
0
0
0
0
0
0
0
0
0
0
0
0
0
0
0
0
0
0
0
0
0
0
0
0
0
0
0
0
0
-3.515540428e-07
-1.576479715e-08
-6.025046836e-07
4.685886848e-05
0.0001063829102
-5.679293008e-05
-0.0002393201429
0.0002589573316
0.0008818689104
-0.0002717510524
-0.001165157551
0.0003461730522
0.00199548981
-0.0003576660305
-0.002240241446
0.0002359126695
0.002785647992
-0.0002103916632
-0.002897933742
6.91822332e-05
0.002996777671
-9.776271929e-05
-3.981918112e-05
-0.001441848047
-0.001486529957
0.001433381281
-6.816635814e-05
6.842951133e-05
-0.001433644434
0.001477380441
-0.0003865196594
-0.002975261246
0.001510474023
0.0001764935878
0.0001974328535
0.002811314524
-0.0003900305455
0.0004088821134
-0.002700772769
-0.0003005915178
0.002116632447
0.000319032792
-0.001854022411
-0.0001451868652
0.0009912980252
0.000157612688
-0.0007288854325
0.000146176519
-2.070769141e-05
2.656381959e-05
-4.643159139e-05
0
0
0
0
0
0
0
0
0
0
0
0
0
0
0
0
0
0
0
0
0
0
0
0
0
0
0
0
0
0
0
0
0
1.471044372e-06
0
-3.139523539e-06
-5.623407695e-06
-8.648446255e-06
7.743250713e-05
0.0001832168522
-7.993729648e-05
-0.0003583937142
0.0003105887084
0.001135408102
-0.0003153067359
-0.001442115963
0.0003724662113
0.002331518638
-0.0003721418774
-0.002579108372
0.0001890636636
0.003036960082
-0.0001835823462
-0.003071732163
2.024976787e-05
0.001552596506
-2.279791021e-05
-0.001550048364
0.00153794648
-0.000157912689
0.0001555738638
-0.001535607655
0.003045201285
-0.0004399721579
0.000446185852
-0.002982722438
-0.0003501954965
0.002454626115
0.0003566271367
-0.002189402061
-0.0001855776213
0.001274945549
0.0001913498331
-0.0009743432961
0.0002648470921
-3.98341359e-05
4.556404723e-05
-0.0001161026039
0
0
0
0
0
0
0
0
0
0
0
0
0
0
0
0
0
0
0
0
0
0
0
0
0
0
0
0
0
0
0
0
0
4.065076997e-06
0
-5.129969293e-06
-1.57812942e-05
-1.789196269e-05
9.264832782e-05
0.00023528678
-9.535917089e-05
-0.0004334509098
0.0003316987267
0.00127610326
-0.0003349802593
-0.001600510594
0.0003748158176
0.002518205927
-0.0003753974403
-0.002762912375
0.0001773384471
0.003172921787
-0.000176651042
-0.003186785461
1.414086771e-05
0.001590216743
-1.413698178e-05
-0.001590220629
0.001599518822
-0.0001507949998
0.0001499673311
-0.001598691153
0.003199516884
-0.0004499819238
0.000450202613
-0.003160369047
-0.000376995218
0.002675279103
0.0003809543778
-0.002411909784
-0.0002061965351
0.001466570604
0.00020971797
-0.001143841937
0.0003404751515
-5.260881063e-05
5.489730074e-05
-0.0001655452975
0
0
0
0
0
0
0
0
0
0
0
0
0
0
0
0
0
0
0
0
0
0
0
0
0
0
0
0
0
0
0
0
0
6.172600613e-06
0
-7.604849441e-06
-2.45298152e-05
-2.747473986e-05
0.00010209355
0.0002736663466
-0.0001048138896
-0.0004886865932
0.0003431922974
0.001381805879
-0.0003464024334
-0.001720570994
0.0003770845098
0.002665604975
-0.0003776823969
-0.00291283203
0.0001753333899
0.00330901756
-0.0001750576973
-0.003316932946
1.39294855e-05
0.001653306952
-1.445849886e-05
-0.0008249626777
-0.0008278152612
0.001663250017
-0.000147532983
0.0001469405834
-0.001662657618
0.003325850581
-0.0004465271782
0.0004445023206
-0.003280982256
-0.0003773739453
0.002765844344
0.0003751802712
-0.002490320885
-0.0002069909673
0.001507697717
0.0002056901757
-0.001174723375
0.0003479215584
-5.325987385e-05
5.25398023e-05
-0.0001683035013
0
0
0
0
0
0
0
0
0
0
0
0
0
0
0
0
0
0
0
0
0
0
0
0
0
0
0
0
0
0
0
0
0
9.163087951e-06
0
-1.09529285e-05
-3.749260289e-05
-4.132528165e-05
0.0001133071663
0.0003211364642
-0.0001162919348
-0.0005551994918
0.00035609192
0.001503277167
-0.000359411622
-0.001857072537
0.0003793470489
0.002828722974
-0.0003798670999
-0.003077286457
0.000173881934
0.003454218118
-0.0001735819226
-0.003457472192
1.41478316e-05
0.001724154104
-1.429324994e-05
-0.0008608415967
-0.0008631670885
0.001730365753
-0.0001451488343
0.0001445647234
-0.001729781642
0.003449557982
-0.0004327398778
0.0004273348137
-0.00336930881
-0.000355689678
0.002745949513
0.0003516621667
-0.00245735177
-0.0001890442099
0.00142941722
0.0001842778655
-0.001092160995
0.0002856995262
-4.21861241e-05
3.980840866e-05
-0.0001227493665
0
0
0
0
0
0
0
0
0
0
0
0
0
0
0
0
0
0
0
0
0
0
0
0
0
0
0
0
0
0
0
0
0
1.312590553e-05
0
-1.39356626e-05
-5.545501659e-05
-5.761843051e-05
0.0001260187352
0.0003772166004
-0.0001298119396
-0.0006315300046
0.000369849778
0.001635247178
-0.0003737947363
-0.002003321286
0.0003813331025
0.002996852175
-0.0003817960578
-0.003244649632
0.0001728457722
0.003595109245
-0.0001729789816
-0.003595255824
1.458233493e-05
0.001793277548
-1.456235591e-05
-0.0008952328156
-0.0008980647109
0.00179369282
-0.0001424956809
0.0001423439212
-0.001793541061
0.003524331306
-0.0004098574355
0.0004020791839
-0.003389554412
-0.0003233066508
0.002647865112
0.0003078301461
-0.002319745998
-0.0001612041875
0.00125128532
0.0001494419682
-0.0009199250164
0.0001918782381
-2.715836868e-05
2.334034893e-05
-6.254860303e-05
0
0
0
0
0
0
0
0
0
0
0
0
0
0
0
0
0
0
0
0
0
0
0
0
0
0
0
0
0
0
0
0
0
1.960641666e-05
0
-2.617521999e-05
-8.745932944e-05
-0.0001002809847
0.0001410345145
0.000455104357
-0.000150876393
-0.0007293108009
0.0003868765625
0.001794182695
-0.0003910592308
-0.002174500652
0.0003828901437
0.003179256365
-0.0003865026262
-0.003424074838
0.0001726672014
0.003733678031
-0.0001738130483
-0.001862014348
-0.001870517836
8.491964812e-06
0.0009289906369
-8.747192208e-06
-0.0009287354095
-2.305148505e-05
0.0004629664513
2.223788733e-05
-0.0009258475552
0.0004636947017
0.001854111956
-0.0001416534592
0.0002939697817
-0.003717710432
0.001862133262
-0.0001508511081
-0.0003810535933
0.003522841619
0.0003640906533
-0.003318455958
-0.0002715356755
0.00244693418
0.0002601857927
-0.00208994724
-0.0001226281089
0.001013302938
0.0001154852436
-0.0007012479598
7.970775966e-05
-9.728892513e-06
7.674117646e-06
-7.858564652e-06
0
0
0
0
0
0
0
0
0
0
0
0
0
0
0
0
0
0
0
0
0
0
0
0
0
0
0
0
0
0
0
0
0
2.904384368e-05
0
-2.387106664e-05
-0.0001197757309
-0.0001102263723
0.0001656945642
0.0005394363083
-0.0001606352486
-0.0008429716568
0.0004051003103
0.001970192567
-0.0003991697781
-0.002364888092
0.0003788949599
0.0033768259
-0.000378425008
-0.003609674119
0.0001678641082
0.003873446512
-0.0001678641082
-0.001932840629
-0.001940605883
6.361617908e-06
0.001932840629
-1.026795951e-05
3.906341605e-06
-0.0009648878138
-0.0009679528153
-6.830535263e-05
0.0009648878668
6.830527312e-05
-0.001932840629
0.0009679528418
0.003873446512
-0.0003030772181
0.0003011537764
-0.003863082588
-0.0003322361328
0.003414114721
0.0003228774155
-0.003156258611
-0.0002250385592
0.002130722232
0.00020929602
-0.001761953461
-8.619035773e-05
0.0007161402711
7.781883778e-05
-0.000457275235
1.108082658e-05
-1.5267976e-06
6.951406877e-07
0
0
0
0
0
0
0
0
0
0
0
0
0
0
0
0
0
0
0
0
0
0
0
0
0
0
0
0
0
0
0
0
0
0
1.482708136e-05
0
-5.419201542e-06
-5.600956232e-05
-3.522432357e-05
0.0001251123937
0.0003929462859
-0.0001081863289
-0.0006616010171
0.0003535931566
0.001727293072
-0.0003294599358
-0.002119362515
0.0003684570569
0.003188623019
-0.0003597519652
-0.003465527133
0.0001771737526
0.003952950452
-0.0001844353854
-0.004001804685
1.02679595e-05
0.004013038761
-1.071461899e-05
-0.004013038761
4.466594796e-07
-0.0001464318663
0.004013038761
0.0001464318663
-0.004013038761
-0.0002857289041
0.003941126745
0.0002749742149
-0.003830983153
-0.0002783431627
0.003161562284
0.000261195122
-0.002840806766
-0.0001638665915
0.001728963427
0.000151455852
-0.001353839525
-4.872729986e-05
0.0004145101549
3.932858538e-05
-0.0002168210298
0
0
0
0
0
0
0
0
0
0
0
0
0
0
0
0
0
0
0
0
0
0
0
0
0
0
0
0
0
0
0
0
0
0
0
0
0
1.319648872e-07
0
0
-3.135799566e-07
0
5.292699407e-05
0.0001356673911
-3.613557645e-05
-0.0003047839791
0.0002356535031
0.001123221242
-0.0001998521974
-0.001461124577
0.0003086591903
0.002487994292
-0.0002827819653
-0.002795274926
0.0001924870206
0.003502264644
-0.0001886722576
-0.003657556098
1.857510577e-05
0.00391151279
-2.408679867e-05
-0.003940434209
-0.0001344870585
0.003897789458
0.0001224744416
-0.003836235709
-0.0002226096106
0.003456887728
0.0001994318725
-0.003255797519
-0.0001968052796
0.002442240694
0.0001727561646
-0.002119279282
-0.0001058945719
0.001122375124
8.916667832e-05
-0.0008182340913
-1.68236102e-05
0.0001497531374
1.015910711e-05
-4.101223504e-05
0
0
0
0
0
0
0
0
0
0
0
0
0
0
0
0
0
0
0
0
0
0
0
0
0
0
0
0
0
0
0
0
0
0
0
0
0
0
0
0
0
0
3.677181238e-06
3.12688073e-07
-5.990969974e-07
-2.352148348e-05
9.485417642e-05
0.0004055374677
-6.503650015e-05
-0.0006172851251
0.0001856663684
0.001373640987
-0.0001504433354
-0.001632972814
0.0001547160354
0.002315526157
-0.0001366921551
-0.002492233377
3.932094716e-05
0.002829497141
-4.15181233e-05
-0.002874929094
-7.300175631e-05
0.002810753564
5.609322537e-05
-0.002723516975
-0.0001236122128
0.002275831206
9.944913796e-05
-0.002071705925
-0.0001011093222
0.001353975845
7.925960507e-05
-0.001101207149
-4.056745598e-05
0.0004167437465
2.669072715e-05
-0.0002431662157
-1.50987329e-07
1.037887954e-06
0
0
0
0
0
0
0
0
0
0
0
0
0
0
0
0
0
0
0
0
0
0
0
0
0
0
0
0
0
0
0
0
0
0
0
0
0
0
0
0
0
0
0
0
0
0
0
0
7.30763915e-06
1.0660345e-05
-1.124353147e-06
-4.943393475e-05
5.569894892e-05
0.0003425110341
-3.233256393e-05
-0.0004763133718
7.273487222e-05
0.0008884370145
-5.184988979e-05
-0.00100911355
3.418229656e-05
0.001258708068
-2.780112209e-05
-0.001295584894
-1.770554447e-05
0.001253696102
1.028129817e-05
-0.001190795767
-4.065431012e-05
0.000883847903
2.677659348e-05
-0.0007538416202
-2.63234554e-05
0.0003497023099
1.423623185e-05
-0.0002305825637
-1.384124997e-06
1.321662182e-05
3.907715804e-09
-1.422876121e-07
0
0
0
0
0
0
0
0
0
0
0
0
0
0
0
0
0
0
0
0
0
0
0
0
0
0
0
0
0
0
0
0
0
0
0
0
0
0
0
0
0
0
0
0
0
0
0
0
0
0
0
0
0
0
1.724151712e-07
0
0
-1.787787933e-06
7.066496923e-06
4.886192626e-05
-1.113169249e-06
-7.567864922e-05
6.93284553e-06
0.0001474166748
-2.371942011e-06
-0.0001600845086
-8.584894308e-07
0.0001488103887
1.979926931e-07
-0.0001298038088
-2.650204702e-06
5.15751226e-05
2.215127985e-07
-2.841545744e-05
0
0
0
0
0
0
0
0
0
0
0
0
0
0
0
0
0
0
0
0
0
0
0
0
0
0
0
0
0
0
0
0
0
0
0
0
0
0
0
0
0
0
0
0
0
0
0
0
0
0
0
0
0
0
0
0
0
0
0
0
0
0
0
0
0
0
0
0
0
0
0
0
0
0
0
0
0
0
0
0
0
0
0
0
0
0
0
0
0
0
0
0
0
0
0
0
0
0
0
0
0
0
0
0
0
0
0
0
0
0
0
0
0
0
0
0
0
0
0
0
0
0
0
0
0
0
0
0
0
0
0
0
0
0
0
0
0
0
0
0
0
0
0
0
0
0
0
0
0
0
0
0
0
0
0
0
0
0
0
0
0
0
0
0
0
0
0
0
0
0
0
0
0
0
0
0
0
0
0
0
0
0
0
0
0
0
0
0
0
0
0
0
0
0
0
0
0
0
0
0
0
0
0
0
0
0
0
0
0
0
0
0
0
0
0
0
0
0
0
0
0
0
0
0
0
0
0
0
0
0
0
0
0
0
0
0
0
0
0
0
0
0
0
0
0
0
0
0
0
0
0
0
0
0
0
0
0
0
0
0
0
0
0
0
0
0
0
0
0
0
0
0
0
0
0
0
0
0
0
0
0
0
0
0
0
0
0
0
0
0
0
0
0
0
0
0
0
0
0
0
0
0
0
0
0
0
0
0
0
0
0
0
0
0
0
0
0
0
0
0
0
0
0
0
0
0
0
0
0
0
0
0
0
0
0
0
0
0
0
0
0
0
0
0
0
0
0
0
0
0
0
0
0
0
0
0
0
0
0
0
0
0
0
0
0
0
0
0
0
0
0
0
0
0
0
0
0
0
0
0
0
0
0
0
0
0
0
0
0
0
0
0
0
0
0
0
0
0
0
0
0
0
0
0
0
0
0
0
0
0
0
0
0
0
0
0
0
0
0
0
0
0
0
0
0
0
0
0
0
0
0
0
0
0
0
0
0
0
0
0
0
0
0
0
0
0
0
0
0
0
0
0
0
0
0
0
0
0
0
0
0
0
0
0
0
0
0
0
0
0
0
0
0
0
0
0
0
0
0
0
0
0
0
0
0
0
0
0
0
0
0
0
0
0
0
0
0
0
0
0
0
0
0
0
0
0
0
0
0
0
0
0
0
0
0
0
0
0
0
0
0
0
0
0
0
0
0
0
0
0
0
0
0
0
0
0
0
0
0
0
0
0
0
0
0
0
0
0
0
0
0
0
0
0
0
0
0
0
0
0
0
0
0
0
0
0
0
0
0
0
0
0
0
0
0
0
0
0
0
0
0
0
0
0
0
0
0
0
0
0
0
0
0
0
0
0
0
0
0
0
0
0
0
0
0
0
0
0
0
0
0
0
0
0
0
0
0
0
0
0
0
0
0
0
0
0
0
0
0
0
0
0
0
0
0
0
0
0
0
0
0
0
0
0
0
0
0
0
0
0
0
0
0
0
0
0
0
0
0
0
0
0
0
0
0
0
0
0
0
0
0
0
0
0
0
0
0
0
0
0
0
0
0
0
0
0
0
0
0
0
0
0
0
0
0
0
0
0
0
0
0
0
0
0
0
0
0
0
0
0
0
0
0
0
0
0
0
0
0
0
0
0
0
0
0
0
0
0
0
0
0
0
0
0
0
0
0
0
0
0
0
0
0
0
0
0
0
0
0
0
0
0
0
0
0
0
0
0
0
0
0
0
0
0
0
0
0
0
0
0
0
0
0
0
0
0
0
0
0
0
0
0
0
0
0
0
0
0
0
0
0
0
0
0
0
0
0
0
0
0
0
0
0
0
0
0
0
0
0
0
0
0
0
0
0
0
0
0
0
0
0
0
0
0
0
0
0
0
0
0
0
0
0
0
0
0
0
0
0
0
0
0
0
0
0
0
0
0
0
0
0
0
0
0
0
0
0
0
0
0
0
0
0
0
0
0
0
0
0
0
0
0
0
0
0
0
0
0
0
0
0
0
0
0
0
0
0
0
0
0
0
0
0
0
0
0
0
0
0
0
0
0
0
0
0
0
0
0
0
0
0
0
0
0
0
0
0
0
0
0
0
0
0
0
0
0
0
0
0
0
0
0
0
0
0
0
0
0
0
0
0
0
0
0
0
0
0
0
0
0
0
0
0
0
0
0
0
0
0
0
0
0
0
0
0
0
0
0
0
0
0
0
0
0
0
0
0
0
0
0
0
0
0
0
0
0
0
0
0
0
0
0
0
0
0
0
0
0
0
0
0
0
0
0
0
0
0
0
0
0
0
0
0
0
0
0
0
0
0
0
0
0
0
0
0
0
0
0
0
0
0
0
0
0
0
0
0
0
0
0
0
0
0
0
0
0
0
0
0
0
0
0
0
0
0
0
0
0
0
0
0
0
0
0
0
0
0
0
0
0
0
0
0
0
0
0
0
0
0
0
0
0
0
0
0
0
0
0
0
0
0
0
0
0
0
0
0
0
0
0
0
0
0
0
0
0
0
0
0
0
0
0
0
0
0
0
0
0
0
0
0
0
0
0
0
0
0
0
0
0
0
0
0
0
0
0
0
0
0
0
0
0
0
0
0
0
0
0
0
0
0
0
0
0
0
0
0
0
0
0
0
0
0
0
0
0
0
0
0
0
0
0
0
0
0
0
0
0
0
0
0
0
0
0
0
0
0
0
0
0
0
0
0
0
0
0
0
0
0
0
0
0
0
0
0
0
0
0
0
0
0
0
0
0
0
0
0
0
0
0
0
0
0
0
0
0
0
0
0
0
0
0
0
0
0
0
0
0
0
0
0
0
0
0
0
0
0
0
0
0
0
0
0
0
0
0
0
0
0
0
0
0
0
0
0
0
0
0
0
0
0
0
0
0
0
0
0
0
0
0
0
0
0
0
0
0
0
0
0
0
0
0
0
0
0
0
0
0
0
0
0
0
0
0
0
0
0
0
0
0
0
0
0
0
0
0
0
0
0
0
0
0
0
0
0
0
0
0
0
0
0
0
0
0
0
0
0
0
0
0
0
0
0
0
0
0
0
0
0
0
0
0
0
0
0
0
0
0
0
0
0
0
0
0
0
0
0
0
0
0
0
0
0
0
0
0
0
0
0
0
0
0
0
0
0
0
0
0
0
0
0
0
0
0
0
0
0
0
0
0
0
0
0
0
0
0
0
0
0
0
0
0
0
0
0
0
0
0
0
0.001583915832
-0.001583990643
1.421567877e-05
0.0001431386248
-0.001588241851
-0.0001440198735
0.000797034542
0.0007920885577
-0.000157434807
0.001544474114
0.0001509071731
0.001644735108
1.35586683e-05
-0.0008215604278
-0.0008228038635
0.000137022648
-0.001656506806
-0.000137843987
0.0008296381287
0.0008276900158
0.0001404496448
0.0008023144619
0.0007998933399
0.00171533246
1.39233087e-05
-0.0008566707
-0.0008584372372
0.0001353722262
-0.001720205143
-0.0001342551099
0.000860297813
0.0008587902134
0.0001364346736
0.0008319400429
0.0008318979488
0.001784120138
1.427059491e-05
-0.0008909054803
-0.0008929029181
0.0001311881571
-0.00178427674
-0.0001323829858
0.001785471569
0.001731175225
0.0001345627539
0.0009276912454
-0.0009276958601
8.496579486e-06
-0.0004632933798
1.087558279e-05
-1.100874266e-05
0.0004634265397
0.0004627420674
-0.0009249819416
-2.410499063e-05
0.0001304179481
-0.001847722582
-0.0001303526993
0.001847657333
0.001794077138
0.0001308038391
0.0009636162841
-0.0009636162841
6.361617909e-06
-0.0009636164315
3.046978324e-05
-3.047014628e-05
0.0009636167946
0.0004634846341
1.03574e-05
-0.001924171593
0.0008804236895
1.441927601e-05
-2.59315637e-06
0.0002292508284
-0.00379324523
0.001918785824
0.001899126898
-0.0001231843267
-0.0001307339934
0.001854015039
0.000130514865
0.001543456991
-0.001542743719
1.953649602e-05
-5.731002759e-05
0.001433844084
5.684722386e-05
-0.001536610197
-0.0001548973711
0.001534072761
-0.0001672245368
0.001465722591
0.0001788823865
2.633464553e-05
-0.0003938549666
-2.652624684e-05
0.0003940465679
-0.0007793749441
-6.305414968e-05
0.0007815092504
6.091984334e-05
-0.001587616881
-0.0001514199702
0.0004271592193
-0.003159118792
-0.0004313573181
0.003164181913
-0.0004377240729
0.003064722365
0.0004300905416
0.003273377301
-0.003282615359
0.000175643235
-2.367452774e-05
2.361061421e-05
0.001644799022
2.38261768e-05
0.001590063803
-2.367323715e-05
2.920997161e-05
-0.0004066827792
-2.892201537e-05
0.000406394823
-2.561462411e-05
-0.0003996729311
0.0003994339351
2.58536202e-05
-0.00165608111
-0.0001479586782
0.000422020491
-0.00329816622
-0.0004234095269
0.003299729879
0.003201498596
0.000425480691
0.003418781872
-0.003423054756
0.0001742105214
-2.371456277e-05
2.365126091e-05
0.001715395762
0.001653370447
-2.373802227e-05
-1.427576578e-05
0.001681376117
1.420845673e-05
-0.0008394144015
-0.0008418944065
8.44926488e-06
-0.0004212742267
-8.412494699e-06
0.0008419072444
-0.0004206697879
-8.576650534e-06
-0.0004115965696
0.0008246568955
8.261581844e-06
-0.0004127452573
2.511984747e-05
-0.0004236230641
-2.52632566e-05
0.0004237664733
-2.742531449e-05
-0.0004153220899
0.0004145133424
2.823406194e-05
-0.001720331981
-0.0001450219963
0.0004138019667
-0.003417821017
-0.0004171093878
0.003427681891
0.003327922331
0.0004205239226
0.003559314789
-0.003560103137
0.0001728043142
-2.387962947e-05
2.381951373e-05
0.001784180254
0.001724135839
-2.369629796e-05
-1.37567072e-05
0.001750226798
1.41005283e-05
-0.0008743239311
-0.0008762466879
4.642622031e-06
-0.0004383303016
-4.740199231e-06
0.0004384278788
-8.02127933e-06
-0.0004300597279
0.0008608450015
8.09237574e-06
-0.00043085637
4.742457585e-05
-0.0008772751205
-4.774536161e-05
0.0008775959062
-4.904534535e-05
-0.000864421138
4.718511868e-05
0.0004338451295
0.0004324362351
0.003699304336
0.0001730889685
-0.0018455368
-0.001854189303
-2.422610035e-05
-0.0009262990943
2.397545252e-05
0.001854240988
0.001793338841
-2.394092309e-05
-8.4483331e-06
0.0009112182515
-0.0009113087404
8.538821947e-06
6.67199066e-06
-0.000456716336
-6.191975039e-06
0.0004562363204
-5.652673134e-06
-0.0004465800219
0.0004467833757
5.449319308e-06
0.0004591364498
1.432760032e-05
-0.0004577942581
-1.566979205e-05
4.558923888e-05
-0.0009105632154
-4.532856179e-05
0.0009103025383
-4.676122119e-05
-0.0008960853041
0.0008960922817
4.675424366e-05
0.003775489504
0.0001654228067
-0.001848876609
-0.001924171593
-2.009015569e-05
-0.0009605553092
2.009015569e-05
0.001924171593
-0.0009329754542
0.001861952653
-2.421266197e-05
-8.470535353e-06
0.0009451102157
-0.000945023628
8.383947656e-06
4.885202247e-06
-0.0004695203947
-6.16446015e-06
0.0004707996526
-7.452290234e-06
-0.0004617706286
0.0004623795909
6.843327954e-06
0.001993515827
-0.001993515827
1.026795952e-05
-0.001993515827
5.848355644e-05
-5.848355644e-05
0.001993515827
0.000964888069
3.046958103e-05
-1.094642463e-05
0.0007801159076
1.032334473e-05
-0.0003890080032
-0.0003904848245
1.152153375e-05
0.0007924358418
-1.141446176e-05
-0.0003965654568
-0.0003959774569
0.0007801014327
3.578197515e-06
-5.227234689e-06
-0.0007784523955
0.0007801152
-0.000780711201
-1.035042359e-05
-0.0003993909836
-2.538933068e-05
0.0003991656902
-0.0003932739729
0.0003936147489
2.599386954e-05
-0.0001467346443
-0.001568757592
0.0001450549933
0.000787759466
0.0007826777772
-5.798403217e-05
0.0003927426005
5.658445211e-05
-0.0007846169933
2.656483923e-05
-0.0003995061452
-2.644967768e-05
-0.0004109008286
-8.964803534e-06
0.000822499691
-0.0004112107093
-0.0008087181982
-8.635907807e-06
0.0008087963255
8.557780525e-06
1.389215512e-05
0.001620725358
-1.395913521e-05
-0.001620658378
-1.116319672e-05
1.062205037e-05
-0.0004039224013
-0.0004042546506
5.335487454e-06
-0.0004108970873
-5.339228781e-06
0.000793577802
1.11516432e-05
-0.000396241544
-0.0003969663675
0.000807372873
-1.103095574e-05
-0.0004037390483
-0.0004037660657
-0.0004140656385
-2.653576358e-05
0.0004131760875
-0.0004084127153
0.0004078447373
2.977794957e-05
-7.088040961e-05
-0.0008161368632
0.0008163026649
7.071460791e-05
-2.939870702e-05
2.955954563e-05
-0.0004085735539
2.73737128e-05
-0.0004145894793
-2.684987201e-05
2.665987947e-05
-0.0003997679714
-0.0004069457794
-2.913570686e-05
-0.000812828282
-7.088888379e-05
0.0008128367562
-0.000429281895
-8.359314321e-06
0.0008581974349
-0.000428577505
-0.0004222187325
0.0008447755994
8.776951126e-06
-0.0004228845531
0.001690674746
-1.387203741e-05
-0.0008446111857
-0.000846467289
-5.649739731e-06
5.741861297e-06
-0.0004223108541
4.828206298e-06
-0.0004291843501
-4.925751194e-06
5.250384856e-06
-0.000411511467
-0.0004214762212
-5.447745248e-06
-0.0008611435269
-4.885798092e-05
0.0004307482819
0.0004302078806
-0.0004240157982
0.0004239035665
2.523207914e-05
-0.0001343310456
-0.001694788253
0.000134556914
0.0008476972457
0.000846865139
-5.218493044e-05
0.0004233382316
5.152218618e-05
-0.0008466912855
5.130976051e-05
-0.0008610333851
-5.141990235e-05
2.788963864e-05
-0.0004158380157
0.0004224734946
-0.000845335114
-2.592419737e-05
-2.702217773e-05
-0.001686931362
-0.0001358122434
0.0008451220912
0.0008432904686
-0.000446051071
-5.766222685e-06
0.0004461646205
-0.0004387903024
0.0004388079495
4.624974919e-06
0.001757578803
-1.430948363e-05
-0.0008778411422
-0.0008791848843
-5.544939644e-06
5.263287812e-06
-0.0004385086505
7.112429173e-06
-0.0004457410546
-7.422445568e-06
4.81815681e-06
-0.0004300496784
-0.0004382122155
-5.663025662e-06
-0.0008945360485
-4.682964451e-05
0.0008946044719
-0.0008800211218
0.0008800247636
4.742093406e-05
-0.0004632431587
-7.845769569e-06
0.0004636366381
-0.0004563803557
0.0004565605139
6.491832451e-06
0.000913131532
-8.442950095e-06
-0.0009131369151
-1.098636379e-05
-0.0004564550082
0.0004549319618
1.250941019e-05
-8.165937354e-06
7.867153394e-06
-0.0004560815717
7.547659498e-06
-0.0004624314305
-8.359387697e-06
6.710465224e-06
-0.0004461780579
-0.000457040394
-7.841879366e-06
-1.353546614e-05
0.0004616855522
8.915352889e-05
-0.001846828365
-8.878779508e-05
0.0009237254499
0.0009227371811
-0.0009119074886
0.0009116109751
4.588575237e-05
1.431712341e-05
-0.0004564445313
-0.0009716696468
8.114720316e-06
0.0009671657932
-6.260000277e-07
-2.984866618e-06
-0.0004700378768
0.0004707735669
4.149512094e-06
0.0009469251467
-8.647090376e-06
-0.0009467485916
-1.392753669e-05
-0.0009351051792
0.0009357090949
1.332362103e-05
-3.13284789e-06
2.704829243e-06
-0.0004696098581
1.324178481e-05
-0.0009717640494
-3.553622569e-06
-9.593759686e-06
6.724788188e-06
-0.0004609477573
-4.046949128e-06
-0.0004686062934
-0.0009336634067
-1.509754331e-05
0.0009348334133
0.003139171495
-0.003156082938
0.000178821308
2.39765993e-05
0.00158376541
2.943099251e-05
0.001550473762
-2.730824824e-05
-1.602269996e-05
0.001559193594
-0.001559055513
1.588461913e-05
8.223071702e-06
-8.121701765e-06
0.0007800138301
-4.095544239e-06
0.0007823839903
1.812986701e-06
6.487227261e-05
-0.0003847762746
1.255098038e-06
0.000318648904
-0.0004003924602
-3.089407536e-05
0.0004059825707
2.530396494e-05
0.001612952361
-0.001613110153
1.404994736e-05
-8.642552021e-06
0.0008073795172
-8.610327709e-06
0.000793578598
8.609531724e-06
0.0001329906933
-0.0004390644956
-5.511418585e-05
0.0003611879881
-0.001783736117
-0.000143036304
0.0004024406618
-0.003513207747
-0.00040676742
0.003560793647
0.003462451033
0.0004129844606
0.000130851237
-0.0004532398985
-4.9842277e-05
0.0003722309385
3.580803049e-05
-0.0009023453537
-3.636030072e-05
0.00045166051
0.000451237114
-1.867433222e-05
-0.0004478740006
0.0004477967039
1.875162899e-05
1.977854856e-05
-0.0009331118789
-2.03300763e-05
9.789037345e-05
-0.001874371142
-9.400171812e-05
0.001870482487
-0.001853549551
8.967415507e-05
0.0009271878197
0.0009258411051
-8.603537046e-06
0.0007924290511
0.0007801568678
8.182111577e-06
0.001558307447
-1.500832678e-05
-0.00155932182
-7.797792705e-06
0.0003928699362
8.542175985e-06
-0.0003936143195
0.0004025299767
5.490570831e-06
-4.516059541e-08
-0.0004079753869
0.0003920232742
5.024615206e-06
-0.0003925524168
-4.495472585e-06
-7.01691781e-05
6.376561952e-05
-0.0007729713855
0.0003919742131
-0.0007841644404
-5.964877149e-05
-0.001559182274
-0.0001438173041
0.0007796398903
0.0007766250435
-0.0004481175074
-1.902946107e-05
0.0004484726363
-2.357892403e-05
-0.0004447170858
0.0004459898293
2.230618044e-05
-0.0001336899945
-0.001759500395
0.001760101357
0.000133089032
-5.04643627e-05
5.015472383e-05
-0.0008797114829
4.952695208e-05
-0.0008943171864
-4.974581422e-05
5.073484015e-05
-0.0008638462176
-0.0008772803537
-5.045912951e-05
-0.001753455091
-0.0001338783369
0.001753643433
-1.567604905e-05
-0.0004612123361
0.0004628166239
1.407176121e-05
0.0004637494154
1.413165303e-05
-0.0004637371823
-1.414388618e-05
1.679949129e-05
-0.0009298040669
-1.711276371e-05
0.0004648098854
0.000465307454
-0.0007333139773
-2.580680149e-05
0.0007332945305
2.582624835e-05
0.001578348372
1.154807287e-05
-2.845866212e-05
-9.896945267e-06
-0.000768538335
-0.000783002503
0.0007710476016
-0.0007868904249
1.942102089e-05
-0.0007754936704
-6.414405788e-05
0.0007765835786
-0.001543282767
-0.0001528249723
0.0007743310344
0.0007428375607
7.720021678e-05
0.0001017389276
-4.2735074e-05
4.37180485e-05
-0.0007342969518
-0.0004911120625
0.0005559843351
-5.688291109e-05
-0.0007827820237
5.526623992e-05
0.0003921578837
0.0003922408112
-3.033802208e-05
-6.494545971e-05
-0.0003958285807
-2.717962014e-05
2.435949912e-05
-0.0003975723392
-0.000394317503
-2.079679375e-05
-0.0007779507181
-5.453608392e-05
0.0003886273932
0.0003869764977
-2.597459742e-05
-0.0004034445737
0.0004035035674
2.591560372e-05
-0.000403454495
-2.605636103e-05
0.0004035362586
-2.467779919e-05
-0.0004208055577
0.000420671783
2.481157382e-05
-0.0004214883817
-2.525399365e-05
0.0004220645762
-0.0004383003626
2.355645959e-05
-2.053639799e-05
0.000435280301
-0.0004460846684
0.0005657260787
1.334928297e-05
-4.824591167e-05
-0.0008706094646
0.0008706014821
4.825389415e-05
-2.789945249e-05
2.194190393e-05
-0.0004401271198
2.397089447e-05
-0.0004391338058
-2.313745128e-05
-2.506399638e-05
5.447879257e-05
-0.0004276547541
0.0003982399579
-0.0004366889548
-3.027499328e-05
-0.0008691591238
-4.834298705e-05
0.0004347527128
0.0004345034864
-0.0004516649067
-3.749167566e-06
0.0004518676595
3.546414782e-06
-8.249166345e-07
0.0009038179014
7.429826073e-07
-0.0009037359674
7.515229499e-07
0.0009111534843
-0.0009112409593
-6.640479856e-07
3.429981353e-05
-0.0009101171125
-3.456369822e-05
0.0009103809972
-0.0009041568735
3.519667355e-05
0.000452788959
0.0004519792714
0.0005836923639
8.399270532e-06
-0.0004612403974
-1.568369607e-06
-0.0004676916835
0.0004683930027
8.670503965e-07
-2.570768699e-07
0.0009381821871
1.731499193e-07
-0.0009380982601
1.735679714e-07
0.0009449363748
-6.150084758e-07
-0.0004719350015
-0.0004725599327
-5.196792992e-07
0.0009285757325
2.606642096e-07
-0.0009283167174
0.0009359327303
-0.00093584569
-3.441171242e-07
-0.0004657662333
-2.458150935e-06
0.0004666560146
0.0004004113
-4.385944639e-06
0.0001082708793
-0.0005042962347
0.0003906661557
-8.142956782e-06
-0.0003903209916
1.057191747e-05
0.0007858462398
-1.087856224e-05
-0.0003919166988
-0.0003936228962
8.758524286e-06
-9.555261031e-06
0.0003914628925
-8.975961196e-06
0.000396334377
1.305288426e-05
1.38243049e-05
-3.764343869e-05
0.000397098173
-0.0003732790392
0.0003934421744
8.186286094e-06
0.0007886998244
1.143348286e-05
-0.0003949746302
-0.0003945867596
8.530394591e-06
0.0007863963692
-0.0007869153775
-8.011386313e-06
7.423383791e-06
-7.86356045e-06
0.0003924634508
1.453705448e-05
0.0003902580549
-2.265132636e-06
-0.0003954350636
-7.451870842e-06
0.0003939109733
-0.0003920033512
0.0003920490859
7.377649135e-06
0.0007822392325
9.039463059e-06
-0.000782748301
7.525339589e-06
-0.0003945040756
-0.0003948375638
-4.983444498e-06
-2.696761384e-05
-0.0003969356116
0.000396012008
2.789121745e-05
-0.0003954384393
-2.703883822e-05
0.0003955096637