/*--------------------------------*- C++ -*----------------------------------*\
| =========                 |                                                 |
| \\      /  F ield         | OpenFOAM: The Open Source CFD Toolbox           |
|  \\    /   O peration     | Version:  v1912                                 |
|   \\  /    A nd           | Website:  www.openfoam.com                      |
|    \\/     M anipulation  |                                                 |
\*---------------------------------------------------------------------------*/
FoamFile
{
    version     2.0;
    format      ascii;
    class       volVectorField;
    location    "2.73";
    object      U;
}
// * * * * * * * * * * * * * * * * * * * * * * * * * * * * * * * * * * * * * //

dimensions      [0 1 -1 0 0 0 0];


internalField   nonuniform List<vector> 
12556
(
(99.99830129 0.004050692736 -4.295209478e-21)
(99.99783607 0.01341838392 3.961065165e-25)
(99.99651656 0.02761569922 -4.284431749e-21)
(99.99433111 0.0497681018 -4.252839877e-21)
(99.99980329 0.03858091588 4.096933166e-21)
(99.99723399 0.06230099967 0)
(99.99581619 0.09868668994 0)
(99.99542649 0.1481267648 -7.096166373e-21)
(99.99424348 0.212491489 8.218878281e-22)
(99.99353276 0.2891822677 -5.262550861e-21)
(99.99396333 0.3682272728 7.301135117e-22)
(99.99513229 0.4330239299 0)
(99.99905883 0.4649325795 0)
(100.0040492 0.4520012523 1.433118613e-21)
(100.0056796 0.401218224 -1.946391698e-21)
(100.0063077 0.3294908949 1.042717806e-21)
(100.005944 0.254436516 0)
(100.0052328 0.1872785349 1.620763973e-21)
(100.0047789 0.1310022214 6.638694794e-21)
(100.0025547 0.09069929356 -1.83864354e-21)
(100.0098337 0.101711735 -1.589653504e-20)
(100.0065768 0.0618808908 0)
(100.0047336 0.03260137423 -1.985786504e-21)
(100.0044859 0.01018823239 -1.397145118e-20)
(99.98494599 0.01077098658 1.721673676e-20)
(99.97951393 0.036151263 4.297287515e-21)
(99.96726818 0.07512642341 2.999452542e-20)
(99.94632431 0.1363315454 -1.284575583e-20)
(99.9504669 0.1818686189 4.12892631e-21)
(99.91866986 0.2968543046 -5.443176658e-23)
(99.87783374 0.4706701743 0)
(99.85653251 0.6250763025 -7.185077615e-21)
(99.81321085 0.9071708407 -6.602894308e-21)
(99.78225378 1.253882215 -1.132653931e-20)
(99.78364043 1.624643573 -4.581645816e-21)
(99.83156813 1.937242578 -5.551720796e-21)
(99.92565952 2.10580464 4.158871593e-22)
(100.0327858 2.067948276 5.582895652e-22)
(100.1176714 1.848217777 -6.353184866e-22)
(100.1588704 1.525079739 5.367430812e-21)
(100.1597144 1.176628238 -1.018792693e-20)
(100.1352396 0.8679814518 0)
(100.1383161 0.6409468211 -2.800396547e-20)
(100.0967736 0.4304436842 5.376281563e-20)
(100.0926956 0.2896627703 1.53902439e-20)
(100.0631101 0.1755968441 3.157935291e-20)
(100.0462875 0.09289957896 -3.167290855e-20)
(100.0398115 0.02909185241 1.595758073e-20)
(99.95984779 0.01385732379 -1.717837988e-20)
(99.94451119 0.04757997502 -3.450928086e-20)
(99.91119962 0.1015021637 -7.727914044e-20)
(99.85553398 0.1888885868 1.027924962e-19)
(99.82939008 0.285447177 -8.491278418e-21)
(99.73426933 0.479857167 -8.229735684e-21)
(99.60827283 0.7770621843 -1.426928861e-20)
(99.54019396 1.097788447 0)
(99.40083359 1.63542295 2.74105074e-20)
(99.29976313 2.31545461 -7.697270613e-22)
(99.31564695 3.062314433 -3.952103677e-20)
(99.4968631 3.745233136 -1.070169077e-19)
(99.85652501 4.136455907 9.161551097e-21)
(100.2650822 4.066313541 -4.038103853e-20)
(100.5525196 3.583867516 4.919758406e-20)
(100.661929 2.899284633 4.308537845e-21)
(100.640465 2.203333577 -1.091610536e-20)
(100.537701 1.585440045 -2.520485749e-20)
(100.4568682 1.089851313 -1.682053035e-19)
(100.3282007 0.7214060811 -3.708480276e-20)
(100.2548904 0.4361187548 -1.573184331e-20)
(100.1771692 0.2617299765 3.573045769e-20)
(100.1305044 0.1385990908 -4.008159145e-21)
(100.1100316 0.04315586141 0)
(99.93084743 0.01117079963 -8.666740181e-21)
(99.90148355 0.041021077 6.065129855e-20)
(99.83873678 0.09597705509 -1.735487528e-20)
(99.73624361 0.1891462594 0)
(99.65566241 0.3241604689 0)
(99.47026136 0.5728283924 -6.673276782e-20)
(99.21363938 0.9670213443 -1.333958213e-19)
(99.01378626 1.441556128 3.130084403e-20)
(98.68960924 2.222508997 -6.027872976e-20)
(98.4392153 3.250897328 -5.441413069e-20)
(98.39289633 4.517933356 -2.249831003e-20)
(98.77079802 5.792755848 5.95800366e-20)
(99.66225088 6.577657448 4.672384423e-20)
(100.7055992 6.436889074 5.993674316e-20)
(101.3815359 5.500930608 2.807484742e-20)
(101.5597523 4.26849597 -1.20792946e-19)
(101.4330938 3.114324573 -9.85798518e-20)
(101.1908146 2.185841706 0)
(100.9439114 1.42697132 6.080076095e-20)
(100.6756966 0.9217506966 -4.674260255e-20)
(100.4805242 0.5137504184 -4.02170817e-20)
(100.336143 0.3049733161 2.032291245e-20)
(100.2462371 0.1589947832 -4.073935511e-21)
(100.2051834 0.04899162939 0)
(99.91180496 0.001379568438 0)
(99.8661675 0.01198653677 0)
(99.76949576 0.05089145947 8.780290903e-21)
(99.61081343 0.1274086974 1.324197945e-20)
(99.46372077 0.2814449959 2.189668272e-20)
(99.15948535 0.5458414266 0)
(98.73425908 0.9705747179 0)
(98.32829064 1.561123707 6.664607427e-20)
(97.74002415 2.520774876 -2.645446498e-19)
(97.14831261 3.935644208 2.691843786e-19)
(96.81903763 5.905594599 -5.97963784e-20)
(97.33930936 8.239395308 -5.883624867e-21)
(99.241729 9.888840591 0)
(101.6143966 9.547180235 -8.126115135e-20)
(102.9243821 7.68209931 6.36134086e-20)
(103.0649218 5.546807782 -2.029552392e-19)
(102.6280364 3.819661899 -1.018577258e-20)
(102.0730156 2.557434651 -4.434279452e-22)
(101.5686922 1.588239089 -9.970829067e-20)
(101.1072712 0.9953284973 8.272633961e-21)
(100.7405709 0.5012167848 0)
(100.5128322 0.2912970834 4.143605043e-21)
(100.3704925 0.1465855016 -3.112339044e-21)
(100.3045213 0.04433645733 -1.031511834e-21)
(99.91807751 -0.01594526933 0)
(99.85586013 -0.04097827322 0)
(99.72567547 -0.03870384056 -1.757643873e-20)
(99.50810812 1.733085803e-05 3.585887364e-20)
(99.28581067 0.1442931526 0)
(98.85194227 0.3732629601 0)
(98.23047348 0.7629784646 2.80522224e-20)
(97.59519 1.371412339 0)
(96.61572038 2.377732189 0)
(95.41496385 4.031046754 -6.079587037e-19)
(94.2448654 6.797940699 1.453092176e-19)
(94.26506037 11.13516835 -4.056334136e-19)
(98.1823353 15.19392344 0)
(103.7444575 14.01768529 3.906814091e-19)
(105.8025098 9.943701663 0)
(105.3950656 6.486069668 2.656796306e-19)
(104.2478955 4.129154015 5.756430912e-19)
(103.1480542 2.608630403 -6.806020257e-20)
(102.2681267 1.503896492 2.561124974e-20)
(101.5719613 0.9003824498 -1.706645375e-20)
(100.9990527 0.3848230366 0)
(100.6762178 0.211309528 0)
(100.4775827 0.09685992678 -1.043569776e-21)
(100.3849543 0.02796478723 -3.125955946e-21)
(99.96439338 -0.04034419757 4.304022461e-21)
(99.88737122 -0.1158957004 -4.33688158e-21)
(99.72856432 -0.1693810078 8.852286745e-21)
(99.45973086 -0.1927640486 -3.235822997e-20)
(99.15490813 -0.08819617771 6.756907973e-23)
(98.60559002 0.05398601201 2.774829034e-20)
(97.80867898 0.3322533172 -1.45659792e-19)
(96.93984371 0.836982127 -6.330655963e-19)
(95.51966202 1.692837353 -7.274618527e-21)
(93.50489064 3.193243481 5.754054897e-19)
(90.60916692 6.025005907 0)
(87.01062217 12.86751519 0)
(94.15859197 25.44891016 0)
(110.0955053 20.27379284 0)
(110.8518166 11.40929587 0)
(108.5719753 6.458066387 0)
(106.1746584 3.739659746 1.667299594e-19)
(104.3044997 2.192907395 -3.211731819e-19)
(102.931003 1.118802483 0)
(102.0034475 0.6071651359 9.243523351e-21)
(101.208615 0.164189938 2.734112887e-21)
(100.7921586 0.06066754812 -3.234757016e-21)
(100.5414222 0.009804380159 -3.676028679e-21)
(100.4229789 2.351359873e-05 8.865559326e-21)
(100.0633478 -0.07034807848 -4.304477051e-21)
(99.97526458 -0.20801812 4.338439071e-21)
(99.79610718 -0.3318998503 -5.509803573e-21)
(99.49088221 -0.435828801 -3.710237166e-21)
(99.11706224 -0.3998585444 1.583617855e-20)
(98.48080048 -0.3859110136 9.448859467e-21)
(97.57290175 -0.2961323223 -4.924130647e-21)
(96.50930223 0.0002585030163 7.974229847e-20)
(94.76132525 0.4705738941 3.713531366e-19)
(92.12879046 1.262526595 0)
(87.74870266 2.479779347 -1.00401807e-18)
(79.19568971 4.770818423 -1.31271294e-18)
(125.8179383 22.86972341 0)
(117.7832737 9.339762436 0)
(112.0069535 4.64131022 0)
(108.0040231 2.411278084 0)
(105.3262997 1.244385241 0)
(103.4378853 0.4307975273 -4.899752621e-21)
(102.3123492 0.1296729901 2.083655417e-20)
(101.3181444 -0.1534131752 -3.323861371e-21)
(100.8275272 -0.1501270834 2.719963851e-21)
(100.5364989 -0.1091607097 -5.070057333e-22)
(100.3965056 -0.03836955937 -8.311257089e-21)
(100.22403 -0.1037320073 -2.078112834e-21)
(100.1299844 -0.3104390413 -1.561969835e-21)
(99.94111711 -0.5131247982 -5.354528843e-22)
(99.61870851 -0.7083177527 1.623919262e-21)
(99.19546776 -0.7610013868 -3.067844575e-23)
(98.51881776 -0.8987676922 0)
(97.57799527 -1.032278848 -3.76188891e-20)
(96.41446945 -1.007670104 1.371899892e-18)
(94.56643614 -1.016565536 1.085541697e-20)
(91.89570577 -1.081094589 -4.873651839e-19)
(87.91706778 -1.659736496 -9.835330702e-19)
(82.69781117 -3.88545055 0)
(138.5463678 6.296548976 -4.865256367e-18)
(122.4541736 2.432391822 1.053925055e-19)
(114.2616871 0.9184459661 2.644891985e-19)
(109.1598279 0.2031756568 4.187176268e-19)
(105.9296645 -0.1492407124 -6.966100668e-19)
(103.6684817 -0.4784727469 -4.983345526e-21)
(102.4158341 -0.4888208278 1.167366033e-20)
(101.2897724 -0.5369272951 1.138176552e-21)
(100.7561344 -0.4016960163 0)
(100.4416125 -0.2498543477 4.186971685e-21)
(100.2880824 -0.08397879295 4.138941081e-21)
(100.4507291 -0.137850017 4.095471734e-21)
(100.3563511 -0.4150057039 6.172361528e-23)
(100.1693 -0.6977152809 0)
(99.85039048 -0.9863621615 2.125215395e-22)
(99.40269303 -1.136906735 -2.177691728e-21)
(98.73483785 -1.429123816 2.324894278e-21)
(97.83481452 -1.780151441 -1.255516979e-21)
(96.68266159 -2.019832921 6.785679051e-19)
(94.9445463 -2.440154073 0)
(92.57600656 -3.089357365 -5.380148574e-20)
(89.4660883 -4.348865752 0)
(86.25711687 -6.411052233 -9.553960727e-19)
(135.3045775 -10.24680945 0)
(122.0158833 -5.55726375 -1.578558642e-18)
(114.2710697 -3.481225212 -5.078479581e-19)
(109.1893777 -2.370363893 -1.229663632e-18)
(105.911497 -1.745473364 1.398327747e-18)
(103.5414079 -1.482656392 4.203800944e-20)
(102.2725836 -1.169120041 0)
(101.1019698 -0.9441622806 -1.109717356e-21)
(100.5629192 -0.6682929248 -4.608133346e-21)
(100.2447184 -0.3988070942 5.150142254e-22)
(100.0873339 -0.1323636216 0)
(100.7425025 -0.1701540901 -2.017181428e-21)
(100.653042 -0.5137230693 2.035328095e-21)
(100.4782108 -0.8708120679 1.986337215e-21)
(100.1835154 -1.247185249 -1.859816331e-21)
(99.73334149 -1.494002973 -2.149085016e-21)
(99.11721857 -1.923684831 0)
(98.31292981 -2.45980167 -8.133406464e-20)
(97.24785005 -2.920323472 5.789327632e-19)
(95.71440619 -3.633020682 -3.676388241e-19)
(93.70538294 -4.611145787 -1.258968926e-20)
(91.18112227 -6.08393323 8.398443373e-19)
(88.64664362 -7.843414648 0)
(126.0845535 -19.17699277 3.294335408e-18)
(117.9782654 -11.33702919 0)
(112.2934113 -7.115717861 7.159717543e-19)
(108.1269706 -4.661182833 0)
(105.2606846 -3.240344037 6.704327233e-19)
(103.0527371 -2.429915149 0)
(101.8837434 -1.822850543 -2.747428345e-20)
(100.7527932 -1.331562206 -1.386980644e-20)
(100.2473215 -0.9223993125 1.054725144e-21)
(99.94472129 -0.5416674688 -3.324444196e-21)
(99.79290392 -0.1789376434 4.873186319e-22)
(101.0934702 -0.1984354822 7.398745622e-21)
(101.0134447 -0.5995705227 0)
(100.8585869 -1.017843881 -1.982443049e-21)
(100.6018691 -1.478114896 0)
(100.164211 -1.805457002 0)
(99.63726884 -2.341533585 -6.391783263e-21)
(98.96390322 -3.018102644 -7.841068836e-21)
(98.03266438 -3.643301373 1.237759063e-18)
(96.73990984 -4.547310075 0)
(95.06538012 -5.724920483 -2.288461643e-20)
(92.92393914 -7.358012776 0)
(90.58612696 -9.138147681 -1.870557115e-19)
(116.4494606 -22.27734243 -1.036325319e-18)
(112.6403135 -14.16379474 4.756344039e-19)
(109.2600903 -9.311428541 3.637266766e-19)
(106.3458771 -6.264119849 -2.621573829e-20)
(104.1336587 -4.399089803 2.983644641e-19)
(102.2715637 -3.199239297 2.187605256e-21)
(101.2871869 -2.373725057 -3.341794089e-20)
(100.2676902 -1.66994007 8.222241397e-21)
(99.82327136 -1.138688174 0)
(99.55082881 -0.6661102389 3.828681205e-21)
(99.41235991 -0.2197092124 0)
(101.4941882 -0.2219012203 7.389270038e-21)
(101.4262818 -0.6713179498 1.166454542e-19)
(101.295029 -1.1387581 -2.35033874e-19)
(101.0798717 -1.661185815 -5.56045236e-22)
(100.69758 -2.047264897 -1.863306557e-21)
(100.2613986 -2.657584992 0)
(99.73762267 -3.427489315 2.713783525e-19)
(98.95942583 -4.15531979 1.424604532e-19)
(97.9248639 -5.167632571 0)
(96.58770709 -6.469197609 4.036136679e-20)
(94.85108184 -8.308549901 0)
(92.81626978 -10.40041854 0)
(103.5382134 -31.34422311 2.168258838e-19)
(107.7315694 -20.54881526 1.469119127e-19)
(107.5674513 -14.45166819 -2.988529331e-19)
(106.0634605 -10.07041034 2.027754831e-19)
(104.2978585 -7.078815215 -5.297159355e-22)
(102.7566617 -5.118725873 3.322368551e-20)
(101.3113538 -3.720816035 -6.656185861e-20)
(100.5410781 -2.772147403 0)
(99.68615442 -1.922353116 0)
(99.31373563 -1.304679636 1.195046031e-20)
(99.08017196 -0.7641798597 2.205059921e-21)
(98.96033414 -0.251866528 -7.152789784e-21)
(101.9323057 -0.2383233325 0)
(101.8780514 -0.7221860365 0)
(101.7739024 -1.223178051 0)
(101.6025043 -1.779539374 0)
(101.2745724 -2.221938443 0)
(100.9317269 -2.884022157 0)
(100.5472994 -3.704734669 3.632534054e-21)
(99.94244102 -4.474188725 0)
(99.16017205 -5.520128057 1.227879488e-18)
(98.17279411 -6.854756112 1.9785562e-19)
(96.95871173 -8.767608457 8.894703574e-19)
(95.78483762 -11.40735983 5.857734547e-19)
(96.59559007 -20.61355642 -2.354322697e-19)
(102.4948003 -16.910483 -5.734695201e-20)
(103.6978992 -13.09642636 -9.850161975e-20)
(103.295329 -9.761830025 4.004972434e-19)
(102.3367529 -7.226392814 -4.305780118e-19)
(101.3278008 -5.422491869 -1.013901636e-19)
(100.2831697 -3.998326864 -9.267175692e-20)
(99.72268383 -3.016791692 -3.493442805e-20)
(99.04456655 -2.07862064 -1.94488305e-20)
(98.74533026 -1.416480524 1.914091143e-20)
(98.55455512 -0.8315635731 0)
(98.45567867 -0.2739199945 1.916673192e-20)
(102.3953203 -0.2477285017 0)
(102.3554388 -0.7515503721 0)
(102.2804425 -1.271256649 0)
(102.1540985 -1.838212902 0)
(101.8793979 -2.309978081 0)
(101.6366055 -2.987096692 0)
(101.3824361 -3.794090519 -2.854404822e-20)
(100.9477134 -4.583250774 -2.196411268e-19)
(100.3947444 -5.594354068 -4.682951172e-19)
(99.73009688 -6.826223243 -2.668284286e-20)
(99.06262471 -8.472036029 -4.009622808e-19)
(98.87345434 -10.89649582 6.322491519e-19)
(98.02485729 -13.51293474 0)
(100.3624172 -13.05208545 0)
(101.2481272 -11.11376502 2.737759273e-20)
(101.1808557 -8.875721852 -1.54975447e-19)
(100.6506981 -6.924606827 -3.475109359e-19)
(100.0057097 -5.411160362 -2.478085503e-20)
(99.26932637 -4.066730848 0)
(98.89548906 -3.118225463 0)
(98.37656172 -2.146948454 -3.613688578e-20)
(98.1457436 -1.47412515 1.783212699e-20)
(97.99689519 -0.867466379 7.479057586e-22)
(97.91857121 -0.2857388271 -1.319673261e-20)
(102.8702329 -0.2505306846 0)
(102.8437689 -0.7601470022 0)
(102.7959399 -1.28430088 0)
(102.7113737 -1.84517425 0)
(102.4862166 -2.327141134 0)
(102.3296051 -2.989932635 0)
(102.1779683 -3.752339523 -7.417114599e-22)
(101.8902485 -4.523342441 -3.607099212e-19)
(101.5136047 -5.457500804 -3.571569747e-19)
(101.0696127 -6.514093881 -6.909504351e-19)
(100.6909431 -7.756942729 1.356291212e-19)
(98.20929217 -8.95130543 -2.1424465e-19)
(98.95525513 -10.33942435 -1.04758419e-19)
(99.64022083 -10.27203863 1.299044055e-19)
(99.83246465 -9.248081675 0)
(99.66416086 -7.808025487 1.273730995e-19)
(99.29025658 -6.384092589 7.009108261e-20)
(98.85349891 -5.169982929 0)
(98.33574274 -3.972986123 -3.048165327e-20)
(98.10562684 -3.103021527 4.634723376e-20)
(97.71239858 -2.142641383 1.123466353e-20)
(97.54080133 -1.484060637 1.918989463e-20)
(97.42840255 -0.8751882112 -2.179747638e-20)
(97.36810881 -0.288325173 0)
(103.3450054 -0.2476598261 0)
(103.33006 -0.7508812222 0)
(103.3049343 -1.267141828 0)
(103.2554951 -1.808589232 0)
(103.0747049 -2.285309126 0)
(102.986753 -2.912941527 0)
(102.9124759 -3.609165021 0)
(102.7214287 -4.329615807 -1.184323469e-21)
(102.4660228 -5.16004171 -4.499217282e-19)
(102.1253315 -6.02847042 -6.951027315e-20)
(101.8279314 -6.921430786 2.684829982e-20)
(95.27704274 -7.053031726 -6.640189369e-19)
(99.49504059 -8.339865844 -5.398089827e-19)
(99.2766678 -8.324321589 -5.112023767e-20)
(98.95035141 -7.710792334 -2.957118698e-19)
(98.59209525 -6.771787198 0)
(98.22834535 -5.76383084 3.727285133e-21)
(97.88967884 -4.803141583 0)
(97.51400933 -3.777888408 0)
(97.37234539 -2.997697067 0)
(97.0751715 -2.081670181 3.890375217e-20)
(96.95057356 -1.454895194 -3.639330134e-20)
(96.86681372 -0.8593094419 -2.460444833e-21)
(96.82086692 -0.2835188162 2.468754593e-21)
(103.8093493 -0.2402164646 0)
(103.8037531 -0.7273074442 0)
(103.7963423 -1.225828911 0)
(103.774311 -1.737726111 0)
(103.6303463 -2.196661963 0)
(103.5921311 -2.776364979 0)
(103.5686454 -3.397738638 0)
(103.4328151 -4.036188472 0)
(103.2310139 -4.745853394 5.214321666e-22)
(102.8922435 -5.446108577 5.326801542e-20)
(102.6320438 -6.118803209 -2.503220903e-21)
(94.21264794 -6.064652044 0)
(99.65909348 -6.962825167 1.976803441e-19)
(98.9724761 -6.908810188 0)
(98.32998227 -6.497010289 -1.221614376e-19)
(97.82232047 -5.867254088 -1.021714084e-20)
(97.41585095 -5.136831968 0)
(97.10319803 -4.381708708 0)
(96.79972922 -3.515109899 0)
(96.70702531 -2.827868134 0)
(96.47807879 -1.977712 0)
(96.3877474 -1.393871768 0)
(96.32555788 -0.8258328527 0)
(96.29027875 -0.2735825937 0)
(104.2553324 -0.2292843358 0)
(104.2569019 -0.6929158356 0)
(104.2623592 -1.166424792 0)
(104.2600766 -1.642457935 0)
(104.1442654 -2.074847628 0)
(104.1380463 -2.600784909 0)
(104.1416332 -3.147444592 0)
(104.0307187 -3.700818531 0)
(103.8363801 -4.28040674 0)
(103.4632917 -4.837332737 -4.973350457e-21)
(102.9511318 -5.324024741 0)
(95.55095479 -5.467944094 0)
(99.67250328 -5.895604118 6.333344663e-20)
(98.72505423 -5.823400803 -2.631381808e-20)
(97.90005893 -5.540447021 0)
(97.26598327 -5.094247059 0)
(96.79297717 -4.544175013 0)
(96.46622061 -3.946025076 0)
(96.18892967 -3.2187154 0)
(96.11625057 -2.622286846 0)
(95.92927994 -1.847521996 0)
(95.86105461 -1.311994326 0)
(95.8129451 -0.7792768495 0)
(95.78587887 -0.2587900188 0)
(104.6772644 -0.2159097205 0)
(104.6838919 -0.6510456696 0)
(104.6976929 -1.094673448 0)
(104.7081275 -1.531887677 0)
(104.612412 -1.932553968 0)
(104.6232883 -2.40353806 0)
(104.6358302 -2.882654926 0)
(104.5290465 -3.354712702 0)
(104.3177443 -3.827222708 0)
(103.906841 -4.263783956 0)
(103.1414771 -4.608399521 0)
(96.43697576 -4.787597756 0)
(99.70188252 -5.030252557 0)
(98.57245733 -4.971405469 0)
(97.59874024 -4.761775472 0)
(96.85141788 -4.428547204 0)
(96.3084149 -4.00476947 0)
(95.94755991 -3.525038181 0)
(95.67015538 -2.914617309 0)
(95.59727077 -2.40114969 0)
(95.43195715 -1.703985462 0)
(95.37571256 -1.218083493 0)
(95.33535404 -0.7250958808 0)
(95.31329354 -0.2412798677 0)
(105.0714571 -0.2010509084 0)
(105.0812449 -0.6047345711 0)
(105.0994195 -1.015683883 0)
(105.1165076 -1.413569583 0)
(105.0342464 -1.780166139 0)
(105.050615 -2.198431243 0)
(105.0582882 -2.617536107 0)
(104.9439026 -3.017062978 0)
(104.7032654 -3.403872682 0)
(104.2495179 -3.750028747 0)
(103.2636004 -4.005491309 0)
(97.01192919 -4.184510006 0)
(99.71745289 -4.326573782 -3.438617537e-35)
(98.45775369 -4.275894998 0)
(97.37191941 -4.114105945 0)
(96.53350546 -3.857237723 0)
(95.92521384 -3.523810773 0)
(95.52240827 -3.134782767 0)
(95.2294209 -2.620139975 0)
(95.14368777 -2.178781554 0)
(94.98544291 -1.556462494 0)
(94.93325119 -1.118992892 0)
(94.89563503 -0.6673981582 0)
(94.87615896 -0.2225313806 0)
(105.4359286 -0.185514459 0)
(105.4472939 -0.556538433 0)
(105.4666287 -0.9337547347 0)
(105.4854358 -1.293274165 0)
(105.4116221 -1.625601068 0)
(105.4249678 -1.995240092 0)
(105.4185102 -2.360740757 0)
(105.2899386 -2.698620609 0)
(105.0150584 -3.017322567 0)
(104.5187229 -3.295819659 0)
(103.3474797 -3.490272866 0)
(97.44786977 -3.6650413 0)
(99.7159534 -3.74587393 0)
(98.36545703 -3.69957799 0)
(97.19512404 -3.570304115 0)
(96.28364937 -3.366957603 0)
(95.61736949 -3.099645969 0)
(95.17208274 -2.78093732 0)
(94.85349203 -2.34488246 0)
(94.74797574 -1.96439369 0)
(94.58684808 -1.411542743 0)
(94.5329251 -1.019803612 0)
(94.4943841 -0.6092518118 0)
(94.47560813 -0.2035644244 0)
(105.7701242 -0.1699320874 0)
(105.7818153 -0.5084365708 0)
(105.7999004 -0.8522266587 0)
(105.8166941 -1.175322967 0)
(105.7473771 -1.474547386 0)
(105.7520443 -1.800352378 0)
(105.7259297 -2.117261293 0)
(105.5794414 -2.405038921 0)
(105.2698926 -2.669350678 0)
(104.7340619 -2.896573455 0)
(103.409816 -3.047971943 0)
(97.78001796 -3.218502512 0)
(99.7034558 -3.259303182 -4.457967277e-35)
(98.28871585 -3.21623896 0)
(97.05344569 -3.11024161 0)
(96.08312344 -2.945698998 0)
(95.36640541 -2.727818179 0)
(94.88049426 -2.463694426 0)
(94.53201238 -2.092429543 0)
(94.40268646 -1.763405502 0)
(94.23220208 -1.27361967 0)
(94.17260699 -0.9240217 0)
(94.13063072 -0.5528051645 0)
(94.11116865 -0.1850864774 0)
(106.0745948 -0.1547763499 0)
(106.0856554 -0.461873961 0)
(106.1007796 -0.7735134835 0)
(106.1129201 -1.0627626 0)
(106.0451538 -1.330853599 0)
(106.0375559 -1.617486978 0)
(105.9895585 -1.891843432 0)
(105.822662 -2.138079609 0)
(105.4803537 -2.358975328 0)
(104.9088574 -2.546701244 0)
(103.4606514 -2.667191843 0)
(98.03345421 -2.833792745 0)
(99.68376607 -2.84766953 0)
(98.22352549 -2.807322712 0)
(96.93742036 -2.718742955 0)
(95.91930147 -2.583229386 0)
(95.15908164 -2.403107756 0)
(94.6354956 -2.181913784 0)
(94.25598266 -1.864215091 0)
(94.10101303 -1.57872785 0)
(93.9171815 -1.145379721 0)
(93.84940107 -0.8339077287 0)
(93.8023673 -0.4994788197 0)
(93.78124136 -0.1675704973 0)
(106.3506555 -0.1403877785 0)
(106.3603778 -0.4178636246 0)
(106.3713814 -0.6992749198 0)
(106.3771092 -0.957624152 0)
(106.3087398 -1.196984223 0)
(106.2867677 -1.448950261 0)
(106.2160049 -1.686721359 0)
(106.0281194 -1.898106042 0)
(105.655934 -2.084105601 0)
(105.0524514 -2.240903281 0)
(103.5058634 -2.338900809 0)
(98.22743266 -2.501958205 0)
(99.65923364 -2.497428783 1.466378251e-35)
(98.16730756 -2.459415388 0)
(96.84080476 -2.384313117 0)
(95.7834909 -2.271115233 0)
(94.98584774 -2.120416417 0)
(94.42790271 -1.933458536 0)
(94.01782199 -1.660225422 0)
(93.83688629 -1.411587679 0)
(93.63746937 -1.028261641 0)
(93.56003523 -0.750809312 0)
(93.50697897 -0.4501508749 0)
(93.48353157 -0.1513146439 0)
(106.6001251 -0.1269998731 0)
(106.6080066 -0.3770815688 0)
(106.6141542 -0.6305904114 0)
(106.6123806 -0.8611426381 0)
(106.5419104 -1.074359495 0)
(106.5045202 -1.295913181 0)
(106.4110706 -1.502415774 0)
(106.2026487 -1.684419761 0)
(105.803838 -1.84218784 0)
(105.1716858 -1.974379278 0)
(103.5486162 -2.055654431 0)
(98.37683475 -2.215573999 0)
(99.63135799 -2.198410539 0)
(98.11825354 -2.162439663 0)
(96.75928439 -2.098041628 0)
(95.66952042 -2.002393394 0)
(94.83965106 -1.875023171 0)
(94.25066405 -1.715706302 0)
(93.81130852 -1.479570677 0)
(93.6049821 -1.26214086 0)
(93.3889266 -0.9228480001 0)
(93.30110758 -0.6754184733 0)
(93.24153991 -0.4052995663 0)
(93.21535875 -0.1364870339 0)
(106.8251551 -0.1147598207 0)
(106.8308572 -0.3399398298 0)
(106.8317333 -0.5680993158 0)
(106.8218633 -0.7739732947 0)
(106.7482392 -0.9636881405 0)
(106.6951037 -1.15874974 0)
(106.5796493 -1.338627722 0)
(106.3517351 -1.495806644 0)
(105.9295182 -1.630603007 0)
(105.271654 -1.742984969 0)
(103.5903601 -1.811621402 0)
(98.49338377 -1.968720299 0)
(99.60120753 -1.942890227 0)
(98.07504629 -1.908728207 0)
(96.68977521 -1.852991739 0)
(95.57290238 -1.771386367 0)
(94.71519719 -1.662766013 0)
(94.09829239 -1.525977555 0)
(93.63134492 -1.320932582 0)
(93.40070184 -1.129929495 0)
(93.1676731 -0.8291676366 0)
(93.06923518 -0.6079717627 0)
(93.00299488 -0.3651164274 0)
(92.97384688 -0.1231613946 0)
(107.0281069 -0.1037489134 0)
(107.031414 -0.3066520189 0)
(107.0268323 -0.5121164275 0)
(107.0086178 -0.6963605564 0)
(106.931115 -0.8651537874 0)
(106.8623716 -1.037295515 0)
(106.7259383 -1.194577058 0)
(106.4798592 -1.330774404 0)
(106.0371813 -1.446786979 0)
(105.3562435 -1.543066301 0)
(103.6317737 -1.602003714 0)
(98.58625414 -1.756583648 0)
(99.56947512 -1.724903701 0)
(98.03665648 -1.692302786 0)
(96.62996305 -1.643643762 0)
(95.490247 -1.573404938 0)
(94.60838711 -1.479997016 0)
(93.96640256 -1.361686891 0)
(93.47366355 -1.182771381 0)
(93.22001202 -1.014121082 0)
(92.97011646 -0.7469011288 0)
(92.86114183 -0.5484035341 0)
(92.78827692 -0.3295996693 0)
(92.75605227 -0.111347112 0)
(107.2114091 -0.09400310938 0)
(107.212195 -0.2772963957 0)
(107.202125 -0.4627390869 0)
(107.1755502 -0.628295381 0)
(107.0936662 -0.7786371862 0)
(107.0097337 -0.9311002379 0)
(106.853501 -1.069271121 0)
(106.5906987 -1.18778195 0)
(106.1301131 -1.288403328 0)
(105.4284422 -1.371527783 0)
(103.6731366 -1.422961353 0)
(98.66280133 -1.575263132 0)
(99.53662387 -1.539762575 0)
(98.00223663 -1.508458135 0)
(96.57805142 -1.465594463 0)
(95.41892892 -1.404609894 0)
(94.51598947 -1.323603728 0)
(93.85144501 -1.220480518 0)
(93.33469087 -1.063535673 0)
(93.05940397 -0.9137334672 0)
(92.7929865 -0.6755531081 0)
(92.67374275 -0.4964727841 0)
(92.5944242 -0.29863249 0)
(92.55909469 -0.1010148527 0)
(107.3775611 -0.08552632169 0)
(107.3757558 -0.2518587574 0)
(107.3602609 -0.4199198082 0)
(107.3254611 -0.5695983342 0)
(107.238785 -0.7038407888 0)
(107.1402374 -0.8395802843 0)
(106.9652864 -0.9614826313 0)
(106.687347 -1.065364057 0)
(106.2109705 -1.153367084 0)
(105.4906472 -1.225741979 0)
(103.7144021 -1.271299222 0)
(98.72882789 -1.421467144 0)
(99.50294135 -1.38369623 0)
(97.97105219 -1.353407313 0)
(96.53258879 -1.315269153 0)
(95.35684295 -1.261825344 0)
(94.4353765 -1.190937395 0)
(93.75042186 -1.100251213 0)
(93.21139342 -0.9617662067 0)
(92.91578687 -0.827755594 0)
(92.63325011 -0.6145357368 0)
(92.50410421 -0.4518418727 0)
(92.41856141 -0.2720311077 0)
(92.38014345 -0.0921114883 0)
(107.5288437 -0.07830852418 0)
(107.5244279 -0.2302795412 0)
(107.5036312 -0.3835240644 0)
(107.4608357 -0.5200588312 0)
(107.3691298 -0.6403652494 0)
(107.2566417 -0.7620767755 0)
(107.0640177 -0.8698617471 0)
(106.7723039 -0.9622039104 0)
(106.2819312 -1.03984441 0)
(105.5447977 -1.103460045 0)
(103.7553847 -1.144402716 0)
(98.78901705 -1.292402275 0)
(99.46861058 -1.253629988 -1.957421057e-36)
(97.94246009 -1.224097525 0)
(96.49237325 -1.189773538 0)
(95.30226467 -1.142441023 0)
(94.36439782 -1.079784671 0)
(93.66089885 -0.9995192596 0)
(93.10104917 -0.8763215374 0)
(92.78640376 -0.7551979506 0)
(92.48828155 -0.5632985265 0)
(92.34963909 -0.4141367289 0)
(92.25812635 -0.2495933903 0)
(92.2166749 -0.08457885338 0)
(107.6681769 -0.07231420108 0)
(107.6611062 -0.2124470804 0)
(107.6351097 -0.3533626286 0)
(107.5845614 -0.4792711184 0)
(107.4871983 -0.587781871 0)
(107.3614368 -0.6978363976 0)
(107.1524637 -0.7938590649 0)
(106.8476539 -0.8769639433 0)
(106.3448247 -0.9462212524 0)
(105.5924919 -1.002775941 0)
(103.7959565 -1.040138644 0)
(98.84713111 -1.185781724 0)
(99.43378246 -1.147093097 0)
(97.91589991 -1.118084937 0)
(96.45638123 -1.086775276 0)
(95.25373971 -1.044316257 0)
(94.30125659 -0.988251783 0)
(93.58101207 -0.916581066 0)
(93.0011674 -0.8060215467 0)
(92.66877423 -0.6951664377 0)
(92.35512664 -0.5211695055 0)
(92.20738098 -0.3829786727 0)
(92.11010272 -0.2310905762 0)
(92.06563048 -0.07834140121 0)
(107.7958213 -0.06755998435 0)
(107.7862036 -0.1983459982 0)
(107.7551965 -0.329290055 0)
(107.6972054 -0.4473949303 0)
(107.5952881 -0.5455636173 0)
(107.4568539 -0.6461558318 0)
(107.2329472 -0.7336777618 0)
(106.9153771 -0.8083334515 0)
(106.4012766 -0.8711141734 0)
(105.6350858 -0.9221056886 0)
(103.8360492 -0.9567404211 0)
(98.90617402 -1.099761674 0)
(99.39857673 -1.062131325 0)
(97.89085975 -1.033416101 0)
(96.42370218 -1.004390897 0)
(95.20998001 -0.9656982205 0)
(94.24430357 -0.9147361926 0)
(93.50864807 -0.8493735871 0)
(92.90987608 -0.7493525621 0)
(92.56058245 -0.6466467433 0)
(92.23319375 -0.4881054925 0)
(92.07675209 -0.3580572647 0)
(91.97397051 -0.2164159647 0)
(91.92664513 -0.07338743235 0)
(107.9217027 -0.06387772827 0)
(107.9091651 -0.1876384811 0)
(107.87296 -0.3109898058 0)
(107.8068914 -0.4221787316 0)
(107.6961326 -0.5134811549 0)
(107.544856 -0.6068593884 0)
(107.3066577 -0.6883902028 0)
(106.9773689 -0.7556205872 0)
(106.452741 -0.8134623779 0)
(105.6737626 -0.8602290495 0)
(103.8755687 -0.8928656752 0)
(98.96842245 -1.032959553 0)
(99.36309172 -0.9972199646 0)
(97.8668585 -0.9685682491 0)
(96.39351146 -0.9411477707 0)
(95.16983444 -0.9052167288 0)
(94.19205863 -0.8580436723 0)
(93.44190227 -0.7974166188 0)
(92.82541417 -0.705612712 0)
(92.45994126 -0.6097462353 0)
(92.11432666 -0.4616087057 0)
(91.94864382 -0.338940726 0)
(91.84020901 -0.2051443151 0)
(91.78964167 -0.06951082974 0)
(108.018249 -0.06175214297 0)
(108.0038133 -0.1811878126 0)
(107.9635885 -0.2995092194 0)
(107.892262 -0.4089324473 0)
(107.7894163 -0.4908025675 0)
(107.6271489 -0.5792486449 0)
(107.3753205 -0.6570125301 0)
(107.0350659 -0.71812994 0)
(106.5005037 -0.7724280051 0)
(105.7095902 -0.8161810041 0)
(103.9144383 -0.8474653378 0)
(99.03551726 -0.984235981 0)
(99.32742052 -0.9511728838 0)
(97.84344028 -0.9223747495 0)
(96.36504105 -0.8959172592 0)
(95.13225591 -0.8618153044 0)
(94.14322971 -0.8172314904 0)
(93.37941657 -0.7599050511 0)
(92.74606689 -0.6742460625 0)
(92.36533253 -0.5834679068 0)
(92.02080024 -0.4470872324 0)
(91.84875849 -0.3266819562 0)
(91.73596034 -0.1982035849 0)
(91.68335346 -0.06724745039 0)
(108.1994295 -0.05946937261 0)
(108.1809728 -0.1754536369 0)
(108.1330701 -0.2897933878 0)
(108.0480557 -0.3930875126 0)
(107.8754453 -0.4782473409 0)
(107.7016398 -0.5635198264 0)
(107.4377243 -0.6397062173 0)
(107.0897917 -0.6952806044 0)
(106.5456923 -0.7473269545 0)
(105.7435235 -0.7891916343 0)
(103.9525749 -0.8198355145 0)
(99.10836292 -0.9530424919 0)
(99.29173366 -0.9231344104 0)