/*--------------------------------*- C++ -*----------------------------------*\
| =========                 |                                                 |
| \\      /  F ield         | OpenFOAM: The Open Source CFD Toolbox           |
|  \\    /   O peration     | Version:  v1912                                 |
|   \\  /    A nd           | Website:  www.openfoam.com                      |
|    \\/     M anipulation  |                                                 |
\*---------------------------------------------------------------------------*/
FoamFile
{
    version     2.0;
    format      ascii;
    class       volScalarField;
    location    "0.28";
    object      k;
}
// * * * * * * * * * * * * * * * * * * * * * * * * * * * * * * * * * * * * * //

dimensions      [0 2 -2 0 0 0 0];


internalField   nonuniform List<scalar> 
12556
(
36.90869863
36.90874752
36.90881414
36.90889177
36.95440246
36.9548686
36.95572756
36.95775924
36.96188762
36.96930888
36.98053453
36.99352739
37.00358147
37.00469794
37.00021441
36.98693442
36.97538531
36.96607569
36.96042935
36.95698157
36.91061645
36.90936906
36.90875999
36.90842326
36.72744057
36.72763937
36.72785949
36.72833271
36.77391752
36.7763843
36.78168707
36.81206249
36.83155025
36.86648879
36.92009336
36.98717671
37.02312991
37.0303057
37.01517884
36.96741293
36.90734484
36.860384
36.80889085
36.78917497
36.73482952
36.73049347
36.7284854
36.72751591
36.5473742
36.54786643
36.54847931
36.54952303
36.59617963
36.60263719
36.61568272
36.65915561
36.70744968
36.79181157
36.91406792
37.02694876
37.08560009
37.0999675
37.07013924
36.99392706
36.88306065
36.77561436
36.67905057
36.63422847
36.56632297
36.55650628
36.55187429
36.55004452
36.3686442
36.36916283
36.37018847
36.37288148
36.42129435
36.43508486
36.46353758
36.53299819
36.6352054
36.8060025
36.99979404
37.16800977
37.25751622
37.26435745
37.20414577
37.08713615
36.92734205
36.76071044
36.59101263
36.50281714
36.40781363
36.38895373
36.37980362
36.37627862
36.19190565
36.19268034
36.19467036
36.19977611
36.25219439
36.27736578
36.33266363
36.44327585
36.64146994
36.90913547
37.21415076
37.48005771
37.64108173
37.62055592
37.48708092
37.28371397
37.04963599
36.80929773
36.56882762
36.40400767
36.26476426
36.22801428
36.21140412
36.20501529
36.01682521
36.01792715
36.02135166
36.03075172
36.09022124
36.13351802
36.23021332
36.40852033
36.70776217
37.11519275
37.62287944
38.15372795
38.49612438
38.39124015
38.02775548
37.64362405
37.27479526
36.92863112
36.59263518
36.34567962
36.1375835
36.07319437
36.04542198
36.03456684
35.84451966
35.84651426
35.85263945
35.86756265
35.93692303
36.00510937
36.16004786
36.42081924
36.8341234
37.44295904
38.31998364
39.66868056
40.43694528
40.27046641
39.00871772
38.22697686
37.62405753
37.12200287
36.6580355
36.3310447
36.02679461
35.92503751
35.88111375
35.86399228
35.67579308
35.67892113
35.68840128
35.71169352
35.7958238
35.89532793
36.12244902
36.45637486
37.00332178
37.85693173
39.28820548
42.3032371
43.25453208
40.60189709
39.05310647
38.09973545
37.38611504
36.76304425
36.34313571
35.93449098
35.78493697
35.71945772
35.69419762
35.51309223
35.51824031
35.53305939
35.56877955
35.66589814
35.80596642
36.10991882
36.51465616
37.19927669
38.29143339
40.2061618
44.73372648
48.21936917
42.56625831
40.04843003
38.66198557
37.70161315
36.8956496
36.37221828
35.85987362
35.65557249
35.56398352
35.52886745
35.35765349
35.3649771
35.38555447
35.43482753
35.54898966
35.73612065
36.11377403
36.58822013
37.39935555
38.68575692
40.89819634
45.91698688
51.61912453
44.36091216
41.05692675
39.25466028
38.03555839
37.04282989
36.41220729
35.80406484
35.54122746
35.42014373
35.37357772
35.21205927
35.22259404
35.25105251
35.31753513
35.44709368
35.68348063
36.1296014
36.67302755
37.59886279
39.04237893
41.46562602
46.33235557
53.27336153
45.71412956
41.95351694
39.80881933
38.35947269
37.18857386
36.45947122
35.76390243
35.44477598
35.29330904
35.23425108
35.07616376
35.08961774
35.12537455
35.20858696
35.35872508
35.6444675
36.15431268
36.76499926
37.79369533
39.37501237
41.99663925
46.03608693
53.97244696
46.63533484
42.66634458
40.27597388
38.64025471
37.32044334
36.50820529
35.73997772
35.36710679
35.18626929
35.11445028
34.95124655
34.96860151
35.01479643
35.11737414
35.28149714
35.6154406
36.18098592
36.85866857
37.98131937
39.69233543
42.55896951
45.47122263
43.88761801
53.77520256
47.21310093
43.17415517
40.63521375
38.86125055
37.42946289
36.55190588
35.72387854
35.30677178
35.09844289
35.01470102
34.83532069
34.85638878
34.91220406
35.03132391
35.22385312
35.61077783
36.24118939
36.97463458
38.19392255
40.05576712
43.18178242
43.89233879
54.3478603
53.72158978
47.50870544
43.50497349
40.87308682
39.0142074
37.51349793
36.58631697
35.70868988
35.25841828
35.02607449
34.93172006
34.7275593
34.75227286
34.81721675
34.95231605
35.16520584
35.59356154
36.26923544
37.05689782
38.33977297
40.30896025
43.57568854
39.87574817
54.94327541
53.0859922
47.50151031
43.63449512
40.99697765
39.10387231
37.56558608
36.6081424
35.69202601
35.21592803
34.96355703
34.86049019
34.62473987
34.65298961
34.72634402
34.87693058
35.10988644
35.57284692
36.28835993
37.12747177
38.46561541
40.5149977
43.65618919
35.59861628
52.83499539
52.04289394
47.20558797
43.60220342
41.0100035
39.13112122
37.58771669
36.61436524
35.66433834
35.17087684
34.90457799
34.79447098
34.52594643
34.55747638
34.63812248
34.80270872
35.0541494
35.54556058
36.29312504
37.17633619
38.57486946
40.66978999
43.39821339
31.02050521
50.83753463
50.9070646
46.67411814
43.38540325
40.94505144
39.11617176
37.57747286
36.59451984
35.62527916
35.12191114
34.84421203
34.72850169
34.42735446
34.46190395
34.54899272
34.72652543
34.99515793
35.50899272
36.28268218
37.19738808
38.64138463
40.74467262
42.91653528
25.99005235
49.24647794
49.75114577
46.04450246
43.05284195
40.78253083
39.03684321
37.52221625
36.54198399
35.56700308
35.05974223
34.77738577
34.65761974
34.32960142
34.36681796
34.45924716
34.64771617
34.9309172
35.46201203
36.25355504
37.19092316
38.6594808
40.73990124
42.25998483
22.43975106
47.94948143
48.65026441
45.42348361
42.69160685
40.56789318
38.90345367
37.42868191
36.46306403
35.49263506
34.98647269
34.7020026
34.58005825
34.22866662
34.2682703
34.36548204
34.56402896
34.86044042
35.4045812
36.20847685
37.1614391
38.64281511
40.65082547
41.45450598
20.65910875
46.67423684
47.66545069
44.85359489
42.33151295
40.33008627
38.73805176
37.30889137
36.36253563
35.40257433
34.90067269
34.61609984
34.49291344
34.12754302
34.16918627
34.27029966
34.47683256
34.7834442
35.3373972
36.14959126
37.11340572
38.59769387
40.50091273
40.55300966
19.38321322
45.47025921
46.76570589
44.32402827
41.98405475
40.08452386
38.55510257
37.17037335
36.24506184
35.29999783
34.80499362
34.52179227
34.39807533
34.02125679
34.06474945
34.16966052
34.38403477
34.70033228
35.26163992
36.07936076
37.05080067
38.53026465
40.29764456
39.60222892
18.51802517
44.34702994
45.93703952
43.8280015
41.65281075
39.83948783
38.36361151
37.0191549
36.11479442
35.18566258
34.69828453
34.41708808
34.29328464
33.91579002
33.96085208
34.06887625
34.28901492
34.61172968
35.17868509
36.00009527
36.97699646
38.44443731
40.04500498
38.63079191
17.98291009
43.2910893
45.16833974
43.36083674
41.33712946
39.59924297
38.1690257
36.85992458
35.97523522
35.06391831
34.58536427
34.30672288
34.18313386
33.8036994
33.85027864
33.96172159
34.18847632
34.51858751
35.0899487
35.91393024
36.89473563
38.34236071
39.74390322
37.65323115
17.71055801
42.29945301
44.45135914
42.91898205
41.03515367
39.36549722
37.97461541
36.69611032
35.82926662
34.93387001
34.46325424
34.18703679
34.06377829
33.6950508
33.74292297
33.85710965
34.08810506
34.42164148
34.99673007
35.82273023
36.80606513
38.22419092
39.40887416
36.67979821
17.64344892
41.37041103
43.77966791
42.49951183
40.74531308
39.13858917
37.78224849
36.53008892
35.67904047
34.80105415
34.33928217
34.06572807
33.94289387
33.57771357
33.6269567
33.74451477
33.981716
34.32183203
34.90009058
35.7279096
36.71216086
38.08948223
39.05530084
35.71986301
17.71324541
40.50246521
43.14692339
42.09977495
40.46631688
38.91825443
37.59285401
36.36343093
35.52623968
34.66146069
34.20652612
33.93514575
33.81269675
33.46807002
33.51846869
33.63857221
33.87879203
34.21962924
34.8009036
35.63047522
36.61343109
37.93868808
38.68652601
34.78088275
17.89513007
39.68838787
42.54995195
41.71744508
40.19706811
38.70407897
37.40685072
36.1971865
35.37200045
34.52354381
34.07693385
33.80798849
33.68594551
33.3459556
33.397703
33.52126308
33.76781566
34.11591584
34.69987699
35.53107247
36.50983401
37.77315324
38.30497329
33.86996431
18.166015
38.92221313
41.98516373
41.35051401
39.93656001
38.49559229
37.22435357
36.03201355
35.21730741
34.37789731
33.93644571
33.66925862
33.54752745
33.23802733
33.29086589
33.41682111
33.66520787
34.01080105
34.59758465
35.43009079
36.40123269
37.59466239
37.91403401
32.99253196
18.48237749
38.20008615
41.45152257
40.99739496
39.68394894
38.29236779
37.04535481
35.86834479
35.06264032
34.23951614
33.80596593
33.5409246
33.41951066
33.11079461
33.16503564
33.29455969
33.54976441
33.90524352
34.49450257
35.32777085
36.28756939
37.40509727
37.51692359
32.15105693
18.81085947
37.51893421
40.94446125
40.65675903
39.43849277
38.09399749
36.86975863
35.70645253
34.90869423
34.08880161
33.6584835
33.39482671
33.27363176
33.0078887
33.06317412
33.19495925
33.45082766
33.79889567
34.39100271
35.2242786
36.16895112
37.2060752
37.1160311
31.34601854
19.12672748
36.87591623
40.46041794
40.32748719
39.1995458
37.90011257
36.69745492
35.5465288
34.75550305
33.95460716
33.5320066
33.27017225
33.14920204
32.87389577
32.93069071
33.06612786
33.32935977
33.69306235
34.28742834
35.11977379
36.04561461
36.99940274
36.71355625
30.57564635
19.41222268
36.2684468
39.99629843
40.00861044
38.96654859
37.71038271
36.52830357
35.38871095
34.60381907
33.79690062
33.37571471
33.11505923
32.99423481
32.78034229
32.83810826
32.97569393
33.23883627
33.58678434
34.1840903
35.01432253
35.91789718
36.7861299
36.31132448
29.83559136
19.65531046
35.69400425
39.55073616
39.69921321
38.73897577
37.5244784
36.36210517
35.23316355
34.45326163
33.67352354
33.25957822
33.00030124
32.87963744
32.63629638
32.69571903
32.83701966
33.10713979
33.48238288
34.08151898
34.90819218
35.78614655
36.56687771
35.91091875
29.12632734
19.84937962
35.15023986
39.12219626
39.39858564
38.51641762
37.34216075
36.19883076
35.08036158
34.30534071
33.5021887
33.08935085
32.83131078
32.71074779
32.55709195
32.61740896
32.76068525
33.03215195
33.3783858
33.98061539
34.80232123
35.65071154
36.34311192
35.51412263
28.44978917
19.99228759
34.63580686
38.7102042
39.1062679
38.29857112
37.16323772
36.03833754
34.93167543
34.16014008
33.40130558
32.99221484
32.73493506
32.61446105
32.37450519
32.43698647
32.58491746
32.86375615
33.28027448
33.88347287
34.6998826
35.51250518
36.11766183
35.12587793
27.80830907
20.08806591
34.15279782
38.31777486
38.82402388
38.08608056
36.98798166
35.88075362
34.79133922
34.02339049
33.18029767
32.773107
32.51721469
32.39684509
44.53461127
48.80986594
43.66453421
45.8041458
52.55972791
49.27623115
46.33621604
54.26613167
52.86792075
46.09284575
54.93501525
54.37868128
45.51063998
40.14986569
42.95582808
55.21069476
54.97434113
44.43710236
49.27979783
40.41019811
53.87570639
55.63846619
55.22814276
41.89089089
40.40054847
43.15655989
40.16500855
53.11736122
45.52413967
47.6711992
43.01615513
41.20327581
40.74178788
44.73286449
43.71640815
56.51505722
59.09677342
51.30895637
45.23436811
43.61699757
41.33245297
45.50411855
44.85344553
46.19192026
48.43685791
49.44545498
54.84144746
54.38945608
53.13978024
46.84650033
45.70342833
41.87827512
45.68857207
45.55614229
46.26629265
44.57116446
46.69835311
56.46708242
55.48736176
42.43129102
45.56002949
45.6878674
45.80240377
39.44398053
42.06151704
40.0419218
57.49288965
57.22044097
43.06591296
45.01895236
45.52261779
45.13112551
32.71743273
35.88342769
42.69135873
51.76475236
49.6920773
49.29100841
51.41923516
44.57947967
48.81825132
59.03173601
53.47391643
46.596861
52.35179267
57.64552885
49.56553271
50.25008615
45.37875887
51.03841728
49.67774744
51.58605499
51.18559136
54.49981764
56.26075846
51.12071641
57.52056483
56.27582703
57.8408459
57.65376037
50.86717678
46.90092287
48.26410282
46.25656708
47.89518272
45.93639501
49.58957871
48.01589381
55.30299296
54.93440913
53.80313024
56.78930946
57.03608952
56.2095201
56.74561712
53.61457969
42.20632056
44.43848706
46.23055704
43.39973903
40.68498381
45.80477161
43.5496964
57.16143701
56.57763011
36.05282082
39.25272876
45.77065908
42.45507649
37.13873549
33.54594797
40.53022466
37.37004424
44.14496442
57.69087831
57.52863948
39.6754533
40.07351599
32.65066117
45.07865409
45.85100577
31.87064333
82.21770395
33.44371364
31.89500076
45.15224617
40.00018269
43.52736233
41.57850886
43.45091048
47.65602321
44.10341113
66.33228238
49.10074547
45.25086913
50.31697148
50.01825489
54.39654619
53.93162354
47.88152653
47.16199828
64.8302211
47.75897067
46.07001367
49.5371451
57.9599084
57.77706201
49.83369412
48.02165054
43.76825559
57.92989692
47.0442131
55.68053162
45.08159825
51.29327261
45.93730458
45.58997777
41.9436169
54.73643365
57.32896215
57.44918693
57.06870018
57.30263947
54.66832556
39.07071181
56.96988329
41.9896749
42.22510283
41.72046673
44.0264112
44.89181111
42.18382493
42.22179352
71.71526572
49.85555388
65.96548117
47.92036222
61.83927921
48.93409723
58.40333621
58.57545926
54.52263807
54.49497406
41.1666735
49.5213042
56.08550248
41.84765648
41.36478753
52.00584731
42.294749
55.95390943
40.87075051
45.3487569
44.96834019
51.09815404
48.7300581
57.12466076
34.81927402
42.95450101
42.40321044
43.65153352
43.15190483
34.96320986
62.74246187
58.45282886
50.36975258
58.87470648
59.93786785
53.99072034
58.50334296
50.65860212
46.54157491
53.08987294
46.32880936
59.04685205
53.95466755
47.20627466
56.50815962
62.56558463
57.16880032
56.76459133
50.40046316
46.0297135
50.31453541
51.62672427
49.77040289
53.37828784
46.46455979
49.29949599
51.5452131
55.50784777
55.66177157
56.93741028
55.44307596
54.84214339
56.01853076
55.60617836
56.83919385
58.40978257
53.4544756
52.36369019
54.60845615
53.7732134
58.38147249
47.00595944
46.87969372
48.90916906
48.81013094
55.51962138
52.86443726
55.4420551
42.32543339
42.13951947
44.74450246
44.59172342
41.58494535
44.7501106
56.87137635
41.44955244
40.98237545
38.01365036
44.2785196
43.81545413
44.83530333
44.4233566
38.18129509
39.10220745
36.16184578
36.0004692
39.44000052
39.28534972
66.42285068
39.24108897
53.48163333
51.78257421
42.18939341
41.66448172
32.0933947
32.64668417
41.05441767
44.51613441
32.94658199
81.72685328
45.80876341
72.51572552
32.86614408
42.7672195
52.5045379
41.3338173
65.93917245
40.09077659
41.36553419
43.49774936
44.4342347
44.9015184
43.29342688
36.03836447
41.70889239
55.44098621
54.8975973
55.53238596
56.74895276
42.30318813
48.51494736
55.08600823
53.95558987
39.47905858
58.05693657
58.00992245
50.17255751
43.94636451
43.56124765
46.52124043
47.94191343
43.81343857
44.07698268
57.40642499
60.86603479
59.30416046
59.04112179
54.61966089
44.51280586
44.49463884
49.21489958
48.74280503
54.21566731
45.52234873
46.99365271
46.7272911
47.31905204
47.07837178
45.6776989
45.81673819
45.46831206
41.02245198
33.22384739
39.14866131
38.68075966
75.23886436
56.74270287
49.95016158
58.4923434
62.68113944
61.26745881
55.05148198
50.1018601
48.52484521
51.95273953
50.59576725
55.44016121
54.88615688
50.05645865
49.53953799
55.82533886
47.5155078
47.59163065
47.39295857
41.92524865
42.48425433
46.34862439
44.61017972
44.67536922
55.13519847
56.90423397
56.69596924
56.63148604
56.15976327
56.38714296
56.12478447
56.60105342
56.4498086
56.16887232
43.33672165
46.24358265
45.92701993
46.63466711
46.34467051
43.48658258
42.95033342
37.00733259
37.38404083
33.75004846
34.05293823
41.21390406
45.3628874
41.02419507
41.77166693
37.53302783
37.95442548
43.99682984
56.94741665
45.40596187
50.05924626
70.98577706
40.01815703
36.67129476
34.66815513
40.06783511
33.42522408
33.67590818
32.88316075
38.44212991
57.8052463
38.05361354
40.21358324
39.31377692
38.52846246
38.08165049
32.48638365
40.92731839
40.26952369
47.90210727
31.78559185
96.45875934
43.33330268
40.92391793
45.1064061
33.24688879
32.03251357
58.98847958
58.33549788
57.73476098
54.17307132
53.90428259
39.62207586
39.92435525
65.39734566
55.69187616
55.57822908
50.48492596
62.30876095
50.49806998
62.7852418
51.5733338
47.77036483
42.08378954
43.35729954
53.48455989
60.64509219
55.02265076
44.19968461
39.14006367
57.87031641
71.18051517
44.50650968
54.47744422
78.12072416
40.1058147
42.82366388
39.18447269
39.73818618
70.22227812
72.02755434
57.98725442
53.86330568
62.2457727
58.88097642
53.06728187
49.6503759
55.86811382
56.62728254
55.93644812
57.74879751
58.93849333
58.85663201
57.23683349
45.89535925
44.81925804
54.5603446
49.42270821
48.96464982
45.59387249
48.89013802
48.73776903
54.26218267
48.56626756
46.34547096
42.57415046
43.52450594
41.23036974
50.09817343
48.97779902
45.59529297
46.66533225
45.15269161
48.53712764
47.2284659
44.382409
45.43605366
40.04531966
39.64459986
39.80888284
39.28927375
33.73371673
35.35976161
40.38709156
39.95514259
61.16866324
60.53085419
60.08601465
53.87472689
54.53744438
52.71359627
53.61460596
60.41660305
56.75300266
54.92636958
54.77231107
54.70063376
54.92815173
57.06861211
57.25264425
51.30414224
52.40768882
60.73024813
61.23906499
62.69144206
61.94225247
58.19497349
63.77066852
64.91919129
64.61093701
64.07283106
63.29557208
65.30705773
63.86870806
55.38997823
61.71711194
62.81308362
44.46744834
50.53866827
49.56377182
51.45300548
50.80190083
45.12530944
48.21317729
47.54395636
49.22441742
48.4435232
51.2121284
53.93641479
53.3456212
54.63623407
54.12399143
51.72728294
47.59901846
52.31214493
51.67268241
53.14254751
52.52231746
48.01079253
50.90550904
50.15588918
55.03584967
55.83509977
52.50963266
51.2712677
41.36165709
40.81812284
42.30334023
41.55201321
39.9511265
39.41866939
40.64578887
40.11009827
46.4769045
45.8491451
47.32815896
46.69222195
44.59836661
42.79719109
45.62076049
44.99235148
43.29866389
43.11125529
44.73736193
43.58915817
52.71246796
43.71691863
44.94857046
43.06238116
43.36924756
36.5051361
36.85762011
42.79905928
34.34966841
34.10699732
34.70502756
34.4503719
33.96057891
41.44055856
34.22231712
36.08818439
38.88464933
40.73962444
45.21382456
38.45756284
35.81047268
39.31153631
38.49085777
35.13226968
34.8192506
35.62109853
35.25214876
44.14503851
38.10476838
38.61076419
60.60170625
40.86429804
59.26934056
52.49298092
58.82868877
40.80835424
74.13930381
39.62435883
70.67899436
61.75398618
36.53513159
35.34716324
33.11739219
33.35615749
39.91400834
38.71535841
32.87951261
33.06533551
66.29000983
32.40926117
37.87081418
37.12037386
81.98504593
87.64073459
31.72727601
91.64683115
74.51133849
42.13719617
33.17371897
81.18268066
52.56840812
90.44747478
56.39491657
32.17289003
42.78386984
40.63741609
39.25397331
63.92914538
63.38562069
54.39506163
48.4981187
48.0829641
64.14607958
39.33364422
42.81680935
40.08997721
57.45787949
57.54515036
55.10145276
46.50687228
45.67713413
49.77798911
56.24359112
46.30755129
46.51585915
41.60549187
41.98162207
44.5832076
51.62047184
55.82580378
58.86107885
48.90693506
47.92340178
47.8372747
47.95797511
47.94234989
49.0496272
41.72339181
40.39622642
43.02134529
50.83103219
52.71984122
57.37528474
40.93661377
40.52304468
35.48680262
59.73427056
61.51392379
54.96174597
47.79760958
47.64967781
47.71001314
47.51614467
44.17015145
44.87088555
45.21341418
46.2655765
48.37687232
36.97595153
41.50547533
41.07270139
53.60500659
50.21691005
41.39148364
32.38659836
32.43455188
33.71799948
47.12472378
67.60360761
59.68199003
39.22328987
44.40257163
42.21579015
31.83976017
33.37415883
32.31575991
32.35420325
31.92672453
66.97184018
53.8983084
44.8172296
47.24423458
63.82200065
40.06361884
39.89700926
48.22603195
57.10202101
47.97683037
46.27949936
48.59729166
43.93156379
41.24204016
40.19764866
74.71758964
77.86157952
79.56940416
67.26224233
76.53486832
43.41234503
43.76876747
47.11875383
68.15011713
62.69905007
59.82829131
71.38559883
68.18438464
41.40829249
46.55851878
45.0070121
56.01110411
55.24480335
45.95728732
51.42190356
50.4708178
41.16264349
52.59398433
42.53983242
43.0081722
51.09520156
41.43538556
42.68578357
62.39837085
63.23121072
59.18709727
59.30091549
57.99172407
57.82987609
54.63501559
55.8132125
55.38356526
57.6389701
57.39739379
58.01387555
49.61171641
50.94161812
56.66945034
58.19900084
64.49791156
60.39523871
64.57768696
64.94769411
61.82622825
42.60121905
45.09206824
44.51057955
49.19584699
48.93256429
45.76482015
42.14781085
41.87548736
44.01983122
43.62705137
50.24410981
52.73354421
52.3648325
54.98514834
54.60400873
52.80523802
46.79552426
49.87835801
49.56754059
51.99364784
51.63133304
48.8594681
43.40867612
43.97496876
47.39347949
46.47857407
42.66340029
43.22405764
47.30281303
47.85972958
49.21349655
40.31380498
40.14720594
41.64035917
41.42663588
37.67434954
39.90283133
39.76535626
48.48507579
46.52527716
47.1097573
51.89453241
51.37583648
43.64278042
44.26124333
52.47223315
51.15862137
51.48328103
55.2110973
44.78382845
45.96387316
42.04589927
41.64410943
37.34168368
38.62705817
42.52889467
42.16626476
33.91625372
33.98728415
36.27822487
35.86977355
33.72084994
33.81869226
66.61802718
32.11705339
33.50481308
32.61682835
109.2727675
32.03772305
41.71906242
69.49778571
62.35800191
31.99784275
32.03728649
33.02289129
79.69845806
85.90288025
83.12970388
66.17580488
32.75019016
31.9140817
31.95178071
45.12934938
39.30192144
39.19914519
63.71621328
62.63206662
49.39585391
47.30407854
40.78849528
58.30534517
60.51318243
62.67691173
44.02570705
61.72253506
54.61504563
62.0839308
60.55839206
46.03013683
45.26797729
46.10592348
51.52949177
54.30251792
54.74058212
53.61690671
53.93783768
60.39913488
59.76616311
60.12382641
58.99396963
59.35617721
59.83196189
49.15148643
47.03439431
47.33949194
46.56600077
46.76059254
49.23618344
62.06851663
61.04968528
61.09996247
60.50048701
60.81035297
61.65641949
49.68170428
48.32917758
48.67890266
47.66076085
47.98632258
49.56252124
52.90955792
52.98376983
52.11597057
52.26116583
37.11077048
39.65039413
39.50881235
33.84331571
36.05128255
35.92608429
36.43522567
36.1987506
33.93367417
67.76438765
69.16054747
60.76124691
69.05328031
32.85704404
32.79869957
33.00304426
32.93904463
32.39704592
34.05465794
32.4978146
32.64602531
33.51683433
35.61419777
35.50134951
35.82209319
35.71451125
33.58963241
33.15012984
33.06449507
34.21481933
33.31961525
32.88315159
69.36612047
66.57603623
51.11629658
69.30724641
35.02617311
33.94556026
38.76686882
32.54552855
34.51442365
34.37337795
31.80089106
95.50298357
96.48657117
62.99425153
89.06055709
79.98269249
32.20713548
32.27096222
33.3169895
31.9750427
63.6645346
70.05966106
64.00615111
66.72690056
61.83964996
52.62329747
68.50582849
62.79178144
54.83230064
54.1710358
65.48955314
50.07465098
55.92159979
56.68689529
53.54422515
59.08330173
53.00702031
56.48347174
64.10479141
65.66848261
57.53348582
62.80324691
66.98949214
60.28971622
62.01982324
59.19332049
64.36894422
74.34207359
74.02483823
72.37452679
46.98180423
65.10490286
58.48066567
72.67099644
74.57949896
50.75425134
55.46301658
60.77357477
76.67806495
63.96348754
48.12779533
50.98002267
67.15446357
63.19222974
67.64781537
60.96259436
64.11359419
67.07144116
68.76760789
68.04666942
56.02444634
56.54209476
56.90033578
55.55220436
55.78980756
55.64627898
58.25533069
58.20698329
58.56751745
57.40199139
57.75147048
57.76958615
45.52765913
47.10061573
47.09360851
49.17918504
49.12018933
46.96700957
50.01517467
49.81344828
49.00069145
48.98754267
49.55891208
47.48284215
46.63038252
46.49620574
47.01169624
46.83076444
46.79214323
55.74866465
50.44129366
41.7957669
57.67538903
57.56885258
57.14740223
44.57387365
55.65558699
54.98221946
41.99706533
42.19099915
48.44416493
61.84111238
59.79997685
56.69069561
56.26504496
55.25269253
57.66108722
57.19293118
56.90224121
65.79752655
65.49340249
59.7037473
66.26364884
68.49092225
61.69530933
65.54712755
65.76231196
62.47635916
61.08882423
61.03596499
61.04703884
61.08069674
62.20709895
64.20390832
64.4939806
63.97897883
67.51561727
67.36482475
67.501511
67.56901619
63.8290254
65.57105243
66.77748633
68.69614524
65.67864778
47.6597714
47.48241632
44.43574805
45.29782363
48.51040582
48.32498624
42.69976801
42.41185247
43.29861438
42.98832922
53.47569137
53.10128839
50.70819032
52.26098504
54.22840169
53.85167741
50.57061608
50.2394683
47.23132361
48.41027299
51.2680571
50.92214424
50.77097337
49.78244806
50.16359752
49.03488215
49.4054064
50.34615587
51.94250796
51.23205652
51.55053552
50.55133284
50.91035245
51.68194357
41.17455328
37.94398528
38.11748357
37.63126747
37.79085788
40.99734702
41.99125436
38.69160484
38.94786402
38.28941055
38.48255253
41.75803067
39.760715
36.71697741
36.88166772
36.44425402
36.60615682
39.62157063
40.46563806
37.32198996
37.48283424
37.0102186
37.17914231
40.29655179
40.7429251
40.55240301
46.26939611
43.96214862
44.17236023
43.5293367
43.72095476
46.05039447
41.18675243
40.97872092
39.00911435
38.92453651
44.29835597
42.04306638
42.11766497
39.32555004
39.84400194
43.51359925
45.43236081
43.1119725
43.2702188
42.68809301
42.80109468
45.17158776
39.49827085
39.396348
51.15131054
50.93734779
52.31050911
45.31093027
47.70826641
44.07470114
50.45364554
50.90124012
50.00927813
50.2698514
44.5171182
43.06064491
47.31744785
45.27081023
50.1232382
50.3273939
43.13254382
36.57491637
39.01093195
38.87473418
39.34110553
39.21109227
36.7735856
34.28692868
34.16511682
34.62368264
34.5143295
33.88436468
33.60256091
34.50582715
37.55464089
36.860533
38.54808385
38.25603
35.97109626
36.57617942
34.85339266
35.70450787
36.11061833
39.06331157
36.17448922
36.35563802
35.85359552
36.09682692
38.98235703
35.03060048
34.91270671
35.48846197
35.36146097
58.0416564
44.15593886
45.51611127
41.72021184
42.89502839
59.01635458
57.49471379
56.68154464
47.23650011
51.59283643
59.48140666
69.48046175
51.19316606
54.73082603
44.80448211
48.01497078
71.18867357
32.62261046
32.56422985
32.73491257
32.68941385
33.22681595
33.55675282
35.60230663
32.34554591
32.31628738
32.49265883
32.43194907
33.20453741
35.18890825
35.05954862
35.40118112
35.28188468
33.26556907
32.94828044
34.74779899
34.49166552
34.9798196
34.82349541
32.99012856
65.0443109
34.24099523
33.979712
32.26015949
80.21493354
102.0551023
105.4361425
102.2750225
102.2705874
84.32201037
31.86984609
83.98931352
65.28275201
69.06334409
33.09400409
32.07877115
32.14439929
80.82510886
87.98536144
86.46161106
73.69848465
79.41170297
92.16015333
88.77009621
60.95403051
84.77594968
75.66519863
32.06076234
31.88050461
32.48703326
36.6953886
36.72277151
36.82518415
36.73456891
36.78395838
36.8555342
36.80358942
36.88109738
36.90431463
36.90742413
36.9871593
36.96794288
37.00866825
37.05576358
37.01646315
37.06287502
37.0772182
37.03042113
37.07640456
37.06090965
37.02236649
37.0509703
37.00272254
36.98524009
36.98219363
36.90708224
36.92207486
36.8815594
36.80962773
36.87113621
36.56148819
36.62008943
36.69272881
36.64652303
36.75379669
36.76742096
36.79459877
36.92503645
36.88371549
36.96836754
37.08879015
37.00281785
37.12123683
37.186806
37.07655769
37.20070643
37.21412569
37.10137812
37.20933628
37.17760271
37.08169562
37.15976985
37.08615056
37.01676466
37.05575855
36.94870119
36.91104209
36.91001129
36.7938099
36.79779312
36.46207467
36.58243487
36.60314435
36.63445522
36.80947084
36.75987128
36.87397724
37.07765845
36.9515333
37.14529951
37.32963151
37.13197605
37.37771437
37.49927472
37.24196939
37.51904496
37.52329499
37.26824179
37.50257389
37.42973277
37.22542899
37.39607419
37.27118054
37.12081059
37.22270387
37.06498502
36.97029063
37.01023534
36.84561685
36.8000164
36.4117489
36.60846017
36.5834603
36.68468464
36.95134691
36.83695252
37.05207942
37.38390941
37.13762518
37.49801445
37.84012466
37.42146069
37.93811998
38.17291839
37.61072265
38.20804471
38.20408064
37.62579467
38.1212702
37.93167421
37.52990861
37.85800624
37.61845355
37.33968258
37.53516217
37.28809192
37.10970256
37.20673637
36.97131741
36.8693373
36.41485523
36.6876521
36.62389483
36.79833548
37.1956582
37.00295831
37.3505267
37.90056417
37.48893331
38.11389351
38.87377219
38.02037819
39.1573528
40.07085271
38.43503887
40.09253576
39.85891905
38.40712909
39.48554768
38.90354659
38.12389194
38.71083746
38.20652748
37.7391128
38.0562319
37.64994466
37.36440402
37.5240843
37.17611893
37.01382988
36.44622657
36.81081369
36.7148079
36.96093849
37.5203035
37.2688208
37.7514313
38.64200442
38.06740907
39.03476875
41.23294477
39.24633492
40.43128656
41.01747559
39.95934297
41.68016718
41.70849366
40.4353
41.09720907
40.38982544
39.90014758
40.14876396
39.09722067
38.39905969
38.82829786
38.15644162
37.76365576
37.96545341
37.4643608
37.23962375
36.49827302
36.95820508
36.84314858
37.14953136
37.87698908
37.60531536
38.18579264
39.42687708
38.84561697
39.53901634
40.13992687
39.83449315
42.70872004
43.4075806
42.89157024
45.17867769
43.72334283
42.3405775
42.07173192
40.2331767
39.35934526
39.80507587
38.79349116
38.30911236
38.51922546
37.81997111
37.54692313
36.5686599
37.1200723
36.99816699
37.34914016
38.22085348
37.96523771
38.59106965
40.06999072
39.60218032
40.39743129
41.17693296
40.95191535
44.92245624
46.13031309
45.91497685
49.7400962
46.94396996
45.76990364
43.94803257
41.4142042
40.52163406
40.83276023
39.47246025
38.95581361
39.11123509
38.20708357
37.91420109
36.65107241
37.2866474
37.16154472
37.54893056
38.53928005
38.30287417
38.9558277
40.59533412
40.20912221
41.0486207
41.92148338
41.75101512
46.01959513
47.43278904
47.38096051
52.40384555
49.2382499
48.50988554
45.41376344
42.45483233
41.67943789
41.75558411
40.11848395
39.63406299
39.67902256
38.5862201
38.30161542
36.74078793
37.45308922
37.32887526
37.74479075
38.83729033
38.61580787
39.29301706
41.07225407
40.71546216
41.60581469
42.55790251
42.39530041
46.32049277
46.9576907
47.11529041
53.62862933