/*--------------------------------*- C++ -*----------------------------------*\
| =========                 |                                                 |
| \\      /  F ield         | OpenFOAM: The Open Source CFD Toolbox           |
|  \\    /   O peration     | Version:  v1912                                 |
|   \\  /    A nd           | Website:  www.openfoam.com                      |
|    \\/     M anipulation  |                                                 |
\*---------------------------------------------------------------------------*/
FoamFile
{
    version     2.0;
    format      ascii;
    class       volScalarField;
    location    "0.28";
    object      p;
}
// * * * * * * * * * * * * * * * * * * * * * * * * * * * * * * * * * * * * * //

dimensions      [0 2 -2 0 0 0 0];


internalField   nonuniform List<scalar> 
12556
(
847.4497524
846.6466508
844.5864595
840.1768669
833.5390991
819.2763343
795.4986941
757.0082571
698.6207404
613.7917915
497.1980065
347.6136742
171.0419912
-18.53936538
-203.0541418
-366.7017689
-501.4304865
-605.7909567
-682.6771067
-736.4773167
-781.4056947
-801.6160486
-813.2761831
-818.6584221
847.9577979
847.5018776
846.1320053
843.0252892
836.4196415
824.4462087
803.5739394
772.5127124
720.4004113
642.2935142
531.1802875
383.2003717
202.2242906
5.32521433
-189.8280899
-362.8458546
-502.8308869
-609.6494497
-695.0987996
-745.5164662
-789.5294914
-807.1500257
-817.3976178
-822.0921076
849.1189821
849.4350532
849.6889034
849.2175717
845.105276
838.0804044
824.1797567
797.9775364
755.2214647
685.9150082
575.5656882
413.0207689
209.0813322
-12.48238655
-222.3074989
-403.994234
-546.1882544
-647.2425287
-729.3588004
-771.0526379
-808.2171756
-820.3699842
-827.4308829
-830.5324178
850.3202483
851.7271481
854.343047
857.5750602
857.4339224
857.6666792
854.3169451
838.7602292
812.6400111
756.0585419
645.673556
462.7374037
203.9690532
-75.21613389
-315.0525607
-495.3449911
-627.351193
-716.7104878
-782.9340311
-809.8858333
-834.9941843
-839.746013
-841.9959974
-842.775469
850.457952
853.1082929
858.4191091
866.1719114
870.4546322
880.3501017
890.2886344
891.5016723
888.6123098
859.4559501
769.4591439
559.754785
199.319864
-204.6645453
-496.5586118
-668.1404607
-762.6323459
-815.8219381
-853.504875
-859.5040035
-866.2106104
-861.7897318
-858.1604623
-856.1654725
848.299636
852.1861264
860.1187773
872.3920989
882.5558032
902.2780113
927.3044591
948.0840963
980.7502131
1008.863266
993.0067648
809.1710101
227.9199475
-474.1030612
-823.7729532
-933.5179025
-951.772422
-944.5318665
-936.220874
-914.1170996
-897.8613561
-883.0796029
-872.9094823
-867.9515091
842.6711652
847.6305967
857.8140565
874.0322842
890.0936131
918.8885154
957.8460996
999.3965022
1073.423871
1181.919385
1332.834387
1452.500558
460.5295963
-1185.179224
-1362.900448
-1282.621504
-1178.400815
-1087.76811
-1020.854881
-966.1375747
-925.5037569
-899.6239005
-883.194471
-875.4579315
832.5622767
838.2913093
850.0797261
869.0548666
890.4272725
925.7888592
974.682138
1034.007479
1140.497387
1312.268301
1606.449476
2183.718737
-2998.571683
-2094.003171
-1652.550669
-1392.761482
-1218.108835
-1089.732858
-1006.454184
-941.7528306
-907.1933487
-885.9985241
-875.9871467
817.2150982
823.3075439
835.8367094
856.0639854
881.3034726
919.8896659
973.1405593
1042.358025
1160.941549
1339.655791
1594.740399
1903.541713
-4374.038255
-2589.510601
-1894.498301
-1529.895651
-1298.986809
-1126.250181
-1024.425882
-942.0765845
-902.4924056
-878.6473121
-867.309155
796.2265463
802.2363561
814.5594914
834.3957538
861.8313274
899.983987
951.8913255
1022.29827
1133.34283
1285.164141
1459.074095
1609.383241
-3970.186085
-2544.945757
-1898.317527
-1535.180398
-1304.409082
-1119.211362
-1014.096967
-923.7058306
-883.7329076
-859.6666771
-848.1678953
769.6037007
775.1192483
786.3571774
804.2128522
832.3069801
866.7896445
912.8277899
977.850196
1072.165234
1190.309427
1310.689886
1410.255926
-2945.468818
-2127.631319
-1696.591736
-1426.807517
-1236.508648
-1068.315566
-974.9465027
-886.7540816
-850.8687267
-828.9742099
-818.4358975
737.7317084
742.410175
751.9282046
766.2608242
794.3202707
822.2573141
859.249618
914.5914131
988.1430902
1074.980575
1162.114354
1256.537524
-1907.770859
-1580.301667
-1384.589535
-1235.582911
-1112.125324
-982.831047
-911.5836973
-834.0024223
-805.72752
-787.8030895
-779.0955622
701.3409715
704.9522167
712.4290866
723.0435892
747.8139073
768.8008947
794.8249027
838.5041954
889.4000265
945.2044855
998.8325809
1083.746544
-731.8686179
-976.3575809
-1060.276629
-1053.391928
-1015.426605
-960.4774079
-877.7102836
-831.8109477
-770.8837832
-751.4651109
-738.3758723
-732.0033386
661.3285928
663.7817174
669.035125
676.1552581
696.6275059
710.2579891
725.2449164
755.6265084
783.4587004
806.2418002
815.8307273
846.9905555
265.9172748
-403.6272816
-659.7606685
-767.6929031
-807.7096569
-805.279478
-767.15802
-744.5531196
-702.7238516
-691.5099034
-683.3869511
-679.492887
618.7178356
619.9376867
622.6517801
626.0312126
642.3690276
647.9981985
652.5909767
667.8222742
673.2071234
665.4442232
628.3012238
528.690905
232.0817497
-161.489816
-411.0002347
-554.5495158
-633.1971709
-665.6207521
-660.3611199
-657.751786
-632.8422736
-628.9420935
-625.5353026
-623.9597222
574.5455751
574.6170929
574.8791204
574.7339501
587.0610583
585.7569836
581.4035507
583.1271552
570.7371963
541.0869204
479.2477879
362.7621738
175.171646
-71.40002058
-269.4435791
-409.2767801
-498.341915
-548.0269582
-564.3600863
-575.8426385
-564.5031165
-566.5707519
-567.1980662
-567.5690418
529.8332049
528.9348007
527.1137749
523.9854062
532.5227901
525.5556155
514.1603049
505.8851879
479.8037136
437.8484893
370.3112865
269.3234145
132.1386358
-37.78720223
-190.0181398
-310.4457478
-396.4045815
-452.5446346
-480.8012715
-501.1336427
-500.0376592
-506.5690455
-510.2920081
-512.1019965
485.5019394
483.8288304
480.3453588
474.8720045
480.0950908
468.8874995
452.4220848
437.9484771
404.1204316
356.6848431
291.6130735
207.1685009
99.97218924
-25.76195568
-143.7616509
-242.831409
-319.1679249
-375.0064183
-409.1682459
-434.5407841
-440.667001
-450.2117378
-456.1275293
-458.9239971
442.289986
440.0313039
435.2908079
428.0985268
430.6889076
416.5994517
396.9944528
378.8751507
342.6878859
294.6814611
234.4203094
162.6539509
76.28913534
-21.04374076
-113.6594996
-194.7922839
-261.3931697
-313.5356981
-349.1862176
-376.3919542
-386.900555
-398.2115123
-405.4820686
-408.9437107
400.7564421
398.0959102
392.4899859
384.1602966
384.7881542
369.0003281
347.7086742
328.0410783
291.9609785
246.5813555
192.457847
130.9119357
60.25177859
-17.75833777
-92.4524842
-159.7219808
-217.156403
-264.2007408
-299.0198944
-326.0000187
-338.8323859
-350.9104217
-358.8501292
-362.6346837
361.2988057
358.4043807
352.2913531
343.324867
342.6035897
326.0541073
304.2064076
284.3811236
249.8292956
208.0810528
160.166781
107.4977408
48.39409648
-15.48572408
-76.88595051
-133.1352268
-182.4661032
-224.180807
-256.78115
-282.4316915
-296.1697384
-308.2817588
-316.3727922
-320.2390577
324.1701121
321.1817315
314.8653505
305.6788424
304.0808903
287.4975464
265.9851531
246.8027698
214.558697
176.7936267
134.5756674
89.32233898
39.38643493
-13.74801265
-64.90848008
-112.2992298
-154.6430948
-191.2897192
-220.9961782
-244.7409537
-258.4264597
-270.0868706
-277.9752767
-281.7522639
289.4935407
286.5203312
280.2388093
271.1622216
269.0533107
252.9645956
232.4031691
214.3174596
184.7594123
150.9852439
113.8905611
74.88232512
32.3899857
-12.28845577
-55.33733715
-95.50604715
-131.8687224
-163.8758913
-190.4942211
-212.0517501
-225.0761447
-235.9880353
-243.4463277
-247.0219515
257.2858817
254.4097712
248.3388104
239.6147027
237.284022
222.0459684
202.8733228
186.0844619
159.3451398
129.3853427
96.87802988
63.18681368
26.85148255
-10.98960329
-47.45726978
-81.65013656
-112.8891593
-140.7288845
-164.2978731
-183.5977364
-195.606043
-205.6047935
-212.4958866
-215.8020237
227.4857265
224.7661589
219.0300465
210.8260558
208.4931155
194.3315941
176.7426988
161.4209879
137.4759694
111.0661665
82.66323634
53.55048716
22.39427036
-9.797796576
-40.81742723
-69.99550187
-96.82723936
-120.9578203
-141.6332435
-158.7246643
-169.5313228
-178.5435196
-184.7956093
-187.79609
199.9770824
197.455071
192.1378993
184.5631751
182.3898736
169.4362729
153.5143859
139.7377766
118.4871054
95.34081451
70.61537286
45.48835279
18.7516705
-8.688409481
-35.11966457
-60.03396183
-83.05158679
-103.8918889
-121.8799958
-136.8770969
-146.4062243
-154.4187833
-160.0059791
-162.6872161
174.6038058
172.3056525
167.460708
160.5807633
158.6881249
147.0044679
132.7670894
120.5462043
101.8509974
81.69165481
60.27028226
38.64579958
15.73079334
-7.650003427
-30.15924527
-51.40476202
-71.09869284
-89.01992485
-104.5420209
-117.5886275
-125.8277646
-132.8647043
-137.7909046
-140.154065
151.1819475
149.1227651
144.7802254
138.6291177
137.105189
126.7085675
114.132592
103.4345317
87.14188593
69.71660797
51.27613438
32.75629451
13.18846732
-6.676744704
-25.78843452
-43.84117803
-60.61638439
-75.94093048
-89.21171296
-100.4599807
-107.4344748
-113.5404658
-117.8272562
-119.8823176
129.5115861
127.6985817
123.8721088
118.461625
117.3735038
108.2517652
97.31604712
88.05560799
74.01709053
59.1005253
43.36095028
27.62037178
11.01626345
-5.765075191
-21.89694473
-37.14077312
-51.33153403
-64.3358566
-75.55331694
-85.15105335
-90.90362486
-96.13330266
-99.81157322
-101.573115
109.385522
107.8204097
104.5124336
99.83951546
99.23802995
91.36011892
82.03224505
74.12733283
62.19729546
49.59101509
36.31630251
23.08188197
9.130427935
-4.91185743
-18.39851927
-31.14374443
-43.02423041
-53.94053939
-63.28564453
-71.36762717
-75.94721282
-80.35754504
-83.46193206
-84.94655568
90.58612666
89.26836377
86.47526578
82.52455921
82.46790048
75.78476992
68.00101766
61.41222354
51.45055971
40.98097428
29.97281377
19.01387932
7.465332475
-4.113705655
-15.22370441
-25.72131491
-35.51507427
-44.520861
-52.17083321
-58.85298184
-62.30119797
-65.94886386
-68.51366077
-69.73730564
72.92516274
71.85018666
69.56534014
66.31987427
66.82755248
61.29801998
54.91666381
49.70684812
41.57602073
33.09420858
24.18398039
15.31430394
5.968671464
-3.366763688
-12.31478758
-20.76750599
-28.66056449
-35.92456679
-41.9743263
-47.37599405
-49.74779738
-52.68144937
-54.73890439
-55.71817381
56.10041373
55.27398709
53.49871447
50.93043853
52.15506386
47.69082495
42.64357863
38.78446723
32.38915844
25.77446071
18.82633478
11.89681018
4.597550467
-2.666370986
-9.620997488
-16.18939546
-22.33306235
-28.01997015
-32.50712312
-36.72951961
-38.00547219
-40.28448959
-41.85784245
-42.59892186
40.24811097
39.64335214
38.36604244
36.52529544
37.97995926
34.76366205
31.02141895
28.47070851
23.72830164
18.8816523
13.78763823
8.685866128
3.316053762
-2.006753253
-7.096302144
-11.90267071
-16.40926255
-20.60147852
-23.64141449
-26.70035844
-27.15330237
-28.76374113
-29.87787898
-30.41053168
23.93414567
23.64798667
22.8901385
21.78275948
24.42773382
22.35176517
19.86544054
18.60637254
15.44978394
12.28455887
8.960378711
5.611541318
2.093596293
-1.380308538
-4.697206534
-7.830019319
-10.77925543
-13.55022398
-15.20620531
-17.2162137
-16.19923525
-17.16284311
-17.81668835
-18.06764309
12.30251851
12.01575173
11.62231853
10.99128978
11.19150889
10.11509727
8.936887715
9.049610583
7.432299321
5.847713374
4.230500784
2.602771041
0.9094761133
-0.7744306047
-2.379783269
-3.900122099
-5.342739649
-6.723977851
-6.960193427
-7.885018611
-8.290002033
-8.771840836
-9.087972403
-9.328583345
1953.139521
-4700.184904
-3191.531434
1639.033093
-4330.257631
-4742.15962
1431.395962
-3204.481877
-4209.760355
1275.8214
-2076.703775
-3057.133166
1096.828856
-781.9349527
-825.3616984
-1086.587453
-1944.041473
874.8546141
352.5600406
-734.6071529
215.968875
-411.4942427
-976.6707084
2139.23178
701.5489811
-2823.272531
-991.1180392
-6360.810039
-4204.241941
-4324.646246
-2781.958749
-2260.471647
1495.907383
1623.50833
1865.53652
-6178.803602
-6611.90519
-4072.289588
-2861.638488
-2868.805235
1347.551533
1421.736933
1595.077507
1526.64757
1556.012547
1663.596868
-4463.359588
-5339.201521
-3079.665514
-2423.763399
-2786.399559
1199.940775
1263.00363
1400.306012
1351.150725
1384.118051
1447.694491
-2907.221237
-3561.827381
1041.711222
1092.369435
1243.439554
1187.380861
1241.795434
1311.932599
-1584.021487
-1559.376501
-2129.463503
862.3217262
873.5333868
1067.988577
991.9711559
1038.402528
1143.404799
595.9230185
345.3514778
365.3965878
2457.068876
2034.251918
2940.204757
2539.4882
-6631.229288
-6411.517669
-4333.496612
-6123.060687
-6460.072779
1678.387061
1788.111107
1737.586779
1791.738545
1681.387311
1994.909791
1810.228729
-5392.827044
-6139.76765
-4560.357704
-6007.541828
-5302.505978
-6444.164308
-6044.96789
-4600.204828
1458.065449
1541.820517
1501.0305
1548.800702
1459.079192
1673.59034
1556.708647
-3659.463107
-4402.107665
-3647.16502
-4297.042489
-3589.168373
-5249.953839
-4408.607332
-3793.500068
1316.798961
1380.413156
1332.337128
1383.416472
1320.667317
1453.487004
1386.893387
-2213.352924
-2817.575279
1149.71879
1236.859946
1176.256947
-1537.399711
1241.724578
1154.366137
1315.678924
1246.712674
-1578.280288
-988.3400999
-1481.443605
-1533.673748
1015.562351
1030.739019
976.7714515
-16.48635874
1036.20569
926.7937395
1148.097976
1043.031365
-90.03291831
1617.540639
1907.28571
2064.443231
2151.890446
2488.677319
2789.483821
-8192.420382
-5385.098098
1774.519268
1807.004208
1995.048987
-3474.491539
-2032.61105
-1798.677788
-2274.907618
-1991.794479
-1947.356504
-2247.130222
-146.9228882
-470.3842507
-846.8569321
2033.288037
2418.339912
2107.995595
2156.589057
3826.539692
3360.872925
-3982.409929
-5992.385449
-4115.95395
-2296.515876
-2620.544693
-2486.940065
-2775.068024
-2188.952768
-3495.21382
-2862.009855
-2627.085997
-1130.364027
-256.9877289
-424.3355525
1099.9444
2051.746812
2891.896366
-3708.768465
-1205.48846
763.8978374
-8290.26831
-5805.148347
-7970.084235
-5111.420575
-7819.48773
-5475.85032
-6382.511787
-6413.852398
-4875.945296
-4935.396596
-3063.605228
-3397.707564
-3181.117677
-3380.030734
-3036.612075
-3813.42504
-3431.913517
-3274.829188
1274.629164
1247.620484
1217.249841
-1583.16573
-1856.351647
-1909.230102
1091.582649
1060.283226
1016.225858
1112.911212
1073.942032
1097.873731
2510.997906
2194.265047
2240.446134
2202.499927
2530.840699
1990.501541
2167.491342
2180.707285
2868.966207
3293.065113
3673.205237
2596.653633
3196.138075
2795.029776
3243.812198
2589.431616
-6644.003073
-6636.766641
1738.718963
1801.536936
1730.868456
1899.919117
1876.44842
1975.893448
1807.035235
1865.891235
1874.372622
-5741.201414
-5788.071688
-5688.53591
-5091.768308
-5273.362359
-4797.528553
-5023.144678
-5642.546093
-6280.732114
-5479.125442
-5519.856893
-5324.722675
-5449.688775
-6250.994053
1503.322686
1496.82234
1619.354763
1610.727317
-3965.462655
-3855.818945
-4019.176408
1354.882015
1350.419065
1418.821282
1414.477384
-2984.254263
-2647.765824
-2554.16727
-2666.200059
-3004.74511
1188.21754
1161.180932
1125.202552
1206.585568
1172.956908
1195.23985
-1180.013459
1198.969579
1191.469442
1282.385086
1278.361547
-1915.64465
-1183.548952
-1225.998398
-1493.263012
1000.066889
950.4261857
912.2839247
932.1429825
494.2903556
210.4692477
1103.341792
-244.4706157
169.4947836
-159.4363932
1097.711791
-335.0550174
-194.5879328
136.8234488
-6873.955747
-2147.061502
-2304.942534
672.5026107
625.7634603
840.5839538
734.6465962
761.8458223
964.7835937
244.3688001
-108.1627793
-298.0374152
4707.484414
-2337.107155
-2511.685675
-885.3089044
-1138.293167
-1135.257269
-121.7006928
-365.9510205
-76.58956919
1699.041741
2753.207119
3767.898983
-4733.495841
-1516.481489
783.0958362
-6276.407752
-7147.582238
-7014.214407
-6536.311982
-4637.832342
-4829.070657
-4624.77033
-5605.573427
-5427.452812
-5171.826935
1412.481534
1394.931448
1367.645066
1434.421677
1404.432878
1417.157594
1286.125308
1257.356701
1278.914188
1061.632628
1048.624974
1024.478925
874.6102252
663.795316
401.701589
-6648.513352
-7184.648271
-7199.369449
-6446.868421
-5375.699586
-5108.752582
-5514.75427
-5430.352268
-6448.858581
-5548.225439
-5830.510562
-5667.183066
-6001.249576
1490.938616
1478.118863
1444.922291
1464.379118
1478.639152
1474.313691
-4560.894133
-4370.375393
-4234.011683
-3980.820905
-3737.031618
-4005.654718
-4863.649734
-4458.151624
-4715.968633
-4096.450245
-4368.865613
-4806.710373
1347.246886
1323.114284
1295.547631
1358.793095
1332.157152
1351.657031
1372.448819
1384.990534
1392.402669
1332.013317
1351.22183
1334.762651
1438.422217
1442.541733
1459.152571
1394.511952
1402.894372
1397.816684
-2468.207933
-2601.873637
-2291.823247
-1370.446261
-1382.988197
1225.849139
1163.351145
1300.343979
1307.166793
1327.577838
1278.290728
1260.485378
-1712.841453
776.7835164
935.8573458
901.3572472
1015.860851
986.4321454
998.6162406
177.8246768
404.6088823
171.8292387
1006.222805
452.3784416
710.6026801
531.0252259
564.1951403
1124.438148
1066.653666
-7536.532455
-6618.652447
-7179.176723
-3618.960557
-3685.445427
-1959.475913
-2099.441806
-2105.434876
2078.045627
2052.874575
3770.43837
4277.179676
4440.437518
4107.284745
3691.584298
-2693.095887
-2516.172246
-2478.204882
-2516.244442
-2710.250548
-1134.842417
-959.5289117
-978.8754181
-961.7478838
-1135.085492
-741.486954
-913.5231063
-501.2644401
-532.9758558
-693.5317783
-327.7799117
-480.8859673
-401.5324933
-8225.223133
-7150.287051
-6714.668197
-7441.952003
-7249.82709
-6533.042568
-5819.70914
-7016.341702
-6768.173771
-6656.513091
-6301.341552
-6507.491105
-6963.037479
-6815.39921
-5091.018617
-4896.223793
-4697.829341
-4953.451054
-5157.540702
-4686.08164
-4891.967468
-5222.761175
-5113.5742
-5370.242591
-5158.817129
-3204.287423
-3268.49176
-3238.645278
-3159.134408
-3301.91001
-3659.999902
-3552.612025
-3706.038147
-3349.61575
-3502.072156
-3603.642282
-1783.03746
-1765.580183
-1908.770836
1077.601615
1056.333156
1066.254148
1114.479391
1103.886318
1084.750989
2353.83626
2310.103878
2319.436248
2340.44657
2225.760816
2528.831943
2383.575979
2365.719199
2057.938213
2079.045526
2013.029077
2191.98986
2104.305054
2083.609938
2825.071498
2762.07848
2587.575969
2932.228953
2832.945746
-7279.030972
-7196.610965
-6651.34918
-7375.243264
-7504.820839
-7332.572443
-7501.37159
-7502.474045
-7556.588158
-7491.483235
-6577.046103
-7254.709095
-7308.88627
1766.416887
1766.98874
1746.779096
1799.942957
1775.107074
1776.281637
1717.856645
1700.126419
1741.455074
1723.577196
1913.250176
1929.01452
1889.253233
1994.379032
1943.94361
1926.543501
1833.078908
1836.03192
1808.321618
1877.455197
1845.94363
1843.453489
-6029.855075
-5882.865407
-5598.04904
-5945.978718
-6248.074605
-6071.392982
1525.909255
1507.788957
1554.228771
1531.26758
1479.598925
1466.401461
1500.991893
1483.838546
1658.874797
1631.8328
1693.314733
1667.885752
1586.890665
1561.260972
1622.839951
1596.010578
-3962.248388
-4132.738616
-3759.389687
-3912.773565
-4003.093338
-4419.536914
-4615.544424
-4186.490127
-4360.884517
1363.8575
1380.565368
1368.344104
1385.753675
1366.003608
1395.056596
1390.691457
1361.964941
1338.34144
1352.62259
1359.334833
1424.754283
1437.150826
1432.98254
1439.732907
1426.8455
1461.076876
1444.425464
1403.513699
1396.334342
1419.698071
1406.756504
1401.742303
1406.348456
1419.597567
-2712.278851
-2813.982941
-2876.823247
-2700.626365
-2929.294416
-2859.02475
-1143.850607
-1336.470732
-1359.077831
-1144.785211
1220.408511
1171.150228
1290.668749
1301.783929
1295.456537
1265.406539
1283.706395
1288.50147
-1799.248101
983.109514
975.4261254
943.795597
629.0914778
546.3568314
992.6937964
287.4386461
433.0902359
335.6444622
1116.208089
-393.5290627
25.47514361
235.6006369
-17.01502956
1064.956946
-2695.712249
-2027.88185
-1366.050549
-2288.044574
-2342.74622
-1109.816989
-1186.569748
-1638.972705
-2347.370676
-929.9772363
-912.6301462
-749.7617693
-2107.381482
-1589.427348
-1558.128636
1927.20371
3353.478941
4426.361986
-5585.936657
-1900.712885
859.0334605
-1836.004716
-1500.251948
-3568.850119
-6113.977339
-6914.838666
-7134.792255
1601.559143
1581.708228
1540.426743
1640.147095
1596.031719
1617.220148
-1574.353165
-1717.005008
-1721.214035
-2201.18442
-1931.050664
-1880.655819
1129.641765
1110.818812
1121.832017
-7189.225438
-7249.970422
-6559.086213
1527.253416
1489.866143
1502.845273
1528.511204
1531.288347
1553.387109
1560.621373
1585.20382
1578.893535
1162.665012
1153.057861
1136.0903
-1549.004474
-1502.757529
-1493.207302
1158.750286
1165.757175
1159.760376
-1649.718646
-1659.461327
-1559.59504
-1384.095106
-1381.357564
-1526.349664
1028.022406
1141.861509
1147.99046
1153.013098
1047.22023
-8102.130583
-3511.180426
-1974.28445
-2044.660354
-2049.208521
-2287.967947
-2139.44891
-2109.227975
2124.11501
-4979.160151
-4463.705217
-5377.823146
-2432.881106
-2484.031629
-2331.525672
-738.4188463
-751.914065
-574.4669749
-580.8949512
-681.7753319
-2366.668009
-1871.627038
-4571.177289
-8123.206263
-7688.338179
-7540.784984
-8003.619865
-8003.140487
-3111.017553
-3143.233706
-3093.375006
-3413.121101
-3412.254261
-3385.209343
-2966.797826
-3108.434904
-3181.258917
-3776.600724
-3722.561582
-3775.847726
-1905.468555
-1884.097576
-1915.674899
2450.606431
2522.548406
2232.384289
2239.179837
2249.200242
2212.587037
2005.919876
2018.892971
1999.783753
2178.247463
2146.713196
2136.002893
3018.927727
2828.060118
2914.443507
3132.551252
3145.412185
3292.215081
2586.164137
2653.717042
2661.742846
1751.558643
1750.284407
1750.596287
1800.508071
1792.907427
1794.361295
1716.867027
1712.67027
1747.106505
1740.313597
1889.574586
1893.471925
1881.289197
1982.212931
1965.096659
1959.654466
1812.956618
1814.870934
1807.471559
1870.370543
1861.203997
1858.657324
1506.827935
1525.149311
1521.470579
1480.178318
1483.438391
1500.510752
1628.750561
1654.853207
1642.792592
1646.877936
1637.314116
1707.339302
1698.52125
1569.559781
1627.850442
1618.482536
1587.391616
1593.914965
1620.016048
-4136.245038
-4205.556015
-3829.893878
-3893.639823
-3917.214534
-4271.473082
-4286.714344
-4176.861404
-4312.350779
-4143.672987
1177.247718
1159.328939
1168.626583
1215.150487
1201.345196
1183.784899
1202.398544
1211.392107
1206.725729
1184.456771
1187.432794
1194.336969
-1917.290809
927.5241321
938.1701431
919.9062015
679.7896973
935.2567636
375.7926025
497.5913002
609.9531351
1108.93358
1111.096098
1107.472683
-307.8557317
-152.0929016
-132.0532545
-147.657453
1090.038703
1096.290924
1104.093052
-52.55496007
-135.5214056
-277.2495034
-2180.693718
-2225.261866
-2329.072554
-2281.375995
-2261.075522
4797.215452
4995.217528
4672.413828
-2394.748473
-2419.592834
-2336.084441
-2528.853413
-2473.191945
-2462.984015
-3063.456956
-2314.490239
-5301.418105
-6532.921216
-6543.162192
-6451.437158
-6496.635621
-7100.614494
-6927.239467
-6966.335021
-6850.935137
-6889.731751
-7058.158423
-5550.50297
-5467.302559
-5524.665464
-5344.533516
-5408.615662
-5492.529523
-7232.661453
-7032.053152
-7016.100713
-7003.520166
-7027.426991
-7235.587631
-5773.15626
-5687.876228
-5741.006564
-5581.372565
-5635.054675
-5722.272425
-6373.787781
-6412.238834
-6262.921901
-6320.661589
1388.005072
1383.728154
1380.271431
1336.88922
1333.773655
1328.539137
1344.535368
1339.684387
1343.779862
-1502.662009
-1556.331668
-1366.234985
-1448.368988
1239.165873
1236.750531
1248.139395
1242.338991
1165.257064
1161.823451
1167.679317
1160.917976
1313.933855
1311.692714
1305.693006
1323.592988
1317.968826
1321.42102
1259.19407
1255.832959
1271.355666
1255.432346
1262.22584
-1718.393118
-1713.614587
-1704.770196
-1559.862666
931.9362411
968.646231
1077.363085
1011.163805
1004.93543
992.7044031
1018.66335
400.4128751
388.1829012
1050.740568
938.8670061
725.7852686
1125.495715
1138.700633
1133.97763
1056.525352
-7934.825397
-8240.043972
-7851.0098
-7416.570619
-7023.680971
-6180.059036
-7805.018259
-7477.801209
-3558.199805
-3705.781363
-2105.464479
-2095.484601
-2101.037334
2099.916341
2023.919436
4394.325054
4209.755528
4112.642378
3608.865396
3466.336466
3961.606927
3767.396687
3902.82705
-2598.931576
-2528.191043
-2652.767925
-975.3975101
-971.100257
-960.8313248
-1077.514362
-778.5830118
-754.9750512
-743.6994614
-901.5402214
-841.5193765
-841.780326
-509.2599259
-563.9152715
-559.0436523
-384.4761427
-391.8691892
-437.6091669
-7900.619439
-7802.084696
-8180.585056
-7381.598745
-7703.45283
-7747.165775
-8024.432407
-8005.388396
-6719.198751
-6604.675408
-6641.507284
-6557.572824
-6572.168526
-6675.737374
-6909.267568
-6764.695435
-6808.940773
-6681.377771
-6721.965713
-6861.269172
-5028.048469
-4954.071246
-5016.673915
-5018.078172
-5090.184458
-4735.443656
-4764.63076
-4733.248908
-4830.664794
-5294.487026
-5334.245471
-5290.541637
-5207.607809
-5276.832435
-5081.647681
-5146.41564
-5229.993326
-3242.521131
-3154.545358
-3147.865736
-3168.574793
-3105.510344
-3162.650361
-3335.752895
-3360.06593
-3295.078507
-3619.941707
-3663.696934
-3687.771747
2400.82055
2270.120553
2066.146542
2040.501533
2026.828145
2108.72544
2118.226102
2091.85118
2925.223694
3024.333306
3034.047126
3326.787178
3195.720882
2740.662543
2733.550573
2826.372737
-7244.44223
-7040.913634
-7057.265895
-7019.831947
-7026.99959
-7216.574673
-7418.067472
-7457.773578
-7529.622988
-7804.910988
-7748.560002
-7836.13757
-7850.44955
-7530.38183
-7566.077409
-7723.25015
-7720.990246
-7504.59429
1767.198129
1760.066234
1759.08277
1785.819233
1784.574214
1775.891003
1724.862241
1720.759847
1734.11147
1729.215594
1918.640768
1905.88378
1901.725932
1942.402103
1948.298295
1932.640348
1833.747228
1823.777437
1821.940741
1851.78776
1852.621331
1843.539863
-5985.863054
-5892.357901
-5937.986954
-5791.962208
-5842.518398
-5932.463411
-6190.858081
-6101.817333
-6186.750476
-5981.79895
-6034.112681
-6126.067236
1520.409266
1521.803085
1526.378417
1508.937638
1515.996083
1514.360034
1545.715101
1543.674122
1554.271358
1530.150356
1535.209556
1537.651729
1475.528157
1477.157575
1480.341426
1468.878076
1473.41445
1471.187164
1494.510885
1494.237373
1501.304365
1483.629125
1488.179085
1488.752085
1666.25215
1656.617282
1649.898196
1653.525984
1662.807451
1634.811276
1644.148825
1640.868703
1686.876206
1675.941834
1591.102397
1582.737002
1577.920196
1580.225665
1588.958473
1561.855138
1564.791648
1567.981982
1613.8846
1616.383198
1625.562045
1598.250704
1607.293295
1604.955046
1609.34349
1600.295453
-4048.999875
-4084.153128
-3984.14466
-3951.753278
-3978.977255
-4475.855579
-4506.815524
-4457.554213
-4653.607359
-4570.798458
-4540.106351
-4233.198704
-4265.467184
-4235.848043
-4404.742226
-4352.194364
-4296.940091
1368.836337
1365.89492
1360.955311
1376.064949
1371.105002
1374.750354
1378.237603
1371.146295
1394.027595
1392.749698
1359.354773
1350.19559
1345.735213
1346.483039
1345.843411
1356.157795
1351.981593
1356.253522
1427.577318
1431.463904
1442.206307
1430.208888
1455.419455
1457.135881
1463.2487
1446.578496
1451.63245
1449.933895
1400.53998
1398.11128
1413.963106
1410.064835
-2818.943643
-2803.146866
-2866.605939
-2695.815446
-2745.967059
-2779.978896
-2997.634844
-3042.615244
-2912.613021
-2917.259939
-2928.545095
-1294.826118
-1301.182505
-1355.250205
-1162.530934
-1226.402852
-1232.816863
1215.944586
1204.991957
1233.300448
1226.455531
1175.265885
1180.652671
1177.489599
1182.93961
1177.842144
1196.186748
1189.338067
1293.733157
1292.106397
1288.614294
1300.507701
1296.045507
1297.422314
1286.105753
1280.218119
1276.249022
1285.601846
1282.959184
1287.25786
-1859.545253
978.172579
962.1257484
965.6962586
591.0689822
603.619008
657.430198
549.8070881
555.4236497
540.5730263
977.6344169
380.1903365
331.2503641
266.9794701
1111.059279
1112.185076
1115.703647
-373.3808362
112.461465
56.80163683
219.6908695
210.5719917
221.3421554
40.52201017
-90.23203364
-70.98534687
29.05109378
1076.353032
1089.304359
1082.651972
789.9670068
757.9390125
736.2402312
744.1968123
693.2625355
665.4208493
671.9575606
594.3149439
563.0517592
562.2953561
448.7325002
423.9770641
404.4055683
258.7877268
249.1449557
207.0144942
49.37507812
53.08739352
-4.542252678
-159.9601135
-143.6896039
-210.0113229
-348.139837
-322.8280048
-390.3799389
-500.1663524
-470.755186
-531.9936949
-612.0117486
-585.2039927
827.2891869
806.0312726
768.0903921
796.356859
755.1909725
706.4844553
736.0820769
658.2566971
608.0943024
624.5441418
497.9142329
458.6759036
446.9359531
270.0726921
261.7446202
205.7878415
9.445810609
42.86528736
-54.40772026
-231.6260422
-171.8851789
-284.7686927
-425.0070187
-361.598054
-465.7938577
-572.2678231
-514.6033952
-602.5290442
-676.9028081
-625.1761964
877.6064412
872.1052284
821.097047
867.8528769
843.3257378
774.3679264
829.6542438
763.8633065
679.5898725
731.1763154
589.9328134
515.3661233
526.1719214
292.2538841
273.3020484
199.3238604
-77.91517938
-7.222344139
-163.8509387
-382.2214449
-260.658666
-440.7606745
-578.9694148
-455.4547657
-615.4778029
-701.7275734
-597.9127311
-723.7525078
-775.1727123
-698.4827913
934.0733868
951.584526
891.0154659
956.9532699
967.4246389
870.6650375
967.2461954
944.4919303
800.5652696
925.0345066
798.2616614
626.9793104
723.0592791
367.7543707
302.893536
213.4119081
-253.1918716
-110.3602517
-384.3691106
-663.353704
-436.8404914
-724.0768999
-838.6676375
-633.2263745
-859.2044275
-894.0337591
-744.251282
-899.943805
-908.8959784
-805.2692293
987.6374644
1033.528295
972.4107693
1051.578484
1115.026752
1003.45742
1139.383717
1217.805149
1005.336824
1242.291947
1268.421209
884.1344745
1234.653782
628.9049559
411.755802
431.6902974
-723.9351268
-326.4611826
-924.551165
-1185.487321
-765.0641668
-1206.638063
-1201.733049
-919.3032336
-1188.721536
-1138.453584
-951.0661959
-1120.511316
-1068.463082
-947.2516086
1027.61698
1098.315357
1052.055368
1127.778277
1240.340725
1150.986903
1288.178073
1477.911085
1291.76999
1562.868279
2027.231278
1441.03141
1748.727975
1811.147869
1292.047885
558.506927
-849.9287601
-302.2733583
-1631.798676
-1586.93958
-1293.903444
-1910.581892
-1636.8685
-1308.080255
-1565.455141
-1391.274257
-1203.828981
-1343.52696
-1222.812251
-1108.856067
1042.899321
1125.608756
1109.088759
1159.958435
1289.180731
1260.967181