/*--------------------------------*- C++ -*----------------------------------*\
| =========                 |                                                 |
| \\      /  F ield         | OpenFOAM: The Open Source CFD Toolbox           |
|  \\    /   O peration     | Version:  v1912                                 |
|   \\  /    A nd           | Website:  www.openfoam.com                      |
|    \\/     M anipulation  |                                                 |
\*---------------------------------------------------------------------------*/
FoamFile
{
    version     2.0;
    format      ascii;
    class       pointVectorField;
    location    "0.28";
    object      pointDisplacement;
}
// * * * * * * * * * * * * * * * * * * * * * * * * * * * * * * * * * * * * * //

dimensions      [0 1 0 0 0 0 0];


internalField   nonuniform List<vector> 
26316
(
(0 0 0)
(0 0 0)
(0 0 0)
(0 0 0)
(0 0 0)
(0 0 0)
(0 0 0)
(0 0 0)
(0 0 0)
(0 0 0)
(0 0 0)
(0 0 0)
(0 0 0)
(0 0 0)
(0 0 0)
(0 0 0)
(0 0 0)
(0 0 0)
(0 0 0)
(0 0 0)
(0 0 0)
(0 0 0)
(0 0 0)
(0 0 0)
(0 0 0)
(0 0 0)
(0 0 0)
(0 0 0)
(0 0 0)
(0 0 0)
(0 0 0)
(0 0 0)
(0 0 0)
(0 0 0)
(0 0 0)
(0 0 0)
(0 0 0)
(0 0 0)
(0 0 0)
(0 0 0)
(0 0 0)
(0 0 0)
(0 0 0)
(0 0 0)
(0 0 0)
(0 0 0)
(0 0 0)
(0 0 0)
(0 0 0)
(0 0 0)
(0 0 0)
(0 0 0)
(0 0 0)
(0 0 0)
(0 0 0)
(0 0 0)
(0 0 0)
(0 0 0)
(0 0 0)
(0 0 0)
(0 0 0)
(0 0 0)
(0 0 0)
(0 0 0)
(0 0 0)
(0 0 0)
(0 0 0)
(0 0 0)
(0 0 0)
(0 0 0)
(0 0 0)
(0 0 0)
(0 0 0)
(0 0 0)
(0 0 0)
(0 0 0)
(0 0 0)
(0 0 0)
(0 0 0)
(0 0 0)
(0 0 0)
(0 0 0)
(0 0 0)
(0 0 0)
(0 0 0)
(0 0 0)
(0 0 0)
(0 0 0)
(0 0 0)
(0 0 0)
(0 0 0)
(0 0 0)
(0 0 0)
(0 0 0)
(0 0 0)
(0 0 0)
(0 0 0)
(0 0 0)
(0 0 0)
(0 0 0)
(0 0 0)
(0 0 0)
(0 0 0)
(0 0 0)
(0 0 0)
(0 0 0)
(0 0 0)
(0 0 0)
(0 0 0)
(0 0 0)
(0 0 0)
(0 0 0)
(0 0 0)
(0 0 0)
(0 0 0)
(0 0 0)
(0 0 0)
(0 0 0)
(0 0 0)
(-5.543028749e-07 9.834189566e-06 2.775557562e-17)
(0 0 0)
(0 0 0)
(-3.059782792e-07 0.0001101580199 3.330669074e-16)
(1.41199921e-06 9.36415393e-05 2.91433544e-16)
(0 0 0)
(0 0 0)
(0 0 0)
(0 0 0)
(0 0 0)
(0 0 0)
(0 0 0)
(0 0 0)
(0 0 0)
(0 0 0)
(0 0 0)
(0 0 0)
(0 0 0)
(0 0 0)
(0 0 0)
(0 0 0)
(0 0 0)
(0 0 0)
(0 0 0)
(0 0 0)
(0 0 0)
(0 0 0)
(0 0 0)
(0 0 0)
(0 0 0)
(0 0 0)
(0 0 0)
(0 0 0)
(0 0 0)
(0 0 0)
(0 0 0)
(0 0 0)
(0 0 0)
(0 0 0)
(0 0 0)
(0 0 0)
(0 0 0)
(0 0 0)
(0 0 0)
(0 0 0)
(0 0 0)
(0 0 0)
(0 0 0)
(0 0 0)
(0 0 0)
(0 0 0)
(0 0 0)
(0 0 0)
(0 0 0)
(0 0 0)
(0 0 0)
(0 0 0)
(0 0 0)
(0 0 0)
(0 0 0)
(0 0 0)
(0 0 0)
(0 0 0)
(0 0 0)
(0 0 0)
(0 0 0)
(-3.453251511e-05 0.0001484328664 4.996003611e-16)
(-0.000198720008 0.0009310868271 3.080868893e-15)
(-2.598741166e-06 1.238887619e-05 4.163336342e-17)
(-0.0003772187411 0.002463533974 8.021361353e-15)
(-0.0009362485185 0.006020004785 1.992850329e-14)
(-0.001110522856 0.008154352241 2.69784195e-14)
(-0.000518278521 0.003862335296 1.255939797e-14)
(-0.000629922108 0.008138869854 2.646494135e-14)
(-0.001102353131 0.01408810544 4.662936703e-14)
(-0.0009181736788 0.01556674785 5.152822613e-14)
(-0.0005418148093 0.009262183304 3.011479954e-14)
(-2.1265019e-05 0.01083211772 3.523570324e-14)
(-2.472613334e-05 0.01759535402 5.824507543e-14)
(0.0003075476869 0.01736789724 5.749567489e-14)
(0.000179193636 0.01065453738 3.465283616e-14)
(0.0005961316133 0.00816695546 2.656208586e-14)
(0.001056848105 0.01412392303 4.676814491e-14)
(0.00115756786 0.01234046322 4.087008509e-14)
(0.0006267195608 0.006836610231 2.223221607e-14)
(0.0003683814889 0.002494591041 8.118505868e-15)
(0.0009144152967 0.006070159455 2.009503675e-14)
(0.0006877945513 0.004055682592 1.34336986e-14)
(0.0002151811108 0.00129348032 4.218847494e-15)
(0 0 0)
(3.622677995e-05 0.0001598503354 5.273559367e-16)
(0 0 0)
(0 0 0)
(0 0 0)
(0 0 0)
(0 0 0)
(0 0 0)
(0 0 0)
(0 0 0)
(0 0 0)
(0 0 0)
(0 0 0)
(0 0 0)
(0 0 0)
(0 0 0)
(0 0 0)
(0 0 0)
(0 0 0)
(0 0 0)
(0 0 0)
(0 0 0)
(0 0 0)
(0 0 0)
(0 0 0)
(0 0 0)
(0 0 0)
(0 0 0)
(0 0 0)
(0 0 0)
(0 0 0)
(0 0 0)
(0 0 0)
(0 0 0)
(0 0 0)
(0 0 0)
(0 0 0)
(0 0 0)
(0 0 0)
(0 0 0)
(0 0 0)
(0 0 0)
(0 0 0)
(0 0 0)
(0 0 0)
(0 0 0)
(0 0 0)
(0 0 0)
(-9.644366954e-05 0.0002895724693 1.026956298e-15)
(-0.0005267788736 0.001686885501 6.022959909e-15)
(-0.0001247957109 0.0004071526461 1.429412144e-15)
(-0.001779159242 0.007258419541 2.53824739e-14)
(-0.002844197121 0.01140289273 4.06341627e-14)
(-0.003626093466 0.01587733476 5.65658631e-14)
(-0.002444687278 0.01088773536 3.806677196e-14)
(-0.003790823467 0.02329603458 8.142098107e-14)
(-0.005009118303 0.03031385009 1.079553114e-13)
(-0.005030249065 0.03487323213 1.241923231e-13)
(-0.003889888532 0.02736519472 9.564571357e-14)
(-0.003019611603 0.0374433152 1.308814168e-13)
(-0.003741972387 0.04590043692 1.634942182e-13)
(-0.002938561663 0.04839273944 1.724037579e-13)
(-0.002395465254 0.03976552194 1.390138005e-13)
(2.80312514e-05 0.04284618498 1.498662305e-13)
(6.9303184e-05 0.05166545411 1.841859998e-13)
(0.001124232177 0.05129624143 1.829092433e-13)
(0.0008857851489 0.04250074486 1.486866186e-13)
(0.003038299608 0.03747051767 1.311450948e-13)
(0.00382482181 0.04590931487 1.637995295e-13)
(0.004435771 0.04278737071 1.526972992e-13)
(0.00349540524 0.0345858978 1.210698208e-13)
(0.003758230875 0.02337685751 8.185119249e-14)
(0.004997546402 0.03038600909 1.084687895e-13)
(0.004728607531 0.02560662232 9.13991105e-14)
(0.003463213526 0.01917467551 6.712685963e-14)
(0.001764419031 0.007346278881 2.571554081e-14)
(0.002822513315 0.01151068551 4.107825191e-14)
(0.001994643309 0.007514668196 2.681188604e-14)
(0.00110724834 0.00425705868 1.490474411e-14)
(0 0 0)
(9.574809901e-05 0.0002927351514 1.040834086e-15)
(0 0 0)
(0 0 0)
(0 0 0)
(0 0 0)
(0 0 0)
(0 0 0)
(0 0 0)
(0 0 0)
(0 0 0)
(0 0 0)
(0 0 0)
(0 0 0)
(0 0 0)
(0 0 0)
(0 0 0)
(0 0 0)
(0 0 0)
(0 0 0)
(0 0 0)
(0 0 0)
(0 0 0)
(0 0 0)
(0 0 0)
(0 0 0)
(0 0 0)
(0 0 0)
(0 0 0)
(0 0 0)
(0 0 0)
(0 0 0)
(0 0 0)
(0 0 0)
(0 0 0)
(0 0 0)
(0 0 0)
(0 0 0)
(0 0 0)
(0 0 0)
(0 0 0)
(-4.14941728e-05 9.651006416e-05 3.747002708e-16)
(0 0 0)
(-0.001765506775 0.00500000493 1.891542478e-14)
(-0.002623636683 0.007269996486 2.808864252e-14)
(-0.004103954871 0.01215358681 4.692080058e-14)
(-0.003014035025 0.009114481557 3.447242491e-14)
(-0.006874858532 0.02611000178 9.865719353e-14)
(-0.008339720915 0.03107537448 1.198208199e-13)
(-0.009315921097 0.03795893348 1.463135169e-13)
(-0.007841049028 0.03255697582 1.229710778e-13)
(-0.008885191329 0.05116162941 1.931788063e-13)
(-0.01012247084 0.05722680378 2.205041705e-13)
(-0.009652419625 0.06261050109 2.41265341e-13)
(-0.008557289315 0.05652558924 2.134403765e-13)
(-0.005825030639 0.06859018047 2.591260539e-13)
(-0.006424527555 0.07434272519 2.86659585e-13)
(-0.004906874658 0.07672409089 2.959299472e-13)
(-0.004473544644 0.07113099296 2.68798872e-13)
(0.000215871116 0.07432861244 2.811917366e-13)
(0.0002522319128 0.07964687844 3.07587289e-13)
(0.002019390876 0.07929924026 3.063660436e-13)
(0.001829945091 0.07395511052 2.798872245e-13)
(0.006163676495 0.0684957249 2.59514632e-13)
(0.006836541929 0.07420197907 2.87048163e-13)
(0.008119400154 0.07104846851 2.74946732e-13)
(0.007278328828 0.06519957475 2.471078897e-13)
(0.009010381507 0.05112592029 1.938726957e-13)
(0.01030286577 0.05709489402 2.210870376e-13)
(0.01034625614 0.05112970245 1.980082764e-13)
(0.008949426459 0.04527798345 1.716959908e-13)
(0.006829409714 0.02602906467 9.867107131e-14)
(0.008512247512 0.03159890712 1.224020885e-13)
(0.007335720228 0.02515454678 9.744982599e-14)
(0.005813880095 0.0204305291 7.746581154e-14)
(0.002014229796 0.005765981657 2.18575158e-14)
(0.003010465614 0.008431557174 3.264055692e-14)
(0.001698597352 0.004482612216 1.734723476e-14)
(0.0009706424613 0.002617308417 9.922618283e-15)
(0 0 0)
(0 0 0)
(0 0 0)
(0 0 0)
(0 0 0)
(0 0 0)
(0 0 0)
(0 0 0)
(0 0 0)
(0 0 0)
(0 0 0)
(0 0 0)
(0 0 0)
(0 0 0)
(0 0 0)
(0 0 0)
(0 0 0)
(0 0 0)
(0 0 0)
(0 0 0)
(0 0 0)
(0 0 0)
(0 0 0)
(0 0 0)
(0 0 0)
(0 0 0)
(0 0 0)
(0 0 0)
(0 0 0)
(0 0 0)
(0 0 0)
(0 0 0)
(0 0 0)
(0 0 0)
(0 0 0)
(-0.0001917805788 0.0003970993859 1.637578961e-15)
(-0.0004361294686 0.0008827981526 3.73312492e-15)
(-0.001548920737 0.003300296525 1.393329896e-14)
(-0.001041371186 0.002269389037 9.36750677e-15)
(-0.00611637156 0.01585246974 6.535050279e-14)
(-0.007235177825 0.01834059181 7.731315588e-14)
(-0.009323426805 0.02523692919 1.063316102e-13)
(-0.00808386967 0.02237190159 9.217626662e-14)
(-0.01274393383 0.04431789713 1.822708651e-13)
(-0.01407260755 0.04780633178 2.011169009e-13)
(-0.01482320181 0.05502661932 2.314121117e-13)
(-0.01355080458 0.05154571412 2.118860642e-13)
(-0.01335771145 0.07072101313 2.904343432e-13)
(-0.01418407721 0.07314530516 3.072403443e-13)
(-0.01307979222 0.07742470342 3.252120795e-13)
(-0.01236112657 0.07507504768 3.083644451e-13)
(-0.007735217606 0.083796757 3.444883268e-13)
(-0.007999117085 0.08420826653 3.54022367e-13)
(-0.005984995082 0.08497358848 3.573946694e-13)
(-0.005824222246 0.08511478466 3.500533197e-13)
(0.0002568135478 0.08633725842 3.556183126e-13)
(0.000220543226 0.08529373337 3.592959263e-13)
(0.002298250467 0.08523436002 3.592404152e-13)
(0.002307901074 0.08617292519 3.5513259e-13)
(0.008267453761 0.08362639278 3.452238495e-13)
(0.008488659207 0.08395611394 3.545080896e-13)
(0.01036874707 0.08252158176 3.486655409e-13)
(0.01002622413 0.08161100149 3.370914659e-13)
(0.01369447824 0.07036792301 2.910588437e-13)
(0.0145597865 0.07280705169 3.083089339e-13)
(0.01525842231 0.06794697294 2.879363414e-13)
(0.01420381569 0.06487367389 2.685490719e-13)
(0.01310642982 0.04526341865 1.874611577e-13)
(0.01444365555 0.0487180986 2.06473727e-13)
(0.01322665632 0.04130239771 1.749850265e-13)
(0.01186362045 0.03793181393 1.570549246e-13)
(0.006457393863 0.01689540815 6.986078382e-14)
(0.007611517259 0.01945207409 8.230915949e-14)
(0.005486715024 0.01322067951 5.589972929e-14)
(0.004495273422 0.01108885202 4.582445534e-14)
(0.0002966870652 0.0006237185155 2.581268532e-15)
(0.0005096900247 0.001046796719 4.427014311e-15)
(1.293880455e-05 2.53104882e-05 1.110223025e-16)
(0 0 0)
(0 0 0)
(0 0 0)
(0 0 0)
(0 0 0)
(0 0 0)
(0 0 0)
(0 0 0)
(0 0 0)
(0 0 0)
(0 0 0)
(0 0 0)
(0 0 0)
(0 0 0)
(0 0 0)
(0 0 0)
(0 0 0)
(0 0 0)
(0 0 0)
(0 0 0)
(0 0 0)
(0 0 0)
(0 0 0)
(0 0 0)
(0 0 0)
(0 0 0)
(0 0 0)
(0 0 0)
(0 0 0)
(-1.825408057e-05 2.974386495e-05 1.387778781e-16)
(-4.981039139e-07 8.328632199e-07 0)
(0 0 0)
(-0.00136913984 0.002580731264 1.169897512e-14)
(-0.001728060077 0.003177200859 1.476596623e-14)
(-0.003584736413 0.006939677179 3.223810108e-14)
(-0.003058413492 0.006069672791 2.750577544e-14)
(-0.009926462315 0.02344364114 1.060262989e-13)
(-0.01080450275 0.02488980659 1.153799278e-13)
(-0.01312040567 0.03226862244 1.494776525e-13)
(-0.0124308955 0.03135325262 1.416922135e-13)
(-0.0171634808 0.05426497156 2.448735659e-13)
(-0.01787220452 0.05507400571 2.547129174e-13)
(-0.01833527664 0.06165641691 2.851052727e-13)
(-0.01769450213 0.06106399958 2.755018436e-13)
(-0.01593429895 0.07561220156 3.411854133e-13)
(-0.01626868787 0.07508264584 3.473332733e-13)
(-0.01462622973 0.07700616094 3.563399575e-13)
(-0.01442056966 0.07818429723 3.528149994e-13)
(-0.008370994917 0.07960419557 0)
(-0.008499401243 0.07759110896 0)
(-0.007452310665 0.07758541968 0)
(-0.00634793445 0.07762397552 0)
(-0.006275103771 0.07862028573 0)
(-0.006243494473 0.07959333092 0)
(8.690334499e-05 0.07948936581 0)
(6.490367711e-05 0.07852158617 0)
(0.00112516224 0.07849833294 0)
(0.001141417711 0.07946615209 0)
(0.008610783409 0.07921624585 0)
(0.008619831394 0.07822156978 0)
(0.008636049131 0.07721132364 0)
(0.009690057485 0.07715694362 0)
(0.01072919083 0.07712206954 0)
(0.01072867117 0.07911913508 0)
(0.01621746346 0.0754536034 3.435446372e-13)
(0.01646590809 0.07483806834 3.494010636e-13)
(0.01772400069 0.07180448297 3.35384498e-13)
(0.01734292929 0.0719596718 3.277655924e-13)
(0.01753842128 0.0550214282 2.507022367e-13)
(0.01816878288 0.05557219886 2.597644322e-13)
(0.01725037388 0.0488076481 2.28123076e-13)
(0.01646859939 0.04780224121 2.177702463e-13)
(0.01062977121 0.02522500951 1.14783183e-13)
(0.01162526439 0.02689408068 1.255245907e-13)
(0.0091602031 0.01998301228 9.320322292e-14)
(0.008250158924 0.01846112298 8.396061624e-14)
(0.001837134496 0.003508610875 1.591782262e-14)
(0.002296348027 0.004276259267 1.990074772e-14)
(0.0008226946494 0.001460168268 6.800116026e-15)
(0.0005597514823 0.001018799838 4.62130334e-15)
(0 0 0)
(0 0 0)
(0 0 0)
(0 0 0)
(0 0 0)
(0 0 0)
(0 0 0)
(0 0 0)
(0 0 0)
(0 0 0)
(0 0 0)
(0 0 0)
(0 0 0)
(0 0 0)
(0 0 0)
(0 0 0)
(0 0 0)
(0 0 0)
(0 0 0)
(0 0 0)
(0 0 0)
(0 0 0)
(0 0 0)
(0 0 0)
(0 0 0)
(0 0 0)
(0 0 0)
(0 0 0)
(-0.0001644786513 0.0002400515856 1.276756478e-15)
(-9.373173284e-05 0.0001407769281 7.21644966e-16)
(-7.668072863e-05 0.0001184117335 5.967448757e-16)
(-0.00248295468 0.004216637164 2.120525977e-14)
(-0.00257508165 0.004252855424 2.199629368e-14)
(-0.004767645863 0.008290272527 4.284073096e-14)
(-0.004641704032 0.008299785887 4.171663015e-14)
(-0.01248227787 0.02654477256 1.330879851e-13)
(-0.01268182819 0.02622062622 1.351418977e-13)
(-0.01509726474 0.03330852092 1.715294573e-13)
(-0.01488438777 0.03377922067 1.692257445e-13)
(-0.01930988226 0.05478931101 2.740863092e-13)
(-0.01951039932 0.0537870085 2.76584311e-13)
(-0.01976387682 0.05938299915 3.053390873e-13)
(-0.01958303385 0.06057762424 3.03007619e-13)
(-0.01679346847 0.07101767448 3.554656569e-13)
(-0.01687957596 0.06924194105 3.563260798e-13)
(-0.01495163423 0.06977816534 0)
(-0.01490420324 0.0717470942 3.592959263e-13)
(-0.00870428668 0.07163069231 0)
(-0.008732710833 0.07063222035 0)
(-0.007699979243 0.0706148113 0)
(-0.007671681318 0.07161171227 0)
(0.008570151456 0.0712689949 0)
(0.008553632444 0.07027994459 0)
(0.009585864135 0.07025247299 0)
(0.009603437017 0.0712400348 0)
(0.01675651953 0.07068867347 3.575473251e-13)
(0.01675452357 0.06890510563 3.584077479e-13)
(0.01843019214 0.06746227249 3.511219093e-13)
(0.01836548798 0.0689835866 3.491235079e-13)
(0.01992316494 0.05639840025 2.856048731e-13)
(0.02015609971 0.05555368287 2.89337998e-13)
(0.01946192112 0.04958488107 2.5821012e-13)
(0.01919119072 0.05023127526 2.543104616e-13)
(0.01364473683 0.02916835011 1.474376177e-13)
(0.01395126802 0.02901437576 1.508237979e-13)
(0.0113291964 0.02220806448 1.153382945e-13)
(0.01103861955 0.02224561741 1.123545701e-13)
(0.003331759863 0.005730171319 2.887967643e-14)
(0.003762327281 0.006291344571 3.259892356e-14)
(0.001794363311 0.002860181793 1.482147738e-14)
(0.001477150379 0.002421591584 1.219857548e-14)
(0 0 0)
(0 0 0)
(0 0 0)
(0 0 0)
(0 0 0)
(0 0 0)
(0 0 0)
(0 0 0)
(0 0 0)
(0 0 0)
(0 0 0)
(0 0 0)
(0 0 0)
(0 0 0)
(0 0 0)
(0 0 0)
(0 0 0)
(0 0 0)
(0 0 0)
(0 0 0)
(0 0 0)
(0 0 0)
(0 0 0)
(0 0 0)
(0 0 0)
(0 0 0)
(0 0 0)
(0 0 0)
(-0.0002700018963 0.0003484005451 2.095545959e-15)
(-0.0002438655564 0.000324974257 1.887379142e-15)
(-0.0002139392622 0.0002941366755 1.665334537e-15)
(-0.003059707344 0.004625580891 2.611799665e-14)
(-0.003163881629 0.00463619323 2.700617507e-14)
(-0.005517377876 0.008511831591 4.954370247e-14)
(-0.005386994886 0.008574238467 4.83779683e-14)
(-0.01347492923 0.02548585646 1.434130592e-13)
(-0.01363823431 0.02499555582 1.450783937e-13)
(-0.01603489348 0.03134091365 1.817573869e-13)
(-0.01587440081 0.03202387649 1.800365412e-13)
(-0.02008883698 0.05054085841 2.837174939e-13)
(-0.02021286414 0.04923997303 2.851052727e-13)
(-0.02035283585 0.05397724916 3.125139036e-13)
(-0.02024653636 0.05546871822 3.113620473e-13)
(-0.01707269765 0.06365748097 3.577138585e-13)
(-0.01712443379 0.06174999814 3.579359031e-13)
(-0.01512393933 0.06194164969 0)
(-0.01508219645 0.06389593049 0)
(-0.008892563735 0.06375727026 0)
(-0.008914039381 0.0627794638 0)
(-0.007884015943 0.06275653311 0)
(-0.007862404417 0.06373433649 0)
(0.008414802024 0.06337880103 0)
(0.008392743109 0.06239525259 0)
(0.009422562796 0.06237132955 0)
(0.009444791595 0.06335437566 0)
(0.01666115572 0.06317586245 3.59254293e-13)
(0.01661631923 0.06122102889 3.592959263e-13)
(0.01846632589 0.06047562584 3.551742234e-13)
(0.01848400842 0.06231966636 3.546329896e-13)
(0.02074651869 0.05252114576 2.991218384e-13)
(0.02084035284 0.05119884108 3.009537064e-13)
(0.02035844498 0.04618449318 2.714356517e-13)
(0.02022548346 0.0472929964 2.692984724e-13)
(0.01505080439 0.0286769364 1.629946178e-13)
(0.01526737326 0.02820474806 1.654509862e-13)
(0.01267260566 0.02205714773 1.292715934e-13)
(0.01244664127 0.02234625098 1.268984917e-13)
(0.004314082062 0.006605900621 3.740063814e-14)
(0.004489397335 0.006662933777 3.894107259e-14)
(0.002315169847 0.0032751092 1.91235916e-14)
(0.002182609493 0.003185622112 1.802724636e-14)
(0 0 0)
(0 0 0)
(0 0 0)
(0 0 0)
(0 0 0)
(0 0 0)
(0 0 0)
(0 0 0)
(0 0 0)
(0 0 0)
(0 0 0)
(0 0 0)
(0 0 0)
(0 0 0)
(0 0 0)
(0 0 0)
(0 0 0)
(0 0 0)
(0 0 0)
(0 0 0)
(0 0 0)
(0 0 0)
(0 0 0)
(0 0 0)
(0 0 0)
(0 0 0)
(0 0 0)
(0 0 0)
(-0.0003982920128 0.0004467389567 3.094746681e-15)
(-0.0003590860905 0.0004179042158 2.789435349e-15)
(-0.00032417913 0.0003909555314 2.525757381e-15)
(-0.003423266914 0.00454014502 2.922662112e-14)
(-0.003528337939 0.004516012962 3.011479954e-14)
(-0.005969125211 0.00804252055 5.358213873e-14)
(-0.005839754498 0.008153280032 5.243028234e-14)
(-0.01404099774 0.02327182716 1.491584634e-13)
(-0.01419984452 0.02270692235 1.507682867e-13)
(-0.01658798134 0.02827286148 1.875444244e-13)
(-0.01643229362 0.02903293693 1.859068455e-13)
(-0.02052821968 0.04512475496 2.884636974e-13)
(-0.02064767383 0.04375866592 2.897543316e-13)
(-0.02072923689 0.04777872833 3.163719287e-13)
(-0.02062722171 0.04932536181 3.15303339e-13)
(-0.01726887249 0.05599434036 3.584077479e-13)
(-0.01731690585 0.05407405284 3.585604036e-13)
(-0.01528754896 0.05414090021 0)
(-0.01524696482 0.05609004118 0)
(-0.009061359098 0.05595165346 0)
(-0.009082159726 0.05497763829 0)
(-0.008053535248 0.05495496588 0)
(-0.008043043321 0.05544201671 0)
(-0.008032560631 0.05592865989 0)
(0.008227202379 0.0555192758 0)
(0.008202238262 0.05453950914 0)
(0.00923091727 0.05451724334 0)
(0.009256010082 0.05549668987 0)
(0.01646706841 0.05533427994 3.592681708e-13)
(0.01641317888 0.05337024148 3.591987818e-13)
(0.01822877911 0.05260692268 3.543276783e-13)
(0.01830257339 0.0546065314 3.548134009e-13)
(0.02064999714 0.04608624067 2.997324611e-13)
(0.02053949956 0.04429607068 2.986361158e-13)
(0.02005011091 0.03988937451 2.68868261e-13)
(0.02016490745 0.04152665821 2.700201174e-13)
(0.01508052317 0.02524564811 1.637995295e-13)
(0.01497411326 0.02420328051 1.627725732e-13)
(0.0123967567 0.01886804373 1.267597138e-13)
(0.01249439347 0.01969840016 1.276756478e-13)
(0.004367704693 0.005867295595 3.79002385e-14)
(0.004310519014 0.00558867891 3.741451593e-14)
(0.002183765934 0.00269821768 1.804112415e-14)
(0.002224117368 0.002847427445 1.837419106e-14)
(0 0 0)
(0 0 0)
(0 0 0)
(0 0 0)
(0 0 0)
(0 0 0)
(0 0 0)
(0 0 0)
(0 0 0)
(0 0 0)
(0 0 0)
(0 0 0)
(0 0 0)
(0 0 0)
(0 0 0)
(0 0 0)
(0 0 0)
(0 0 0)
(0 0 0)
(0 0 0)
(0 0 0)
(0 0 0)
(0 0 0)
(0 0 0)
(0 0 0)
(0 0 0)
(0 0 0)
(0 0 0)
(-0.0005703934445 0.00054357565 4.440892099e-15)
(-0.0005237721711 0.0005212286072 4.066191828e-15)
(-0.0004786803786 0.0004965391498 3.719247132e-15)
(-0.003856926871 0.004400157839 3.291811268e-14)
(-0.003972715392 0.004348067261 3.390343561e-14)
(-0.006510525187 0.007500357864 5.841160888e-14)
(-0.006370345684 0.007649890686 5.717648577e-14)
(-0.01468639992 0.02091755565 1.556949014e-13)
(-0.01485430256 0.02029237116 1.573879915e-13)
(-0.01722713957 0.02507077034 1.942335182e-13)
(-0.01706355346 0.02589371532 1.925126725e-13)
(-0.02100936695 0.0395740402 2.936956234e-13)
(-0.02113233423 0.03815323943 2.950140132e-13)
(-0.02114038941 0.04147001983 3.206601651e-13)
(-0.02103657314 0.04306389485 3.195776976e-13)
(-0.01745639826 0.04828820244 3.589489816e-13)
(-0.01750126641 0.04635301994 3.590461262e-13)
(-0.01544790465 0.04633975979 0)
(-0.01540815543 0.04829005259 0)
(-0.009226348187 0.04815202283 0)
(-0.009246580528 0.04717708846 0)
(-0.008219723514 0.04715441078 0)
(-0.00820949411 0.0476418754 0)
(-0.008199221466 0.04812924841 0)
(0.008020089398 0.0476925487 0)
(0.007992347886 0.04671420447 0)
(0.009020054046 0.04669300299 0)
(0.009048015866 0.04767107033 0)
(0.01621595119 0.04739756444 3.583799923e-13)
(0.01612942608 0.04535744607 3.576583474e-13)
(0.0177555504 0.04423218263 3.490402412e-13)
(0.01790944439 0.04639633355 3.510663982e-13)
(0.01980267889 0.0382173357 2.894073869e-13)
(0.01938480725 0.0359362257 2.837730051e-13)
(0.01883946975 0.03218468803 2.540606614e-13)
(0.01918323524 0.03412563065 2.583488978e-13)
(0.01387003135 0.02001258277 1.511013537e-13)
(0.01351917945 0.01872261362 1.473821065e-13)
(0.01096498055 0.01429193248 1.123545701e-13)
(0.01129182712 0.01533574666 1.156436058e-13)
(0.003523102927 0.004073162688 3.060052212e-14)
(0.003333936247 0.003698436979 2.896294315e-14)
(0.001482369689 0.00156679498 1.225408663e-14)
(0.001609239676 0.001772751083 1.330879851e-14)
(0 0 0)
(0 0 0)
(0 0 0)
(0 0 0)
(0 0 0)
(0 0 0)
(0 0 0)
(0 0 0)
(0 0 0)
(0 0 0)
(0 0 0)
(0 0 0)
(0 0 0)
(0 0 0)
(0 0 0)
(0 0 0)
(0 0 0)
(0 0 0)
(0 0 0)
(0 0 0)
(0 0 0)
(0 0 0)
(0 0 0)
(0 0 0)
(0 0 0)
(0 0 0)
(0 0 0)
(0 0 0)
(-0.0007209209641 0.0005654258073 5.606626274e-15)
(-0.0007455489887 0.0006161936918 5.800915304e-15)
(-0.0006805738635 0.0005911915362 5.287437155e-15)
(-0.004351288718 0.004157404956 3.713696017e-14)
(-0.004499336435 0.0040903221 3.838596108e-14)
(-0.007140758843 0.006832753603 6.401823516e-14)
(-0.006964740134 0.007004090099 6.245004514e-14)
(-0.01539015031 0.01834279846 1.62786451e-13)
(-0.01559402828 0.01768146109 1.648403636e-13)
(-0.0179438132 0.021664143 2.016858902e-13)
(-0.0177471308 0.02252510963 1.996458554e-13)
(-0.0215167896 0.03382486696 2.991634718e-13)
(-0.0216582352 0.03236949626 3.007039062e-13)
(-0.02157852199 0.03500785403 3.252398351e-13)
(-0.02146200743 0.03663203592 3.240047119e-13)
(-0.01763084181 0.04053206993 3.59254293e-13)
(-0.01767245705 0.03858609104 3.592959263e-13)
(-0.01560535454 0.03854086467 0)
(-0.01556602321 0.04049071377 0)
(-0.009385241296 0.04035343231 0)
(-0.009404611011 0.03937856903 0)
(-0.008379696476 0.03935616194 0)
(-0.008369916927 0.0398437727 0)
(-0.008360100294 0.04033102009 0)
(0.007791068631 0.03988494308 0)
(0.007760546509 0.03890987933 0)
(0.008787908795 0.03888950134 0)
(0.00881874797 0.03986455791 0)
(0.01579980319 0.03912909804 3.53952978e-13)
(0.01565233247 0.03699303588 3.518851877e-13)
(0.01700268277 0.03551219521 3.380490332e-13)
(0.01723131149 0.03773808631 3.416433803e-13)
(0.01820700273 0.02956968758 2.677857935e-13)
(0.01789494284 0.02768296229 2.636085794e-13)
(0.01697110863 0.0241672334 2.300104551e-13)
(0.01751232174 0.02618910841 2.370603713e-13)
(0.01194292414 0.01445664878 1.304234498e-13)
(0.01119362685 0.01289690327 1.22304944e-13)
(0.008679845404 0.00940982206 8.909539773e-14)
(0.009431286222 0.01074212222 9.678369217e-14)
(0.002365321963 0.002291568142 2.056688153e-14)
(0.002065724285 0.001904485643 1.795785742e-14)
(0.0006709468094 0.0005892878706 5.551115123e-15)
(0.0008444981189 0.0007794458412 6.994405055e-15)
(0 0 0)
(0 0 0)
(0 0 0)
(0 0 0)
(0 0 0)
(0 0 0)
(0 0 0)
(0 0 0)
(0 0 0)
(0 0 0)
(0 0 0)
(0 0 0)
(0 0 0)
(0 0 0)
(0 0 0)
(0 0 0)
(0 0 0)
(0 0 0)
(0 0 0)
(0 0 0)
(0 0 0)
(0 0 0)
(0 0 0)
(0 0 0)
(0 0 0)
(0 0 0)
(0 0 0)
(0 0 0)
(-0.001281769609 0.000788893141 9.964251646e-15)
(-0.001168564199 0.000768739074 9.076073226e-15)
(-0.001000085265 0.0007000646617 7.771561172e-15)
(-0.004975211522 0.003831447302 4.242439733e-14)
(-0.005345581172 0.003869347687 4.557465516e-14)
(-0.008107991888 0.006177762483 7.260858581e-14)
(-0.007654850548 0.006205022038 6.857014956e-14)
(-0.01628293961 0.01563555655 1.717653797e-13)
(-0.01658615739 0.01496879405 1.748323708e-13)
(-0.0188547715 0.01811129092 2.111921749e-13)
(-0.01860404302 0.01901595759 2.08569273e-13)
(-0.0221203797 0.02794485991 3.057831766e-13)
(-0.02220069932 0.02634362488 3.064493104e-13)
(-0.022085455 0.02841989206 3.306244167e-13)
(-0.02195356149 0.03008405243 3.292227602e-13)
(-0.01779482789 0.032738616 0)
(-0.01783682741 0.03078900862 0)
(-0.01576663074 0.03074309852 0)
(-0.01574581985 0.03171756662 0)
(-0.01572527867 0.03269213146 0)
(-0.009538014682 0.03255492971 0)
(-0.009547549292 0.03206812909 0)
(-0.009034952039 0.03205710365 0)
(-0.009025465801 0.03254376941 0)
(-0.0006475474433 0.03223783942 0)
(-0.0006586972091 0.0319951955 0)
(-0.0006682156318 0.0317524693 0)
(-0.0001662255924 0.03174680496 0)
(-0.0001447910991 0.03223179518 0)
(0.00752441921 0.03209663389 0)
(0.007486470769 0.03112581689 0)
(0.007448120846 0.03015528088 0)
(0.009508899323 0.03011370799 0)
(0.009582999868 0.03205606244 0)
(0.008554092479 0.03207624886 0)
(0.01510713248 0.03051210787 3.432254481e-13)
(0.01484186529 0.02824975267 3.383543445e-13)
(0.01582444227 0.02654048461 3.180927743e-13)
(0.01624686808 0.0289336845 3.257394354e-13)
(0.01636770879 0.02150562498 2.420841305e-13)
(0.0157772255 0.01949691612 2.336325577e-13)
(0.01463320412 0.01663378396 1.99146255e-13)
(0.01525097383 0.01843544242 2.073480276e-13)
(0.009276315633 0.009062268698 1.014882622e-13)
(0.00871777967 0.008006268387 9.542366897e-14)
(0.006377308066 0.005509765372 6.554479182e-14)
(0.006869141507 0.006313245887 7.058242879e-14)
(0.0009768211433 0.000763216883 8.493206138e-15)
(0.0007940674522 0.0005831712945 6.911138328e-15)
(6.295944312e-05 4.403970856e-05 5.273559367e-16)
(0.0001202876398 8.952034051e-05 9.992007222e-16)
(0 0 0)
(0 0 0)
(0 0 0)
(0 0 0)
(0 0 0)
(0 0 0)
(0 0 0)
(0 0 0)
(0 0 0)
(0 0 0)
(0 0 0)
(0 0 0)
(0 0 0)
(0 0 0)
(0 0 0)
(0 0 0)
(0 0 0)
(0 0 0)
(0 0 0)
(0 0 0)
(0 0 0)
(0 0 0)
(0 0 0)
(0 0 0)
(0 0 0)
(0 0 0)
(0 0 0)
(0 0 0)
(-0.001215556523 0.0005452571459 9.492406861e-15)
(-0.001373691493 0.0006745002037 1.072752998e-14)
(-0.001467875068 0.0007830113379 1.146305273e-14)
(-0.005920810428 0.003478508437 5.069555886e-14)
(-0.005730565429 0.003099611535 4.907185769e-14)
(-0.00854871536 0.004870265167 7.688294446e-14)
(-0.008776507336 0.00543028186 7.893685705e-14)
(-0.01733695465 0.01271975889 1.834643548e-13)
(-0.01705881022 0.01152728572 1.804389971e-13)
(-0.01929813014 0.01388264891 2.168265567e-13)
(-0.01956901095 0.01528430876 2.200184479e-13)
(-0.0226457145 0.0218523367 3.137073934e-13)
(-0.02246830467 0.01996326125 3.108624469e-13)
(-0.02218259803 0.0213693611 3.328726184e-13)
(-0.02230829486 0.02334531661 3.352595979e-13)
(-0.017734211 0.02491588288 0)
(-0.01777839178 0.0229660077 0)
(-0.01570242015 0.02291896979 0)
(-0.01568033489 0.02389368091 0)
(-0.01565823937 0.02486884497 0)
(-0.009430415057 0.0247277333 0)
(-0.009452510579 0.02375256924 0)
(-0.008414570056 0.02372905132 0)
(-0.008403517164 0.02421685981 0)
(-0.008392474534 0.02470421537 0)
(-0.008911444796 0.02471597433 0)
(-0.001126665893 0.02453958478 0)
(-0.001137707655 0.0240522292 0)
(-0.001148760113 0.0235644207 0)
(-0.0001107876975 0.02354090205 0)
(-8.86921756e-05 0.0245160661 0)
(0.007177086249 0.0243514362 0)
(0.007132905468 0.02240156102 0)
(0.009176938289 0.02226980545 3.579359031e-13)
(0.009246385755 0.0242853398 3.590183706e-13)
(0.01406531808 0.02181230989 3.240741009e-13)
(0.01371515663 0.01964305097 3.171629626e-13)
(0.01439375631 0.01811258604 2.926270337e-13)
(0.01481504917 0.02020434388 3.003569615e-13)
(0.01373343471 0.01373619649 2.040173586e-13)
(0.01317797688 0.01214243504 1.959821194e-13)
(0.01174583528 0.009944340084 1.602884492e-13)
(0.01255001448 0.01153911842 1.711963904e-13)
(0.006579395369 0.004885177407 7.208122987e-14)
(0.005733837882 0.003920978242 6.282474541e-14)
(0.003895935763 0.002506036176 4.007905119e-14)
(0.004439465599 0.003100867349 4.565792189e-14)
(0.000163486601 9.704909201e-05 1.415534356e-15)
(7.384557483e-05 4.036698427e-05 6.383782392e-16)
(0 0 0)
(0 0 0)
(0 0 0)
(0 0 0)
(0 0 0)
(0 0 0)
(0 0 0)
(0 0 0)
(0 0 0)
(0 0 0)
(0 0 0)
(0 0 0)
(0 0 0)
(0 0 0)
(0 0 0)
(0 0 0)
(0 0 0)
(0 0 0)
(0 0 0)
(0 0 0)
(0 0 0)
(0 0 0)
(0 0 0)
(0 0 0)
(0 0 0)
(0 0 0)
(0 0 0)
(0 0 0)
(0 0 0)
(0 0 0)
(-0.0002839159134 7.912124016e-05 2.220446049e-15)
(-0.0005151681531 0.0001654472484 4.024558464e-15)
(-0.0007653770855 0.0002783185616 5.981326545e-15)
(-0.004391168882 0.001760148559 3.760880496e-14)
(-0.003751733803 0.00132842314 3.214095656e-14)
(-0.006111128755 0.002280999209 5.498379529e-14)
(-0.006912908069 0.002920219458 6.218636717e-14)
(-0.01494940864 0.00750402036 1.580957587e-13)
(-0.0138595991 0.006153475301 1.46632706e-13)
(-0.01608604613 0.007609098822 1.807165528e-13)
(-0.01719333698 0.009191826601 1.930955396e-13)
(-0.02087561456 0.0137861457 2.88227775e-13)
(-0.0199580273 0.0116682611 2.755851103e-13)
(-0.02012268892 0.01274856935 3.010369731e-13)
(-0.02090662337 0.01496194717 3.12819215e-13)
(-0.01770706789 0.01692618228 3.554240235e-13)
(-0.01744106421 0.01474273252 3.495537193e-13)
(-0.01573609509 0.01498696081 3.562705686e-13)
(-0.01582498237 0.01705806648 3.590877595e-13)
(-0.009607158707 0.01692732673 0)
(-0.009651349751 0.01497699862 0)
(-0.007575423411 0.01492996174 0)
(-0.007531232367 0.01688028985 0)
(-0.008569218184 0.0169038088 0)
(-0.001303408054 0.01673917818 0)
(-0.001347599098 0.01478885007 0)
(0.0007283408304 0.01474181288 0)
(0.0007725318741 0.01669214099 0)
(0.006946689651 0.01640479988 3.561040351e-13)
(0.006811477783 0.01424899725 3.505667978e-13)
(0.008595459173 0.0137744939 3.3982539e-13)
(0.008819896835 0.01598856857 3.479577737e-13)
(0.012561677 0.01331978087 2.913363994e-13)
(0.01201922569 0.01124027997 2.787492459e-13)
(0.01227946097 0.01007533547 2.499389584e-13)
(0.01291460118 0.01201670636 2.629424456e-13)
(0.0109020007 0.007432632302 1.621619505e-13)
(0.01012846477 0.006091209079 1.505739977e-13)
(0.008593058342 0.004753075889 1.172117958e-13)
(0.009351547579 0.005862284924 1.276201367e-13)
(0.00366945173 0.001860961484 4.020395128e-14)
(0.003152772136 0.001412026532 3.452793607e-14)
(0.001613075155 0.0006800514424 1.659783422e-14)
(0.002191140671 0.001045718876 2.25375274e-14)
(0 0 0)
(0 0 0)
(0 0 0)
(0 0 0)
(0 0 0)
(0 0 0)
(0 0 0)
(0 0 0)
(0 0 0)
(0 0 0)
(0 0 0)
(0 0 0)
(0 0 0)
(0 0 0)
(0 0 0)
(0 0 0)
(0 0 0)
(0 0 0)
(0 0 0)
(0 0 0)
(0 0 0)
(0 0 0)
(0 0 0)