/*--------------------------------*- C++ -*----------------------------------*\
| =========                 |                                                 |
| \\      /  F ield         | OpenFOAM: The Open Source CFD Toolbox           |
|  \\    /   O peration     | Version:  v1912                                 |
|   \\  /    A nd           | Website:  www.openfoam.com                      |
|    \\/     M anipulation  |                                                 |
\*---------------------------------------------------------------------------*/
FoamFile
{
    version     2.0;
    format      ascii;
    class       volScalarField;
    location    "0.96";
    object      k;
}
// * * * * * * * * * * * * * * * * * * * * * * * * * * * * * * * * * * * * * //

dimensions      [0 2 -2 0 0 0 0];


internalField   nonuniform List<scalar> 
12556
(
36.90870178
36.90876956
36.90891412
36.90918915
36.95453106
36.95554592
36.95733192
36.96100597
36.96783785
36.9785362
36.9912274
37.00365354
37.00632296
37.00364137
36.99155501
36.97944558
36.96903509
36.96188776
36.95807726
36.95589295
36.90969736
36.90902063
36.90866931
36.90842094
36.72750685
36.72776256
36.72817043
36.7291462
36.77532078
36.78041198
36.79051088
36.82684849
36.85839126
36.90833297
36.97411565
37.02109411
37.03499847
37.02645802
36.98731708
36.92654616
36.87395473
36.83803135
36.79510278
36.78249674
36.73162507
36.72907667
36.72787018
36.72720834
36.54759273
36.54825447
36.54947079
36.55195982
36.6001062
36.61261009
36.63645989
36.69440275
36.76936204
36.88339286
36.99679015
37.07557819
37.10462941
37.0895401
37.02482941
36.91957985
36.80401806
36.72127919
36.64607579
36.61729817
36.55797338
36.55235274
36.54964722
36.5485283
36.36907913
36.36997132
36.37217943
36.3774701
36.43014054
36.455628
36.50756114
36.60496224
36.75350403
36.92279006
37.08638654
37.21092284
37.26655947
37.24382597
37.14346995
36.98127631
36.80604688
36.65039094
36.52302343
36.46680827
36.39107287
36.37988912
36.3745577
36.37247135
36.1923982
36.19395149
36.19818717
36.20882419
36.2689511
36.3146532
36.41185375
36.57547019
36.79415688
37.03344081
37.28280388
37.50430341
37.62526389
37.58730152
37.41581612
37.1483433
36.87664433
36.64934169
36.43911074
36.33571472
36.23216581
36.21153447
36.20202444
36.19831135
36.01697698
36.01944041
36.02657809
36.04435376
36.11899912
36.19575147
36.36296061
36.59315052
36.88497888
37.2303326
37.65286166
38.13934795
38.46297045
38.36629606
37.95219129
37.48098406
37.04104698
36.69819627
36.40110197
36.22878147
36.08441984
36.0473912
36.03145037
36.02520152
35.84404147
35.84824637
35.86036458
35.89010652
35.98150236
36.10093697
36.35405142
36.6482589
37.0385221
37.53958462
38.29948673
39.62198702
40.38239045
40.21192288
38.93912217
38.02741113
37.31322949
36.80416413
36.40806656
36.15021944
35.9465509
35.88799565
35.86275002
35.85293179
35.67470689
35.68104703
35.69934849
35.7443763
35.85636038
36.03088064
36.36825256
36.73603214
37.24331525
37.95040878
39.22452768
42.19567563
43.1405041
40.52254499
38.80659841
37.6865845
36.96150409
36.43956214
36.09728728
35.82125353
35.73476276
35.69697884
35.68247839
35.51216814
35.52187601
35.54904319
35.61358889
35.74741569
35.98400728
36.39992295
36.84681209
37.47342662
38.37715337
40.09915682
44.53769479
48.01547506
42.44931844
39.73341555
38.13391281
37.15544785
36.48960758
36.06643697
35.70914945
35.58965182
35.53670267
35.516478
35.35830833
35.37156461
35.40803832
35.49342698
35.65591513
35.95650551
36.44379354
36.96968328
37.70249331
38.75694384
40.73950341
45.59970541
51.37172797
44.19069031
40.64168777
38.5789461
37.35898825
36.55225454
36.05190285
35.6119519
35.45597612
35.38552987
35.35854891
35.21631984
35.23450041
35.2828892
35.39352777
35.58095557
35.94363358
36.49617791
37.09347207
37.91309707
39.08108877
41.24690646
45.98950894
53.01720206
45.46788308
41.37098983
38.9613941
37.54821544
36.61763402
36.04914979
35.52875392
35.33566494
35.24691544
35.21244026
35.08592901
35.10842703
35.16733595
35.30162197
35.51915748
35.94136003
36.55205538
37.21163168
38.10566329
39.36998892
41.71090492
45.68672274
53.72581034
46.26438669
41.87790517
39.25056081
37.70796399
36.6775194
36.04965587
35.46026408
35.22966435
35.12251576
35.08024616
34.96802927
34.99606523
35.06947535
35.22986414
35.46563775
35.93878042
36.60255019
37.32384383
38.27798945
39.63505264
42.20195678
45.1402319
45.41305714
53.54989907
46.66148799
42.17288359
39.42482347
37.82638959
36.72542287
36.04780582
35.39933991
35.13687305
35.01191878
34.96222539
34.85944719
34.89240724
34.97829012
35.15942515
35.43258981
35.96201994
36.69043879
37.44982671
38.46210773
39.92639112
42.74984562
43.69902781
55.69370187
53.5392062
46.76736788
42.22656879
39.50807186
37.90987737
36.75897901
36.03833945
35.34153115
35.05343857
34.91243394
34.85600125
34.7582931
34.79583384
34.89280766
35.09275838
35.38963941
35.95999055
36.74512449
37.58256071
38.69510316
40.26199258
43.09984735
40.11541347
55.88420114
52.88931005
46.42850598
42.11525522
39.50647896
37.95796713
36.77156723
36.01618355
35.28386803
34.97509106
34.82035879
34.7582169
34.66006575
34.70175335
34.80818395
35.02498201
35.34358418
35.9458442
36.78274016
37.72966453
39.01905484
40.78344814
43.51390489
34.48356664
54.10938028
51.34378609
45.68089346
41.82614698
39.44652359
37.9624832
36.76175897
35.97731406
35.21927333
34.89549991
34.73085437
34.66402482
34.56307488
34.6083227
34.72220183
34.95277561
35.28970082
35.91413023
36.78572245
37.83327559
39.38599171
41.46501173
43.08913856
27.38990624
52.77862772
49.33752568
44.6384048
41.4407372
39.37355047
37.93322017
36.71704332
35.91972662
35.14694334
34.81344671
34.64055809
34.56987773
34.46283182
34.51105485
34.63077503
34.87267879
35.22481539
35.86335625
36.76079406
37.83948893
39.59125424
41.84967762
39.84051158
33.40608681
51.21545008
47.46232722
43.70094756
41.10270739
39.25449119
37.85106737
36.6362256
35.83850535
35.0607655
34.72191019
34.54524417
34.47173359
34.36006306
34.41063355
34.53447457
34.78443201
35.14750102
35.7935462
36.70348775
37.79797034
39.54498962
41.55217059
33.99404691
42.60645187
49.69070755
46.21143564
43.13693352
40.83743121
39.08078667
37.72467198
36.52807902
35.73810782
34.96275999
34.62224673
34.4436095
34.36857808
34.2506887
34.30306308
34.42999045
34.68620157
35.05773322
35.70628996
36.62085275
37.72072513
39.43089527
41.02250279
31.65347501
42.32432609
48.47461633
45.54136532
42.71902616
40.55349441
38.87756276
37.56888323
36.39892235
35.62115157
34.85265363
34.51274342
34.33350384
34.25756764
34.13842976
34.19207823
34.32086055
34.58040588
34.95636772
35.60405262
36.51800765
37.61606658
39.26841326
40.44844387
29.84466466
41.1668757
47.40294683
44.93031858
42.31996077
40.26615816
38.65979977
37.39455497
36.25402554
35.49066318
34.73295227
34.39583548
34.21707833
34.14075786
34.01841647
34.0729636
34.20320215
34.46547943
34.84495898
35.48951026
36.39950584
37.49044517
39.06817242
39.84734162
28.32582902
39.98467313
46.41438321
44.35768583
41.94218495
39.98362749
38.4363565
37.20946723
36.09770793
35.34969997
34.60368508
34.269862
34.09195843
34.01556907
33.89767151
33.95276279
34.08359447
34.34607809
34.72518733
35.36523163
36.26908154
37.34877368
38.83885528
39.24193388
27.08192349
38.81394235
45.49209158
43.81708378
41.58367541
39.70981299
38.21258634
37.0189901
35.9336595
35.2009986
34.46877459
34.13950467
33.96290376
33.88668714
33.7685928
33.82404632
33.95557929
34.21902821
34.59893749
35.23350073
36.12975719
37.1947474
38.58656579
38.64789521
26.08321152
37.67213923
44.62427869
43.30354764
41.24143718
39.44588112
37.99166413
36.82667094
35.76490971
35.04691106
34.32684145
34.00129657
33.82576648
33.74978109
33.64248569
33.69808355
33.82959382
34.09141421
34.46767251
35.09630597
35.98401876
37.03099714
38.31543455
38.07259047
25.29600242
36.56398472
43.80139345
42.81294431
40.91308972
39.19157107
37.77531982
36.63484659
35.59376224
34.88927777
34.18332745
33.86268676
33.68848149
33.612808
33.50651697
33.56221041
33.69414653
33.95643771
34.33293351
34.95527332
35.8337514
36.85920416
38.0306761
37.52001075
24.68436435
35.49324754
43.02110107
42.34170744
40.5967458
38.94607706
37.56429723
36.44497436
35.42186175
34.72962358
34.03387192
33.71623069
33.54278252
33.46732923
33.37866972
33.43431661
33.56591641
33.82537081
34.19556528
34.81167572
35.68028895
36.68046566
37.73672738
36.99188126
24.21334298
34.45226993
42.273565
41.88684596
40.29084046
38.70853808
37.35880797
36.25794264
35.2503864
34.56901334
33.88708376
33.57428454
33.40191663
33.326703
33.2372615
33.2928856
33.42481846
33.68498268
34.05677231
34.66645695
35.52449036
36.49567612
37.43744752
36.48861591
23.85773218
33.44642353
41.5516429
41.44580035
39.9939523
38.47810539
37.15874716
36.07423128
35.08012569
34.40840709
33.7331596
33.42207741
33.250001
33.17485852
33.11129649
33.16679993
33.2982267
33.55453992
33.91677438
34.52032365
35.36694045
36.30583099
37.13681606
36.01018763
23.59971685
32.47900553
40.84982897
41.0164718
39.70484978
38.25401778
36.96388545
35.89409659
34.91162945
34.2482836
33.58746904
33.28126184
33.10997975
33.03492472
32.96451979
33.01995547
33.15165234
33.409301
33.77674063
34.37382546
35.20805537
36.11199211
36.83745636
35.55579171
23.42119304
31.55033747
40.16666934
40.59706675
39.42241494
38.0355539
36.77390551
35.71762762
34.7452649
34.08934505
33.42983174
33.12376327
32.95233462
32.87716206
32.84432022
32.8996249
33.03077742
33.28372919
33.6362672
34.22737723
35.04816573
35.91519265
36.54139639
35.12427876
23.30641498
30.66023539
39.49970319
40.18612595
39.14567649
37.82205944
36.58846282
35.54482011
34.5812904
33.93163558
33.28975862
32.98879991
32.81787348
32.74262687
32.69047892
32.74570594
32.87700071
33.13184097
33.49687699
34.08135766
34.88761002
35.71638613
36.24921098
34.71470704
23.23789224
29.80756284
38.84771767
39.78250052
38.87385382
37.61297478
36.40722077
35.37559446
34.41989084
33.77590217
33.12630404
32.82394758
32.65257165
32.57701999
32.58087735
32.63599107
32.76686919
33.01689213
33.35738136
33.93610531
34.72681651
35.51638591
35.96147718
34.32581101
23.20361442
28.99158013
38.2108287
39.38548935
38.60630364
37.40779791
36.22983812
35.2098138
34.26126934
33.62177914
32.99840992
32.70106701
32.52983158
32.45407638
32.41599255
32.47103339
32.60181557
32.85294045
33.22047089
33.79225198
34.56639079
35.31594133
35.67862855
33.95580885
23.19098273
28.21521367
37.58944304
38.99448368
38.34255941
37.20612884
36.05603469
35.04741122
34.10588526
33.47073123
32.82224567
32.52333877
32.35155179
32.27531105
32.32345059
32.37842866
32.50904571
32.75797578
33.0844525
33.65102054
34.40791608
35.11567147
35.40098661
33.60329124
23.1895944
27.48088186
36.98450012
38.60962747
38.08226857
37.00761685
35.88553869
34.88821107
33.95508388
33.32281285
32.71847235
32.42164885
32.24956371
32.17301949
32.11252574
32.16743899
32.29787028
32.54672371
32.95634548
33.51566243
34.25663845
34.91671328
35.13034461
33.27015052
23.19182604
26.79112666
36.4015666
38.23421018
37.82645431
36.81250227
35.71839994
34.73218641
33.81320004
33.18399763
32.49175169
32.19376473
32.02071803
31.94337361
44.35243043
48.57661967
43.53705701
45.49996116
52.28286403
49.03899989
45.99238653
53.9897763
52.58824395
45.74654048
54.68151145
54.10386007
45.17743818
41.26158363
44.41357773
54.99517155
54.72247247
44.20053348
51.38702268
41.59032198
55.23161117
55.48703269
55.02014246
41.78949241
40.3536285
43.02569474
40.10941527
52.77350209
45.33372747
47.47608726
42.9191598
41.12919803
40.59683372
44.47045283
43.54649284
56.35332087
58.735393
51.06563923
45.0921792
43.49843478
41.12999016
45.15456459
44.57671734
45.84284929
47.97639827
48.99062048
54.92971046
54.40723363
52.88364044
46.66294927
45.53653536
41.61026037
45.34605598
45.20494838
45.92524799
44.17653655
46.25078407
56.55831088
55.59712927
42.0933378
45.22031616
45.34494166
45.45934543
39.27646501
41.7692057
39.98192253
57.51094377
57.25735734
42.65211143
44.73549793
45.18535867
44.83108827
32.93394518
35.9047436
42.68087097
53.51417649
51.7875093
48.98093992
51.00395557
44.3881725
48.52247905
58.65967212
53.12088081
46.39752815
52.01896798
57.26288194
49.11595945
49.83486351
45.12292215
50.57124303
49.19740175
51.16717036
50.72509713
54.50617342
56.11174689
50.86334941
57.31826924
56.21140209
57.46305718
57.44081246
50.6125168
46.45055819
47.80322162
45.90280414
47.42707996
45.50586208
49.108025
47.54624751
55.41876097
55.02300396
53.52161137
56.74642744
57.00902599
56.15238203
56.70063786
53.33306558
41.90745719
44.04813875
45.88875645
43.04593104
40.44211656
45.37729427
43.1904505
57.20840535
56.66259198
36.06456746
39.0946439
45.4274401
41.70926547
37.0632569
33.66921921
40.29393669
37.28299476
43.03084391
57.76949614
57.54179889
39.76834318
40.39149917
32.87540285
44.78337564
47.82897253
32.15441699
81.20308176
33.57498226
32.17288961
47.07907263
39.90478754
43.36910337
41.4886332
43.31689739
47.39072115
43.92629131
65.78215881
48.78047462
45.00944779
49.90975044
49.64519194
51.66628293
53.68541317
47.64790272
46.94707202
60.85069573
48.72810508
47.04134089
51.19734772
58.09362155
57.86688336
49.47246009
47.74572383
43.62321948
57.38125831
46.78892704
55.21043723
44.90544346
50.97654631
45.74588889
46.56626836
42.6824497
54.47237492
57.29084878
57.41638698
57.04230175
57.27002277
54.40243478
39.4484817
52.93101141
43.55707937
42.0624834
41.62739559
43.87072689
44.69314273
42.08275613
42.08260234
71.02934758
49.55841905
65.41495132
47.61399136
61.38238612
48.65284993
58.13172253
58.29447838
54.58270263
54.54931413
41.14359686
47.68656634
56.1919318
41.704883
41.76839309
49.83767887
42.02092372
56.06419853
40.63341791
44.9666104
44.60431769
51.95828579
49.66905098
53.79808467
34.90687195
42.72899307
42.22631088
43.37196159
42.9108717
35.04393749
62.17570982
57.90529405
50.01770277
58.31146546
59.37350993
53.46085565
57.93742878
50.29209002
46.29252984
52.64269222
46.10036264
58.49291803
53.49239608
46.94666757
56.01795461
61.98925761
56.76917819
56.37120406
49.92666519
45.62292996
49.83907034
51.19553167
49.29259316
52.85344369
46.04755407
48.82947336
51.10778684
55.42930345
55.57129196
56.79638078
55.12599851
54.52536762
55.70708712
55.28942455
56.70796071
58.10058599
53.14907076
52.07148853
54.29334453
53.46387273
58.08236484
46.5521829
46.42800652
48.43004473
48.33149458
55.61076386
50.64933472
55.53552374
42.01475664
41.8362332
44.34781876
44.19924372
42.09066259
45.66664005
56.93918027
42.09651481
40.99855277
37.92805747
43.95583143
43.52387988
44.47976066
44.09124429
38.08515219
39.41591458
36.14544579
35.9961379
39.25398295
39.10638321
62.37708687
39.86760503
54.24598916
52.61643918
42.0336248
41.55628905
32.39748652
32.9978823
41.54284981
43.29666553
33.12159245
77.41822681
44.1477806
67.80557934
33.04644936
44.45827625
49.23887623
41.20045098
65.38161771
40.11157268
40.99668512
43.01688872
44.21091334
44.62972353
43.1678771
35.43379245
42.04967979
56.37220026
54.88027909
55.41370491
56.38209237
41.70455462
46.72178323
55.74997601
54.69097844
40.30686842
58.25121061
58.15971943
51.8055582
43.87236058
43.44816216
46.28325974
47.64563411
43.64549871
44.0114635
57.19238186
60.56455946
59.0846203
58.71475089
54.69832318
44.717622
44.81771603
48.90692663
48.38801588
54.25800882
45.09884813
46.58561693
46.31536495
46.91976056
46.67217903
45.24986764
45.41732953
45.08132685
40.77790046
33.4027066
39.09045178
38.65478289
73.65172313
54.04520992
52.19640194
58.09987366
62.27664009
60.94533299
54.67494163
49.83918162
48.27888732
51.66643941
50.32669624
55.05807601
54.85772751
49.85468874
49.23827175
55.71141422
47.05783612
47.20712341
46.99680009
41.62315809
42.16244373
45.90830613
44.95942379
45.12308488
55.22971013
56.86876681
56.41521693
56.3431223
56.13826813
56.08544382
55.81514048
56.31026039
56.15054598
56.14980884
42.98925102
45.8339656
45.52447672
46.22188198
45.93356631
43.13298345
42.61373204
36.88699206
37.24647867
33.85095422
34.131071
40.94879659
44.94745415
40.7547763
41.47382266
37.38921287
37.79474457
43.62257673
57.01219332
46.32641168
50.79112694
66.79575399
39.94187429
36.62290723
34.72183591
39.85258362
33.53782885
33.77932962
33.02335758
38.30472408
54.67407024
38.47467872
40.17731411
39.33393648
38.51328344
38.1001578
32.7220491
41.01971606
41.15927992
49.93560044
32.0899046
94.19775083
43.55124714
41.53782238
45.67466905
33.39591003
32.29787095
58.57921241
57.9324221
57.33886402
51.62846225
51.43111761
39.90942419
39.99893318
61.24113492
55.1606884
55.04108384
50.10741015
61.79358403
50.17795473
62.27056827
51.17407814
46.12965934
41.57829293
44.30258319
50.86578676
56.93560826
51.70536017
42.92136998
39.76924297
54.30743269
66.92667545
43.08862167
50.95003872
73.86072817
40.05377097
41.8536832
39.66743809
39.86679366
65.5760641
71.31649811
57.55937714
53.46817217
61.77344822
58.45218321
52.67918825
49.30896615
55.4954735
56.52457599
55.80135731
57.51910515
58.62765832
58.64915578
57.10450873
45.97022196
44.99132141
54.63476164
48.57225117
48.34056225
45.43616226
48.06318455
48.20526983
54.30959396
48.14254677
46.37579062
42.09727451
42.83063153
41.30088282
50.6283851
49.57548085
44.65858564
47.36363341
45.82234312
49.16091559
47.90972019
43.64521537
44.00983214
40.76707074
40.01818848
39.70471029
39.21969391
33.87532329
35.41430524
40.24438042
39.84122712
60.6100514
59.97235388
59.52463517
53.43244352
54.06300536
52.32369708
53.18456623
59.85512233
56.19093975
54.42963162
54.25630069
54.21584359
54.43455335
56.50547874
56.7323739
50.96586727
52.02999464
60.17985952
60.6796955
62.24680215
61.52383879
57.80053804
63.3296282
64.43485337
64.2081935
63.57395604
62.80584671
64.80187966
63.37525689
55.00792175
61.27859799
62.36241997
44.09663979
50.01323976
49.05310142
50.91861879
50.27309436
44.73789787
47.72922353
47.07501134
48.72010253
47.95473428
50.71348976
53.40294936
52.80785917
54.1146381
53.59284908
51.22172744
47.16010933
51.77338412
51.1363749
52.60348611
51.98294024
47.56379113
50.80227644
49.97852532
54.99506562
55.7250584
52.41269435
51.19196124
41.07495378
40.55031719
41.98716274
41.25913802
39.71356462
39.20139003
40.38388931
39.86715772
46.03591594
45.42482859
46.86442223
46.2452329
44.21123158
42.46538776
45.20325102
44.59225976
43.74447887
43.40291836
45.39107093
44.10833488
50.72115906
43.77445488
44.917354
43.30647544
43.46503935
36.40933572
36.74540912
42.46839852
34.3610554
34.134636
34.69020756
34.45465006
34.00518534
41.16634923
34.27515247
36.03420276
38.69183682
40.47760513
44.80240348
38.27677698
35.73376405
39.09787752
38.30930353
35.0910059
34.79708645
35.55316256
35.20374105
43.76605095
37.93975614
38.42753149
56.89398439
41.20080046
55.735998
50.03796126
55.36499843
41.0354047
69.57099484
39.69041583
66.81824943
58.15733878
36.4955891
35.37128949
33.24303696
33.47051845
39.70538755
38.56461589
33.022427
33.19227008
62.00494658
32.67078116
37.90481594
37.19694056
78.2630659
84.73654023
32.03195616
88.86491464
70.2190503
41.86474045
33.32818326
76.80322072
49.02135258
87.39216413
51.87051718
32.42920077
42.66727152
40.5787143
39.20279006
59.87557302
59.36970644
54.17728202
48.17394081
47.80355754
59.94204462
40.08917037
41.86747901
39.9988857
57.42892765
57.49042342
54.8645424
46.28439527
45.5267001
49.48665324
55.84547804
46.13489301
46.3282026
41.53357934
41.88370598
44.42778008
51.29821777
55.4201965
58.42841954
48.44885332
47.56718009
47.47265304
47.6060541
47.58650279
48.59269698
42.81858881
41.24392431
42.12463982
51.53174573
53.3402405
57.41095754
40.75768926
40.37114895
35.53389733
59.29159179
61.06025901
54.58925075
47.42793216
47.268941
47.25095667
47.05359902
43.79487488
44.47474826
44.80686097
45.82871126
47.90300963
36.94091094
41.29152479
40.88487218
50.45524621
47.64541421
40.89240907
32.5871537
32.63196172
33.82914138
45.42958012
63.38933604
56.03347951
39.49824104
45.63154193
43.354936
32.12815569
33.51177142
32.52868181
32.56027618
32.20110222
66.41386509
51.33068227
43.56314935
45.56625373
59.86041848
40.1681505
40.22267876
49.09392681
56.56093654
47.73629912
46.05500201
48.32593677
44.89713258
40.97117143
40.25788316
70.49994252
73.55552702
75.28117757
62.80956349
72.08311694
43.28030714
43.63799369
46.83545966
67.54602261
62.22540277
59.40589446
70.67885263
67.54650557
41.33103954
45.22029843
43.96100959
53.0610144
52.38468439
44.82949278
51.89232968
50.98737805
41.30742042
50.2603722
42.39061454
42.71856628
48.68997953
40.98561396
41.90911269
61.83746782
62.6732124
58.63367614
58.7377549
57.45068088
57.28821506
54.09912648
55.25650154
54.82787593
57.09731182
56.85114703
57.44946753
49.31747963
50.61438713
56.15970884
57.68414213
63.93012202
59.84857863
64.00473287
64.37824015
61.25706417
42.28003131
44.70007188
44.13312846
48.70747384
48.44777744
45.36285748
41.83332836
41.569522
43.65496743
43.27222261
49.75903688
52.19395625
51.82855824
54.43090459
54.0512782
52.28604373
46.37237048
49.37776178
49.07121872
51.46164327
51.10371085
48.39660344
43.05715116
43.60530522
46.93250558
46.03542923
42.33598227
42.87816762
46.83856807
47.3823449
48.72771293
40.05718952
39.8958859
41.3419237
41.13517052
37.51498402
39.6596078
39.52665256
48.0100972
46.08101368
46.65032561
50.02831821
49.63270433
43.23764901
43.75593261
50.34262553
49.51075743
49.90827195
55.30433226
45.26067856
46.54041336
41.79954906
41.42176268
37.29060891
38.50482891
42.25339987
41.91244972
33.9987368
34.06496909
36.2559332
35.86935624
33.81642674
33.90916322
62.5348845
32.42528418
33.70262343
32.88455214
110.109232
32.37636537
41.72855247
64.81499089
57.09993307
32.24662867
32.28228881
33.18926572
75.46542813
81.80638942
78.96405677
61.26762225
32.94735729
32.1790393
32.21094482
43.60702243
40.04630946
39.71700943
59.69033733
58.76874735
47.41390428
45.64101079
40.56767678
57.88227538
60.02273268
62.24442182
43.00670455
57.82314355
51.8180971
58.19652528
56.88114691
44.61545838
45.03647362
45.94393593
51.24642862
54.25063048
54.67512088
53.5883763
53.90364027
60.12457154
59.44434224
59.7895982
58.70678157
59.05797286
59.57904119
48.75489823
47.33019382
47.63650972
46.88897826
47.09475021
48.76103282
61.70227409
60.66526731
60.70708164
60.1459881
60.44265618
61.31441489
49.46645655
48.55339702
48.89444495
47.92048447
48.24426739
49.29345075
52.86865348
52.97794936
52.0919095
52.25484551
36.9854058
39.43396144
39.29784835
33.93986781
35.95645723
35.84171742
36.31567456
36.09335245
34.02628604
63.69677818
65.36561125
57.07726492
64.81458555
33.00481032
32.95230292
33.13672368
33.07979657
32.61668231
34.14622733
32.68981673
32.83084168
33.62569962
35.55666606
35.45357053
35.74627895
35.64904415
33.69659217
33.2748033
33.19504272
34.24862498
33.43703823
33.04829075
64.8221003
62.38986812
48.72106039
65.26824053
35.20727629
34.18056081
39.26286728
32.78466397
34.66130609
34.52685523
32.09569329
92.99116533
93.97358557
64.06164736
85.72196207
75.88629146
32.43519848
32.48985593
33.46005644
32.24503116
63.22046685
69.4390871
63.52564783
66.20310469
61.37483488
52.31002506
67.92878204
62.34106463
52.19016375
51.71790352
61.3208631
47.95472858
52.90195934
56.14261816
53.03881419
58.59094774
52.60093661
56.04152141
63.57218889
65.1188963
57.07566647
62.29303533
66.42836598
56.59151929
58.12903525
55.68305982
60.10459273
69.95418317
69.7693225
68.07755416
44.97090007
61.04225056
54.40422786
68.50944137
70.11954776
47.94453619
51.70174684
56.43407669
72.43538894
59.55025713
45.84083171
48.06792098
66.5699813
62.7072619
67.05112684
60.51647113
63.61500636
66.49026984
68.12747159
67.4404609
55.93172936
56.37899619
56.73293572
55.45688911
55.69572474
55.5818947
58.08237121
57.95629471
58.30793473
57.18959155
57.53274105
57.61095462
45.63644129
47.53146168
47.51105355
48.39552476
48.42230405
46.50058746
49.04879141
48.74515679
48.09766838
48.53052806
48.9923255
47.34970749
46.95906134
46.86229868
47.41533005
47.21540912
46.76373093
52.74217067
48.38197515
41.58946718
54.3915754
54.30478269
53.94670856
43.69229671
52.72970611
52.16582315
41.97294941
42.1211804
46.93664929
61.27980008
59.24564933
56.13392036
55.70657454
54.71457975
57.09452452
56.64180891
56.34781911
65.21715173
64.91671824
59.16931593
65.69678084
67.92948749
61.12519641
64.96754866
65.18091377
62.03771987
60.68027701
60.61612716
60.64826858
60.67892033
61.77758628
63.76081326
64.03053979
63.48153173
66.92311332
66.77946195
66.90370382
66.97229777
63.33346914
65.0509251
66.19152433
68.11203627
65.1491699
47.20381257
47.02836848
44.06327202
44.90703608
48.03522679
47.8529143
42.36937357
42.08967177
42.95203869
42.65018326
52.92952672
52.55827117
50.21659699
51.74856486
53.67727659
53.30293954
50.05893163
49.73230328
46.79870709
47.95623739
50.74557185
50.40466878
50.64721643
49.92291307
50.2892709
49.2191125
49.57798949
50.21532305
51.88191243
51.2768582
51.56555989
50.64504214
50.98643181
51.59481248
40.89403771
37.77349389
37.93979685
37.47360193
37.62674317
40.72308652
41.68456021
38.49110605
38.73842472
38.10459161
38.28990948
41.45869733
39.53033501
36.59834946
36.75575321
36.33853933
36.49299558
39.39606144
40.21012411
37.17688892
37.33144327
36.87830132
37.04005327
40.04691187
40.47277986
40.28819749
45.83348217
43.59385874
43.79838945
43.17359337
43.36016746
45.62090169
40.90268491
40.70116214
38.79854261
38.712164
43.91979243
41.73385997
41.80681878
39.10363325
39.60641779
43.15925522
45.01935533
42.76872233
42.92293354
42.35847805
42.46811326
44.76735066
39.26890995
39.17009671
49.29252773
49.1667198
50.26195286
44.63353239
46.52671761
44.1102504
49.09544754
49.43873916
48.84839419
49.00648379
44.51514969
43.24879015
46.44779812
44.83965582
48.73480697
48.85114673
43.26736277
36.47636092
38.82340011
38.69030553
39.13833979
39.0131241
36.66543314
34.30220762
34.18894608
34.61454016
34.51353356
33.94425565
33.75628944
34.52891053
37.40345983
36.7238402
38.38135666
38.10198385
35.84946207
36.4707504
34.83162131
35.62714757
36.02144532
38.85950777
36.08147128
36.25388369
35.77877722
36.00650809
38.78157822
34.99531494
34.88462029
35.42727945
35.30710529
54.70672614
43.19819748
44.28086652
41.35011971
42.18360203
55.49671725
54.2161347
53.57169389
45.7277289
49.29873153
55.91368994
65.34560655
48.40754227
51.40519349
43.35686796
45.83298771
66.68608647
32.79795486
32.74303137
32.89651977
32.85629747
33.35223876
33.66544842
35.6220781
32.54416939
32.51296067
32.68006211
32.62105444
33.3249252
35.16352872
35.04529366
35.36032002
35.25101969
33.38438246
33.08322186
34.75133205
34.52263655
34.96853817
34.82761911
33.12360857
61.04175696
34.40962964
34.16215191
32.51072499
76.61662526
100.0356144
104.4587922
100.0591172
100.466947
81.28370984
32.17238746
80.50208225
59.80207136
64.10295153
33.25477997
32.31676683
32.37893679
76.54866485
84.6075998
82.71928531
68.97395991
75.30505321
89.56915205
85.23888132
56.34133836
81.00575439
71.40816994
32.34504131
32.14512836
32.69770648
36.72428048
36.76795073
36.84845577
36.7857324
36.85548365
36.89342305
36.88175713
36.96261609
36.95518789
36.98572146
37.04367295
37.01186517
37.05626869
37.07908008
37.03346656
37.08115479
37.0747836
37.03111421
37.06797352
37.0285737
37.00391059
37.01023949
36.94033422
36.94285472
36.91595152
36.83698179
36.88612653
36.81565832
36.76014007
36.84587055
36.62240365
36.712857
36.7473396
36.75145398
36.86776266
36.85358355
36.90695237
37.0212019
36.97109223
37.05594983
37.14440782
37.06099806
37.16663106
37.2087573
37.10203352
37.21412001
37.20656773
37.09756504
37.19495778
37.1305888
37.04543918
37.10194126
36.99640245
36.94731605
36.95756232
36.83878974
36.83002418
36.80084711
36.6919401
36.73744846
36.57738608
36.72673584
36.71265057
36.77877026
36.94205961
36.88002311
36.99782902
37.16583477
37.04785375
37.22036778
37.37007454
37.18551574
37.41188804
37.4995048
37.26060809
37.51264929
37.5080696
37.25758587
37.48713048
37.37217293
37.1765815
37.3265773
37.15679554
37.02466783
37.09397652
36.90888218
36.84918849
36.85083568
36.69353899
36.68524209
36.58525866
36.78456333
36.73646923
36.85597984
37.08738147
36.97180606
37.17130896
37.44323808
37.22088075
37.54002683
37.8434804
37.45467813
37.93471443
38.16000355
37.60907373
38.19178204
38.18064561
37.60958717
38.10699653
37.87418739
37.47410722
37.78438594
37.48221216
37.21908218
37.37852149
37.08134706
36.94145909
36.99059556
36.75160746
36.70241912
36.63145121
36.89759381
36.80789482
36.99410043
37.32378381
37.13802847
37.45171037
37.91467575
37.53894343
38.10468298
38.83643591
38.01176053
39.11714776
40.00858795
38.41160855
40.03731076
39.80786959
38.38396437
39.45242767
38.85643827
38.06632681
38.64456574
38.04852676
37.60045837
37.86741422
37.37693971
37.14349305
37.23483703
36.87262696
36.77522887
36.70998043
37.05517494
36.93343384
37.18458623
37.64683296
37.3990634
37.83774257
38.61275869
38.07195436
38.97971463
41.15042281
39.19920066
40.37105113
40.93792624
39.9076894
41.58235449
41.61569456
40.3877724
41.0213023
40.34638212
39.85864477
40.07821339
38.90221023
38.23752741
38.58665962
37.80398588
37.47237146
37.58818465
37.05788885
36.91366779
36.81674252
37.25008666
37.1044652
37.4149647
38.01782021
37.74246314
38.27398514
39.36224448
38.81009012
39.46486533
40.05483326
39.7605084
42.5934693
43.26554421
42.75749701
45.01691645
43.60455143
42.24832673
41.97332861
39.97443465
39.16334494
39.47958738
38.32181607
37.92487119
38.01719239
37.29224631
37.11374577
36.93880242
37.45165721
37.30062489
37.64691642
38.36284635
38.10669354
38.66806492
39.96118558
39.5270742
40.27830834
41.04081731
40.82978079
44.71152178
45.87848285
45.68019216
49.51650244
46.77233112
45.6159931
43.80381354
41.06504181
40.26907967
40.39496231
38.86336604
38.46408957
38.46856493
37.54411533
37.35585359
37.06379299
37.64381534
37.50062471
37.86343194
38.66479061
38.44197627
39.00478488
40.43315241
40.08767894
40.87600549
41.72349343
41.56953408
45.69044296
47.08240541
47.03113285
52.14969689
49.03122676
48.3131008
45.21134576
41.98770102
41.33871178
41.18682667
39.34030275
38.99920737
38.87167449
37.77937921
37.60551601
37.18729018
37.82226691
37.68824998
38.06157458
38.93251442
38.73326957
39.3016271
40.85026124
40.53874205
41.37133646
42.28749644
42.14269473
45.97862611
46.57433144
46.7416544
53.37598783
50.31280825