/*--------------------------------*- C++ -*----------------------------------*\
| =========                 |                                                 |
| \\      /  F ield         | OpenFOAM: The Open Source CFD Toolbox           |
|  \\    /   O peration     | Version:  v1912                                 |
|   \\  /    A nd           | Website:  www.openfoam.com                      |
|    \\/     M anipulation  |                                                 |
\*---------------------------------------------------------------------------*/
FoamFile
{
    version     2.0;
    format      ascii;
    class       volScalarField;
    location    "0.96";
    object      nut;
}
// * * * * * * * * * * * * * * * * * * * * * * * * * * * * * * * * * * * * * //

dimensions      [0 2 -1 0 0 0 0];


internalField   nonuniform List<scalar> 
12556
(
1.155876264
1.155846008
1.155817689
1.15579887
1.156028409
1.156030757
1.156054582
1.156105693
1.156198967
1.156346902
1.156507385
1.130993503
1.076776345
1.131792328
1.156512878
1.156359762
1.156215845
1.156128772
1.156066299
1.15604515
1.155823305
1.155843353
1.155869617
1.155896546
1.155108056
1.155019779
1.15494038
1.15489298
1.155125373
1.15517631
1.155315703
1.155624912
1.156067142
1.156766257
1.157711526
1.05164388
0.9935159557
1.020748616
1.14428029
1.157037177
1.156293997
1.155783313
1.155383375
1.155227487
1.154967165
1.155013742
1.155089421
1.155168756
1.154302532
1.154157416
1.154039078
1.153992969
1.154258432
1.154414395
1.154751259
1.155389091
1.15646103
1.140757253
0.9336771485
0.8211171416
0.7811864753
0.8100783246
0.9123726685
1.097928053
1.156920496
1.15575679
1.154888087
1.154507896
1.154136527
1.154175996
1.154290784
1.154424371
1.153484279
1.153294067
1.153155006
1.153132315
1.153459841
1.153807881
1.154582593
1.155771176
1.104752478
0.834017096
0.666300459
0.5708104475
0.5349191441
0.5611625093
0.6479990531
0.8055632177
1.053293883
1.156379667
1.15475848
1.153978284
1.153373712
1.153369437
1.153498584
1.153677905
1.152637532
1.15240812
1.152268733
1.152319744
1.152775831
1.153434241
1.154886831
1.157042944
0.8392812066
0.6103322668
0.4584447067
0.3605413582
0.3202569301
0.3441334134
0.427465029
0.56969807
0.7871808191
1.109158161
1.155172988
1.153715354
1.152701335
1.152577658
1.152694595
1.152906271
1.151791092
1.151541495
1.151428116
1.15157522
1.152256196
1.153380796
1.155875789
0.9763347075
0.6696121741
0.466801907
0.3146303598
0.2050394765
0.1603617521
0.1878061406
0.269799385
0.4000230392
0.5967908649
0.8862499045
1.156238747
1.153787761
1.15219959
1.151835871
1.151896553
1.152121022
1.150935011
1.150675013
1.150616929
1.150963233
1.151912742
1.15369715
1.15744004
0.8370494689
0.570252692
0.3815458537
0.2276226714
0.1040754941
0.05866668213
0.09238029745
0.172774905
0.2924565006
0.4700931409
0.723445339
1.113843839
1.154265524
1.15180427
1.151132267
1.151090761
1.151309931
1.150121525
1.14987136
1.149903026
1.150506064
1.151698524
1.154392874
1.063796568
0.7650620447
0.5297809502
0.3565154531
0.2105526744
0.08659603274
0.05251690465
0.1292996016
0.2352178474
0.3957015755
0.6289429533
0.9918529234
1.155110537
1.151590963
1.150516372
1.150314312
1.150504974
1.14937197
1.149141111
1.14929354
1.150198358
1.151751409
1.155431356
1.006499859
0.7334626329
0.5343255897
0.3872696685
0.2724840361
0.1967591847
0.06346428627
0.1255532896
0.217052676
0.3620049083
0.5750933572
0.9133333479
1.15626533
1.151560049
1.149997864
1.14959865
1.149744659
1.148747039
1.148553764
1.148850134
1.150090926
1.152092762
1.156751147
0.9806270994
0.7409204792
0.5642515036
0.4419300439
0.3636534501
0.3683247937
0.08862424916
0.1420670171
0.2254324587
0.3606763524
0.5579307402
0.8709548656
1.15761909
1.15175828
1.149660263
1.149018093
1.149094279
1.148250339
1.14810773
1.148583219
1.150228042
1.152686582
1.158270789
0.9745485647
0.7590993748
0.6023271208
0.4957076887
0.4376315146
0.4954969826
0.12037203
0.1712927953
0.2530980913
0.3827040662
0.5690640105
0.8599483503
1.159102606
1.152153286
1.149501292
1.148617129
1.148622747
1.147939492
1.14785255
1.14849804
1.150529553
1.153476038
1.159941933
0.9815727019
0.7866153458
0.6407536767
0.5363338743
0.4687776036
0.4799316824
0.1567848642
0.2126177
0.2985635406
0.4290862046
0.6056137189
0.8763516826
1.160571805
1.152786402
1.149579994
1.148436949
1.148355135
1.147753092
1.147735373
1.148616409
1.151085107
1.154372182
1.161540931
0.9987912836
0.828759288
0.6839622994
0.5730753668
0.4744974332
0.4174855718
0.06154034248
0.2028366857
0.2744100616
0.3697151309
0.4987543224
0.6721483235
0.9166631874
1.161990771
1.153515084
1.149843678
1.1484739
1.148326396
1.147739991
1.147788872
1.148873156
1.15169385
1.155581433
1.163323931
1.058864968
0.8788939757
0.7455920344
0.6270424759
0.5093370374
0.2914736939
0.1211018146
0.2989673369
0.3829126183
0.4775041765
0.6010824778
0.7586143615
0.9770737827
1.163310922
1.154327459
1.150282837
1.14869966
1.148493648
1.14777824
1.147884135
1.149155625
1.152325944
1.156644588
1.164882815
1.133637059
0.9645254271
0.8363871838
0.7257962755
0.6090654167
0.09623734078
0.1695221125
0.4416349087
0.576476936
0.6393155239
0.7383938288
0.87980589
1.076961684
1.164470029
1.155130519
1.1507933
1.149065475
1.148809434
1.147920051
1.14807796
1.149508254
1.152976064
1.157656878
1.166280046
1.171944089
1.095570379
0.9810169226
0.8943177007
0.8238638169
0.04522894316
0.1990894104
0.4876146414
0.7920899542
0.8654370421
0.9235108009
1.035042592
1.168822937
1.165433305
1.155873259
1.151336996
1.149504649
1.149218299
1.148017643
1.148208509
1.149766805
1.153515845
1.158546757
1.167406501
1.1731818
1.165690796
1.130412834
1.025037883
0.5488291915
0.0283798832
0.2701746185
0.560099949
0.844411366
1.030641918
1.119933476
1.15736846
1.169956629
1.166145233
1.156491008
1.151836787
1.149938895
1.149631543
1.148155986
1.14837145
1.150023637
1.15398228
1.159261316
1.168250107
1.174113058
1.166164681
1.121031924
0.9323909066
0.216250034
0.04835191431
0.3493077392
0.6367038541
0.8861257853
1.041913357
1.12243583
1.158787287
1.170552548
1.166553082
1.156959156
1.152269543
1.150359032
1.150040879
1.148184931
1.148405911
1.15011899
1.154264167
1.159779216
1.168808719
1.17454887
1.166070512
1.115529328
0.8368325852
0.1051242805
0.1058676018
0.4054692806
0.6809758862
0.9010314375
1.044810212
1.12375261
1.159417712
1.170721416
1.166698373
1.15724006
1.152560613
1.150662634
1.150340071
1.148233535
1.148458858
1.150205579
1.154458836
1.16009673
1.169105816
1.174640337
1.165519106
1.108802205
0.7770210887
0.09518725017
0.1283222247
0.4183174731
0.6853326764
0.904588402
1.046423023
1.124241067
1.15946491
1.170549292
1.166618337
1.157411702
1.152795237
1.150921532
1.150593046
1.148144571
1.148364766
1.150123555
1.154467328
1.16023302
1.169178874
1.174465095
1.164604129
1.100514249
0.719620786
0.09131209683
0.1400299207
0.4236047536
0.6863410176
0.9062251231
1.047081624
1.124131897
1.159089298
1.170114313
1.166359231
1.157419431
1.152876299
1.151031372
1.150698478
1.148086035
1.148310591
1.150072958
1.154441701
1.160216889
1.169069695
1.174086037
1.163386346
1.09062116
0.6729318227
0.08964140377
0.1489709229
0.4271512764
0.685945506
0.9059094084
1.046884104
1.12356154
1.158408704
1.16948276
1.165965995
1.157369831
1.152929548
1.151110997
1.150766757
1.147880916
1.148108127
1.149869217
1.154269604
1.160089063
1.1688224
1.173551475
1.161885797
1.078469227
0.63885391
0.08960413648
0.155800184
0.4293216514
0.6846893298
0.9039987472
1.045824681
1.122591068
1.157496446
1.168707991
1.165476092
1.157186393
1.152834119
1.15103666
1.150680354
1.147730661
1.147973743
1.149738894
1.154127403
1.159880989
1.168476362
1.17289144
1.160048726
1.063246791
0.6141799797
0.09082748997
0.1610078854
0.4304078879
0.6828035203
0.9010227146
1.04395276
1.121244761
1.15639177
1.167828917
1.164916804
1.156996037
1.152751791
1.150968254
1.150592419
1.147429904
1.147687738
1.149457986
1.153858855
1.159621361
1.168060413
1.172117433
1.157743329
1.045528533
0.5959238743
0.09307733976
0.1649578114
0.4306447062
0.6804231649
0.8973754475
1.041400263
1.119550241
1.155119976
1.166872833
1.164307643
1.156686111
1.152522595
1.150746045
1.150351055
1.147211248
1.147495544
1.149279757
1.153659855
1.15932104
1.16759266
1.171227533
1.154813589
1.027104824
0.5821334082
0.09617084108
0.1678761907
0.4302604707
0.6776342081
0.8932768331
1.038315567
1.117549027
1.153704329
1.165859512
1.163662083
1.156412919
1.15235044
1.150573792
1.150152861
1.14684076
1.147147846
1.14894454
1.153330292
1.158994224
1.167083534
1.170211425
1.151146685
1.009383611
0.5716113637
0.1000257211
0.1699922577
0.4293399585
0.6744904611
0.8888459233
1.034824938
1.115289457
1.152167973
1.16480393
1.162990285
1.156019378
1.152026724
1.150245817
1.149800975
1.14657478
1.146914348
1.148733225
1.153098494
1.15864073
1.166538927
1.169052781
1.146746787
0.9930925311
0.5637955461
0.1046388604
0.1715334525
0.4279646793
0.6710461143
0.884165224
1.031027489
1.112816909
1.150531518
1.163717174
1.162299561
1.155702607
1.15180136
1.150009605
1.149534262
1.146163152
1.146528679
1.148363238
1.152726359
1.15827162
1.165961582
1.167733568
1.14171972
0.9784641769
0.5582517669
0.1099588871
0.1726265772
0.426218698
0.6673681274
0.8793044679
1.026998594
1.110169275
1.148812135
1.162607551
1.161595418
1.155254884
1.151416825
1.149614767
1.149112995
1.145861063
1.146261556
1.148123387
1.152471685
1.157882574
1.165352698
1.166239458
1.136228524
0.9654079148
0.554365301
0.1158608086
0.1733400005
0.4241997429
0.6635137253
0.8743140998
1.022791789
1.107376247
1.14702341
1.161481129
1.160882592
1.154916973
1.151158514
1.149338269
1.148802979
1.145441094
1.145867279
1.147744877
1.152078651
1.157484525
1.164711453
1.164564257
1.13044511
0.9537873097
0.5517665396
0.1222844142
0.1737669841
0.4219678081
0.6595209775
0.8692301242
1.018448234
1.104462527
1.145176275
1.160342186
1.160163101
1.154442066
1.150747919
1.148915606
1.148353628
1.145095827
1.145557807
1.147465142
1.151794489
1.157070542
1.1640365
1.162711456
1.124523672
0.9434709438
0.5503114022
0.1291890069
0.1739774497
0.4195729462
0.6554317871
0.8640939737
1.014007542
1.10145064
1.143279375
1.15919347
1.159441207
1.154082498
1.150452732
1.148597699
1.148000089
1.144712065
1.145197099
1.147119354
1.151420031
1.156650525
1.163325168
1.160692858
1.118576423
0.9343006621
0.5497996128
0.1365021028
0.1740295854
0.4170957584
0.6513123169
0.8589553222
1.009507297
1.098360402
1.141339512
1.158036863
1.158713869
1.153625776
1.150067831
1.148200799
1.147578652
1.144289401
1.144810988
1.146763043
1.151064358
1.156219121
1.162578915
1.158527825
1.11267271
0.9260798293
0.5499216394
0.1440302254
0.1740105116
0.4146254467
0.6472241375
0.8538568746
1.004978676
1.095209282
1.139363729
1.156876165
1.157990761
1.153195308
1.149692678
1.1478014
1.147141247
1.144006789
1.144547177
1.146513636
1.150792817
1.15578967
1.161807067
1.156257902
1.106855796
0.9186313144
0.5504101451
0.1515977846
0.1739806064
0.4122112241
0.6432074446
0.8488249
1.000445571
1.092012501
1.137357069
1.155726345
1.157271327
1.152865023
1.14942003
1.147517275
1.146836887
1.143438021
1.144022295
1.146024437
1.150292528
1.155397996
1.161052083
1.154007294
1.101177596
0.9118645764
0.55117609
0.1591198994
0.1739530974
0.4098873093
0.6393153952
0.8439031137
0.995941656
1.088787853
1.135322317
1.154653541
1.156625089
1.152268474
1.148904958
1.146974943
1.146248198
0.1747569724
0.05654542831
0.04540955343
0.3515539936
0.08113700254
0.05944452154
0.4833898249
0.1137412268
0.08498404054
0.4870905478
0.1437796294
0.1185433669
0.4265825191
0.04579969632
0.05760092842
0.1786718146
0.1475991702
0.3383351533
0.0907701182
0.0470951495
0.1150906762
0.2419010262
0.181713371
0.08407224516
0.05895395269
0.04691274071
0.087678516
0.02887951607
0.01952276142
0.06099090212
0.1063447274
0.1092266452
0.3410386112
0.3410278338
0.2018842127
0.03273705013
0.04799991374
0.08527665236
0.1216405923
0.1086200342
0.4227282313
0.464117977
0.3574006648
0.4156432266
0.2131714338
0.2422819082
0.05720301654
0.04087202289
0.1163177181
0.1490738046
0.127490376
0.4645667131
0.4903413626
0.4761216965
0.5132665677
0.1356251414
0.1782032449
0.1051856192
0.07771129584
0.470207788
0.4316836867
0.4853934374
0.4655482298
0.07834992604
0.1044985079
0.01951858957
0.1348908812
0.1301153776
0.4974889388
0.3842483371
0.4231732811
0.3912969347
0.0300074426
0.04981704902
0.2880008577
0.1236261648
0.09285910394
0.06886425335
0.1643786675
0.03280642867
0.06244664401
0.04792709905
0.03009615528
0.04863748476
0.03193890325
0.04688483154
0.246297181
0.2754343382
0.2917117238
0.2132464172
0.1962285321
0.1891888866
0.21662253
0.04045870209
0.03257563789
0.0708137901
0.04780531815
0.05433333361
0.04818535654
0.04802565037
0.0693634617
0.1812281291
0.2088893806
0.4326253491
0.161474625
0.1349441346
0.1942447021
0.1636848085
0.0740641569
0.05859607841
0.1014509417
0.07933110345
0.101470284
0.05487470483
0.07646717957
0.09714261655
0.1059892876
0.1338557227
0.512255373
0.1066745455
0.08008136652
0.1334285976
0.1081105816
0.1291544674
0.1094286463
0.05080585693
0.07651491682
0.453427065
0.01387970476
0.05316958355
0.03166675913
0.07897597426
0.05476952399
0.01253110111
0.1411317048
0.1365934373
0.02209957429
0.004700006687
0.02969812166
0.383838241
0.07377548389
0.01859524419
0.01058311959
0.03131608598
0.01892321765
0.07069428752
0.2516190349
0.1821384545
0.1007728739
0.10885787
0.06823126865
0.03859892495
0.01807043255
0.008411211371
0.2687751491
0.2791588329
0.1808803983
0.009193867331
0.1498697112
0.1853625942
0.1572885055
0.0105847212
0.06336109686
0.05501095781
0.08752223853
0.1570655301
0.1448465684
0.1630683659
0.07603934169
0.1220877633
0.04190432957
0.0133403324
0.02306876667
0.02238117402
0.03025625501
0.04712891609
0.05330857694
0.03828020008
0.1327953189
0.1235621929
0.131312537
0.1050320029
0.1223632283
0.1296681303
0.03151316931
0.01198692784
0.05585765099
0.02327252801
0.03975697856
0.03199535051
0.01971517537
0.03053307406
0.02213321114
0.0167886696
0.02305920668
0.02081460754
0.01000705906
0.01672928124
0.02182172422
0.04143944972
0.04209500304
0.04913147807
0.04798386042
0.0193614996
0.01004536056
0.09296783545
0.01630482675
0.02983468849
0.009362021052
0.01381518602
0.08893182674
0.09312942286
0.2679524458
0.2543633621
0.08041676232
0.06773319295
0.01045442988
0.04481932221
0.1950789087
0.1817474696
0.2135112661
0.2004824475
0.04517690848
0.05112392668
0.04226034513
0.1017761139
0.06736225488
0.059564238
0.04023740576
0.06684031722
0.1149089972
0.03988799584
0.02405070692
0.01520298231
0.0540217586
0.0268275883
0.04409788912
0.02567576962
0.06154741958
0.03874971267
0.03810162845
0.2097745263
0.03100706975
0.2090136255
0.23403095
0.03484985692
0.03916899185
0.03143941897
0.03433455318
0.229674409
0.03865595227
0.03834364311
0.05155245214
0.06810490375
0.0636064084
0.07449230443
0.06969990242
0.05187086139
0.05708075679
0.05595848893
0.05088979696
0.06194228677
0.05736139643
0.05603665955
0.148461444
0.1467483603
0.180211659
0.178309976
0.0699099737
0.009191946924
0.0685350158
0.09679938421
0.09489552295
0.1201822439
0.1184695205
0.03182493167
0.04709684068
0.1216019739
0.03563546538
0.02083570197
0.06723838305
0.2317752656
0.2182478616
0.249759958
0.2362530774
0.06858819711
0.02868307415
0.04861770763
0.04759209224
0.07165091881
0.07077281248
0.007003508306
0.03776798609
0.09794459525
0.0848567771
0.1765628166
0.1667982583
0.02377482606
0.01195339201
0.02250256975
0.0149410519
0.02986408882
0.011765665
0.01416726686
0.01204109221
0.02990221535
0.05983636037
0.01225048923
0.01895288078
0.003463065639
0.02031164156
0.01523151436
0.5727136488
0.3923332539
0.3736470189
0.2628241078
0.008374922238
0.005311187155
0.163447001
0.3645724409
0.2716574169
0.005878324067
0.01345568273
0.01076546851
0.1149260938
0.1026255138
0.04063776321
0.1942829236
0.1631783435
0.09098154392
0.009638766315
0.01635261298
0.01306011667
0.008638717253
0.01279541316
0.009019943752
0.03528135423
0.01506245313
0.01412018134
0.04496307429
0.05329732975
0.01573353079
0.02153370412
0.01020519602
0.01027024854
0.04275961546
0.1506664207
0.337380031
0.3244834593
0.3544362285
0.3416629086
0.1541271917
0.2855581164
0.2722423706
0.09447551098
0.03302272025
0.09746759615
0.09202765515
0.01131586089
0.01617440645
0.1006575893
0.04518235821
0.0170770914
0.01517896158
0.03750532606
0.04290128193
0.03868190652
0.04929278299
0.04439658378
0.03890163075
0.03954946873
0.01050322793
0.01025314474
0.03405691249
0.1930339898
0.3711541752
0.3586143947
0.06012209395
0.06213558739
0.1399801732
0.0228512499
0.02497508194
0.06249327561
0.08818572811
0.1015029896
0.09390423495
0.06154437849
0.08198575111
0.07635661873
0.09113699411
0.08420472862
0.06274332878
0.1200518958
0.302969224
0.2898881916
0.3201925046
0.307308241
0.1219521722
0.1025255651
0.03662026544
0.03735637395
0.02112019853
0.02194864038
0.08463888974
0.1279776028
0.05582709818
0.05970680811
0.0376663174
0.03835709464
0.112425523
0.1257757683
0.04958650028
0.06713214733
0.007483558459
0.01942450315
0.05080826977
0.0387121612
0.0757941138
0.02048958749
0.020976065
0.02008212834
0.06423023144
0.01091729771
0.004395114822
0.1271782652
0.1090716231
0.09017122294
0.08577647757
0.02933867127
0.02049820998
0.03328213349
0.08314104271
0.01837027543
0.01142668784
0.02008895944
0.02687642112
0.002852947909
0.03083958793
0.01996017078
0.01211608503
0.006254785098
0.01181698352
0.009260265829
0.009106127885
0.02975981513
0.02279289698
0.006866334068
0.03872978603
0.04046368523
0.01547355471
0.01114543125
0.007251258418
0.01167354831
0.01685992435
0.01075080987
0.01398015615
0.04496338091
0.01011630895
0.00971641962
0.01113382626
0.01301096942
0.03760266211
0.01132381856
0.01118005138
0.0132249474
0.01117179668
0.01176667374
0.01994093882
0.01443474782
0.02892249954
0.02244188046
0.01162430121
0.01658629206
0.02161181776
0.01825166521
0.02933116622
0.0229576692
0.01785551784
0.01603226693
0.01246820217
0.01297666568
0.01014642574
0.037301816
0.04425359671
0.01386015937
0.01308091463
0.01472560182
0.01525734192
0.05196755346
0.009538357216
0.009670434421
0.01235523085
0.009709358053
0.009722043769
0.04399333859
0.009905796753
0.01444002676
0.01333324717
0.01205307124
0.02154427031
0.05593728029
0.05068565966
0.01105139144
0.04145885447
0.03543230012
0.04877346008
0.04362298003
0.01155512328
0.01174784163
0.03905664058
0.03242964972
0.1062113651
0.09940077233
0.0368414245
0.04736812933
0.113726549
0.1080703324
0.04578370987
0.0448567261
0.06972847709
0.08204426472
0.100984138
0.06151129184
0.07683935695
0.07074796239
0.06129391496
0.1452604182
0.1329380929
0.110168062
0.1490672583
0.06120626959
0.03970931967
0.04521696221
0.05632065732
0.03421059319
0.0384003316
0.02385687337
0.02263257906
0.04373754752
0.01629147951
0.01641465081
0.01295152179
0.02374821909
0.02805738381
0.01707245409
0.02396459911
0.03422285004
0.03267929087
0.0250135022
0.02914145742
0.09742307151
0.08493702692
0.1042433514
0.1000404582
0.03029510697
0.07606844794
0.07373421724
0.08138364145
0.07691687487
0.03642989223
0.1220125431
0.1171547182
0.1299441677
0.1237462389
0.03703928816
0.03259679019
0.1097617922
0.1056969677
0.1156069838
0.1111795855
0.03295626142
0.01089884671
0.01060796514
0.03929484489
0.03550790481
0.01058759372
0.01102104499
0.04320630111
0.04241760596
0.04543263247
0.04347737792
0.04097058368
0.03989937224
0.0421569516
0.04124687804
0.07019062075
0.0681366615
0.07300951046
0.07090697052
0.06243616115
0.04821274591
0.0672773859
0.06509614498
0.02586279017
0.02190966529
0.03368668074
0.02803350903
0.007090773387
0.01394377106
0.01304731182
0.02044835808
0.01438734971
0.03564594471
0.03625922809
0.1011096798
0.02106899166
0.02086372168
0.0217202864
0.02125519419
0.02021351172
0.08708065865
0.02257362568
0.03349778165
0.0405405157
0.0538986614
0.1260864955
0.03707743891
0.02384763031
0.03975951217
0.03675178011
0.02249069347
0.02195643405
0.02341186312
0.02271300198
0.1138909858
0.03859241561
0.03949554418
0.006554039788
0.029340953
0.009590144137
0.01001549693
0.009562623541
0.02726770469
0.007781100579
0.0218274095
0.01096897746
0.01119755003
0.05014735372
0.04362955595
0.01988755577
0.02038116382
0.07481839653
0.06647295691
0.01900230356
0.01982328918
0.01050945457
0.0282458511
0.08307786682
0.07442025579
0.01275899153
0.01220642064
0.01758107007
0.0118012538
0.01290146678
0.01798313178
0.03072818593
0.008251352891
0.012887721
0.0115974219
0.01222819052
0.02079774272
0.05396867602
0.1149367543
0.1494830062
0.01017745527
0.01006291521
0.1854706822
0.2377296951
0.1963589921
0.006752411711
0.03958122622
0.01413781605
0.0194589336
0.1355869647
0.1412609479
0.1582410485
0.004836258806
0.007510847078
0.005562281893
0.004863752895
0.005832021813
0.004561401038
0.05770636315
0.03609786307
0.02268306336
0.02574271643
0.02305568687
0.02702721861
0.2259005772
0.4036577273
0.3913988824
0.3866864758
0.3984037846
0.2300205463
0.04784092011
0.04140040194
0.01297859442
0.07134366112
0.0840088463
0.1328528142
0.1212626642
0.1155257234
0.04786171797
0.02849458072
0.03384292235
0.03283253203
0.3874716331
0.3752645282
0.1968413251
0.1556098388
0.06799919789
0.07194475345
0.07513243712
0.08633067752
0.1703460721
0.05860037295
0.1298674543
0.1232583819
0.01085099733
0.01094727212
0.01535303191
0.01969804112
0.01999262105
0.03251532418
0.01154088462
0.01079993315
0.01065582046
0.02915552411
0.05772662911
0.04966927524
0.01854775614
0.03110399097
0.01926628325
0.0194368477
0.01894211173
0.01551206262
0.009431834085
0.01173579911
0.01101024669
0.01053639859
0.02485799366
0.03093138146
0.06296646257
0.04067941164
0.03735221249
0.03413799543
0.02515851465
0.04715532794
0.0161541647
0.02251213891
0.01143264946
0.008132708919
0.008248004384
0.01160351204
0.01157456539
0.02345914004
0.01484266696
0.01011929893
0.01963824217
0.01970479024
0.0180172972
0.01588482106
0.01946994407
0.01770855415
0.01071690149
0.01141456135
0.006576125432
0.00927330243
0.01085463915
0.06320418918
0.05766001118
0.02344258283
0.009171465246
0.01426045795
0.0128994319
0.0108849621
0.0149799334
0.01321710466
0.04892449052
0.03752200336
0.04313371352
0.06823918054
0.09724044578
0.09568980096
0.0418462969
0.06853958083
0.06470815299
0.09457077916
0.09261506597
0.06532519082
0.03412952678
0.04103685505
0.03601771418
0.02759187617
0.02828616894
0.02330374783
0.04786570288
0.0464050663
0.05163867214
0.02334454588
0.03380783749
0.032141374
0.05273842934
0.05234792638
0.03074800238
0.0283984187
0.02797627168
0.03108839732
0.03036594949
0.03540746973
0.05914284585
0.05849338893
0.06298963639
0.06217747463
0.03837773131
0.03178115827
0.05402789894
0.05348643878
0.05782636961
0.05716934936
0.03385723597
0.06528824053
0.06726793452
0.1537757987
0.1415929796
0.0627402094
0.06466044355
0.09353311657
0.09686835464
0.1861888632
0.02634838713
0.02620449878
0.02773224058
0.0275099207
0.02004369545
0.02592856381
0.0258253339
0.1723573709
0.08865674386
0.09228992831
0.009217953539
0.009245525719
0.01246172965
0.01190334899
0.009199803382
0.009145778837
0.007531718221
0.06385030926
0.02599814702
0.03201266994
0.1384306156
0.1320720696
0.06189398168
0.07161771473
0.1460618945
0.1403284624
0.03181333855
0.03187727441
0.04897663369
0.04727030377
0.03141534696
0.03137610727
0.01054533448
0.02251496033
0.03578995938
0.03540055889
0.008378476127
0.01431662847
0.01990640912
0.01298992812
0.01227029271
0.01836410883
0.01860823166
0.03031839319
0.01181077425
0.00858716388
0.01171321202
0.01181370118
0.02833086293
0.01786954145
0.01845591562
0.01434614599
0.03695796514
0.03125120344
0.01033258741
0.01034115383
0.01067180439
0.01107809272
0.01675470227
0.006442947487
0.004186337117
0.007774090575
0.01203325375
0.009944224012
0.01043492176
0.009897803611
0.01010977755
0.01101764815
0.01021590889
0.006773976456
0.005303926858
0.01297759414
0.0133587813
0.0125671183
0.01267090092
0.01462935458
0.02237783121
0.02268123633
0.02195387367
0.02221114447
0.01449755844
0.01010112075
0.01725275123
0.01722434336
0.01783040938
0.01739068619
0.009937316565
0.01621000172
0.02510970111
0.02787991586
0.02297222705
0.02370637386
0.01571841358
0.01047406909
0.01721215186
0.01720156584
0.01717375872
0.01721239058
0.01033981265
0.01212848591
0.01236193442
0.01169496205
0.01229732519
0.03678306603
0.05624367203
0.05576580698
0.02136477604
0.03546646922
0.03521871156
0.03678108916
0.03582367403
0.02157343284
0.01103023725
0.01074368928
0.01084847107
0.01108310082
0.0199630012
0.01977076238
0.02039074253
0.02017478416
0.01555124263
0.03459816572
0.02058655713
0.02151064045
0.02067007907
0.03474244313
0.03452401436
0.0350669093
0.03488733107
0.02079888584
0.02129158858
0.02069640021
0.03115161069
0.02225574981
0.01595614938
0.007288211826
0.01072677411
0.01094675345
0.007233519072
0.04226164511
0.02927076942
0.003010314067
0.02934288342
0.04506874745
0.04471404906
0.01833062896
0.01135839767
0.00832129753
0.003643795535
0.01258551994
0.0127090696
0.0190355311
0.01919790506
0.03103274559
0.01936831161
0.01043292593
0.0102754562
0.01507034934
0.004189513638
0.009087791965
0.007077770927
0.005801524775
0.006959801619
0.009265283265
0.006760790545
0.01036453681
0.01069361107
0.01036102133
0.04042562685
0.0310523763
0.008374600085
0.01045169519
0.01166524316
0.01869537008
0.02102632601
0.0123677285
0.01521113456
0.01488580077
0.009945016128
0.006610935921
0.00994468735
0.01111688121
0.007719006707
0.01112878466
0.01138910403
0.01213124988
0.01153848452
0.01128394872
0.01154929597
0.01143085748
0.0116199751
0.01166168904
0.01156649097
0.01157083344
0.01179017824
0.01260312685
0.01211360673
0.02056445233
0.02095408723
0.02056945411
0.02681340564
0.02549427284
0.01991379511
0.01859773953
0.01989632755
0.0123935562
0.01983163581
0.02103163112
0.01434124214
0.01986889443
0.01325388181
0.01359598378
0.02153338701
0.02177453498
0.02106057902
0.02140388863
0.01340498208
0.01489776861
0.02583633323
0.02537646207
0.009613193284
0.009633706733
0.0108266208
0.008680615091
0.009297990828
0.00945706664
0.009628498819
0.009305700472
0.01173953626
0.0213432643
0.01909561607
0.02466517043
0.02339254266
0.01356137307
0.009290424483
0.01007490198
0.01553648347
0.00650832669
0.009429403262
0.009401430646
0.01162605348
0.009296789982
0.00950353448
0.0187309402
0.01665663293
0.009971814455
0.04707419128
0.04376234873
0.08494578638
0.07582977598
0.04387129609
0.06504051832
0.09166263944
0.08789087738
0.03549486373
0.03250510236
0.03104821087
0.02312112854
0.02964492861
0.04438323802
0.04431164953
0.03879894728
0.02378657492
0.03403038805
0.03452592954
0.03097126315
0.03201379134
0.02242720579
0.01548395724
0.01661970335
0.02531107266
0.01803087934
0.01714910782
0.01919575387
0.01822590283
0.02568356954
0.01753016363
0.01820430978
0.01445190772
0.01876440533
0.0481246331
0.0483270248
0.03062197181
0.03026536485
0.05131640036
0.0513094087
0.02910766119
0.02870367415
0.02990075931
0.02946662689
0.06033685385
0.05971368261
0.03582637946
0.03769262745
0.06155429333
0.06095018486
0.05529292928
0.054713916
0.03223707407
0.03336119539
0.05650112923
0.05589239556
0.0107986564
0.01723110884
0.01724558869
0.01723217675
0.01725129061
0.01075402486
0.01104091059
0.01597681835
0.01387954701
0.01714776982
0.01684322062
0.01104259939
0.04293068822
0.02505126127
0.02532196192
0.02462963799
0.02483482216
0.04268015573
0.04429202928
0.02626301631
0.0267446061
0.0255869529
0.02589818392
0.04380357815
0.04058113653
0.02341152876
0.02365265514
0.02304520501
0.02327690641
0.04034585996
0.04187153775
0.024237297
0.02442738675
0.02381523548
0.02405052642
0.04159380468
0.02679266062
0.02660823228
0.06951492372
0.04618993628
0.04652023922
0.04546920237
0.04575649973
0.06876330452
0.02724527626
0.02703794977
0.02468644105
0.02595553194
0.06029229054
0.04164024525
0.04132727116
0.02764198159
0.02905167754
0.05367548301
0.06678082662
0.04474776024
0.04495101062
0.04400937521
0.04395539331
0.06549136882
0.02549181362
0.02554106123
0.009171348268
0.009390468918
0.009054262788
0.01135234055
0.01012483655
0.01359376104
0.009363443271
0.009312686225
0.009339649451
0.009348927831
0.01343572915
0.01830160264
0.01034978436
0.01176446084
0.009476721331
0.009260035478
0.01582677351
0.03556813091
0.05362996702
0.05332168583
0.05505885367
0.05469472484
0.036160779
0.02102711878
0.02078851306
0.02159951487
0.02132646285
0.02134614968
0.01676925662
0.02370831746
0.04381112672
0.03910969478
0.05110760821
0.04929771858
0.03365780073
0.0259115791
0.01797536874
0.02315612146
0.02461492506
0.03907095313
0.02269474333
0.02298342309
0.02202433798
0.0227519204
0.03914195206
0.02232745382
0.02210148026
0.02314813439
0.02290374981
0.009795438863
0.01173601608
0.01128080629
0.01488881359
0.01278015068
0.009772041647
0.009441171148
0.009633511559
0.01070463018
0.01012366162
0.006495172843
0.0112369594
0.01101366145
0.01105148819
0.01234850913
0.01154616733
0.0111328209
0.01932224811
0.01927754191
0.0195692378
0.01950652816
0.02975156921
0.02972440854
0.04524841586
0.0185154026
0.01955127084
0.01904818359
0.01911468118
0.02010448341
0.03395180794
0.03359541733
0.03437036397
0.0340931741
0.02018440864
0.01955133452
0.0329105726
0.03107184276
0.03347346268
0.0328943732
0.01953755455
0.01071544111
0.04307927506
0.04251475795
0.02804429941
0.0128561156
0.01058521027
0.01047947033
0.007914487238
0.01091406471
0.01233639166
0.0181639849
0.0123036572
0.01274030918
0.01261186096
0.03043724833
0.01871618475
0.01891999975
0.01151054589
0.01180077479
0.01172346186
0.01220632057
0.01222796656
0.008499731249
0.008572382893
0.01216823465
0.01185740706
0.01213318704
0.01517251571
0.01873197507
0.02838498278
1.155399282
1.156019983
1.155938242
1.156279243
1.157258906
1.15657437
1.157656132
1.043043938
1.157441376
1.006106421
0.9028050491
1.065436697
0.8849947658
0.8444162592
0.9954413873
0.8435076758
0.8576671927
1.012442283
0.8701604989
0.9483452448
1.126266567
0.976597148
1.1199969
1.157250711
1.158105878
1.156988129
1.156450759
1.156678943
1.155897753
1.155888676
1.155600327
1.156900804
1.156139725
1.157475565
0.9634803317
1.157664943
0.9039359074
0.763262125
0.9724176091
0.7282624898
0.6491509213
0.8401854495