/*--------------------------------*- C++ -*----------------------------------*\
| =========                 |                                                 |
| \\      /  F ield         | OpenFOAM: The Open Source CFD Toolbox           |
|  \\    /   O peration     | Version:  v1912                                 |
|   \\  /    A nd           | Website:  www.openfoam.com                      |
|    \\/     M anipulation  |                                                 |
\*---------------------------------------------------------------------------*/
FoamFile
{
    version     2.0;
    format      ascii;
    class       volScalarField;
    location    "0.96";
    object      omega;
}
// * * * * * * * * * * * * * * * * * * * * * * * * * * * * * * * * * * * * * //

dimensions      [0 0 -1 0 0 0 0];


internalField   nonuniform List<scalar> 
12556
(
31.93136059
31.93225507
31.93316253
31.93392044
31.96680184
31.9676148
31.96850088
31.97026552
31.9735953
31.97875666
31.98529286
31.99120971
31.99368742
31.99112176
31.98542423
31.97918745
31.97416404
31.97039002
31.96882159
31.96751697
31.93368501
31.93254566
31.93151612
31.93055734
31.79573259
31.7983841
31.80092328
31.8030734
31.83664877
31.83965223
31.84455192
31.86747544
31.88256972
31.9064744
31.93724414
31.96565108
31.97864225
31.96903839
31.94433486
31.91474475
31.88977443
31.87278352
31.8466611
31.84004635
31.8031769
31.79968803
31.79656008
31.7938034
31.66205715
31.66661147
31.67091262
31.67433494
31.70876225
31.71530973
31.72671137
31.75934672
31.7947264
31.84871398
31.9152276
31.97421276
32.00526005
31.98664217
31.93378979
31.86782959
31.81205466
31.77249705
31.73127873
31.71680186
31.67560555
31.66965252
31.66415926
31.65952592
31.5297571
31.53573087
31.54144867
31.54665742
31.58336272
31.59592565
31.61970512
31.67146144
31.74229792
31.84632265
31.97525859
32.10247684
32.17552262
32.13284277
32.01816276
31.88431519
31.7704065
31.6940811
31.62827904
31.60094845
31.55184871
31.54226907
31.53411562
31.52740569
31.39963536
31.40723401
31.4147092
31.4225495
31.46227578
31.48393892
31.52850373
31.61116048
31.74218409
31.94494626
32.22678003
32.57649501
32.80272305
32.69704411
32.37121419
32.04979678
31.79751962
31.65093494
31.54428913
31.49452298
31.43239686
31.41786951
31.40643202
31.3974451
31.27040766
31.27932478
31.28860377
31.30004288
31.34632667
31.38230808
31.45922854
31.5848098
31.8134074
32.20923433
32.91478671
34.21605912
35.3411625
34.77709349
33.45539475
32.54100686
31.95365995
31.65471413
31.48234054
31.39986634
31.31785512
31.29559698
31.28010955
31.26859145
31.14341048
31.15410169
31.16620631
31.18266987
31.236309
31.29151959
31.40901486
31.60125028
31.98322182
32.7240415
34.53990066
40.82153939
47.49017115
44.32348188
36.50962681
33.64554171
32.31123031
31.72894166
31.44429303
31.31880724
31.20890576
31.17625723
31.15544944
31.14099066
31.01820644
31.03046852
31.04552964
31.06839451
31.1334604
31.21197422
31.37803358
31.65782419
32.23888597
33.48184316
37.26665246
57.38746546
74.78734009
43.56171954
35.66184621
32.91677145
31.88481208
31.43210189
31.25007187
31.10588279
31.05976031
31.03236957
31.01462331
30.89701948
30.91167451
30.93121293
30.96299752
31.03744039
31.1433536
31.36404404
31.74247377
32.53015882
34.23991372
39.55723568
69.32847921
142.5287493
53.80030025
38.4299339
33.73794604
32.1080772
31.44058583
31.19218057
31.0093681
30.9475808
30.91226897
30.89075277
30.77989073
30.79661198
30.82041537
30.86140945
30.94882315
31.08404569
31.362
31.83913501
32.80558507
34.83520802
40.83860709
75.08455717
177.6910104
62.6037414
41.17882582
34.58587932
32.35714597
31.46709045
31.14314817
30.91964044
30.84039456
30.79632085
30.77079884
30.66954882
30.68919362
30.71861804
30.77087889
30.86784917
31.03215062
31.36639658
31.93321626
33.03786439
35.27998029
41.75863811
84.38549173
177.0383649
67.47127893
43.09597124
35.27451275
32.58822684
31.49893173
31.10091341
30.83682904
30.73999584
30.68639195
30.65622753
30.56426688
30.58618203
30.62028382
30.68293367
30.79314726
30.98548213
31.37446604
32.01681256
33.23470632
35.64589542
42.68498289
95.1942212
163.1974169
68.77273853
44.01732934
35.71269111
32.76837854
31.52497577
31.06197799
30.76048088
30.64568324
30.58288553
30.54825557
30.46650844
30.49140599
30.53192961
30.60578571
30.72287977
30.9406061
31.37329319
32.08915544
33.392182
35.96782222
43.8583819
104.6201943
737.9396232
139.8646612
67.69066654
44.13477353
35.86611845
32.87606886
31.53651001
31.02245449
30.68823322
30.55795647
30.4856025
30.44624379
30.37225109
30.39967373
30.44573715
30.52844743
30.66213145
30.91316098
31.4005818
32.17706093
33.57362289
36.36777055
45.66802369
149.9244314
459.8915552
130.1562856
65.72967204
43.56734731
35.81558492
32.92475205
31.53076265
30.97911208
30.61655587
30.47375607
30.39300451
30.34932001
30.28310859
30.31301922
30.36386622
30.45384734
30.59681407
30.87004983
31.3998457
32.2693562
33.83426771
36.90675452
47.42406021
416.8383409
329.6572955
119.7579924
62.19649261
42.65164831
35.62463086
32.92219088
31.50179834
30.92924905
30.54535176
30.39215736
30.30319817
30.25585955
30.19379765
30.22595552
30.28093434
30.37789169
30.53027616
30.82093732
31.38608788
32.38129159
34.26564441
38.05210957
52.81686609
762.4225602
271.7843212
105.2958253
57.67134556
41.42892214
35.37182123
32.86417202
31.45194864
30.87033287
30.46984007
30.30867595
30.2137572
30.16313337
30.1067454
30.14114808
30.19934274
30.30107975
30.46031643
30.76403138
31.35551749
32.45566981
34.84213069
40.45217489
78.51101805
965.1169472
195.3500592
88.08700263
52.8633396
40.20866653
35.15704399
32.77540513
31.38325167
30.80210389
30.39102172
30.22428794
30.12382505
30.07039771
30.0158099
30.05217071
30.11309847
30.21942311
30.38556958
30.69835476
31.30941591
32.44780908
35.31679463
44.88426187
184.2335506
690.8948134
146.619855
74.54380387
49.31686707
39.44925662
34.97259276
32.66437922
31.29823233
30.72170988
30.30423789
30.13349645
30.02996734
29.97435501
29.92554782
29.96382482
30.02687102
30.13559029
30.30533789
30.62395548
31.2490086
32.41482394
35.44952933
49.65410205
323.3700792
402.4503354
122.5511029
67.86060502
47.87505932
39.08598016
34.7770375
32.53760193
31.20134178
30.63183138
30.21219297
30.03941515
29.93371688
29.87688507
29.82902663
29.86877836
29.93377104
30.04542084
30.21966387
30.54153822
31.17622611
32.363884
35.56170352
52.79458097
332.5390212
329.8284939
115.8799702
66.45147225
47.22482188
38.7543981
34.58116228
32.40191482
31.09559126
30.53368052
30.11258101
29.93831194
29.83131595
29.77383511
29.73356373
29.77457967
29.84102047
29.95355956
30.12874752
30.45218606
31.09331031
32.29944461
35.68187628
56.20799823
326.8423976
293.9862817
111.9037178
65.46354863
46.69916965
38.4556058
34.39080402
32.26201382
30.98331943
30.42858686
30.00895901
29.83480146
29.72732036
29.66959504
29.63054634
29.67225406
29.74002816
29.85467296
30.03314235
30.35705263
31.0024178
32.2252752
35.82194611
59.21453002
315.9904668
268.4058899
108.6602938
64.66648654
46.29843179
38.19298367
34.2093914
32.121191
30.86638741
30.31795107
29.89855459
29.7241597
29.61656914
29.55904737
29.5306517
29.57279197
29.64127917
29.75568097
29.93320809
30.25714738
30.90540321
32.14496104
36.01294715
61.42552039
302.2396572
249.1264218
105.9627238
63.99556977
45.99970469
37.96985642
34.03963155
31.98194711
30.74648225
30.20310657
29.78670922
29.61354465
29.50636146
29.44926192
29.4220534
29.46412887
29.53329619
29.64926413
29.82973066
30.15337055
30.80400792
32.0630906
36.29126007
62.92600945
287.1730962
233.9769828
103.6790448
63.42021732
45.77180631
37.78512076
33.8834708
31.84618906
30.6251277
30.08533394
29.66893606
29.49576555
29.38896564
29.33252517
29.31986136
29.36171786
29.43090938
29.54556708
29.72321282
30.04665304
30.70001157
31.98549819
36.64695257
63.88834565
271.774016
221.6565825
101.7112084
62.92105637
45.59194241
37.6335329
33.74151372
31.71518748
30.50354865
29.96568645
29.55281224
29.38136477
29.2753398
29.21960897
29.20692857
29.24822723
29.31761943
29.43366501
29.61469026
29.93790086
30.59503845
31.91788225
37.02706406
64.45259835
256.6720232
211.4251425
99.98850466
62.48460739
45.4469928
37.50890221
33.61310897
31.58952726
30.38261591
29.84511063
29.4305532
29.25866085
29.15309104
29.09815761
29.10488613
29.14560378
29.21456628
29.32843354
29.50451743
29.82792122
30.49046369
31.86428465
37.38591253
64.71509074
242.0711664
202.6696415
98.46175314
62.10146529
45.32938657
37.4058806
33.49696148
31.46931999
30.26293567
29.72424946
29.31359492
29.14366814
29.0389377
28.98475799
28.9883068
29.02822313
29.09711127
29.21258058
29.39372958
29.71735975
30.38741357
31.8254008
37.6978442
64.71958881
228.0006881
194.9848443
97.09129024
61.76296899
45.2335731
37.32015471
33.39160903
31.35440507
30.14488956
29.60373405
29.18844294
29.01722343
28.91280286
28.85939081
28.88881607
28.92801597
28.99624925
29.10885109
29.28222862
29.60674193
30.28682348
31.79925017
37.9541908
64.50528196
214.6230966
188.1460321
95.84241414
61.46004
45.15483684
37.24836433
33.29572011
31.2445312
30.02873103
29.48383153
29.07364384
28.90461657
28.80093461
28.74819524
28.76833925
28.80665
28.8746425
28.98925972
29.17112787
29.49649967
30.18938789
31.78233193
38.1574004
64.13783772
202.1494008
182.0141767
94.68810392
61.18496905
45.08953355
37.18797345
33.20814006
31.13940597
29.91461852
29.36502389
28.94565802
28.77428509
28.67070167
28.61862534
28.67394963
28.71154933
28.7788498
28.8901536
29.05979863
29.38700152
30.095519
31.7708417
38.31189199
63.65786295
190.5918684
176.4445389
93.60833321
60.93229377
45.03488247
37.13694832
33.12784446
31.03873254
29.80266583
29.24729769
28.83623146
28.6672688
28.56421595
28.51266898
28.54824737
28.58494416
28.65185137
28.76541022
28.94972758
29.27859878
30.00538943
31.76134662
38.42112067
63.08193307
179.8751519
171.3300367
92.58870961
60.69662977
44.98799321
37.09338757
33.05388316
30.94221346
29.69296475
29.13119007
28.70358409
28.53133091
28.4282057
28.37719291
28.46207211
28.49814333
28.56448119
28.67493292
28.83963706
29.17164199
29.91904039
31.75141651
38.4902619
62.43331244
169.9872306
166.5899511
91.61164537
60.47097273
44.9456481
37.05550024
32.98538264
30.84955304
29.58564657
29.0164639
28.60408515
28.4340333
28.33113477
28.28048109
28.32849148
28.36366329
28.42942643
28.54135847
28.73198538
29.06663069
29.83647871
31.73973893
38.52651512
61.74663154
161.0146944
162.1466049
90.65879419
60.24880937
44.90513639
37.02180926
32.92159342
30.76051162
29.48101646
28.9041436
28.4620007
28.28872393
28.18567026
28.13542895
28.25459682
28.28929144
28.35469609
28.46557198
28.62497681
28.96437928
29.75799433
31.72560652
38.53666433
61.05136603
152.9678976
157.9537078
89.72220543
60.02671113
44.86469302
36.99113467
32.86183873
30.67480918
29.37986489
28.79429576
28.38014138
28.20696352
28.10377186
28.05370133
28.08418573
28.11784275
28.18253193
28.2943016
28.52380357
28.86663132
29.68494101
31.70852132
38.52583543
60.36210773
145.7506329
154.0135074
88.80871833
59.80492643
44.82321927
36.96250884
32.80565617
30.59235769
29.28428213
28.69036643
28.19807399
28.02126017
27.91753928
27.86776344
68.70106
168.0473508
84.48710446
74.23081355
213.760033
174.4332959
83.12998065
209.9095309
215.3131651
93.91793925
188.8815684
207.2979466
103.5782564
900.9139132
771.0566297
169.4756201
185.9109937
130.6412681
566.1226811
883.1126436
479.896487
164.6771563
167.5934661
54.71668487
47.17335076
76.9679482
44.02794986
509.5947733
175.8605044
134.8670614
58.97531567
47.7673599
40.58496406
63.72852488
60.28678841
1721.392754
1223.65622
175.6736567
72.16422922
62.72521655
41.56791593
69.25558494
64.26859997
78.09969696
225.060166
202.2050298
960.2589825
1331.160774
178.3293866
79.27486811
74.5679684
42.51023426
77.28285237
70.16002064
88.19324839
325.7252756
259.5395167
537.7000328
715.4317615
43.63265735
87.41471428
78.26163895
97.07312658
501.2954957
399.711025
2048.402236
347.3065153
405.2438961
45.41002208
107.5961889
88.94241035
112.7492648
1097.525891
720.7320447
148.1970273
432.8709587
557.6998604
169.0091717
198.5493021
105.6620278
163.2038756
1190.746969
537.428412
131.8493364
431.8289711
832.4521247
199.4174649
180.9319195
71.77847301
237.149321
250.7148233
204.434714
234.1635338
1347.20519
1722.506466
196.7703409
1198.993573
1034.565678
860.8425799
1196.044448
194.2088244
256.3098699
228.8446712
79.28399192
293.712278
337.2200074
252.8152607
290.474406
748.2534506
939.0219526
214.7990033
715.311208
561.8297669
1023.283537
741.5029321
215.8601427
395.3933284
329.0717637
89.50012086
403.5257972
505.0128178
340.0867212
399.5025264
417.4411281
517.804011
709.8505889
510.9414677
97.39419012
3005.054227
697.0763061
1063.235397
510.2049967
680.7251925
3433.923606
318.1311282
341.3485329
1799.507206
8593.923766
1106.985931
114.0849154
648.3044232
1729.174226
7672.887095
1072.132139
1700.180709
665.9529968
39.11153673
59.69801616
50.94017902
64.12773199
133.9472869
91.94331958
3070.401654
533.4580386
71.32725177
178.7862126
157.6763273
5619.646343
165.3958197
81.14196939
80.19401613
5748.918141
769.0540014
855.1267378
584.9638741
281.2537918
306.9977934
154.8923009
137.276978
65.60619517
1369.33961
239.1066875
560.5361595
147.2018995
382.4974649
121.6991664
873.5230057
1115.000695
196.6797897
428.4745139
363.7708739
543.0944872
440.52668
199.6659858
1251.809404
4415.727875
779.7871661
75.17236151
61.68568886
96.6211554
153.4057243
73.35070755
78.32583765
4230.790721
357.9808837
3001.262601
397.6876872
2201.506993
322.6056079
1402.81116
1384.831314
1110.951772
1136.826292
2125.021187
4747.123415
604.4233636
2557.824357
1399.994275
5323.388892
3041.647333
630.4177096
436.3112824
167.8156371
175.3566918
646.1126299
733.3044378
5145.960638
778.8353376
219.0344069
232.335069
203.1366418
214.0380479
775.7046391
1216.176336
1370.204003
181.6361209
865.6400467
698.1780854
1328.635747
866.8036178
185.2629444
134.8558466
407.7353773
194.7002506
615.9938151
438.2649989
144.3123937
588.3868223
884.2887246
836.2704393
792.1420452
238.0015632
1471.371862
238.448906
218.7553897
1414.427418
1349.369519
1464.643927
1422.167142
222.5227751
1433.913801
1449.296088
1101.720256
375.6345996
366.6412693
377.0304429
377.0443151
1093.252728
1017.866427
334.9482042
307.2699258
361.9882768
343.0573647
1036.506553
313.5641258
316.3783665
268.7397974
271.053228
795.4625201
5510.185725
810.3233521
434.0395033
440.8662485
369.0047491
373.0853601
1322.568828
969.6327692
468.242237
1181.309529
1967.706815
564.083426
189.6484999
199.4240839
178.090039
186.6271744
555.2726823
1374.187243
743.4625686
756.347036
547.8503779
552.5622318
5971.364666
1055.592557
553.8436196
620.0617202
238.0661206
249.141025
1362.680275
2760.545482
1637.596505
2688.645697
1109.077617
6580.012843
2960.99585
5631.181803
1105.150538
742.9976686
4019.339581
2086.678717
3792.119123
1974.807037
2691.569869
47.00839973
112.6871426
110.2605425
164.2462613
4230.939875
7917.190369
344.8958985
150.5332629
161.1916406
1167.185218
3099.40086
4339.967481
485.0941521
532.9179502
991.8574555
257.8197008
272.9512758
569.4073321
152.0165258
109.7916398
219.6023863
421.7904803
136.3984305
161.5341289
1621.037035
4020.896127
4184.409454
1305.84378
1026.286372
2842.186067
2081.282244
4792.355436
4711.474674
1268.907782
299.3291266
138.0805402
142.735673
132.3785685
136.6030021
293.5878293
159.0475876
165.5926179
431.6240265
1011.506815
401.0610021
420.0344215
6508.715848
3341.402981
518.5540634
1033.770016
3646.794329
4015.118733
577.7287923
247.4120243
207.7543283
296.0093703
260.8677775
604.5708964
1387.066104
4746.606382
4802.260479
1635.832791
243.7800522
127.1900643
131.0510699
692.3105193
678.5554865
327.9629184
1967.482041
1806.724198
883.7704473
644.8749478
336.2952227
349.6666196
912.1591525
369.0029216
375.7663708
354.3677377
365.5153062
894.9128128
358.0888976
151.2825791
157.041501
144.3565396
149.4706623
353.6877014
415.6400601
1007.28358
997.0581921
1602.776327
1555.042609
483.8059279
351.2134403
730.0178163
694.6246831
992.6431743
985.3390859
388.0131091
453.2843971
934.2545131
756.5842739
6067.781887
2056.262339
720.80603
896.9232107
525.8005091
1636.823038
1610.37495
1644.415224
596.3659669
5008.022284
8753.964407
315.9133681
360.6248387
427.1127993
444.179557
1115.32144
1897.71923
1153.898038
600.6131125
1746.838512
8243.66187
1728.721529
1537.335411
16009.64003
1082.890929
1618.115963
1872.158531
2287.059318
1689.005908
5575.267839
5647.967859
1341.05081
1754.885885
5963.953906
1424.244594
1360.258798
372.4450771
1400.010651
564.6444672
1391.879709
406.0981677
4290.807844
2974.093599
985.3036471
5028.097403
5859.731309
4643.988414
3298.860262
1057.617752
4795.858606
5917.32634
3258.131799
4560.594879
6277.111938
2008.620122
2899.509138
1371.507951
1776.446217
5641.290853
4299.725209
1240.371841
759.8769256
2019.18817
1366.058281
684.0294292
430.6769395
1244.770745
4355.862853
5499.607325
1541.992088
1324.811149
4231.492166
4365.48287
3121.789011
2948.830908
1051.32449
5092.307833
4998.799448
3677.483879
4950.191794
4958.347337
1234.495851
4860.037812
3211.613897
3157.315991
3553.503557
1917.02398
905.0920037
978.0967868
4040.992112
1142.425038
1293.236481
1007.943982
1098.267935
3777.131089
3746.205773
1043.793581
1234.000022
373.827323
394.5612593
919.4900509
747.6399373
353.8697057
368.66017
1323.834429
1336.975725
853.6632041
310.1784738
331.3953058
284.5433204
303.9601688
846.0331621
916.7458106
374.7038063
408.1320824
339.1996221
365.1677368
923.19756
552.0069634
259.6587695
278.8405829
799.6120466
832.3618235
2609.176868
2718.375074
979.8179465
3887.285263
3925.447707
4957.579082
2676.998886
2238.478368
3795.697989
2644.536493
665.8985538
1875.150787
2493.150278
1513.192671
513.3613525
577.5231745
488.4591498
502.5276298
1476.736752
627.4509974
638.4418672
598.6473653
623.4618133
1392.08454
437.684094
450.7531577
416.4453014
433.0866905
1382.902588
1446.77157
471.6885821
483.8017211
455.0199683
467.5583203
1443.239891
4661.252497
4711.414928
1399.549121
1569.370502
4950.387758
4644.928069
950.6704515
955.9784498
924.163106
948.9794463
969.3189858
982.5064362
957.9414019
966.5497029
655.8699075
666.6723552
641.8947604
652.1958639
708.1029771
880.7917275
671.8936893
685.0215136
1691.406015
1980.994132
1347.448604
1573.414689
5744.67021
3139.355538
3442.651989
2117.846102
3021.059488
1021.415929
1013.408477
420.0230739
1630.882766
1636.076081
1597.133984
1620.999072
1682.299731
472.7381472
1518.371614
1075.719077
954.3992262
750.9946273
355.3307062
1032.346842
1498.41991
983.3590853
1042.379537
1560.245616
1584.824128
1518.596037
1549.937832
384.2802015
983.0884005
972.9586536
5936.071767
1404.207984
5811.799824
4996.053778
5789.728958
1504.908652
6263.042361
1818.375004
6005.12486
5193.755652
727.7669984
810.7185306
1671.549654
1642.228027
530.6901697
580.1549636
1737.811781
1674.407803
5899.920511
1156.6577
456.2564903
499.8227991
6121.576416
6941.964621
1821.957141
7530.124864
5442.718376
2170.127054
1084.612783
6545.030794
3796.457358
7301.093996
4241.880029
1559.265408
68.95159446
44.51973455
37.682174
5883.15757
5858.810567
153.6864209
79.95145413
81.07163157
6129.954212
1012.832956
2961.382356
2055.553841
354.4170278
295.4184673
178.6653962
354.8984235
245.0980266
563.3402816
2030.407715
347.6232734
383.3542799
56.82912098
67.29380914
133.7656963
445.0865485
881.68805
1301.227362
214.4698075
117.8403803
121.2897
113.1444891
116.6835226
211.2537239
895.0201775
996.2203837
3245.701225
722.303074
634.935996
378.4153201
336.1107851
349.4559285
742.4283716
1414.409781
1804.225367
626.8530173
122.4036242
125.9616549
240.0459184
302.381902
644.0498747
618.1791739
596.3717228
530.8508236
281.2099453
630.3869597
317.9512913
331.7005429
4649.825694
4352.263621
2663.474505
1654.334738
1632.200282
1040.406093
3936.40363
5869.419296
5258.485702
1354.74296
790.4764688
872.8723299
1732.185578
1077.41066
1688.373486
1675.182966
1699.974252
3289.818801
5442.280028
3711.988331
4138.531589
5681.297835
1615.904769
1300.384168
779.6837366
1390.406947
193.7526938
153.1425586
274.3907911
952.1115544
2536.260599
1788.274465
6061.197461
6392.690985
6526.19828
5412.978696
6227.716938
101.8588823
130.4664577
333.6561638
3439.514699
2255.345542
1740.849334
4449.458533
3469.270653
2333.959012
4219.531033
3851.30959
5956.980896
5648.978321
4129.984622
821.0267445
884.2762428
1762.067802
5480.080974
2972.598404
3311.662606
4473.141854
2736.034459
3170.824001
1263.936878
1670.305602
1359.346816
860.7628995
590.8105462
598.6867407
1292.805588
806.1984165
847.3101672
603.7521561
613.8434004
879.4381894
230.5049732
254.0149873
525.3476052
663.6318327
1182.106343
862.3247395
1337.173154
1387.310595
889.4375953
1811.131025
1322.180748
1373.094021
923.5670165
925.4956364
1475.310719
1473.086541
1485.884984
1404.220584
1425.024521
1405.325974
882.5066752
886.0583938
864.1247625
869.3064252
1362.4058
1459.11518
913.9308162
917.4515978
889.9338419
893.9005153
1429.431613
659.4932075
648.2331519
305.2008573
325.125083
674.7822915
663.128263
500.7698855
489.1416302
261.7112113
1520.290002
1522.482312
1490.753103
1495.284954
1871.66005
1529.5721
1530.53791
278.5497188
519.7688486
505.4758029
5427.269513
5368.294442
3469.634652
3675.934618
5472.141462
5413.509151
5618.258298
866.1560593
1740.919402
1453.812302
301.9530678
313.6299962
602.4916784
537.6439204
289.2842107
298.6739041
1068.694401
1068.628662
740.2700117
758.8137453
1076.430153
1080.732002
5915.376475
1440.16617
941.6781692
928.9274852
12525.2475
2261.45181
1975.869418
4889.893667
4044.716034
1755.959354
1734.83915
1094.690787
6342.56333
6925.671633
6615.754288
5186.149653
1162.949303
1800.775884
1745.291075
2994.344622
1083.5637
1270.895359
5776.901269
5682.997109
4442.913546
4119.933995
2421.271123
1415.721422
1926.589584
1553.750174
3573.988005
5814.74668
4965.834751
5879.741361
5626.349999
4049.453911
219.7422776
315.4150297
1068.798784
4180.330335
4092.822516
4264.173777
4254.128465
4109.858109
2656.394254
2636.081972
2674.09672
2658.934254
4109.591378
4826.682052
2743.341812
2765.650262
2629.71967
2708.044392
4906.861173
3806.432298
2416.009137
2177.448524
2618.204493
2549.637349
3900.801731
4722.754463
2820.878959
2842.441519
2790.331764
2802.880121
4767.344673
4359.048102
4285.571139
4454.217918
4249.285492
1005.500895
701.1270782
704.6943365
1588.589918
1013.815528
1017.689627
987.3463618
1007.527939
1577.230953
5774.742349
5996.112835
5261.318813
5848.055217
1653.29902
1666.718879
1625.086661
1639.660494
2097.368236
986.9375042
1587.920531
1526.260538
1626.781374
1023.435972
1026.924916
1019.373525
1021.833516
1620.115252
1562.814497
1603.904176
1099.417469
1502.399987
2071.194619
6223.062842
5816.066504
4450.7315
6043.352845
833.078698
1167.737012
13042.78105
1117.29524
769.0763125
772.1701781
1750.932461
7877.204172
8145.203583
9479.596184
6106.431397
5735.457844
1703.929263
1692.364653
1078.217728
1664.834386
2806.277787
3991.796725
2804.324277
3736.891057
2791.350422
1130.495945
3813.720428
2850.090093
5632.87298
5835.928186
5913.327954
4484.427971
5105.863376
1388.787819
1708.043651
1258.685285
628.651066
829.9546892
1263.269346
1357.612402
859.2015382
1236.043857
1610.826921
5690.440173
5960.365082
5599.277067
5406.605645
6165.935712
6118.335475
5977.428425
3707.029408
5290.317843
4821.382054
5931.914946
6134.233404
4126.04466
4433.469856
4879.100916
6186.835069
5050.836037
3637.258615
3968.093241
3237.138545
2330.975555
3259.742649
1715.821249
2495.266555
3338.904989
3663.212483
3389.593418
4512.968551
2842.881784
2697.505266
3866.951591
2803.161743
4193.631384
4272.024162
2691.462085
2677.803902
2715.480495
2687.95741
4297.72709
3063.307163
1839.713912
1872.248914
5034.28188
5026.341925
4295.023195
5429.470844
5242.547308
5085.897161
5040.300567
5264.764931
4033.354168
2200.181785
2454.086766
1922.359717
2018.395768
3448.303553
5677.046379
4802.227877
2676.89064
6015.901866
5759.090069
5738.138225
3758.136567
5671.818575
5489.097058
2240.835162
2528.793219
4706.931672
1301.770639
1353.80415
660.8205392
734.6266531
1247.161234
877.8300972
617.9377908
641.1111232
1292.049647
1258.88115
755.2019616
1309.904015
1647.010473
835.1391637
1337.366356
1325.034753
2608.098058
1783.120337
1755.669665
1958.211013
1895.399382
2754.582397
4117.862913
3852.688489
2508.053791
3711.583449
3894.048755
3485.338699
3674.566818
2465.913823
3710.799652
3636.035924
4713.013506
3471.954947
980.865921
973.1277411
1438.943001
1483.776465
936.0599429
932.6342968
1455.608999
1466.351365
1436.486553
1447.406363
877.2337857
880.1713255
1401.665414
1372.909462
872.0314
874.5328608
905.3405612
908.9516326
1451.704549
1437.485583
898.1337636
901.8162179
4690.140565
2897.254816
2916.065772
2856.233035
2873.87133
4669.444576
4699.061005
3209.453664
3715.219225
2953.447747
3027.11892
4672.343046
952.5595653
1507.847988
1498.296103
1521.484074
1515.080032
954.1456872
941.1300609
1465.601117
1448.457479
1489.219594
1478.478553
946.4682814
974.1061586
1563.261837
1553.980008
1576.837321
1567.776875
976.4585877
960.3211698
1533.871079
1528.261851
1548.517181
1540.093244
962.8095381
1510.59204
1514.125293
659.3329852
943.7956024
941.4910625
949.5128818
947.6285931
663.4483611
1501.276204
1505.334631
1571.653951
1491.480279
728.4479
1002.248179
1011.60366
1414.646527
1363.30915
804.0776311
674.13594
955.7734757
954.8825031
962.487603
966.163878
683.5610778
1540.451791
1533.612733
5374.621734
5235.81093
5551.192189
3931.659043
4595.305551
3244.889348
5243.31126
5308.751736
5230.217092
5241.93626
3313.191953
2363.114914
4487.803466
3811.450132
5142.58099
5275.481595
2733.808173
1025.534938
723.9124368
725.6016935
710.8455259
713.2886072
1013.955843
1631.331804
1644.607576
1602.561001
1618.34308
1590.181657
2012.986635
1456.404934
853.7433896
938.995827
750.991056
772.8954795
1065.116
1407.507827
1937.741685
1538.562822
1463.398537
994.58817
1589.860293
1577.392695
1624.510905
1582.570063
990.7931561
1567.367028
1578.383886
1530.459382
1541.542568
5584.918339
3680.822961
3925.328152
2777.260893
3300.712416
5679.132289
5742.522178
5560.972607
4271.771011
4869.65422
6084.698441
5815.239178
4395.227009
4651.427266
3511.101422
3969.541268
5990.043947
1697.419196
1698.506559
1681.032246
1684.374441
1121.024525
1132.585981
787.2558062
1757.680894
1662.958941
1715.652411
1706.596837
1657.586744
1035.689433
1043.156967
1028.802606
1033.961214
1653.968816
1692.120905
1055.932161
1111.05855
1044.664501
1058.771325
1695.381502
5696.616341
798.7513622
803.5363142
1159.263225
5959.547009
8879.548527
9232.253522
8752.488984
8740.564123
6588.937195
1771.218575
6542.939301
4693.926225
5082.751209
1092.56854
1726.674921
1711.360318
6505.825399
7169.664814
6916.096928
5650.675772
6158.428129
7607.198298
7223.410819
4630.198214
6831.658385
5885.359691
2131.817948
1716.056542
1151.936809
31.78492584
31.80563595
31.87752981
31.81388288
31.84722404
31.89887654
31.85899172
31.90074439
31.92834528
31.91409694
31.95594661
31.958469
31.96590438
31.98772911
31.97698862
31.98981967
31.98277465
31.97400676
31.97613675
31.94308449
31.95263187
31.93115478
31.88843272
31.9229484
31.87614554
31.83868605
31.89597675
31.82876159
31.80224199
31.87666019
31.69123684
31.73379849
31.78451428
31.75138646
31.81585953
31.83441268
31.84044974
31.92033677
31.89891194
31.94789134
32.03051701
31.96226667
32.04882281
32.09522059
32.00185035
32.09954834
32.09589108
31.99554273
32.0817815
32.00878343
31.94793835
31.98415643
31.89669695
31.88266467
31.87061019
31.79670817
31.82428056
31.77736914
31.7250989
31.7801421
31.62413027
31.70258161
31.72182483
31.73694199
31.8579958
31.81823138
31.90610079
32.07416353
31.94243832
32.13694333
32.3416112
32.0675364
32.37672473
32.51509405
32.16458799
32.52779332
32.5378431
32.14893165
32.48535719
32.31804045
32.05421268
32.2549816
32.04170468
31.9174221
31.97798854
31.82193048
31.79672474
31.78080966
31.68358442
31.71050304
31.58793636
31.72620183
31.70318754
31.78622488
32.02085296
31.88651879
32.12200536
32.51445613
32.15001474
32.68253052
33.3526102
32.46000762
33.49570268
34.1278177
32.75916204
34.18458085
34.16531701
32.7177044
33.88043841
33.30990386
32.45929685
33.09074119
32.50656699
32.1278557
32.3492528
31.98813206
31.85007715
31.89780037
31.69663643
31.68132451
31.59289651
31.82678353
31.74406065
31.92974739
32.36364801
32.08957751
32.56830591
33.51103299
32.69725914
34.00372332
36.77042651
33.73031433
37.89568429
44.58941649
35.10691429
44.73221355
41.95268182
34.89158517
39.62586361
36.32868389
33.73762112
35.47450059
33.66056805
32.74083319
33.24928509
32.39189231
32.06976707
32.19715109
31.79125327
31.71124603
31.63856014
31.99786516
31.86466027
32.1624483
32.89564935
32.4854555
33.26947328
35.28247758
33.89284577
36.54656996
49.0238173
38.05533627
45.1923255
52.22276398
42.87635378
65.66445478
63.43842698
47.45399483
50.70275778
44.4025918
41.46839818
41.36521813
36.00716825
34.16635032
34.99508912
33.12900849
32.55260609
32.74337986
31.99087759
31.83199214
31.71853788
32.22385035
32.05571087
32.45740931
33.51523695
33.05989403
34.06524666
37.12582275
35.79574225
37.96031602
40.52756802
39.59011652
59.94632187
68.56263388
64.9398906
100.6695563
70.68429896
58.71223426
51.21493936
39.57059709
36.87972913
37.5881381
34.16973944
33.37472522
33.51229256
32.28816641
32.05909877
31.81561679
32.45135032
32.2816018
32.74175223
34.03883328
33.65421207
34.70494977
38.31613279
37.47699082
39.95164807
43.19217174
42.68515571
70.06858708
83.31656948
82.15818494
161.0325661
98.66570933
88.65565932
60.77245811
43.34952687
40.6508085
40.38006958
35.32514
34.48671615
34.37359251
32.63273958
32.37370395
31.91281917
32.65433564
32.50356988
32.98726065
34.44553173
34.1484736
35.18215713
39.10673646
38.53113069
41.10275323
44.67092471
44.32578282
76.00874333
101.3605369
98.30081708
180.3080733
113.5459471
109.6986866
66.67981747
46.22065204
44.31085804
42.60789171
36.29704935
35.62813192
35.1173575
32.95405311
32.71582894
32.00356536
32.82741273
32.69687965
33.19232428
34.77235876
34.52859945
35.56489664
39.78911622
39.26833796
42.02626417
45.99652391
45.5856966
85.63916749
116.8647377
113.731148
172.7464265
115.7573965
115.9893567