/*--------------------------------*- C++ -*----------------------------------*\
| =========                 |                                                 |
| \\      /  F ield         | OpenFOAM: The Open Source CFD Toolbox           |
|  \\    /   O peration     | Version:  v1912                                 |
|   \\  /    A nd           | Website:  www.openfoam.com                      |
|    \\/     M anipulation  |                                                 |
\*---------------------------------------------------------------------------*/
FoamFile
{
    version     2.0;
    format      ascii;
    class       volScalarField;
    location    "2.07";
    object      p;
}
// * * * * * * * * * * * * * * * * * * * * * * * * * * * * * * * * * * * * * //

dimensions      [0 2 -2 0 0 0 0];


internalField   nonuniform List<scalar> 
12556
(
768.2974008
767.9071168
766.7425779
763.9252651
759.2623944
748.8449944
730.7796889
700.6858027
654.0008704
584.6648202
487.0831846
358.6615503
203.0841537
31.12877908
-141.8879853
-300.3709479
-434.3626082
-540.5726767
-620.4193322
-677.3758234
-725.8252718
-748.1065194
-761.1054676
-767.1958217
768.5473266
768.4357585
767.8345901
766.0697931
761.5418006
752.9809616
737.3695857
713.2454763
672.0739347
608.9680505
517.1025228
391.571388
234.031269
55.74686615
-126.8974986
-294.3206775
-434.1392249
-543.4613844
-632.7810165
-686.6265063
-734.3590959
-754.107774
-765.6755868
-771.050503
769.0759109
769.5924293
770.3163482
770.6853904
768.3435843
763.8262056
754.0820656
734.362412
701.6333539
647.3456442
557.8878469
419.7634984
243.028791
44.09590917
-151.3928354
-329.3132507
-474.0251111
-579.6880568
-667.126591
-712.8913667
-754.0846641
-768.4941215
-776.8267452
-780.5799439
769.3831336
770.7877527
773.4487044
776.8391803
777.7578252
779.2155152
778.1801487
767.6435066
749.4065609
706.8049319
618.0934094
464.1237603
236.542765
-14.26745957
-236.6028511
-412.290802
-550.1440492
-647.8654758
-721.5808786
-753.0887862
-783.1020585
-789.7053669
-793.1741077
-794.5635956
768.5959217
771.0108401
775.868107
782.992853
787.3818684
796.8539725
806.6478809
809.8928476
811.6101423
793.2232446
723.6160464
545.8620211
229.6159472
-138.1111599
-410.810666
-580.0068257
-682.8471495
-747.2015341
-794.6738505
-805.6044112
-817.0231246
-814.2389941
-811.7264203
-810.2451619
765.7139603
769.1332393
776.0984099
786.8655201
796.2587383
813.5119293
835.5623599
854.5736732
886.5646568
919.761577
919.3030785
773.5818551
262.819809
-385.1813125
-723.3507816
-842.1429345
-874.8718169
-880.8197073
-882.2481654
-864.484276
-852.2364536
-838.7268286
-829.3946371
-824.7940315
759.7786491
764.0697524
772.8636604
786.8070751
801.0056902
825.5844333
858.619225
894.8657499
962.6910349
1067.691689
1218.666499
1361.291084
545.1657352
-1008.433118
-1231.525312
-1186.956775
-1110.163455
-1034.562911
-974.6163468
-922.2086812
-884.2541635
-859.0400182
-843.0063345
-835.4300169
749.9690462
754.8889309
764.9984963
781.198713
799.7232401
829.6479104
870.6520061
921.3574107
1017.669445
1177.541996
1447.114474
1969.237527
-2672.228584
-1925.576807
-1555.788697
-1337.086726
-1179.069307
-1053.069944
-969.1369713
-905.379533
-870.611974
-849.3411358
-839.3029952
735.6677974
740.8907868
751.6199655
768.8790503
790.6519658
823.2643998
867.9862929
926.7783843
1034.130047
1199.260823
1425.259066
1675.591997
-4074.637343
-2427.456593
-1808.395701
-1488.816255
-1273.543038
-1098.408058
-993.5678369
-910.2583397
-869.7558299
-845.4462863
-833.9118014
716.5411603
721.7071905
732.2906746
749.2810429
772.9885227
805.4319024
849.4461177
909.6524943
1011.95775
1154.301947
1310.7106
1436.732927
-3792.274726
-2424.887432
-1831.46963
-1506.885423
-1288.545951
-1097.947294
-988.2639777
-895.7080347
-854.4241567
-829.6650142
-817.8564958
692.5868378
697.3590846
707.0796159
722.4818747
746.9384304
776.5869311
816.2380514
872.6525823
961.8982547
1076.495403
1190.905459
1284.348889
-2858.214725
-2053.993695
-1651.930727
-1407.723296
-1224.913985
-1050.089545
-952.2580474
-861.7206347
-824.4156169
-801.7761238
-790.8947368
664.1116719
668.2013703
676.5319964
689.0633141
713.6595641
738.1204865
770.7345949
819.6561616
891.6449952
980.0836208
1070.468568
1168.739827
-1878.599441
-1542.261937
-1355.650344
-1218.955295
-1099.308971
-964.9008871
-890.4265668
-811.1429396
-781.5155698
-762.9717196
-753.9579725
631.713012
634.918668
641.5705184
651.0375083
673.0044657
691.8278765
715.6507657
755.1009271
807.0401115
867.7993733
932.0047752
1030.803616
-772.0797864
-975.702928
-1043.420038
-1030.927003
-996.3787443
-943.6915317
-858.6875921
-811.4078317
-749.1282884
-729.006644
-715.5322268
-708.9293924
596.1328439
598.3656393
603.1587644
609.7044586
628.1335049
640.851553
655.4089771
683.8691121
714.1560447
742.7631055
763.6633008
819.3709111
237.6983513
-413.7838634
-649.523069
-745.3779689
-784.4663765
-784.5330296
-747.053395
-724.2568306
-682.1264569
-670.6241963
-662.266027
-658.2255943
558.2307018
559.4116237
562.0422166
565.397234
580.3629941
586.246682
591.7775582
607.0225152
615.2044207
611.2884144
581.8068833
492.9461188
199.371509
-175.7751103
-401.6958456
-531.0236119
-607.3170571
-642.9207269
-639.8526464
-637.8811077
-613.4558642
-609.4884499
-605.9764095
-604.3357456
518.8918807
519.078869
519.587769
519.8892219
531.3916867
531.2302568
528.8208112
532.1123412
522.6530656
497.3926729
440.1134829
324.4463868
149.8625193
-78.29066781
-257.1340338
-385.312344
-472.7630499
-525.7014535
-544.4277682
-556.8315871
-546.338517
-548.4836097
-549.1241756
-549.4901806
479.0004927
478.3344785
477.0086611
474.6759654
482.8809514
477.6621804
468.9052356
463.3548978
441.8389243
404.7424376
341.9661724
247.1146438
120.2838692
-34.45093773
-173.2191168
-286.8375797
-373.3567537
-431.9434548
-462.1136766
-483.3274415
-483.1956124
-489.8773281
-493.6778393
-495.5114539
439.3653925
438.0066872
435.192361
430.7494912
436.0081455
426.9213463
413.4665122
402.119523
373.9371018
332.6603681
273.3476753
194.8708654
99.54767853
-15.93859526
-126.0792487
-222.6902821
-299.8904613
-356.909246
-392.3198093
-418.3187898
-425.288925
-434.969937
-440.9658763
-443.7879976
400.6444909
398.7524348
394.7913151
388.768826
391.6362352
379.8400505
363.3371381
348.3686733
317.4238404
275.6880758
221.6453081
156.3212988
79.87924047
-11.14043235
-99.80986997
-179.3588111
-245.6461359
-298.0447088
-334.4050388
-361.8882878
-373.0540687
-384.4396419
-391.7575667
-395.2326622
363.3444085
361.0766585
356.3048379
349.2069709
350.2487427
336.7800649
318.5707377
301.8022275
270.3901651
230.2698574
181.4436111
124.7069637
60.97085229
-11.4148782
-82.6384866
-147.9380033
-204.4427109
-251.1373183
-286.2258902
-313.2162981
-326.5082536
-338.5827796
-346.5268686
-350.3074883
327.8324936
325.3359784
320.0660916
312.335686
312.081385
297.7833768
278.8512111
261.6463152
231.1800424
193.8321798
150.2895161
100.966315
47.7877665
-11.62549145
-69.91286528
-124.1360476
-172.2635475
-213.3186214
-245.7980765
-271.287213
-285.3002477
-297.337841
-305.3933573
-309.2377123
294.3496337
291.7492026
286.2510017
278.2563327
277.1505952
262.6763577
243.848027
226.997777
198.2989921
164.2034623
125.677789
83.31185084
37.9876874
-11.52234089
-59.95414686
-105.41692
-146.4762326
-182.3030712
-211.6631526
-235.1085461
-248.9155558
-260.4458387
-268.2652201
-272.0043267
263.0213102
260.4161346
254.9071691
246.9485819
245.3188881
231.1677961
213.0234086
197.0120263
170.5120452
139.7968999
105.8575888
69.49068727
30.55557559
-11.15598761
-51.83410292
-90.2357679
-125.3366258
-156.4664142
-182.608682
-203.7840201
-216.8138052
-227.5560361
-234.9193908
-238.4446027
233.8768913
231.3426533
225.9868998
218.291612
216.4052267
202.9202062
185.8609407
170.9406685
146.8297131
119.4367274
89.6384533
58.28845019
24.80041326
-10.58914941
-45.00547069
-77.61229869
-107.6656402
-134.6342953
-157.66602
-176.5422017
-188.4749409
-198.2799135
-205.0587029
-208.306065
206.8735189
204.46609
199.3815363
192.1103622
190.1734948
177.5801253
161.8615965
148.1624395
126.4754116
102.2412763
76.16901899
49.04270606
20.25601181
-9.880336305
-39.12973374
-66.90324985
-92.65086926
-115.9542904
-136.0772144
-152.7342582
-163.413801
-172.2214305
-178.3521024
-181.2895239
181.9169262
179.6757558
174.9439212
168.2045373
166.3712212
154.8065829
140.5243746
128.1511122
108.8326174
87.54293834
64.82226183
41.31592731
16.60923276
-9.079385253
-33.98611454
-57.66891874
-79.71400165
-99.79178085
-117.2423141
-131.8157868
-141.189842
-148.997599
-154.4612121
-157.0785232
158.8745477
156.8258181
152.5001038
146.359835
144.7476603
134.2846286
121.47512
110.4581647
93.40908205
74.83585729
55.12792179
34.79715373
13.65042645
-8.224427961
-29.42417231
-49.59927911
-68.43383367
-85.6674464
-100.6859488
-113.3339583
-121.408354
-128.2481126
-133.0539824
-135.3550192
137.5868551
135.7464499
131.8588907
126.355535
125.051513
115.7185892
104.3772453
94.70238026
79.80529393
63.73052659
46.74265733
29.24719727
11.22608683
-7.342996384
-25.33507965
-42.46580282
-58.49193686
-73.2076455
-86.02023522
-96.90390687
-103.7175373
-109.6395145
-113.8132707
-115.8099841
117.8781844
116.2545259
112.8215595
107.9715729
107.042711
98.83911812
88.95985034
80.56255716
67.69805843
53.92425875
39.41175935
24.47254889
9.216105278
-6.455379863
-21.63713289
-36.09518594
-49.64214106
-62.11648566
-72.92718577
-82.19955554
-87.804945
-92.86739618
-96.44277859
-98.15115439
99.56481167
98.16098376
95.18810475
90.99326331
90.49122312
83.39682627
74.95362603
67.77488457
56.82195127
45.17329224
32.92790648
20.32176696
7.525399101
-5.576484949
-18.2657507
-30.35022387
-41.68633561
-52.15026537
-61.1410248
-68.94001754
-73.39267056
-77.65477281
-80.66828114
-82.10580556
82.45248807
81.26917994
78.7556936
75.2054898
75.18763624
69.16415354
62.10877005
56.11469701
46.95544716
37.27645352
27.12089746
16.66125941
6.078255617
-4.71700013
-15.16823803
-25.11974185
-34.46203141
-43.09459618
-50.43808189
-56.88101233
-60.22701917
-63.74661641
-66.23363781
-67.41687114
66.37237492
65.40625929
63.34794638
60.42899882
60.91777557
55.93103768
50.15007172
45.39322543
37.90786317
30.06382838
21.84983451
13.37886172
4.813911269
-3.88413151
-12.30016686
-20.31192805
-27.83830502
-34.79272548
-40.60466117
-45.80297444
-48.09778541
-50.92380231
-52.91697513
-53.86259068
51.05318553
50.31002208
48.70936912
46.39772291
47.53232402
43.50486159
38.92962201
35.40082668
29.50501861
23.3859911
16.99177782
10.37741174
3.682234208
-3.081985234
-9.621734458
-15.84634115
-21.70214573
-27.14053891
-31.4489989
-35.50813091
-36.74172272
-38.93065059
-40.45409041
-41.16946689
36.61508168
36.07045364
34.91675129
33.25740945
34.60188001
31.70175256
28.31003976
25.97259627
21.59432996
17.11005992
12.43755941
7.57407004
2.641360582
-2.312201554
-7.096360225
-11.64945948
-15.94217874
-19.9469653
-22.85387853
-25.79528299
-26.20553539
-27.74894645
-28.82771231
-29.33968783
21.77495038
21.51748306
20.83248541
19.83303915
22.24270958
20.36835578
18.11619529
16.95949301
14.04097535
11.11226186
8.08222041
4.895350215
1.656471702
-1.573933646
-4.689379574
-7.653369118
-10.45708361
-13.09605619
-14.66430074
-16.58904647
-15.61792134
-16.54383343
-17.1798392
-17.42761455
11.12280772
10.85680614
10.48662821
9.890576692
10.16034983
9.199793602
8.124482273
8.227481803
6.732860013
5.269439757
3.811970328
2.264235095
0.7054067921
-0.862221896
-2.366617238
-3.795876301
-5.154741295
-6.456342024
-6.655159063
-7.53088408
-7.630736973
-8.081725742
-8.376714561
-8.591357994
1719.011466
-4357.68798
-2827.794627
1459.753328
-4129.539483
-4417.31049
1300.273853
-3107.149042
-4024.910682
1183.518744
-2043.797365
-2969.752713
1041.620132
-826.2233463
-865.1820172
-1088.447681
-1917.108901
847.0967746
325.892701
-779.3722239
189.0291739
-424.8852467
-981.3429995
1940.684873
757.9989347
-2479.304317
-822.0710502
-5731.239904
-3582.405707
-4011.09151
-2589.609897
-2067.840039
1340.89676
1447.139161
1646.863711
-5858.091031
-6161.652627
-3880.137865
-2715.9061
-2684.757102
1220.506405
1290.116308
1424.717492
1372.664972
1401.774079
1484.604031
-4314.299372
-5122.387083
-2983.04757
-2333.654463
-2654.96405
1101.438352
1169.783371
1273.897901
1240.247763
1276.210202
1320.441285
-2853.377522
-3471.671903
969.5121022
1034.449978
1154.652528
1113.915333
1173.032101
1225.035982
-1611.097703
-1565.421167
-2113.322909
807.1254297
842.4436889
1014.562209
955.013208
1022.187163
1097.367052
559.8783229
308.8946448
337.6904085
2136.102673
1760.120962
2676.807844
2215.078107
-6170.181941
-5791.509987
-3950.956157
-5540.438297
-6009.919494
1495.370538
1572.90903
1537.440039
1574.733934
1498.633858
1728.237954
1587.842901
-5170.845173
-5825.662374
-4308.645445
-5696.840272
-5081.868241
-6004.229571
-5727.329483
-4339.102979
1328.002555
1390.756493
1353.102826
1396.627928
1329.367845
1492.997286
1402.724958
-3563.28257
-4256.567237
-3516.439347
-4154.247037
-3493.101935
-5034.350412
-4258.241787
-3650.289662
1228.728045
1273.771107
1226.212185
1276.925291
1232.806359
1325.366507
1279.109922
-2193.506911
-2768.292342
1102.244614
1169.35104
1104.883363
-1568.146904
1174.538273
1107.120192
1229.005403
1178.267515
-1608.639095
-1006.98265
-1489.029366
-1562.286722
1032.130731
1017.445206
941.9450975
-49.43968347
1023.44865
922.8143143
1102.310762
1027.268794
-125.1240464
1446.506922
1683.929381
1860.901611
1910.409053
2178.017831
2534.663366
-7098.60789
-4402.978938
1567.295043
1586.631877
1732.131726
-3406.230121
-1997.349663
-1752.417988
-2197.168527
-2006.035055
-1949.377608
-2237.055138
-179.8881764
-492.5321185
-867.3882347
1763.852859
2110.047083
1864.685541
1828.405163
3549.592391
2951.76116
-3416.928113
-5395.976834
-3728.688312
-2284.159712
-2594.54198
-2433.415288
-2725.786688
-2168.068882
-3404.974023
-2808.131836
-2565.932778
-1170.978335
-315.9318768
-467.9070611
1221.340193
1958.104542
2652.733383
-3122.091556
-889.6719074
940.3628039
-7219.680711
-5127.318557
-6986.517865
-4211.9239
-6819.671335
-4801.257042
-6007.599625
-6030.49139
-4697.392863
-4752.164324
-3014.989677
-3338.448172
-3112.80481
-3317.219823
-2988.088782
-3726.528503
-3366.461554
-3201.195054
1197.285439
1169.339801
1146.068171
-1597.165504
-1861.644661
-1930.011753
1058.885009
1024.292321
990.8230217
1064.76708
1034.738514
1063.310337
2132.594967
1860.072919
1937.597359
1872.697919
2158.567996
1700.445074
1843.276209
1884.891119
2555.031017
2899.625224
3394.0354
2219.447128
2799.313208
2472.953107
2831.753106
2204.328823
-6108.542874
-6090.742104
1537.954163
1578.65186
1532.71272
1653.76957
1622.22693
1691.129458
1581.041776
1615.570448
1634.597452
-5479.718461
-5520.220096
-5423.254952
-4842.245966
-4991.538068
-4587.248177
-4783.912394
-5383.234905
-5903.458807
-5136.900893
-5138.227968
-5031.587061
-5120.173729
-5881.834424
1361.887196
1357.052314
1451.816379
1445.155556
-3848.539467
-3765.570885
-3899.12399
1257.183107
1253.943641
1300.494612
1297.454538
-2938.794903
-2618.703478
-2518.23279
-2638.505895
-2960.593869
1130.75252
1102.30627
1074.268701
1137.82476
1111.552023
1136.473397
-1220.012416
1140.449184
1134.253861
1204.074585
1201.245009
-1937.970486
-1220.845223
-1248.300423
-1509.738603
978.3898496
939.814781
934.6079533
953.0061525
473.1497079
173.8816147
1069.141148
-304.7411282
129.8558412
-220.0701256
1065.427561
-376.7773373
-252.7854064
96.97007488
-5446.161448
-2150.293991
-2300.241583
624.8714622
586.0275521
808.3041078
699.0117703
717.3220946
966.5678729
212.2758138
-127.6330827
-312.5970867
4494.789168
-2334.428803
-2497.343361
-913.2878641
-1162.484256
-1173.164803
-143.4120742
-387.8828581
-108.0218953
1946.645428
2687.589154
3524.616835
-3810.354364
-985.5057867
1162.269446
-5932.460047
-6665.090375
-6568.739346
-6116.744965
-4476.987002
-4667.70335
-4473.490271
-5384.48652
-5220.852436
-4969.983105
1295.350853
1278.020305
1258.366133
1306.926248
1284.923185
1298.70701
1198.476594
1176.734972
1200.393669
1037.549484
1022.322107
1004.919321
866.8871556
629.3547763
367.7454331
-6158.857034
-6659.277343
-6703.00343
-5916.029142
-4930.285589
-4633.817135
-5119.855641
-4996.874795
-5928.052927
-5309.76029
-5586.587573
-5439.990883
-5706.948
1352.163832
1339.562342
1314.711131
1335.097325
1344.972629
1340.463907
-4412.810554
-4237.395319
-4100.089522
-3859.431093
-3618.38611
-3867.299153
-4681.195571
-4282.391511
-4514.748769
-3951.087118
-4201.054449
-4628.662421
1250.599172
1226.014785
1205.555934
1251.99668
1232.66413
1253.800073
1269.784364
1282.927706
1286.445916
1244.779086
1260.72684
1243.305675
1314.296753
1318.852883
1331.29121
1287.235043
1291.662954
1286.107418
-2436.447356
-2574.838262
-2277.50559
-1415.936354
-1418.782109
1162.273331
1111.332699
1217.249167
1224.707777
1241.552359
1206.620828
1188.129291
-1742.16156
818.3225872
927.7009857
891.0494822
998.6989584
976.94955
995.5515923
140.441157
380.2785821
144.0624768
1004.445941
438.8455814
689.8952483
509.1679689
599.0976737
1083.353561
1043.936332
-6442.671682
-5272.44396
-6089.366162
-3541.014991
-3601.70404
-1968.384012
-2104.450711
-2118.306692
1766.982578
1747.344849
3410.335443
3861.364873
4193.561198
3673.386707
3311.045697
-2667.573176
-2503.3165
-2458.628314
-2507.651192
-2685.91073
-1182.603761
-1010.179101
-1021.438351
-1013.752816
-1185.392122
-797.2142768
-965.8607505
-563.87038
-587.2426506
-748.4258922
-378.6056392
-534.577934
-465.3222069
-7279.307331
-6355.350643
-5899.366032
-6701.768493
-6466.157305
-5714.688304
-5012.25388
-6012.726671
-6376.862741
-6289.284153
-5949.72933
-6097.389972
-6529.266252
-6413.934422
-4910.606616
-4729.820331
-4532.790414
-4786.375028
-4977.576328
-4531.689711
-4728.534949
-5034.233038
-4916.486601
-5167.05105
-4970.067221
-3152.82586
-3211.924226
-3181.022013
-3098.430768
-3234.216156
-3576.7141
-3471.168005
-3616.379302
-3279.699625
-3423.214276
-3523.27066
-1804.670923
-1780.998387
-1919.776013
1043.329816
1027.973044
1039.598042
1074.696794
1062.801696
1048.778597
1992.323284
1955.635217
1971.495446
2008.792274
1908.322346
2180.155023
2047.23026
2011.044235
1755.308575
1785.141427
1731.72356
1879.40217
1805.964927
1775.885854
2432.965322
2403.685667
2233.203533
2521.829758
2427.48768
-6696.668243
-6662.39891
-6149.976554
-6817.129284
-6892.424606
-6785.896355
-6832.272778
-6771.134242
-6924.537247
-6837.289452
-5997.616817
-6618.98946
-6707.242887
1555.240916
1556.878146
1544.437137
1578.605033
1562.261236
1562.315031
1527.822509
1516.870862
1541.735127
1531.180326
1646.753653
1667.510751
1638.793414
1717.099115
1678.615572
1655.625991
1597.259653
1602.461454
1584.011954
1630.522174
1609.1501
1604.122192
-5762.899971
-5632.829506
-5354.01423
-5658.114834
-5950.603759
-5798.448381
1380.144348
1366.720487
1402.077019
1383.845068
1346.029305
1337.270286
1361.427821
1348.755767
1485.695647
1464.22072
1512.192418
1492.774413
1427.98965
1407.321632
1457.019972
1435.414799
-3857.893971
-4014.321301
-3665.879668
-3810.721584
-3906.223517
-4286.196302
-4465.848239
-4065.515682
-4231.709347
1266.747565
1279.761845
1266.932378
1285.08448
1269.11466
1289.258584
1288.793577
1266.276707
1245.612186
1261.010985
1263.445214
1306.814273
1314.867307
1310.414393
1317.723344
1309.30602
1333.387019
1320.921606
1292.404252
1289.192943
1303.246236
1294.296959
1288.711603
1293.77373
1302.968639
-2694.664707
-2778.238262
-2843.085905
-2682.718279
-2891.769395
-2821.671009
-1195.958369
-1372.830841
-1402.102698
-1195.799811
1158.085674
1117.935653
1212.973403
1220.511034
1213.554879
1191.855629
1210.831082
1212.006676
-1822.682685
984.0909239
968.5927291
946.6349559
632.2947011
538.0615046
995.4609722
257.233668
414.2426409
307.9338859
1076.775657
-457.8193852
-23.6800455
201.0676844
-69.06251494
1038.902367
-2385.661678
-1843.36375
-1222.14248
-2287.250461
-2339.866652
-1107.60166
-1168.458893
-1601.200051
-2348.976051
-973.63888
-963.5428048
-802.2556553
-2090.19476
-1588.788326
-1546.170301
2370.144512
3406.204626
4316.587553
-4237.570792
-1069.406385
1471.238963
-1571.144337
-1189.555566
-3033.2016
-5457.46805
-6168.176161
-6423.282954
1437.339432
1418.931997
1387.093849
1463.183837
1429.906767
1449.494695
-1595.887748
-1734.141999
-1745.838925
-2190.329445
-1930.333215
-1874.54109
1082.407555
1068.200787
1080.402718
-6491.371455
-6597.052424
-5967.814585
1376.925756
1348.431873
1361.072606
1380.994877
1383.844288
1401.13807
1406.723186
1426.305614
1420.164484
1110.604298
1100.093441
1087.4494
-1581.323024
-1535.792756
-1524.636321
1111.744961
1117.647684
1110.979249
-1676.450433
-1688.355807
-1594.644412
-1417.043041
-1407.789499
-1548.675932
1018.66094
1097.529769
1103.854646
1107.309927
1029.049524
-7000.404849
-3442.362956
-1987.261656
-2053.499194
-2060.175248
-2282.227631
-2140.341117
-2105.286529
1801.544577
-4498.060356
-3975.993471
-4759.604292
-2415.090136
-2469.909457
-2325.098807
-798.9383864
-813.9722697
-638.5735672
-643.891217
-741.9302468
-1911.447325
-1353.789898
-3718.67064
-7143.104138
-6776.187218
-6623.781749
-7182.762282
-7161.68882
-3060.861079
-3092.073751
-3044.049732
-3355.043171
-3346.644679
-3319.222017
-2915.946337
-3050.668716
-3127.774094
-3689.968053
-3639.178932
-3688.626876
-1922.259225
-1899.726722
-1932.203487
2076.201895
2136.028021
1891.419754
1903.520879
1917.955607
1886.921797
1711.314115
1727.137941
1712.775208
1858.004357
1831.735822
1817.071041
2663.582566
2470.019477
2518.455802
2720.372026
2717.531566
2863.90278
2192.936091
2252.775213
2270.149224
1545.587503
1545.003429
1548.050744
1578.105697
1573.522604
1574.526927
1531.517772
1529.586696
1547.052513
1542.761993
1631.260069
1636.574644
1628.166213
1700.065695
1687.518718
1679.806052
1583.798515
1586.13285
1581.906415
1620.945405
1615.491075
1612.115219
1365.601377
1379.296745
1375.614806
1344.685054
1348.277702
1360.79327
1461.144494
1481.691375
1469.958938
1477.485023
1469.733612
1526.419946
1519.6718
1413.754354
1462.057693
1454.454656
1426.792752
1433.322452
1454.203649
-4025.547396
-4087.247205
-3737.474997
-3794.294072
-3819.957017
-4146.435299
-4168.283613
-4046.404583
-4183.205366
-4023.30349
1118.913283
1105.02874
1115.165103
1152.562151
1137.912978
1124.199347
1144.140305
1151.862048
1146.926139
1128.564731
1131.818576
1137.379638
-1936.170229
939.0714303
945.603115
936.3153671
697.2914002
948.9046588
350.0056274
482.3754835
605.7352982
1074.866306
1075.246575
1071.442347
-368.5468599
-212.7415531
-189.6534033
-204.7905203
1059.717978
1066.138522
1071.952585
-103.037244
-180.7823594
-326.5763928
-2186.006965
-2228.458108
-2325.036697
-2278.818151
-2257.040528
4504.547002
4843.095796
4307.169161
-2387.775695
-2412.833139
-2336.2596
-2515.541275
-2462.744181
-2450.222925
-2312.813694
-1509.703331
-4085.035399
-6183.370708
-6187.337097
-6120.043893
-6157.244469
-6631.368858
-6473.492906
-6500.367238
-6419.48036
-6447.430118
-6601.312096
-5333.686783
-5252.577223
-5304.372556
-5141.267451
-5199.590043
-5280.600001
-6708.946755
-6526.961058
-6504.888012
-6524.926616
-6536.342772
-6725.336854
-5535.553636
-5451.806846
-5499.051555
-5355.730076
-5404.16035
-5489.437603
-6056.116825
-6087.786073
-5959.436047
-6010.927083
1284.662181
1280.156902
1277.976141
1248.449681
1245.195917
1241.127571
1253.499339
1249.925524
1254.236882
-1539.370864
-1590.866293
-1410.396803
-1487.330735
1174.749892
1173.602363
1181.381122
1176.658763
1113.293553
1111.57079
1118.213087
1109.122505
1230.277502
1227.853895
1223.033506
1237.373186
1232.950229
1236.569311
1190.382044
1188.212356
1199.627964
1184.548029
1191.208444
-1749.611945
-1740.912861
-1730.184828
-1596.00937
937.3822968
983.3189749
1117.617173
1004.426039
996.5973328
987.7068952
1012.911627
381.3758193
365.1095001
1091.500228
969.4731338
735.9882211
1084.651766
1096.137719
1091.254621
1036.263979
-6749.990945
-7062.095523
-6756.341829
-6055.159144
-5772.221932
-4960.722352
-6534.133555
-6219.083013
-3486.234371
-3628.81047
-2114.790854
-2102.566633
-2111.922033
1782.979025
1722.987063
4023.869764
3860.239098
3721.734406
3159.483547
3016.471783
3546.36535
3331.880762
3453.282011
-2582.460746
-2520.446041
-2632.055061
-1030.116801
-1026.728142
-1015.326205
-1128.948683
-835.552613
-816.1471274
-802.0951486
-956.2691646
-899.2134136
-897.1278145
-569.280937
-624.4607438
-622.0377167
-445.057299
-450.5996212
-497.9005671
-7013.314328
-6899.57927
-7214.047803
-6626.871787
-6909.763428
-6969.667706
-7150.161721
-7121.15405
-6338.251623
-6230.443492
-6258.584871
-6196.653378
-6207.648311
-6305.108678
-6486.844536
-6353.661528
-6387.949022
-6289.325062
-6320.552291
-6449.537878
-4853.190865
-4779.470456
-4836.534114
-4847.788441
-4916.218255
-4586.163034
-4613.761864
-4576.630003
-4669.790001
-5096.429627
-5139.662123
-5098.879839
-5015.035661
-5079.160342
-4895.101301
-4955.445351
-5035.225119
-3190.206181
-3110.68602
-3098.407647
-3124.132291
-3058.682035
-3112.580878
-3272.44379
-3299.227077
-3240.518589
-3538.350946
-3583.268528
-3610.928181
2032.041114
1922.1678
1766.011344
1744.5525
1728.818514
1795.375596
1808.472101
1787.063058
2502.505384
2597.195992
2620.894336
2880.923365
2754.965952
2343.334725
2325.356771
2411.725467
-6681.350657
-6491.453113
-6490.65868
-6489.97514
-6489.85275
-6672.425773
-6847.660076
-6863.356122
-6830.397591
-7074.546029
-7035.332348
-7057.075978
-7085.215607
-6815.472635
-6922.414416
-7034.086155
-7046.399453
-6866.464773
1556.239335
1551.848424
1550.640601
1568.988029
1568.111603
1562.227617
1534.763584
1533.060944
1539.056056
1536.665849
1653.669879
1644.998849
1639.342229
1667.050059
1675.011352
1663.521176
1598.598916
1591.877062
1589.485875
1608.912443
1610.563391
1605.014614
-5723.894285
-5632.702617
-5672.07297
-5543.977333
-5588.826219
-5676.958339
-5896.766025
-5813.625758
-5894.179017
-5709.924344
-5753.975648
-5842.804593
1376.266121
1377.5165
1380.443352
1367.84198
1373.333007
1371.775301
1395.107342
1393.095003
1402.178369
1382.602832
1386.157086
1388.605364
1343.457023
1345.120201
1346.836311
1339.811967
1342.860637
1340.596103
1356.47137
1356.211885
1361.744143
1348.639476
1351.671937
1352.187373
1493.215057
1485.399417
1478.612303
1482.213191
1489.594468
1467.203045
1474.703976
1471.436081
1510.073882
1501.065801
1432.242751
1425.560479
1420.654904
1423.09133
1430.093044
1408.136228
1409.161532
1412.118291
1449.829919
1452.351194
1459.756939
1437.694654
1445.009105
1442.641718
1447.057878
1439.737297
-3942.773513
-3977.364223
-3881.175547
-3849.2119
-3882.639934
-4339.149138
-4371.561205
-4324.109042
-4505.123608
-4431.10727
-4398.217291
-4112.828777
-4147.658347
-4112.111305
-4273.962068
-4223.224671
-4172.696328
1270.491391
1267.324893
1263.618953
1275.022232
1271.300887
1275.18193
1278.847128
1273.029538
1289.545974
1289.583461
1264.923515
1256.527324
1252.144139
1252.657163
1253.618361
1260.026564
1257.097126
1261.718679
1306.756952
1310.432805
1320.245067
1311.368861
1329.136988
1330.969311
1335.641572
1323.212114
1326.888367
1325.061038
1290.756165
1289.646043
1298.7419
1296.209222
-2790.761029
-2772.77326
-2830.28753
-2672.073152
-2720.312089
-2754.234258
-2958.722193
-3001.189373
-2874.468265
-2886.588217
-2897.998959
-1339.100473
-1341.827078
-1396.23179
-1209.302374
-1270.874224
-1279.746207
1156.558348
1146.946063
1171.403028
1165.777778
1122.419904
1126.361797
1122.908402
1128.864864
1125.078834
1139.453344
1133.926203
1214.843357
1213.060525
1210.763705
1219.048758
1215.796971
1217.337765
1212.042419
1205.986011
1203.216568
1208.94824
1207.511917
1211.992381
-1879.875794
976.7642112
964.8550861
971.2550062
588.9103211
607.3234934
671.1351502
545.6169782
553.3048993
534.8609232
984.9937428
353.9193399
300.9975904
233.3924286
1073.303516
1074.731851
1076.608087
-435.5219016
68.38549491
8.833088907
182.8012968
169.8599027
183.1494924
-10.45321318
-144.223775
-125.2561525
-23.19052294
1049.725285
1061.168381
1054.522749
727.7764522
703.0761455
684.7776397
692.3513859
652.1859026
627.9356972
635.1936736
572.2935593
543.9926359
545.8373121
450.3902182
426.9482187
412.3190792
285.5601791
275.9924842
240.1402253
100.3350549
99.95186789
51.12696887
-93.71921767
-83.35420528
-141.3222858
-275.8806072
-255.307371
-317.8106778
-428.3652343
-401.9731499
-460.9013639
-543.77741
-518.3675532
758.3292319
743.0534245
711.5700018
735.9661041
704.8668093
663.5982226
690.0360522
627.9236093
584.5742341
600.2841694
493.8440958
459.1657908
449.5873567
295.4238828
288.854607
238.989498
63.53156588
94.21526828
5.562142756
-157.9593566
-103.5881653
-208.0440673
-343.7964854
-286.9842738
-384.5484046
-494.5269677
-441.550904
-526.6345699
-606.5608219
-556.4057285
798.7556843
796.9565387
755.4382945
794.6438002
778.2073174
720.8947022
768.2186788
717.102711
645.8236107
690.6578791
571.5430574
510.4775597
517.8096873
312.1133411
297.6877243
229.7178028
-20.75531074
47.49224161
-99.33992429
-301.8261585
-185.3797563
-357.130632
-491.3026327
-372.4098588
-528.2406975
-619.599724
-518.5742898
-644.1043069
-703.8228982
-627.7247255
843.5215785
861.1287011
812.2929185
867.0366624
882.326893
800.9901573
884.8664852
873.1725867
748.5195584
859.4197736
757.7385252
604.0421338
694.2952855
382.3513867
322.7268591
245.897832
-181.8879078
-51.50760183
-304.3196842
-569.5588365
-354.180144
-628.845045
-745.9312462
-544.3278872
-768.7634644
-812.6242714
-661.8629194
-821.866713
-840.5513779
-734.0945862
885.6510755
927.652058
877.9491876
944.8153333
1006.928122
912.2878355
1031.349058
1112.538884
926.2242798
1139.68375
1186.569889
835.8183919
1165.941726
677.2831694
427.889784
503.612738
-582.2316763
-246.1133468
-779.8820002
-1055.501503
-664.8741001
-1083.988076
-1098.857313
-824.7959712
-1093.721916
-1062.4844
-870.5128946
-1049.769668
-1009.442463
-880.6373118
916.5905477
980.1522703
942.5879544
1007.323108
1112.513628
1037.39759
1157.443968
1334.774948
1176.885702
1413.096422
1836.284934
1340.645052
1622.130466
1715.399739
1246.308632
717.8733596
-592.2670799
-156.3140828
-1402.389863
-1399.641274
-1130.267777
-1748.456452
-1526.030251
-1203.486838
-1468.062556
-1324.742504
-1129.926522
-1284.296341
-1177.462306
-1052.940727
927.6068319
1001.938644
988.7889886
1033.464382
1152.740269
1129.706746
1201.729037