/*--------------------------------*- C++ -*----------------------------------*\
| =========                 |                                                 |
| \\      /  F ield         | OpenFOAM: The Open Source CFD Toolbox           |
|  \\    /   O peration     | Version:  v1912                                 |
|   \\  /    A nd           | Website:  www.openfoam.com                      |
|    \\/     M anipulation  |                                                 |
\*---------------------------------------------------------------------------*/
FoamFile
{
    version     2.0;
    format      ascii;
    class       pointVectorField;
    location    "2.07";
    object      pointDisplacement;
}
// * * * * * * * * * * * * * * * * * * * * * * * * * * * * * * * * * * * * * //

dimensions      [0 1 0 0 0 0 0];


internalField   nonuniform List<vector> 
26316
(
(0 0 0)
(0 0 0)
(0 0 0)
(0 0 0)
(0 0 0)
(0 0 0)
(0 0 0)
(0 0 0)
(0 0 0)
(0 0 0)
(0 0 0)
(0 0 0)
(0 0 0)
(0 0 0)
(0 0 0)
(0 0 0)
(0 0 0)
(0 0 0)
(0 0 0)
(0 0 0)
(0 0 0)
(0 0 0)
(0 0 0)
(0 0 0)
(0 0 0)
(0 0 0)
(0 0 0)
(0 0 0)
(0 0 0)
(0 0 0)
(0 0 0)
(0 0 0)
(0 0 0)
(0 0 0)
(0 0 0)
(0 0 0)
(0 0 0)
(0 0 0)
(0 0 0)
(0 0 0)
(0 0 0)
(0 0 0)
(0 0 0)
(0 0 0)
(0 0 0)
(0 0 0)
(0 0 0)
(0 0 0)
(0 0 0)
(0 0 0)
(0 0 0)
(0 0 0)
(0 0 0)
(0 0 0)
(0 0 0)
(0 0 0)
(0 0 0)
(0 0 0)
(0 0 0)
(0 0 0)
(0 0 0)
(0 0 0)
(0 0 0)
(0 0 0)
(0 0 0)
(0 0 0)
(0 0 0)
(0 0 0)
(0 0 0)
(0 0 0)
(0 0 0)
(0 0 0)
(0 0 0)
(0 0 0)
(0 0 0)
(0 0 0)
(0 0 0)
(0 0 0)
(0 0 0)
(0 0 0)
(0 0 0)
(0 0 0)
(0 0 0)
(0 0 0)
(0 0 0)
(0 0 0)
(0 0 0)
(0 0 0)
(0 0 0)
(0 0 0)
(0 0 0)
(0 0 0)
(0 0 0)
(0 0 0)
(0 0 0)
(0 0 0)
(0 0 0)
(0 0 0)
(0 0 0)
(0 0 0)
(0 0 0)
(0 0 0)
(0 0 0)
(0 0 0)
(0 0 0)
(0 0 0)
(0 0 0)
(0 0 0)
(0 0 0)
(0 0 0)
(0 0 0)
(0 0 0)
(0 0 0)
(0 0 0)
(0 0 0)
(0 0 0)
(0 0 0)
(0 0 0)
(0 0 0)
(-5.056029475e-07 1.326139728e-05 2.775557562e-17)
(0 0 0)
(0 0 0)
(-2.791865168e-07 0.0001485483286 3.330669074e-16)
(1.287876015e-06 0.0001262753891 2.91433544e-16)
(0 0 0)
(0 0 0)
(0 0 0)
(0 0 0)
(0 0 0)
(0 0 0)
(0 0 0)
(0 0 0)
(0 0 0)
(0 0 0)
(0 0 0)
(0 0 0)
(0 0 0)
(0 0 0)
(0 0 0)
(0 0 0)
(0 0 0)
(0 0 0)
(0 0 0)
(0 0 0)
(0 0 0)
(0 0 0)
(0 0 0)
(0 0 0)
(0 0 0)
(0 0 0)
(0 0 0)
(0 0 0)
(0 0 0)
(0 0 0)
(0 0 0)
(0 0 0)
(0 0 0)
(0 0 0)
(0 0 0)
(0 0 0)
(0 0 0)
(0 0 0)
(0 0 0)
(0 0 0)
(0 0 0)
(0 0 0)
(0 0 0)
(0 0 0)
(0 0 0)
(0 0 0)
(0 0 0)
(0 0 0)
(0 0 0)
(0 0 0)
(0 0 0)
(0 0 0)
(0 0 0)
(0 0 0)
(0 0 0)
(0 0 0)
(0 0 0)
(0 0 0)
(0 0 0)
(0 0 0)
(0 0 0)
(-3.149867691e-05 0.0002047940605 4.857225733e-16)
(-0.0001812670596 0.001284600037 3.080868893e-15)
(-2.370418769e-06 1.699128022e-05 4.163336342e-17)
(-0.0003441219044 0.003378577527 7.993605777e-15)
(-0.0008542600473 0.00830502282 1.990074772e-14)
(-0.001013447888 0.01124926208 2.696454171e-14)
(-0.0004728543707 0.005296847806 1.254552018e-14)
(-0.0005750724161 0.01116153631 2.643718577e-14)
(-0.001006978031 0.01943491101 4.657385588e-14)
(-0.0008393066816 0.02147495959 5.148659277e-14)
(-0.0004948521669 0.01270206546 3.008704397e-14)
(-2.027308267e-05 0.01485566433 3.519406988e-14)
(-2.485699641e-05 0.02427524955 5.818956428e-14)
(0.0002782827805 0.02396206731 5.745404152e-14)
(0.0001626019446 0.01461233278 3.462508058e-14)
(0.0005432577809 0.01120116025 2.653433029e-14)
(0.0009625103877 0.01948780842 4.672651155e-14)
(0.001054732066 0.01702721121 4.082845173e-14)
(0.0005713073634 0.009376593527 2.221833828e-14)
(0.0003359692775 0.003421375598 8.10462808e-15)
(0.0008338013469 0.008375497851 2.008115896e-14)
(0.0006272430606 0.005595875848 1.340594302e-14)
(0.0001962629561 0.001774014028 4.204969706e-15)
(0 0 0)
(3.304373085e-05 0.0002205480995 5.273559367e-16)
(0 0 0)
(0 0 0)
(0 0 0)
(0 0 0)
(0 0 0)
(0 0 0)
(0 0 0)
(0 0 0)
(0 0 0)
(0 0 0)
(0 0 0)
(0 0 0)
(0 0 0)
(0 0 0)
(0 0 0)
(0 0 0)
(0 0 0)
(0 0 0)
(0 0 0)
(0 0 0)
(0 0 0)
(0 0 0)
(0 0 0)
(0 0 0)
(0 0 0)
(0 0 0)
(0 0 0)
(0 0 0)
(0 0 0)
(0 0 0)
(0 0 0)
(0 0 0)
(0 0 0)
(0 0 0)
(0 0 0)
(0 0 0)
(0 0 0)
(0 0 0)
(0 0 0)
(0 0 0)
(0 0 0)
(0 0 0)
(0 0 0)
(0 0 0)
(0 0 0)
(0 0 0)
(-8.797080483e-05 0.000409965641 1.026956298e-15)
(-0.0004805170668 0.002388102208 6.009082121e-15)
(-0.0001138324598 0.000572547689 1.415534356e-15)
(-0.001623228588 0.01020513147 2.535471832e-14)
(-0.00259525031 0.01613889684 4.059252934e-14)
(-0.003309334823 0.02246979798 5.651035195e-14)
(-0.00223076523 0.01530674717 3.803901638e-14)
(-0.003461732473 0.0327462884 8.135159213e-14)
(-0.004575684579 0.04289356278 1.078581668e-13)
(-0.004597114313 0.04934431377 1.24067423e-13)
(-0.003553601228 0.03846539558 9.556244684e-14)
(-0.002764560096 0.05263450772 1.307565167e-13)
(-0.003428479446 0.06495343981 1.633415625e-13)
(-0.002697356161 0.0684848601 1.722372245e-13)
(-0.002196559922 0.05590162444 1.388750226e-13)
(1.215730287e-05 0.0602451444 1.497135749e-13)
(4.388135358e-05 0.07313618753 1.839917108e-13)
(0.001006405654 0.07262062268 1.827288321e-13)
(0.0007947676332 0.05976401091 1.485339629e-13)
(0.00276110732 0.05270147812 1.310201947e-13)
(0.003473526099 0.06501156252 1.636468738e-13)
(0.004032803504 0.06059446855 1.525446436e-13)
(0.003179570335 0.04864658895 1.209587985e-13)
(0.003424046975 0.03288224473 8.176792576e-14)
(0.004551787564 0.04303555318 1.083577672e-13)
(0.004308412737 0.03626600657 9.131584378e-14)
(0.003156254502 0.02697090138 6.705747069e-14)
(0.001609004387 0.01033195479 2.568778523e-14)
(0.002573570527 0.01630001709 4.103661855e-14)
(0.001818986651 0.01064064904 2.678413047e-14)
(0.00100983395 0.005986914764 1.487698853e-14)
(0 0 0)
(8.733511892e-05 0.000414457063 1.040834086e-15)
(0 0 0)
(0 0 0)
(0 0 0)
(0 0 0)
(0 0 0)
(0 0 0)
(0 0 0)
(0 0 0)
(0 0 0)
(0 0 0)
(0 0 0)
(0 0 0)
(0 0 0)
(0 0 0)
(0 0 0)
(0 0 0)
(0 0 0)
(0 0 0)
(0 0 0)
(0 0 0)
(0 0 0)
(0 0 0)
(0 0 0)
(0 0 0)
(0 0 0)
(0 0 0)
(0 0 0)
(0 0 0)
(0 0 0)
(0 0 0)
(0 0 0)
(0 0 0)
(0 0 0)
(0 0 0)
(0 0 0)
(0 0 0)
(0 0 0)
(0 0 0)
(0 0 0)
(-3.784858835e-05 0.0001407589355 3.747002708e-16)
(0 0 0)
(-0.001610565308 0.007232136532 1.890154699e-14)
(-0.002393489277 0.01059642612 2.806088695e-14)
(-0.003744400784 0.01771063657 4.687916721e-14)
(-0.002749804852 0.01318147414 3.444466934e-14)
(-0.006275611559 0.0377438284 9.856004901e-14)
(-0.007613656623 0.0452600489 1.196959198e-13)
(-0.008507368974 0.05527886071 1.461608612e-13)
(-0.007159564214 0.04705788222 1.228600555e-13)
(-0.008122887074 0.07393726543 1.929845173e-13)
(-0.009255715731 0.08332614185 2.202821259e-13)
(-0.008831411104 0.09116773075 2.410294186e-13)
(-0.007827840312 0.08169032349 2.132183319e-13)
(-0.005346184093 0.09914905684 2.588762538e-13)
(-0.005898161569 0.1082820911 2.863820292e-13)
(-0.004516304958 0.1117668235 2.956385137e-13)
(-0.004115908035 0.102834742 2.685351941e-13)
(0.0001583071664 0.1075071393 2.809141808e-13)
(0.0001864650136 0.1160851679 3.072819776e-13)
(0.001798772745 0.1155999794 3.060607323e-13)
(0.001630978667 0.1069845035 2.796096688e-13)
(0.005589433933 0.09913285643 2.59250954e-13)
(0.006198141754 0.1082269435 2.867428517e-13)
(0.007371448013 0.103642774 2.746691763e-13)
(0.006609238363 0.09437421575 2.468580895e-13)
(0.008200535156 0.07401972214 1.936784066e-13)
(0.009375349806 0.08331141528 2.20864993e-13)
(0.009419348088 0.0746089895 1.978139874e-13)
(0.008148861348 0.06555385542 1.715294573e-13)
(0.006224662287 0.03767998472 9.858780459e-14)
(0.007757532424 0.04611276921 1.222771884e-13)
(0.006686877372 0.03671047422 9.736655926e-14)
(0.005300168426 0.02957695048 7.738254482e-14)
(0.001837029156 0.008346158977 2.184363801e-14)
(0.002745480833 0.01230051888 3.261280135e-14)
(0.001549221963 0.006538685681 1.731947918e-14)
(0.0008853147198 0.003788151495 9.908740495e-15)
(0 0 0)
(0 0 0)
(0 0 0)
(0 0 0)
(0 0 0)
(0 0 0)
(0 0 0)
(0 0 0)
(0 0 0)
(0 0 0)
(0 0 0)
(0 0 0)
(0 0 0)
(0 0 0)
(0 0 0)
(0 0 0)
(0 0 0)
(0 0 0)
(0 0 0)
(0 0 0)
(0 0 0)
(0 0 0)
(0 0 0)
(0 0 0)
(0 0 0)
(0 0 0)
(0 0 0)
(0 0 0)
(0 0 0)
(0 0 0)
(0 0 0)
(0 0 0)
(0 0 0)
(0 0 0)
(0 0 0)
(-0.0001749318857 0.0005937587337 1.637578961e-15)
(-0.0003978162957 0.001331753514 3.719247132e-15)
(-0.001412901511 0.004977971235 1.391942117e-14)
(-0.0009499101116 0.00339292134 9.353628982e-15)
(-0.00558060907 0.02368629088 6.529499164e-14)
(-0.006601603164 0.0276443694 7.724376694e-14)
(-0.008508264156 0.03802924251 1.062205879e-13)
(-0.007376851854 0.03341946232 9.209299989e-14)
(-0.01163695832 0.06615285117 1.821043316e-13)
(-0.01285055033 0.07199360348 2.009226119e-13)
(-0.01353987426 0.08285343602 2.311761893e-13)
(-0.0123774321 0.07692431077 2.116640196e-13)
(-0.01221650885 0.1055028085 2.901567875e-13)
(-0.012971547 0.110083866 3.069211552e-13)
(-0.01196832925 0.1165258617 3.248928904e-13)
(-0.01131158152 0.1120050301 3.08045256e-13)
(-0.007100976798 0.1250683481 3.441413821e-13)
(-0.00734082694 0.1267890829 3.536754223e-13)
(-0.005504427193 0.1279669052 3.570338469e-13)
(-0.005359273262 0.1270604801 3.49706375e-13)
(0.0001862900325 0.1289718261 3.552713679e-13)
(0.0001557239404 0.1285388935 3.589351039e-13)
(0.002051007775 0.1284815393 3.588934705e-13)
(0.002057407405 0.1287570867 3.547856453e-13)
(0.007496292539 0.12504381 3.448769048e-13)
(0.007699063379 0.1266575597 3.541611449e-13)
(0.009415508928 0.1245268687 3.483185962e-13)
(0.00910271865 0.1220596146 3.367583989e-13)
(0.01245969954 0.1053093618 2.907812879e-13)
(0.0132478287 0.1099705176 3.079897448e-13)
(0.01388934472 0.1026607796 2.876587857e-13)
(0.01292905693 0.0971163606 2.682715161e-13)
(0.01194185572 0.06777087312 1.872668687e-13)
(0.01316000199 0.07360949895 2.062516824e-13)
(0.01205403865 0.06239671893 1.74818493e-13)
(0.01081211855 0.05678616101 1.568883912e-13)
(0.005888226682 0.02527853619 6.979139489e-14)
(0.006940430405 0.0293684112 8.221201497e-14)
(0.005003571832 0.01995569107 5.584421814e-14)
(0.004099534859 0.01658731844 4.578282198e-14)
(0.0002706178562 0.0009326040513 2.567390744e-15)
(0.0004649022076 0.001579372452 4.413136523e-15)
(1.180200644e-05 3.818682161e-05 1.110223025e-16)
(0 0 0)
(0 0 0)
(0 0 0)
(0 0 0)
(0 0 0)
(0 0 0)
(0 0 0)
(0 0 0)
(0 0 0)
(0 0 0)
(0 0 0)
(0 0 0)
(0 0 0)
(0 0 0)
(0 0 0)
(0 0 0)
(0 0 0)
(0 0 0)
(0 0 0)
(0 0 0)
(0 0 0)
(0 0 0)
(0 0 0)
(0 0 0)
(0 0 0)
(0 0 0)
(0 0 0)
(0 0 0)
(0 0 0)
(-1.665029434e-05 4.717395473e-05 1.526556659e-16)
(-4.543408634e-07 1.306701648e-06 0)
(0 0 0)
(-0.001248884752 0.00400641618 1.168509733e-14)
(-0.001576286236 0.004983479981 1.475208844e-14)
(-0.00327003399 0.01088209528 3.22103455e-14)
(-0.002789906036 0.009420573412 2.749189765e-14)
(-0.009057372618 0.03635163988 1.059291543e-13)
(-0.009858468304 0.03898979267 1.152689055e-13)
(-0.01197311867 0.0505317482 1.493249968e-13)
(-0.01134418067 0.04859876212 1.415534356e-13)
(-0.01567192548 0.08405583653 2.446237657e-13)
(-0.01631796493 0.08618244884 2.544631172e-13)
(-0.01674441768 0.09647448563 2.84827717e-13)
(-0.01616067482 0.09457929034 2.752242878e-13)
(-0.0145661863 0.1171218351 3.408384686e-13)
(-0.01486903814 0.1175055855 3.469863286e-13)
(-0.01337238431 0.1205348469 3.559930128e-13)
(-0.01318763405 0.1211131024 3.524680547e-13)
(-0.007670733287 0.1233351395 0)
(-0.007784204522 0.1214986653 0)
(-0.006829088411 0.1214953769 0)
(-0.005821799421 0.1215325507 0)
(-0.005757175619 0.1224414693 0)
(-0.005730109745 0.1233290918 0)
(4.436413804e-05 0.123245753 0)
(2.605414693e-05 0.1223629509 0)
(0.0009932133497 0.1223436654 0)
(0.001006283688 0.1232264931 0)
(0.007819934381 0.1230121016 0)
(0.0078299934 0.1221048222 0)
(0.007846620592 0.1211833536 0)
(0.008808135167 0.1211356644 0)
(0.009756046054 0.1211057405 0)
(0.009751946283 0.1229273669 0)
(0.01476181915 0.117366676 3.431976925e-13)
(0.01499073655 0.1176327399 3.490541189e-13)
(0.0161406009 0.1128882514 3.350653088e-13)
(0.01579122227 0.1119512639 3.274325255e-13)
(0.0159811703 0.08561232217 2.504385588e-13)
(0.01655683831 0.08739667495 2.59514632e-13)
(0.01572268988 0.07675344592 2.279010314e-13)
(0.01500933946 0.07437344301 2.175620795e-13)
(0.009692395025 0.03922431674 1.146721607e-13)
(0.01060018805 0.04226396397 1.253858128e-13)
(0.008353351968 0.03139281723 9.31060784e-14)
(0.007523452779 0.02869809197 8.387734951e-14)
(0.001675657832 0.005449687736 1.590394483e-14)
(0.002094498293 0.006711678293 1.988686993e-14)
(0.00075040228 0.002291313223 6.786238238e-15)
(0.0005105664324 0.001582173277 4.607425552e-15)
(0 0 0)
(0 0 0)
(0 0 0)
(0 0 0)
(0 0 0)
(0 0 0)
(0 0 0)
(0 0 0)
(0 0 0)
(0 0 0)
(0 0 0)
(0 0 0)
(0 0 0)
(0 0 0)
(0 0 0)
(0 0 0)
(0 0 0)
(0 0 0)
(0 0 0)
(0 0 0)
(0 0 0)
(0 0 0)
(0 0 0)
(0 0 0)
(0 0 0)
(0 0 0)
(0 0 0)
(0 0 0)
(-0.0001500278399 0.0003995059934 1.276756478e-15)
(-8.549659812e-05 0.0002312998941 7.355227538e-16)
(-6.994367011e-05 0.0001921840974 5.967448757e-16)
(-0.002264874819 0.006840958209 2.117750419e-14)
(-0.002348899623 0.006984615024 2.19685381e-14)
(-0.004349003875 0.0136105395 4.27990976e-14)
(-0.004234162562 0.01346078435 4.167499679e-14)
(-0.01138845314 0.04299814689 1.329492072e-13)
(-0.01157005921 0.04299237891 1.350031198e-13)
(-0.01377480211 0.05459261631 1.713629239e-13)
(-0.01358130755 0.05469615905 1.690592111e-13)
(-0.01762567068 0.08865397953 2.738087534e-13)
(-0.01780669753 0.08809313727 2.76320633e-13)
(-0.01804020492 0.09725360303 3.05033776e-13)
(-0.01787757912 0.09801395705 3.027023077e-13)
(-0.01533866563 0.1149449763 3.551048344e-13)
(-0.01541379884 0.1134483977 3.559930128e-13)
(-0.01365543707 0.1143603587 0)
(-0.01361574852 0.1161558148 3.589489816e-13)
(-0.007960269764 0.1160614873 0)
(-0.007984384138 0.1151506775 0)
(-0.00704234433 0.1151366727 0)
(-0.007018342243 0.1160460493 0)
(0.007797300478 0.1157629268 0)
(0.007784028296 0.1148607326 0)
(0.00872563039 0.1148375484 0)
(0.008739866564 0.1157383868 0)
(0.01526512272 0.1149991667 3.571865026e-13)
(0.01526674922 0.1134946576 3.580469254e-13)
(0.0167959217 0.1111525962 3.507749646e-13)
(0.01673370989 0.1122571569 3.487765632e-13)
(0.01816061125 0.09180409853 2.853273173e-13)
(0.01837507583 0.09156130915 2.890465645e-13)
(0.01774393177 0.08171537113 2.579325642e-13)
(0.01749543959 0.0817569245 2.540745392e-13)
(0.01244263744 0.04743502492 1.47284962e-13)
(0.01272271362 0.04777405397 1.506711422e-13)
(0.01033216671 0.03655261289 1.1524115e-13)
(0.01006685511 0.03616279652 1.122435478e-13)
(0.003038904562 0.009304391041 2.883804306e-14)
(0.003431636673 0.0103434194 3.257116798e-14)
(0.001636683747 0.004700865815 1.47937218e-14)
(0.001347345833 0.003930970991 1.21846977e-14)
(0 0 0)
(0 0 0)
(0 0 0)
(0 0 0)
(0 0 0)
(0 0 0)
(0 0 0)
(0 0 0)
(0 0 0)
(0 0 0)
(0 0 0)
(0 0 0)
(0 0 0)
(0 0 0)
(0 0 0)
(0 0 0)
(0 0 0)
(0 0 0)
(0 0 0)
(0 0 0)
(0 0 0)
(0 0 0)
(0 0 0)
(0 0 0)
(0 0 0)
(0 0 0)
(0 0 0)
(0 0 0)
(-0.0002462796846 0.0006141494204 2.095545959e-15)
(-0.0002224397704 0.0005640978871 1.90125693e-15)
(-0.0001951428394 0.0005031249869 1.665334537e-15)
(-0.002790916027 0.007907951515 2.609024108e-14)
(-0.002885919854 0.008043089123 2.69784195e-14)
(-0.005032676491 0.01476007709 4.950206911e-14)
(-0.004913810669 0.01465238011 4.833633493e-14)
(-0.01229209461 0.04348805187 1.432604035e-13)
(-0.01244049975 0.04327678552 1.449396159e-13)
(-0.01462691333 0.05423823852 1.815630979e-13)
(-0.01448139455 0.05462034206 1.7985613e-13)
(-0.01832822476 0.08613660872 2.834399382e-13)
(-0.01843916781 0.08514615354 2.84827717e-13)
(-0.01856728931 0.09333522787 3.122085923e-13)
(-0.01847297038 0.09453217308 3.110567359e-13)
(-0.01557951009 0.1085490776 3.573530361e-13)
(-0.01562318917 0.1068400163 3.575750807e-13)
(-0.01379837795 0.1072119523 0)
(-0.01376385018 0.1089946293 0)
(-0.008117712484 0.1088793877 0)
(-0.008135526284 0.1079874405 0)
(-0.007195946697 0.1079683943 0)
(-0.007178008949 0.1088603389 0)
(0.007669923205 0.1085655885 0)
(0.007651587801 0.1076684028 0)
(0.008590983338 0.107648451 0)
(0.008609474614 0.1085451789 0)
(0.01519220457 0.1083880553 3.589073483e-13)
(0.01515486825 0.1066108791 3.589351039e-13)
(0.01684246589 0.1053509562 3.548134009e-13)
(0.01685512945 0.1069563332 3.542721672e-13)
(0.01892035259 0.09017895699 2.988304049e-13)
(0.01900840239 0.08923230435 3.006622729e-13)
(0.01856899436 0.08048567742 2.711719738e-13)
(0.01844572305 0.08119474263 2.690347944e-13)
(0.01372738376 0.04918741673 1.628419621e-13)
(0.01392564957 0.0491043528 1.652844528e-13)
(0.01155897256 0.0383822661 1.291466933e-13)
(0.0113524242 0.03831058642 1.267735916e-13)
(0.003934987601 0.01130839003 3.735900478e-14)
(0.004094936478 0.01157618059 3.888556144e-14)
(0.002111754177 0.005687809211 1.909583602e-14)
(0.001990832238 0.005451230607 1.801336857e-14)
(0 0 0)
(0 0 0)
(0 0 0)
(0 0 0)
(0 0 0)
(0 0 0)
(0 0 0)
(0 0 0)
(0 0 0)
(0 0 0)
(0 0 0)
(0 0 0)
(0 0 0)
(0 0 0)
(0 0 0)
(0 0 0)
(0 0 0)
(0 0 0)
(0 0 0)
(0 0 0)
(0 0 0)
(0 0 0)
(0 0 0)
(0 0 0)
(0 0 0)
(0 0 0)
(0 0 0)
(0 0 0)
(-0.0003632972276 0.00084464902 3.094746681e-15)
(-0.0003275363353 0.0007753128901 2.789435349e-15)
(-0.0002956965803 0.0007124259094 2.511879593e-15)
(-0.003122448013 0.008267688199 2.919886555e-14)
(-0.003218259429 0.008372111415 3.008704397e-14)
(-0.005444427795 0.01490136894 5.352662757e-14)
(-0.005326509582 0.0148393628 5.237477119e-14)
(-0.01280607817 0.04227956136 1.490058077e-13)
(-0.01295031889 0.04199197704 1.506156311e-13)
(-0.01512760965 0.05225631411 1.873501354e-13)
(-0.01498659761 0.05271851621 1.857125564e-13)
(-0.01872002903 0.08186481201 2.881722638e-13)
(-0.01882664775 0.08080294639 2.894767759e-13)
(-0.01889971578 0.08822448853 3.160527395e-13)
(-0.01880944198 0.08948345593 3.149841499e-13)
(-0.01574437827 0.1016557422 3.580469254e-13)
(-0.01578466162 0.09992640356 3.581995811e-13)
(-0.01393345216 0.1000961859 0)
(-0.01389997202 0.1018741725 0)
(-0.008257508044 0.1017591721 0)
(-0.008274713007 0.1008706844 0)
(-0.007336409953 0.1008518713 0)
(-0.007327723985 0.1012961547 0)
(-0.007319045703 0.1017400663 0)
(0.007513073155 0.1013961662 0)
(0.007492080899 0.1005024247 0)
(0.008430432954 0.1004839825 0)
(0.008451543182 0.1013774322 0)
(0.01502940792 0.1012374604 3.589212261e-13)
(0.0149837965 0.09943695782 3.588518371e-13)
(0.01663962871 0.09805556203 3.539946114e-13)
(0.0167035138 0.09994621064 3.544664562e-13)
(0.01884220263 0.08439434424 2.994271497e-13)
(0.0187438145 0.08260766152 2.983446823e-13)
(0.0182957217 0.07438036693 2.68604583e-13)
(0.01839849286 0.07603601567 2.697425616e-13)
(0.01375743883 0.04617200342 1.636468738e-13)
(0.01366108089 0.0450755257 1.626199175e-13)
(0.01130913559 0.03511793701 1.26620936e-13)
(0.0113977697 0.0360056963 1.2753687e-13)
(0.003984055635 0.01070508825 3.785860514e-14)
(0.003931930243 0.01038211346 3.737288257e-14)
(0.001991931866 0.005009993131 1.802724636e-14)
(0.002028729894 0.005192753729 1.834643548e-14)
(0 0 0)
(0 0 0)
(0 0 0)
(0 0 0)
(0 0 0)
(0 0 0)
(0 0 0)
(0 0 0)
(0 0 0)
(0 0 0)
(0 0 0)
(0 0 0)
(0 0 0)
(0 0 0)
(0 0 0)
(0 0 0)
(0 0 0)
(0 0 0)
(0 0 0)
(0 0 0)
(0 0 0)
(0 0 0)
(0 0 0)
(0 0 0)
(0 0 0)
(0 0 0)
(0 0 0)
(0 0 0)
(-0.0005202746034 0.00112190468 4.427014311e-15)
(-0.0004777505986 0.001050342501 4.066191828e-15)
(-0.000436621466 0.0009783222656 3.719247132e-15)
(-0.003517873931 0.00866156438 3.28903571e-14)
(-0.003623446565 0.008753187775 3.387568004e-14)
(-0.005937839229 0.01508808352 5.834221994e-14)
(-0.005810093836 0.01504825083 5.710709683e-14)
(-0.01339200692 0.04105468898 1.555422457e-13)
(-0.01354439107 0.04072349164 1.572353359e-13)
(-0.01570626673 0.05027887542 1.940392291e-13)
(-0.01555819546 0.05078875447 1.923322612e-13)
(-0.01914928655 0.0775394061 2.934041898e-13)
(-0.0192589375 0.07643058625 2.947225797e-13)
(-0.01926325098 0.08307478876 3.20340976e-13)
(-0.01917148671 0.08437664218 3.192723863e-13)
(-0.01590127581 0.09470354212 3.58602037e-13)
(-0.01593865466 0.09295256341 3.586991815e-13)
(-0.01406555759 0.09298006884 0)
(-0.01403284111 0.09475910452 0)
(-0.008393842571 0.09464442376 0)
(-0.008410527501 0.09375509868 0)
(-0.007473836633 0.09373627749 0)
(-0.007465390878 0.0941809379 0)
(-0.007456905514 0.09462551482 0)
(0.00733836443 0.09425662524 0)
(0.007314836185 0.09336417621 0)
(0.008252298923 0.09334670309 0)
(0.008276028625 0.09423889995 0)
(0.01481442538 0.0938700385 3.580191699e-13)
(0.01473892133 0.09190663289 3.572836471e-13)
(0.01622098641 0.08966685895 3.486932965e-13)
(0.01635827425 0.0919277247 3.507194535e-13)
(0.01807807186 0.07575817578 2.891298312e-13)
(0.01769852594 0.07287991599 2.834954493e-13)
(0.01719774218 0.06526002044 2.538108612e-13)
(0.01750993716 0.06763461102 2.580852199e-13)
(0.01265551815 0.03960309709 1.50948698e-13)
(0.01233588583 0.03790079279 1.472433286e-13)
(0.01000420262 0.02890973614 1.122435478e-13)
(0.0103021215 0.03032626081 1.155464613e-13)
(0.003213729714 0.008037246932 3.057276654e-14)
(0.003041188946 0.007464263473 2.893518758e-14)
(0.001352160079 0.003160426838 1.224020885e-14)
(0.001467883915 0.003496174017 1.329492072e-14)
(0 0 0)
(0 0 0)
(0 0 0)
(0 0 0)
(0 0 0)
(0 0 0)
(0 0 0)
(0 0 0)
(0 0 0)
(0 0 0)
(0 0 0)
(0 0 0)
(0 0 0)
(0 0 0)
(0 0 0)
(0 0 0)
(0 0 0)
(0 0 0)
(0 0 0)
(0 0 0)
(0 0 0)
(0 0 0)
(0 0 0)
(0 0 0)
(0 0 0)
(0 0 0)
(0 0 0)
(0 0 0)
(-0.000657570763 0.001307058165 5.606626274e-15)
(-0.0006800351718 0.001380388998 5.787037516e-15)
(-0.0006207712177 0.001286274108 5.287437155e-15)
(-0.003968599989 0.009033844626 3.708144902e-14)
(-0.004103573298 0.009150292644 3.834432771e-14)
(-0.006512116536 0.01527028993 6.394884622e-14)
(-0.006351730257 0.01520575154 6.239453398e-14)
(-0.01403064875 0.03970628204 1.626199175e-13)
(-0.01421568488 0.03939269498 1.646738301e-13)
(-0.01635495027 0.04822424209 2.014916012e-13)
(-0.0161768879 0.04872027382 1.994376886e-13)
(-0.01960179078 0.07306703999 2.988720382e-13)
(-0.01972807959 0.07195715116 3.004124727e-13)
(-0.01965073477 0.07782470101 3.249067682e-13)
(-0.01954757328 0.07913262798 3.236855228e-13)
(-0.01604620192 0.08767232768 3.589073483e-13)
(-0.01608061449 0.08590210339 3.589489816e-13)
(-0.01419501655 0.08586600508 0)
(-0.01416268045 0.08764463528 0)
(-0.008524618525 0.08753063522 0)
(-0.008540516739 0.08664137654 0)
(-0.007605598199 0.08662279866 0)
(-0.007597563044 0.08706759155 0)
(-0.007589493404 0.08751205307 0)
(0.007143637758 0.08713448624 0)
(0.007117567218 0.08624502446 0)
(0.008054714795 0.08622830186 0)
(0.008081074549 0.08711775767 0)
(0.01444801223 0.08570377471 3.536060333e-13)
(0.01431646238 0.08346219966 3.51538243e-13)
(0.0155451996 0.0801594332 3.377298441e-13)
(0.01575132528 0.08269631748 3.412964356e-13)
(0.01662822366 0.06481148347 2.675082378e-13)
(0.0163448347 0.06250120552 2.633587792e-13)
(0.01549686326 0.05454328047 2.297606549e-13)
(0.01599004473 0.05738621137 2.368244489e-13)
(0.01089853557 0.03161385485 1.302985497e-13)
(0.01021488426 0.02904210004 1.221800439e-13)
(0.007919737851 0.02116915172 8.9012131e-14)
(0.008605352574 0.02346978704 9.668654766e-14)
(0.002157626763 0.00499408932 2.053912596e-14)
(0.001884331823 0.004273633254 1.794397964e-14)
(0.0006120074989 0.001321638971 5.551115123e-15)
(0.00077031498 0.001697752056 6.980527267e-15)
(0 0 0)
(0 0 0)
(0 0 0)
(0 0 0)
(0 0 0)
(0 0 0)
(0 0 0)
(0 0 0)
(0 0 0)
(0 0 0)
(0 0 0)
(0 0 0)
(0 0 0)
(0 0 0)
(0 0 0)
(0 0 0)
(0 0 0)
(0 0 0)
(0 0 0)
(0 0 0)
(0 0 0)
(0 0 0)
(0 0 0)
(0 0 0)
(0 0 0)
(0 0 0)
(0 0 0)
(0 0 0)
(-0.00116910988 0.002126136333 9.950373858e-15)
(-0.001065860371 0.00198362437 9.076073226e-15)
(-0.0009121947853 0.00173617632 7.771561172e-15)
(-0.004537389875 0.009484523446 4.238276397e-14)
(-0.00487505431 0.009963251822 4.551914401e-14)
(-0.007393432044 0.01588521441 7.253919687e-14)
(-0.006980468716 0.01534114485 6.850076062e-14)
(-0.01484094027 0.03850416386 1.715988462e-13)
(-0.01511627299 0.03832809706 1.746658373e-13)
(-0.01717980752 0.04632277034 2.109701303e-13)
(-0.0169527492 0.04677933277 2.083611061e-13)
(-0.02014101702 0.06863591026 3.054778652e-13)
(-0.02021155097 0.06726896755 3.06143999e-13)
(-0.02010009125 0.07257548892 3.302913498e-13)
(-0.01998313307 0.07389612354 3.28903571e-13)
(-0.01618161483 0.08056949717 0)
(-0.01621638517 0.07879108261 0)
(-0.01432796775 0.07875296417 0)
(-0.01431075425 0.07964186499 0)
(-0.01429378693 0.08053085357 0)
(-0.008649812522 0.08041693799 0)
(-0.008657625726 0.07997288451 0)
(-0.008190039092 0.07996375828 0)
(-0.008182269766 0.08040768865 0)
(-0.0005397792191 0.08014384451 0)
(-0.0005495089688 0.07992249613 0)
(-0.0005577505362 0.07970107565 0)
(-9.98490261e-05 0.0796968203 0)
(-8.117803284e-05 0.08013924403 0)
(0.006914552999 0.0800298802 0)
(0.006881700818 0.07914427862 0)
(0.006848481913 0.07825893262 0)
(0.008728300632 0.07822475326 0)
(0.008792365156 0.07999661032 0)
(0.007853808557 0.08001315537 0)
(0.01382690863 0.07632684275 3.428923812e-13)
(0.01358674175 0.07357323082 3.380073998e-13)
(0.01447735289 0.0691543096 3.17787463e-13)
(0.01486187715 0.07241626427 3.254063685e-13)
(0.01495309962 0.05382309419 2.418620859e-13)
(0.01441436886 0.05079566773 2.334105131e-13)
(0.0133644635 0.0433090933 1.98951966e-13)
(0.01392821357 0.04611305284 2.071398608e-13)
(0.008465395342 0.02260268907 1.013911177e-13)
(0.007955704601 0.02078163137 9.532652445e-14)
(0.005818821059 0.01428416657 6.547540288e-14)
(0.006267596867 0.01572803005 7.051303985e-14)
(0.00089102676 0.001896109766 8.493206138e-15)
(0.0007243213488 0.001507582079 6.89726054e-15)
(5.742798581e-05 0.0001138051081 5.273559367e-16)
(0.0001097196439 0.000222308217 9.853229344e-16)
(0 0 0)
(0 0 0)
(0 0 0)
(0 0 0)
(0 0 0)
(0 0 0)
(0 0 0)
(0 0 0)
(0 0 0)
(0 0 0)
(0 0 0)
(0 0 0)
(0 0 0)
(0 0 0)
(0 0 0)
(0 0 0)
(0 0 0)
(0 0 0)
(0 0 0)
(0 0 0)
(0 0 0)
(0 0 0)
(0 0 0)
(0 0 0)
(0 0 0)
(0 0 0)
(0 0 0)
(0 0 0)
(-0.001108708438 0.001837313476 9.478529073e-15)
(-0.001252939051 0.002129454013 1.071365219e-14)
(-0.001338842696 0.00233223237 1.144917494e-14)
(-0.005399326598 0.01033036484 5.064004771e-14)
(-0.005225811602 0.009754431716 4.901634654e-14)
(-0.007794519102 0.01529511134 7.679967773e-14)
(-0.008002300052 0.01609637308 7.885359032e-14)
(-0.01579705981 0.03749391765 1.832839436e-13)
(-0.0155430019 0.03597947275 1.802585858e-13)
(-0.01757805432 0.04326197251 2.166183899e-13)
(-0.01782574365 0.04498873998 2.197964033e-13)
(-0.02060750857 0.06419696779 3.134020821e-13)
(-0.0204439034 0.06207333396 3.105571356e-13)
(-0.020175906 0.06646046621 3.325395515e-13)
(-0.0202928177 0.06859920241 3.34926531e-13)
(-0.01611212046 0.07343408543 0)
(-0.01614887996 0.07165542265 0)
(-0.01425519285 0.07161628595 0)
(-0.01423681737 0.07250541077 0)
(-0.01421843335 0.07339494874 0)
(-0.008537454658 0.07327754036 0)
(-0.008555838676 0.07238800238 0)
(-0.007609036437 0.07236843489 0)
(-0.007599840159 0.07281341046 0)
(-0.00759065242 0.07325797286 0)
(-0.008064053539 0.07326775661 0)
(-0.0009628315287 0.07312099616 0)
(-0.0009720184767 0.07267643374 0)
(-0.0009812143591 0.07223145816 0)
(-3.438302868e-05 0.07221189007 0)
(-1.599901093e-05 0.07310142804 0)
(0.006611794317 0.07296445191 0)
(0.00657503482 0.07118578913 0)
(0.008439061285 0.07087522231 3.575750807e-13)
(0.008499291762 0.07286778301 3.586575481e-13)
(0.01288296621 0.06568286532 3.237549118e-13)
(0.01256403994 0.0627260384 3.168437734e-13)
(0.01317503124 0.05786702306 2.92349478e-13)
(0.01355932252 0.06086819493 3.00065528e-13)
(0.01254798932 0.04135390303 2.038091917e-13)
(0.01204074347 0.03876618265 1.958017082e-13)
(0.01072760159 0.03171600386 1.601357935e-13)
(0.01146226649 0.03471102719 1.710298569e-13)
(0.006003960574 0.014636249 7.199796315e-14)
(0.005232168615 0.01244918611 6.275535647e-14)
(0.003554495791 0.007945920871 4.002354004e-14)
(0.004050469403 0.009276992993 4.560241074e-14)
(0.0001491238039 0.0002895199637 1.415534356e-15)
(6.735777468e-05 0.0001276348525 6.383782392e-16)
(0 0 0)
(0 0 0)
(0 0 0)
(0 0 0)
(0 0 0)
(0 0 0)
(0 0 0)
(0 0 0)
(0 0 0)
(0 0 0)
(0 0 0)
(0 0 0)
(0 0 0)
(0 0 0)
(0 0 0)
(0 0 0)
(0 0 0)
(0 0 0)
(0 0 0)
(0 0 0)
(0 0 0)
(0 0 0)
(0 0 0)
(0 0 0)
(0 0 0)
(0 0 0)
(0 0 0)
(0 0 0)
(0 0 0)
(0 0 0)
(-0.0002589679844 0.0003852694889 2.220446049e-15)
(-0.0004698954969 0.000718968475 4.024558464e-15)
(-0.0006981097441 0.001097722561 5.967448757e-15)
(-0.004004500307 0.006915510283 3.75671716e-14)
(-0.003421449801 0.005749776742 3.211320099e-14)
(-0.00557228214 0.009844246183 5.492828414e-14)
(-0.006303187763 0.01144280675 6.211697823e-14)
(-0.013620809 0.02915862682 1.57943103e-13)
(-0.01262826901 0.02630887385 1.464800503e-13)
(-0.01465205404 0.0324460672 1.805361416e-13)
(-0.01566016992 0.03563466561 1.929012505e-13)
(-0.01899131839 0.05324813171 2.879502192e-13)
(-0.01815655106 0.04953040439 2.753075545e-13)
(-0.01829747655 0.05410791774 3.007316618e-13)
(-0.01901067728 0.05778985684 3.125139036e-13)
(-0.01607487086 0.06559858657 3.550770789e-13)
(-0.01583137635 0.06277930485 3.492067746e-13)
(-0.01427312088 0.06395146979 3.559097461e-13)
(-0.01435645897 0.06623986094 3.587408148e-13)
(-0.008684509722 0.0661620629 0)
(-0.008721277758 0.06438298695 0)
(-0.006827631965 0.06434385111 0)
(-0.00679086393 0.06612292706 0)
(-0.007737707484 0.0661424954 0)
(-0.001109885235 0.06600551867 0)
(-0.00114665327 0.06422644273 0)
(0.0007470049172 0.06418730663 0)
(0.0007837729527 0.06596638258 0)
(0.006414386932 0.0652630073 3.557432127e-13)
(0.006292011289 0.06251394841 3.502198531e-13)
(0.007914569005 0.06056664793 3.394784454e-13)
(0.008119576224 0.06373547154 3.47610829e-13)
(0.01151043247 0.05330854647 2.910449659e-13)
(0.01101332209 0.04963213789 2.784716902e-13)
(0.01124088064 0.0445007432 2.496891582e-13)
(0.01182264078 0.04810989761 2.626787676e-13)
(0.009960379582 0.02968850561 1.620092949e-13)
(0.00925318496 0.02682696758 1.50421342e-13)
(0.007846916432 0.02089240834 1.171007735e-13)
(0.008539964011 0.02337591771 1.274952366e-13)
(0.003348048299 0.007374871586 4.016231792e-14)
(0.002876536069 0.006164188408 3.450018049e-14)
(0.001471527779 0.002963059034 1.657007864e-14)
(0.001998940277 0.004137526489 2.252364961e-14)
(0 0 0)
(0 0 0)
(0 0 0)
(0 0 0)
(0 0 0)
(0 0 0)
(0 0 0)
(0 0 0)
(0 0 0)
(0 0 0)
(0 0 0)
(0 0 0)
(0 0 0)
(0 0 0)
(0 0 0)
(0 0 0)
(0 0 0)
(0 0 0)
(0 0 0)
(0 0 0)
(0 0 0)
(0 0 0)
(0 0 0)
(0 0 0)
(0 0 0)
(0 0 0)
(0 0 0)
(0 0 0)
(0 0 0)
(0 0 0)
(0 0 0)
(0 0 0)
(0 0 0)
(0 0 0)