/*--------------------------------*- C++ -*----------------------------------*\
| =========                 |                                                 |
| \\      /  F ield         | OpenFOAM: The Open Source CFD Toolbox           |
|  \\    /   O peration     | Version:  v1912                                 |
|   \\  /    A nd           | Website:  www.openfoam.com                      |
|    \\/     M anipulation  |                                                 |
\*---------------------------------------------------------------------------*/
FoamFile
{
    version     2.0;
    format      ascii;
    class       surfaceScalarField;
    location    "1.29";
    object      meshPhi;
}
// * * * * * * * * * * * * * * * * * * * * * * * * * * * * * * * * * * * * * //

dimensions      [0 3 -1 0 0 0 0];
oriented        oriented;


internalField   nonuniform List<scalar> 
25162
(
0
0
0
0
0
0
0
0
0
0
0
0
0
0
0
0
0
0
0
0
0
0
0
0
0
0
0
0
0
0
0
0
0
0
0
0
0
0
0
0
0
0
0
0
0
0
0
0
0
0
0
0
0
0
0
0
0
0
0
0
0
0
0
0
0
0
0
0
0
0
0
0
0
0
0
0
0
0
0
0
0
0
0
0
0
0
0
0
0
0
0
0
0
0
0
0
0
0
0
0
0
0
0
0
-3.591271422e-10
-1.194677986e-07
1.337824217e-06
0
-1.114075417e-09
-1.137283827e-06
0
0
0
0
0
0
0
0
0
0
0
0
0
0
0
0
0
0
0
0
0
0
0
0
0
0
0
0
0
0
0
0
0
0
0
0
0
0
0
0
0
0
0
0
0
0
0
0
0
0
0
0
0
0
0
0
0
0
0
0
0
0
0
0
0
0
1.377130502e-09
1.938089643e-06
-1.308988016e-07
-1.230880668e-05
5.285491762e-07
0.0001099413322
-1.246266614e-06
-0.0001556070434
6.707063404e-07
0.000287557922
-1.096920696e-06
-0.0003212592595
-1.023818981e-07
0.0003681368266
3.374292007e-07
-0.0003630710337
-5.787336546e-07
0.0002892168056
1.140375133e-06
-0.0002489495169
-2.649487418e-07
0.0001113570991
7.217176299e-07
-6.960895671e-05
0
2.087527003e-06
1.784232549e-08
0
0
0
0
0
0
0
0
0
0
0
0
0
0
0
0
0
0
0
0
0
0
0
0
0
0
0
0
0
0
0
0
0
0
0
0
0
0
0
0
0
0
0
0
0
0
0
0
0
0
0
6.802541319e-08
4.085620008e-06
-3.654823037e-07
-2.940231248e-05
2.826909704e-06
0.0002602776819
-4.530119257e-06
-0.0003729267469
4.950474254e-06
0.0007457327352
-6.534290313e-06
-0.0008656557681
2.202941e-06
0.001159864522
-2.324913141e-06
-0.001227485543
-2.432893658e-06
0.001318468556
3.704092642e-06
-0.001309541312
-4.53884508e-06
0.001166861713
6.336164253e-06
-0.001083643697
-3.384078709e-06
0.0007542855687
4.748511768e-06
-0.000628538603
-1.228273258e-06
0.0002647887024
1.979144132e-06
-0.0001653233268
0
4.14430285e-06
1.060971985e-07
0
0
0
0
0
0
0
0
0
0
0
0
0
0
0
0
0
0
0
0
0
0
0
0
0
0
0
0
0
0
0
0
0
0
0
0
0
0
0
0
0
0
0
0
0
-2.50923814e-08
-1.518518306e-06
3.481216292e-06
0.0001878569026
-6.76841837e-06
-0.0003232991931
1.141446638e-05
0.0008628934057
-1.404290658e-05
-0.001063344504
1.130280846e-05
0.00163331105
-1.276470142e-05
-0.001795452949
1.980463073e-06
0.002156428926
-1.698767843e-06
-0.002231957771
-8.764634537e-06
0.002329164827
1.053874843e-05
-0.002320276829
-1.356791278e-05
0.002166772469
1.627500235e-05
-0.002070856558
-1.027516916e-05
0.001648826234
1.256294955e-05
-0.001469791499
-1.788372783e-05
0.0009001622545
2.415154834e-05
-0.0007137268715
-1.182064405e-06
0.0002174724588
1.607155543e-06
-0.0001086746095
0
0
0
0
0
0
0
0
0
0
0
0
0
0
0
0
0
0
0
0
0
0
0
0
0
0
0
0
0
0
0
0
0
0
0
0
0
0
0
0
0
0
6.933831491e-07
2.142223381e-05
-1.198281688e-06
-9.287752978e-05
1.06668886e-05
0.0005675757292
-1.248131988e-05
-0.0007896869406
4.044224615e-05
0.001552553334
-3.166621889e-05
-0.001808217877
2.214680206e-05
0.002402686685
-4.054772796e-05
-0.002529891779
2.238857327e-06
0.00277569504
-6.698053702e-06
-0.002806913934
-1.444210939e-05
0.002834738709
1.476437603e-05
-0.002832809543
-2.979212411e-05
0.00278460237
3.325914545e-05
-0.002731544123
-7.608340685e-05
0.002452795293
7.310624774e-05
-0.002269957539
-8.007680517e-06
0.001576012957
9.059388918e-06
-0.001328642843
-3.040705091e-06
0.0006090656557
3.915319471e-06
-0.0004074455481
2.823194083e-05
-1.67670772e-07
2.877047252e-07
-4.313040758e-07
0
0
0
0
0
0
0
0
0
0
0
0
0
0
0
0
0
0
0
0
0
0
0
0
0
0
0
0
0
0
0
0
0
0
0
-2.28717772e-08
-1.55191141e-08
-5.866327004e-07
2.840781157e-06
0.000105864281
-3.48452106e-06
-0.0002388523188
1.981104598e-05
0.0008853666357
-1.941681248e-05
-0.001166286507
2.339972923e-05
0.001998674366
-2.543418994e-05
-0.00224162984
4.397345132e-05
0.00277361297
-2.249830771e-05
-0.002879089581
4.861876374e-05
0.002972702372
-9.023280445e-05
-2.372357816e-05
-0.001435699549
-0.001471665204
0.001427629964
-5.816001122e-06
5.720483988e-06
-0.001427534447
0.001466603599
-9.44621648e-05
-0.002945513859
0.001489836065
2.778860422e-05
5.574775644e-05
0.002774418873
-2.632163411e-05
3.118150592e-05
-0.002659367858
-2.019045084e-05
0.0020741343
2.161331078e-05
-0.001812335537
-4.799996667e-06
0.000965887903
4.109691531e-06
-0.0007111172604
0.0001435694329
-8.446271624e-07
1.045764575e-06
-4.572344057e-05
0
0
0
0
0
0
0
0
0
0
0
0
0
0
0
0
0
0
0
0
0
0
0
0
0
0
0
0
0
0
0
0
0
9.06224686e-08
0
-1.725854575e-07
-5.32630672e-06
-8.101577113e-06
4.782377545e-06
0.0001737425311
-4.935248187e-06
-0.0003400525193
2.121098422e-05
0.001078806169
-2.128354645e-05
-0.001370804413
2.469721927e-05
0.002216324804
-2.248118045e-05
-0.00245094745
9.778206663e-06
0.002881832934
-6.084633654e-06
-0.002913137758
3.71926794e-06
0.0014765856
-6.049849661e-06
-0.001474255018
0.001462321146
-1.876658905e-05
1.659537105e-05
-0.001460149928
0.002886345766
-3.294734809e-05
3.428000672e-05
-0.002824241452
-1.369638517e-05
0.002318324139
1.389307036e-05
-0.00206663642
-4.822535632e-06
0.001202772983
6.216658869e-06
-0.0009193541542
0.0002492667239
-1.454080563e-06
1.55135648e-06
-0.0001094356064
0
0
0
0
0
0
0
0
0
0
0
0
0
0
0
0
0
0
0
0
0
0
0
0
0
0
0
0
0
0
0
0
0
2.029325947e-07
0
-2.489269721e-07
-1.433351389e-05
-1.608479483e-05
5.688998664e-06
0.0002140396746
-5.867982372e-06
-0.0003944674844
2.213140328e-05
0.001161939583
-2.228501481e-05
-0.001457282183
2.136899377e-05
0.00229173583
-2.121136739e-05
-0.002513819716
2.711735088e-06
0.002884584497
-2.497990726e-06
-0.002896736509
-2.19226328e-06
0.001449169113
2.191994935e-06
-0.001449168845
0.001457690375
-1.215477599e-05
1.141493039e-05
-0.001456950529
0.002908549731
-2.920849511e-05
2.802306753e-05
-0.002871904128
-1.434275986e-05
0.002427271232
1.431357569e-05
-0.002187108941
-4.214031663e-06
0.001328234519
4.210530326e-06
-0.001035852709
0.0003085491868
-1.705320842e-06
1.732163855e-06
-0.0001501076565
0
0
0
0
0
0
0
0
0
0
0
0
0
0
0
0
0
0
0
0
0
0
0
0
0
0
0
0
0
0
0
0
0
3.029134766e-07
0
-3.764127338e-07
-2.140082164e-05
-2.374114693e-05
6.306869235e-06
0.0002390930973
-6.487495633e-06
-0.0004270998527
2.28327658e-05
0.001208211462
-2.303518681e-05
-0.001504378984
2.108629944e-05
0.002329608416
-2.103294204e-05
-0.002545095356
2.256786791e-06
0.002889125651
-2.331935206e-06
-0.002895692745
-2.32503792e-06
0.001446835247
1.853896786e-06
-0.0007228277783
-0.0007235363279
0.001455502357
-9.450515729e-06
8.976503737e-06
-0.001455028345
0.002904022707
-2.585658328e-05
2.527108241e-05
-0.002865724033
-1.316197043e-05
0.002417158
1.273683731e-05
-0.002176517298
-3.779248828e-06
0.001317606388
3.745227887e-06
-0.001026502378
0.000303876874
-1.643767196e-06
1.624306247e-06
-0.0001469667317
0
0
0
0
0
0
0
0
0
0
0
0
0
0
0
0
0
0
0
0
0
0
0
0
0
0
0
0
0
0
0
0
0
4.512964704e-07
0
-5.375097407e-07
-3.148220907e-05
-3.437667995e-05
7.053414004e-06
0.0002699446535
-7.25297681e-06
-0.0004668562682
2.361081316e-05
0.001264610991
-2.381633051e-05
-0.001562177485
2.085548392e-05
0.002378420905
-2.078976847e-05
-0.002586812662
2.116310195e-06
0.002901482837
-2.076726502e-06
-0.002903986499
-2.054567797e-06
0.001451487311
1.91949472e-06
-0.0007255569908
-0.000725795247
0.001456784359
-7.807029906e-06
7.396727051e-06
-0.001456374056
0.002899253383
-2.241701455e-05
2.199328128e-05
-0.00283448016
-1.128009043e-05
0.002318362338
1.125279008e-05
-0.002072704619
-3.378057374e-06
0.001205799794
3.257891669e-06
-0.0009210514347
0.0002405242261
-1.363820472e-06
1.323422652e-06
-0.000103258418
0
0
0
0
0
0
0
0
0
0
0
0
0
0
0
0
0
0
0
0
0
0
0
0
0
0
0
0
0
0
0
0
0
6.527942546e-07
0
-6.985164584e-07
-4.488073263e-05
-4.617490294e-05
7.905614825e-06
0.0003056446264
-8.16104305e-06
-0.0005118982788
2.442525381e-05
0.001326022012
-2.466494471e-05
-0.001624390464
2.056519627e-05
0.002428500834
-2.047345635e-05
-0.002628552977
1.923499948e-06
0.002909887108
-2.11053426e-06
-0.002909920788
-1.581884393e-06
0.001454658541
1.58208091e-06
-0.0007270073195
-0.0007276514176
0.001455277307
-6.152835639e-06
6.144541772e-06
-0.001455269013
0.002857009147
-2.038453522e-05
1.965747063e-05
-0.002750571714
-9.577798866e-06
0.002151103564
8.653529915e-06
-0.001889975985
-2.901234659e-06
0.001022219301
2.562667997e-06
-0.0007516603755
0.0001559091055
-9.605293089e-07
8.281476737e-07
-5.075760934e-05
0
0
0
0
0
0
0
0
0
0
0
0
0
0
0
0
0
0
0
0
0
0
0
0
0
0
0
0
0
0
0
0
0
1.073522503e-06
0
-2.053610067e-06
-6.837730528e-05
-7.767788926e-05
8.883931237e-06
0.0003567408779
-9.564386724e-06
-0.0005722648856
2.544998847e-05
0.001405487354
-2.560976203e-05
-0.001702397812
2.007710705e-05
0.002484185913
-2.044973952e-05
-0.002677155673
1.895927416e-06
0.002916256939
-2.775453814e-06
-0.001457550066
-0.001457827346
-6.699999623e-07
0.0007279815302
4.671335989e-07
-0.0007277786639
4.729736434e-06
0.0003630376993
-5.280042819e-06
-0.0007256288787
0.0003631414858
0.001452407328
-6.055717783e-06
1.370612445e-05
-0.002906227238
0.0014524067
-6.237196916e-06
-1.956969035e-05
0.0027604208
1.724036025e-05
-0.002605552226
-6.546113039e-06
0.001924975832
6.279290224e-06
-0.001644777076
-2.372135127e-06
0.0007969281929
2.401769311e-06
-0.0005510857003
6.242783429e-05
-3.890865522e-07
3.172798773e-07
-6.151435311e-06
0
0
0
0
0
0
0
0
0
0
0
0
0
0
0
0
0
0
0
0
0
0
0
0
0
0
0
0
0
0
0
0
0
1.50152465e-06
0
-1.218120247e-06
-9.025781301e-05
-8.232373327e-05
1.057651133e-05
0.0004060274855
-1.022234708e-05
-0.0006342198708
2.639878026e-05
0.001481459481
-2.599861141e-05
-0.001778404799
1.889886537e-05
0.002542143039
-1.904508516e-05
-0.002719046086
1.072912531e-06
0.00292335872
-1.072912524e-06
-0.00146181233
-0.001461546389
-1.42920306e-06
0.00146181233
2.97546603e-06
-1.54626295e-06
-0.0007305150184
-0.0007312973118
-6.721706438e-06
0.0007305150238
6.721698318e-06
-0.00146181233
0.0007312973145
0.00292335872
-2.133674396e-05
2.10785722e-05
-0.002916383695
-1.42744732e-05
0.002589078052
1.52055491e-05
-0.002395553251
-6.39534876e-06
0.00161948175
6.843684535e-06
-0.001342724697
-2.233977956e-06
0.00054620398
2.393499029e-06
-0.00034751198
8.389174726e-06
-6.990910623e-08
3.281084489e-08
0
0
0
0
0
0
0
0
0
0
0
0
0
0
0
0
0
0
0
0
0
0
0
0
0
0
0
0
0
0
0
0
0
0
7.386107346e-07
0
-2.62729993e-07
-4.080047105e-05
-2.546934331e-05
7.774685187e-06
0.0002849128954
-6.633443566e-06
-0.0004788396029
2.292127082e-05
0.001246195407
-2.127890895e-05
-0.001528759392
1.95564164e-05
0.002304674349
-1.948108397e-05
-0.002508394514
2.379442534e-06
0.002877144538
-3.521456806e-06
-0.002918260827
-2.975466032e-06
0.002930650205
6.419332097e-06
-0.002930650205
-3.443866071e-06
-1.391163005e-05
0.002930650205
1.391163004e-05
-0.002930650205
-1.920075659e-05
0.002881024967
1.811609339e-05
-0.00280324012
-1.194004065e-05
0.002321450651
1.092757896e-05
-0.002088046435
-3.898048179e-06
0.001272773469
3.685348322e-06
-0.0009964785591
-1.644534811e-06
0.0003043278602
1.305701146e-06
-0.0001593421445
0
0
0
0
0
0
0
0
0
0
0
0
0
0
0
0
0
0
0
0
0
0
0
0
0
0
0
0
0
0
0
0
0
0
0
0
0
6.294247449e-09
0
0
-2.225751966e-07
0
3.054984062e-06
9.539872314e-05
-2.027962319e-06
-0.0002136231338
1.488134064e-05
0.0007820419427
-1.246171477e-05
-0.001016150568
1.752474595e-05
0.001730112638
-1.620410877e-05
-0.001945629718
6.331558514e-06
0.00244915191
-6.879335678e-06
-0.002562377374
-5.293303585e-06
0.002753252794
4.396942811e-06
-0.002776832348
-1.263950679e-05
0.002754285741
1.145324365e-05
-0.002713392759
-1.367401511e-05
0.002454487994
1.192693923e-05
-0.002315291748
-7.622168071e-06
0.001744406065
6.552657441e-06
-0.001515313307
-2.904038868e-06
0.0008030545069
2.587782899e-06
-0.0005850028812
-6.586850238e-07
0.0001065480824
4.2106524e-07
-2.912646699e-05
0
0
0
0
0
0
0
0
0
0
0
0
0
0
0
0
0
0
0
0
0
0
0
0
0
0
0
0
0
0
0
0
0
0
0
0
0
0
0
0
0
0
1.84027007e-07
2.152283798e-07
-2.881258917e-08
-1.612413968e-05
5.5770184e-06
0.0002748900116
-3.719202602e-06
-0.0004174554154
1.068121724e-05
0.0009257141745
-8.594638981e-06
-0.001100376366
6.884551021e-06
0.00156382223
-6.337556076e-06
-0.001685462418
-1.253575308e-06
0.001923156955
3.609401442e-07
-0.001957591391
-6.694914853e-06
0.001924688626
5.095340158e-06
-0.001868532686
-6.749332499e-06
0.001570238138
5.251499279e-06
-0.001431833681
-3.745877073e-06
0.0009391327563
2.964511472e-06
-0.0007641335943
-1.437698493e-06
0.0002886826055
1.014082275e-06
-0.0001681851086
-7.179228233e-09
7.145513874e-07
0
0
0
0
0
0
0
0
0
0
0
0
0
0
0
0
0
0
0
0
0
0
0
0
0
0
0
0
0
0
0
0
0
0
0
0
0
0
0
0
0
0
0
0
0
0
0
0
3.732691885e-07
7.112636953e-06
-5.469806671e-08
-3.284737028e-05
3.034763941e-06
0.0002259077069
-1.718039733e-06
-0.0003137835495
3.617299338e-06
0.0005848825427
-2.600108383e-06
-0.0006647179868
9.932113576e-07
0.0008320329326
-9.910801776e-07
-0.000857754434
-1.524318735e-06
0.000834365807
8.543552527e-07
-0.000793886579
-1.947819946e-06
0.0005918870595
1.251754576e-06
-0.0005053491907
-1.069207913e-06
0.0002346640947
6.026289336e-07
-0.0001546606595
-6.380797439e-08
8.843867633e-06
1.862664431e-10
-9.508222395e-08
0
0
0
0
0
0
0
0
0
0
0
0
0
0
0
0
0
0
0
0
0
0
0
0
0
0
0
0
0
0
0
0
0
0
0
0
0
0
0
0
0
0
0
0
0
0
0
0
0
0
0
0
0
0
8.255508007e-09
0
0
-1.160663912e-06
3.488508136e-07
3.162113901e-05
-5.39275359e-08
-4.893494525e-05
3.197630849e-07
9.530610544e-05
-1.124033356e-07
-0.0001035435307
-5.496726753e-08
9.644613624e-05
1.07873539e-08
-8.418693448e-05
-1.223643309e-07
3.35063315e-05
1.044646118e-08
-1.846705616e-05
0
0
0
0
0
0
0
0
0
0
0
0
0
0
0
0
0
0
0
0
0
0
0
0
0
0
0
0
0
0
0
0
0
0
0
0
0
0
0
0
0
0
0
0
0
0
0
0
0
0
0
0
0
0
0
0
0
0
0
0
0
0
0
0
0
0
0
0
0
0
0
0
0
0
0
0
0
0
0
0
0
0
0
0
0
0
0
0
0
0
0
0
0
0
0
0
0
0
0
0
0
0
0
0
0
0
0
0
0
0
0
0
0
0
0
0
0
0
0
0
0
0
0
0
0
0
0
0
0
0
0
0
0
0
0
0
0
0
0
0
0
0
0
0
0
0
0
0
0
0
0
0
0
0
0
0
0
0
0
0
0
0
0
0
0
0
0
0
0
0
0
0
0
0
0
0
0
0
0
0
0
0
0
0
0
0
0
0
0
0
0
0
0
0
0
0
0
0
0
0
0
0
0
0
0
0
0
0
0
0
0
0
0
0
0
0
0
0
0
0
0
0
0
0
0
0
0
0
0
0
0
0
0
0
0
0
0
0
0
0
0
0
0
0
0
0
0
0
0
0
0
0
0
0
0
0
0
0
0
0
0
0
0
0
0
0
0
0
0
0
0
0
0
0
0
0
0
0
0
0
0
0
0
0
0
0
0
0
0
0
0
0
0
0
0
0
0
0
0
0
0
0
0
0
0
0
0
0
0
0
0
0
0
0
0
0
0
0
0
0
0
0
0
0
0
0
0
0
0
0
0
0
0
0
0
0
0
0
0
0
0
0
0
0
0
0
0
0
0
0
0
0
0
0
0
0
0
0
0
0
0
0
0
0
0
0
0
0
0
0
0
0
0
0
0
0
0
0
0
0
0
0
0
0
0
0
0
0
0
0
0
0
0
0
0
0
0
0
0
0
0
0
0
0
0
0
0
0
0
0
0
0
0
0
0
0
0
0
0
0
0
0
0
0
0
0
0
0
0
0
0
0
0
0
0
0
0
0
0
0
0
0
0
0
0
0
0
0
0
0
0
0
0
0
0
0
0
0
0
0
0
0
0
0
0
0
0
0
0
0
0
0
0
0
0
0
0
0
0
0
0
0
0
0
0
0
0
0
0
0
0
0
0
0
0
0
0
0
0
0
0
0
0
0
0
0
0
0
0
0
0
0
0
0
0
0
0
0
0
0
0
0
0
0
0
0
0
0
0
0
0
0
0
0
0
0
0
0
0
0
0
0
0
0
0
0
0
0
0
0
0
0
0
0
0
0
0
0
0
0
0
0
0
0
0
0
0
0
0
0
0
0
0
0
0
0
0
0
0
0
0
0
0
0
0
0
0
0
0
0
0
0
0
0
0
0
0
0
0
0
0
0
0
0
0
0
0
0
0
0
0
0
0
0
0
0
0
0
0
0
0
0
0
0
0
0
0
0
0
0
0
0
0
0
0
0
0
0
0
0
0
0
0
0
0
0
0
0
0
0
0
0
0
0
0
0
0
0
0
0
0
0
0
0
0
0
0
0
0
0
0
0
0
0
0
0
0
0
0
0
0
0
0
0
0
0
0
0
0
0
0
0
0
0
0
0
0
0
0
0
0
0
0
0
0
0
0
0
0
0
0
0
0
0
0
0
0
0
0
0
0
0
0
0
0
0
0
0
0
0
0
0
0
0
0
0
0
0
0
0
0
0
0
0
0
0
0
0
0
0
0
0
0
0
0
0
0
0
0
0
0
0
0
0
0
0
0
0
0
0
0
0
0
0
0
0
0
0
0
0
0
0
0
0
0
0
0
0
0
0
0
0
0
0
0
0
0
0
0
0
0
0
0
0
0
0
0
0
0
0
0
0
0
0
0
0
0
0
0
0
0
0
0
0
0
0
0
0
0
0
0
0
0
0
0
0
0
0
0
0
0
0
0
0
0
0
0
0
0
0
0
0
0
0
0
0
0
0
0
0
0
0
0
0
0
0
0
0
0
0
0
0
0
0
0
0
0
0
0
0
0
0
0
0
0
0
0
0
0
0
0
0
0
0
0
0
0
0
0
0
0
0
0
0
0
0
0
0
0
0
0
0
0
0
0
0
0
0
0
0
0
0
0
0
0
0
0
0
0
0
0
0
0
0
0
0
0
0
0
0
0
0
0
0
0
0
0
0
0
0
0
0
0
0
0
0
0
0
0
0
0
0
0
0
0
0
0
0
0
0
0
0
0
0
0
0
0
0
0
0
0
0
0
0
0
0
0
0
0
0
0
0
0
0
0
0
0
0
0
0
0
0
0
0
0
0
0
0
0
0
0
0
0
0
0
0
0
0
0
0
0
0
0
0
0
0
0
0
0
0
0
0
0
0
0
0
0
0
0
0
0
0
0
0
0
0
0
0
0
0
0
0
0
0
0
0
0
0
0
0
0
0
0
0
0
0
0
0
0
0
0
0
0
0
0
0
0
0
0
0
0
0
0
0
0
0
0
0
0
0
0
0
0
0
0
0
0
0
0
0
0
0
0
0
0
0
0
0
0
0
0
0
0
0
0
0
0
0
0
0
0
0
0
0
0
0
0
0
0
0
0
0
0
0
0
0
0
0
0
0
0
0
0
0
0
0
0
0
0
0
0
0
0
0
0
0
0
0
0
0
0
0
0
0
0
0
0
0
0
0
0
0
0
0
0
0
0
0
0
0
0
0
0
0
0
0
0
0
0
0
0
0
0
0
0
0
0
0
0
0
0
0
0
0
0
0
0
0
0
0
0
0
0
0
0
0
0
0
0
0
0
0
0
0
0
0
0
0
0
0
0
0
0
0
0
0
0
0
0
0
0
0
0
0
0
0
0
0
0
0
0
0
0
0
0
0
0
0
0
0
0
0
0
0
0
0
0
0
0
0
0
0
0
0
0
0
0
0
0
0
0
0
0
0
0
0
0
0
0
0
0
0
0
0
0
0
0
0
0
0
0
0
0
0
0
0
0
0
0
0
0
0
0
0
0
0
0
0
0
0
0
0
0
0
0
0
0
0
0
0
0
0
0
0
0
0
0
0
0
0
0
0
0
0
0
0
0
0
0
0
0
0
0
0
0
0
0
0
0
0
0
0
0
0
0
0
0
0
0
0
0
0
0
0
0
0
0
0
0
0
0
0
0
0
0
0
0
0
0
0
0
0
0
0
0
0
0
0
0
0
0
0
0
0
0
0
0
0
0
0
0
0
0
0
0
0
0
0
0
0.00145096729
-0.001451034019
-2.125533764e-06
1.356994403e-05
-0.001454990372
-1.437611173e-05
0.000729193531
0.0007266030089
-2.687947831e-05
0.001468371878
2.082874573e-05
0.001446490185
-2.661404017e-06
-0.0007234289661
-0.0007227248528
8.310832831e-06
-0.001456835492
-8.986760266e-06
0.0007287064983
0.0007288049211
1.115019156e-05
0.0007302080528
0.0007299020745
0.001450939187
-2.256877487e-06
-0.0007254853683
-0.0007252515094
7.275632199e-06
-0.001455031385
-6.268579587e-06
0.0007267932617
0.0007272310711
7.837183021e-06
0.000727098453
0.0007288775534
0.001453839943
-1.851968707e-06
-0.0007268008545
-0.0007267690045
4.340947193e-06
-0.00145425583
-5.286576462e-06
0.001455201459
0.001457395953
6.664038107e-06
0.0007285558942
-0.0007285562655
-6.696287468e-07
-0.0003636304257
-2.266418655e-06
2.194755602e-06
0.0003637020887
0.0003636035118
-0.0007264818974
3.977696271e-06
4.620039834e-06
-0.001453509975
-4.488335391e-06
0.00145337827
0.001455364085
4.25416918e-06
0.0007310905596
-0.0007310905596
-1.429203062e-06
-0.0007310905746
3.185279629e-06
-3.18531913e-06
0.0007310906141
0.0003633841245
-2.612843845e-06
-0.001461399018
0.0006721786731
3.150980014e-05
1.989826329e-05
-4.509928719e-06
-0.0028921233
0.001458542245
0.001450266254
-6.395067609e-06
-5.78020262e-06
0.001452211405
4.815963268e-06
0.001476059141
-0.001475479035
3.139161813e-06
-5.251536897e-06
0.001428214851
4.666650444e-06
-0.001468795728
-2.461526566e-05
0.001466531515
-3.605944733e-05
0.001455920084
4.674296184e-05
2.100124481e-06
-0.0003677625771
-2.342281221e-06
0.0003680047338
-0.0007418926558
-1.502887583e-05
0.000743928195
1.299333662e-05
-0.001454450435
-1.269471325e-05
2.947018037e-05
-0.002901837193
-3.340645523e-05
0.002906524995
-4.34180848e-05
0.002906371697
3.418637842e-05
0.002886476607
-0.002894310602
2.242931898e-06
1.799227713e-06
-1.8663449e-06
0.001446557302
-1.731858898e-06
0.001449034891
1.866080919e-06
2.178498593e-06
-0.0003643134575
-1.910591533e-06
0.0003640455504
-7.205776739e-07
-0.0003646322578
0.0003641238472
1.228988312e-06
-0.001456496812
-9.789195829e-06
2.528138558e-05
-0.002908530903
-2.630887006e-05
0.002909726733
0.002910337291
2.793569387e-05
0.002899166762
-0.002902535676
2.159738144e-06
1.665701282e-06
-1.732789304e-06
0.001451006275
0.001446902496
1.731979297e-06
1.987724803e-06
0.001449891593
-2.055457499e-06
-0.0007247256535
-0.0007250982067
1.677444741e-06
-0.0003625986955
-1.670006352e-06
0.0007251001796
-0.0003625089225
-1.806547345e-06
-0.0003608618679
0.0007225573732
1.535850719e-06
-0.0003614248087
1.294065562e-06
-0.0003644284589
-1.305726295e-06
0.0003644401196
-2.76225983e-06
-0.0003643966261
0.0003639644241
3.194461805e-06
-0.001455227072
-7.611343177e-06
2.092709709e-05
-0.002899597434
-2.252293152e-05
0.0029069708
0.002905597282
2.424118693e-05
0.002907370388
-0.002907863271
1.751179356e-06
1.399283388e-06
-1.466219505e-06
0.001453906879
0.001451487045
1.665967269e-06
2.324354365e-06
0.00145279505
-2.054252581e-06
-0.0007265820894
-0.0007264830625
9.539846438e-07
-0.000363214041
-1.024778314e-06
0.0003632848346
-1.386123146e-06
-0.000362694867
0.0007255554899
1.451768329e-06
-0.0003629262681
1.230763883e-06
-0.0007272806885
-1.438691282e-06
0.0007274886159
-2.331856559e-06
-0.0007284532675
7.799448053e-07
0.0003653552931
0.0003646498862
0.002914874994
2.236537105e-06
-0.001457401237
-0.001457814366
1.00197372e-06
-0.0007290623706
-1.202958494e-06
0.00145781925
0.001454725382
1.332442318e-06
7.355453568e-07
0.0007284066772
-0.0007284744566
-6.677659594e-07
2.370423432e-06
-0.0003648123041
-2.021578144e-06
0.0003644634588
-1.664583865e-06
-0.0003629015788
0.0003630443131
1.521849575e-06
0.0003663890724
-2.46362948e-07
-0.0003654261732
-7.165362602e-07
1.247939529e-07
-0.0007279691327
1.407692075e-07
0.0007277035696
-8.795130457e-07
-0.0007276665118
0.0007276661036
8.799212852e-07
0.002883628429
-2.659332497e-06
-0.001418497167
-0.001461399018
2.50732564e-06
-0.0007303084581
-2.507325662e-06
0.001461399018
-0.0007295068529
0.001457487138
1.00321924e-06
6.720800858e-07
0.0007294471197
-0.0007293793751
-7.398246893e-07
1.036998896e-06
-0.0003623629807
-1.943540488e-06
0.0003632695223
-2.867108188e-06
-0.0003621440749
0.0003625681428
2.443040257e-06
0.001464705134
-0.001464705134
-2.975466023e-06
-0.001464705134
6.253428967e-06
-6.253428976e-06
0.001464705134
0.0007305150457
3.185257768e-06
-1.840654953e-06
0.0007270415739
1.258453709e-06
-0.0003627814738
-0.0003636778989
2.340064372e-06
0.000724966599
-2.267079163e-06
-0.0003630132
-0.0003620263842
0.0007432279661
1.21942528e-05
-1.369663843e-05
-0.0007417255805
0.0007289995788
-0.0007295623113
-1.277922428e-06
-0.0003649949645
-3.354262161e-07
0.000364609813
-0.0003667662601
0.0003670632963
1.803088313e-06
-1.685782627e-05
-0.001459971525
1.531866272e-05
0.0007321269236
0.0007293837651
-7.924892576e-06
0.0003657066856
6.647775494e-06
-0.0007311958286
1.449134385e-06
-0.0003651878264
-1.256272431e-06
-0.0003607007084
-2.144042366e-06
0.0007224545244
-0.0003614163211
-0.0007229421071
-1.870569643e-06
0.000723009902
1.80277479e-06
-2.392702165e-06
0.001446998745
2.325438779e-06
-0.001446931482
-2.115014472e-06
1.642009628e-06
-0.0003613208684
-0.0003611482338
1.05302371e-06
-0.0003607000612
-1.05367082e-06
0.0007241289028
2.004075108e-06
-0.000361786445
-0.0003620064686
0.0007235769903
-1.983669357e-06
-0.0003620755383
-0.0003616327971
-0.0003637635853
-2.262407578e-06
0.0003632637331
-0.0003651684344
0.000364633679
2.713253999e-06
-5.160357088e-06
-0.0007295915588
0.0007297269989
5.024917022e-06
-2.291050977e-06
2.487375911e-06
-0.0003653647594
2.432010401e-06
-0.0003640502838
-2.145311981e-06
1.701523451e-06
-0.0003648846469
-0.0003645181611
-2.086347348e-06
-0.000728480024
-5.160912314e-06
0.0007284805792
-0.0003624673869
-1.659577983e-06
0.0007250466568
-0.000362305815
-0.0003629635624
0.0007258081203
1.94965016e-06
-0.0003631167634
0.001450844005
2.324450363e-06
-0.0007256733513
-0.000725507379
-1.269666544e-06
1.339187036e-06
-0.0003630330829
6.953031267e-07
-0.0003623966401
-7.660498948e-07
9.841100305e-07
-0.0003607929542
-0.0003627420605
-1.126301523e-06
-0.0007274070675
-2.133344607e-06
0.0003636170996
0.000363591456
-0.000364442133
0.0003643109556
1.425242961e-06
-6.146176861e-06
-0.001454330484
6.410655031e-06
0.0007265119488
0.0007275540573
-2.92965406e-06
0.0003634540408
2.38839971e-06
-0.0007273549194
2.374612763e-06
-0.0007273377161
-2.443964212e-06
2.71804417e-06
-0.0003646826598
0.000363926537
-0.000727927786
-1.399931908e-06
-1.956932072e-06
-0.001454594022
-7.424146002e-06
0.0007278518965
0.0007280200944
-0.000362878099
-1.738437362e-06
0.0003629519525
-0.0003631723711
0.0003631760249
9.503308758e-07
0.001452128162
1.851929067e-06
-0.0007261137665
-0.0007255419706
-1.195821943e-06
9.864035748e-07
-0.0003629629527
2.265777066e-06
-0.0003626640925
-2.479783548e-06
6.935538781e-07
-0.0003626931178
-0.0003631396839
-1.270179012e-06
-0.0007281001125
-8.840756171e-07
0.000728104675
-0.0007277960594
0.0007277956434
1.231179955e-06
-0.0003636318492
-3.148362524e-06
0.0003639131036
-0.0003642044899
0.0003643424591
2.232454194e-06
0.0007283070473
7.358019992e-07
-0.0007283073039
2.266101016e-06
-0.0003640804171
0.0003629806919
-1.166375742e-06
-2.971598602e-06
2.759745539e-06
-0.0003639926368
2.478162871e-06
-0.0003630673734
-3.042638747e-06
1.982727123e-06
-0.0003626185289
-0.0003650265416
-2.757361153e-06
4.124826022e-07
0.0003682426908
7.974188416e-07
-0.001452566037
-4.569404139e-07
0.0007257220605
0.000726503498
-0.0007274588012
0.0007271902593
3.933358024e-07
-2.471890549e-07
-0.000364079591
-0.0007372031828
2.073450153e-07
0.0007338009663
2.287018757e-06
9.078527119e-07
-0.0003623845076
0.0003628799273
5.415791095e-07
0.0007292785796
5.365809496e-07
-0.0007291430805
9.32268389e-06
-0.0007206976355
0.0007210468266
-9.67187503e-06
3.079796194e-07
-5.888847806e-07
-0.0003621036024
2.359643575e-06
-0.0007372184343
8.851665109e-07
-3.22955861e-06
1.913609344e-06
-0.0003615795213
-3.2144014e-07
-0.0003617335609
-0.000721136347
8.5625763e-06
0.0007218964546
0.002883936636
-0.00289883326
3.494905738e-06
-1.597908091e-06
0.001450833339
3.667487669e-06
0.001474502348
-1.584235364e-06
4.383648845e-07
0.001458893335
-0.001458784663
-5.470367539e-07
1.442975056e-06
-1.342702374e-06
0.0007288993061
2.624967357e-06
0.0007453637776
-4.760778772e-06
4.737839458e-05
-0.0003620431286
1.938989537e-05
0.0002952748386
-0.000381724087
-1.031944961e-05
0.0003871826871
4.86084949e-06
0.001447391398
-0.001447525549
-2.258551199e-06
-1.871944852e-06
0.0007235783655
-1.812840318e-06
0.0007241289408
1.812802368e-06
9.151712833e-05
-0.0003664671509
-2.949139473e-05
0.0003044414173
-0.001453849718
-6.558948262e-06
2.111546291e-05
-0.002873219493
-2.140136959e-05
0.002909684434
0.002908752692
2.192822037e-05
9.076798453e-05
-0.0003651408377
-2.800560044e-05
0.0003023784536
-6.006206997e-07
-0.0007277092509
2.519443325e-07
0.0003639764837
0.0003640814436
-2.408072171e-08
-0.0003638570158
0.0003637896536
9.144284721e-08
-6.672374297e-06
-0.0007207922482
6.328275527e-06
7.366709327e-06
-0.001449342333
-4.553987257e-06
0.001446529611
-0.001451609165
1.272212412e-06
0.0007253126375
0.0007258217338
-1.811306921e-06
0.0007249650656
0.0007270754862
1.409062814e-06
0.001450292102
1.389172309e-06
-0.00145124291
4.186706942e-09
0.0003630289666
7.871998891e-07
-0.0003638203531
0.0003840822316
1.391817155e-05
-8.629227515e-06
-0.0003893711757
0.0003700611188
-3.654508776e-06
-0.0003706908906
4.28428059e-06
-1.947922353e-05
1.352224132e-05
-0.0007359356736
0.0003665513855
-0.0007327272478
-9.511607316e-06
-0.001458823249
-1.421134424e-05
0.0007285320303
0.0007276447363
-0.0003644426999
-2.96158074e-07
0.0003647147773
-3.46982274e-06
-0.0003644778841
0.0003653739995
2.573707335e-06
-6.113496675e-06
-0.001453843865
0.00145425482
5.702541599e-06
-1.823833559e-06
1.616815619e-06
-0.0007275890415
1.267684638e-06
-0.0007279617193
-1.406077832e-06
1.901948221e-06
-0.0007279806029
-0.0007272818301
-1.822691948e-06
-0.001455592124
-6.186697451e-06
0.001455665325
-1.165631441e-06
-0.000364684241
0.0003658499077
-3.520867937e-11
0.0003609579852
2.958163967e-06
-0.0003609007712
-3.015377916e-06
-7.522530024e-06
-0.0007240891684
7.377765241e-06
0.0003617237783
0.0003625101549
-0.0007151979284
3.508547328e-06
0.0007151230587
-3.433677713e-06
0.001537442564
3.381117972e-05
-3.982278332e-05
-1.906110635e-05
-0.0007502437581
-0.0007621260963
0.0007366496893
-0.0007519697521
2.751431555e-05
-0.0007402464303
-1.605857203e-05
0.0007412761265
-0.001497583774
-5.638484277e-05
0.0007498545577
0.000723496591
2.816046333e-05
5.245700437e-05
-9.087875809e-06
9.809181586e-06
-0.0007159192341
-0.0004679329261
0.0005153113206
-9.132906009e-06
-0.0007372984622
7.488208261e-06
0.0003691770132
0.0003697661468
-1.008462568e-05
-8.426586372e-05
-0.0003735824366
-6.511845064e-06
3.667070059e-06
-0.0003788793119
-0.0003719103353
-2.174189143e-07
-0.0007347650718
-7.002018775e-06
0.0003668401734
0.0003657940112
-3.071470417e-06
-0.0003647911058
0.0003648568998
3.005676468e-06
-0.0003649934659
-3.017059565e-06
0.0003649390551
-1.074263189e-06
-0.0003653045215
0.0003652935318
1.085252893e-06
-0.0003661714983
-1.487182463e-06
0.0003665844175
-0.0003632059757
3.348066129e-06
-1.271561365e-06
0.0003611294709
-0.0003710459836
0.0004662101539
-3.647041935e-06
-1.781817214e-06
-0.0007267753229
0.0007267740351
1.783105026e-06
-6.060887025e-06
1.853717002e-06
-0.0003668388136
3.298341963e-06
-0.0003637619458
-2.742371812e-06
-5.631836371e-06
2.875341304e-05
-0.0003614521409
0.0003383305642
-0.0003648086828
-7.719355109e-06
-0.0007272785563
-1.849986237e-06
0.0003635525549
0.0003637941704
-0.0003637178277
-3.164920866e-07
0.0003638600193
1.743005504e-07
-9.777434689e-07
0.0007273530131
9.096159166e-07
-0.0007272848856
9.094182728e-07
0.0007283392169
-0.0007284067014
-8.41933778e-07
-1.570414833e-06
-0.0007275019143
1.428408418e-06
0.0007276439207
-0.0007275404121
-1.014535985e-06
0.0003640922226
0.0003638621048
0.00046592555
-4.568709693e-06
-0.0003705888558
1.224086955e-06
-0.0003635810231
0.0003640741389
-1.71720274e-06
-4.961325239e-07
0.0007288006968
4.292708026e-07
-0.0007287338351
4.295931451e-07
0.0007293112964
-7.694775439e-07
-0.0003644399076
-0.0003645315043
-7.053987053e-07
0.0007276432134
5.008397058e-07
-0.0007274386544
0.0007286296821
-0.0007285608575
-5.649571453e-07
-0.0003625212184
5.935434993e-07
0.0003631517619
0.0003722771223
3.391136513e-06
9.04262368e-05
-0.0004660944956
0.0003615194077
-2.102102658e-07
-0.0003613050107
1.521353147e-06
0.000726557441
-1.79208664e-06
-0.0003625939387
-0.0003636927688
6.300373487e-07
-1.192785404e-06
0.0003620821557
-6.933122705e-07
0.0003690428459
3.927588719e-06
5.125977218e-06
-2.624849148e-05
0.0003627496687
-0.0003416271544
0.0003633898748
2.691290932e-07
0.0007272666431
2.324631861e-06
-0.0003644572222
-0.0003636126997
-4.74571673e-07
0.0007429726001
-0.0007434872967
9.892682878e-07
-9.342676366e-07
5.074067167e-07
0.0003704879797
2.205172492e-05
0.0003722215286
-1.019102194e-05
-0.000368709205
5.192007422e-07
0.000367496692
-0.0003693481616
0.0003695042531
-1.090359127e-06
0.0007369842866
2.065685464e-08
-0.0007374795152
-1.36061105e-06
-0.0003716420594
-0.00036822494
2.906871595e-06
-2.603709683e-06
-0.0003661490179
0.0003651564986
3.596228922e-06
-0.0003653119728