/*--------------------------------*- C++ -*----------------------------------*\
| =========                 |                                                 |
| \\      /  F ield         | OpenFOAM: The Open Source CFD Toolbox           |
|  \\    /   O peration     | Version:  v1912                                 |
|   \\  /    A nd           | Website:  www.openfoam.com                      |
|    \\/     M anipulation  |                                                 |
\*---------------------------------------------------------------------------*/
FoamFile
{
    version     2.0;
    format      ascii;
    class       volScalarField;
    location    "1.29";
    object      p;
}
// * * * * * * * * * * * * * * * * * * * * * * * * * * * * * * * * * * * * * //

dimensions      [0 2 -2 0 0 0 0];


internalField   nonuniform List<scalar> 
12556
(
711.5680124
710.8053204
708.9051962
704.9216644
699.1388316
686.7883777
666.3793075
633.5292864
583.8165181
511.5891821
412.1075078
283.894458
131.5758922
-33.09536453
-194.5853018
-339.2357449
-459.195266
-552.7692397
-622.1716501
-671.0592794
-712.0806018
-730.7634395
-741.5583375
-746.5481712
712.0475951
711.5765817
710.2620394
707.3525039
701.6188569
691.169707
673.2120467
646.7408115
602.4217254
536.0528574
441.4891678
315.100122
159.7728859
-11.99045138
-182.9631931
-335.3318668
-460.0588748
-555.9620255
-633.2207019
-679.1666747
-719.4468548
-735.8377438
-745.3490814
-749.7362123
713.1604876
713.3371738
713.3904493
712.7520314
708.912358
702.7129285
690.6201173
668.2370222
631.9088051
573.2499048
481.2177371
346.33049
171.3957581
-21.54182913
-208.538212
-370.9912374
-497.7078224
-588.9948086
-663.7359317
-702.1231719
-736.42195
-747.9593017
-754.608955
-757.5741982
714.3897261
715.4820633
717.5007453
719.9641018
719.4912278
719.3146251
716.087212
702.6595586
680.6035997
635.658082
549.0645878
400.7085704
186.9239321
-57.0958781
-276.2022912
-445.7182569
-568.5840971
-650.4281116
-711.585946
-737.0618373
-760.9977302
-765.7880575
-768.1193077
-768.9910671
714.7997157
716.9360698
721.2116494
727.4011848
730.7578087
738.5464422
746.4046535
747.0572336
745.8766513
727.7145469
665.6414091
507.8684242
213.7399805
-138.5590132
-412.7440431
-585.90234
-684.9604577
-738.2982021
-775.1201059
-782.1236349
-789.6272943
-786.1711722
-783.2292054
-781.5844505
713.3597795
716.5367559
723.0371822
733.0285383
741.1376391
757.2042544
777.5664278
794.5844884
823.9479629
855.5641019
862.0419821
745.2541276
290.661571
-327.9070339
-674.5069139
-807.3676457
-848.2553277
-853.4808291
-850.0956861
-832.1085522
-818.9508353
-806.1121882
-797.2225579
-792.8670452
709.0835179
713.1721523
721.5781676
734.9289301
747.9887076
771.5632999
803.4602792
837.6452703
900.3274982
996.1087972
1137.426556
1294.268985
604.4754888
-880.1045561
-1133.865932
-1112.567551
-1049.691504
-983.2344779
-927.8268883
-880.4243395
-845.054094
-822.0168576
-807.3359516
-800.4093742
701.1159952
705.8746408
715.6699372
731.4046464
748.8943174
778.0383179
818.1959538
866.4495051
954.065202
1094.889284
1332.181723
1808.546676
-2435.519153
-1799.205215
-1455.23888
-1248.641173
-1104.316055
-992.8440414
-918.6874856
-861.1270541
-829.9852998
-810.7894965
-801.7364685
688.8055747
693.9076654
704.4004487
721.3104996
742.130543
774.1525408
818.197964
874.0049484
969.8252712
1112.173632
1304.592238
1510.755809
-3860.366431
-2307.657362
-1702.868748
-1386.090108
-1184.133849
-1029.478091
-937.218389
-862.9154751
-826.8497617
-805.0683064
-794.7265647
671.7881893
676.8715599
687.2976504
704.0640268
726.8896884
758.908185
802.4054224
859.292737
949.9608065
1071.745472
1207.062164
1317.435438
-3668.014009
-2337.083448
-1741.702779
-1411.714293
-1197.282112
-1026.845243
-929.8880686
-847.7422374
-810.8942646
-788.7364723
-778.1620315
650.0336464
654.7594819
664.3953426
679.7299992
703.318605
732.7631909
772.1105209
825.1677873
903.992268
1003.667571
1108.814968
1201.387192
-2799.272716
-1999.263601
-1582.402162
-1322.589889
-1140.333372
-983.1330611
-895.8795232
-815.3037135
-781.902033
-761.6016707
-751.8370859
623.8226315
627.9017115
636.2039239
648.7951004
672.645379
697.1021884
729.6905038
775.5614359
839.1612207
918.3782782
1007.846673
1112.344627
-1860.056059
-1512.763139
-1307.213654
-1152.296228
-1028.666782
-906.353718
-839.1558982
-767.8501195
-741.3928959
-724.6827981
-716.5642007
593.7259424
596.9596504
603.6408759
613.2136863
634.7344033
653.6650555
677.6875849
714.505347
760.0127935
815.915262
884.959478
995.0133161
-800.2876354
-977.0699864
-1030.122602
-1000.882887
-948.2687676
-888.6125887
-810.0439117
-766.5842362
-710.4119527
-692.2267552
-679.9643713
-673.994417
560.4659091
562.7611129
567.6578833
574.3794216
592.4658279
605.4868419
620.4415826
646.494642
671.7851795
698.1268971
724.7681323
794.7439367
214.2054215
-423.4485444
-648.228327
-728.602073
-751.224178
-743.774792
-707.8845429
-686.5329714
-648.1194663
-637.5716057
-629.9208214
-626.26368
524.8775978
526.1497044
528.9549697
532.5646907
547.296914
553.6173068
559.8212083
573.6902763
578.3703185
573.2495228
546.2241122
463.3972055
174.0649348
-190.1757939
-406.0548751
-522.4353959
-584.7043368
-613.4249007
-609.0018382
-606.6266022
-584.0336005
-580.2889859
-577.0730595
-575.5968823
487.8252995
488.1262106
488.8674372
489.4969117
500.8415583
501.2594395
499.6803587
502.9471734
491.6450514
464.818589
408.6039191
294.8687736
125.8262999
-94.16737474
-264.1371963
-380.7410042
-457.2624746
-504.221762
-520.1219061
-531.101313
-521.1416037
-523.0637341
-523.6575445
-524.0203741
450.175506
449.6410258
448.5894966
446.6444866
454.7670183
450.230519
442.3934932
437.5713047
416.0723564
378.2805342
315.7230577
223.6093612
99.28249483
-48.66918588
-179.2154202
-283.4975626
-362.0761709
-415.4458641
-442.7425737
-462.2308873
-461.8278211
-467.9737201
-471.5150802
-473.2150191
412.7218811
411.5083578
408.9994446
404.9898072
410.2253253
401.8901682
389.4264979
378.8889485
352.0669786
311.48626
252.6808494
177.0812917
82.29713751
-26.6174205
-130.1208944
-220.1626271
-291.9284888
-344.5944486
-377.0790972
-401.0994145
-407.3145994
-416.2659886
-421.8452895
-424.4587906
376.1104036
374.3736553
370.7402967
365.1838701
368.0735215
357.0779003
341.6046906
327.4978146
298.0012092
257.8439292
205.1839839
141.3478764
67.42889451
-18.83892434
-102.8621873
-177.7925382
-239.8455293
-288.6421992
-322.2867043
-347.8176029
-358.0014771
-368.5667627
-375.3821426
-378.6103395
340.8386284
338.7325015
334.3025446
327.6915176
328.7909127
316.1507961
298.9863674
283.1147149
253.1534736
214.5912856
167.1784838
112.2485849
51.16621381
-17.87691072
-85.37525249
-147.030196
-200.1452726
-243.8589952
-276.5149325
-301.6989847
-313.9283104
-325.1724975
-332.5882469
-336.1101835
307.2672277
304.9351036
300.0128646
292.7789769
292.6082465
279.1489311
261.2647928
244.9591332
215.9173901
180.0710324
137.8183048
89.75051941
39.24934666
-17.20229993
-72.44106296
-123.702354
-169.0600192
-207.6283548
-237.9853206
-261.8474802
-274.8089373
-286.052888
-293.5904933
-297.1803815
275.6323952
273.1960409
268.0438923
260.5446597
259.5425646
245.8990009
228.1034487
212.1326749
184.8044869
152.1145832
114.7492834
73.13281418
30.40179195
-16.44409873
-62.32855384
-105.3356443
-144.096303
-177.8350606
-205.3592692
-227.3679526
-240.1874159
-250.9846153
-258.3160835
-261.8150101
246.0571847
243.6130964
238.4426828
230.9695671
229.4536353
216.1128189
198.9679804
183.8001932
158.5954938
129.1596454
96.27365891
60.22513039
23.77483354
-15.55847581
-54.07873168
-90.41813656
-123.5906559
-152.9581162
-177.5199557
-197.4406796
-209.5708291
-219.6514951
-226.5677002
-229.8727484
218.5708659
216.1923798
211.162876
203.9359791
202.16531
189.4589254
173.3572085
159.2256514
136.3203816
110.0602764
81.21295704
49.9710704
18.73815554
-14.55073715
-47.12602043
-77.9884446
-106.4134268
-131.8891987
-153.5636411
-171.3523029
-182.4811346
-191.6989647
-198.0763019
-201.1260708
193.1324116
190.8733861
186.0987753
179.2730988
177.4466339
165.5909378
150.7692374
137.8061731
117.2225529
93.9710883
68.74539197
41.69081451
14.86485756
-13.44497359
-41.12150245
-67.41591296
-91.78420103
-113.8202428
-132.779576
-148.4989573
-158.4699619
-166.7628696
-172.5386152
-175.3014444
169.6509564
167.5492183
163.1078153
156.7864877
155.0522274
144.1776332
130.7254358
119.0283819
100.704116
80.25490629
58.27735328
34.91152853
11.86321473
-12.26903367
-35.83935017
-58.27052312
-79.14666485
-98.14775034
-114.6026073
-128.3713733
-137.1276879
-144.4886381
-149.6422799
-152.107208
147.9988357
146.0793423
142.0221602
136.2692158
134.7392855
124.9140226
112.863329
102.4589849
86.29105993
68.42866548
49.37293469
29.29061083
9.522740212
-11.05031852
-31.12831554
-50.24956719
-68.09524791
-84.41493705
-98.58366472
-110.5444293
-118.0855693
-124.5409455
-129.0790608
-131.2485573
128.0227317
126.3004965
122.657908
117.5089034
116.2656615
107.5151527
96.85731813
87.73314764
73.60224474
58.12107586
41.70752649
24.56808657
7.681890895
-9.815040621
-26.87914742
-43.13040118
-58.32295686
-72.2651075
-84.35548385
-94.65574863
-101.0139367
-106.6083177
-110.5533539
-112.4377784
109.5542954
108.0371221
104.8244878
100.294647
99.40081499
91.72330283
82.43845431
74.54333244
62.33155442
49.0459066
35.03723376
20.5416536
6.211561116
-8.586382685
-23.01207997
-36.74280099
-49.59205759
-61.41551364
-71.61663837
-80.3977769
-85.61937593
-90.40567529
-93.78815876
-95.40190305
92.41744352
91.10802854
88.33022742
84.42085341
83.92479462
77.30090679
69.37142113
62.63461724
52.22891359
40.97544419
29.17098097
17.0521284
5.012412684
-7.381452568
-19.46314152
-30.95353661
-41.71172976
-51.63310052
-60.11522085
-67.50528185
-71.64034719
-75.67300695
-78.52646109
-79.88552044
76.4280382
75.32653448
72.9823094
69.68315923
69.63676637
64.03060549
57.41328114
51.79390499
43.08657559
33.72191849
23.95010836
13.97795674
4.01302176
-6.210513663
-16.18095547
-25.65530636
-34.52623249
-42.71181417
-49.6393108
-55.74739517
-58.83786627
-62.17062589
-64.52783707
-65.64750301
61.42071996
60.52380774
58.60840995
55.906081
56.33356364
51.71152307
46.33303312
41.84061263
34.72605188
27.12471984
19.23870743
11.22573376
3.162119247
-5.078309369
-13.12233321
-20.76008072
-27.91087566
-34.50788246
-39.98339928
-44.91629598
-47.01291156
-49.6919653
-51.58340268
-52.47918301
47.15553204
46.46638364
44.97952039
42.8533696
43.86079803
40.15825932
35.91418382
32.5925915
26.98481271
21.04190793
14.91907898
8.71947483
2.41968639
-3.98588438
-10.24822303
-16.19041178
-21.75717356
-26.91843944
-30.96812225
-34.82451081
-35.91988086
-37.99766281
-39.44563839
-40.12440972
33.68029447
33.17956039
32.10982898
30.58996295
31.86486869
29.19779446
26.07219557
23.88021909
19.71756339
15.34907414
10.88986041
6.390514135
1.751158824
-2.932526663
-7.522169448
-11.87474954
-15.95779264
-19.75967328
-22.4822893
-25.28352294
-25.59315576
-27.06455951
-28.09327101
-28.58026588
20.01632335
19.76907218
19.1313701
18.21299273
20.40675357
18.67595186
16.62485956
15.56133024
12.79712374
9.936480793
7.05860072
4.175043313
1.123887024
-1.916584008
-4.908721945
-7.745467676
-10.41464758
-12.92312081
-14.37736362
-16.21770092
-15.24305081
-16.1287977
-16.73676171
-16.97501235
9.483062431
9.264837259
8.941664834
8.434437636
9.177797814
8.335202965
7.337895191
7.503149
6.114221488
4.710542772
3.334095696
1.999731702
0.5094657446
-0.9353603984
-2.371129139
-3.737591307
-5.036627569
-6.291544629
-6.450573823
-7.303599275
-7.234168267
-7.687484568
-7.985224505
-8.194644986
1548.967303
-4112.541315
-2562.68604
1335.111924
-3988.958243
-4185.123855
1213.33914
-3041.494789
-3896.16728
1124.137411
-2022.963469
-2911.133917
1004.677674
-856.9724476
-893.0402853
-1091.682691
-1900.357998
822.5624357
301.6539235
-810.4986497
165.8887518
-436.7853137
-986.5832413
1791.492562
796.4382677
-2228.631582
-697.9374316
-5283.559568
-3132.556947
-3786.340143
-2450.392465
-1926.94425
1232.14132
1324.315396
1489.111632
-5631.66459
-5841.632317
-3745.484422
-2612.086374
-2551.987327
1133.122222
1202.519804
1306.712718
1268.451284
1298.827568
1361.906895
-4214.169349
-4972.534746
-2917.455651
-2270.409934
-2561.788536
1034.274795
1109.341631
1190.150982
1168.045625
1208.216624
1238.111869
-2820.140986
-3413.357427
919.0908137
995.3798255
1097.11677
1066.407865
1131.315478
1171.691126
-1631.171356
-1571.262444
-2105.233838
766.9537333
816.2343973
977.9069191
927.5524802
1008.621604
1068.665869
530.6529197
281.1019786
313.2703449
1895.090938
1559.782631
2471.90991
1970.167522
-5842.535119
-5350.816757
-3675.887015
-5125.549923
-5689.047564
1369.448875
1420.856255
1395.765675
1421.485107
1373.3451
1534.006433
1430.179805
-5017.114062
-5603.977119
-4130.22107
-5478.070347
-4929.375199
-5690.477067
-5503.545734
-4153.866234
1243.5605
1290.311002
1253.516737
1295.444
1245.555718
1369.34007
1300.116016
-3500.870506
-4159.023557
-3426.920941
-4058.677559
-3430.79684
-4885.568344
-4157.166356
-3551.709555
1174.600337
1206.689214
1157.346995
1210.136462
1179.033596
1242.680689
1211.389565
-2183.04652
-2738.192027
1072.810125
1128.4161
1058.626695
-1590.498315
1134.070626
1078.091758
1176.023858
1137.015028
-1630.621339
-1021.663837
-1495.861709
-1583.324741
1021.386604
1005.321441
915.2125023
-76.96313245
1011.92853
912.1863573
1073.950001
1014.300818
-153.6214813
1324.158644
1521.99963
1709.278186
1731.307452
1944.223087
2337.591628
-6332.101102
-3700.644651
1419.831398
1430.41354
1541.259014
-3364.18636
-1974.610188
-1720.163686
-2142.735982
-2018.170123
-1953.25066
-2233.035758
-207.2668371
-510.6508335
-883.6649693
1567.307395
1878.935066
1685.138489
1584.017174
3322.745388
2628.911122
-3007.471671
-4970.730895
-3449.971507
-2278.685818
-2580.399019
-2398.513647
-2695.294817
-2156.372369
-3346.751372
-2774.615387
-2525.773083
-1199.448329
-357.7681445
-499.1590817
1303.442695
1884.890417
2465.078345
-2698.675397
-661.1310232
1064.153921
-6461.50822
-4642.058487
-6279.564396
-3564.03848
-6116.746533
-4317.45696
-5741.751999
-5758.393587
-4575.620646
-4627.041878
-2986.114062
-3301.82587
-3069.604504
-3278.357966
-2959.023584
-3671.723032
-3325.911245
-3154.314776
1150.168595
1120.298718
1101.421825
-1608.474385
-1867.34105
-1946.104077
1037.057704
999.0372035
970.613062
1033.263834
1007.877444
1040.53517
1844.329222
1610.746454
1713.03084
1626.6598
1875.752694
1488.781875
1601.982025
1666.258872
2313.274129
2591.275471
3166.315649
1931.961452
2489.576596
2226.995861
2508.521685
1910.078016
-5728.782234
-5703.292392
1397.900265
1421.545363
1394.824547
1476.493963
1439.266171
1483.49336
1421.304423
1435.808851
1462.581916
-5297.283758
-5333.160929
-5238.132296
-4667.111983
-4792.478466
-4440.880039
-4616.350513
-5202.504119
-5635.697666
-4893.325343
-4865.965415
-4824.114271
-4885.893233
-5619.916501
1269.003828
1265.478223
1338.568488
1333.425846
-3771.539905
-3708.378394
-3819.909156
1196.619321
1194.233794
1225.090203
1223.026088
-2911.737607
-2602.39362
-2497.213635
-2623.23381
-2934.60291
1095.639548
1064.8994
1041.265996
1094.649607
1072.701406
1100.631333
-1247.999295
1104.998642
1099.529399
1156.547668
1154.485096
-1955.15163
-1246.828754
-1266.020532
-1522.669722
959.8673376
925.7775539
940.5258169
957.6839492
449.8061439
142.6353883
1046.852926
-347.6771146
96.89465162
-264.1835521
1044.112513
-407.3487628
-294.5531159
64.61017579
-4422.742297
-2155.448685
-2300.791389
588.6540648
554.0149094
781.3824744
669.5520912
681.0593833
951.7938563
187.2208629
-143.7312106
-325.3967879
4283.710041
-2334.573302
-2491.420679
-935.3015554
-1181.273185
-1199.799844
-161.7872985
-406.0806066
-134.5386923
2110.753146
2628.011918
3318.188539
-3150.908217
-605.1681313
1422.936795
-5688.083561
-6323.041756
-6251.629559
-5817.942913
-4368.031098
-4559.840819
-4372.939043
-5232.438288
-5080.235047
-4831.287165
1220.663694
1202.459022
1188.287194
1223.601663
1207.473299
1223.076295
1143.366231
1126.20485
1152.52222
1020.104989
1002.706076
988.7152449
854.8751839
601.4342388
340.5821248
-5809.642408
-6288.777239
-6351.059486
-5538.997836
-4611.880509
-4293.488077
-4837.991812
-4687.149258
-5558.124038
-5144.330027
-5417.510259
-5283.497561
-5500.331015
1261.176762
1247.874714
1229.35553
1251.98628
1258.540402
1253.436563
-4314.779529
-4149.495952
-4010.935822
-3779.227322
-3538.635914
-3773.512734
-4556.821155
-4161.395292
-4375.112547
-3852.260376
-4085.875608
-4507.4944
1190.581441
1164.502969
1148.883214
1183.685369
1169.492854
1192.940165
1205.731965
1219.9047
1220.627636
1192.054665
1206.081554
1187.111045
1234.65966
1239.955136
1249.268587
1220.460406
1222.008548
1215.548136
-2418.255184
-2559.866563
-2270.654254
-1447.772254
-1444.16585
1123.941633
1079.467079
1166.623608
1175.112291
1189.666231
1164.028888
1144.387605
-1763.367571
830.1712917
914.9567966
875.2483761
983.6367463
965.5387718
988.3608971
109.3492263
356.150638
119.3715237
998.1087415
417.5488867
667.5618247
485.6002337
607.9867962
1057.530135
1027.570211
-5650.654671
-4317.19643
-5295.164518
-3492.117294
-3549.382138
-1977.040171
-2110.674446
-2129.828288
1537.450132
1522.081125
3117.638648
3517.027079
3974.016153
3311.092205
3005.147223
-2654.900867
-2497.29322
-2448.550654
-2506.094654
-2674.640422
-1215.15809
-1044.786578
-1050.988884
-1049.972361
-1219.94061
-834.9730295
-1001.634866
-607.2235968
-624.846759
-785.9477154
-414.8974856
-572.0070592
-509.7764323
-6606.464165
-5790.989859
-5317.518646
-6178.718827
-5911.77111
-5129.446477
-4429.969463
-5294.28203
-6098.785475
-6029.499059
-5700.249011
-5805.497283
-6220.639164
-6128.640848
-4788.112812
-4618.679886
-4420.73498
-4674.123394
-4855.899101
-4429.817204
-4619.442897
-4907.201986
-4781.311998
-5029.709123
-4842.758295
-3122.134294
-3177.85326
-3146.087598
-3060.700362
-3191.671566
-3524.688746
-3419.304409
-3558.834305
-3235.606544
-3373.13904
-3473.153132
-1821.745635
-1793.520596
-1929.711998
1019.881886
1007.424074
1020.740502
1049.251334
1035.876106
1024.47043
1720.116126
1689.562279
1709.84483
1760.590677
1672.675769
1916.876233
1794.892438
1743.738035
1532.261851
1569.377421
1526.193171
1648.02504
1586.521003
1548.529951
2130.685134
2128.187244
1963.765783
2203.541156
2115.08137
-6285.766201
-6278.504764
-5793.276725
-6422.473551
-6463.859306
-6402.856338
-6356.749223
-6255.223411
-6484.57567
-6369.735451
-5586.111407
-6167.443095
-6281.812342
1407.525482
1409.712424
1403.629581
1422.288185
1412.86893
1412.374813
1397.05673
1391.573962
1403.096983
1398.502522
1453.819758
1478.240186
1458.548628
1514.930221
1486.209447
1459.168638
1429.464818
1436.092575
1425.267334
1453.165698
1440.12657
1433.533446
-5576.296987
-5459.001954
-5184.435997
-5456.391713
-5742.710461
-5607.546205
1284.54947
1274.760018
1301.449164
1287.004491
1259.857707
1254.444885
1270.636615
1261.428686
1368.475871
1351.423628
1388.614007
1374.022597
1322.051794
1305.317195
1345.643261
1328.158502
-3790.103175
-3937.577
-3605.847504
-3744.653969
-3843.768691
-4198.651677
-4367.195177
-3986.764586
-4147.008149
1207.186468
1217.612491
1203.765801
1223.249578
1209.834701
1223.731166
1226.073958
1207.85767
1188.527519
1205.43383
1204.752045
1232.278687
1237.026406
1231.896513
1240.260489
1235.301522
1251.639142
1242.324808
1222.999952
1222.706608
1229.997006
1223.91433
1217.19511
1223.147391
1229.411259
-2685.730913
-2757.837874
-2824.605427
-2673.390153
-2871.216538
-2800.097285
-1231.350552
-1398.588336
-1433.093634
-1230.116495
1120.482092
1085.437281
1166.470305
1171.687802
1163.705996
1147.358774
1167.525042
1166.286669
-1840.03516
978.8855509
958.4095127
940.6323352
619.5724148
518.969659
990.9442894
227.4259758
390.3516436
281.0586774
1051.799282
-502.9021224
-61.3842949
169.0414598
-108.3467711
1020.451865
-2160.587755
-1707.895339
-1117.297457
-2289.557087
-2341.790594
-1107.887371
-1156.153448
-1574.874222
-2353.084451
-1003.90467
-998.1078168
-838.3725576
-2080.837311
-1590.48822
-1539.716817
2660.08548
3398.943529
4186.717964
-3274.362272
-486.2279347
1887.370699
-1378.605373
-962.9765138
-2644.587733
-4989.097359
-5638.180287
-5918.382021
1326.514452
1308.466395
1284.019882
1341.850553
1316.850831
1335.857683
-1612.264864
-1747.748702
-1765.520352
-2185.711076
-1932.111276
-1872.995601
1052.253967
1040.482207
1054.124129
-5996.482584
-6135.226259
-5547.97785
1276.241038
1254.561742
1267.796874
1283.360622
1286.789161
1300.363294
1304.610768
1320.242674
1313.84021
1078.52584
1066.7989
1056.544282
-1604.625173
-1559.992337
-1547.468783
1083.143243
1088.57695
1081.308687
-1696.093092
-1709.267106
-1619.631217
-1440.668502
-1427.141909
-1565.515736
1008.791821
1070.01639
1076.698547
1079.353184
1014.8429
-6193.891261
-3399.860192
-1999.029216
-2061.823481
-2070.204842
-2281.808525
-2143.663574
-2104.467347
1562.075291
-4152.992458
-3623.714804
-4315.981318
-2406.17102
-2464.107382
-2323.690045
-840.6377857
-856.4385589
-681.9373678
-686.5608389
-782.6092569
-1580.13103
-981.1504749
-3103.892485
-6432.122467
-6127.557053
-5966.907292
-6601.270485
-6561.794488
-3030.9259
-3061.643917
-3015.189022
-3318.364325
-3307.883738
-3279.497557
-2884.8122
-3014.963201
-3095.371497
-3635.644394
-3586.189777
-3633.268721
-1935.875522
-1912.651554
-1946.365901
1792.804751
1841.905543
1636.892364
1652.513605
1670.953814
1644.616533
1496.055883
1513.191357
1502.620807
1620.2138
1598.364332
1580.475009
2388.056665
2195.239847
2211.87022
2399.466336
2384.139047
2526.33881
1893.02891
1946.23219
1969.602549
1402.090368
1402.286287
1407.676625
1421.166276
1419.043439
1419.920867
1404.770676
1404.758144
1408.591673
1406.187809
1445.105642
1451.22521
1445.960929
1493.853037
1485.11894
1476.089245
1421.36332
1424.008396
1422.399988
1441.814438
1439.402932
1435.472552
1273.393915
1283.49025
1279.341157
1256.376286
1260.701195
1269.755071
1348.218915
1364.35126
1352.504349
1363.57236
1357.261574
1403.30478
1398.178006
1310.52895
1351.002497
1344.796298
1318.982367
1325.932061
1342.697299
-3954.069407
-4010.929996
-3678.89547
-3731.338494
-3758.187617
-4065.825362
-4090.744896
-3959.728086
-4097.947918
-3944.595046
1082.605506
1070.99539
1082.293439
1114.540068
1098.669637
1087.184999
1109.092163
1116.093187
1110.754843
1094.56881
1098.24581
1103.069055
-1951.639866
939.3723762
943.1284246
938.5159457
693.1623756
949.6770892
324.1318535
460.0150339
588.5851556
1052.937677
1052.372105
1048.213315
-410.9210106
-257.1372999
-231.9297829
-246.1125222
1039.368594
1046.142942
1050.996492
-140.7818403
-214.3302835
-362.0836726
-2192.662718
-2233.648649
-2325.949519
-2280.213246
-2258.121609
4227.608143
4685.810824
3990.224677
-2386.180513
-2412.298063
-2341.095432
-2510.030321
-2459.376063
-2445.194617
-1780.557428
-936.1789358
-3208.75055
-5940.833257
-5932.682333
-5885.565129
-5918.18168
-6297.964121
-6149.64429
-6168.164975
-6111.391526
-6131.601318
-6276.333662
-5184.951898
-5105.456533
-5153.54889
-5002.499029
-5056.424863
-5135.014399
-6338.893091
-6167.076177
-6140.116024
-6183.578851
-6184.465525
-6362.417396
-5371.157902
-5288.507009
-5331.700865
-5200.823459
-5244.969684
-5328.68194
-5833.190283
-5859.450973
-5746.905956
-5794.030315
1220.772938
1215.86118
1214.569956
1194.909633
1191.351825
1188.096676
1198.244988
1195.368686
1200.05772
-1564.81495
-1614.773645
-1441.213357
-1514.681974
1136.346413
1136.109283
1141.662805
1137.531356
1081.765006
1080.72445
1088.306251
1077.537072
1179.920856
1177.193887
1173.148516
1185.164438
1181.524537
1185.460998
1149.429288
1148.051831
1156.749756
1142.010852
1148.75768
-1771.84028
-1762.341778
-1749.402126
-1621.805752
931.6867252
982.0427212
1126.842141
995.47633
986.5324612
979.2574879
1004.778807
357.2204477
338.3481269
1102.836286
973.7342843
726.5795152
1059.132356
1069.817564
1064.590814
1021.092945
-5882.510658
-6191.60831
-5962.141672
-5131.956634
-4875.761597
-4080.945549
-5670.032656
-5325.943617
-3441.43559
-3580.328241
-2123.18624
-2109.751641
-2122.120647
1548.509657
1501.313957
3717.793564
3553.599547
3402.296882
2805.266177
2661.669952
3212.156924
2985.293338
3086.681415
-2575.172798
-2518.634729
-2622.219436
-1067.477082
-1064.205934
-1052.63328
-1163.596408
-873.9272179
-857.2998542
-841.3013041
-994.0178849
-938.496464
-934.4542008
-610.6933183
-665.6152712
-666.2012848
-487.5007847
-491.0545095
-539.5219384
-6384.659348
-6267.928082
-6527.889515
-6095.287218
-6357.056641
-6428.971478
-6533.379941
-6489.611104
-6067.504557
-5964.945421
-5986.621004
-5939.731237
-5948.385028
-6041.060744
-6186.048185
-6060.886351
-6087.65997
-6010.649323
-6034.928509
-6156.382464
-4734.914026
-4661.252801
-4714.395644
-4733.120144
-4797.18813
-4486.542546
-4512.938824
-4473.443779
-4563.345244
-4963.468739
-5007.153814
-4968.15965
-4883.440856
-4944.168654
-4768.721536
-4825.743915
-4903.989545
-3158.656609
-3084.227822
-3069.359391
-3097.709055
-3031.244666
-3082.106072
-3234.27539
-3262.525024
-3207.423578
-3487.036639
-3532.208668
-3562.436692
1753.789116
1661.960969
1545.038545
1527.112758
1510.145045
1563.449946
1579.386457
1562.141854
2177.276204
2269.452951
2300.333875
2533.735257
2411.001044
2036.603596
2012.032725
2092.6369
-6286.049273
-6099.681615
-6091.385501
-6117.433931
-6106.208815
-6283.385404
-6448.352498
-6454.101795
-6341.57672
-6562.887516
-6544.002527
-6520.548213
-6556.153535
-6313.057506
-6473.317142
-6549.717696
-6572.5723
-6412.426034
1408.652704
1406.515927
1405.103951
1416.754957
1415.98723
1412.414832
1404.23041
1404.446703
1404.492312
1404.117271
1461.711696
1456.391195
1449.862704
1467.023296
1476.189923
1468.162011
1431.175329
1427.124403
1424.37136
1435.336076
1437.469841
1434.821276
-5541.699106
-5452.329269
-5487.374691
-5372.361289
-5412.891524
-5499.478309
-5692.673044
-5613.303516
-5689.124434
-5520.673568
-5559.230269
-5645.511806
1281.907212
1283.33262
1285.012481
1276.051956
1280.364842
1278.628722
1295.748372
1293.891317
1301.873432
1285.885757
1288.145974
1290.492847
1258.413313
1260.272326
1260.844432
1257.208125
1259.145315
1256.665104
1266.848808
1266.715871
1271.107618
1261.498319
1263.365349
1263.69968
1376.342037
1370.022049
1362.895433
1366.674677
1372.553544
1354.582553
1360.637741
1357.193144
1390.136483
1382.666706
1326.673362
1321.319776
1316.086324
1318.76128
1324.362262
1306.638372
1306.084617
1308.782947
1339.849478
1342.550176
1348.557372
1330.630267
1336.584307
1334.034025
1338.778815
1332.825107
-3874.85473
-3908.647986
-3815.34672
-3783.803019
-3820.428195
-4249.03938
-4282.450689
-4236.587063
-4407.040804
-4338.696533
-4304.56572
-4033.810817
-4070.674678
-4032.088388
-4188.781698
-4139.791682
-4091.095914
1210.066443
1206.538035
1203.683442
1212.501019
1209.655066
1213.900285
1217.855535
1212.885891
1224.991474
1225.960434
1207.38181
1199.366268
1194.940003
1195.178883
1197.190207
1200.925198
1198.857766
1203.882663
1230.149379
1233.742276
1242.965888
1236.375102
1248.453385
1250.514756
1254.116419
1244.868139
1247.499164
1245.436825
1222.323007
1222.183816
1226.379569
1224.847651
-2775.60992
-2756.384025
-2810.210094
-2660.239055
-2706.933051
-2740.329592
-2936.310444
-2977.450714
-2853.142081
-2869.084159
-2880.277525
-1371.918909
-1369.667579
-1424.497515
-1241.313848
-1301.447143
-1311.92009
1121.106004
1112.198014
1134.574377
1129.629939
1090.430501
1093.507538
1089.631792
1096.287058
1093.318986
1105.434484
1100.648711
1167.567422
1165.488727
1163.960386
1169.940337
1167.457905
1169.289409
1167.898467
1161.52769
1159.524542
1162.920424
1162.262661
1167.046385
-1895.856963
970.0600101
960.1948885
968.6085879
572.9698438
594.5880568
662.6738588
528.874135
538.3110625
517.4659799
983.0199253
325.5297551
271.4892534
202.3380843
1049.174914
1050.946726
1051.916916
-478.5443145
32.03800054
-29.28729037
149.7404765
134.4119752
148.7279252
-50.77984704
-184.0906219
-166.0217292
-63.84641978
1031.273628
1042.187552
1035.284878
661.4628142
634.2201695
615.8721983
622.5534637
579.3546964
555.691428
561.2893295
495.6551867
468.5989435
468.7288971
373.9802176
349.8317366
336.8741073
213.5035327
200.2557046
168.2966781
30.17774858
29.953095
-17.35793006
-154.8548763
-142.4293742
-199.4237013
-321.9202101
-299.8495507
-359.3102892
-456.8081422
-431.384878
-485.3478094
-557.4296505
-533.9403198
692.9869994
674.9244584
642.8244541
666.7600899
632.9468813
590.6272892
617.622088
555.6570285
508.1391778
528.6144285
425.7354162
384.3940974
383.7881379
237.2283756
218.3541211
182.4396948
11.81093632
27.47341121
-44.91775579
-205.2097595
-163.412229
-254.0564079
-384.0264504
-333.1738747
-421.8511963
-519.561813
-469.43996
-547.0470161
-614.5376443
-568.9896224
735.3524603
731.0247867
687.6582663
728.0493473
710.9994379
649.9788014
701.4432781
654.337097
575.8154747
630.3151789
522.9183344
444.3762864
473.1668089
280.3744991
245.6691722
205.0374156
-35.19638707
3.407933536
-112.0143626
-313.9762462
-225.730794
-370.038612
-506.2293632
-408.0801599
-542.8519639
-629.6566119
-541.5636491
-651.6351678
-701.4185208
-633.6610939
782.8084944
798.5622747
747.2162196
803.917298
817.9640588
734.9101457
820.7641958
814.2603085
687.7153004
803.8093166
720.3508406
559.6595576
666.0018747
389.632428
298.2714522
262.5825929
-142.8436914
-53.94925077
-262.6717425
-530.7238098
-354.8110186
-592.9958848
-718.9972155
-549.9548553
-744.4734736
-793.4230266
-665.674957
-803.1858291
-819.960543
-728.0414892
827.8054679
866.7395305
816.0162396
882.5503954
939.7510302
848.2354493
962.3902107
1039.545115
865.8587331
1066.530391
1123.796833
797.1783332
1115.568376
710.4513299
440.9825598
554.1314004
-478.0398324
-191.787762
-673.4135015
-962.7962232
-612.5461588
-997.5644932
-1031.035379
-786.735431
-1028.009586
-1007.80409
-842.7226368
-997.6352891
-963.0270856
-854.0018528
861.1293978
919.4723767
881.9580822
943.9884574
1037.6675
968.3983548
1077.38645
1234.628408
1097.444013
1305.272147
1693.700074
1265.151365
1526.756588
1646.345761
1209.88688
828.3158165
-405.665451
-50.29316122
-1235.382838
-1261.918483
-1009.907381
-1626.483639
-1425.97695
-1124.656487
-1372.275475
-1239.115283
-1066.527057
-1201.853716
-1104.982034
-999.6925436
874.2512822
941.6736491
928.1520158
969.575679
1072.938088
1053.03186
1114.832131
1265.775979