/*--------------------------------*- C++ -*----------------------------------*\
| =========                 |                                                 |
| \\      /  F ield         | OpenFOAM: The Open Source CFD Toolbox           |
|  \\    /   O peration     | Version:  v1912                                 |
|   \\  /    A nd           | Website:  www.openfoam.com                      |
|    \\/     M anipulation  |                                                 |
\*---------------------------------------------------------------------------*/
FoamFile
{
    version     2.0;
    format      ascii;
    class       volScalarField;
    location    "600";
    object      k;
}
// * * * * * * * * * * * * * * * * * * * * * * * * * * * * * * * * * * * * * //

dimensions      [0 2 -2 0 0 0 0];


internalField   nonuniform List<scalar> 
12556
(
36.829
36.8288
36.8289
36.8308
36.9166
36.9183
36.9196
36.9223
36.9273
36.9362
36.9493
36.9642
36.9748
36.9758
36.967
36.9534
36.9404
36.9308
36.9244
36.9208
36.833
36.8298
36.8291
36.8287
36.6491
36.6493
36.6497
36.6537
36.7326
36.7401
36.7473
36.7947
36.8093
36.8344
36.8711
36.9125
36.9432
36.9481
36.9258
36.8885
36.8513
36.8223
36.7634
36.7487
36.66
36.6526
36.6506
36.6496
36.4704
36.4708
36.4717
36.4776
36.5523
36.5656
36.5814
36.6335
36.6688
36.7278
36.8115
36.8986
36.9545
36.9634
36.9243
36.8489
36.7658
36.6988
36.617
36.5855
36.4924
36.4795
36.4751
36.4733
36.2934
36.2939
36.2955
36.3038
36.3748
36.3955
36.4238
36.4904
36.5643
36.6866
36.8333
36.9649
37.0471
37.0557
36.9936
36.8821
36.7464
36.6169
36.4965
36.437
36.332
36.3108
36.3028
36.2996
36.1181
36.1188
36.1215
36.1328
36.203
36.233
36.2798
36.371
36.514
36.7177
36.9454
37.166
37.3065
37.3037
37.1827
36.9988
36.7964
36.6034
36.4136
36.3077
36.1801
36.1466
36.133
36.1277
35.9447
35.9457
35.9498
35.9649
36.0364
36.0794
36.154
36.288
36.5174
36.8141
37.1948
37.6461
37.9767
37.8956
37.5868
37.2452
36.9259
36.6457
36.3772
36.2028
36.0373
35.9867
35.9651
35.9567
35.7736
35.7753
35.7815
35.8011
35.8753
35.9351
36.0471
36.2408
36.5573
36.9891
37.6406
38.7852
39.541
39.3609
38.3642
37.6695
37.1486
36.74
36.3838
36.1243
35.9047
35.8314
35.799
35.7866
35.6058
35.6085
35.6175
35.643
35.7216
35.8021
35.9589
36.2179
36.6225
37.2117
38.2201
40.4623
42.0945
39.6558
38.2864
37.4629
36.8842
36.4149
36.0707
35.7827
35.6815
35.6358
35.6183
35.4424
35.4464
35.4588
35.4914
35.5763
35.6806
35.8862
36.2076
36.6986
37.4261
38.6848
41.8972
46.2687
41.2036
39.0262
37.8411
37.0654
36.4625
36.0367
35.672
35.5389
35.4777
35.4542
35.2844
35.29
35.3064
35.3469
35.4398
35.5702
35.8248
36.2026
36.7743
37.6098
39.0163
42.269
49.0595
42.5627
39.7543
38.2322
37.2611
36.5197
36.0157
35.5731
35.406
35.3279
35.2975
35.1326
35.1401
35.1609
35.2101
35.3122
35.4699
35.7718
36.2012
36.8488
37.7777
39.3155
42.0547
50.4385
43.5811
40.3812
38.5918
37.4492
36.5776
36.0025
35.4852
35.2842
35.1888
35.151
34.9872
34.9967
35.0222
35.0806
35.1931
35.3783
35.7246
36.2042
36.9249
37.9498
39.6118
41.5719
50.9087
44.2636
40.8648
38.89
37.6113
36.6279
35.9909
35.4061
35.1733
35.0613
35.0161
34.8481
34.86
34.8911
34.9594
35.0812
35.2937
35.6814
36.2107
37.0046
38.1372
39.9084
40.9287
42.2691
50.4719
44.667
41.1977
39.1111
37.7346
36.6644
35.9745
35.3321
35.0716
34.9443
34.8921
34.7145
34.7286
34.7646
34.842
34.9789
35.2214
35.6505
36.2359
37.1128
38.3772
40.2475
39.2254
48.9293
50.4118
44.8368
41.3865
39.2522
37.8136
36.6824
35.9475
35.2594
34.9756
34.8352
34.7767
34.5851
34.6014
34.6421
34.7279
34.8764
35.1423
35.6053
36.2355
37.1872
38.5584
40.4194
32.9813
49.766
49.8394
44.7559
41.4387
39.3147
37.8482
36.6776
35.9052
35.1834
34.8818
34.7305
34.6668
34.4587
34.4769
34.522
34.6153
34.7748
35.0608
35.552
36.2203
37.2375
38.6888
40.2075
28.3457
48.1635
48.8919
44.4916
41.3875
39.3063
37.8353
36.6383
35.8451
35.101
34.787
34.6266
34.5589
34.3338
34.3538
34.4027
34.5026
34.6721
34.9748
35.4883
36.1856
37.2463
38.7092
39.6552
24.6031
46.5981
47.9055
44.0669
41.2169
39.2275
37.7713
36.5651
35.7648
35.0099
34.688
34.5207
34.4499
34.2094
34.2308
34.2831
34.3885
34.5666
34.8829
35.413
36.1306
37.2133
38.6168
38.8837
21.8523
45.1465
46.9779
43.6018
40.9685
39.0761
37.6568
36.4621
35.6648
34.9077
34.5823
34.4111
34.3377
34.0845
34.1072
34.1622
34.2722
34.4577
34.7846
35.3265
36.0568
37.1447
38.4438
37.9713
19.8661
43.8097
46.116
43.1411
40.6903
38.8863
37.5103
36.3375
35.5493
34.796
34.4698
34.296
34.2212
33.9588
33.9824
34.0398
34.1534
34.345
34.68
35.2302
35.9674
37.0473
38.2127
36.9939
18.4249
42.5762
45.3102
42.6998
40.4049
38.6779
37.3445
36.197
35.4214
34.6758
34.3506
34.1754
34.0997
33.8318
33.8562
33.9154
34.0321
34.2286
34.5699
35.1255
35.8652
36.9265
37.9378
36.007
17.3647
41.4332
44.5533
42.2807
40.1225
38.4622
37.1678
36.0456
35.2838
34.5484
34.2255
34.0496
33.9735
33.7036
33.7287
33.7894
33.9085
34.1089
34.455
35.0141
35.7531
36.7869
37.6282
35.038
16.5713
40.3693
43.8393
41.8804
39.8475
38.2453
36.9856
35.8869
35.1394
34.4153
34.0952
33.9193
33.8429
33.5743
33.5999
33.6619
33.7831
33.9865
34.3363
34.8974
35.6329
36.6317
37.2902
34.1042
15.9666
39.3748
43.1626
41.4943
39.5815
38.0305
36.8013
35.7239
34.9901
34.2779
33.9609
33.7851
33.7087
33.4441
33.4702
33.5332
33.6563
33.8622
34.2148
34.7767
35.5064
36.4631
36.9312
33.2161
15.4969
38.4418
42.5183
41.12
39.3236
37.8197
36.6172
35.5587
34.8379
34.1372
33.8233
33.6479
33.5714
33.3133
33.3397
33.4037
33.5284
33.7364
34.0913
34.6532
35.3748
36.2825
36.5592
32.3789
15.1256
37.5636
41.9024
40.7559
39.0726
37.6135
36.4348
35.3929
34.6841
33.9944
33.6834
33.5084
33.4318
33.182
33.2088
33.2737
33.4
33.6096
33.9664
34.5277
35.2391
36.0908
36.18
31.5943
14.827
36.7347
41.3115
40.401
38.8272
37.4119
36.2549
35.2276
34.5296
33.8501
33.5419
33.3672
33.2905
33.0506
33.0778
33.1435
33.2714
33.4824
33.8408
34.4009
35.0997
35.8894
35.7976
30.8614
14.5834
35.9506
40.7429
40.0543
38.5866
37.2146
36.0779
35.0634
34.3752
33.7052
33.3994
33.225
33.1481
32.9193
32.9468
33.0133
33.1428
33.3551
33.7149
34.273
34.9569
35.68
35.4148
30.1779
14.3822
35.2074
40.1944
39.7151
38.3501
37.0212
35.9038
34.9008
34.2213
33.5599
33.2563
33.0821
33.005
32.7882
32.8161
32.8834
33.0144
33.2279
33.589
34.1445
34.811
35.4642
35.0337
29.5407
14.2146
34.5021
39.6643
39.3825
38.1174
36.8313
35.7326
34.7401
34.0684
33.4148
33.1132
32.939
32.8617
32.6576
32.6858
32.754
32.8865
33.1011
33.4632
34.0153
34.662
35.2435
34.6559
28.946
14.0743
33.832
39.1511
39.0562
37.8879
36.6446
35.5642
34.5813
33.9167
33.2701
32.9701
32.796
32.7184
32.5277
32.5562
32.6252
32.7593
32.9749
33.3379
33.8856
34.5103
35.0193
34.2825
28.3901
13.957
33.1948
38.6537
38.7354
37.6614
36.4607
35.3985
34.4247
33.7663
33.1261
32.8276
32.6534
32.5754
32.3984
32.4273
32.4972
32.6329
32.8494
33.213
33.7555
34.3562
34.7925
33.9143
27.8691
13.8593
32.5887
38.1713
38.42
37.4376
36.2793
35.2353
34.2701
33.6174
32.9829
32.6856
32.5113
32.4329
32.2701
32.2994
32.3701
32.5073
32.7247
33.0888
33.625
34.1999
34.564
33.5517
27.3794
13.7791
32.012
37.703
38.1095
37.2162
36.1002
35.0744
34.1177
33.47
32.8407
32.5445
32.3699
32.2912
32.1425
32.1722
32.2439
32.3827
32.601
32.9653
33.4941
34.0418
34.3343
33.1952
26.9176
13.7149
31.4634
37.2483
37.8038
36.9972
35.9232
34.9157
33.9673
33.3243
32.6996
32.4042
32.2293
32.1501
32.0169
32.047
32.1196
32.2599
32.4784
32.8426
33.363
33.8822
34.1042
32.8449
26.4805
13.6654
30.9417
36.8069
37.5028
36.7803
35.7482
34.7591
33.8189
33.1802
32.5604
32.2659
32.0907
32.0111
31.8979
31.9285
32.0021
32.1438
32.3579
32.7215
33.2323
33.7215
33.8739
32.5009
26.0649
13.6301
30.446
36.3784
37.2065
36.5656
35.575
34.6047
33.6738
33.039
32.4299
32.1361
31.9605
31.8804
41.7825
46.6382
42.4651
42.2711
49.9576
47.1636
42.1004
51.4151
50.2253
41.6435
51.911
51.513
40.9773
40.5093
41.9027
51.9509
51.9332
39.7096
44.9243
40.6951
48.6231
52.1555
51.8925
40.1981
39.4689
41.9302
39.3175
50.9534
44.2681
45.8012
41.6076
40.1751
38.9392
41.6397
41.1403
53.9865
55.5644
48.7951
43.3081
42.0712
39.2413
41.6737
41.6654
42.233
43.5047
44.4651
51.943
52.1159
50.3258
44.5419
43.6609
39.5377
41.4743
41.6571
41.8961
40.0951
41.9555
52.3484
51.8209
39.8349
41.1335
41.4397
41.3364
35.6265
37.8556
40.9739
53.4774
53.0163
40.1764
40.4452
41.0771
40.5574
31.8474
33.1864
36.0705
45.3965
45.3642
45.6873
46.8255
42.5738
45.4006
55.533
51.4115
44.8989
50.0815
54.5488
44.5851
45.3339
42.2288
45.8257
44.6182
46.7761
45.9713
52.2007
53.8303
48.5993
54.3692
53.2767
54.6719
54.4574
48.4172
42.1406
43.3448
42.2085
42.9908
41.2968
44.5354
43.1039
51.7588
51.9776
51.0327
53.3446
53.3281
53.2246
53.3567
50.8673
37.9775
39.9786
41.8374
39.0883
36.7518
41.1796
39.2142
52.9449
52.4293
33.2876
35.4894
41.2956
42.8672
34.1506
32.4495
36.6317
34.2816
43.7968
53.6453
53.5362
40.5576
40.5859
31.7925
40.5024
42.7204
32.2895
63.1544
32.3736
32.2443
42.361
38.5858
41.0373
39.9113
41.1597
44.5214
42.1868
59.008
48.9873
42.1806
45.4291
45.8862
46.2614
50.8888
45.3454
44.779
49.2215
45.5409
45.2078
45.0183
53.9783
53.752
45.8604
44.7588
41.3466
51.0272
44.4765
51.0317
43.7246
49.3652
44.2865
44.9331
42.8556
51.7938
53.4771
53.6058
53.3345
53.454
51.7369
39.5888
48.1159
41.0002
40.8759
40.5547
42.1954
43.4866
41.1405
40.9548
59.9362
48.239
58.5212
47.3674
57.2083
47.2403
55.1655
55.2624
51.8685
51.8829
42.2337
45.2693
52.1213
42.9214
42.8628
46.5302
43.118
52.0509
36.8611
40.7458
40.383
46.9397
45.886
47.5921
32.4695
38.4663
37.9509
39.1291
38.6397
32.5632
54.4158
51.483
46.3769
51.6538
53.1098
48.4194
51.359
46.5679
43.9159
48.8065
43.7928
52.8918
49.6067
44.3387
52.0073
54.4483
54.3385
54.0782
45.2968
42.5096
45.2083
46.4962
45.3114
48.0021
42.7878
44.9628
46.3761
52.9339
53.0501
53.8157
52.5534
52.0719
53.0173
52.6871
53.7381
55.0015
50.9502
50.0474
51.883
51.2108
54.9867
42.2098
42.0982
43.9213
43.8301
52.2193
46.7466
52.1907
38.1663
37.9877
40.2237
40.094
42.9876
44.6059
52.6579
42.6441
42.1085
34.5694
39.7292
39.2841
40.2583
39.8678
34.6962
39.6877
33.4761
33.3759
35.7855
35.6606
49.9948
39.9884
48.3135
47.289
37.7841
36.9073
33.0329
35.7925
39.4397
42.8916
31.9409
56.2653
43.7445
54.0281
31.9058
41.3216
46.7918
40.672
56.0734
40.8601
41.9697
40.4046
39.3457
40.3148
38.2524
32.1017
40.3465
50.132
51.4697
52.0455
52.6265
42.5344
44.9243
49.5891
48.6426
40.1336
54.053
54.0278
45.3996
42.5089
41.9727
43.9532
46.9438
42.5322
42.6326
54.513
57.0811
56.4152
55.526
51.8436
46.7469
46.8231
49.5982
48.9339
51.9357
40.9619
42.2982
42.0462
42.6127
42.3793
41.1152
41.1909
40.8613
36.9895
32.0624
35.1441
34.773
58.1095
44.041
45.0064
55.2195
57.7938
57.2903
52.3868
48.0924
46.6708
49.7013
48.5287
52.7664
52.489
50.5836
49.8776
53.4476
42.6741
42.8958
42.6866
38.2267
38.6417
41.6435
46.8082
46.6531
52.0682
53.3222
53.5193
53.4862
53.0348
53.3084
53.1049
53.4652
53.3587
53.0228
38.9977
41.5935
41.2952
41.9594
41.6883
39.1404
38.7117
34.8042
35.0856
33.6785
33.7864
37.1566
40.7891
37.5046
38.0857
35.1869
35.5111
39.5918
52.7301
44.8671
47.1194
52.0038
40.9019
33.843
32.764
36.2715
33.4717
33.6362
33.1082
34.939
47.9389
38.0533
36.0538
35.0173
34.6534
34.2807
31.6841
40.2016
38.6129
43.7503
32.4
66.2331
40.3624
39.2542
43.9291
32.1626
32.1428
55.9781
55.1906
54.603
46.9454
46.8879
40.4607
40.6493
49.6874
49.6775
49.2455
46.938
55.7686
47.4304
57.0912
47.9687
44.6751
42.4461
43.5849
46.1402
47.976
47.7137
43.7944
39.8622
48.5321
52.452
43.6926
47.2216
54.2345
40.5893
42.733
39.1647
40.1027
52.4511
60.465
55.0546
52.4413
57.5278
55.7495
51.4709
48.4277
53.9541
55.1326
54.7608
54.7081
55.4794
56.1697
55.381
47.566
46.8635
51.84
48.0363
48.4745
46.6574
47.8194
48.5267
51.9113
48.6858
47.8365
42.9598
43.3547
42.6149
48.073
47.3999
44.6479
46.4649
45.9808
47.1319
46.6304
44.1514
43.9214
40.945
40.5212
35.7333
35.2636
32.1446
32.8221
36.2473
35.8691
53.3074
52.8525
52.4914
49.0972
49.2896
48.3388
48.9583
52.7461
49.9229
49.0758
48.755
49.2796
49.1405
50.3779
51.9777
47.231
48.0966
54.2216
54.3922
57.8238
57.635
55.0223
58.5414
58.8781
58.6277
58.4081
57.9719
58.9913
58.601
53.0822
57.3785
57.9023
41.4625
45.2736
44.3329
46.0417
45.4999
41.721
43.3344
42.8336
44.0766
43.5056
46.4012
48.0106
47.534
48.6154
48.1656
46.7883
43.6826
46.7144
46.211
47.372
46.8804
43.9878
51.518
50.8211
52.5946
53.3541
52.4777
51.7294
38.1971
37.7764
38.8526
38.3446
37.0982
36.7182
37.6388
37.2301
42.0177
41.5234
42.6711
42.1818
40.5027
39.1121
41.357
40.7916
45.4164
45.3468
45.8605
45.5257
47.0953
45.523
46.3385
45.3536
45.364
34.4179
34.7135
38.5852
34.1001
33.8535
34.3972
34.1779
33.783
37.3361
33.825
34.2856
36.1549
37.1281
40.6381
35.8172
35.1808
36.593
36.1249
34.7384
34.4782
35.0926
34.8276
39.7172
35.6257
36.0008
47.9424
42.1859
47.7903
45.85
47.6315
42.1057
52.5531
40.4537
52.1831
49.6558
33.7516
32.9216
33.2439
33.4128
36.1504
35.1855
33.1004
33.1969
49.673
31.6935
34.13
33.2124
61.3574
63.5575
32.4965
62.0171
55.6285
40.9501
32.0948
56.5392
47.0291
62.4104
48.4381
32.1562
41.6095
39.7235
38.5834
49.5805
49.1691
50.9439
45.8137
45.4913
48.9516
40.0271
42.8724
40.7341
53.6263
53.8321
51.9687
44.2306
43.4955
47.0093
54.1574
44.3652
44.4464
40.6107
41.0357
43.1181
49.6151
53.8144
55.7131
43.948
43.3449
43.1977
43.5006
43.3879
44.0836
42.2139
41.3114
42.9725
47.4095
48.2944
53.2221
36.735
36.3697
32.9129
56.2178
57.0853
52.6865
43.1426
42.9612
42.8464
42.6543
39.9313
40.4427
40.6919
41.6882
43.4389
33.7633
37.2572
36.8588
46.881
45.7067
42.1029
32.5311
32.4991
32.5354
44.9174
49.9479
48.3828
39.8487
43.2052
42.4936
32.3164
32.3038
32.5902
32.569
32.2095
58.3501
46.8224
43.6788
44.6632
49.8506
40.8971
40.8134
45.8947
50.5572
46.1669
44.6182
47.0459
43.9833
41.9409
41.0407
53.9805
54.199
54.8197
51.4765
53.3814
42.0276
42.4076
45.775
59.0833
57.2329
56.4075
60.8697
60.1972
42.414
44.4051
43.7617
46.7706
46.6607
44.4333
48.757
48.2619
42.6153
46.1423
43.7311
43.9489
46.0886
42.0565
42.7928
54.1202
54.9473
51.9354
51.94
51.2416
51.073
48.8263
49.3112
49.0113
50.8928
50.7012
51.0517
45.9744
46.9369
51.6223
53.1318
56.3091
54.9372
55.4721
55.8826
54.4701
40.9014
41.8566
41.6164
44.5126
44.2647
42.2384
39.8769
39.6638
41.3554
41.0881
45.6738
47.1216
46.8503
48.7355
48.4674
47.5906
43.0754
45.0152
44.7621
46.5804
46.313
44.6249
39.3523
39.7835
42.5444
41.7571
38.7824
39.2097
42.588
43.0377
44.1914
38.3176
38.1434
39.4634
39.2632
37.168
37.9742
37.8102
43.5408
41.9236
42.4354
47.075
47.1554
44.2549
44.6225
46.8711
47.1779
47.3332
52.0941
46.6682
46.9781
37.774
37.3937
34.0031
35.0352
38.2185
37.889
32.5973
32.6653
33.5703
33.2604
32.4688
32.531
50.2757
32.157
31.9579
32.1193
103.437
33.6917
40.429
53.9885
50.8703
32.5086
32.5195
31.9843
57.0624
58.3495
58.2004
51.7797
31.8906
32.4881
32.4959
43.5024
38.9774
39.0699
48.9807
49.6682
45.3511
44.4706
41.5186
55.1793
55.705
57.2027
43.2232
47.9453
46.5813
48.3822
48.3589
44.0052
43.6136
44.1947
52.1708
53.8213
54.0492
53.3154
53.5814
56.8665
56.3082
56.4953
55.923
56.1172
56.63
49.4138
48.9064
49.1122
48.6461
48.7405
49.1984
57.625
56.9549
57.0049
56.6756
56.8365
57.4731
50.301
49.8066
50.0526
49.3365
49.5682
50.1123
52.8285
53.0522
52.3718
52.5748
34.8942
36.2741
36.1633
33.7152
34.173
34.0734
34.405
34.2812
33.7515
51.2568
51.2711
48.9509
50.652
32.9354
32.9367
32.9429
32.9381
32.9841
32.635
32.4828
32.4985
33.5306
33.7976
33.7087
33.9796
33.888
33.5865
32.9638
32.9496
33.016
33.0021
33.3128
50.6261
50.4593
46.2326
51.1011
32.9623
32.1515
41.5522
31.7076
32.2078
32.135
32.3392
66.4666
65.8901
64.4068
65.3213
61.5608
32.5631
32.5871
32.2339
32.1736
57.7951
58.948
57.6199
56.7731
55.7054
53.0981
58.1918
56.8385
47.0189
46.9602
49.8405
45.7982
47.3137
50.1106
48.6357
54.3656
49.7765
51.6505
56.7255
57.346
53.4086
55.9666
58.3624
47.4695
48.3181
47.9301
50.1984
53.3512
53.5812
51.9249
44.7953
50.9406
48.8968
53.6125
52.9587
46.0062
47.9815
49.5186
54.7385
50.7356
45.4166
46.6003
59.0643
57.9296
59.5893
56.8634
58.507
59.4299
59.8443
59.4661
54.874
54.6295
54.8567
54.2526
54.4085
54.6882
55.9064
55.5103
55.7205
55.0779
55.296
55.6518
47.3037
48.5233
48.6145
48.1997
48.3646
47.027
47.9211
47.8056
47.5031
48.7524
49.0432
48.3491
48.6875
48.64
48.6901
48.7198
48.0994
46.3445
45.3014
42.6486
47.1544
47.3672
47.2074
43.8374
46.8192
46.8033
43.4952
43.5921
45.3282
53.7398
52.3898
50.0177
49.6466
49.1817
50.7319
50.4995
50.2821
56.5641
56.4914
53.8588
57.7692
58.0562
54.461
56.2492
56.4965
57.7249
56.9064
56.8652
56.9666
56.9342
57.6517
58.6559
58.7363
58.3193
59.9159
59.9211
59.636
59.8133
58.2052
59.0691
59.9304
60.2323
59.1052
43.372
42.8013
41.2119
41.9786
44.0137
43.7368
40.3343
40.1009
40.8283
40.577
47.6594
47.3905
46.0325
47.1859
48.1994
47.9297
45.5319
45.2727
43.3753
44.2986
46.0491
45.7898
51.2914
50.8199
51.0861
50.302
50.5573
51.0177
52.2227
51.8757
52.0983
51.3571
51.6251
51.9956
38.0542
36.7753
36.9146
36.5017
36.6385
37.9147
38.663
37.3657
37.5259
37.0585
37.2085
38.4984
36.969
35.7281
35.8458
35.5017
35.6142
36.8427
37.5016
36.2293
36.3651
35.9683
36.0963
37.3648
38.6813
38.4968
41.8533
40.3461
40.5216
39.9988
40.1718
41.6886
39.0645
38.8705
37.352
37.2301
40.062
38.5546
39.0029
37.6842
37.8401
39.511
41.1868
39.6539
39.8266
39.2767
39.4764
41.005
37.6516
37.4984
46.3324
46.8049
46.9234
45.0584
45.6337
45.7598
47.5649
47.4534
47.7532
47.6847
46.0388
45.3278
46.1641
45.6684
47.2006
46.7891
45.3094
34.5231
35.8105
35.659
36.0519
35.9364
34.62
34.0171
33.9332
34.3208
34.2508
33.7569
33.911
33.8822
34.8118
34.5674
35.4518
35.1442
34.0965
35.3725
35.0782
35.0135
35.2714
36.4634
35.2802
35.3901
35.0771
35.1751
36.319
34.6498
34.5627
35.0047
34.9164
47.7173
43.2282
43.8467
42.2071
42.6788
47.1715
46.7972
47.3367
44.58
45.6077
47.5315
52.2662
46.0828
47.3366
43.8321
44.9417
51.5973
32.8823
32.8435
32.93
32.913
32.3909
32.4157
33.1147
32.7275
32.7429
32.8021
32.762
33.2974
33.4564
33.3779
33.6221
33.5379
33.3544
33.1296
33.166
33.0955
33.3033
33.2329
33.1574
50.3172
32.0587
31.9642
31.7796
59.7356
77.7494
78.9864
71.76
73.9543
61.5751
32.7881
59.6575
51.6145
53.2388
32.035
32.5248
32.5399
56.9646
59.5075
59.9397
54.9694
57.2487
62.329
59.8756
50.0372
57.5613
55.373
32.7876
32.5399
31.9368
36.6724
36.6925
36.8037
36.7012
36.7355
36.8251
36.7496
36.8003
36.8583
36.819
36.8768
36.8996
36.8944
36.9367
36.9356
36.9457
36.9564
36.9498
36.9542
36.9312
36.9353
36.9186
36.87
36.901
36.8523
36.7988
36.8624
36.7824
36.739
36.8304
36.5241
36.5673
36.6582
36.586
36.6592
36.7106
36.6891
36.7882
36.7892
36.8209
36.9125
36.879
36.939
37.0002
36.9447
37.0131
37.0263
36.9659
37.0222
36.9864
36.9381
36.9676
36.8952
36.8697
36.8672
36.7757
36.7854
36.7442
36.6568
36.7136
36.398
36.4838
36.5419
36.5213
36.656
36.6515
36.7041
36.8551
36.7969
36.9064
37.0537
36.9353
37.0974
37.1976
37.033
37.2175
37.2304
37.0607
37.2199
37.1522
37.0147
37.1201
37.0042
36.9131
36.9601
36.8226
36.7817
36.777
36.644
36.6461
36.3052
36.4528
36.4704
36.5125
36.7089
36.6643
36.7823
37.0275
36.8871
37.1166
37.3954
37.115
37.486
37.7026
37.2836
37.742
37.735
37.3178
37.6964
37.526
37.2206
37.4586
37.2417
37.0491
37.1686
36.954
36.8467
36.8852
36.691
36.6506
36.2496
36.4644
36.453
36.5444
36.8276
36.7327
36.9391
37.3441
37.0911
37.5095
38.1384
37.5314
38.3983
39.1643
37.9266
39.2388
39.0497
37.9512
38.868
38.2955
37.6718
38.1241
37.6762
37.3295
37.5445
37.1903
37.0025
37.084
36.7972
36.7118
36.2221
36.4982
36.471
36.6046
36.9943
36.866
37.1546
37.7866
37.4469
38.0764
39.6877
38.4274
39.1962
39.9036
38.9429
40.7081
40.6792
39.5755
40.0192
39.5767
39.0909
39.2911
38.3524
37.8228
38.1159
37.5374
37.2669
37.3764
36.9626
36.8333
36.2095
36.5459
36.5092
36.6793
37.1711
37.0393
37.3755
38.1978
37.8995
38.3544
38.7898
38.6191
40.7136
41.3877
41.0634
43.7259
42.0995
41.0396
40.8204
39.2119
38.5557
38.8372
37.9721
37.6399
37.7433
37.1755
37.0124
36.2035
36.5977
36.5587
36.7556
37.3303
37.2128
37.5663
38.5029
38.2825
38.7752
39.297
39.1919
42.0046
42.9422
42.8222
47.488
44.8152
43.871
42.2535
40.0832
39.4356
39.5796
38.4336
38.0876
38.1361
37.41
37.2332
36.2012
36.6504
36.6108
36.8301
37.4749
37.3673
37.736
38.7626
38.5694
39.092
39.6696
39.5805
42.2628
43.0638
43.1358
49.7193
46.6331
46.0784
43.3596
40.8357
40.2851
40.2367
38.8636
38.5456
38.5067
37.6394
37.4687
36.2031
36.7054
36.6639
36.9056
37.6189
37.5105
37.9055
39.0277
38.8272
39.3896
39.9916
39.917
42.0051
42.3375
42.5109
50.699
47.5549
47.2879
44.1215
41.418
40.9985
40.758
39.2242
38.9613
38.8222
37.8417
37.6931
36.2089
36.7641
36.7198
36.9844
37.772
37.6561
38.0888
39.3154
39.0976
39.6892
40.3749
40.1956
41.4968
41.1982
41.4459
50.9449
48.608
48.5035
44.5886
41.8207
41.5354
41.1286
39.4958
39.3009
39.0634
38.0015
37.8859
36.2337
36.8487
36.7793
37.0914
37.9699
37.812
38.3263
39.6695
39.3903
39.9837
40.649
40.5617
40.7732
39.5136
39.8878
43.4477
50.8172
49.8847
50.486
46.0073
45.8861
44.8142
42.0557
41.8945
41.3521
39.6737
39.5489
39.2243
38.1106
38.0335
36.2368
36.9076
36.8653
37.1697
38.1272
38.0119
38.5167
39.9276
39.743
40.3143
40.7648
40.8058
39.0144
35.5665
36.5482
49.278
53.5819
54.0046
50.0344
45.9186
46.0183
44.7913
42.1308
42.0906
41.4384
39.7613
39.7042
39.3075
38.1686
38.1296
36.2258
36.9454
36.9196
37.2285
38.2518
38.1621
38.6629
40.005
39.9704
40.2998
36.1472
38.6214
29.4445
42.4639
42.9425
48.5679
50.2822
51.1939
49.1404
45.5997
45.8632
44.5798
42.079
42.1266
41.4081
39.7639
39.7681
39.3134
38.1706
38.1733
36.1963
36.9509
36.95
37.2482
38.31
38.2758
38.7162
39.7863
39.975
39.817
32.8066
35.2936
25.4389
41.4519
42.2326
46.9794
49.0658
49.9726
48.1479
45.0905
45.4822
44.1798
41.8976
42.0487
41.2695
39.6956
39.7551
39.2557
38.1224
38.164
36.1462
36.9216
36.9467
37.2251
38.2755
38.3093
38.6485
39.3666
39.6967
39.0926
29.7903
32.0161
22.4586
40.3454
41.1775
45.4983
47.9331
48.7742
47.2032
44.54
44.9536
43.7187
41.6216
41.8341
41.0346
39.5422
39.6636
39.1186
38.0132
38.0999
36.0768
36.8615
36.9093
37.1648
38.169
38.2549
38.4932
38.8142
39.2393
38.2085
27.1889
29.1005
20.3039
39.2553
40.0694
44.1338
46.8875
47.6639
46.3258
44.0017
44.4033
43.2548
41.3126
41.546
40.7612
39.343
39.4955
38.9361
37.8649
37.979
35.991
36.776
36.8423
37.074
38.0085
38.1334
38.275
38.1672
38.6599
37.2407
24.9908
26.6031
18.7441
38.2136
38.9898
42.8757
45.9196
46.6386
45.5068
43.4911
43.8713
42.808
40.9976
41.2338
40.4763
39.1228
39.2893
38.7311
37.6939
37.8238
35.8918
36.6698
36.7512
36.9587
37.8067
37.9615
38.01
37.4632
37.9949
36.2529
23.1476
24.4988
17.601
37.2273
37.9618
41.7111
45.0198
45.6887
44.7383
43.0085
43.368
42.3836
40.6879
40.9194
40.1925
38.8948
39.0662
38.5165
37.5107
37.649
35.7819
36.5471
36.6406
36.8234
37.5728
37.751
37.7085
36.7374
37.2827
35.2775
21.6044
22.7358
16.7494
36.2952
36.9893
40.6283
44.1783
44.8043
44.0141
42.5481
42.8916
41.979
40.3881
40.6119
39.9154
38.6661
38.8375
38.2994
37.3215
37.4637
35.6636
36.4107
36.5142
36.6718
37.3126
37.5101
37.377
36.0101
36.5552
34.3337
20.3102
21.2594
16.1033
35.414
36.0703
39.6173
43.3867
43.9761
43.3286
42.1052
42.4359
41.5897
40.0993
40.3149
39.6472
38.4404
38.6093
38.0839
37.1304
37.2738
35.5385
36.2629
36.3748
36.5064
37.0299
37.2439
37.0225
35.2933
35.8296
33.4335
19.2211
20.0202
15.6039
34.5799
35.2012
38.6697
42.6381
43.1958
42.6766
41.6772
41.9969
41.2126
39.8199
40.0287
39.3874
38.2195
38.3847
37.872
36.94
37.0827
35.4081
36.1051
36.2243
36.3287
36.7293
36.9562
36.6531
34.5949
35.1167
32.5833
18.3012
18.9765
15.2108
33.7893
34.3783
37.7783
41.9267
42.4569
42.054
41.2626
41.5723
40.846
39.548
39.7513
39.1348
38.0039
38.1651
37.6646
36.7518
36.8927
35.2733
35.9383
36.0642
36.1397
36.4162
36.652
36.2752
33.9205
34.4239
31.7855
17.5209
18.094
14.8959
33.0393
33.5981
36.9375
41.2481
41.7541
41.4571
40.8599
41.1608
40.4889
39.2823
39.4811
38.888
37.7934
37.9508
37.4619
36.5664
36.7051
35.1349
35.763
35.8952
35.9406
36.095
36.3365
35.8933
33.2731
33.756
31.0399
16.8567
17.3448
14.6399
32.3272
32.8578
36.1426
40.5988
41.0832
40.8831
40.468
40.761
40.1402
39.0219
39.2167
38.6463
37.5875
37.7415
37.2635
36.3844
36.5206
34.9929
35.5801
35.7179
35.733
35.7692
36.0139
35.5104
32.6543
33.1157
30.3444
16.2894
16.7065
14.429
31.6508
32.1548
35.3895
39.9758
40.4407
40.3298
40.0857
40.3716
39.7992
38.766
38.9575
38.4089
37.3858
37.5367
37.0692
36.2057
36.3394
34.8478
35.3908
35.5333
35.5186
35.4411
35.6873
35.1288
32.0643
32.5041
29.6959
15.8037
16.1609
14.2537
31.0081
31.487
34.6751
39.3768
39.8239
39.7952
39.7121
39.9915
39.4651
38.5143
38.7027
38.1752
37.1876
37.3359
36.8785
36.0302
36.1615
34.6995
35.1961
35.3425
35.2991
35.1124
35.3589
34.75
31.5027
31.9213
29.0909
15.3871
15.6935
14.1071
30.3974
30.8525
33.9964
38.8
39.2306
39.2779
39.3465
39.62
39.1372
38.2663
38.452
37.945
36.9926
37.1386
36.691
35.8577
35.9868
34.5485
34.9972
35.1467
35.0756
34.7846
35.0303
34.3754
30.9683
31.3666
28.5257
15.0294
15.2925
13.9843
29.8172
30.2496
33.3511
38.2437
38.659
38.7766
38.9882
39.2563
38.8151
38.0217
38.2049
37.7178
36.8006
36.9444
36.5064
35.688
35.815
34.3949
34.795
34.9469
34.8494
34.4585
34.7029
34.0058
30.4596
30.8388
27.9963
14.7225
14.9482
13.882
29.2662
29.6768
32.7374
37.7068
38.1077
38.2905
38.6368
38.8998
38.4983
37.78
37.961
37.4933
36.611
36.753
36.3244
35.521
35.646
34.2392
34.5903
34.744
34.6212
34.135
34.3774
33.6418
29.9749
30.3363
27.4991
14.4593
14.6528
13.7976
28.7431
29.1328
32.1535
37.1882
37.5755
37.8188
38.2919
38.55
38.1866
37.5412
37.7201
37.2714
36.4238
36.564
36.1448
35.3563
35.4796
34.0815
34.3837
34.5388
34.3918
33.8147
34.0546
33.2838
29.5123
29.8572
27.0307
14.2343
14.3996
13.7295
28.247
28.6166
31.598
36.6872
37.0613
37.3608
37.9533
38.2067
37.8798
37.305
37.4819
37.0517
36.2387
36.3774
35.9673
35.1939
35.3155
33.9223
34.1759
34.3319
34.1617
33.4978
33.7351
32.9319
29.07
29.3999
26.5876
14.0426
14.1834
13.6764
27.7768
28.127
31.0697
36.203
36.5646
36.9161
37.6207
37.8696
37.5776
37.0713
37.2463
36.8343
36.0556
36.1928
35.7918
35.0336
35.1537
33.7618
33.9673
34.1238
33.9314
33.1847
33.4192
32.5863
28.6461
28.9624
26.1669
13.8803
13.9994
13.6376
27.332
27.6633
30.5675
35.7353
36.0846
36.4843
37.2942
37.5386
37.2801
36.84
37.0132
36.619
35.8742
36.0101
35.6181
34.8753
34.9939
33.61
33.7695
33.9151
33.7131
32.8876
33.1071
32.2584
28.246
28.5428
25.7711
13.7444
13.844
13.6125
26.9167
27.2247
30.0979
35.2955
35.6209
36.0782
36.9871
37.2136
37.0006
36.6236
36.7826
36.4179
35.7059
35.8292
35.4571
34.7294
34.8361
42.6919
42.547
41.6554
46.0826
47.533
48.6373
42.7772
43.4671
43.0649
43.1555
43.1951
42.2691
49.6599
51.6701
52.047
48.97
49.8559
47.6592
42.5654
42.7188
42.1416
51.3045
52.8296
52.8828
52.1531
52.4195
50.4651
41.5242
41.7477
41.7114
51.8798
52.8322
52.8508
52.6143
52.6724
51.5975
40.0064
40.3443
41.1208
40.354
39.4559
39.5079
44.5525
44.1489
41.5642
51.9704
53.8719
53.9729
52.8644
52.8772
51.9509
36.8127
37.4574
39.965
44.0761
38.588
38.768
40.224
39.3053
40.4672
51.7525
51.5522
46.7235
51.7328
54.0411
53.9359
53.9997
54.0435
51.763
41.8524
40.2853
39.4217
52.3957
49.9136
55.6406
39.1768
40.1428
40.6172
53.3402
53.2368
41.4465
41.6764
42.1885
39.4935
40.5813
40.2504
50.4857
51.4796
52.1066
44.9512
46.1327
45.2382
43.5337
42.4611
44.2692
41.1303
41.9169
42.4944
40.7608
41.3326
40.6483
39.489
39.3949
38.8593
41.4966
39.9148
40.0853
39.6709
39.8568
41.4177
54.1521
53.5939
53.3411
56.1497
56.054
55.5705
45.8603
45.0989
47.8486
42.9252
44.0648
44.5134
43.0516
43.5774
42.5124
39.8384
39.7558
39.1669
41.7006
40.3288
40.4403
40.1387
40.2851
41.7009
42.9344
43.0352
42.251
43.6595
43.6605
43.554
44.2105
44.1279
44.3418
51.8974
50.3428
50.3956
50.6059
50.4806
52.0404
47.1767
46.7908
49.8976
44.2774
45.6127
45.8995
44.9207
45.2872
43.9843
40.1304
40.0625
39.4636
41.5648
40.5798
40.6448
40.4728
40.5546
41.591
42.0878
42.2769
41.952
40.449
41.5844
41.4337
42.4392
42.2991
41.7615
52.271
50.3142
50.4709
48.0838
48.5396
51.8915
40.5308
40.4227
39.7623
41.2847
40.719
40.7767
40.6655
40.7011
41.3272
40.8426
41.1116
41.4208
36.2044
38.7064
38.6784
39.9036
39.7171
37.4884
40.0555
40.1544
41.5005
53.2887
48.5844
49.4321
51.7997
51.9381
53.0875
40.7855
40.678
40.0749
40.8316
40.8652
40.9166
40.795
40.8481
40.8974
38.978
39.3825
40.7212
31.9122
32.519
32.4313
34.4105
34.2963
33.0943
28.0355
30.8423
37.7905
45.1335
41.4913
36.9778
38.7112
38.7294
44.5351
45.9391
47.7593
46.9598
48.2282
48.4137
46.8156
42.9938
43.4693
42.9357
46.5473
46.1325
45.0784
55.4727
56.2847
56.23
52.6713
53.1728
51.8567
45.8357
47.1317
45.4999
50.7702
49.3763
48.7652
52.1669
51.7856
53.9791
44.9297
43.6217
43.5335
43.7597
43.6498
45.0369
42.2593
43.1931
43.0375
45.6758
45.7623
46.1845
43.7712
44.2125
44.8692
46.7003
47.8198
48.1369
46.3188
46.7155
46.1123
52.2912
50.8952
50.7463
53.0961
52.8744
53.6847
51.006
51.5243
49.1034
54.1232
54.0279
53.9221
54.2981
54.2958
53.454
54.9119
52.8151
52.5094
53.8786
53.7506
54.736
47.8512
50.1177
50.8091
42.3211
42.7079
42.5752
43.4432
43.3286
43.1817
42.1779
42.7661
42.8958
42.8769
42.367
42.5069
40.5442
40.6758
41.4136
44.2778
43.1859
43.6257
42.6543
42.8078
43.2192
51.7056
47.5034
47.9405
50.4397
50.4793
52.0118
52.7069
52.8064
51.1773
53.3335
54.1537
54.1804
53.5185
53.5221
53.3239
53.1057
54.2882
54.2952
54.2072
54.2333
52.9988
50.679
52.4907
52.6641
38.3659
40.2674
40.0867
41.28
41.1236
39.6301
41.7759
41.8187
42.0225
38.9626
37.7888
37.9143
35.3415
35.4545
36.8752
41.0573
40.2692
40.41
38.0404
38.1666
39.3402
52.8736
51.5155
51.6585
50.6335
50.7814
52.5084
33.407
34.6722
34.5328
38.6049
38.3222
35.1444
41.1651
40.4503
40.7488
34.0395
33.0255
33.1187
36.5121
35.1261
35.2332
33.2239
33.3522
34.4516
53.5337
50.7366
51.448
49.7069
50.4874
53.6992
40.239
40.0428
40.0218
44.1137
31.8237
31.7797
32.3521
32.2786
31.7457
40.2101
38.1215
38.8417
40.3595
40.6363
43.0705
63.1504
62.0931
67.3873
42.0121
39.8626
40.097
39.0752
38.9422
38.4762
40.6562
39.3718
39.604
38.9984
39.2851
40.4971
41.9556
41.6892
40.9484
43.6564
42.3173
42.784
41.7655
42.149
43.3101
50.9183
53.3501
51.1072
43.0435
43.0194
42.1038
45.6855
43.8343
43.7843
43.6755
43.8303
45.7566
48.374
47.6291
50.7646
45.1785
46.5612
46.7298
46.1509
46.3708
44.9902
45.2117
40.9252
41.5334
43.1217
43.3946
45.4455
51.7143
51.0889
43.8452
53.9141
52.8639
53.0498
51.6564
52.6603
53.8377
45.5065
43.3552
43.6046
42.9167
43.2609
45.3455