/*--------------------------------*- C++ -*----------------------------------*\
| =========                 |                                                 |
| \\      /  F ield         | OpenFOAM: The Open Source CFD Toolbox           |
|  \\    /   O peration     | Version:  v1912                                 |
|   \\  /    A nd           | Website:  www.openfoam.com                      |
|    \\/     M anipulation  |                                                 |
\*---------------------------------------------------------------------------*/
FoamFile
{
    version     2.0;
    format      ascii;
    class       volScalarField;
    location    "600";
    object      nut;
}
// * * * * * * * * * * * * * * * * * * * * * * * * * * * * * * * * * * * * * //

dimensions      [0 2 -1 0 0 0 0];


internalField   nonuniform List<scalar> 
12556
(
1.15562
1.15558
1.15553
1.15552
1.15589
1.15591
1.15593
1.15597
1.15603
1.15615
1.15632
1.15652
1.15666
1.15667
1.15656
1.15638
1.15621
1.15608
1.15599
1.15595
1.15555
1.15554
1.15558
1.15562
1.15486
1.15476
1.15466
1.15463
1.15492
1.15501
1.1551
1.15537
1.15557
1.15592
1.15642
1.15699
1.15741
1.15748
1.15718
1.15668
1.15616
1.15576
1.15533
1.15513
1.15473
1.1547
1.15478
1.15487
1.15407
1.15391
1.15377
1.15375
1.15399
1.15414
1.15435
1.1547
1.1552
1.15604
1.15721
1.1306
1.03545
1.03231
1.11141
1.15771
1.15656
1.15562
1.15488
1.15443
1.15396
1.15388
1.15397
1.15411
1.15326
1.15305
1.15288
1.15287
1.15309
1.15333
1.15372
1.15428
1.15535
1.15709
0.961363
0.781262
0.705847
0.716653
0.797903
0.948645
1.15788
1.15609
1.15477
1.15392
1.15327
1.1531
1.15317
1.15335
1.15244
1.15218
1.152
1.15201
1.15225
1.15261
1.15327
1.15423
1.15628
0.934566
0.657067
0.490485
0.420637
0.441137
0.529033
0.670619
0.882881
1.15748
1.15519
1.15368
1.15267
1.15235
1.15238
1.15257
1.15162
1.15132
1.15113
1.15118
1.15147
1.15202
1.15309
1.1547
1.09416
0.713344
0.449273
0.27856
0.208477
0.239973
0.333943
0.471445
0.663206
0.947459
1.15625
1.15377
1.1522
1.15164
1.15158
1.15177
1.1508
1.15047
1.15029
1.1504
1.15076
1.15156
1.15318
1.15568
0.948197
0.589051
0.331027
0.142376
0.0743789
0.114519
0.211804
0.342435
0.518373
0.770638
1.15357
1.15425
1.15187
1.15098
1.15078
1.15095
1.15
1.14966
1.14949
1.14968
1.15014
1.15125
1.15356
1.157
0.888286
0.567762
0.329312
0.125565
0.0625636
0.154632
0.272173
0.432574
0.659271
1.02809
1.15507
1.15168
1.1504
1.15002
1.15014
1.14925
1.14889
1.14876
1.14905
1.14963
1.15111
1.15416
1.15845
0.896427
0.63379
0.476932
0.372248
0.0708318
0.145297
0.247167
0.392506
0.598209
0.946636
1.15615
1.15165
1.14991
1.14931
1.14937
1.14855
1.14819
1.1481
1.1485
1.14924
1.15112
1.15491
1.15991
0.933386
0.723277
0.659686
0.707328
0.0960132
0.160106
0.252377
0.386702
0.576958
0.905714
1.15739
1.1518
1.14955
1.14872
1.1487
1.14793
1.14756
1.14752
1.14805
1.14896
1.15127
1.15578
1.16136
0.966573
0.778198
0.738948
0.605915
0.129793
0.189555
0.278573
0.407301
0.587454
0.89965
1.15869
1.15211
1.14936
1.14828
1.14818
1.14737
1.14701
1.14703
1.1477
1.1488
1.15155
1.15672
1.16281
0.985937
0.784579
0.699013
0.499065
0.165274
0.232073
0.324308
0.452418
0.626863
0.924326
1.15999
1.15255
1.14933
1.14802
1.14784
1.14689
1.14654
1.14663
1.14745
1.14874
1.15193
1.15771
1.16424
1.00455
0.773876
0.616087
0.419252
0.0423588
0.212322
0.296538
0.39714
0.526287
0.696997
0.979126
1.16121
1.15307
1.14943
1.14792
1.14766
1.14647
1.14613
1.14628
1.14725
1.14879
1.15246
1.15884
1.16572
1.04707
0.794544
0.578238
0.217251
0.0977359
0.314638
0.411524
0.513714
0.638388
0.802826
1.06703
1.16229
1.15361
1.14963
1.14794
1.14764
1.1461
1.14577
1.14598
1.14708
1.14884
1.15289
1.15975
1.16686
1.15606
0.897961
0.676807
0.0425882
0.147421
0.504159
0.626505
0.698996
0.802011
0.951242
1.16717
1.16316
1.15411
1.14987
1.14805
1.1477
1.14577
1.14544
1.1457
1.14693
1.14888
1.15327
1.16051
1.16771
1.16683
1.10692
0.756897
0.0324703
0.164212
0.521191
0.814188
0.980404
1.03078
1.15533
1.16802
1.16378
1.15452
1.15011
1.14819
1.14782
1.14547
1.14513
1.14542
1.14676
1.1489
1.15357
1.16109
1.16822
1.16601
1.10841
0.629536
0.029317
0.177842
0.532877
0.822908
1.01652
1.11509
1.1566
1.16842
1.16412
1.15481
1.15031
1.14832
1.14794
1.14518
1.14483
1.14514
1.14656
1.14886
1.15377
1.16146
1.16837
1.16416
1.08524
0.519082
0.028353
0.189192
0.539537
0.828759
1.01891
1.11605
1.15703
1.16841
1.16418
1.15495
1.15042
1.14842
1.14803
1.14488
1.14452
1.14485
1.14632
1.14876
1.15385
1.16164
1.16818
1.16123
1.05635
0.437099
0.0284348
0.198783
0.542088
0.832565
1.02005
1.11617
1.15689
1.16808
1.16402
1.15497
1.15046
1.14845
1.14807
1.14459
1.14422
1.14454
1.14605
1.1486
1.15383
1.16164
1.16769
1.15718
1.023
0.382266
0.0291256
0.206995
0.54296
0.83435
1.02031
1.11574
1.15634
1.16752
1.16369
1.15488
1.15044
1.14844
1.14806
1.14429
1.14391
1.14422
1.14576
1.14838
1.15371
1.16148
1.16693
1.15199
0.985693
0.345629
0.030212
0.214105
0.543336
0.833705
1.01986
1.11491
1.15552
1.1668
1.16324
1.15472
1.15035
1.14837
1.14798
1.14398
1.1436
1.14391
1.14546
1.14812
1.15352
1.16119
1.16592
1.14564
0.943645
0.319422
0.0315723
0.220322
0.543425
0.831008
1.01862
1.11377
1.1545
1.16596
1.1627
1.15449
1.15021
1.14824
1.14785
1.14366
1.14329
1.14359
1.14515
1.14784
1.15327
1.1608
1.16467
1.138
0.898857
0.299931
0.0331301
0.22581
0.543253
0.827233
1.01642
1.11234
1.15333
1.16506
1.16211
1.15423
1.15003
1.14808
1.14767
1.14334
1.14298
1.14328
1.14486
1.14757
1.15301
1.16034
1.16317
1.12865
0.856914
0.285135
0.0348349
0.230696
0.542846
0.823056
1.01334
1.11057
1.15203
1.16411
1.16149
1.15394
1.14982
1.14788
1.14745
1.14301
1.14267
1.14298
1.14457
1.1473
1.15273
1.15981
1.16137
1.11707
0.820696
0.273766
0.0366521
0.235085
0.542244
0.818768
1.00959
1.10845
1.1506
1.16314
1.16087
1.15363
1.14959
1.14765
1.1472
1.14267
1.14235
1.14268
1.14429
1.14703
1.15245
1.15921
1.15918
1.10324
0.789952
0.264967
0.0385581
0.239062
0.541489
0.814475
1.00543
1.10603
1.14906
1.16215
1.16023
1.15331
1.14934
1.1474
1.14692
1.14232
1.14203
1.14238
1.14401
1.14678
1.15216
1.15853
1.15649
1.08777
0.763662
0.258136
0.0405372
0.242698
0.540625
0.810219
1.00103
1.10337
1.14742
1.16114
1.1596
1.15298
1.14908
1.14713
1.14663
1.14198
1.14171
1.14208
1.14374
1.14653
1.15187
1.15776
1.15321
1.07152
0.740929
0.252832
0.0425795
0.246053
0.53969
0.806023
0.996517
1.1005
1.14569
1.16012
1.15897
1.15265
1.1488
1.14685
1.14631
1.14163
1.14139
1.14179
1.14348
1.14629
1.15156
1.15686
1.1493
1.05516
0.721077
0.248729
0.044679
0.249177
0.538719
0.801908
0.99196
1.09749
1.1439
1.1591
1.15834
1.15231
1.14852
1.14656
1.14599
1.14128
1.14107
1.1415
1.14323
1.14605
1.15124
1.15581
1.14477
1.03913
0.70359
0.245575
0.0468336
0.252114
0.537742
0.79789
0.987407
1.09437
1.14205
1.15807
1.15771
1.15197
1.14824
1.14627
1.14566
1.14093
1.14076
1.14121
1.14297
1.14581
1.15089
1.15458
1.13968
1.02364
0.688068
0.243175
0.0490434
0.254903
0.536788
0.793983
0.982893
1.09118
1.14015
1.15704
1.15709
1.15162
1.14795
1.14597
1.14533
1.14058
1.14044
1.14093
1.14273
1.14557
1.15052
1.15316
1.13411
1.00881
0.674194
0.241372
0.0513109
0.257578
0.535879
0.790204
0.978443
1.08795
1.13822
1.156
1.15648
1.15128
1.14767
1.14567
1.145
1.14024
1.14013
1.14065
1.14249
1.14534
1.15011
1.15153
1.12816
0.994651
0.661705
0.240041
0.0536401
0.260169
0.535038
0.786565
0.974077
1.08469
1.13625
1.15496
1.15586
1.15094
1.14738
1.14537
1.14467
1.13989
1.13982
1.14038
1.14225
1.1451
1.14965
1.1497
1.1219
0.981169
0.650387
0.239078
0.0560363
0.262704
0.534284
0.783082
0.969813
1.08142
1.13427
1.15391
1.15526
1.15061
1.1471
1.14507
1.14434
1.13957
1.13953
1.14012
1.14203
1.14486
1.14915
1.14765
1.11543
0.968327
0.640059
0.238396
0.0585061
0.265211
0.533636
0.779766
0.965665
1.07817
1.13227
1.15287
1.15465
1.15029
1.14683
1.14479
1.14403
1.13929
1.13927
1.1399
1.14184
1.14463
1.14861
1.14542
1.10879
0.956086
0.630565
0.237921
0.0610573
0.267712
0.533111
0.77663
0.96165
1.07495
1.13026
1.15184
1.15407
1.15002
1.14661
1.14456
1.14377
0.313713
0.0625646
0.053605
0.718761
0.0870869
0.0654566
0.619049
0.121698
0.0910812
0.512575
0.153412
0.127208
0.426418
0.0325527
0.03981
0.189692
0.157414
0.262042
0.0645648
0.0340044
0.0929538
0.254175
0.192344
0.120634
0.0763641
0.0556258
0.107535
0.0327019
0.0231952
0.0684804
0.123002
0.13034
0.619518
0.799828
0.386156
0.0410098
0.0529863
0.0923022
0.136677
0.124542
0.732973
0.728963
0.80504
0.670668
0.204837
0.244786
0.0604579
0.0465824
0.125447
0.164838
0.142669
0.713265
0.629974
0.717209
0.566163
0.114303
0.161062
0.0974645
0.0769395
0.633432
0.527476
0.616841
0.477154
0.0581398
0.0819911
0.0183054
0.138317
0.130688
0.576367
0.350931
0.513863
0.368664
0.0254678
0.037384
0.0828451
0.0859501
0.0680554
0.0967427
0.287944
0.0437917
0.0857363
0.0515491
0.0342323
0.055596
0.0356528
0.0504489
0.250617
0.295883
0.725243
0.217055
0.189313
0.277652
0.223201
0.0461839
0.0409944
0.0767179
0.0530269
0.0581982
0.0516633
0.0530478
0.0752149
0.165459
0.199204
0.657951
0.145193
0.116394
0.186636
0.147948
0.0744127
0.0619122
0.108696
0.0811668
0.098185
0.0587477
0.0792135
0.104046
0.0833019
0.112445
0.55283
0.0868252
0.0613904
0.114761
0.0880851
0.126602
0.100778
0.037817
0.05685
0.473188
0.016397
0.0401805
0.0269157
0.0606262
0.0409628
0.0158675
0.143395
0.139959
0.0190789
0.0051786
0.025363
0.361393
0.0490867
0.018636
0.00912093
0.0267964
0.0190052
0.0467715
0.429819
0.332509
0.147988
0.169143
0.0964777
0.0522804
0.0126611
0.0105256
0.620069
0.303405
0.365566
0.0139972
0.158525
0.201728
0.17335
0.0136373
0.0508034
0.0457751
0.061423
0.158055
0.146201
0.294226
0.108652
0.194605
0.0410605
0.016243
0.0287681
0.0265668
0.0339941
0.0542038
0.0437058
0.0302922
0.142008
0.126706
0.135946
0.100969
0.123158
0.138785
0.0225463
0.0147127
0.0378043
0.0295013
0.0526865
0.0423883
0.0234629
0.0374249
0.0281468
0.0109031
0.0265689
0.0219429
0.0123533
0.0197214
0.0250294
0.0493823
0.0500059
0.0527503
0.0518972
0.0196861
0.0146113
0.0881998
0.0187965
0.0260722
0.0139641
0.0178531
0.0853025
0.0725062
0.241669
0.224639
0.0635221
0.053836
0.0143589
0.0345988
0.156756
0.142525
0.177338
0.16196
0.035232
0.0525039
0.0420933
0.147238
0.0649186
0.0766356
0.0411424
0.0640811
0.169421
0.0538035
0.0303076
0.0189212
0.0689431
0.033644
0.0597405
0.0318386
0.0629888
0.0428143
0.0420847
0.208515
0.0285033
0.207203
0.251231
0.033384
0.0398575
0.0289371
0.032674
0.243568
0.0442557
0.0440214
0.0551875
0.0724639
0.0678811
0.0790514
0.0742701
0.0554718
0.0604647
0.0605487
0.0555345
0.06617
0.0618787
0.0597106
0.130229
0.128377
0.168955
0.166608
0.0731853
0.013879
0.0717107
0.0778466
0.0757152
0.0994628
0.0977166
0.0272931
0.0384098
0.11124
0.0288103
0.0205332
0.0507797
0.198287
0.182507
0.219185
0.203471
0.0516183
0.0215147
0.0379739
0.0375536
0.0557104
0.0549599
0.0076074
0.0265811
0.0776381
0.0669269
0.138343
0.112824
0.0118067
0.00731427
0.021515
0.0169841
0.0260405
0.0115269
0.0164913
0.0135933
0.0257249
0.0399986
0.0150946
0.0186387
0.00500181
0.0190943
0.0170999
0.633945
0.238415
0.336245
0.146578
0.0083502
0.00557761
0.142445
0.415743
0.286633
0.00683852
0.0164765
0.0148678
0.0930117
0.0813715
0.027982
0.1988
0.164602
0.0642793
0.0119397
0.0209075
0.0163073
0.0105529
0.0156541
0.0111976
0.0427016
0.0275444
0.0254412
0.0517171
0.0563797
0.0224374
0.0258715
0.0166337
0.0163716
0.0483017
0.131744
0.33617
0.317594
0.362085
0.342542
0.136065
0.264574
0.247385
0.0736757
0.0265691
0.0698566
0.0652047
0.00964823
0.0146329
0.0717866
0.0482528
0.0301979
0.028239
0.0417111
0.0478422
0.043617
0.0540152
0.0492851
0.0431945
0.0452084
0.0180004
0.0168658
0.0419808
0.179052
0.3889
0.3687
0.0506001
0.0518796
0.12134
0.0267526
0.0287672
0.0660189
0.0878421
0.107827
0.0998782
0.0645536
0.0870202
0.0810614
0.0968165
0.0894541
0.0655252
0.0981633
0.287872
0.270347
0.31156
0.293771
0.100329
0.0831923
0.0317582
0.0323136
0.0210392
0.022049
0.0647182
0.108877
0.0463641
0.0501068
0.03249
0.0329192
0.0920032
0.114939
0.0402459
0.0571383
0.0074568
0.0181896
0.0390843
0.0297248
0.0584895
0.020025
0.0207626
0.0181157
0.0484107
0.0144019
0.00425858
0.0778774
0.054182
0.0639
0.0599598
0.0249086
0.019313
0.0254644
0.0559229
0.0177534
0.00998907
0.0213573
0.0219507
0.00298457
0.0266259
0.0199639
0.0149594
0.00737428
0.0137822
0.0135487
0.0136087
0.023053
0.0199657
0.00769296
0.0380419
0.036936
0.0191315
0.012849
0.00867959
0.0135136
0.0210128
0.0149301
0.0167668
0.035148
0.0143716
0.0128233
0.0146524
0.0159844
0.0267707
0.0144533
0.011319
0.0160599
0.0147641
0.0115473
0.0183897
0.0165768
0.021442
0.0190894
0.0137945
0.0176986
0.0251714
0.0216929
0.0323057
0.0267386
0.0209191
0.0186446
0.015301
0.0226204
0.0205397
0.0444993
0.0512776
0.024822
0.0232122
0.0208438
0.0217642
0.0553839
0.015149
0.0160677
0.0179005
0.0152379
0.0166418
0.049138
0.0172223
0.0204727
0.0171201
0.0163919
0.0215432
0.0522912
0.0462106
0.0156475
0.0379753
0.033693
0.0440649
0.0394544
0.0161226
0.0156537
0.0282528
0.0242479
0.0781728
0.0716644
0.0282051
0.0362858
0.0849261
0.0799497
0.0475316
0.0459435
0.0668799
0.111837
0.156507
0.0802146
0.102107
0.0675799
0.0531619
0.139599
0.121927
0.15892
0.145865
0.0586737
0.0478229
0.0588039
0.0731963
0.0423304
0.0483952
0.036961
0.0340088
0.0471473
0.0275263
0.0302036
0.0259256
0.0376374
0.0334345
0.0309391
0.0360981
0.0386348
0.0390798
0.0373636
0.0270467
0.0868959
0.070429
0.095303
0.0902563
0.0274459
0.0643801
0.0629172
0.0676827
0.0648871
0.0356477
0.111385
0.106996
0.118814
0.112963
0.0366092
0.0304402
0.100333
0.0965638
0.105598
0.101605
0.0308838
0.0198995
0.0184178
0.0449386
0.0426331
0.0215052
0.0205404
0.0373395
0.0368935
0.0382457
0.0374775
0.0358297
0.0350709
0.0367224
0.0360775
0.0605615
0.059021
0.062458
0.0610506
0.0532681
0.039496
0.0584663
0.0557237
0.0275244
0.0245637
0.032448
0.0287776
0.0126103
0.01958
0.0184964
0.0235985
0.0202348
0.0306065
0.031585
0.0820109
0.0199137
0.0194089
0.0208291
0.020092
0.0192175
0.066826
0.0223636
0.0294426
0.0337356
0.0425065
0.106268
0.029519
0.0239142
0.0347948
0.0324572
0.0220246
0.0211107
0.0234941
0.0223569
0.0933538
0.0330281
0.0333698
0.00826596
0.024873
0.0135067
0.0143641
0.0132713
0.0237175
0.00739474
0.0189106
0.0111742
0.0142377
0.0388176
0.0330898
0.0191513
0.0197964
0.0577955
0.0511414
0.018331
0.0189315
0.0133692
0.0242835
0.0582503
0.0415851
0.0125861
0.0121602
0.0171524
0.0103925
0.0134622
0.018602
0.0265193
0.00723487
0.015167
0.00995232
0.01476
0.0201584
0.0644723
0.138175
0.184091
0.0127171
0.0119994
0.193083
0.255585
0.212929
0.0078309
0.0283124
0.0164555
0.0182357
0.140033
0.146133
0.168347
0.00572059
0.00910537
0.00670987
0.00568008
0.00696004
0.00542903
0.0700911
0.044762
0.0269967
0.029689
0.0271083
0.030698
0.222022
0.445661
0.423873
0.475698
0.453053
0.227596
0.0358283
0.030255
0.0162326
0.0601948
0.0699949
0.138102
0.0918903
0.0865961
0.0365667
0.0320205
0.0369314
0.0371181
0.416737
0.395759
0.183853
0.138174
0.0552935
0.0575406
0.0597923
0.0733218
0.156761
0.0423285
0.100631
0.0938292
0.0146728
0.0150116
0.0169366
0.0200497
0.0203954
0.0271896
0.0153513
0.012675
0.0143132
0.0217183
0.0427418
0.0376933
0.0184131
0.0267468
0.0194486
0.0197006
0.0192634
0.0120876
0.0135725
0.0156998
0.0151878
0.0127949
0.0208736
0.0239217
0.051428
0.0398392
0.0423888
0.0391056
0.0290409
0.0374215
0.0175105
0.0199508
0.0110157
0.00731394
0.00724973
0.0139681
0.0117525
0.0282288
0.0179789
0.0122247
0.0171494
0.0221596
0.0210477
0.0303796
0.0315991
0.0188668
0.0150828
0.0155525
0.00981201
0.0136709
0.0153091
0.059855
0.0542713
0.0225634
0.0143032
0.0185413
0.0177307
0.0147755
0.0169264
0.0162954
0.0510428
0.0416321
0.0432144
0.0656059
0.0918417
0.0907508
0.0425431
0.0608572
0.0587087
0.089515
0.08794
0.0629427
0.0439349
0.0532582
0.0440297
0.033669
0.0365389
0.0296857
0.0457334
0.0476268
0.0685492
0.0247466
0.0321565
0.0315689
0.0485457
0.0479047
0.0280879
0.0269717
0.026457
0.0308229
0.0300528
0.03418
0.0548271
0.0542072
0.0578228
0.0573247
0.038705
0.0294074
0.0498125
0.0491741
0.0535662
0.052912
0.031994
0.0538227
0.054902
0.136098
0.123039
0.052292
0.0534605
0.0810317
0.0838557
0.176273
0.0243012
0.0240546
0.0260921
0.0257494
0.021486
0.0238185
0.0235872
0.159395
0.0760536
0.0800679
0.0140502
0.0141575
0.0171581
0.0167091
0.0138921
0.0143247
0.0142717
0.0674251
0.0296601
0.0333317
0.109812
0.103072
0.0454136
0.053682
0.117681
0.111832
0.0274886
0.0276044
0.038288
0.0368688
0.0269768
0.0273136
0.0116947
0.0183652
0.0267516
0.0187986
0.00733108
0.0118911
0.0194326
0.0138308
0.0147233
0.0180197
0.0182073
0.0262281
0.0110381
0.00724248
0.0105288
0.0139742
0.024957
0.0176444
0.0178489
0.0164049
0.0260311
0.0226712
0.0139358
0.0134192
0.0147321
0.015061
0.0177002
0.00795547
0.00544768
0.00988283
0.0158656
0.0139895
0.0143284
0.0123892
0.0135224
0.0153291
0.0120916
0.00809825
0.00623464
0.0238608
0.0244154
0.0228272
0.023288
0.0268273
0.0349451
0.0351308
0.0345233
0.0347581
0.0262277
0.0162385
0.0260454
0.025945
0.0268371
0.0262934
0.0160641
0.0297701
0.0364987
0.0381727
0.035338
0.0356943
0.0289976
0.0177172
0.0259379
0.0259303
0.0258949
0.0258958
0.0172165
0.0218385
0.0223622
0.0224743
0.0219294
0.0319258
0.0457705
0.0454397
0.0213666
0.0301555
0.0300772
0.0305915
0.0302788
0.0217077
0.0120872
0.0111597
0.0143001
0.0128847
0.0199585
0.0196432
0.0206016
0.0202801
0.0171506
0.0279346
0.0206921
0.0209131
0.0202567
0.0298609
0.0297604
0.030016
0.0299456
0.0205022
0.0211926
0.0209106
0.0251503
0.0214063
0.0174304
0.00755063
0.0117309
0.0148694
0.0073599
0.0195494
0.0146128
0.00356702
0.025166
0.0339472
0.0334828
0.0181965
0.00967067
0.0068163
0.00526874
0.0117306
0.0126659
0.0189768
0.0192084
0.0267028
0.0195514
0.0086395
0.00724535
0.0164757
0.00571706
0.0098981
0.00809526
0.00586154
0.00726018
0.0134623
0.0109952
0.0118265
0.0147573
0.0143005
0.03892
0.0339828
0.0105874
0.0126172
0.0141094
0.0207947
0.0236048
0.0153096
0.0187635
0.0165889
0.0139782
0.00801009
0.0137093
0.014124
0.00726699
0.0108019
0.0121043
0.0155769
0.014076
0.014468
0.0116079
0.0122369
0.0151374
0.0147043
0.014336
0.0108922
0.0140965
0.015462
0.0150849
0.0275442
0.0237676
0.0186905
0.030265
0.032311
0.0342656
0.0277891
0.0246987
0.0221563
0.0316921
0.0328403
0.0249836
0.0292201
0.0216021
0.0242916
0.0340357
0.0342831
0.0334029
0.0337466
0.0237011
0.0211002
0.031559
0.0311427
0.0153656
0.0156502
0.0168511
0.0152047
0.0151203
0.0158639
0.0168119
0.0166319
0.0184586
0.0288722
0.0277539
0.0306368
0.0298999
0.0197638
0.0139549
0.01448
0.0179858
0.00910256
0.0134595
0.0134565
0.0158382
0.0136007
0.013629
0.0204755
0.0195147
0.0149411
0.0492817
0.0444632
0.0749161
0.065719
0.0436847
0.0614352
0.0856806
0.0818207
0.0415416
0.0380565
0.0377566
0.0267901
0.0334308
0.0572768
0.049319
0.0468721
0.0366096
0.0439108
0.0446338
0.0410323
0.0428725
0.0358104
0.0283852
0.029561
0.0383187
0.0316939
0.0309028
0.0330523
0.0327284
0.0356838
0.0316665
0.030123
0.0281339
0.032342
0.0439344
0.0394471
0.0264402
0.0277664
0.0472039
0.0461424
0.0280852
0.0275166
0.029348
0.0286943
0.0558813
0.0553617
0.0348663
0.0376363
0.0568829
0.056403
0.0510918
0.0504626
0.0299258
0.0313701
0.0522683
0.0516746
0.0193617
0.0259679
0.0259422
0.0259479
0.0259842
0.0190012
0.0214002
0.0249957
0.0237368
0.0258445
0.0255923
0.0209298
0.0371946
0.0242714
0.0246797
0.0236158
0.0239327
0.0370507
0.0378112
0.0261583
0.0266648
0.0251305
0.0256184
0.0376173
0.0355742
0.0218951
0.0221619
0.0214601
0.0216566
0.0353202
0.0365341
0.0230375
0.0233183
0.0224387
0.0227303
0.0363142
0.0248345
0.0245604
0.0600599
0.041012
0.0413174
0.040383
0.0407007
0.0595473
0.0254262
0.0251218
0.0229191
0.0225822
0.0486457
0.0333307
0.0368362
0.0271506
0.0275292
0.0425945
0.0578415
0.0396889
0.0400518
0.0384911
0.0392388
0.0570283
0.0233698
0.0231546
0.0146951
0.0141935
0.0139463
0.0161871
0.0154012
0.0191752
0.01436
0.0141809
0.014842
0.0145675
0.0188603
0.0224385
0.0157653
0.016721
0.0143066
0.0148836
0.0212315
0.0311051
0.0441607
0.043263
0.0450957
0.0446991
0.0313823
0.0197421
0.0195764
0.0205523
0.020278
0.018967
0.0181394
0.0226308
0.0337983
0.0315104
0.041532
0.0382154
0.0269142
0.0246126
0.0194871
0.0204035
0.0243078
0.0344371
0.0210696
0.0212629
0.0206748
0.0208766
0.0338284
0.0217076
0.0214022
0.0230893
0.0227111
0.0136116
0.0158159
0.0153391
0.0172272
0.016452
0.0139064
0.0138575
0.0135295
0.0148979
0.014341
0.00853757
0.0119829
0.014976
0.0146446
0.0158597
0.0153783
0.0126257
0.0189893
0.0187921
0.0194134
0.0191964
0.0242703
0.0261492
0.0355697
0.0182356
0.0180002
0.0186042
0.0184228
0.0193668
0.0293627
0.0291928
0.0296426
0.0295102
0.0195776
0.018492
0.0282802
0.0273161
0.0289906
0.0287238
0.018712
0.0125829
0.0326654
0.0308589
0.0225201
0.0128378
0.00951008
0.00947698
0.00651736
0.00928559
0.012472
0.0156058
0.012714
0.0141854
0.0138065
0.0263876
0.01847
0.0187254
0.0104654
0.010743
0.0102864
0.0134334
0.0130526
0.00691396
0.00707038
0.014358
0.0110252
0.0133522
0.0156754
0.0173834
0.0232237
1.15485
1.15514
1.1555
1.15526
1.15575
1.1558
1.15594
1.15665
1.15626
1.15691
1.15771
1.15683
1.15794
1.12683
1.15732
1.11367
1.09993
1.1575
1.10592
1.15843
1.1573
1.15826
1.1576
1.15683
1.15736
1.15662
1.1563
1.15639
1.15578
1.15586
1.15435
1.15498
1.15505
1.15525
1.1563
1.1558
1.15672
1.11356
1.1569
1.05164
0.900972
1.15813
0.865589
0.797248
1.04894
0.78639
0.785313
1.02526
0.794362
0.848538
1.08606
0.874996
0.983492
1.15799
1.02937
1.15788
1.15683
1.15746
1.15624
1.15582
1.1542
1.15544
1.15503
1.15597
1.09635
1.1566
1.00762
0.782737
1.02465
0.723862
0.588308
0.815473
0.555766
0.494231
0.71595
0.48548
0.491845
0.706954
0.503532
0.562321
0.771544
0.5889
0.69136
0.903789
0.732457
0.88915
1.11612
0.952278
1.15763
1.15649
1.15453
1.15665
1.15566
1.14199
0.843279
1.02462
0.756738
0.548899
0.71483
0.492502
0.357932
0.522968
0.32439
0.261952
0.429113
0.254398
0.268164
0.428665
0.282733
0.348321
0.50208
0.37548
0.475443
0.629284
0.514511
0.654678
0.82251
0.710341
0.912636
1.10197
1.1554
1.08631
1.15704
0.977003
0.689328
0.796064
0.610702
0.409811
0.505262
0.351769
0.20569
0.312714
0.170538
0.0911272
0.215911
0.0894937
0.122669
0.224497
0.140096
0.208394
0.306422
0.236014
0.331897
0.43282
0.368678
0.497732
0.608909
0.548537
0.73013
0.859294
1.15665
1.00369
1.05852
0.895775
0.635554
0.66648
0.563352
0.372498
0.389621
0.316805
0.144383
0.182493
0.128335
0.075316
0.117991
0.0368378
0.0463703
0.0806284
0.086723
0.116346
0.137141
0.163473
0.251139
0.306181
0.284993
0.403241
0.468898
0.449417
0.614304
0.69465
1.15808
0.988051
0.994203
0.889989
0.670369
0.63702
0.612127
0.467822
0.384466
0.351976
0.303898
0.282078
0.134544
0.113628
0.102626
0.0616488
0.0881653
0.0938892
0.144668
0.220038
0.23928
0.250061
0.356895
0.387514
0.398886
0.549613
0.592921
1.15954
1.01209
0.991843
0.923578
0.74503
0.687871
0.702511
0.623149
0.505622
0.525865
0.509166
0.446413
0.438544
0.447426
0.362597
0.0799416
0.0988689
0.0936703
0.154864
0.221778
0.218015
0.248897
0.346678
0.351411
0.38547
0.524894
0.539685
1.161
1.04295
1.02018
0.959594
0.803804
0.762779
0.769362
0.721422
0.656788
0.692833
0.720642
0.680266
0.695426
0.526697
0.549806
0.108115
0.124467
0.114287
0.181023
0.244617
0.225751
0.270291
0.363124
0.348531
0.39991
0.531231
0.523934
1.16245
1.06397
1.04933
0.98202
0.823796
0.812421
0.786362
0.715381
0.728885
0.736401
0.764647
0.77113
0.592717
0.41318
0.433594
0.142221
0.160087
0.145867
0.219845
0.285049
0.253045
0.310776
0.402763
0.370835
0.438704
0.564639
0.537756
1.16389
1.08101
1.06787
0.998665
0.822215
0.824015
0.775559
0.661487
0.702889
0.670052
0.696892
0.700114
0.485547
0.310374
0.32914
0.173315
0.193645
0.182495
0.277259
0.348532
0.298332
0.375635
0.469055
0.41657
0.50466
0.626353
0.57831
1.16538
1.11437
1.08723
1.03096
0.837313
0.822995
0.781959
0.625482
0.648568
0.598466
0.553382
0.60897
0.397506
0.214759
0.232368
0.0503434
0.110908
0.0969846
0.278792
0.352414
0.274175
0.376207
0.451878
0.369694
0.479284
0.5717
0.490823
0.606134
0.721813
0.648076
1.1666
1.16831
1.12985
1.11908
0.918384
0.851152
0.861998
0.694618
0.630789
0.584608
0.518748
0.503843
0.202464
0.0663224
0.0895393
0.110132
0.244853
0.215994
0.490007
0.543818
0.388863
0.561259
0.621421
0.487036
0.644832
0.725034
0.60456
0.755819
0.858491
0.753228
1.16753
1.16887
1.1685
1.16688
1.09421
0.952873
1.0416
0.919023
0.732638
0.789297
0.111409
0.18297
0.0339442
0.0818636
0.0702927
0.160369
0.434315
0.4211
0.517504
0.74429
0.61291
0.811393
0.887996
0.677956
0.897302
0.945071
0.773005
0.966792
1.04841
0.902487
1.16813
1.16882
1.16892
1.16631
1.13845
1.14427
1.11317
0.859312
0.927051
0.660206
0.079532
0.100031
0.0298231
0.0953698
0.0854243
0.174673
0.446392
0.437917
0.530407
0.755433
0.747492
0.821044
0.977324
0.973242
1.01565
1.09674
1.01231
1.11467
1.14945
1.1078
1.16837
1.16808
1.1687
1.16473
1.12688
1.13596
1.09162
0.764595
0.835715
0.54421
0.0660369
0.0752025
0.0284701
0.107167
0.0984641
0.186537
0.45283
0.448454
0.538343
0.763083
0.757619
0.827508
0.980781
0.97837
1.01845
1.09824
1.09724
1.11591
1.15019
1.14972
1.16826
1.16661
1.16778
1.16207
1.11106
1.12331
1.06404
0.67292
0.741275
0.454846
0.0589145
0.0638496
0.0283457
0.117573
0.109888
0.196527
0.456356
0.453864
0.541693
0.768173
0.764583
0.831788
0.982698
0.981381
1.01986
1.09872
1.09844
1.11621
1.15023
1.15026
1.16784
1.16442
1.16613
1.1583
1.09142
1.10649
1.03171
0.591912
0.651213
0.393851
0.0547966
0.0576744
0.0289096
0.126814
0.119985
0.205054
0.459009
0.45707
0.542809
0.770532
0.769044
0.834121
0.983543
0.982997
1.02031
1.0985
1.09872
1.11589
1.1498
1.15016
1.16715
1.16149
1.16376
1.15339
1.06844
1.08598
0.99543
0.5297
0.574455
0.353601
0.0523413
0.0540592
0.0299109
0.135068
0.128964
0.212418
0.461179
0.459595
0.543271
0.769932
0.770639
0.834092
0.983493
0.983616
1.02004
1.09781
1.09837
1.11515
1.14903
1.14963
1.1662
1.15781
1.16064
1.14734
1.04204
1.06219
0.954594
0.48535
0.517173
0.325239
0.0509108
0.0519043
0.0312113
0.142479
0.136995
0.218842
0.462897
0.46165
0.543428
0.767371
0.769421
0.831821
0.982396
0.983328
1.01901
1.09675
1.09758
1.11409
1.14804
1.1488
1.16501
1.15334
1.15677
1.14005
1.01123
1.03479
0.909996
0.452729
0.476306
0.304301
0.0501639
0.0506695
0.0327253
0.14917
0.144215
0.224499
0.464202
0.46326
0.543319
0.764017
0.766575
0.828232
0.980076
0.981931
1.01706
1.09531
1.09643
1.11273
1.14686
1.14776
1.16357
1.14791
1.15208
1.13118
0.976691
1.00283
0.866901
0.427677
0.445866
0.288472
0.0499017
0.0500587
0.034397
0.155242
0.150742
0.229525
0.465155
0.464471
0.542967
0.760426
0.763131
0.824117
0.976686
0.979315
1.01418
1.09344
1.09488
1.11104
1.14553
1.14655
1.16185
1.14117
1.14636
1.12019
0.942048
0.967887
0.829202
0.407949
0.422309
0.276339
0.0500006
0.0498963
0.0361887
0.160784
0.156674
0.234029
0.465819
0.465346
0.54241
0.756776
0.759516
0.819843
0.972592
0.975714
1.01057
1.09112
1.0929
1.10901
1.14403
1.14517
1.15977
1.13279
1.13924
1.10688
0.910159
0.933758
0.79718
0.392168
0.403675
0.266962
0.0503801
0.0500717
0.0380743
0.16587
0.162095
0.238102
0.466254
0.465947
0.54169
0.75312
0.755861
0.815546
0.96811
0.971498
1.00649
1.08842
1.09048
1.10666
1.14238
1.14363
1.15721
1.12272
1.13042
1.09174
0.881784
0.902737
0.769869
0.37941
0.388725
0.259685
0.0509857
0.050512
0.0400363
0.170566
0.167078
0.241818
0.466515
0.466334
0.540849
0.749484
0.752209
0.811278
0.963442
0.966955
1.00214
1.08541
1.08769
1.10405
1.14059
1.14194
1.15409
1.11129
1.11997
1.07561
0.856684
0.87522
0.746319
0.369009
0.376611
0.254034
0.0517792
0.0511676
0.0420634
0.174928
0.171685
0.245237
0.466648
0.466559
0.539929
0.745888
0.748581
0.807065
0.958704
0.962261
0.997652
1.08218
1.08462
1.10123
1.13868
1.14012
1.15033
1.09897
1.10827
1.05924
0.834402
0.850866
0.7258
0.360472
0.366716
0.249657
0.0527338
0.0520036
0.0441489
0.179006
0.175972
0.248415
0.466694
0.466666
0.538963
0.74235
0.744997
0.802929
0.953962
0.957517
0.9931
1.07879
1.08134
1.09825
1.13667
1.13818
1.14595
1.08622
1.09581
1.04309
0.814509
0.829219
0.707763
0.353424
0.358583
0.246286
0.0538301
0.0529952
0.0462897
0.182845
0.179986
0.251395
0.466688
0.466696
0.537985
0.73889
0.741477
0.798884
0.949259
0.952781
0.988543
1.07528
1.07792
1.09516
1.13459
1.13616
1.141
1.07336
1.083
1.02745
0.79664
0.809864
0.691782
0.347571
0.351858
0.243713
0.0550538
0.0541245
0.0484857
0.186484
0.183772
0.254218
0.466662
0.466683
0.537023
0.735525
0.738039
0.794948
0.944625
0.948093
0.984016
1.07171
1.0744
1.09199
1.13244
1.13405
1.13554
1.06063
1.07016
1.01245
0.780496
0.792453
0.677522
0.342681
0.346266
0.241774
0.0563945
0.0553783
0.0507385
0.18996
0.187367
0.256918
0.466642
0.466655
0.536101
0.732272
0.7347
0.791136
0.94008
0.943479
0.979548
1.06811
1.07082
1.08876
1.13024
1.13189
1.12968
1.04815
1.05748
0.998126
0.765826
0.7767
0.664709
0.338567
0.341586
0.240335
0.0578447
0.056747
0.0530517
0.193305
0.190807
0.259527
0.466653
0.466641
0.535241
0.729147
0.731478
0.787461
0.935643
0.93896
0.975159
1.06449
1.0672
1.0855
1.128
1.12968
1.12349
1.03601
1.04508
0.984478
0.75242
0.762363
0.653118
0.335076
0.337641
0.239289
0.0593986
0.0582236
0.0554305
0.196551
0.194125
0.262074
0.466716
0.466663
0.534464
0.726167
0.728388
0.783937
0.931329
0.934552
0.970868
1.06089
1.06359
1.08224
1.12574
1.12744
1.11706
1.02424
1.03303
0.97148
0.740095
0.749243
0.642557
0.332082
0.334286
0.238544
0.0610524
0.0598029
0.0578814
0.199725
0.19735
0.264586
0.466851
0.466742
0.533787
0.723343
0.725445
0.780578
0.927151
0.930271
0.96669
1.05732
1.05999
1.07898
1.12345
1.12517
1.11046
1.01285
1.02136
0.959091
0.7287
0.737165
0.632867
0.329479
0.331399
0.238024
0.0628029
0.061481
0.0604114
0.202854
0.20051
0.267086
0.467077
0.466898
0.53323
0.720692
0.722664
0.777396
0.923123
0.926129
0.962639
1.05379
1.05643
1.07575
1.12116
1.12288
1.10412
1.00239
1.01007
0.947813
0.718479
0.725981
0.624194
0.327222
0.328878
0.237675
0.064642
0.0632553
0.063021
0.20594
0.203632
0.269577
0.467426
0.46715
0.532844
0.718347
0.720057
0.774556
0.919478
0.922142
0.958961
1.05056
1.05292
1.07279
1.11906
1.12059
0.296563
0.242731
0.264985
0.0599482
0.0525256
0.0567596
0.0449853
0.0444591
0.0528747
0.55786
0.58521
0.729767
0.0836464
0.0779868
0.0827513
0.0584072
0.0640572
0.067333
0.44047
0.461371
0.632114
0.117574
0.113723
0.118708
0.0848559
0.0902853
0.0951963
0.335424
0.354389