/*--------------------------------*- C++ -*----------------------------------*\
| =========                 |                                                 |
| \\      /  F ield         | OpenFOAM: The Open Source CFD Toolbox           |
|  \\    /   O peration     | Version:  v1912                                 |
|   \\  /    A nd           | Website:  www.openfoam.com                      |
|    \\/     M anipulation  |                                                 |
\*---------------------------------------------------------------------------*/
FoamFile
{
    version     2.0;
    format      ascii;
    class       volScalarField;
    location    "600";
    object      omega;
}
// * * * * * * * * * * * * * * * * * * * * * * * * * * * * * * * * * * * * * //

dimensions      [0 0 -1 0 0 0 0];


internalField   nonuniform List<scalar> 
12556
(
31.8693
31.8706
31.8719
31.8739
31.9377
31.9387
31.9393
31.9406
31.9431
31.9476
31.9541
31.9615
31.9669
31.9674
31.9629
31.9561
31.9497
31.9449
31.9417
31.9399
31.8748
31.8723
31.8706
31.8691
31.7347
31.7377
31.7408
31.7448
31.8052
31.8094
31.8129
31.8467
31.8537
31.8659
31.8837
31.9039
31.9188
31.9211
31.9101
31.8919
31.8738
31.8599
31.8206
31.8134
31.7477
31.742
31.7382
31.7347
31.6014
31.6062
31.6109
31.6167
31.6747
31.6822
31.69
31.7256
31.7422
31.7703
31.8106
31.854
31.8853
31.8901
31.8673
31.829
31.7889
31.7569
31.7064
31.6914
31.6237
31.6146
31.6083
31.6029
31.4702
31.4764
31.4824
31.49
31.5455
31.5568
31.5709
31.6131
31.6477
31.7061
31.7872
31.8799
31.9452
31.948
31.894
31.8142
31.7361
31.6731
31.605
31.5767
31.5036
31.4899
31.4808
31.4733
31.3405
31.3481
31.3555
31.3651
31.4194
31.4354
31.4582
31.5111
31.5788
31.6918
31.8778
32.1245
32.3106
32.2832
32.1066
31.9059
31.7398
31.6235
31.5217
31.4713
31.388
31.3678
31.3552
31.3454
31.2123
31.2212
31.2301
31.2417
31.2961
31.3184
31.3541
31.4264
31.5395
31.7622
32.2239
33.1105
34.0345
33.6602
32.8291
32.2298
31.85
31.6184
31.4613
31.3778
31.2769
31.2482
31.2311
31.2187
31.0859
31.0961
31.1066
31.1206
31.1753
31.2057
31.2588
31.3587
31.5361
31.954
33.0711
37.2725
43.0834
40.2209
34.9599
33.0038
32.1251
31.6791
31.4247
31.2969
31.1709
31.1311
31.1083
31.0931
30.9615
30.9731
30.9854
31.0025
31.0585
31.0984
31.1722
31.3033
31.5616
32.2283
34.3066
45.6147
65.5076
40.046
34.4401
32.6063
31.8158
31.4121
31.2283
31.0701
31.0167
30.9872
30.9687
30.8396
30.8527
30.8671
30.8877
30.9459
30.9968
31.093
31.2553
31.5989
32.4798
35.1696
52.3405
116.031
47.1935
36.4087
33.2602
32.0186
31.4201
31.1695
30.9746
30.9059
30.8687
30.8466
30.7207
30.7354
30.7522
30.7766
30.8377
30.9005
31.0195
31.2116
31.635
32.6763
35.7766
59.7586
140.569
53.0035
38.36
33.9617
32.2532
31.4412
31.1181
30.8848
30.7998
30.7542
30.7282
30.6053
30.6215
30.6408
30.6695
30.734
30.8093
30.9502
31.1713
31.6693
32.8524
36.5208
69.407
141.243
56.4344
39.8949
34.585
32.4791
31.465
31.0716
30.8002
30.6991
30.6447
30.6145
30.4934
30.5112
30.533
30.5661
30.6347
30.7224
30.8843
31.135
31.7065
33.0454
37.5977
83.2996
131.12
57.802
40.8675
35.0491
32.6614
31.4812
31.0269
30.7198
30.6034
30.5407
30.5061
30.3849
30.4046
30.4294
30.467
30.5389
30.6388
30.8206
31.1024
31.7492
33.2791
38.9625
97.6231
997.884
111.087
57.8083
41.325
35.328
32.7785
31.4821
30.9801
30.6418
30.5121
30.4415
30.4027
30.2794
30.3008
30.3282
30.37
30.4484
30.5618
30.7639
31.0847
31.8276
33.6562
41.5442
180.553
500.628
105.005
57.0905
41.3939
35.4418
32.8264
31.4632
30.9282
30.5644
30.4233
30.3457
30.3029
30.1763
30.1994
30.2293
30.275
30.358
30.4819
30.7008
31.0539
31.8732
33.9894
45.8632
774.425
337.577
98.8566
55.8405
41.1961
35.4254
32.8141
31.4245
30.8686
30.4853
30.3354
30.2517
30.2054
30.0746
30.0993
30.1318
30.1809
30.2683
30.4012
30.6348
31.0181
31.9134
34.3953
53.1215
872.974
293.301
93.8081
54.6454
40.8892
35.3202
32.7484
31.3678
30.8006
30.4031
30.2466
30.1575
30.1083
29.9736
29.9999
30.0349
30.0871
30.1785
30.3188
30.5647
30.975
31.9433
34.9232
62.9912
839.209
262.019
89.8997
53.5503
40.5472
35.1787
32.6573
31.2946
30.7227
30.3166
30.1555
30.0618
30.0101
29.8726
29.9005
29.9378
29.9928
30.0877
30.234
30.49
30.9239
31.9657
35.5836
74.9087
770.721
238.629
87.0707
52.611
40.2081
35.0128
32.546
31.2067
30.6352
30.2244
30.0605
29.964
29.91
29.7712
29.8004
29.84
29.8975
29.9955
30.1465
30.4109
30.8657
31.9874
36.393
86.8711
698.654
220.39
85.0709
51.8171
39.8907
34.8389
32.4234
31.1086
30.5401
30.1273
29.9616
29.8627
29.8075
29.6689
29.6992
29.7411
29.8009
29.9017
30.0565
30.328
30.8021
32.0152
37.3534
96.7753
632.601
205.687
83.4503
51.1773
39.6007
34.6659
32.2954
31.0033
30.4388
30.0255
29.8588
29.7581
29.7022
29.5658
29.5969
29.6406
29.7026
29.806
29.9641
30.242
30.7346
32.0547
38.4884
104.178
574.762
193.518
81.9996
50.7143
39.3411
34.4981
32.1656
30.8928
30.3325
29.9194
29.7523
29.6505
29.5942
29.4617
29.4933
29.5386
29.6026
29.7085
29.8696
30.1535
30.6651
32.1105
39.8754
109.692
524.87
183.228
80.6723
50.3971
39.1193
34.3384
32.0361
30.7788
30.2223
29.8099
29.6426
29.5401
29.4838
29.3568
29.3887
29.4352
29.5009
29.609
29.7729
30.0631
30.5948
32.1896
41.4863
113.707
481.936
174.372
79.4522
50.1604
38.9419
34.1897
31.9088
30.6628
30.1092
29.6976
29.5304
29.4275
29.3713
29.2513
29.2832
29.3307
29.3978
29.5078
29.6744
29.9712
30.5255
32.3068
43.098
116.492
444.867
166.634
78.3249
49.9601
38.8061
34.0544
31.785
30.5458
29.9941
29.5831
29.4161
29.3131
29.2573
29.1453
29.1771
29.2252
29.2936
29.4051
29.5744
29.8784
30.4595
32.4799
44.5466
118.272
412.68
159.787
77.276
49.7771
38.7015
33.9333
31.666
30.4288
29.8778
29.4672
29.3004
29.1973
29.142
29.0391
29.0706
29.1191
29.1885
29.3013
29.4733
29.7856
30.4
32.7135
45.8002
119.238
384.536
153.662
76.2924
49.6037
38.6176
33.8252
31.5519
30.3125
29.7609
29.3504
29.1836
29.0807
29.0259
28.9328
28.9639
29.0128
29.0831
29.1969
29.3716
29.6935
30.3502
32.9935
46.8762
119.555
359.752
148.129
75.3626
49.4364
38.5468
33.7282
31.4427
30.1974
29.644
29.233
29.0663
28.9634
28.9092
28.8266
28.8573
28.9063
28.9774
29.0922
29.2698
29.6029
30.3128
33.2985
47.7978
119.36
337.772
143.089
74.4769
49.2728
38.4841
33.6403
31.3381
30.0837
29.5275
29.1156
28.9487
28.846
28.7923
28.7206
28.7509
28.8
28.8718
28.9874
29.1682
29.5148
30.289
33.6101
48.5853
118.767
318.149
138.464
73.6271
49.111
38.4263
33.5596
31.2376
29.9716
29.4115
28.9982
28.8311
28.7284
28.6753
28.615
28.6448
28.6939
28.7664
28.8828
29.0671
29.4299
30.2787
33.9164
49.2559
117.87
300.518
134.193
72.8065
48.9493
38.3711
33.4845
31.1408
29.8611
29.2963
28.8812
28.7136
28.6111
28.5584
28.5098
28.5391
28.5882
28.6615
28.7786
28.9669
29.3489
30.2808
34.2105
49.8243
116.748
284.584
130.225
72.0094
48.7862
38.3169
33.4139
31.0472
29.7524
29.182
28.7647
28.5966
28.4941
28.4418
28.4052
28.434
28.4831
28.557
28.675
28.8679
29.2722
30.2936
34.4888
50.3034
115.461
270.105
126.52
71.2311
48.6203
38.2624
33.3466
30.9565
29.6455
29.0688
28.6488
28.48
28.3775
28.3256
28.3012
28.3296
28.3786
28.4532
28.5721
28.7702
29.2002
30.3149
34.7498
50.7049
114.062
256.881
123.043
70.4678
48.4505
38.2067
33.2817
30.8684
29.5402
28.9567
28.5337
28.3641
28.2615
28.21
28.1977
28.2257
28.2747
28.35
28.4701
28.6741
29.133
30.3429
34.9933
51.0391
112.589
244.75
119.767
69.7163
48.2757
38.1488
33.2185
30.7826
29.4366
28.8458
28.4194
28.2488
28.146
28.0948
28.0955
28.123
28.1721
28.248
28.3689
28.5799
29.0706
30.376
35.2197
51.3155
111.078
233.573
116.669
68.9738
48.095
38.088
33.1563
30.6987
29.3347
28.7361
28.3063
28.1349
28.0319
27.9809
27.9982
28.0253
28.0744
28.1509
28.2694
28.4881
29.0132
30.4129
35.4298
51.5425
109.553
223.234
113.727
68.2381
47.9077
38.0238
33.0945
30.6165
29.2349
28.6282
28.1995
28.0271
27.9239
27.8731
51.6588
133.598
73.4956
58.8111
172.16
141.147
68.0082
170.653
173.569
81.2437
155.634
169.172
96.0966
1244.42
1052.57
138.687
153.46
151.539
695.802
1196.76
523.088
134.286
135.968
44.2959
42.5047
66.2573
40.2325
507.899
160.12
110.551
51.0497
43.2074
35.624
51.0727
46.5999
1316.43
1041.88
139.095
59.7755
53.5803
36.3081
57.1684
51.7557
62.9715
212.387
181.649
859.16
1118.79
141.965
64.5967
61.3309
37.2935
65.835
58.0822
74
350.78
260.493
537.103
673.529
38.5852
77.9817
67.1805
86.6312
612.773
461.704
2238.35
326.084
405.671
40.9245
109.533
79.9379
110.012
1250.5
887.717
435.397
528.173
666.577
121.831
162.62
79.3599
117.437
1026.93
542.242
107.992
402.81
806.047
177.901
153.216
56.0975
211.125
235.685
168.47
205.964
1130.28
1313.11
156.563
1025.31
915.436
824.361
1026.57
154.95
254.69
217.59
64.1514
296.094
354.802
238.621
291.344
695.564
839.538
174.12
657.222
543.139
905.986
673.581
174.646
455.902
355.539
75.6786
450.195
598.657
358.83
445.185
418.2
520.247
880.228
624.264
87.2711
2614.34
849.928
1205.6
604.222
836.894
2760.16
301.217
317.184
2125.78
7837.24
1253.5
112.073
870.304
1732.65
6924.11
1208.13
1696.6
905.702
34.9972
46.1456
41.7952
48.8204
95.4167
69.7478
1759.67
663.084
55.1016
149.731
125.521
3305.06
132.722
66.2996
65.2644
3508.31
896.413
987.607
732.923
267.17
291.356
121.455
98.2061
49.6293
1242.73
174.845
476.949
130.019
363.395
99.1337
1028.08
1414.74
161.884
422.056
345.255
528.229
434.028
163.845
1755.89
3270.37
1084.54
62.2517
52.5715
74.1024
130.359
63.8547
64.1805
1884.74
343.554
1664.05
462.943
1496.6
290.592
1117.11
1105.12
983.283
999.723
2145.36
3098.25
590.946
2283.47
1644
3332.12
2415.16
610.192
508.386
168.602
179.769
738.95
852.33
3314.47
938.458
245.39
266.275
220.647
238.576
924.25
1036.41
1223.07
135.362
795.671
693.017
1176.87
801.47
141.298
97.2881
317.756
135.693
607.064
357.045
102.826
539.479
864.412
813.908
785.068
217.235
1491.39
218.184
185.073
1357.28
1204.34
1478.65
1376.11
190.403
1196.09
1205.1
975.144
338.118
332.241
337.985
338.89
968.747
909.646
305.111
278.25
328.757
312.401
920.887
324.12
327.926
259.958
263.073
713.521
3368.15
727.795
490.276
501.718
404.41
410.309
1575.04
1161.31
473.371
1480.17
2050.75
680.771
200.362
215.247
183.673
195.938
672.168
1844.68
881.555
888.753
642.348
648.849
3692.23
1504.39
622.291
706.577
273.118
327.122
2797.8
4893.52
1833.13
2525.4
1226.59
4227.78
2652.58
3974.6
1240.27
1033.07
3099.9
2182.13
1883.31
2139.91
2454.38
44.525
165.03
116.286
260.969
3844.42
7233.65
351.939
123.802
131.292
1034.73
2581.51
3021.59
533.149
597.785
1434.26
244.171
260.386
706.286
124.051
86.9303
155.068
454.908
118.009
133.459
1276.6
2072.33
2217.47
1073.65
919.543
2083.44
1809.83
2981.79
2988.95
1075.24
310.92
125.824
132.39
117.687
123.72
302.174
155.687
165.173
502.058
1206.75
503.09
533.29
6022.82
3009.72
626.947
944.587
1913.83
2028.76
568.647
218.94
178.694
267.665
231.905
602.715
1161.05
2810.13
2957.32
1273.14
238.333
110.3
115.776
755.467
744.834
343.196
1749.67
1621.75
788.686
607.023
300.133
312.911
821.563
330.182
336.681
316.876
327.279
809.197
397.274
144.486
152.749
134.675
141.907
390.121
465.328
1095.91
1085.78
1600.75
1532.33
574.129
374.633
808.914
760.09
1083.01
1078.73
430.331
458.767
1114.82
824.656
3871.89
2248.64
865.898
1102.24
620.137
1671.5
1620.03
1827.6
721.72
3328.65
8935.69
462.956
646.291
542.308
571.728
1272.01
2081.59
1516.35
782.333
1825
5593.41
1889.87
1788.29
14262.3
1207.94
1610.04
1446.49
1668.81
1293.94
3464.92
3445.43
1755.11
2035.96
3690.41
1305.86
1333.26
272.51
1092.13
430.059
1172.72
317.115
2992.29
2531.55
1240.04
3210.51
3538.03
3256.37
2739.82
1489.03
3357.86
3842.2
2720.6
3198.39
4000.78
2207.17
2577.88
1826.54
2100.79
3802.33
1917.11
1072.55
801.871
1390.08
1151.48
710.502
451.761
1139.06
2437.3
2666.09
1229.42
1081.94
2262.9
2385.86
2282.02
2153.23
936.01
3170.92
3016.9
2606.49
3138.2
2915.95
1056.44
2826.9
2336.6
2509.33
2644.88
1978.11
919.332
1025.74
2853.36
1223.56
1364.7
1069.6
1181.88
2738.48
2805.81
1449.24
1671.12
457.106
492.065
1139.67
904.544
426.81
448.646
1121.51
1150.38
784.861
274.769
302.477
228.791
264.154
780.499
939.073
351.549
399.87
310.09
336.889
858.611
500.309
189.979
217.755
731.46
747.997
1564.46
1694.71
906.76
2126.74
1949.37
2261.38
1551.86
1460.21
1906.69
1623.38
682.439
1343.05
1549.7
1533
521.01
629.47
483.109
504.119
1520.12
673.103
680.794
651.224
670.481
1301.66
431.033
444.259
409.171
426.385
1278.05
1435.03
465.594
478.554
448.608
461.399
1424.3
2588.9
2759.35
1170.37
1251.47
2440.23
2518.43
1022.97
1023.93
1015.87
1023.14
1035.4
1046.97
1024.95
1031.95
693.802
703.536
683.197
690.931
760.357
990.279
707.366
732.033
1650.04
1846.09
1413.35
1581.99
3405.6
2324.97
2505.27
1921.88
2241.88
1124.53
1099.05
470.488
1712.39
1744.23
1651.4
1701.08
1757.93
558.707
1512.5
1164.49
1071.72
873.469
382.411
1213.36
1471.13
1051.68
1113
1577.26
1633.21
1493.68
1557.8
425.448
1078.65
1078.84
3581.86
1696.05
3538.27
3191.99
3539.2
1775.3
3908.6
2139.21
3837.39
3487.63
869.493
994.918
1735.85
1687.83
625.488
688.004
1805.7
1753.53
3531.3
1305.14
585.92
798.661
4875
5226.7
1894.58
4993.55
4132.21
2201.39
1210.24
4382.59
3100.75
5081.94
3281.71
1595.18
60.0077
40.889
35.8293
3654.39
3631.79
120.179
66.0747
66.3859
3649.89
1413.77
2605.36
2233.75
335.82
268.81
146.96
274.8
175.939
463.39
1641.79
279.813
305.623
50.6075
60.174
110.768
421.765
890.154
1102.45
197.944
97.2597
101.912
91.4459
95.7677
193.692
1178.23
1365.44
2647.29
787.602
689.97
371.475
399.77
419.993
900.079
1166.92
1283.77
646.374
103.525
108.554
233.047
308.7
722.17
702.855
680.554
568.564
277.104
797.649
370.235
392.829
3195.11
3044.76
2485.92
1622.52
1593.45
1196.61
2925.97
3559.59
3380.28
1834.8
1010.84
1127.35
1755.08
1207.76
1675.71
1653.2
1672.06
1706.98
3449.79
2782.13
2940.72
3623.94
1959.27
1706.13
892.406
1269.03
165.331
127.339
253.581
1175.35
2395.19
2057.09
4002.58
4084.2
4160.21
3685.28
3896.93
83.4023
107.781
325.348
1720.31
1436.28
1342.18
2003.64
1858.09
2248.08
2944.08
2813.8
3463.36
3413.14
2902.4
814.585
889.272
1888.69
3226.02
2358.58
2478.69
3119.26
2484.66
2626.06
1060.29
1319.83
1201.81
791.697
557.934
562.783
1147.69
810.277
834.823
568.539
576.544
811.083
161.555
182.575
479.466
635.181
988.272
809.179
1212.95
1173.34
794.613
1652.81
1301.66
1318.27
916.922
924.015
1503.79
1478.47
1499.18
1341.71
1367.2
1336.27
859.46
864.282
842.841
845.489
1229.57
1464.78
903.693
910.278
869.586
875.284
1394.79
731.148
724.627
312.6
339.381
741.65
733.434
525.572
513.236
250.698
1576.77
1585.7
1512.46
1524.82
1729.87
1594.32
1602.99
273.164
551.238
529.992
3350.49
3330.76
2579.24
2670.55
3373.93
3293.47
3316.58
772.622
1573.44
1409.41
343.99
362.791
748.743
652.644
324.765
338.802
1185.85
1183.34
876.783
902.131
1203.58
1191.02
3677.52
1750.97
1194.62
1708.6
14109.4
2833.36
2080.47
3903.5
3455.09
1804.06
1786.07
1219.47
4354.16
4587.93
4519.99
3705.37
1277.82
1841.27
1820.6
2651.79
1497.34
1723.33
3514.74
3636.71
3078.4
2952.71
2345.65
1242.33
1575.27
1388.62
2724.34
3427.23
3250.98
3556.83
3516.66
2870.7
177.344
249.956
1258.41
2255.64
2213.73
2335.61
2300.82
2119.72
1611.33
1608.14
1619.86
1614.51
2159.17
3043
1877.74
1892.93
1812.64
1853.72
3062.63
1935.67
1560.46
1493.34
1603.81
1592.31
1981.99
2839.1
1920.23
1930.27
1905.26
1914.14
2910.71
2419.06
2372.41
2330.3
2397.45
1092.98
792.521
795.853
1577.94
1133.22
1132.87
1124.66
1132.18
1554.82
3713.55
3756.44
3423.12
3609.31
1650.2
1676.75
1599.04
1624.16
1909.88
1168.27
1569.81
1553.98
1655.28
1131.83
1132.67
1132.05
1131.65
1638.19
1555.43
1575.73
1312.75
1541.7
1911.19
3739.39
3661.81
3109.24
3792.29
1686.11
2200.23
11649
1259.94
948.764
959.747
1777.22
5660.29
5616.35
9011.74
5336.26
4860.34
1715.95
1696.51
1207.14
1645.6
1730.58
1858.97
1644.53
1848.55
1627.02
1290.78
1887.4
1732.05
3492.64
3475.22
3659.59
3103.42
3308.53
1287.53
1431.19
1011.5
533.943
656.19
1037.79
1087.89
773.305
991.437
1277.4
3395.96
3596.48
3496.18
3554.13
4010.36
3980.3
3744.98
2875.75
3618.98
3379.65
3943.73
3839.82
3039.25
3263.1
3454.15
4095.71
3599.17
2937.3
3089.2
1682.57
1515.44
1769.09
1286.87
1557.94
1734.39
1794.32
1736.1
2476.67
1723.76
1670.41
2171.53
1862.02
2531.61
2301.47
1630.94
1625.31
1648.9
1638.57
2348.06
2241.86
1537.54
1561.02
3136.86
3090.35
2790.73
3151.74
3161.69
2994.41
2899.87
2948.75
2619.32
1686.31
1752.55
1589.27
1629.43
2433.71
3321.02
3128.55
2371.24
3536.36
3519.24
3508.16
2767.82
3442.4
3434.1
2124.25
2233.81
3033.8
1090.46
1178.27
667.649
755.437
1125.83
825.779
589.393
614.541
1059.85
1020.18
699.801
1142.64
1258.55
764.551
1140.52
1102.24
1576.77
1295.95
1274.04
1388.34
1327.99
1609.91
2066.43
1986.95
1521.96
1890.46
1939.02
1773.45
1827.57
1498.6
1865.35
1989.52
2140.91
1827.5
987.201
1085.03
1558.69
1511.85
932.417
947.865
1436.14
1457.33
1391.18
1414.12
852.869
856.016
1320.26
1253.73
847.344
849.773
891.178
897.153
1449.43
1412.13
881.013
886.117
2649.12
1957.03
1969.22
1938.58
1945.69
2684.97
2440.29
2075.38
2194.83
1987.16
2017.22
2484.29
1023.11
1515.17
1495.75
1545.65
1530.9
1023.32
1022.53
1428.45
1407.32
1474.64
1452.41
1023.42
1039.21
1631.78
1617.45
1654.31
1644.49
1043.1
1026.48
1572.63
1559.51
1602.96
1588.03
1028.93
1557.57
1567.44
696.859
983.763
980.738
990.487
987.005
700.091
1536.39
1547.28
1629.73
1648.65
823.546
1156.73
1058.82
1387.97
1374.55
927.608
712.063
999.119
994.378
1020.41
1006.05
719.029
1611.12
1619.48
3152.92
3297.62
3364.57
2783.6
2962.99
2386.41
3312.31
3346.28
3217.43
3273.37
2441.05
2020.09
2928.22
2731.2
3299.21
3143.66
2134.06
1109.89
810.914
824.236
799.453
803.961
1103.17
1723.08
1733.37
1669.93
1689.06
1779.77
1869.47
1497.17
1029.99
1097.01
853.603
919.635
1266.86
1437.17
1800.08
1716.05
1451.03
1058.84
1674.46
1664.41
1696.61
1684.91
1073.63
1596.21
1614.91
1516.06
1537.42
3505.63
2733.21
2858.49
2450.03
2594.15
3392.08
3377.03
3498.79
2992.36
3180.23
3568.12
3810.13
3077.12
3232.36
2763.74
2922.41
3702.1
1731.62
1747.73
1696.25
1714.54
1334.59
1239.64
930.98
1794.71
1819.03
1763.16
1778.34
1719.3
1139.42
1143.36
1134.25
1136.48
1703.71
1791.56
1172.76
1211.58
1148.76
1156.98
1771.99
3645.58
981.428
1035.82
1411.16
4653.11
7518.48
7607.18
6497.88
6827.25
4937.05
2101.02
4692.27
3638.58
3856.07
1214.02
1760.96
1737.74
4382.65
4663.88
4750.88
4092
4385.99
5123.01
4790.31
3484.97
4406.33
4147.1
1954.85
1871.89
1375.18
31.7552
31.7646
31.8508
31.7688
31.7851
31.8611
31.792
31.8162
31.8771
31.8253
31.8533
31.8972
31.862
31.8837
31.9149
31.8886
31.8942
31.922
31.8929
31.8805
31.915
31.874
31.8503
31.8984
31.8416
31.8159
31.8796
31.8079
31.7872
31.8641
31.6403
31.6605
31.7372
31.6693
31.704
31.7621
31.7183
31.7678
31.7997
31.786
31.8432
31.8437
31.8613
31.9053
31.8796
31.9147
31.9228
31.8917
31.9189
31.8901
31.875
31.8764
31.8279
31.8392
31.8109
31.7611
31.7984
31.7456
31.7035
31.764
31.5353
31.5758
31.6372
31.5936
31.6607
31.6891
31.6888
31.7956
31.7649
31.8383
31.9795
31.8575
32.0266
32.1412
31.9339
32.1636
32.1683
31.9535
32.151
32.0615
31.9112
32.0245
31.9074
31.8347
31.8682
31.7615
31.7546
31.7309
31.6542
31.6873
31.4459
31.5159
31.5579
31.5459
31.6737
31.6577
31.7338
31.9874
31.8238
32.1016
32.5488
32.0614
32.7272
33.217
32.2806
33.3078
33.2299
32.31
33.1132
32.7012
32.1563
32.5679
32.215
31.9554
32.1166
31.8744
31.7766
31.8094
31.6548
31.6486
31.3742
31.483
31.5054
31.5337
31.7738
31.6901
31.8951
32.4835
32.0762
32.8014
34.5538
32.843
35.5832
40.0936
33.8886
40.5851
38.7028
33.8593
37.5195
34.8016
33.0227
34.2089
33.021
32.3559
32.7533
32.1765
31.9287
32.038
31.7316
31.6658
31.3163
31.4729
31.4786
31.5534
31.9482
31.8122
32.1579
33.2952
32.6662
34.0076
40.8384
35.5604
39.1614
45.0563
38.3105
58.8421
55.8775
42.8936
44.7638
41.077
38.4191
38.4677
34.6917
33.3465
34.0156
32.739
32.2908
32.4662
31.903
31.7653
31.2668
31.4769
31.4729
31.5894
32.1341
31.9965
32.4227
33.9965
33.4994
34.5725
35.9252
35.5319
46.8135
52.6362
50.7597
85.1054
58.7153
50.579
45.4147
37.222
35.263
35.8946
33.5539
32.9232
33.0867
32.1643
31.9612
31.2222
31.4849
31.4788
31.6263
32.2883
32.1758
32.6307
34.4612
34.1272
35.3267
36.9845
36.7686
53.1284
62.7144
61.2218
128.854
79.763
72.79
51.7742
39.8603
37.9079
37.9016
34.466
33.7808
33.7897
32.4745
32.2394
31.1811
31.4937
31.487
31.6606
32.4214
32.3226
32.8081
34.8986
34.5654
35.9388
37.966
37.6804
60.7725
81.7619
78.4565
142.858
89.5968
87.368
55.7938
41.9447
40.4464
39.5613
35.2937
34.6862
34.442
32.78
32.5531
31.1437
31.5054
31.4963
31.6967
32.5577
32.4543
32.994
35.4698
35.0242
36.7549
39.4841
39.0483
70.8688
102.468
98.0429
138.219
89.8666
90.4366
57.616
43.2654
42.3489
40.6762
35.9201
35.472
34.9502
33.0346
32.8496
31.1103
31.5221
31.5091
31.738
32.7146
32.5946
33.2162
36.258
35.6463
37.9196
42.6676
41.0041
85.464
132.737
125.922
126.285
93.8594
94.6131
57.8917
43.8809
43.4798
41.2531
36.306
36.039
35.2752
33.2105
33.0864
31.0917
31.5677
31.527
31.8147
32.9613
32.7579
33.5768
37.6696
36.492
39.3837
47.0381
45.4051
102.573
183.991
171.658
863.028
458.192
514.357
106.719
64.852
65.8298
57.3073
43.9795
43.9454
41.4053
36.4742
36.3664
35.4269
33.3
33.2405
31.062
31.5907
31.5742
31.8623
33.1685
33.0132
33.9022
39.3262
38.0108
42.4182
51.215
51.9677
192.698
536.267
408.181
447.445
218.832
237.983
100.317
63.0414
64.4873
56.15
43.7241
43.9489
41.2666
36.4754
36.489
35.4425
33.3139
33.3097
31.0277
31.6077
31.5958
31.9043
33.388
33.2214
34.2814
42.208
39.9014
51.0578
324.456
211.081
867.438
518.715
610.911
302.852
115.774
121.572
94.9567
61.266
62.5873
54.9423
43.3118
43.6232
40.9668
36.3557
36.4517
35.3505
33.2571
33.3042
30.9865
31.6137
31.6103
31.9367
33.6512
33.45
34.7801
46.3001
43.1206
60.31
412.495
352.826
852.994
434.644
494.386
268.957
109.916
114.114
90.7753
59.6883
60.8464
53.8093
42.8697
43.2048
40.6336
36.1941
36.3186
35.2172
33.1656
33.2363
30.9374
31.609
31.6134
31.9604
33.966
33.7241
35.4048
51.4869
47.5003
71.8338
451.116
425.732
788.847
376.474
418.199
243.91
105.852
108.761
87.6824
58.3685
59.3354
52.8317
42.4371
42.759
40.2913
36.0049
36.1485
35.0555
33.0494
33.1385
30.8808
31.5972
31.6065
31.9816
34.3536
34.0555
36.1766
57.6803
52.9349
84.003
461.498
455.767
716.297
333.88
364.637
224.568
102.743
105.018
85.5205
57.281
58.0752
52.0022
42.04
42.3342
39.9676
35.8082
35.9559
34.8826
32.9193
33.0178
30.8184
31.5831
31.5937
32.0073
34.8246
34.4633
37.0988
64.4811
59.3661
94.5552
456.064
461.263
648.369
301.335
324.955
209.094
100.041
102.038
83.8359
56.443
57.0465
51.3211
41.6836
41.947
39.6705
35.6147
35.7593
34.7088
32.7831
32.8856
30.7518
31.5713
31.5798
32.0435
35.3849
34.956
38.1845
70.7254
66.1408
102.525
442.244
453.185
588.448
275.619
294.358
196.364
97.619
99.4108
82.3499
55.8602
56.2754
50.814
41.3707
41.601
39.4028
35.4293
35.5674
34.5394
32.6455
32.7487
30.6826
31.5656
31.5692
32.0947
36.057
35.5407
39.5021
75.6926
72.0895
108.466
424.358
438.033
536.646
254.74
270.005
185.651
95.4388
97.0526
80.9934
55.4466
55.7453
50.4664
41.1118
41.3005
39.1707
35.2551
35.3846
34.3774
32.509
32.6112
30.6123
31.5698
31.5655
32.1669
36.8983
36.2491
41.0738
79.5402
76.7473
112.828
404.876
419.57
492.077
237.408
250.115
176.47
93.4651
94.9275
79.748
55.1102
55.3578
50.215
40.9145
41.0568
38.9821
35.0954
35.2136
34.2257
32.3756
32.4753
30.5426
31.5905
31.5731
32.2728
37.9136
37.1388
42.7067
82.5231
80.3595
115.898
385.18
399.936
453.642
222.748
233.52
168.477
91.6642
93
78.5989
54.8077
55.0323
50.0081
40.7704
40.8741
38.8367
34.9536
35.0582
34.0869
32.2471
32.343
30.4755
31.6387
31.5995
32.4308
38.9888
38.1824
44.2028
84.8022
83.1539
117.91
366.019
380.32
420.318
210.154
219.425
161.426
90.0064
91.2373
77.5317
54.5242
54.7353
49.8217
40.6625
40.7407
38.7253
34.8302
34.921
33.9623
32.1248
32.216
30.4141
31.7255
31.6565
32.65
40.0108
39.2522
45.5044
86.4946
85.2763
119.064
347.774
361.363
391.232
199.188
207.274
155.133
88.4669
89.6113
76.5328
54.2542
54.4556
49.6464
40.5763
40.6393
38.6371
34.7232
34.802
33.8511
32.0091
32.0952
30.3616
31.8538
31.7538
32.9204
40.9341
40.2515
46.6226
87.6969
86.8377
119.529
330.616
343.38
365.665
189.529
196.661
149.462
87.0256
88.0982
75.5906
53.9944
54.1884
49.4778
40.5025
40.5569
38.5636
34.6297
34.6987
33.7516
31.8998
31.9812
30.3209
32.017
31.8917
33.221
41.7531
41.1484
47.5807
88.4918
87.9308
119.45
314.594
326.505
343.031
180.936
187.289
144.307
85.6659
86.6787
74.6947
53.7423
53.9308
49.3135
40.4359
40.4854
38.4993
34.5467
34.6081
33.6615
31.7963
31.8734
30.2936
32.2035
32.0619
33.5323
42.4748
41.9423
48.4
88.9509
88.6355
118.947
299.688
310.764
322.855
173.224
178.932
139.585
84.374
85.337
73.8366
53.4951
53.6801
49.1514
40.373
40.4199
38.4405
34.4717
34.5273
33.5792
31.698
31.7713
30.2801
32.4025
32.2525
33.8408
43.1087
42.6412
49.0984
89.1358
89.0207
118.119
285.846
296.13
304.756
166.247
171.416
135.231
83.1389
84.0603
73.0092
53.2509
53.4339
48.9898
40.3118
40.3576
38.3848
34.4027
34.4539
33.5029
31.6042
31.6742
30.2793
32.6053
32.4531
34.1384
43.6641
43.2546
49.6911
89.0993
89.1456
117.046
272.995
282.543
288.422
159.891
164.604
131.191
81.9516
82.8379
72.2067
53.0074
53.19
48.8272
40.2505
40.2965
38.3305
34.338
34.3861
33.4312
31.5143
31.5814
30.2895
32.8061
32.6558
34.4208
44.1495
43.7917
50.1914
88.8863
89.0611
115.795
261.062
269.93
273.599
154.065
158.388
127.424
80.8045
81.6613
71.4242
52.763
52.9464
48.6621
40.1881
40.2351
38.2762
34.2765
34.3224
33.3632
31.4279
31.4924
30.3088
33.0012
32.8555
34.6862
44.5728
44.2609
50.6113
88.5346
88.81
114.42
249.968
258.213
260.079
148.693
152.682
123.893
79.6914
80.5233
70.6575
52.516
52.7015
48.4934
40.1234
40.1722
38.2208
34.2171
34.2615
33.2978
31.3442
31.4067
30.3353
33.1886
33.0489
34.9341
44.9413
44.6698
50.9614
88.0764
88.4289
112.962
239.64
247.316
247.689
143.713
147.413
120.569
78.6072
79.4178
69.9033
52.2653
52.4538
48.3199
40.0556
40.1068
38.1635
34.1588
34.2024
33.2342
31.2631
31.3237
30.3673
33.3671
33.2341
35.1646
45.2615
45.0256
51.2514
87.5385
87.9484
111.458
230.009
237.169
236.284
139.076
142.524
117.428
77.5473
78.3401
69.1587
52.0095
52.2019
48.1408
39.9841
40.0381
38.1035
34.101
34.1443
33.1718
31.1839
31.2431
30.4034
33.5362
33.4102
35.3787
45.5396
45.3347
51.49
86.9436
87.3943
109.934
221.014
227.703
225.745
134.737
137.965
114.448
76.5083
77.2858
68.4215
51.7478
51.9447
47.9551
39.908
39.9655
38.0402
34.043
34.0865
33.1099
31.1064
31.1644
30.4404
33.6892
33.577
35.5694
45.774
45.6032
51.6801
86.3206
86.7883
108.43
212.624
218.859
216
130.702
133.695
111.649
75.5103
76.2515
67.7087
51.4892
51.6814
47.7701
39.8309
39.8882
37.9764
33.9874
34.0284
33.0514
31.0345
31.0873
60.069
59.0651
51.0117
125.43
183.526
210.274
82.8578
94.5867
81.9317
77.3589
73.8114
57.9213
170.146
267.792
268.566
218.29
238.926
148.016
96.6362
92.5909
66.6678
172.081
242.946
233.993
268.083
264.737
174.421
123.796
117.802
79.2935
157.756
191.15
187.658
213.044
209.573
167.51
167.9
157.501
91.7938
1292.66
1581.5
1509.73
821.744
861.469
1112.47
144.827
260.485
238.78
184.152
180.781
151.292
377.522
312.797
139.285
757.189
1448.36
1416.36
2122.72
1824.95
1203.55
390.398
405.447
621.083
127.733
212.096
200.353
232.566
216.606
129.483
65.8821
48.4104
40.2872
1507.12
1054.52
1968.77
39.8813
47.9307
56.954
1721.52
1719.45
60.0687
65.6866
73.4232
41.9973
53.4654
47.1744
474.977
582.123
636.886
205.866
263.355
198.818
70.1683
61.587
91.8167
48.4049
55.0638
58.8682
47.5621
51.2217
45.7495
37.4272
37.199
35.476
48.9867
39.3378
39.9399
38.7267
39.173
48.2787
1314.45
1726.04
1724.66
1295.84
1302.85
1053.98
86.2692
81.6756
132.081
57.974
68.5093
70.905
62.4607
65.7024
55.9086
38.6495
38.2886
36.1149
54.6589
41.2783
42.255
40.1727
40.982
53.8973
86.3642
82.8856
61.8449
207.213
155.338
158.545
138.276
140.919
185.542
880.044
1081.47
1055.97
1410.35
1395.69
1106.22
90.4811
90.0109
143
63.7293
75.7956
76.7285
72.9089
74.5342
62.6478
40.4683
39.9571
37.0121
62.1872
44.1153
45.4138
42.5999
43.7188
61.0872
108.867
104.011
72.3978
335.843
214.618
218.747
190.358
194.485
267.043
554.378
705.81
679.875
1057.84
964.318
651.895
44.8776
43.2655
38.2415
72.9994
47.7069
49.5416
45.8805
47.1827
71.5626
142.817
135.172
87.662
553.954
314.542
309.963
268.34
274.973
478.761
1815.66
1911.5
2362.13
357.787
661.583
586.297
494.665
478.456
393.841
51.2117
47.6546
40.031
89.6088
53.2528
58.3977
50.2143
52.4069
86.813
203.328
188.537
104.322
1247.59
920.418
929.063
659.214
667.128
892.351
2696.25
3487.68
302.108
600.623
2701.66
2070.43
1354.23
1192.71
689.286
126.008
193.517
165.043
293.84
266.818
155.87
85.08
100.153
91.0555
153.397
144.878
112.756
1007.04
1268.65
1285.84
688.124
734.645
577.021
144.091
173.951
116.824
444.23
325.668
298.323
466.55
444.913
729.533
167.558
86.0857
90.0563
82.0469
84.8944
164.226
57.0533
72.3673
67.1968
216.577
388.373
372.492
493.594
481.427
227.126
174.127
317.089
300.798
368.377
356.257
200.826
1141.04
1434.37
1422.96
1718.36
1704.98
1305.59
260.89
266.768
160.56
1008.67
563.162
563.877
586.381
591.638
940.893
867.548
505.129
486.629
563.775
564.374
1000.97
149.737
244.619
257.855
249.146
182.693
186.459
161.808
165.111
222.707
65.3827
91.2988
87.5634
300.541
382.207
375.771
445.625
441.153
350.883
247.665
509.255
497.513
368.045
359.323
286.377
717.858
1202.05
1091.22
1032.11
1009.79
821.886
254.111
245.868
173.244
640.627
494.764
505.232
281.931
295.673
590.342
873.205
572.671
580.052
515.57
525.756
760.857
174.774
263.017
256.641
435.474
255.648
261.926
223.103
227.667
369.568
77.441
115.911
110.562
455.227
591.87
587.271
815.618
811.833
592.445
363.235
455.878
450.378
582.73
578.252
440.201
431.148
529.56
511.721
654.741
631.561
504.096
866.538
636.799
649.642
311.359
320.665
646.411
90.5013
154.327
145.53
857.014
1179.41
1177.67
609.561
821.176
818.491
1169.64
1141.43
811.373
311.667
487.06
438.89
564.028
505.181
295.607
2022.69
1645.13
1727.25
11101.5
2308.71
3523.02
935.713
941.736
1255.77
125.215
246.127
208.54
1083.46
1038.61
838.398
4816.65
4860.6
8821.59
943.849
1187.74
1133.15
36.533
36.2578
34.801
44.7021
38.0855
38.584
37.1477
37.8866
44.1163
55.7928
54.3413
47.8905
86.0071
62.5414
65.2717
58.8924
61.5222
82.2785
939.576
1234.96
895.852
65.8336
64.3354
54.0747
139.395
77.4821
80.9156
72.3042
76.3023
135.95
95.2188
89.5398
137.003
66.0933
77.9495
77.9868
77.3709
77.7679
65.7542
943.48
1624.84
1402.55
1239.52
1186.94
953.726
407.017
442.306
826.049
274.555
351.607
339.751
424.945
364.639
282.648
109.416
68.8746
71.3038
66.0346
68.182
106.376
50.3484
58.0795
57.0162
200.089
258.382
211.892