/*--------------------------------*- C++ -*----------------------------------*\
| =========                 |                                                 |
| \\      /  F ield         | OpenFOAM: The Open Source CFD Toolbox           |
|  \\    /   O peration     | Version:  v1912                                 |
|   \\  /    A nd           | Website:  www.openfoam.com                      |
|    \\/     M anipulation  |                                                 |
\*---------------------------------------------------------------------------*/
FoamFile
{
    version     2.0;
    format      ascii;
    class       volScalarField;
    location    "600";
    object      p;
}
// * * * * * * * * * * * * * * * * * * * * * * * * * * * * * * * * * * * * * //

dimensions      [0 2 -2 0 0 0 0];


internalField   nonuniform List<scalar> 
12556
(
658.115
657.322
655.362
651.267
645.776
633.536
613.664
581.972
534.102
465.037
370.844
251.131
111.446
-36.5802
-178.891
-304.167
-406.674
-485.909
-544.207
-585.327
-619.483
-635.452
-644.649
-648.972
658.591
658.075
656.719
653.669
648.183
637.731
620.02
593.699
550.461
486.297
395.974
277.308
134.703
-19.4187
-168.579
-299.384
-405.386
-486.413
-553.4
-592.066
-625.633
-639.781
-647.8
-651.545
659.805
659.919
659.908
659.101
655.197
648.901
636.851
615.005
579.41
522.193
434.604
309.704
149.742
-26.911
-194.503
-334.127
-440.46
-516.796
-579.19
-611.321
-640.024
-650.216
-655.737
-658.282
661.215
662.216
664.066
666.367
665.254
665.031
661.45
648.221
626.195
583.591
505.454
373.301
180.225
-43.3478
-245.36
-397.697
-501.772
-568.779
-619.182
-640.509
-660.886
-665.36
-667.313
-668.135
661.863
663.868
667.818
673.709
676.461
683.766
691.332
691.245
689.832
674.149
623.348
493.149
237.594
-85.2871
-346.073
-509.784
-597.885
-641.851
-672.056
-677.879
-685.397
-682.621
-680.244
-678.978
660.775
663.783
669.828
679.358
686.652
701.915
721.458
737.436
764.033
792.573
805.54
727.601
353.857
-211.207
-553.51
-689.846
-730.817
-735.563
-734.039
-719.535
-710.42
-699.457
-692.333
-688.795
657.033
660.918
668.786
681.502
693.446
715.907
746.326
778.278
832.702
912.646
1037.42
1215.52
710.761
-661.754
-950.477
-951.29
-897.571
-841.215
-797.165
-760.013
-732.137
-713.06
-701.323
-695.593
649.808
654.332
663.508
678.503
694.545
722.274
760.376
804.487
877.303
988.14
1178.23
1586.55
-2054.03
-1569.15
-1261.34
-1068
-940.451
-850.774
-792.152
-746.245
-720.393
-704.866
-697.332
638.467
643.317
653.139
669.266
688.394
718.759
760.231
810.291
887.353
994.071
1135.98
1271.68
-3486.76
-2077.68
-1500.53
-1192.25
-1008.69
-882.565
-808.648
-748.894
-718.778
-700.903
-692.236
622.667
627.506
637.269
653.309
674.269
704.592
745.399
795.845
867.588
957.855
1057.93
1136.06
-3406.8
-2145.3
-1555.63
-1224.35
-1024.93
-883.484
-804.429
-737.626
-706.516
-688.118
-679.166
602.384
606.891
615.939
630.772
652.289
680.285
717.337
764.429
827.3
903.924
988.698
1067.86
-2632.49
-1853.63
-1426.24
-1157.38
-984.141
-851.32
-778.498
-712.145
-683.324
-666.225
-657.837
577.877
581.774
589.561
602.311
623.222
647.095
678.165
719.381
771.68
837.191
918.815
1020.03
-1757.27
-1407.35
-1185.67
-1018.97
-897.659
-791.551
-733.505
-674.197
-650.289
-635.951
-628.829
549.687
552.78
558.907
568.81
588.103
606.624
630.212
663.431
702.519
753.267
825.68
945.145
-774.347
-916.456
-957.379
-914.678
-849.139
-785.366
-714.113
-674.92
-627.056
-609.517
-598.819
-593.419
518.491
520.713
525.06
531.972
548.954
561.515
576.639
600.394
623.218
650.926
688.057
784.393
224.63
-389.741
-603.198
-673.509
-682.581
-667.142
-629.701
-609.139
-574.382
-563.609
-556.828
-553.32
485.111
486.378
488.779
492.432
506.494
512.625
518.865
532.177
537.163
536.561
519.798
455.907
179.603
-169.282
-380.808
-490.407
-540.04
-557.119
-546.76
-541.902
-519.699
-515.187
-512.065
-510.373
450.377
450.716
451.248
451.833
462.921
463.238
461.59
465.122
455.068
433.071
386.613
294.62
125.614
-87.9264
-254.744
-363.929
-427.89
-462.341
-470.393
-477.185
-465.72
-466.429
-466.415
-466.306
415.115
414.638
413.546
411.486
419.691
415.061
407.016
402.7
382.079
347.545
293.083
208.216
88.8621
-55.4146
-180.94
-275.949
-341.245
-383.083
-402.872
-417.404
-414.313
-419.017
-421.441
-422.56
380.078
378.927
376.511
372.323
377.96
369.536
356.902
347.073
320.596
281.641
228.142
155.372
64.8195
-40.2581
-136.492
-215.763
-275.955
-319.084
-344.784
-363.699
-366.625
-374.07
-378.261
-380.266
345.878
344.207
340.782
335.02
338.53
327.488
311.975
298.781
269.956
230.974
181.714
120.193
48.4946
-32.0561
-107.769
-173.457
-226.722
-267.781
-295.535
-316.366
-323.173
-332.271
-337.59
-340.212
312.987
310.95
306.829
300.02
301.87
289.255
272.269
257.383
228.442
191.565
147.42
95.3623
36.9959
-26.9663
-87.9249
-142.573
-188.888
-226.438
-253.94
-275.039
-284.084
-293.962
-299.885
-302.841
281.743
279.48
274.945
267.55
268.174
254.833
237.429
222.03
194.267
160.408
121.321
77.0619
28.6494
-23.4024
-73.3924
-119.168
-159.159
-192.758
-218.751
-239.092
-249.169
-259.194
-265.318
-268.401
252.358
249.99
245.275
237.669
237.445
224.022
206.935
191.8
165.904
135.355
100.943
63.1194
22.4442
-20.651
-62.2225
-100.823
-135.27
-164.962
-188.831
-207.831
-218.106
-227.847
-233.884
-236.94
224.938
222.562
217.853
210.325
209.564
196.518
180.231
165.844
142.135
114.878
84.6776
52.2151
17.7422
-18.3685
-53.293
-86.0234
-115.676
-141.715
-163.224
-180.592
-190.523
-199.703
-205.459
-208.385
199.503
197.192
192.629
185.391
184.335
171.978
156.788
143.432
122.014
97.8799
71.4447
43.5027
14.1235
-16.3797
-45.9254
-73.7885
-99.3058
-122.022
-141.147
-156.778
-166.031
-174.49
-179.843
-182.572
176.004
173.812
169.497
162.695
161.533
150.06
136.133
123.958
104.814
83.573
60.4994
36.4166
11.3027
-14.5913
-39.6934
-63.4672
-85.4095
-105.142
-121.969
-135.868
-144.255
-151.913
-156.796
-159.29
154.349
152.314
148.315
142.046
140.914
130.439
117.85
106.922
89.9677
71.3792
51.312
30.5631
9.07913
-12.951
-34.3161
-54.6103
-73.4469
-90.5149
-105.185
-117.419
-124.849
-131.68
-136.063
-138.304
134.412
132.556
128.917
123.238
122.24
112.818
101.586
91.9141
77.0346
60.8678
43.4976
25.6606
7.30884
-11.4281
-29.6019
-46.9
-63.0219
-77.713
-90.3867
-101.054
-107.495
-113.509
-117.385
-119.369
116.042
114.38
111.127
106.067
105.279
96.9253
87.0307
78.5958
65.6618
51.7075
36.7677
21.5011
5.88565
-10.0031
-25.4137
-40.1025
-53.8341
-66.4008
-77.2393
-86.4499
-91.9044
-97.13
-100.511
-102.242
99.0752
97.6159
94.7597
90.3314
89.8095
82.5153
73.9196
66.6852
55.5674
43.6399
30.9024
17.9277
4.73008
-8.66248
-21.6503
-34.0417
-45.6521
-56.3122
-65.4657
-73.3292
-77.8196
-82.2953
-85.1988
-86.6854
83.3441
82.0892
79.6343
75.8363
75.6238
69.3661
62.0207
55.9435
46.5202
36.4578
25.7291
14.8186
3.78128
-7.39591
-18.2332
-28.5797
-38.2911
-47.2299
-54.8326
-61.4518
-65.0082
-68.7758
-71.2245
-72.478
68.6686
67.6187
65.5643
62.3907
62.5267
57.2776
51.1317
46.1671
38.3279
29.9918
21.1095
12.0775
2.99196
-6.19459
-15.0998
-23.6055
-31.6002
-38.9733
-45.1416
-50.6082
-53.2562
-56.3552
-58.3714
-59.4028
54.9003
54.0514
52.3923
49.8323
50.3405
46.0679
41.0732
37.1801
30.8287
24.1014
16.9304
9.62632
2.32469
-5.0506
-12.1985
-19.0278
-25.4543
-31.39
-36.221
-40.6134
-42.3854
-44.8526
-46.4591
-47.2812
41.7775
41.1342
39.8716
37.9252
38.8779
35.5692
31.6844
28.8279
23.8821
18.666
13.096
7.39968
1.74916
-3.95609
-9.48474
-14.7685
-19.7457
-24.3477
-27.9191
-31.3001
-32.1678
-34.0265
-35.2371
-35.8536
29.4394
28.9762
28.0871
26.7222
28.0353
25.6318
22.821
20.975
17.3664
13.5804
9.52245
5.34107
1.24066
-2.90288
-6.9197
-10.7605
-14.3818
-17.7312
-20.1016
-22.5259
-22.6189
-23.9121
-24.7568
-25.1963
16.6739
16.4587
15.989
15.2673
17.4822
16.098
14.3428
13.502
11.1735
8.74775
6.13149
3.39776
0.780019
-1.88102
-4.46748
-6.94353
-9.28072
-11.4379
-12.6366
-14.1371
-12.9225
-13.6159
-14.0669
-14.2728
7.53127
7.34443
7.11447
6.69765
7.63557
6.7355
6.01396
6.31172
5.20845
4.0701
2.84757
1.498
0.363764
-0.875278
-2.093
-3.26243
-4.36903
-5.3801
-5.31285
-5.97283
-5.71048
-6.07841
-6.28587
-6.45848
1303.86
-3698.49
-2144.9
1146.54
-3705.14
-3785.41
1074.54
-2861.54
-3624.97
1026.68
-1914.72
-2741.52
952.453
-830.602
-864.079
-1033.65
-1799.08
810.821
312.92
-786.515
177.766
-403.023
-937.797
1587.37
871.891
-1837.97
-487.916
-4610.95
-2474.81
-3401.03
-2192.43
-1674.73
1076.72
1138.72
1261.44
-5215.02
-5309.8
-3471.9
-2394.61
-2300.38
1005.4
1065.05
1127.54
1106.83
1130.53
1168.46
-3976.39
-4661.97
-2740.7
-2109.08
-2358.31
937.449
1012.51
1057.99
1050.11
1087.86
1097.43
-2683.91
-3237.56
852.623
940.342
1005.27
991.471
1055.02
1074.31
-1570.93
-1498.7
-2008
726.239
799.015
928.441
899.601
1000.18
1020.42
522.548
284.63
321.593
1547.98
1267.47
2178.97
1617.6
-5302.5
-4682.32
-3232.46
-4493.11
-5159.9
1171.95
1190.5
1184.77
1188.17
1175.64
1249.23
1191.08
-4701.42
-5195.31
-3793.52
-5075.45
-4616.77
-5168.66
-5094.01
-3812.79
1099.98
1125.3
1097.9
1128.57
1102.11
1173.64
1131.47
-3318.51
-3923.59
-3212.15
-3827.34
-3248.63
-4577.53
-3917.82
-3324.28
1075.9
1087.68
1044.55
1090.86
1079.99
1100.63
1090.72
-2081.93
-2606.83
1022.79
1053.5
985.906
-1534.25
1058.92
1027.36
1078.37
1060.6
-1569.09
-972.882
-1428.26
-1527.02
1034.71
1000.36
889.074
-62.263
1007.16
920.61
1025.36
1006.58
-139.109
1154.61
1289.65
1501.09
1478.74
1609.31
2059.23
-5263.28
-2705.01
1201.66
1194.7
1263.18
-3204.44
-1865
-1607.53
-1994.66
-1940.46
-1877.37
-2138.5
-191.003
-479.892
-839.52
1281.84
1547.52
1430.75
1228.01
2976.56
2152.86
-2403.07
-4328.2
-3003.21
-2180.12
-2467.42
-2266.84
-2561.8
-2053.38
-3170.89
-2636.47
-2385.54
-1160.46
-342.137
-480.762
1423.84
1794.12
2199.42
-2079.46
-311.136
1234.22
-5399.04
-3929.73
-5289.16
-2646.59
-5110.48
-3607.43
-5276.63
-5285.79
-4305.51
-4352.14
-2847.78
-3143.62
-2917.34
-3120.93
-2822.34
-3490.6
-3166.31
-2996.58
1063.7
1036.02
1025.59
-1547.92
-1794.81
-1871.62
1006.44
967.405
952.39
986.008
972.103
1007.44
1427.08
1248.62
1386.58
1268.6
1468.06
1177.26
1249.9
1347.96
1967.9
2139.77
2830.95
1517.98
2037.72
1874.16
2034.98
1485.54
-5127.85
-5091.42
1181.92
1179.77
1181.37
1212.62
1163.83
1176.96
1176.28
1164.87
1205.16
-4941.96
-4972.06
-4880.57
-4329.15
-4422.6
-4141.13
-4288.24
-4850.27
-5169.43
-4468.26
-4406.42
-4443.44
-4472.24
-5160.6
1113.35
1111.39
1156.37
1152.94
-3566.92
-3522.07
-3613
1086.78
1085.7
1093.15
1092.56
-2777.66
-2487.38
-2379.62
-2507.78
-2799.34
1033.04
1004.07
990.461
1021.7
1008.75
1036.38
-1206.63
1040.45
1036.69
1068.47
1067.82
-1881.05
-1205.79
-1220.59
-1466.07
946.103
923.174
994.486
1008.54
471.58
157.718
1013.77
-336.254
111.098
-253.942
1013.45
-391.57
-281.637
79.0987
-2986.08
-2068.42
-2206.25
560.15
536.505
764.495
656.543
660.091
955.647
196.614
-123.209
-296.088
3957.53
-2237.53
-2386.73
-900.167
-1138.94
-1160.43
-140.557
-377.681
-118.368
2320.75
2550.72
3015.72
-2209.78
-66.0949
1770.83
-5256.19
-5755.73
-5718.78
-5312.98
-4116.01
-4302.45
-4128.83
-4910.4
-4775.11
-4536.42
1090.5
1075.4
1069.35
1085.52
1077.7
1091.54
1048.28
1039.22
1064.7
1001.27
981.808
976.971
858.318
594.399
341.749
-5243.79
-5697.25
-5771.52
-4941.88
-4099.98
-3760.49
-4367.5
-4184.57
-4972.3
-4812.02
-5074.41
-4957.72
-5111.63
1108.64
1098.41
1088.5
1107.41
1109.35
1105.47
-4074.93
-3922.78
-3789.28
-3570.58
-3332.74
-3546.79
-4284.4
-3896.24
-4083.99
-3618.5
-3828.75
-4239.24
1082.31
1058.81
1051.17
1067.4
1061.18
1083.39
1090.58
1104.13
1100.56
1092.24
1103.08
1084.23
1096.98
1101.18
1106.17
1098.96
1096.16
1090.69
-2304.79
-2447.24
-2175.53
-1400.52
-1394.34
1053.25
1023.23
1072.98
1080.59
1091.44
1083
1063.39
-1698.53
912.749
912.193
875.051
975.069
967.267
997.282
124.438
373.035
133.88
1007.87
443.713
673.168
507.726
625.089
1014.63
1011.3
-4558.25
-3145.42
-4174.41
-3318.92
-3373.71
-1899.34
-2026.14
-2044.97
1202.5
1191.91
2682.3
2966.74
3629.9
2758.27
2550.98
-2539.37
-2390.73
-2342.73
-2398.98
-2558.22
-1177.49
-1011.79
-1018
-1019.24
-1182.32
-810.151
-968.501
-589.67
-605.797
-761.185
-399.878
-553.134
-492.626
-5628.84
-4968.45
-4480.87
-5404.71
-5101.22
-4290.17
-3598.39
-4280.5
-5610.93
-5570.9
-5260.46
-5308.46
-5696
-5632.36
-4513.04
-4355.85
-4164.51
-4409.57
-4578.76
-4185.04
-4360.25
-4621.49
-4491.3
-4731.64
-4560.9
-2976.88
-3028.67
-2997.71
-2914.67
-3036.79
-3350.44
-3249.31
-3379.51
-3077.95
-3206.18
-3301.53
-1751.28
-1725.23
-1854.7
988.521
983.814
998.602
1008.99
995.654
990.99
1327.61
1305.09
1330.67
1402.73
1332.48
1537.8
1431.58
1356.82
1204.52
1253.91
1223.84
1313.25
1266.52
1215.5
1693.25
1732.19
1579.85
1743.04
1662.75
-5638.17
-5670.02
-5218.56
-5794.54
-5793.97
-5790.09
-5631.53
-5493.08
-5801.27
-5664.19
-4949.18
-5477.88
-5623.67
1177.22
1181.76
1183.94
1182.97
1182.21
1179.52
1189.68
1191.03
1186.05
1188.73
1166.06
1197.01
1188.88
1217.01
1200.9
1166.5
1173.94
1184.08
1182.87
1187.22
1184.81
1174.68
-5209.56
-5110.69
-4846.54
-5075.12
-5346.87
-5233.44
1122.24
1117.17
1132.34
1122.96
1110.34
1109.57
1114.62
1110.27
1178.05
1166.65
1190.24
1181.59
1146.1
1134.8
1162.72
1150.63
-3593.19
-3728.66
-3422.85
-3551.19
-3647.64
-3971.39
-4125.93
-3774.55
-3923.19
1096.83
1103.06
1089.94
1108.53
1099.26
1103.43
1110.33
1098.66
1084.19
1102.66
1095.6
1099.34
1100.03
1095.6
1103.64
1102.8
1108.21
1103.37
1096.9
1100.99
1097.75
1096.43
1090.95
1095.91
1097.67
-2568.1
-2634.03
-2695.96
-2555.68
-2742.69
-2674.01
-1193
-1351.72
-1385.61
-1189.56
1051.34
1028.03
1077.62
1078.68
1071.45
1064.9
1084.98
1078.88
-1771.94
993.332
963.486
955.781
652.011
552.009
1007.02
243.896
414.835
299.584
1011.27
-489.329
-49.7441
181.735
-93.6871
997.841
-1797.75
-1469.08
-924.902
-2193.2
-2245.63
-1045.5
-1079.19
-1472.14
-2256.17
-973.258
-965.863
-813.69
-1982.09
-1517.91
-1458.68
3019.28
3374.69
3963.41
-1957.92
295.008
2417.71
-1069.86
-615.104
-2069.45
-4289.73
-4861.82
-5168.55
1148
1134.33
1119.53
1153.76
1139.37
1153.77
-1551.45
-1681.47
-1699.37
-2095
-1853.71
-1786.98
1004.17
998.386
1011.68
-5259.24
-5430.54
-4905.05
1114.83
1102.19
1112.22
1121.3
1123.2
1132
1134.49
1144.89
1140.24
1022.62
1011.4
1006.78
-1549.54
-1503.87
-1492.58
1031.96
1036.8
1028.95
-1631.8
-1646.61
-1558.63
-1390.62
-1376.55
-1508.38
1008.85
1023.72
1030.56
1030.41
1002.8
-5129.04
-3236.24
-1919.23
-1978.17
-1985.88
-2187.82
-2056.43
-2016.05
1212.66
-3616.21
-3091.03
-3657.2
-2302.5
-2360.07
-2226.91
-817.099
-832.403
-663.613
-664.584
-760.151
-1089.23
-444.569
-2226.36
-5452.49
-5204.58
-5030.28
-5742.66
-5682.21
-2890.77
-2920.79
-2874.92
-3159.92
-3151.21
-3124.5
-2749.17
-2870.99
-2950.62
-3458.58
-3408.74
-3452.89
-1863.71
-1840.5
-1870.56
1383.48
1415.31
1268.22
1288.07
1313.73
1293.63
1179.18
1198
1192.68
1275.06
1258.88
1234.64
1989.83
1792.43
1767.75
1929.71
1888.47
2030.12
1460.83
1503.27
1535.68
1176.79
1178.79
1188.33
1179.92
1180.77
1181.04
1201.09
1203.34
1190.61
1189.93
1166.15
1173.4
1171.98
1188.91
1184.83
1174.09
1172.49
1175.97
1177.93
1172.02
1173.86
1169.13
1116.3
1121.59
1118.98
1106.95
1109.93
1114.24
1164.05
1174.52
1164.67
1175.94
1171.59
1204.45
1200.88
1135.97
1167.19
1162.82
1143.68
1148.92
1160.36
-3746.22
-3798.44
-3493.67
-3540.84
-3565.83
-3850.64
-3872.07
-3740.42
-3875.24
-3734.01
1020.49
1014.01
1024.87
1045.66
1030.28
1023.63
1044.19
1049.52
1044.59
1033.51
1037.08
1040.03
-1878.7
967.417
967.17
973.667
738.786
975.546
343.238
488.237
614.959
1019.8
1016.88
1012.86
-394.684
-249.568
-223.47
-237.106
1010.97
1017.6
1020.27
-126.614
-200.709
-350.076
-2107.77
-2142.22
-2230.98
-2184.76
-2164.38
3783.87
4407.55
3470.99
-2285.37
-2313.31
-2244.22
-2404.86
-2353.32
-2339.98
-1050.19
-147.706
-2031.51
-5497.76
-5504.5
-5454.28
-5474.46
-5743.98
-5609.18
-5616.76
-5590.23
-5601.16
-5732.91
-4870.97
-4794.35
-4836.33
-4700.67
-4750.76
-4827.05
-5743.87
-5586.98
-5554.46
-5621.58
-5612.81
-5772.61
-5032.1
-4954.55
-4992.74
-4878.88
-4917.33
-4997.83
-5421.6
-5439.37
-5349.36
-5387.07
1103.49
1098.81
1098.93
1093.3
1090.21
1088.54
1094.65
1092.8
1096.98
-1506.97
-1559.43
-1392.67
-1463.34
1063.54
1064.82
1065.37
1062.82
1023.6
1026.79
1036.57
1020.59
1083.86
1081.51
1078.92
1087.04
1084.59
1088.24
1073
1071.58
1076.07
1060.47
1066.2
-1707.98
-1699.23
-1686.81
-1563.45
942.477
1002.46
1157.34
999.399
988.982
986.45
1009.85
377.975
358.016
1142.73
1009.4
769.787
1015.69
1025.12
1020.04
1005.51
-4802.08
-5083.92
-4886.35
-3956.71
-3738.12
-2888.26
-4603.17
-4297.14
-3274.17
-3402.06
-2040.2
-2026.99
-2037.47
1207.14
1173.96
3204.6
3089.3
2907.37
2270.54
2136.77
2701.26
2455.97
2536.15
-2466.14
-2411.45
-2506.15
-1030.95
-1031.11
-1020.7
-1125.9
-846.381
-831.005
-817.54
-961.226
-911.449
-903.352
-590.381
-648.704
-648.565
-474.203
-475.191
-519.825
-5481.87
-5357.97
-5547.72
-5309.21
-5537.66
-5623.03
-5655.05
-5601.25
-5586.9
-5492.42
-5507.73
-5492.55
-5480.03
-5568.4
-5670.46
-5556.38
-5574.66
-5524.32
-5539.97
-5651.68
-4463.96
-4391.4
-4439.93
-4461.85
-4524.19
-4235.82
-4260.41
-4226
-4308.92
-4671.95
-4712.13
-4677.07
-4592.19
-4647.51
-4488.69
-4540.25
-4616.88
-3013.79
-2940.56
-2926.36
-2954.75
-2889.43
-2940.43
-3081.07
-3108.22
-3057.47
-3314.2
-3355.99
-3385
1352.79
1285.35
1221.14
1206.92
1186.75
1224.44
1245.61
1233.58
1702.09
1780.98
1833.24
2019.19
1905.16
1593.47
1557.61
1627.64
-5648.54
-5477.09
-5458.61
-5520.54
-5496.88
-5660.9
-5802.02
-5794.12
-5603.96
-5776.58
-5781.88
-5724.28
-5769.96
-5563.88
-5787.42
-5802.72
-5847.45
-5723.61
1178.99
1180.34
1177.94
1181.06
1180.72
1180.07
1195.78
1198.34
1190.98
1193.32
1175.33
1174.47
1166.82
1169.54
1180.45
1177.1
1176.33
1175.57
1171.87
1172.85
1175.73
1176.6
-5180.33
-5095.72
-5125.39
-5027.54
-5061.47
-5142.59
-5303.55
-5229.77
-5299.83
-5152.59
-5183.99
-5264.85
1121.16
1122.26
1122.36
1118.2
1120.98
1119.47
1128
1125.42
1132.86
1121.4
1121.45
1124.52
1110.47
1112.08
1111.07
1112.19
1112.53
1110.27
1112.44
1112.04
1114.78
1109.99
1110.16
1110.91
1185.07
1180.52
1174.38
1177.69
1181.69
1169.36
1173.51
1170.54
1194.43
1189.26
1150.19
1147.04
1142.16
1144.88
1148.04
1137.21
1132.52
1136.23
1158.75
1161.03
1165.2
1152.76
1156.88
1154.71
1158.71
1154.61
-3677.13
-3705.59
-3620.58
-3591.12
-3625.98
-4017.01
-4048.47
-4008.14
-4162.9
-4099.19
-4067.61
-3816.82
-3852.94
-3819.47
-3963.11
-3918.52
-3870.65
1098.09
1094.8
1093.41
1098.17
1096.59
1100.51
1104.1
1100.64
1106.12
1108.49
1100.1
1090.91
1087.6
1088.52
1092.37
1091.88
1091.53
1097.15
1093.14
1095.74
1106
1103.79
1106.49
1108.29
1110.46
1105.94
1106.96
1105.09
1097.66
1098.99
1095.68
1095.89
-2651.78
-2633.28
-2682.81
-2543.62
-2588.58
-2623.03
-2805.18
-2840.36
-2725.29
-2738.55
-2750.06
-1321.78
-1322.11
-1378.18
-1199.68
-1255.68
-1269.49
1054.13
1046.91
1065.14
1061.53
1033.49
1033.83
1030.13
1036.4
1035.76
1042.14
1039.21
1077.34
1075.49
1075.36
1077.18
1076.09
1077.68
1083.65
1077.48
1076.74
1075.8
1076.66
1081.22
-1821.28
982.263
979.345
991.656
607.589
631.85
704.36
560.879
570.919
544.298
1008.08
347.166
291.734
219.722
1011.39
1013.13
1011.12
-466.394
43.6663
-21.0132
161.436
150.399
161.52
-41.8575
-169.69
-154.951
-51.0982
1007.86
1017.04
1010.67
608.534
581.972
562.794
570.585
528.62
504.278
511.067
447.985
420.712
422.38
333.669
308.847
299.235
186.081
171.201
144.755
18.217
18.4017
-24.7788
-147.503
-133.417
-186.54
-291.636
-269.554
-323.459
-405.742
-381.818
-429.802
-490.199
-468.683
638.885
620.928
590.096
612.823
580.055
539.103
565.605
508.587
459.968
484.057
391.248
344.748
353.395
220.429
192.442
170.719
14.3966
17.5936
-37.7475
-184.722
-154.479
-229.154
-345.296
-302.173
-378.286
-460.73
-416.753
-483.267
-538.789
-500.042
679.846
675.362
633.201
672.493
657.04
596.885
648.703
608.651
529.362
588.488
498.077
412.279
455.667
287.537
233.308
219.587
0.872612
12.443
-70.6727
-260.997
-199.011
-314.113
-441.888
-364.514
-475.369
-552.066
-479.545
-570.731
-611.635
-554.962
726.045
740.583
691.154
745.365
758.318
680.219
761.249
759.819
641.304
753.36
693.918
536.401
652.458
425.923
312.809
315.764
-51.7177
-6.28066
-164.584
-424.727
-290.545
-486.812
-612.631
-476.471
-637.88
-685.048
-581.27
-693.985
-708.458
-633.612
769.133
803.495
757.04
817.072
865.539
785.708
884.858
953.715
806.062
979.854
1053.16
765.218
1059.93
777.737
483.173
647.021
-298.097
-82.7393
-487.497
-788.043
-490.645
-829.214
-876.891
-668.564
-878.173
-862.68
-725.425
-853.981
-824.626
-736.195
799.778
849.29
817.171
869.312
944.305
889.425
975.937
1103.62
1000.59
1163.04
1499.88
1172.95
1402.12
1558.33
1171.85
997.267
-118.751
130.303
-964.886
-1016.7
-797.296
-1404.83
-1233.36
-959.986
-1184.68
-1061.59
-912.219
-1027.41
-941.586
-854.67
810.859
866.115
856.367
888.029
966.688
955.4
998.013
1110.84
1118.53
1179.24
1246.58
1249.69
1563.41
1652.85
1688.92
-2774.47
-2292.9
-1827.06
-1986.94
-1556.74
-1324.7
-1455.27
-1226.46
-1108.81
-1168.56
-1032.09
-967.937
801.233
854.369
865.614
874.763
943.68
964.14
969.111
1049.93
1097.78
1116.12
1148.9
1175.07
1244.62
1246.93
1275.77
-3601.36
-2937.25
-2802.02
-2169.99
-1679.27
-1610.38
-1561.04
-1293.56
-1254.18
-1226.08
-1067.9
-1046.91
773.722
821.054
847.791
838.932
897.539
933.745
918.564
983.846
1033.3
1039.84
1061.42
1080.84
1126.01
1134.86
1149.33
-3151.77
-2704.4
-2852.11
-1948.33
-1569.75
-1671.44
-1472.39
-1242.42
-1291.44
-1182.29
-1037.95
-1066.45
731.805
771.72
810.077
786.899
836.914
883.67
855.252
915.571
967.367
972.026
993.394
1009.56
1061.62
1072.92
1081.08
-2303.05
-2077.38
-2323.82
-1524.3
-1311.46
-1514.97
-1251.61
-1100.26
-1213.69
-1058.12
-952.149
-1020.94
678.326
709.103
757.237
721.007
760.941
819.488
776.16
830.358
896.602
898.891
924.152
942.291
1012.95
1031.21
1040.55
-1439.21
-1431.39
-1609.18
-1063.99
-1003.95
-1235.7
-981.493
-913.978
-1055.92
-892.439
-832.745
-924.41
616.061
635.486
691.606
642.93
667.545
739.201
676.85
710.975
804.238
795.864
817.536
863.997
928.678
960.919
975.983
-511.932
-593.21
-822.266
-490.851
-650.2
-958.668
-679.338
-723.828
-929.073
-728.88
-726.854
-865.894
-722.502
-703.645
-800.514
549.235
556.187
616.922
558.456
563.706
643.502
564.597
563.009
677.143
645.363
652.434
717.12
741.372
745.687
828.778
251.798
19.694
-86.5651
-205.369
-383.452
-568.002
-425.16
-511.603
-663.756
-530.416
-566.195
-683.572
-572.868
-582.611
-672.098
481.579
477.287
536.134
474.903
463.343
537.689
457.311
429.342
526.669
415.831
353.783
475.324
324.968
191.579
266.296
137.885
-46.1539
-94.1233
-101.529
-242.5
-339.511
-280.451
-368.843
-470.017
-391.089
-441.091
-531.53
-453.118
-478.706
-554.838
417.723
404.912
458.408
399.272
376.752
440.281
366.94
328.932
401.234
313.295
250.014
322.468
225.705
130.962
172.818
96.616
-23.3127
-37.7977
-61.238
-165.411
-218.566
-195.871
-273.488
-341.585
-294.914
-347.065
-415.197
-360.821
-393.083
-455.778
360.285
342.29
388.289
334.894
307.552
357.859
296.514
257.377
308.717
242.32
185.962
231.215
166.516
94.8716
120.291
69.9545
-15.6152
-20.5902
-43.1567
-121.722
-152.233
-145.751
-210.073
-255.151
-228.809
-277.02
-327.409
-290.559
-324.401
-374.354
310.173
289.736
328.239
281.689
253.35
292.734
242.448
205.664
242.892
191.987
143.544
173.782
127.813
71.3401
88.0843
52.0373
-12.7134
-14.6239
-33.7207
-94.7698
-113.819
-113.925
-166.811
-197.74
-182.764
-225.353
-262.637
-237.806
-270.199
-309.645
267.12
246.097
278.048
238.066
210.719
241.731
200.542
167.248
195.01
155.102
113.813
135.155
100.845
55.0623
66.7251
39.524
-11.4433
-12.3044
-28.0546
-76.7661
-89.6238
-92.285
-135.984
-158.156
-149.471
-186.386
-214.598
-197.478
-227.135
-258.521
230.341
209.863
236.404
202.212
176.789
201.517
167.553
137.914
159.189
127.231
92.0303
107.752
81.162
43.3185
51.7755
30.5037
-10.7208
-11.2336
-24.198
-63.8895
-73.1657
-76.6524
-113.059
-129.641
-124.47
-156.241
-178.143
-165.969
-192.493
-217.793
198.913
179.611
201.79
172.521
149.389
169.397
141.138
114.952
131.658
105.6
75.5051
87.4831
66.2783
34.5727
40.8948
23.8341
-10.1509
-10.5723
-21.2853
-54.1443
-61.2136
-64.7707
-95.3452
-108.22
-105.029
-132.32
-149.757
-140.789
-164.204
-184.909
171.963
154.157
172.839
147.702
126.94
143.364
119.634
96.5892
109.985
88.4244
62.6159
71.9901
54.7081
27.8968
32.7371
18.8024
-9.59015
-10.0128
-18.9066
-46.4259
-52.0557
-55.3578
-81.2048
-91.5234
-89.4514
-112.892
-127.095
-120.237
-140.751
-157.952
148.727
132.55
148.427
126.745
108.286
121.958
101.85
81.6304
92.568
74.5138
52.33
59.8319
45.5093
22.6981
26.4766
14.9439
-8.99246
-9.44491
-16.8554
-40.0886
-44.7308
-47.6472
-69.6051
-78.0978
-76.6465
-96.7866
-108.591
-103.141
-121.023
-135.52
128.57
114.042
127.658
108.873
92.5802
104.111
86.9321
69.246
78.3195
63.0532
43.9634
50.0799
38.059
18.582
21.5798
11.9451
-8.35056
-8.83602
-15.023
-34.738
-38.6702
-41.1621
-59.8737
-67.0178
-65.8954
-83.197
-93.1789
-88.6839
-104.211
-116.586
110.967
98.0484
109.828
93.4842
79.1918
89.0366
74.2551
58.8431
66.4787
53.4672
37.0444
42.1131
31.9272
15.2759
17.6882
9.58755
-7.67156
-8.1839
-13.3491
-30.1211
-33.5227
-35.5919
-51.5559
-57.676
-56.7063
-71.5533
-80.122
-76.2797
-89.7096
-100.4
95.4873
84.1066
94.3865
80.1091
67.65
76.149
63.3575
49.99
56.4988
45.3398
31.2385
35.4995
26.8089
12.5859
14.5518
7.71516
-6.96695
-7.49737
-11.7991
-26.0688
-29.0604
-30.7265
-44.3355
-49.6581
-48.734
-61.4441
-68.8956
-65.5016
-77.0669
-86.3997
81.7764
71.8465
80.8967
68.3754
57.5936
65.0088
53.8863
42.3634
47.9792
38.3618
26.3005
29.9308
22.4801
10.3704
11.9921
6.21357
-6.24814
-6.78819
-10.351
-22.4627
-25.1293
-26.4176
-37.9837
-42.6736
-41.7268
-52.5624
-59.1188
-56.0287
-65.9323
-74.1622
69.5385
60.9685
69.0076
57.9846
48.7401
55.2769
45.5665
35.7159
40.618
32.2979
22.0468
25.1791
18.7727
8.52356
9.87751
4.99739
-5.52491
-6.06743
-8.99033
-19.2161
-21.6201
-22.556
-32.3298
-36.5103
-35.4959
-44.6734
-50.5047
-47.614
-56.0304
-63.3576
58.5258
51.2276
58.4354
48.6949
40.8647
46.6874
38.1801
29.8545
34.1835
26.9657
18.3361
21.0731
15.5574
6.96472
8.10947
4.00178
-4.80491
-5.34439
-7.70612
-16.2634
-18.4526
-19.0587
-27.2425
-31.0093
-29.8954
-37.5935
-42.8339
-40.063
-47.1407
-53.7269
48.5264
42.4186
48.9453
40.3051
33.7829
39.0264
31.5492
24.6241
28.4932
22.2191
15.0571
17.4798
12.7322
5.63092
6.61222
3.17643
-4.09361
-4.62614
-6.48925
-13.5523
-15.5648
-15.8595
-22.6168
-26.0465
-24.8085
-31.1734
-35.9318
-33.2172
-39.0808
-45.0594
39.3583
34.3686
40.3412
32.6465
27.342
32.1181
25.527
19.8982
23.3999
17.9395
12.1198
14.2939
10.2151
4.47219
5.32646
2.48173
-3.39467
-3.91765
-5.33167
-11.04
-12.9071
-12.9046
-18.367
-21.5221
-20.1395
-25.2905
-29.6566
-26.9458
-31.6983
-37.1811
30.8617
26.9278
32.4567
25.5738
21.4112
25.8162
19.9882
15.5701
18.7828
14.0272
9.44945
11.43
7.93791
3.44771
4.20481
1.88578
-2.71001
-3.22216
-4.22552
-8.68966
-10.4385
-10.1478
-14.4203
-17.3545
-15.8073
-19.8403
-23.8911
-21.1371
-24.8621
-29.9457
22.8967
19.9665
25.1473
18.9611
15.8775
19.9947
14.8244
11.5475
14.5393
10.3959
6.98161
8.81593
5.8423
2.52354
3.20836
1.36257
-2.03992
-2.54119
-3.16283
-6.46912
-8.12356
-7.54901
-10.7143
-13.4735
-11.7423
-14.7331
-18.5346
-15.6951
-18.4587
-23.2268
15.3398
13.3704
18.2874
12.6968
10.6388
14.544
9.93732
7.74559
10.5796
6.96643
4.65709
6.38939
3.87521
1.67113
2.30459
0.891304
-1.38214
-1.87452
-2.13422
-4.3484
-5.93072
-5.0718
-7.19331
-9.81871
-7.88281
-9.88981
-13.5004
-10.5354
-12.3879
-16.9147
8.09094
7.04285
11.7666
6.68503
5.59998
9.36406
5.23283
4.082
6.8201
3.66241
2.41363
4.09132
1.98125
0.87061
1.46648
0.460092
-0.730403
-1.21898
-1.12799
-2.29948
-3.83046
-2.68267
-3.80795
-6.33603
-4.1742
-5.24132
-8.71189
-5.58439
-6.5652
-10.9119
1.41068
1.18598
5.49013
1.11209
0.873777
4.3568
0.786291
0.493483
3.1766
0.396332
0.461486
1.8443
0.412152
-0.0171272
0.682929
-0.08251
-0.232643
-0.563947
-0.288549
-0.462948
-1.79276
-0.522404
-0.701984
-2.9751
-0.761952
-0.942024
-4.09977
-1.00217
-1.19516
-5.13485
1311.63
1355.64
1341.51
-3578.43
-3980.49
-4167.71
-2250.05
-2626.21
-2450.09
1154.23
1168.73
1157.88
-3774.68
-4136.11
-4005.04
-4206.44
-4280.6
-3843.04
1084.28
1094.36
1081.75
-2980.03
-3188.36
-2985.47
-3951.83
-3781.42
-3532.93
1043.7
1051.7
1032.95
-2030.75
-2089.85
-1965.77
-2858.74
-2727.46
-2622.69
980.778
994.961
966.667
-879.4
-872.559
-825.028
-876.466
-962.827
-954.783
-1348.65
-1382.6
-991.537
-1842.28
-1719.47
-1684.22
854.008
893.298
845.877
185.651
443.998
581.799
-766.376
-614.013
-665.495
58.0593
-14.3053
115.793
-594.684
-443.818
-216.195
-869.018
-538.336
-668.095
2073.15
1711.7
1466.75
3801.12
4209.23
4742.32
1138.22
1592.71
1320.26
1111.94
2627.14
-1548.31
-1524.69
-1874.05
-41.5981
-392.702
-879.167
-4501.34
-4673.24
-4774.48
-2558.67
-3040.67
-2872.23
-2743.96
-2416.26
-2973.6
-2047.54
-2273.48
-2452.5
-1799.17
-2050.96
-1871.54
1101.77
1124.4
1096.18
1179.4
1149.3
1113.93
1210.86
1165.64
1196.35
-5232.83
-5363.03
-5344.23
-5458.06
-5456.15
-5313.53
-2901.61
-2933.18
-3593.01
-2399.6
-2683.63
-2666.94
-2580.53
-2656.61
-2369.19
1026.06
1043.24
1022.38
1088.78
1061.22
1037.45
1100.76
1072.38
1097.68
1115.45
1129.79
1116.23
1136.19
1132.46
1127.19
1163.14
1158.77
1164.2
-4018.45
-4075.14
-4025.74
-4745.38
-4703.68
-4621.47
-2412.69
-2627.55
-3053.8
-2210.66
-2418.76
-2292.26
-2612.74
-2527.68
-2295.3
960.262
977.123
955.062
1032.29
996.588
974.749
1027.51
1006.29
1038.57
1063.57
1070.29
1055.74
1088.36
1081.98
1080.83
1093.7
1091.13
1094.9
-2761.49
-2812.31
-2732
-3343.8
-3216.71
-3156.81
877.725
912.882
877.123
971.861
926.374
891.644
964.151
936.492
980.903
1016.65
1027.67
1005.44
1058.81
1046.95
1040.54
1063.75
1060.85
1069.53
-1565.9
-1613.12
-1622.56
-1715.48
-1773.87
-1534.87
-2036.43
-1960.33
-1934.44
741.113
799.432
762.132
867.289
813.06
751.99
878.209
831.459
885.43
937.949
955.629
920.247
999.272
993.749
992.801
1014.75
1012.5
1018.02
400.799
580.059
616.253
325.392
540.987
379.21
557.688
520.773
365.717
1485.72
1447.18
1548.03
1236.59
1267.95
1289.36
2129.42
2254.47
2324.51
1613.86
1705.9
1696.37
-5288.42
-5444.12
-5455.87
-4860.16
-4939.32
-4772.75
-3569.96
-3899.31
-3423.41
-4631.93
-4351.65
-4213.86
-4822.21
-4778.37
-5098.47
1179.39
1171.56
1158.31
1192.82
1176.26
1181.47
1170.41
1174.33
1188.14
1185.79
1183.22
1184.75
1186.23
1186.54
1178.54
1234.21
1210.66
1229.14
1185.15
1187.76