/*--------------------------------*- C++ -*----------------------------------*\
| =========                 |                                                 |
| \\      /  F ield         | OpenFOAM: The Open Source CFD Toolbox           |
|  \\    /   O peration     | Version:  v1912                                 |
|   \\  /    A nd           | Website:  www.openfoam.com                      |
|    \\/     M anipulation  |                                                 |
\*---------------------------------------------------------------------------*/
FoamFile
{
    version     2.0;
    format      ascii;
    class       surfaceScalarField;
    location    "600";
    object      phi;
}
// * * * * * * * * * * * * * * * * * * * * * * * * * * * * * * * * * * * * * //

dimensions      [0 3 -1 0 0 0 0];
oriented        oriented;


internalField   nonuniform List<scalar> 
25162
(
0.000432945
0.916217
0.000531928
0.916601
0.000620363
0.916562
0.000298449
0.916595
0.00037657
0.458339
0.000309673
0.458311
0.000375978
-0.000387208
-0.000474582
0.458291
0.00053384
-0.000592692
0.458239
0.000688272
-0.000791409
0.458219
0.000902206
-0.0010291
0.4582
0.00116454
-0.00129935
0.458202
0.00143196
-0.00156018
0.458232
0.00165963
-0.00173501
0.458292
0.00177641
-0.00177821
0.458369
0.00174459
-0.00167975
0.458425
0.00158427
-0.00147605
0.458454
0.0013572
-0.00122417
0.458456
0.00110291
-0.000981971
0.458464
0.000832708
-0.000785942
0.458435
0.000700535
-0.000577929
0.458451
0.000476618
-0.00179852
0.918585
0.000282024
-0.000418906
-0.00112465
0.918676
-2.50725e-05
0.91575
0.913775
0.00119503
0.915022
0.00188702
0.915909
0.00212944
0.916319
0.000593596
0.917138
0.000992953
0.458091
0.000706616
-0.458204
-0.458193
-0.000859996
0.458
0.001053
-0.458062
-0.00129258
0.45777
0.000744412
0.000839745
-0.228982
-0.000897258
0.228895
0.000984241
-0.00129951
-0.22893
0.228816
0.00141354
-0.00180816
-0.228887
0.228741
0.00195465
-0.00240097
-0.228882
0.228724
0.00255835
-0.00297432
-0.22893
0.228794
0.00310986
-0.00338643
-0.229045
0.228976
0.00345543
-0.00349908
-0.229194
0.229208
0.00348509
-0.00328136
-0.229312
0.229398
0.00319593
-0.00283438
-0.22938
0.229505
0.00270933
-0.00229159
-0.22939
0.229522
0.00215933
-0.00176862
-0.22937
0.229482
0.00165652
-0.458794
-0.00244997
0.460126
0.00111804
0.000104141
0.460813
-0.00171672
-0.4592
-0.00195955
0.917899
0.000746094
0.00189975
-0.00118964
0.917906
0.000264202
0.914297
0.914039
0.00151789
0.913504
0.00405694
0.91337
0.00684209
0.913534
0.0027884
0.914956
0.00623549
-0.458066
0.457912
0.00294226
-0.457838
-0.00290208
0.458513
0.00222688
-0.457378
-0.00227711
0.457189
0.00119673
0.00126944
-0.228525
-0.00148018
0.228365
0.00164085
-0.228311
-0.00221883
0.228086
0.00244432
-0.228121
-0.00321351
0.227841
0.00349332
-0.228056
-0.00441029
0.227742
0.00472499
-0.22824
-0.00562967
0.227978
0.00589179
-0.228721
-0.00651148
0.228595
0.00663678
-0.229343
-0.0067486
0.229405
0.00668582
-0.229863
-0.00627564
0.230067
0.00607132
-0.230124
-0.00532757
0.230404
0.00504716
-0.230149
-0.00420746
0.230428
0.00392797
-0.00286462
-0.23008
0.230696
0.00224832
-0.462618
0.000975376
0.461278
0.000363981
-0.459814
-0.000648855
0.459684
0.000778879
-0.000319836
0.919382
-0.000744267
-0.000418414
0.00134364
0.916243
0.000630306
0.91501
0.914669
0.000526857
0.912977
0.00114232
0.912755
0.00233694
0.912339
0.00312941
0.912059
0.00210509
-0.457177
0.456765
0.00354179
-0.460089
-0.00472083
0.457079
0.00773036
-0.458709
-0.00894172
0.460319
0.00198182
0.00535054
-0.227774
-0.00193006
0.227594
0.00211084
-0.227259
-0.00292486
0.226933
0.0032503
-0.226754
-0.00440977
0.22631
0.00485317
-0.226516
-0.00631232
0.225989
0.00683964
-0.226873
-0.0084421
0.226373
0.00894224
-0.228053
-0.0101488
0.227802
0.0103999
-0.229663
-0.0105873
0.229793
0.0104576
-0.230934
-0.00961874
0.231323
0.00923034
-0.231496
-0.00788662
0.231989
0.00739417
-0.233803
-0.00119207
0.237677
-0.00268288
-0.00281003
-0.23137
0.231307
0.00287327
-0.461065
-0.00436761
0.462046
0.00338691
-0.460267
-0.00236795
0.461097
0.00153744
0.0024367
0.919035
-0.00114831
-0.000941406
0.00177703
0.916902
0.000826015
0.915961
0.915495
0.000157713
0.91282
0.000361434
0.912551
0.000706853
0.911994
0.0012694
0.911034
0.000462112
-0.456514
0.455741
0.00204237
-0.455694
-0.0024345
0.455106
0.00302234
-0.454287
-0.00383046
0.45358
0.0024063
0.00213126
-0.228303
-0.00420364
0.226466
0.00604071
-0.226582
-0.009196
0.228368
0.00740944
-0.224762
-0.00522173
0.224239
0.0057448
-0.223966
-0.00789314
0.22312
0.00873978
-0.224277
-0.0115489
0.223312
0.0125139
-0.226725
-0.0149556
0.226212
0.0154684
-0.230409
-0.015691
0.230903
0.0151967
-0.232968
-0.0121242
0.233889
0.0112028
-0.241296
-0.00116564
0.238034
0.00442778
-0.233197
-0.00650389
0.233723
0.00597795
-0.00440151
-0.23245
0.232897
0.00395428
-0.463459
-0.00515911
0.464792
0.00382703
-0.46186
-0.00290854
0.462644
0.00212536
0.00322057
0.920571
-0.00275348
-0.0020033
0.00178546
0.918338
0.000815513
0.916931
0.916311
-9.48059e-05
0.912914
-9.81313e-05
0.912554
0.000128279
0.911768
0.000284844
0.910594
0.000283333
-0.454876
0.454591
0.000569734
-0.454636
-0.00150772
0.453904
0.00223942
-0.452834
-0.00274341
0.451881
0.00181712
0.00187942
-0.225292
-0.00228937
0.225045
0.00253636
-0.223677
-0.00359067
0.22322
0.00404857
-0.223885
-0.00782202
0.221583
0.0101243
-0.2216
-0.0141627
0.222237
0.0135249
-0.219655
-0.0169597
0.219344
0.0172708
-0.223882
-0.0223537
0.22284
0.0233956
-0.234652
-0.0205538
0.235099
0.0201071
-0.243566
-0.0103101
0.241365
0.0125118
-0.236949
-0.0117664
0.238103
0.0106129
-0.235853
-0.00759926
0.236758
0.00669377
-0.00400606
-0.234678
0.235157
0.00352718
-0.465921
-0.00546617
0.46707
0.00431709
-0.463042
-0.00348555
0.463402
0.00312569
0.00272442
0.922475
-0.00226524
-0.00236376
0.0015117
0.91955
0.000624781
0.917818
0.916936
-0.000475489
0.91339
-0.000824987
0.912904
-0.00102995
0.911972
2.15083e-05
0.91025
-0.000707143
-0.454462
0.454174
0.000309083
-0.452884
-0.00053314
0.452535
0.000882736
-0.451551
-0.00182551
0.451178
0.00104881
0.00114962
-0.224254
-0.00141429
0.22404
0.0016278
-0.222169
-0.00251027
0.221744
0.00293578
-0.218826
-0.00420283
0.218277
0.00475178
-0.215386
-0.00799742
0.213201
0.0101815
-0.213855
-0.0230019
0.108969
0.103506
0.0101583
0.0142235
-0.0179684
-0.108768
0.108148
0.0185885
-0.0149124
-0.24414
0.0286437
-0.0151812
0.122357
0.123233
-0.0217692
-0.244027
0.246844
0.0189529
-0.242659
-0.0117887
0.244158
0.0102897
-0.239377
-0.00741789
0.240257
0.00653861
-0.00438259
-0.236596
0.237169
0.00380971
-0.468225
-0.00481104
0.468868
0.00416819
-0.464217
-0.00314775
0.465035
0.0023299
0.00165945
0.923913
-0.00144521
-0.0016518
0.000789733
0.92042
0.000299043
0.918308
0.917235
-0.000869184
0.914259
-0.00168594
0.91372
-0.00230835
0.912595
-0.001165
0.910809
-0.0017023
-0.454133
0.454137
-0.00116947
-0.452381
0.0012168
0.452283
-0.00111863
-0.449901
0.000959725
0.449619
-0.000292761
-0.000384858
-0.223553
-0.000279504
0.223453
0.000379554
-0.220955
-0.000555995
0.221037
0.0004741
-0.217121
-0.000778777
0.216877
0.00102292
-0.210501
-0.00190113
0.210258
0.00214386
-0.0987707
-0.00167869
0.0989892
0.00146019
-0.0233087
-0.132534
0.134974
0.0208688
-0.0214061
-0.256473
0.259762
0.018117
-0.248906
-0.0113333
0.250482
0.0097578
-0.243205
-0.00631497
0.244081
0.0054382
-0.00339176
-0.238827
0.239296
0.00292323
-0.469911
-0.00311776
0.470779
0.00225073
-0.465704
-0.001631
0.466287
0.00104857
-0.000114404
0.924632
-6.01476e-05
-0.000544679
-0.000291656
0.920597
-0.000192976
0.91821
0.917042
-0.00125285
0.915512
-0.00243164
0.914899
-0.00367434
0.913838
-0.00212
0.911891
-0.00263684
-0.454314
0.454491
-0.00229662
-0.452351
0.00249606
0.452537
-0.00268171
-0.449504
0.00284843
0.449655
-0.00139821
-0.00160069
-0.223637
0.00165861
0.223673
-0.00169438
-0.220934
0.00184344
0.220992
-0.00190153
-0.21682
0.00215731
0.216959
-0.00229609
-0.211021
0.00304444
0.211477
-0.00350047
-0.10251
0.00302497
0.102895
-0.00340958
-0.0105647
-0.147832
0.14862
0.00977655
-0.0100656
-0.267576
0.269109
0.00853221
-0.254326
-0.00514973
0.255125
0.00435068
-0.245941
-0.00252325
0.246309
0.00215517
-0.00122588
-0.24037
0.24061
0.000985313
-0.471923
-0.000625542
0.472889
-0.000340186
-0.466589
0.000795463
0.466789
-0.000996025
-0.00228933
0.924212
0.00155403
0.00115536
-0.00163913
0.919947
-0.000857769
0.917428
0.916184
-0.0015992
0.917111
-0.00330402
0.916604
-0.00493065
0.915464
-0.00306519
0.913609
-0.0035829
-0.454849
0.455207
-0.00342275
-0.452794
0.00382851
0.453264
-0.00429918
-0.449967
0.00473777
0.450532
-0.00247864
-0.00282469
-0.223965
0.00294698
0.224107
-0.00308961
-0.221402
0.00360793
0.221605
-0.00381117
-0.217635
0.00452155
0.217924
-0.00481092
-0.212844
0.00586598
0.213265
-0.0062873
-0.104266
0.00378107
0.104373
-0.0019356
-0.00195252
0.00554442
-0.148011
0.147286
-0.00481865
0.00515082
-0.270018
0.269225
-0.00435762
-0.255788
0.00294371
0.255517
-0.0026729
-0.24678
0.00212088
0.246651
-0.00199171
0.00166195
-0.240829
0.24076
-0.00159284
-0.472921
0.00313148
0.472529
-0.00273903
-0.466661
0.0026936
0.467072
-0.00310491
-0.00471483
0.9226
0.0034259
0.00290105
-0.00310876
0.918341
-0.0015799
0.9159
0.914604
-0.00203242
0.919144
-0.00404732
0.918619
-0.00618673
0.917604
-0.00397957
0.915874
-0.00447253
-0.455739
0.45627
-0.00451013
-0.453798
0.00515743
0.454384
-0.00574354
-0.451441
0.00642617
0.452583
-0.00369484
-0.00387308
-0.224687
0.00409115
0.224921
-0.00432431
-0.222363
0.00512191
0.222659
-0.00541799
-0.218908
0.00641712
0.219274
-0.00678281
-0.214445
0.00794298
0.214828
-0.00832574
-0.104965
0.00459618
0.105018
-0.00231361
-0.00233591
0.0148748
-0.140224
0.139058
-0.0137092
0.0168629
-0.264498
0.262312
-0.0146765
-0.253345
0.00999217
0.252263
-0.00891009
-0.245573
0.00654409
0.244936
-0.00590677
0.00451871
-0.240064
0.239755
-0.00420951
-0.471826
0.00675627
0.470849
-0.00577916
-0.467364
0.00490698
0.466577
-0.00412002
-0.00697106
0.920003
0.00494543
0.00462304
-0.00454416
0.915914
-0.00223744
0.913593
0.912367
-0.00242856
0.921572
-0.00486557
0.921056
-0.00742081
0.920159
-0.00480021
0.918458
-0.00520392
-0.456956
0.45764
-0.00548456
-0.455167
0.00624639
0.455984
-0.00706351
-0.453695
0.00794791
0.454965
-0.00453433
-0.0046835
-0.225725
0.00505503
0.226026
-0.00535655
-0.223669
0.00635683
0.224047
-0.00673441
-0.220496
0.00797109
0.220949
-0.00842431
-0.216072
0.00985685
0.216548
-0.0103329
-0.10537
0.0057096
0.105432
-0.00286845
-0.00290395
0.018418
-0.131006
0.129832
-0.0172446
0.022684
-0.255239
0.252846
-0.0202909
-0.248426
0.0145864
0.247012
-0.0131723
-0.242438
0.00977364
0.241404
-0.00873984
0.00674158
-0.238162
0.237543
-0.00612258
-0.469639
0.00981615
0.468203
-0.00838016
-0.465726
0.00712815
0.464666
-0.00606823
-0.00901993
0.918102
0.00570778
0.00521235
-0.00580621
0.9127
-0.00281618
0.910603
0.909551
-0.00646179
0.928034
-0.0130855
0.92768
-0.0197874
0.926861
-0.00572523
0.925563
-0.0211672
-0.458401
0.45927
-0.00659431
-0.456829
0.00749826
0.45785
-0.00851964
-0.456169
0.00951597
0.45704
-0.00514886
-0.00523798
-0.226998
0.00579508
0.227337
-0.00613461
-0.225263
0.00728779
0.225695
-0.00772041
-0.22245
0.009185
0.222996
-0.00973108
-0.218286
0.0115817
0.218982
-0.00610224
-0.00617574
-0.0531471
0.0035541
0.0531788
-0.00358587
-0.0579083
0.00664638
0.0574228
-0.0129653
0.00680434
0.0170983
-0.122731
0.242168
-0.0307058
0.0168344
-0.122664
-0.246138
0.0233392
0.243723
-0.0209241
-0.242233
0.0161036
0.240759
-0.0146298
-0.238605
0.0112496
0.237679
-0.0103239
0.00801967
-0.235537
0.234894
-0.00737693
-0.46645
0.0118959
0.464693
-0.0101391
-0.463562
0.00883962
0.462362
-0.00763958
-0.0106383
0.915018
0.00712975
0.00659279
-0.00684211
0.908904
-0.00336806
0.907129
0.906182
-0.00289685
0.930931
-0.00587326
0.930656
-0.00900849
0.929996
-0.00612472
0.928971
-0.00629174
-0.462061
0.462961
-0.00702464
-0.460672
0.00800693
0.461726
-0.00906097
-0.458883
0.0102058
0.460141
-0.00569494
-0.00576879
-0.228471
0.00637416
0.228845
-0.00674777
-0.227128
0.00799836
0.227601
-0.00847087
-0.224919
0.0101033
0.22555
-0.0107344
-0.22189
0.0130113
0.222835
-0.00695323
-0.00700299
-0.0546583
0.00886963
0.109709
-0.0545764
-0.00464442
-0.00469979
-0.111494
0.00932965
0.111443
-0.0183754
0.00909627
0.0305967
-0.235891
0.234055
-0.0287613
-0.237713
0.0194825
0.23644
-0.0182098
-0.237391
0.0149688
0.236833
-0.0144108
-0.235164
0.0112078
0.234534
-0.0105768
0.00835561
-0.233051
0.232491
-0.00779566
-0.463192
0.0126609
0.461892
-0.0113612
-0.461146
0.0100876
0.459689
-0.00863039
-0.0100178
0.911153
0.00688037
0.0070027
-0.00749833
0.906385
-0.00366716
0.903298
0.902515
-0.00304398
0.933975
-0.00616896
0.933781
-0.0094512
0.933278
-0.00645092
0.932516
-0.0065461
-0.463919
0.464873
-0.00740491
-0.462806
0.00843055
0.463899
-0.00952352
-0.461418
0.0107029
0.462703
-0.00597867
-0.00600959
-0.229987
0.00668454
0.230368
-0.0070655
-0.229033
0.00832552
0.229501
-0.00879423
-0.22748
0.0104259
0.228109
-0.0110549
-0.225766
0.0133074
0.226678
-0.0142202
-0.112758
0.0175867
0.223856
-0.0168703
-0.111815
-0.225693
0.0228471
0.226274
-0.0234278
-0.23067
0.0229225
0.230034
-0.0222863
-0.232692
0.0197242
0.231748
-0.01878
-0.232688
0.0159747
0.231797
-0.0150838
-0.231734
0.0126151
0.230984
-0.0118655
0.00983618
-0.232117
0.22988
-0.00759897
-0.460782
0.0143555
0.458006
-0.0115793
-0.458188
0.0104057
0.456442
-0.00866028
-0.0103736
0.907387
0.00713432
0.00700499
-0.00753343
0.903545
-0.00386211
0.899626
0.898653
-0.00311553
0.93709
-0.00630719
0.936973
-0.00964306
0.936614
-0.00659443
0.936093
-0.00662505
-0.465846
0.466815
-0.00756266
-0.464993
0.00858954
0.466078
-0.00967431
-0.463979
0.0108346
0.465229
-0.00604599
-0.00603879
-0.231491
0.00673222
0.231854
-0.00709531
-0.230851
0.00827673
0.231279
-0.00870459
-0.22987
0.0101284
0.230403
-0.0106614
-0.228967
0.012418
0.229595
-0.0130459
-0.221753
0.0147108
0.221176
-0.0141341
-0.227571
0.0174218
0.227889
-0.0177395
-0.228863
0.0177602
0.228623
-0.0175199
-0.229611
0.0162736
0.22908
-0.0157421
-0.229569
0.0139786
0.228957
-0.0133668
-0.228997
0.0115573
0.228418
-0.0109776
0.00933989
-0.228209
0.2277
-0.00883146
-0.457596
0.0148015
0.455207
-0.0124123
-0.453845
0.00928875
0.452533
-0.00797654
-0.00958021
0.90214
0.00767192
0.00715569
-0.00512113
0.899086
-0.00391866
0.898424
0.894735
-0.00311774
0.940208
-0.0063026
0.940157
-0.00961114
0.939923
-0.0065742
0.939603
-0.00654739
-0.467769
0.468721
-0.00752568
-0.467143
0.00851961
0.468181
-0.00955796
-0.466442
0.0106554
0.467607
-0.00592701
-0.00589333
-0.232895
0.00656219
0.233223
-0.00689041
-0.232475
0.00793178
0.232842
-0.00829817
-0.231809
0.00946069
0.232216
-0.00986844
-0.23117
0.0111307
0.231607
-0.0115675
-0.219897
0.0122803
0.219607
-0.0119904
-0.22859
0.0140743
0.22876
-0.0142441
-0.228133
0.0143016
0.228018
-0.0141873
-0.227848
0.0135016
0.22753
-0.0131834
-0.227443
0.0120534
0.227027
-0.0116381
-0.226906
0.0103442
0.226471
-0.00990934
0.00863303
-0.226336
0.225922
-0.00821909
-0.451811
0.0139768
0.450361
-0.0125265
-0.451208
0.0111379
0.449872
-0.00980158
-0.00881435
0.895976
0.00839393
0.00658404
-0.00475176
0.895023
-0.00356591
0.897238
0.891169
-0.00306149
0.943269
-0.00617834
0.943274
-0.0093934
0.943138
-0.00641768
0.942974
-0.00634639
-0.469633
0.470544
-0.00732903
-0.469185
0.00826632
0.470153
-0.00923348
-0.468718
0.0102419
0.46977
-0.00567405
-0.00562057
-0.234145
0.00624189
0.234432
-0.00652819
-0.233842
0.00741204
0.234144
-0.0077135
-0.233281
0.00863206
0.233589
-0.00894008
-0.232708
0.00985958
0.233016
-0.0101674
-0.219069
0.0103982
0.218981
-0.0103108
-0.229139
0.0117195
0.229231
-0.0118118
-0.227756
0.011839
0.227686
-0.0117696
-0.226766
0.0113415
0.22656
-0.0111358
-0.225987
0.0103758
0.225697
-0.0100857
-0.225339
0.00914723
0.225013
-0.00882048
0.00782858
-0.224823
0.224489
-0.00749526
-0.449017
0.0129127
0.447776
-0.0116714
-0.448627
0.0104566
0.447434
-0.00926347
-0.0117522
0.891724
0.00791322
0.00809058
-0.00771779
0.890989
-0.000985667
0.890506
0.890183
-0.0029584
0.946228
-0.00595924
0.946275
-0.00903159
0.94621
-0.00615783
0.946155
-0.00605474
-0.471397
0.472253
-0.0070137
-0.471078
0.0078807
0.471961
-0.00876407
-0.470763
0.00967235
0.471696
-0.00533611
-0.00526881
-0.235227
0.00583331
0.235472
-0.00607824
-0.234959
0.00681551
0.235204
-0.00706011
-0.234396
0.00778217
0.234631
-0.00801701
-0.233797
0.00870302
0.234017
-0.00892293
-0.218927
0.00892008
0.218964
-0.00895739
-0.229435
0.00994148
0.229485
-0.00999066
-0.22751
0.00998745
0.227459
-0.00993648
-0.226047
0.0096382
0.225904
-0.0094948
-0.224957
0.00895522
0.224746
-0.00874472
-0.224157
0.00804619
0.223907
-0.00779672
0.00701937
-0.223607
0.223339
-0.00675064
-0.446632
0.0117566
0.445579
-0.0107038
-0.446334
0.00965313
0.445284
-0.00860267
-0.0110171
0.887852
0.00734166
0.00754798
-0.0072702
0.887242
-0.00360861
0.886844
0.886574
-0.00282076
0.949049
-0.00567135
0.949126
-0.00856824
0.949107
-0.005827
0.949117
-0.00570359
-0.473039
0.473831
-0.00661911
-0.4728
0.00741023
0.473596
-0.00820654
-0.472569
0.00901445
0.473386
-0.00495162
-0.00487957
-0.236149
0.00538215
0.236356
-0.00558984
-0.235865
0.00620147
0.236063
-0.00639968
-0.235251
0.00697135
0.235434
-0.00715368
-0.234577
0.00767793
0.234734
-0.00783543
-0.219195
0.00772822
0.219303
-0.00783608
-0.22959
0.00853625
0.229614
-0.00856015
-0.227321
0.0085348
0.227279
-0.0084927
-0.225534
0.00826644
0.225428
-0.00815977
-0.224199
0.00775714
0.224041
-0.00759847
-0.223247
0.0070635
0.223053
-0.0068691
0.00625128
-0.222627
0.222409
-0.00603293
-0.44461
0.0106024
0.443718
-0.00971083
-0.444323
0.0088064
0.443404
-0.00788783
-0.0101896
0.884362
0.00673135
0.00694859
-0.0067541
0.883806
-0.00336176
0.883452
0.883213
-0.00266038
0.951709
-0.00533918
0.951805
-0.00804217
0.95181
-0.00545431
0.951849
-0.00531947
-0.474547
0.475273
-0.00617989
-0.474349
0.00689531
0.475061
-0.00760737
-0.474149
0.00832105
0.47486
-0.00455195
-0.00448059
-0.236929
0.00492312
0.237105
-0.00509892
-0.2366
0.00560713
0.236762
-0.00576874
-0.23592
0.00622732
0.236065
-0.0063719
-0.235134
0.0067808
0.235246
-0.00689286
-0.219689
0.00674863
0.219833
-0.00689238
-0.22966
0.00739578
0.229669
-0.00740415
-0.227161
0.00736395
0.227124
-0.00732686
-0.225145
0.00714427
0.225062
-0.00706066
-0.223621
0.00674713
0.223497
-0.00662331
-0.222533
0.00620209
0.222378
-0.00604727
0.0055481
-0.22183
0.22165
-0.00536867
-0.442897
0.00950512
0.44214
-0.00874784
-0.442567
0.00796919
0.441765
-0.00716783
-0.00933042
0.881237
0.00611945
0.00633577
-0.00620862
0.880684
-0.00309771
0.880341
0.880115
-0.00248697
0.954196
-0.00498262
0.9543
-0.00748411
0.954311
-0.00506111
0.954349
-0.00492359
-0.47592
0.47658
-0.00572087
-0.475732
0.00636406
0.476365
-0.00699777
-0.475523
0.00762607
0.476142
-0.00415639
-0.00408842
-0.23759
0.0044762
0.237739
-0.00462531
-0.237201
0.00504978
0.237334
-0.00518278
-0.236454
0.00555627
0.236571
-0.00567329
-0.235529
0.00599707
0.235608
-0.00607575
-0.220291
0.00592893
0.220449
-0.00608736
-0.229678
0.00645078
0.229676
-0.00644927
-0.227018
0.00639949
0.226984
-0.0063657
-0.224836
0.00621189
0.224768
-0.00614366
-0.223165
0.00589085
0.223065
-0.00579133
-0.22196
0.00545143
0.221834
-0.00532563
0.00491576
-0.221172
0.221023
-0.00476653
-0.441441
0.00848906
0.440794
-0.00784266
-0.441036
0.0071707
0.440337
-0.00647153
-0.00848079
0.878451
0.00553062
0.00573642
-0.00566201
0.877866
-0.0028309
0.87751
0.877284
-0.00230934
0.956505
-0.00461942
0.95661
-0.00692089
0.956613
-0.0046672
0.956628
-0.00453188
-0.477163
0.477761
-0.00526443
-0.476962
0.00584097
0.477525
-0.00640398
-0.476719
0.00695687
0.477258
-0.00377977
-0.00371582
-0.238152
0.00405596
0.238279
-0.00418302
-0.237698
0.00454027
0.237809
-0.00465099
-0.23689
0.00496015
0.236986
-0.00505665
-0.235805
0.00531596
0.235859
-0.00537012
-0.220931
0.00523734
0.221092
-0.00539798
-0.229661
0.0056601
0.229653
-0.00565212
-0.226887
0.00559637
0.226856
-0.00556504
-0.22458
0.00543152
0.224523
-0.00537409
-0.222795
0.00516436
0.222713
-0.00508233
-0.221491
0.00480205
0.221387
-0.00469792
0.00435615
-0.220624
0.220498
-0.00423053
-0.440196
0.00756919
0.43964
-0.0070139
-0.439701
0.00643158
0.43909
-0.00582026
-0.00767075
0.87597
0.00497981
0.00517106
-0.00513552
0.87533
-0.00257226
0.874947
0.874712
-0.00213383
0.958639
-0.0042622
0.958739
-0.0063711
0.958722
-0.00428495
0.958697
-0.00415569
-0.478285
0.478824
-0.00482415
-0.478054
0.00534038
0.478554
-0.00584058
-0.477761
0.00632772
0.478232
-0.00342928
-0.00336873
-0.238631
0.0036687
0.23874
-0.00377762
-0.238114
0.00408093
0.238207
-0.00417423
-0.237251
0.00443415
0.237332
-0.00451494
-0.235993
0.00472441
0.236029
-0.00476058
-0.221568
0.00464893
0.221724
-0.00480476
-0.229622
0.00499252
0.22961
-0.00498019
-0.226765
0.00492092
0.226735
-0.00489158
-0.224363
0.00477321
0.224314
-0.00472372
-0.222487
0.00454574
0.222418
-0.0044767
-0.221101
0.00424128
0.221013
-0.00415369
0.00386474
-0.220161
0.220054
-0.0037578
-0.439125
0.00674662
0.438644
-0.0062664
-0.438534
0.0057593
0.437998
-0.00522314
-0.00691714
0.873763
0.00447508
0.00464933
-0.00464171
0.873055
-0.00232845
0.872633
0.872383
-0.00196539
0.960604
-0.00392065
0.960694
-0.00584866
0.96065
-0.0039233
0.960575
-0.00380311
-0.479295
0.479781
-0.00440961
-0.479025
0.00487202
0.47947
-0.00531706
-0.478672
0.00574735
0.479084
-0.00310723
-0.00305224
-0.239042
0.00331562
0.239136
-0.00340959
-0.238465
0.0036694
0.238545
-0.00374899
-0.237555
0.00397049
0.237623
-0.00403892
-0.236116
0.00420926
0.236139
-0.00423227
-0.222179
0.0041438
0.222326
-0.00429111
-0.229568
0.00442359
0.229553
-0.00440831
-0.22665
0.00434717
0.226622
-0.00431954
-0.224175
0.00421303
0.224131
-0.00416964
-0.222227
0.00401591
0.222167
-0.00395682
-0.220771
0.00375603
0.220696
-0.00368134
0.00343414
-0.219765
0.219673
-0.0033422
-0.438197
0.00601841
0.437778
-0.00560031
-0.437509
0.00515638
0.437037
-0.00468435
-0.00622973
0.871796
0.00402036
0.00417622
-0.00418837
0.871014
-0.00210372
0.870549
0.87028
-0.00180711
0.962412
-0.00360072
0.962488
-0.00536177
0.962411
-0.00358805
0.962279
-0.00347764
-0.480205
0.480644
-0.00402678
-0.47989
0.00444167
0.480287
-0.00483866
-0.47947
0.00522008
0.479833
-0.00281545
-0.00276744
-0.239399
0.00299771
0.23948
-0.00307934
-0.238766
0.00330398
0.238835
-0.00337269
-0.237813
0.00356371
0.237872
-0.00362224
-0.236193
0.00376154
0.236207
-0.003775
-0.222753
0.00370913
0.22289
-0.00384623
-0.229504
0.00393733
0.229486
-0.00392001
-0.226542
0.00385809
0.226516
-0.00383198
-0.224009
0.00373506
0.22397
-0.00369649
-0.222002
0.0035618
0.221951
-0.0035105
-0.220488
0.00333699
0.220424
-0.00327253
0.0030588
-0.219424
0.219344
-0.00297905
-0.437387
0.00537901
0.437021
-0.00501254
-0.436607
0.00462174
0.436189
-0.00420434
-0.00561139
0.87004
0.00361474
0.00375315
-0.0037785
0.869181
-0.00189989
0.86867
0.86838
-0.00166163
0.964073
-0.0033074
0.964133
-0.00491722
0.964021
-0.00328267
0.963828
-0.00318337
-0.481026
0.481423
-0.0036791
-0.480661
0.00405239
0.481017
-0.0044078
-0.480174
0.00474742
0.480495
-0.00255552
-0.002513
-0.239709
0.00271587
0.23978
-0.00278736
-0.239028
0.00298358
0.239088
-0.00304359
-0.238035
0.00321015
0.238085
-0.0032607
-0.236236
0.00337527
0.236243
-0.00338187
-0.223286
0.00333673
0.223412
-0.00346321
-0.229432
0.00352317
0.229413
-0.00350444
-0.226439
0.00344243
0.226415
-0.00341766
-0.223861
0.00332865
0.223826
-0.00329396
-0.221807
0.00317446
0.221762
-0.00312936
-0.220243
0.00297759
0.220187
-0.00292133
0.00273465
-0.219127
0.219058
-0.00266484
-0.436677
0.00482192
0.436353
-0.0044985
-0.435808
0.00415241
0.435437
-0.00378147
-0.00506358
0.868466
0.00325835
0.00337941
-0.00341393
0.867531
-0.00171812
0.866974
0.866662
-0.00153027
0.965604
-0.00304307
0.965646
-0.00451795
0.965496
-0.00300892
0.96524
-0.00292113
-0.481768
0.482128
-0.00336811
-0.481353
0.0037053
0.481672
-0.00402497
-0.480798
0.00432897
0.481084
-0.00232661
-0.00228833
-0.239981
0.00246861
0.240044
-0.00253175
-0.239257
0.00270494
0.23931
-0.00275795
-0.238227
0.00290469
0.238271
-0.00294873
-0.236255
0.0030435
0.236256
-0.00304527
-0.223776
0.00301847
0.223892
-0.00313461
-0.229355
0.00317108
0.229336
-0.00315136
-0.226342
0.00308968
0.226319
-0.0030661
-0.223727
0.00298368
0.223695
-0.00295216
-0.221634
0.00284495
0.221594
-0.00280485
-0.220028
0.00267061
0.219979
-0.00262098
0.00245631
-0.218867
0.218805
-0.00239468
-0.436049
0.00434034
0.435761
-0.00405286
-0.435097
0.00374437
0.434765
-0.00341286
-0.00458412
0.867048
0.00294842
0.003053
-0.00309385
0.866041
-0.00155823
0.865439
0.865103
-0.00141382
0.967017
-0.00280911
0.967041
-0.00416549
0.966852
-0.00276745
0.966533
-0.00269125
-0.482442
0.482769
-0.00309419
-0.481976
0.00340031
0.482265
-0.00368948
-0.481354
0.00396333
0.481611
-0.00212646
-0.00209338
-0.240223
0.00225309
0.240279
-0.00230938
-0.23946
0.00246381
0.239507
-0.00251112
-0.238395
0.00264165
0.238433
-0.00268034
-0.236256
0.00275919
0.236255
-0.00275761
-0.224226
0.00274671
0.224332
-0.0028531
-0.229276
0.00287181
0.229255
-0.00285143
-0.226249
0.00279032
0.226227
-0.00276781
-0.223605
0.00269096
0.223576
-0.00266206
-0.22148
0.00256491
0.221444
-0.00252888
-0.219838
0.00240892
0.219794
-0.00236471
0.00221809
-0.218636
0.218581
-0.00216322
-0.43549
0.0039278
0.435232
-0.00367029
-0.43446
0.00339335
0.434162
-0.00309513
-0.00417004
0.865765
0.00268225
0.00277131
-0.00281677
0.864687
-0.00141961
0.864042
0.863684
-0.0013127
0.96833
-0.0026062
0.968335
-0.0038604
0.968106
-0.00255843
0.967724
-0.00249344
-0.483057
0.483356
-0.00285727
-0.48254
0.003137
0.482803
-0.00340042
-0.481855
0.00364899
0.482087
-0.00195435
-0.00192665
-0.240439
0.00206818
0.240489
-0.00211887
-0.239642
0.00225808
0.239685
-0.00230076
-0.238542
0.00241804
0.238577
-0.00245233
-0.236246
0.00251841
0.236243
-0.00251461
-0.224638
0.00251723
0.224735
-0.00261468
-0.229193
0.00262002
0.229173
-0.0025992
-0.226161
0.00253878
0.226139
-0.00251719
-0.223493
0.00244503
0.223466
-0.00241829
-0.221341
0.00232939
0.221309
-0.00229667
-0.219668
0.00218833
0.219629
-0.00214853
0.00201668
-0.218429
0.21838
-0.00196736
-0.434987
0.00357881
0.434755
-0.00334615
-0.433886
0.00309549
0.433616
-0.00282517
-0.00381801
0.864594
0.00245703
0.00253184
-0.00258081
0.86345
-0.00130142
0.862762
0.862382
-0.00122685
0.969557
-0.00243403
0.969542
-0.00360194
0.969274
-0.00238059
0.96883
-0.00232727
-0.483622
0.483897
-0.00265562
-0.483055
0.00291313
0.483297
-0.003155
-0.482308
0.00338255
0.48252
-0.00180847
-0.00178586
-0.240634
0.00191172
0.24068
-0.00195786
-0.239807
0.00208475
0.239846
-0.00212369
-0.238674
0.00223013
0.238705
-0.00226081
-0.236229
0.00231668
0.236224
-0.0023115
-0.225015
0.00232549
0.225105
-0.00241484
-0.22911
0.00241017
0.229089
-0.0023891
-0.226076
0.0023294
0.226055
-0.00230861
-0.223388
0.00224036
0.223363
-0.00221541
-0.221215
0.00213323
0.221185
-0.00210322
-0.219515
0.00200431
0.219479
-0.00196808
0.00184827
-0.218243
0.218198
-0.00180352
-0.434533
0.00328695
0.434321
-0.00307477
-0.433365
0.00284586
0.433117
-0.00259874
-0.00352404
0.863517
0.00227028
0.00233109
-0.00238351
0.86231
-0.00120254
0.861581
0.86118
-0.00115616
0.970713
-0.00229249
0.970678
-0.00338955
0.970371
-0.0022339
0.969866
-0.00219164
-0.484144
0.484399
-0.00248931
-0.483529
0.00272855
0.483753
-0.00295278
-0.482723
0.00316319
0.482918
-0.00168841
-0.00167021
-0.240813
0.00178303
0.240855
-0.00182554
-0.239958
0.00194265
0.239994
-0.00197858
-0.238792
0.00207629
0.23882
-0.00210404
-0.236207
0.00215187
0.236201
-0.00214592
-0.225362
0.00216939
0.225444
-0.00225152
-0.229025
0.00223947
0.229004
-0.00221826
-0.225994
0.00215921
0.225973
-0.00213909
-0.223291
0.00207404
0.223267
-0.00205053
-0.221098
0.00197374
0.22107
-0.00194588
-0.219374
0.00185449
0.219341
-0.00182113
0.00171094
-0.218073
0.218032
-0.00166987
-0.434117
0.00304902
0.433922
-0.00285342
-0.432886
0.00264217
0.432658
-0.00241396
-0.00328505
0.862515
0.00211931
0.00216728
-0.00222304
0.861248
-0.001122
0.86048
0.860058
-0.00110121
0.971814
-0.00218213
0.971759
-0.00322457
0.971414
-0.00211863
0.970848
-0.00208783
-0.484632
0.484871
-0.00235722
-0.48397
0.00258173
0.48418
-0.00279185
-0.483107
0.00298859
0.483289
-0.00159289
-0.00157818
-0.240978
0.00168061
0.241018
-0.00172028
-0.240098
0.00182976
0.240131
-0.00186335
-0.238899
0.00195415
0.238925
-0.00197955
-0.236182
0.00202116
0.236176
-0.00201493
-0.22568
0.00204624
0.225756
-0.00212198
-0.22894
0.0021046
0.228919
-0.00208334
-0.225914
0.00202485
0.225894
-0.00200525
-0.223199
0.00194273
0.223176
-0.00192034
-0.220989
0.00184778
0.220963
-0.0018216
-0.219245
0.00173606
0.219213
-0.00170493
0.00160229
-0.217916
0.217878
-0.00156413
-0.433733
0.00286091
0.43355
-0.00267844
-0.432443
0.00248122
0.43223
-0.00226811
-0.00309993
0.861572
0.00200389
0.00203913
-0.00209837
0.860246
-0.00105959
0.859441
0.858998
-0.00105942
0.972874
-0.00209955
0.972799
-0.00309973
0.972414
-0.00203075
0.971789
-0.00201011
-0.485092
0.48532
-0.00225868
-0.484384
0.00247176
0.484583
-0.00267093
-0.483467
0.00285717
0.483639
-0.00152018
-0.00150959
-0.241133
0.00160246
0.241171
-0.00163997
-0.240229
0.00174365
0.240261
-0.00177544
-0.238998
0.00186091
0.239022
-0.00188448
-0.236158
0.00192145
0.236151
-0.00191529
-0.225974
0.00195308
0.226045
-0.0020232
-0.228855
0.00200212
0.228834
-0.00198089
-0.225836
0.00192281
0.225817
-0.00190361
-0.22311
0.00184299
0.223089
-0.00182146
-0.220887
0.00175208
0.220862
-0.00172716
-0.219123
0.00164605
0.219093
-0.00161661
0.0015197
-0.217769
0.217733
-0.00148378
-0.433373
0.0027197
0.433201
-0.00254723
-0.432028
0.0023608
0.431826
-0.00215936
-0.00296057
0.860673
0.0019179
0.00194189
-0.00200526
0.859291
-0.00101224
0.858448
0.857986
-0.00103781
0.973911
-0.00205345
0.973815
-0.00303437
0.973395
-0.00198379
0.972719
-0.00197984
-0.485535
0.485745
-0.00219319
-0.484778
0.0023976
0.484969
-0.00258895
-0.483808
0.00276778
0.483974
-0.00146964
-0.00146378
-0.241281
0.00154768
0.241317
-0.00158359
-0.240354
0.00168301
0.240385
-0.0017135
-0.23909
0.00179506
0.239112
-0.00181728
-0.236133
0.00185108
0.236128