/*--------------------------------*- C++ -*----------------------------------*\
| =========                 |                                                 |
| \\      /  F ield         | OpenFOAM: The Open Source CFD Toolbox           |
|  \\    /   O peration     | Version:  v1912                                 |
|   \\  /    A nd           | Website:  www.openfoam.com                      |
|    \\/     M anipulation  |                                                 |
\*---------------------------------------------------------------------------*/
FoamFile
{
    version     2.0;
    format      ascii;
    class       volVectorField;
    location    "600";
    object      U;
}
// * * * * * * * * * * * * * * * * * * * * * * * * * * * * * * * * * * * * * //

dimensions      [0 1 -1 0 0 0 0];


internalField   nonuniform List<vector> 
12556
(
(99.9993 0.00195905 -1.51232e-19)
(99.999 0.00676605 5.03384e-24)
(99.9981 0.0147363 -1.60658e-19)
(99.9966 0.0271925 -1.57426e-19)
(100 0.021249 6.4916e-20)
(99.9984 0.0364685 0)
(99.9975 0.0592746 0)
(99.9967 0.0917203 -1.125e-19)
(99.9957 0.135311 1.31831e-20)
(99.9949 0.189783 -8.72177e-20)
(99.9948 0.249916 1.05484e-20)
(99.996 0.30444 0)
(99.9984 0.338587 0)
(100.001 0.341585 1.43365e-20)
(100.004 0.314046 -2.39043e-20)
(100.005 0.266371 1.50368e-20)
(100.005 0.211715 0)
(100.004 0.159896 2.53951e-20)
(100.004 0.115042 1.04536e-19)
(100.002 0.0824724 -2.95932e-20)
(100.009 0.0943958 -6.1847e-19)
(100.006 0.0598323 0)
(100.004 0.0322831 -7.92298e-20)
(100.004 0.010346 -5.24835e-19)
(99.9928 0.00513636 6.36942e-19)
(99.9893 0.0179123 1.69676e-19)
(99.9811 0.0395916 1.18442e-18)
(99.9676 0.0738362 -4.99575e-19)
(99.9698 0.102406 7.12086e-20)
(99.9492 0.174427 -7.28665e-22)
(99.9227 0.284501 0)
(99.9115 0.387389 -5.02427e-20)
(99.8807 0.577076 -4.67449e-20)
(99.8539 0.820251 -8.22035e-20)
(99.8435 1.09685 -3.41989e-20)
(99.8642 1.3581 -4.50755e-20)
(99.9207 1.53303 -9.22953e-21)
(99.9963 1.56384 4.25289e-23)
(100.062 1.44677 -3.57426e-21)
(100.1 1.23038 3.41437e-20)
(100.109 0.978343 -6.78216e-20)
(100.098 0.743756 0)
(100.112 0.565706 -4.82701e-19)
(100.081 0.392496 9.35752e-19)
(100.082 0.270213 6.30879e-19)
(100.06 0.17103 1.32604e-18)
(100.045 0.092007 -1.33105e-18)
(100.039 0.0294138 6.29347e-19)
(99.9806 0.00605553 -6.37424e-19)
(99.9707 0.0219442 -1.36477e-18)
(99.949 0.0512722 -3.05526e-18)
(99.913 0.0997179 3.99966e-18)
(99.8961 0.159681 -1.45628e-19)
(99.8341 0.279732 -1.38589e-19)
(99.7501 0.465484 -2.34703e-19)
(99.698 0.675815 0)
(99.5919 1.03274 1.85954e-19)
(99.4965 1.50555 4.02203e-20)
(99.4601 2.06994 -1.01957e-19)
(99.5481 2.62571 -1.07014e-21)
(99.7824 3.00913 1.39112e-20)
(100.088 3.07856 -2.54041e-22)
(100.341 2.82435 0)
(100.469 2.36556 2.60604e-20)
(100.48 1.84431 -6.99357e-20)
(100.422 1.3667 -1.67449e-19)
(100.375 0.971111 -2.91695e-18)
(100.278 0.662927 -6.48839e-19)
(100.229 0.412127 -6.49191e-19)
(100.167 0.259147 1.49989e-18)
(100.127 0.138667 -1.68806e-19)
(100.109 0.0441436 0)
(99.9681 0.00335577 -3.20499e-19)
(99.9491 0.0147479 2.39907e-18)
(99.909 0.042656 -6.86414e-19)
(99.8421 0.0948798 0)
(99.7931 0.176672 0)
(99.6708 0.327188 -1.12513e-18)
(99.5001 0.568791 -2.19274e-18)
(99.3572 0.876598 2.08458e-19)
(99.1127 1.38763 9.94294e-20)
(98.8675 2.10491 4.72293e-20)
(98.7455 3.00985 -1.32886e-19)
(98.9035 4.00093 3.71125e-20)
(99.4639 4.74556 3.72003e-20)
(100.239 4.86297 0)
(100.843 4.3471 0)
(101.105 3.51661 -1.19617e-19)
(101.099 2.65887 0)
(100.945 1.91005 0)
(100.78 1.29214 1.05221e-18)
(100.576 0.862406 -8.20904e-19)
(100.437 0.501289 -1.66082e-18)
(100.317 0.310368 8.55823e-19)
(100.241 0.164127 -1.72106e-19)
(100.207 0.0519297 0)
(99.9638 -0.00377676 0)
(99.9345 -0.00620709 0)
(99.8734 0.00894628 3.45806e-19)
(99.7707 0.0515746 5.14799e-19)
(99.6782 0.142371 3.75506e-19)
(99.4811 0.298242 0)
(99.1998 0.558912 0)
(98.9231 0.927623 0)
(98.465 1.5553 1.75385e-18)
(97.9693 2.47605 2.34748e-19)
(97.5683 3.81806 0)
(97.6785 5.56393 2.13958e-19)
(98.8322 7.06748 2.56907e-20)
(100.598 7.23199 -2.09926e-20)
(101.804 6.13454 5.62112e-19)
(102.177 4.64237 1.65998e-18)
(102.027 3.32374 3.24043e-19)
(101.68 2.305 -4.1246e-21)
(101.313 1.47621 -1.74806e-18)
(100.954 0.956179 1.46594e-19)
(100.679 0.517943 0)
(100.487 0.31254 1.75517e-19)
(100.368 0.162093 -1.32026e-19)
(100.313 0.0507577 -4.10535e-20)
(99.9772 -0.0156217 0)
(99.9373 -0.041799 0)
(99.8552 -0.0516727 -6.94108e-19)
(99.7162 -0.0337693 1.39129e-18)
(99.5734 0.049365 0)
(99.2973 0.18094 0)
(98.895 0.417245 4.56138e-19)
(98.4532 0.791863 1.76307e-19)
(97.738 1.41214 2.53064e-19)
(96.8244 2.41044 -1.24873e-18)
(95.757 4.17406 1.51539e-18)
(95.2385 7.21279 -1.43229e-18)
(97.4365 10.7386 2.42662e-20)
(101.648 10.7672 0)
(103.732 8.14812 2.18902e-18)
(103.897 5.59252 0)
(103.312 3.7105 -2.8837e-19)
(102.588 2.4255 5.0136e-19)
(101.933 1.46335 4.47865e-19)
(101.373 0.909867 -3.0281e-19)
(100.926 0.445782 0)
(100.653 0.25701 0)
(100.487 0.128368 -4.45383e-20)
(100.407 0.0393307 -1.25497e-19)
(100.017 -0.0318758 1.58324e-19)
(99.9678 -0.0910825 -1.70441e-19)
(99.8673 -0.137512 3.47817e-19)
(99.6962 -0.158871 -1.25645e-18)
(99.5027 -0.102118 1.30911e-21)
(99.1545 -0.0250683 4.6434e-19)
(98.6418 0.139402 -2.36109e-18)
(98.0366 0.448578 -2.49875e-19)
(97.0829 0.922999 5.9519e-19)
(95.662 1.73222 4.01793e-19)
(93.4753 3.29674 1.12178e-18)
(90.1493 7.38795 2.77193e-18)
(92.9586 17.457 3.18739e-19)
(105.553 16.2952 3.45446e-18)
(107.423 9.85481 0)
(106.386 5.89211 8.66997e-19)
(104.91 3.56458 -4.73331e-19)
(103.6 2.1708 -7.76461e-20)
(102.55 1.19497 0)
(101.78 0.699699 1.66675e-19)
(101.138 0.278461 1.14883e-19)
(100.785 0.141295 -1.38501e-19)
(100.573 0.0620256 -1.58298e-19)
(100.471 0.01742 3.56491e-19)
(100.092 -0.0516689 -1.58238e-19)
(100.035 -0.151311 1.70284e-19)
(99.921 -0.243306 -2.15994e-19)
(99.7263 -0.315305 -1.42905e-19)
(99.4887 -0.301717 2.69444e-19)
(99.0866 -0.303316 1.56375e-19)
(98.4941 -0.249289 1.22485e-18)
(97.7705 -0.0715172 2.26831e-19)
(96.6704 0.139863 0)
(94.9482 0.462545 1.64803e-19)
(92.1454 0.836805 -9.35913e-19)
(86.6816 0.931946 9.90994e-19)
(117.392 20.7958 9.24011e-19)
(113.127 9.10011 -1.94556e-19)
(109.311 4.79911 1.43928e-19)
(106.529 2.63942 -2.30862e-19)
(104.539 1.45908 7.06737e-20)
(103.052 0.660985 -9.12602e-20)
(102.1 0.325388 3.76673e-19)
(101.275 0.024114 -1.40727e-19)
(100.855 -0.0286321 1.17365e-19)
(100.606 -0.0334641 -2.29316e-20)
(100.485 -0.0138223 -3.36088e-19)
(100.207 -0.0736986 -7.62862e-20)
(100.146 -0.21842 -6.1209e-20)
(100.024 -0.36146 -2.09537e-20)
(99.817 -0.490966 6.25068e-20)
(99.5467 -0.532069 -4.94031e-22)
(99.1158 -0.625285 0)
(98.4857 -0.699728 2.0029e-19)
(97.7118 -0.684227 -1.31791e-21)
(96.5955 -0.753414 4.16812e-21)
(94.9162 -0.898137 -2.09569e-19)
(92.6221 -1.37882 -9.28464e-20)
(90.3337 -2.90851 -3.29969e-20)
(130.441 9.35667 0)
(117.78 4.10611 6.56118e-19)
(111.534 1.99943 7.21424e-19)
(107.686 0.904174 3.40021e-20)
(105.167 0.324835 -2.10655e-19)
(103.327 -0.0922245 -9.63094e-20)
(102.262 -0.183352 2.13452e-19)
(101.3 -0.294184 4.85267e-20)
(100.838 -0.238109 0)
(100.565 -0.150168 1.813e-19)
(100.431 -0.0518601 1.67895e-19)
(100.365 -0.0964283 1.50217e-19)
(100.303 -0.287693 2.35109e-21)
(100.181 -0.483268 0)
(99.9727 -0.672326 8.2479e-21)
(99.6835 -0.773834 -3.6882e-20)
(99.2497 -0.960477 3.81941e-20)
(98.6224 -1.16175 0)
(97.8554 -1.30153 -4.02529e-21)
(96.8079 -1.59399 1.577e-19)
(95.2892 -2.00763 1.83699e-19)
(93.4368 -2.64446 0)
(91.8661 -3.45607 -2.00237e-20)
(130.047 -5.15966 -9.42377e-19)
(118.362 -2.57604 0)
(111.989 -1.65862 1.86151e-19)
(107.94 -1.268 -6.34461e-20)
(105.279 -1.04464 -4.06329e-19)
(103.298 -0.95488 8.26031e-19)
(102.212 -0.763556 0)
(101.189 -0.641145 -4.76437e-20)
(100.717 -0.465346 -2.01026e-19)
(100.438 -0.276606 2.24868e-20)
(100.299 -0.0930557 0)
(100.567 -0.118354 -7.39067e-20)
(100.507 -0.354491 7.95178e-20)
(100.391 -0.600271 7.75919e-20)
(100.192 -0.846428 -7.12549e-20)
(99.8979 -1.0081 -3.63134e-20)
(99.4833 -1.2811 0)
(98.8904 -1.59621 -7.44556e-20)
(98.1667 -1.86988 5.7008e-20)
(97.2152 -2.32887 -2.81717e-19)
(95.8242 -2.90146 -1.6267e-19)
(94.1176 -3.56855 -4.15124e-19)
(92.6129 -4.13345 6.24046e-20)
(123.108 -13.9211 1.06198e-18)
(115.557 -7.88039 0)
(110.67 -4.92441 -1.37026e-18)
(107.225 -3.32064 0)
(104.829 -2.3754 -3.9602e-19)
(102.948 -1.78958 0)
(101.944 -1.33426 -5.09455e-19)
(100.941 -0.977598 -5.98088e-19)
(100.49 -0.686268 4.55961e-20)
(100.222 -0.400106 -1.45919e-19)
(100.087 -0.133391 2.00426e-20)
(100.81 -0.138101 2.71596e-19)
(100.755 -0.41442 0)
(100.649 -0.704752 -7.73586e-20)
(100.469 -1.00104 0)
(100.182 -1.21893 0)
(99.8041 -1.56548 -1.05149e-19)
(99.2691 -1.97527 -2.58086e-20)
(98.6114 -2.36065 9.07519e-22)
(97.7665 -2.95398 7.15379e-20)
(96.4759 -3.67278 1.58951e-19)
(94.7811 -4.4691 -3.43951e-19)
(93.1525 -5.08728 2.9278e-22)
(115.037 -17.5645 -1.42179e-18)
(111.259 -10.7886 3.10396e-19)
(108.273 -7.07143 -1.09861e-18)
(105.811 -4.84166 -5.19276e-20)
(103.93 -3.44008 -4.5643e-20)
(102.33 -2.48185 4.31529e-20)
(101.487 -1.8265 -6.20981e-19)
(100.571 -1.26994 3.54086e-19)
(100.167 -0.87957 0)
(99.9237 -0.509369 1.68369e-19)
(99.7997 -0.169233 0)
(101.088 -0.155123 -2.70237e-19)
(101.04 -0.466204 4.53102e-18)
(100.948 -0.794112 -9.08153e-18)
(100.793 -1.13294 -2.42312e-20)
(100.525 -1.39407 -3.18024e-20)
(100.198 -1.79715 0)
(99.7376 -2.2773 2.65669e-19)
(99.1616 -2.75331 -1.66598e-21)
(98.4456 -3.4567 -3.7937e-21)
(97.2939 -4.33753 -7.28073e-20)
(95.6786 -5.41732 1.87244e-19)
(93.9625 -6.34736 0)
(104.3 -26.8092 -3.86511e-19)
(107.242 -16.7301 0)
(106.922 -11.4401 2.86685e-20)
(105.58 -7.97072 0)
(104.09 -5.67699 9.10289e-20)
(102.777 -4.12313 1.21946e-18)
(101.542 -2.96439 -1.29775e-18)
(100.895 -2.19441 0)
(100.109 -1.49452 0)
(99.7663 -1.03051 5.27057e-19)
(99.5574 -0.596245 9.75939e-20)
(99.4493 -0.197918 -2.97042e-19)
(101.394 -0.167909 0)
(101.354 -0.505027 0)
(101.278 -0.860223 0)
(101.151 -1.23044 0)
(100.905 -1.53307 0)
(100.63 -1.97716 0)
(100.25 -2.50843 0)
(99.7748 -3.04566 0)
(99.2116 -3.82166 0)
(98.2805 -4.83462 0)
(97.0188 -6.25243 0)
(95.5387 -8.4323 0)
(97.2408 -17.1296 0)
(102.481 -13.784 0)
(103.503 -10.5169 1.07984e-18)
(103.178 -7.87717 0)
(102.402 -5.8952 0)
(101.567 -4.42515 -9.87053e-19)
(100.687 -3.22615 -1.76348e-18)
(100.233 -2.4238 -6.50147e-19)
(99.5891 -1.64287 -8.43384e-19)
(99.3134 -1.1326 8.49134e-19)
(99.1417 -0.656581 0)
(99.0516 -0.21803 7.98577e-19)
(101.72 -0.176319 0)
(101.689 -0.530547 0)
(101.631 -0.902546 0)
(101.533 -1.29102 0)
(101.318 -1.61749 0)
(101.102 -2.08026 0)
(100.809 -2.62838 0)
(100.44 -3.19103 0)
(100.045 -3.9717 0)
(99.4032 -4.98265 0)
(98.7196 -6.38363 0)
(97.8555 -8.3552 0)
(98.6218 -10.84 -5.5168e-29)
(100.496 -10.5174 0)
(101.318 -8.94281 0)
(101.334 -7.20859 0)
(100.95 -5.68043 0)
(100.442 -4.42357 -1.97018e-19)
(99.8523 -3.30017 0)
(99.5544 -2.52231 0)
(99.0458 -1.71675 -1.57398e-18)
(98.8327 -1.18603 7.92884e-19)
(98.6963 -0.690137 3.33198e-20)
(98.6241 -0.229362 -5.51715e-19)
(102.058 -0.180392 0)
(102.035 -0.542866 0)
(101.994 -0.921591 0)
(101.925 -1.31694 0)
(101.741 -1.65437 0)
(101.579 -2.11677 0)
(101.366 -2.65647 0)
(101.093 -3.20942 0)
(100.831 -3.94137 0)
(100.428 -4.82422 0)
(100.055 -5.91007 0)
(96.6325 -6.75355 0)
(99.3787 -8.2522 4.51503e-33)
(99.8071 -8.20692 0)
(100.071 -7.43969 0)
(100.035 -6.3507 0)
(99.7935 -5.23147 0)
(99.4688 -4.21795 0)
(99.088 -3.23547 -5.63538e-19)
(98.8994 -2.51493 8.64571e-19)
(98.5054 -1.72589 4.91516e-19)
(98.3456 -1.19735 8.55834e-19)
(98.2396 -0.699937 -9.75792e-19)
(98.1834 -0.232657 0)
(102.4 -0.180511 0)
(102.385 -0.543198 0)
(102.359 -0.919739 0)
(102.314 -1.31189 0)
(102.159 -1.64938 0)
(102.044 -2.09599 0)
(101.895 -2.6068 0)
(101.698 -3.12367 0)
(101.526 -3.76877 0)
(101.246 -4.48883 0)
(100.972 -5.26953 0)
(95.8864 -5.56613 0)
(99.7887 -6.63846 9.64988e-38)
(99.5201 -6.62664 0)
(99.3515 -6.20285 0)
(99.1533 -5.50468 0)
(98.9136 -4.70433 0)
(98.673 -3.91401 0)
(98.4094 -3.0725 0)
(98.2925 -2.42882 0)
(97.9874 -1.68427 1.70317e-18)
(97.869 -1.17467 -1.62675e-18)
(97.787 -0.689702 -1.10481e-19)
(97.7437 -0.229406 1.03913e-19)
(102.739 -0.177259 0)
(102.731 -0.53334 0)
(102.717 -0.900355 0)
(102.692 -1.2811 0)
(102.562 -1.60954 0)
(102.483 -2.02986 0)
(102.38 -2.49945 0)
(102.235 -2.96569 0)
(102.108 -3.51309 0)
(101.866 -4.08184 0)
(101.614 -4.65064 0)
(95.5712 -4.70571 0)
(100.01 -5.50572 0)
(99.3668 -5.48987 0)
(98.9057 -5.22448 0)
(98.547 -4.75466 0)
(98.2546 -4.17412 0)
(98.0305 -3.55978 0)
(97.8227 -2.8522 0)
(97.7446 -2.28869 0)
(97.503 -1.60474 0)
(97.4139 -1.12486 0)
(97.3501 -0.664401 0)
(97.3165 -0.221539 0)
(103.068 -0.171307 0)
(103.066 -0.515353 0)
(103.061 -0.867259 0)
(103.051 -1.23056 0)
(102.941 -1.54339 0)
(102.887 -1.93147 0)
(102.813 -2.35456 0)
(102.698 -2.76605 0)
(102.583 -3.22252 0)
(102.336 -3.66953 0)
(102.069 -4.09366 0)
(95.5381 -4.04931 0)
(100.129 -4.65448 0)
(99.2642 -4.63091 0)
(98.6068 -4.44573 0)
(98.1159 -4.11207 0)
(97.7561 -3.67999 0)
(97.5147 -3.1985 0)
(97.3236 -2.60737 0)
(97.2602 -2.11978 0)
(97.0589 -1.50189 0)
(96.988 -1.05769 0)
(96.9362 -0.628018 0)
(96.9099 -0.209491 0)
(103.384 -0.163357 0)
(103.386 -0.491374 0)
(103.388 -0.824321 0)
(103.386 -1.16623 0)
(103.293 -1.4593 0)
(103.253 -1.81284 0)
(103.194 -2.18922 0)
(103.092 -2.54813 0)
(102.968 -2.92681 0)
(102.697 -3.28081 0)
(102.395 -3.60451 0)
(95.6718 -3.52601 0)
(100.191 -3.98684 0)
(99.184 -3.957 0)
(98.3916 -3.81648 0)
(97.7973 -3.56739 0)
(97.3718 -3.23641 0)
(97.0984 -2.85361 0)
(96.9009 -2.35917 0)
(96.836 -1.93925 0)
(96.6573 -1.3869 0)
(96.5957 -0.980915 0)
(96.5506 -0.585169 0)
(96.5287 -0.195117 0)
(103.684 -0.154077 0)
(103.688 -0.463425 0)
(103.694 -0.7751 0)
(103.697 -1.09342 0)
(103.615 -1.36463 0)
(103.582 -1.68384 0)
(103.527 -2.01629 0)
(103.425 -2.3277 0)
(103.281 -2.64237 0)
(102.98 -2.92643 0)
(102.628 -3.17828 0)
(95.8957 -3.09561 0)
(100.218 -3.44773 -5.23055e-34)
(99.1153 -3.41354 0)
(98.2272 -3.30017 0)
(97.553 -3.10613 0)
(97.0692 -2.84547 0)
(96.759 -2.53608 0)
(96.5425 -2.12034 0)
(96.4661 -1.75875 0)
(96.297 -1.26807 0)
(96.238 -0.900338 0)
(96.1956 -0.539307 0)
(96.1759 -0.179721 0)
(103.965 -0.144054 0)
(103.971 -0.433268 0)
(103.978 -0.722626 0)
(103.983 -1.01657 0)
(103.907 -1.2653 0)
(103.875 -1.55196 0)
(103.817 -1.84465 0)
(103.707 -2.11451 0)
(103.536 -2.37742 0)
(103.207 -2.60888 0)
(102.793 -2.80774 0)
(96.1621 -2.73418 0)
(100.223 -3.00348 0)
(99.0536 -2.96651 0)
(98.0956 -2.87103 0)
(97.3594 -2.71449 0)
(96.8257 -2.50406 0)
(96.479 -2.24989 0)
(96.2375 -1.89784 0)
(96.1437 -1.58568 0)
(95.9754 -1.1512 0)
(95.9143 -0.820135 0)
(95.8715 -0.492998 0)
(95.8525 -0.164193 0)
(104.227 -0.133773 0)
(104.233 -0.40235 0)
(104.24 -0.669333 0)
(104.243 -0.939161 0)
(104.171 -1.16584 0)
(104.135 -1.42254 0)
(104.069 -1.68007 0)
(103.947 -1.9142 0)
(103.748 -2.13552 0)
(103.392 -2.32711 0)
(102.908 -2.48588 0)
(96.4421 -2.42651 0)
(100.214 -2.63221 -6.63795e-34)
(98.9969 -2.59362 0)
(97.9865 -2.51077 0)
(97.2018 -2.38088 0)
(96.626 -2.20733 0)
(96.2449 -1.99535 0)
(95.9763 -1.69494 0)
(95.8624 -1.42438 0)
(95.689 -1.04008 0)
(95.6228 -0.74314 0)
(95.5777 -0.448049 0)
(95.558 -0.149144 0)
(104.469 -0.123611 0)
(104.475 -0.371798 0)
(104.48 -0.617074 0)
(104.48 -0.863769 0)
(104.41 -1.0695 0)
(104.367 -1.29915 0)
(104.288 -1.52603 0)
(104.153 -1.72968 0)
(103.926 -1.91758 0)
(103.547 -2.0786 0)
(102.986 -2.20643 0)
(96.7191 -2.16236 0)
(100.196 -2.3189 0)
(98.944 -2.27951 0)
(97.8936 -2.2061 0)
(97.0706 -2.09589 0)
(96.4594 -1.95012 0)
(96.047 -1.77091 0)
(95.7512 -1.51265 0)
(95.6162 -1.27702 0)
(95.4343 -0.937 0)
(95.361 -0.671147 0)
(95.3122 -0.405651 0)
(95.2911 -0.134969 0)
(104.693 -0.113851 0)
(104.697 -0.342451 0)
(104.7 -0.567195 0)
(104.695 -0.792223 0)
(104.624 -0.978485 0)
(104.572 -1.18406 0)
(104.48 -1.38444 0)
(104.329 -1.56221 0)
(104.076 -1.72319 0)
(103.676 -1.86039 0)
(103.036 -1.964 0)
(96.984 -1.93451 0)
(100.172 -2.05286 2.172e-34)
(98.8943 -2.01324 0)
(97.8128 -1.9472 0)
(96.9592 -1.852 0)
(96.3183 -1.72766 0)
(95.8778 -1.57433 0)
(95.5558 -1.3507 0)
(95.4 -1.14442 0)
(95.2075 -0.843136 0)
(95.1263 -0.605176 0)
(95.0729 -0.366527 0)
(95.0499 -0.121909 0)
(104.898 -0.104693 0)
(104.901 -0.314907 0)
(104.901 -0.520626 0)
(104.89 -0.72574 0)
(104.817 -0.894213 0)
(104.755 -1.07857 0)
(104.649 -1.25618 0)
(104.481 -1.41199 0)
(104.205 -1.55125 0)
(103.787 -1.66955 0)
(103.068 -1.75405 0)
(97.2324 -1.73763 0)
(100.143 -1.8262 0)
(98.8474 -1.78672 0)
(97.7415 -1.72663 0)
(96.8631 -1.64319 0)
(96.1973 -1.5357 0)
(95.7317 -1.40309 0)
(95.3852 -1.20813 0)
(95.2093 -1.02653 0)
(95.0052 -0.75895 0)
(94.9157 -0.545707 0)
(94.8574 -0.331062 0)
(94.8321 -0.110087 0)
(105.087 -0.0962731 0)
(105.089 -0.289565 0)
(105.084 -0.477968 0)
(105.067 -0.665075 0)
(104.992 -0.81752 0)
(104.919 -0.983346 0)
(104.798 -1.14146 0)
(104.615 -1.27867 0)
(104.317 -1.40033 0)
(103.882 -1.50345 0)
(103.085 -1.57276 0)
(97.4625 -1.56763 0)
(100.112 -1.63295 0)
(98.8031 -1.59383 0)
(97.6777 -1.53865 0)
(96.7792 -1.46462 0)
(96.0922 -1.37059 0)
(95.6044 -1.25475 0)
(95.2351 -1.08366 0)
(95.0402 -0.922846 0)
(94.8243 -0.684428 0)
(94.7264 -0.492857 0)
(94.663 -0.299404 0)
(94.6354 -0.0995499 0)
(105.261 -0.0886739 0)
(105.261 -0.266673 0)
(105.252 -0.439577 0)
(105.228 -0.61064 0)
(105.149 -0.748807 0)
(105.066 -0.898573 0)
(104.93 -1.04009 0)
(104.732 -1.16156 0)
(104.415 -1.26892 0)
(103.964 -1.35972 0)
(103.092 -1.41691 0)
(97.6741 -1.42132 0)
(100.078 -1.46845 0)
(98.7609 -1.42982 0)
(97.62 -1.37875 0)
(96.705 -1.31234 0)
(96 -1.22919 0)
(95.4925 -1.12703 0)
(95.1022 -0.975894 0)
(94.8895 -0.832568 0)
(94.6618 -0.61927 0)
(94.5558 -0.446511 0)
(94.4874 -0.271542 0)
(94.4572 -0.0902901 0)
(105.421 -0.0819426 0)
(105.419 -0.246372 0)
(105.406 -0.405634 0)
(105.375 -0.562619 0)
(105.293 -0.688203 0)
(105.198 -0.824175 0)
(105.048 -0.951635 0)
(104.835 -1.05984 0)
(104.503 -1.15557 0)
(104.036 -1.23632 0)
(103.092 -1.28381 0)
(97.8682 -1.29614 0)
(100.043 -1.32906 0)
(98.7207 -1.29097 0)
(97.5673 -1.24335 0)
(96.6387 -1.18318 0)
(95.9183 -1.10886 0)
(95.3933 -1.01791 0)
(94.9836 -0.883475 0)
(94.7544 -0.754819 0)
(94.5151 -0.563032 0)
(94.4013 -0.406428 0)
(94.3281 -0.247376 0)
(94.2954 -0.0822711 0)
(105.569 -0.0760989 0)
(105.565 -0.228723 0)
(105.548 -0.376201 0)
(105.51 -0.52103 0)
(105.424 -0.63566 0)
(105.319 -0.759914 0)
(105.154 -0.875574 0)
(104.928 -0.972624 0)
(104.581 -1.05892 0)
(104.1 -1.13144 0)
(103.087 -1.17118 0)
(98.046 -1.19001 0)
(100.007 -1.21186 0)
(98.6822 -1.1743 0)
(97.5188 -1.12959 0)
(96.5788 -1.07452 0)
(95.8451 -1.0074 0)
(95.3044 -0.925611 0)
(94.8769 -0.805136 0)
(94.6324 -0.688716 0)
(94.3818 -0.515203 0)
(94.2606 -0.372299 0)
(94.1826 -0.226751 0)
(94.1475 -0.0754385 0)
(105.707 -0.0711531 0)
(105.701 -0.213754 0)
(105.68 -0.351287 0)
(105.634 -0.485858 0)
(105.544 -0.591036 0)
(105.428 -0.705475 0)
(105.251 -0.811342 0)
(105.013 -0.89908 0)
(104.652 -0.977756 0)
(104.156 -1.04357 0)
(103.079 -1.07716 0)
(98.2089 -1.10124 0)
(99.9706 -1.1145 -3.09987e-35)
(98.6452 -1.07745 0)
(97.4738 -1.03516 0)
(96.5242 -0.98424 0)
(95.7789 -0.922942 0)
(95.2241 -0.848614 0)
(94.7801 -0.739752 0)
(94.5213 -0.63344 0)
(94.2598 -0.475322 0)
(94.1315 -0.343821 0)
(94.049 -0.209509 0)
(94.0116 -0.0697392 0)
(105.837 -0.0670839 0)
(105.829 -0.201418 0)
(105.803 -0.33081 0)
(105.751 -0.456867 0)
(105.656 -0.554157 0)
(105.53 -0.660528 0)
(105.339 -0.7584 0)
(105.09 -0.838431 0)
(104.718 -0.911028 0)
(104.207 -0.971427 0)
(103.069 -1.00017 0)
(98.3584 -1.02847 0)
(99.9337 -1.03511 0)
(98.6095 -0.998517 0)
(97.4315 -0.958201 0)
(96.4738 -0.910624 0)
(95.7183 -0.853985 0)
(95.1507 -0.785644 0)
(94.6913 -0.686358 0)
(94.4191 -0.588262 0)
(94.1466 -0.442819 0)
(94.0115 -0.320662 0)
(93.9247 -0.195454 0)
(93.8849 -0.0651006 0)
(105.958 -0.0639348 0)
(105.948 -0.1918 0)
(105.918 -0.314861 0)
(105.86 -0.434486 0)
(105.761 -0.524864 0)
(105.624 -0.624765 0)
(105.422 -0.71626 0)
(105.161 -0.789988 0)
(104.778 -0.857833 0)
(104.253 -0.91393 0)
(103.059 -0.938939 0)
(98.4961 -0.970594 0)
(99.8966 -0.972204 0)
(98.5749 -0.93598 0)
(97.3915 -0.897235 0)
(96.4267 -0.85228 0)
(95.6621 -0.799282 0)
(95.0828 -0.735648 0)
(94.609 -0.644146 0)
(94.3242 -0.552594 0)
(94.042 -0.417759 0)
(93.9006 -0.302687 0)
(93.8097 -0.184534 0)
(93.7677 -0.0615206 0)
(106.081 -0.0615319 0)
(106.068 -0.184542 0)
(106.033 -0.302946 0)
(105.968 -0.417011 0)
(105.86 -0.50307 0)
(105.713 -0.597926 0)
(105.499 -0.684516 0)
(105.228 -0.753173 0)
(104.835 -0.817414 0)
(104.296 -0.8702 0)
(103.048 -0.892442 0)
(98.6232 -0.926765 0)
(99.8595 -0.924618 0)
(98.5411 -0.888662 0)
(97.3533 -0.851096 0)
(96.3821 -0.808112 0)
(95.6093 -0.757854 0)
(95.0192 -0.697792 0)
(94.5317 -0.612471 0)
(94.235 -0.525905 0)
(93.9384 -0.398419 0)
(93.7903 -0.289284 0)
(93.6952 -0.176312 0)
(93.6507 -0.0587971 0)
(106.176 -0.0603387 0)
(106.162 -0.180576 0)
(106.124 -0.296364 0)
(106.054 -0.409853 0)
(105.954 -0.48869 0)
(105.798 -0.579775 0)
(105.572 -0.662905 0)
(105.292 -0.727517 0)
(104.889 -0.789127 0)
(104.336 -0.839501 0)
(103.037 -0.859871 0)
(98.7412 -0.896374 0)
(99.8225 -0.891495 0)
(98.5078 -0.855658 0)
(97.3162 -0.818878 0)
(96.3395 -0.777261 0)
(95.559 -0.728935 0)
(94.9587 -0.671446 0)
(94.4583 -0.59083 0)
(94.15 -0.507988 0)
(93.8557 -0.389522 0)
(93.7034 -0.281546 0)
(93.6051 -0.171626 0)
(93.559 -0.0573692 0)
(106.342 -0.0590213 0)
(106.324 -0.177001 0)
(106.281 -0.290767 0)
(106.2 -0.398805 0)
(106.04 -0.480691 0)
(105.876 -0.57019 0)
(105.64 -0.651871 0)
(105.354 -0.712654 0)
(104.942 -0.772368 0)
(104.374 -0.821191 0)
(103.028 -0.840647 0)
(98.8511 -0.879186 0)
(99.7856 -0.87227 0)
(98.4748 -0.836285 0)
(97.2801 -0.799898 0)
(96.2981 -0.759085 0)
(95.5105 -0.711944 0)
(94.9005 -0.656207 0)
(94.3905 -0.579008 0)
(94.0726 -0.497716 0)
(93.7181 -0.377353 0)
(93.5557 -0.274933 0)
(93.452 -0.167341 0)
(93.4027 -0.0557978 0)
(89.9555 -2.79208 -9.59954e-22)
(131.994 12.4091 2.16621e-20)
(117.925 23.2994 -2.83252e-18)
(91.7527 -3.37784 -1.51281e-20)
(132.572 -4.14517 -1.87352e-19)
(132.857 10.17 -6.396e-19)
(92.5386 -4.04292 -6.18121e-20)
(125.154 -14.2516 -5.9083e-19)
(131.882 -5.82612 1.13084e-18)
(93.0783 -4.94484 1.28699e-19)
(116.499 -18.4262 3.53002e-18)
(124.077 -15.0408 -5.47359e-19)
(93.9038 -6.24904 -6.51563e-20)
(104.254 -27.554 1.8341e-19)
(105.003 -27.1218 0)
(108.402 -18.4336 -1.73682e-18)
(115.433 -18.6434 -7.43704e-19)
(95.3248 -8.15017 0)
(95.9944 -18.1967 0)
(103.897 -27.4556 0)
(97.4036 -18.4349 1.684e-19)
(102.751 -15.7327 -6.51946e-19)
(107.494 -18.264 -2.08672e-19)
(86.6149 2.00326 -2.86367e-18)
(91.695 16.1324 -3.05495e-19)
(115.278 23.402 3.37824e-20)
(103.797 17.4358 -8.14992e-19)
(136.512 30.2917 1.94332e-19)
(117.188 39.3154 5.05593e-18)
(129.612 11.3141 0)
(118.99 6.7357 2.77003e-19)
(114.275 10.8017 -2.21193e-19)
(93.2446 -2.37895 0)
(91.9255 -3.25278 2.00549e-20)
(90.5467 -2.56565 -6.34199e-20)
(143.784 1.68341 5.4307e-20)
(144.193 13.9434 0)
(130.612 -3.60773 3.77361e-19)
(120.844 -1.16188 -1.08742e-18)
(119.98 4.85415 -2.32257e-19)
(93.9571 -3.34786 -2.54542e-20)
(92.7183 -3.95946 -9.6352e-20)
(92.0425 -3.33748 -1.9531e-20)
(92.1841 -3.70627 8.1097e-20)
(91.4597 -4.08416 2.67677e-20)
(91.0491 -3.79097 -3.18811e-20)
(133.786 -15.3777 6.93425e-19)
(139.39 -9.05956 0)
(124.096 -13.1513 -1.68398e-18)
(118.147 -7.78984 -2.34788e-18)
(120.502 -3.05037 0)
(94.6043 -4.23804 3.49115e-19)
(93.2978 -4.8654 -1.59345e-19)
(92.7957 -4.05486 0)
(92.8127 -4.43863 4.2289e-20)
(91.7852 -4.61944 0)
(91.787 -4.32474 5.74869e-20)
(122.829 -21.8654 -8.8322e-21)
(127.586 -19.7355 0)
(95.4177 -5.17982 -2.25139e-20)
(94.0669 -6.11207 -1.13805e-19)
(93.3764 -5.00395 0)
(93.4834 -5.56728 4.76239e-20)
(91.7615 -5.85076 5.919e-20)
(91.7982 -5.24167 -5.58515e-20)
(109.078 -28.2964 0)
(112.376 -23.4219 0)
(116.892 -23.3002 3.5766e-19)
(96.6345 -6.0931 0)
(95.4808 -7.85544 0)
(94.19 -6.29291 0)
(94.4504 -7.07639 0)
(90.5937 -7.31563 -1.15085e-18)
(91.5329 -6.58244 5.17188e-19)
(98.5984 -8.49969 0)
(97.6036 -11.2281 1.02299e-27)
(95.9946 -17.4735 -1.68692e-22)
(86.6281 -5.75703 -5.60792e-20)
(89.9567 -4.6914 3.28766e-20)
(79.1046 -0.241954 4.59627e-18)
(85.7889 -5.71794 2.72519e-19)
(144.062 14.8662 2.61275e-18)
(137.346 29.4149 -1.54647e-19)
(127.607 18.6385 -1.53178e-18)
(136.204 27.6927 9.13205e-19)
(143.109 14.6872 -8.70131e-19)
(91.008 -3.74046 0)
(90.804 -3.64043 -3.67021e-20)
(91.3478 -3.18915 0)
(90.6963 -3.67416 0)
(90.8665 -3.78089 0)
(90.1326 -4.49602 -4.77361e-20)
(90.6695 -3.71251 0)
(139.717 -8.51579 2.67393e-20)
(143.631 0.948753 5.45269e-20)
(133.281 2.00026 1.84784e-19)
(142.975 1.14951 -2.62202e-20)
(139.302 -8.18183 0)
(143.272 13.7837 -1.08329e-19)
(143.118 1.86049 2.06247e-19)
(133.306 3.00867 1.206e-20)
(91.7639 -4.29093 0)
(91.5135 -4.10954 -4.03764e-20)
(92.2816 -3.78925 -2.04597e-20)
(91.3569 -4.14699 7.82215e-20)
(91.5954 -4.31413 0)
(90.8849 -3.81152 5.55493e-21)
(91.3308 -4.1336 1.49645e-19)
(128.271 -19.3415 0)
(133.394 -15.7251 -1.68766e-19)
(128.283 -11.3115 -4.42134e-21)
(132.908 -15.234 6.16585e-19)
(127.999 -18.6375 0)
(138.986 -8.72389 0)
(133.655 -14.6043 -3.74197e-19)
(129.271 -10.124 0)
(91.7907 -5.20152 -3.88552e-23)
(91.7818 -4.65035 -1.26603e-19)
(92.8761 -4.5546 -1.47455e-19)
(91.6072 -4.64333 1.12744e-19)
(91.5203 -5.2067 0)
(91.6043 -4.33239 2.66737e-20)
(91.616 -4.61311 2.17028e-19)
(117.544 -23.2079 3.67492e-19)
(122.156 -22.0894 -9.60005e-19)
(91.5496 -6.53333 2.54232e-19)
(91.7566 -5.90099 -3.01806e-20)
(93.5301 -5.64995 6.35458e-20)
(107.223 -28.3345 0)
(91.2758 -5.88808 -2.28785e-19)
(90.6211 -6.49325 -3.46486e-19)
(91.5245 -5.24617 -6.13961e-20)
(91.2974 -5.84211 0)
(106.987 -28.229 1.79112e-19)
(107.653 -22.8356 7.82451e-19)
(111.731 -23.4335 0)
(109.007 -28.3111 1.65859e-19)
(78.1492 -7.64145 2.676e-19)
(90.5433 -7.38661 -4.59603e-21)
(94.5381 -7.20287 4.02331e-22)
(98.3148 -23.4477 2.66172e-20)
(88.893 -7.22421 0)
(52.6918 -8.12573 1.18369e-19)
(90.584 -6.53548 7.16468e-20)
(88.9473 -7.15935 1.4206e-18)
(98.8739 -24.111 0)
(92.4224 -0.938995 -7.5013e-20)
(90.2222 -2.39979 6.89622e-20)
(87.7811 1.09423 8.4908e-19)
(87.9412 -1.53857 -4.03811e-19)
(85.992 -4.87456 -3.16299e-19)
(80.6495 0.1749 2.04247e-18)
(135.688 51.3986 3.51259e-17)
(111.56 57.9574 4.15876e-19)
(91.1628 -3.13454 -9.62509e-20)
(90.7632 -3.67203 1.81642e-20)
(90.1008 -4.31162 -2.98202e-21)
(122.2 -23.1753 -4.97345e-18)
(116.031 -17.3278 -1.54695e-18)
(113.364 -11.5627 0)
(117.059 -9.0089 5.03769e-19)
(106.788 -27.287 3.10262e-18)
(114.656 -26.2822 -7.76577e-19)
(116.92 -25.932 2.04783e-19)
(99.7373 -23.5544 2.27847e-19)
(103.391 -20.5073 -9.41521e-20)
(106.492 -22.379 -1.84797e-18)
(89.891 -4.44861 -1.29329e-20)
(86.7158 -4.9887 5.21862e-20)
(88.4902 -2.0289 6.15788e-21)
(89.392 -6.73969 9.26593e-20)
(68.2227 -2.07223 9.58154e-18)
(78.5273 -11.3917 -1.60964e-18)
(117.399 36.196 -9.34928e-19)
(134.587 29.4413 -2.09737e-19)
(125.521 20.3394 1.31154e-18)
(117.26 -25.8407 0)
(119.514 -25.3969 0)
(119.744 -17.3846 0)
(121.974 -21.392 4.56745e-19)
(117.453 -22.5282 -7.20051e-19)
(127.323 -19.0238 0)
(122.634 -21.1616 -2.45638e-19)
(120.832 -16.9056 -9.87859e-19)
(106.385 -28.3474 1.24433e-19)
(90.6612 -26.8825 0)
(101.436 -26.3299 0)
(83.8432 22.8794 4.42003e-20)
(82.7745 10.2847 -1.06988e-18)
(78.7974 1.41467 7.41144e-18)
(113.972 38.7381 4.21838e-21)
(100.576 29.0908 9.601e-19)
(85.4706 25.4652 -4.16801e-20)
(137.875 48.9388 -1.57635e-16)
(129.806 36.6367 -5.18221e-19)
(136.466 48.6577 2.26389e-17)
(112.571 54.2696 -4.89151e-19)
(133.983 50.2689 -3.45468e-18)
(126.932 37.9226 -1.00702e-18)
(144.281 7.07498 -2.38887e-19)
(144.327 7.88608 0)
(136.497 -12.8305 -1.89514e-19)
(136.877 -12.3947 7.71585e-19)
(121.912 -24.5548 2.90424e-19)
(122.6 -23.294 -4.99705e-19)
(124.856 -21.0804 0)
(124.256 -23.2057 2.3502e-18)
(122.504 -24.2386 1.39567e-19)
(125.369 -21.7517 6.35707e-18)
(124.348 -23.0761 1.19346e-18)
(125.535 -20.7786 -4.20594e-19)
(91.8212 -5.53667 1.79824e-19)
(92.7646 -5.49145 1.39214e-19)
(92.87 -5.74518 0)
(111.898 -26.2415 6.49026e-19)
(113.97 -26.3055 9.29417e-19)
(107.589 -27.4556 -1.02567e-17)
(91.402 -6.95736 -1.43306e-19)
(93.4018 -6.99185 1.01542e-19)
(93.5275 -7.37788 -8.87951e-20)
(93.2426 -6.56433 5.01009e-20)
(93.3626 -6.87731 -1.01015e-19)
(91.4348 -6.89191 -4.27528e-19)
(87.3174 -9.66399 -4.18364e-18)
(89.1883 -7.06815 5.71553e-18)
(88.5513 -5.44824 1.97632e-20)
(89.282 -6.98431 -2.40666e-18)
(87.1932 -9.13897 7.15195e-18)
(89.885 -5.06256 -1.23361e-18)
(89.466 -6.69386 -1.30005e-18)
(89.019 -5.27422 0)
(81.6605 -4.00834 0)
(78.8461 -9.93153 1.28603e-20)
(70.372 -1.63544 -4.45994e-18)
(86.6468 -9.40846 -1.29384e-19)
(80.1164 -10.2303 1.41896e-18)
(82.7612 -4.76632 2.7535e-19)
(79.9929 -11.622 -2.7575e-19)
(86.8445 -9.98463 3.57864e-19)
(142.006 21.4582 1.84862e-18)
(141.583 22.4646 -6.34905e-19)
(90.787 -3.63529 2.0898e-20)
(89.6551 -3.62364 -4.21339e-22)
(90.7936 -3.64278 0)
(90.4724 -4.03632 -3.92886e-20)
(89.9272 -4.04606 2.86883e-18)
(89.8736 -4.91305 -1.27919e-18)
(89.6985 -3.63043 -2.3789e-20)
(89.8979 -3.94358 -5.65569e-21)
(90.5408 -3.9263 2.63945e-20)
(141.726 -4.35621 -7.22329e-19)
(141.973 -3.72095 1.19953e-18)
(141.481 -3.48613 0)
(137.536 -1.90595 2.10665e-19)
(138.229 1.57941 -4.3624e-21)
(136.014 -6.06496 6.99789e-19)
(137.216 -3.00473 0)
(141.244 -4.12312 0)
(143.637 7.91031 -1.13255e-19)
(138.318 8.01171 1.10247e-19)
(137.544 12.1501 -2.18375e-19)
(138.36 2.8105 -9.42373e-20)
(138.423 6.67594 -8.1539e-20)
(143.61 7.10389 4.40952e-19)
(91.5039 -4.21172 1.51221e-19)
(91.5199 -4.22402 9.19496e-20)
(91.0793 -4.00179 1.16206e-20)
(91.1119 -4.02682 1.169e-20)
(130.461 -17.7968 7.53964e-20)
(125.634 -21.4741 0)
(130.816 -17.5229 7.72521e-20)
(91.5861 -4.89857 -1.1893e-19)
(91.5818 -4.93183 -2.95431e-20)
(91.6397 -4.44303 2.5928e-20)
(91.6404 -4.46311 -5.23427e-20)
(122.187 -24.3469 -2.69112e-19)
(119.989 -24.9769 0)
(120.164 -22.6639 -8.63913e-19)
(119.81 -25.3139 4.83623e-19)
(121.646 -24.6777 -2.83414e-19)
(91.8098 -6.28154 -5.22499e-19)