/*--------------------------------*- C++ -*----------------------------------*\
| =========                 |                                                 |
| \\      /  F ield         | OpenFOAM: The Open Source CFD Toolbox           |
|  \\    /   O peration     | Version:  v1912                                 |
|   \\  /    A nd           | Website:  www.openfoam.com                      |
|    \\/     M anipulation  |                                                 |
\*---------------------------------------------------------------------------*/
FoamFile
{
    version     2.0;
    format      ascii;
    class       surfaceScalarField;
    location    "2.4";
    object      phi;
}
// * * * * * * * * * * * * * * * * * * * * * * * * * * * * * * * * * * * * * //

dimensions      [0 3 -1 0 0 0 0];
oriented        oriented;


internalField   nonuniform List<scalar> 
25162
(
0.0004828988388
0.9161671012
0.0006445881644
0.9165383107
0.0008218890333
0.9164726991
0.0004074834528
0.9164565797
0.0006078259141
0.4583355334
0.0004219500549
0.4582790783
0.0005436011718
-0.0005226794715
-0.0006814551728
0.4582431199
0.0007883353134
-0.000894098717
0.4581850659
0.001044032794
-0.001205504936
0.4581589852
0.001376519758
-0.001562142597
0.4581465708
0.001750571799
-0.001927832963
0.4581725123
0.002090320701
-0.002230524029
0.4582421338
0.002319890187
-0.002364768647
0.4583408911
0.002357377507
-0.002297373887
0.4584389257
0.002193448137
-0.002055942826
0.4584941911
0.001891751679
-0.001722631912
0.4585076233
0.001550008638
-0.001371340158
0.4584936866
0.001212653544
-0.001061712384
0.4584849272
0.0008917851793
-0.0008238160042
0.4584502127
0.0007236032898
-0.0005904858352
0.4584592192
0.0004812665729
-0.001822086682
0.9186028941
0.0002951764543
-0.0004259839035
-0.001140603467
0.9186685168
-3.26723014e-05
0.9157420688
0.9137673277
0.001333421589
0.9148336796
0.002201617272
0.915670115
0.002702937929
0.9159713785
0.001020596323
0.9166001027
0.001538818545
0.457903772
0.001230195758
-0.4581133714
-0.4580621455
-0.00151791461
0.4577059624
0.001874097706
-0.4578684878
-0.002307895612
0.457354812
0.001320265437
0.001501305988
-0.2288552102
-0.001580728471
0.2287248118
0.001711126956
-0.002240669487
-0.2287862398
0.2286201938
0.002406715496
-0.003025665503
-0.2287578182
0.2285614921
0.00322199164
-0.00383634494
-0.2288129296
0.2286243863
0.004024888192
-0.004482997525
-0.2289599322
0.2288168548
0.004625990957
-0.004768213257
-0.2291711355
0.2291205456
0.004818942881
-0.004649831147
-0.2293428735
0.229422246
0.004570458649
-0.004121098841
-0.2294423032
0.2296107722
0.003952629856
-0.003389882067
-0.2294730226
0.2296796506
0.003183254012
-0.002622190732
-0.2294471525
0.2296439613
0.00242538198
-0.001948243656
-0.2293919643
0.2295541482
0.001786059705
-0.458853306
-0.002614660944
0.4602520992
0.001215867744
5.475488886e-05
0.4608799941
-0.001705314516
-0.4592294345
-0.002033892799
0.9179632486
0.000764845847
0.001908692471
-0.001255030321
0.9178896543
0.0002261114224
0.9142609271
0.9139934391
0.00171624304
0.9131174365
0.004512155128
0.9128742029
0.007678297052
0.9128052365
0.003451669959
0.913851089
0.006975640835
-0.4577179328
0.4573714442
0.003798158547
-0.4573191738
-0.003996509184
0.4577094666
0.003606216401
-0.4566482952
-0.003995938404
0.4560566656
0.002213544547
0.0023740234
-0.2280874784
-0.00270893952
0.2278069568
0.002989461033
-0.2278043124
-0.00396833543
0.2274371465
0.004335501316
-0.2276534231
-0.005572427134
0.226989916
0.006228730257
-0.2274986136
-0.008631883447
0.2266533002
0.009445682179
-0.2279954079
-0.0116337354
0.2274118655
0.01219478783
-0.2290762075
-0.01317651802
0.2290452265
0.01321228735
-0.2302307336
-0.01243358049
0.2308132384
0.01187975683
-0.2307544473
-0.009641004636
0.2316490129
0.008775477114
-0.2305650385
-0.006332558544
0.2310313791
0.005867669194
-0.2304611326
-0.004743447412
0.2308220698
0.004382510155
-0.003127412115
-0.2302727156
0.2309407599
0.002459367838
-0.4628297456
0.0007700777211
0.4615907924
0.0004688754356
-0.4599217974
-0.0006812528798
0.4598406962
0.000762354068
-0.0004801809435
0.9194525623
-0.0006252617763
-0.0003838710125
0.001208241895
0.9162012315
0.0005543704981
0.9149147985
0.9145478096
0.0007355408843
0.9123818956
0.001634739018
0.9119750048
0.003278363731
0.9111616118
0.003937375294
0.9102597821
0.002932295324
-0.4563956104
0.4557315521
0.004601433624
-0.4589499238
-0.006094923324
0.4555605015
0.009484345579
-0.4570854768
-0.01115108362
0.4581530833
0.003349157912
0.006734319281
-0.2267619542
-0.003614583155
0.2263973146
0.00397922273
-0.2257641226
-0.005661583687
0.2242444733
0.007163700418
-0.2228784868
-0.01250759611
0.2208839645
0.01442454601
-0.2225404238
-0.02008659902
0.2206990562
0.02184780629
-0.2246580279
-0.02638957815
0.2234343199
0.02757227827
-0.2287529354
-0.02979599782
0.2285516955
0.03001032785
-0.2333698652
-0.02888841971
0.2344243313
0.02789704103
-0.2361528285
-0.02331139222
0.2381965011
0.02135712449
-0.2354005124
-0.01487639277
0.2376630156
0.0126829077
-0.2344653175
-0.002077393586
0.2387685377
-0.002222929195
-0.003065237685
-0.2317774867
0.2317753189
0.00306740546
-0.4614868309
-0.004480894294
0.4625733172
0.003394408075
-0.4604785831
-0.002301028847
0.4613571662
0.001422445709
0.002122590668
0.9190741156
-0.0009435728058
-0.000800571125
0.001536833326
0.9167869888
0.0006982282751
0.9157534035
0.9152460379
0.000309804244
0.9120720914
0.0007481316225
0.9115366774
0.001505794758
0.9104039487
0.002080931159
0.9084975886
0.001187057092
-0.4552115823
0.4541851345
0.003107378967
-0.4537562477
-0.003844499073
0.4527318224
0.004868924384
-0.4515019993
-0.006225622748
0.4501285212
0.003935084709
0.003664016182
-0.2264950454
-0.00614280604
0.2242712007
0.00836560757
-0.2185717961
-0.01655915202
0.2181042268
0.01693210978
-0.213510148
-0.02139116302
0.2108185797
0.02394661238
-0.2142880214
-0.03121083049
0.2120192502
0.03337407711
-0.2190769628
-0.03897576916
0.2174721959
0.04053719542
-0.2274167667
-0.0440124153
0.226801976
0.04464279032
-0.2377038133
-0.04430886553
0.2388831079
0.04320491889
-0.2454884828
-0.03653047543
0.2483283537
0.03382032101
-0.2528244891
-0.01839778004
0.252723441
0.0186328263
-0.239654219
-0.01312426443
0.2425277254
0.01032563274
-0.004485019137
-0.2330743808
0.2335711377
0.003988262242
-0.4640795791
-0.005025301234
0.4654867682
0.003618112137
-0.4621559564
-0.002654858662
0.4629595135
0.001851301529
0.002696273028
0.9204954692
-0.002395448823
-0.001722177784
0.001405572409
0.9180776894
0.0006198646519
0.9165391113
0.9158659025
-7.560524025e-05
0.9121476967
2.226484744e-05
0.9114388073
0.000510326182
0.9099158874
0.0008020605034
0.9075129065
0.0006929477681
-0.4530706756
0.452497494
0.001375242103
-0.451822928
-0.002644885995
0.4506711873
0.003796626731
-0.4486918396
-0.004836220463
0.4470735951
0.003234313296
0.00322015164
-0.2183188086
-0.00539293641
0.2160715462
0.007591001198
-0.2060160791
-0.01562861661
0.2029223079
0.01857043639
-0.2046399934
-0.02926098175
0.2003169005
0.03341972433
-0.2078935192
-0.04001800183
0.2071941178
0.04062367989
-0.2129277376
-0.04365762498
0.2127881905
0.04377599859
-0.2239396608
-0.04845652978
0.2227041206
0.04969509256
-0.2431542462
-0.04827898015
0.2431824419
0.04829331715
-0.2623804186
-0.03840757558
0.2604691418
0.04044764801
-0.2600273237
-0.03392224289
0.2638481423
0.03027478346
-0.2527906353
-0.01898482206
0.2565968973
0.01531779456
-0.005131810099
-0.2370570168
0.2388330993
0.003374864352
-0.4666546381
-0.004920755378
0.467798397
0.003776996438
-0.463353828
-0.002963075915
0.4636816083
0.002635295598
0.001924519745
0.9222173479
-0.001709330534
-0.001937067979
0.0009636204334
0.9190385887
0.0003484314417
0.9171543003
0.916214334
-0.0006568881459
0.9128045848
-0.001121606354
0.9119035255
-0.001312337673
0.9101066187
9.978641748e-05
0.9069170625
-0.0008162801026
-0.4521869123
0.4516851714
0.000601527315
-0.4492742261
-0.001067442929
0.44860689
0.001734778955
-0.446173142
-0.003059979195
0.4452119585
0.001957050992
0.00206370685
-0.2094101493
-0.00541559097
0.2071125101
0.007622021471
-0.1929610938
-0.01532937677
0.1919481462
0.01615173424
-0.1923356702
-0.02344470272
0.1903186973
0.02529708274
-0.1999330367
-0.03037833692
0.1979957972
0.0322600749
-0.2049283639
-0.04800270276
0.1037327592
0.09785088319
0.0235044551
0.0278429691
-0.03417862281
-0.1086764849
0.1081118564
0.03474325134
-0.02758908555
-0.2520956503
0.05201083238
-0.02796183515
0.1274329109
0.1282028277
-0.04519886758
-0.2651807342
0.2681313719
0.04233252209
-0.2756022653
-0.03100637453
0.2780143703
0.02877666599
-0.2670897265
-0.02096267605
0.2708695575
0.01735735396
-0.007784374859
-0.2464647196
0.2490720424
0.005244017412
-0.4688985927
-0.003751968454
0.4694355061
0.003215055054
-0.4644442783
-0.002291458643
0.465182434
0.001553302978
0.0005450540049
0.9232676653
-0.000669832367
-0.0009255389951
5.240124358e-05
0.9195312415
-7.085001742e-05
0.9172775515
0.916143484
-0.001306675104
0.9141112599
-0.002517849338
0.9131146998
-0.003456496047
0.9110452654
-0.001698148452
0.9076476576
-0.00248894267
-0.4515791841
0.4514966003
-0.001615564646
-0.4482282606
0.001575811548
0.4480107904
-0.001358341376
-0.4431770524
0.001054588341
0.44197942
-1.369346077e-05
0.0001476174509
-0.2013329306
-0.002122406614
0.199950682
0.003390941692
-0.1845810732
-0.008143148561
0.1827675485
0.00975753914
-0.1855904196
-0.01456601747
0.1840551957
0.01594342647
-0.1954905248
-0.01861009968
0.1951966033
0.01888536805
-0.0886546677
-0.01210094896
0.08836268605
0.0123929306
-0.03420524869
-0.1419006912
0.1449055383
0.03120040157
-0.03837437646
-0.2765913417
0.2796258328
0.0353836399
-0.288325213
-0.02637630837
0.2915221355
0.02335223387
-0.2814073427
-0.01459146608
0.2843227702
0.01187089572
-0.007352108954
-0.2558865263
0.2581992443
0.005134707309
-0.4703323741
-0.001576005937
0.4710186161
0.0008897639422
-0.4657371294
-0.0004392384986
0.4661629373
1.343060099e-05
-0.001522663632
0.9234713658
0.0009232510132
0.0003957120952
-0.001214206875
0.9192227847
-0.0006508456163
0.9167141903
0.9154926384
-0.001978652846
0.9160899128
-0.003868950996
0.9150049979
-0.005805598471
0.9129819129
-0.003369063533
0.9093908529
-0.004179730213
-0.4517528417
0.4520033096
-0.003619531477
-0.4480778283
0.003927040473
0.4483873284
-0.004236540573
-0.4413176584
0.004545707637
0.4409689181
-0.001903321262
-0.002314300252
-0.1958611094
0.0005354151236
0.1946527139
0.000550205384
-0.1776508895
-0.0044415724
0.1761402916
0.005751559458
-0.1812853528
-0.008819521217
0.1805949436
0.009359582282
-0.1965984637
-0.008834095338
0.1975259824
0.007898515038
-0.09216275716
-0.001790752221
0.09288385606
0.001069653315
-0.01512147085
-0.1580915196
0.158569086
0.01464390443
-0.0214075044
-0.2856105098
0.2864545443
0.02058764744
-0.2984682333
-0.0169575263
0.3001703714
0.01541904739
-0.2916871852
-0.01004764711
0.2936668441
0.008267050439
-0.003184566284
-0.2632075091
0.2647123294
0.001787477544
-0.4719518185
0.00129343084
0.4726851548
-0.002026767075
-0.4662910509
0.002267746488
0.4662937958
-0.002270491284
-0.003958570273
0.9224218181
0.002728099017
0.002280019004
-0.002729149865
0.9179933643
-0.001396988648
0.9153820291
0.9140956497
-0.002617998881
0.9187079116
-0.005355387674
0.9177423867
-0.008056896333
0.9156834216
-0.00505558811
0.9122630639
-0.005873519273
-0.4525995511
0.4531989796
-0.005655016632
-0.4488886074
0.00636819461
0.4497178175
-0.007197404733
-0.4408851129
0.008049690994
0.4409252188
-0.003826339146
-0.004293974918
-0.1914173936
0.002686647448
0.1903437992
-0.001740358443
-0.1720616076
-0.001556976149
0.1708222603
0.002596102272
-0.1791163667
-0.004631787657
0.1788532318
0.004749681103
-0.2008812251
-0.002825328068
0.2021175176
0.001584580117
-0.09672213489
0.001207279762
0.09714916276
-0.0007966486876
-0.0008376589515
0.00359200835
-0.1554167204
0.1543374477
-0.002512735671
-0.002532684611
-0.2870379934
0.2864522283
0.003143851822
-0.3042302113
-0.003068168555
0.3049191005
0.002541535226
-0.2981990399
-0.0002661452439
0.2992049779
-0.0005426955141
0.00236321152
-0.2667297904
0.2671385078
-0.002665575519
-0.4724752344
0.005277793604
0.4718404095
-0.004642968683
-0.4659573808
0.004367587545
0.4661483279
-0.004558534589
-0.006598347489
0.920094356
0.004753989771
0.004171819794
-0.004338647527
0.9157336644
-0.002188195324
0.9132315769
0.9119074544
-0.003322495579
0.9220304072
-0.00666393254
0.9210838237
-0.0102124937
0.9192319827
-0.006658387843
0.916143738
-0.007434779945
-0.4541153389
0.4550358426
-0.007578891566
-0.4507099441
0.008703310309
0.4518439939
-0.009837360117
-0.441267041
0.01114935249
0.4417071302
-0.005668963211
-0.005964790261
-0.1872328337
0.004368952071
0.1862105785
-0.003479370332
-0.1673642077
0.0004942301925
0.1662815679
0.0003882701583
-0.1784709579
-0.00177923226
0.1784638079
0.001646657003
-0.2058418347
0.001000710059
0.207072436
-0.002232946651
-0.09968213754
0.002814622373
0.09998301594
-0.001542464445
-0.001573036325
0.01347500165
-0.1451229773
0.1436918977
-0.01204392204
0.01191023135
-0.2843336436
0.2839279788
-0.01146172716
-0.306992275
0.0128629615
0.3043636296
-0.01006992006
-0.3008194836
0.009297431602
0.300637275
-0.008923442803
0.007380378657
-0.2653786038
0.2647497988
-0.006658870589
-0.4708978931
0.009031111701
0.4696865266
-0.007819745165
-0.4662252251
0.006719825045
0.4652146124
-0.005709212361
-0.009019820558
0.916700019
0.006404296698
0.006009860896
-0.005887221283
0.9126010651
-0.002902688783
0.9102470444
0.9090047656
-0.003946234201
0.9259766414
-0.00795579048
0.92509338
-0.01217997901
0.9234561713
-0.008063773753
0.9205479168
-0.008520384034
-0.4562056671
0.4573659607
-0.009224067346
-0.4532439813
0.01058982873
0.4547402424
-0.01208608981
-0.441847446
0.0137410501
0.442976166
-0.006760261548
-0.008170538344
-0.1831001712
0.005242195495
0.1820033802
-0.004283664642
-0.1631974229
0.001321610158
0.1622190111
-0.0005427792805
-0.1787951153
-0.0002947713223
0.17905572
-9.91728852e-05
-0.2107566499
0.00366240695
0.2119961746
-0.004902071832
-0.101964998
0.004207562328
0.1022558637
-0.002228617885
-0.00226981018
0.01674253172
-0.1340812453
0.1327132484
-0.01537453475
0.02064064073
-0.2823778818
0.2824964346
-0.02068932547
-0.3041115738
0.01653348951
0.3084248153
-0.02067338674
-0.2990703444
0.02134056538
0.2982592466
-0.02034815712
0.01180622172
-0.2597100363
0.257577629
-0.009603062874
-0.4682500988
0.01216618054
0.4665908493
-0.01050693105
-0.464154902
0.009033192997
0.4628695219
-0.007747812951
-0.01118743923
0.9140282329
0.007151525283
0.006707700113
-0.007238931425
0.9086525573
-0.003527267027
0.90653538
0.9054774986
-0.008174831877
0.9341514733
-0.01656854573
0.9334870938
-0.02514876736
0.9320363929
-0.009423158988
0.9297234395
-0.02490113109
-0.4588067748
0.4602211715
-0.01083755563
-0.4563084855
0.01242288727
0.4580907363
-0.01420513806
-0.4407024513
0.01603719825
0.4376083373
-0.006115726307
-0.006925086431
-0.1793127626
0.002504141209
0.1771202806
-0.0004552458817
-0.1593951426
2.339912672e-05
0.1592384548
-6.398766041e-05
-0.1802977125
0.001999455018
0.1788611102
-0.0006912577066
-0.2157706036
0.005196384857
0.2170713864
-0.003243017677
-0.003254150024
-0.0523974697
0.002742781227
0.05249265498
-0.002837966501
-0.05834382878
0.006257709602
0.05784979547
-0.01215455494
0.006390878643
0.01491174848
-0.1246652228
0.2456237333
-0.0257170031
0.01446292667
-0.1246161826
-0.2824062575
0.02671999591
0.2853149361
-0.02952892847
-0.3079956155
0.027319904
0.3069038605
-0.02604264651
-0.2943032367
0.02106170128
0.2924062018
-0.01900033361
0.01204504521
-0.2480606931
0.2456170296
-0.009563698303
-0.4646190659
0.01430855805
0.4626498967
-0.01233938875
-0.4615385541
0.01081125578
0.4601092842
-0.009381985803
-0.0129193353
0.910167391
0.008617019296
0.008163157962
-0.008349531239
0.9040827533
-0.004116066246
0.9023019151
0.9013614324
-0.004701313454
0.9388527868
-0.009545866312
0.9383316467
-0.01468551793
0.9371760445
-0.01003728992
0.9353427117
-0.01026750017
-0.4636938787
0.4651952634
-0.01153867464
-0.4616540407
0.01321860642
0.463473254
-0.0150378197
-0.4364966412
0.01702587188
0.4416590003
-0.01056426201
-0.01173869942
-0.1728984507
0.01186869165
0.1730308147
-0.0121528023
-0.15607313
0.01166229413
0.1553541926
-0.01114124189
-0.1834250053
0.008927174205
0.1824199771
-0.00804066906
-0.2214243523
0.005650065947
0.2227020694
-0.003466234961
-0.003461548131
-0.05476215144
0.005775127714
0.1099413805
-0.05473641581
-0.003104064851
-0.003113876131
-0.1122752453
0.008169908438
0.1121214056
-0.01594109898
0.007925030207
0.02476648889
-0.2389349445
0.2390554418
-0.02488272525
-0.2870002243
0.02746820991
0.2878497761
-0.02819085917
-0.3028619818
0.02737750026
0.3089160156
-0.03324851885
-0.2858846348
0.02905533087
0.2788077932
-0.02184587842
0.01131517248
-0.2347928233
0.232701556
-0.00921829591
-0.4609263864
0.01519607641
0.4593792948
-0.01364898483
-0.4586644217
0.01212500035
0.456975288
-0.0104358666
-0.0124143912
0.905465925
0.008494523548
0.008621333637
-0.009066873591
0.9007352357
-0.004445921755
0.8976809632
0.8969155106
-0.004899486178
0.943752273
-0.009935844333
0.9433680049
-0.01524931069
0.9424895109
-0.0104319962
0.9410958391
-0.01057044184
-0.4667883267
0.4683682658
-0.01201193531
-0.4652977553
0.01372085385
0.4671135223
-0.01553662082
-0.4505122644
0.01749632305
0.4605575852
-0.01386019006
-0.01372556088
-0.1777923868
0.02139966864
0.1809852205
-0.02472118522
-0.1551159887
0.03174157789
0.156012941
-0.03282769312
-0.1763780782
0.03144938028
0.1740905234
-0.0293011466
-0.2186829338
0.01752770839
0.2130926376
-0.01196718272
-0.1130895317
0.009558236934
0.2262268498
-0.009657169092
-0.113038386
-0.2264841797
0.01618250005
0.2270420612
-0.01674038161
-0.2496207127
0.02787629413
0.2547480034
-0.0329553184
-0.294034454
0.04121242598
0.2947565541
-0.04178400249
-0.3053045463
0.0382245805
0.3028999653
-0.03563815671
-0.2674862273
0.02523485484
0.2678347111
-0.02548717989
0.01140568384
-0.2308874356
0.2285816028
-0.009099851001
-0.4580008714
0.01699064487
0.4549440364
-0.01393380988
-0.4552540936
0.01250745769
0.4532743678
-0.01052773187
-0.0128466847
0.9008315156
0.008822416651
0.008658677454
-0.009149953253
0.8970385043
-0.004664156685
0.8931951667
0.8922513539
-0.004965442631
0.9487177156
-0.0100514027
0.948453965
-0.01537642014
0.9478145283
-0.01053188007
0.9468029557
-0.01055165673
-0.4699370484
0.4715073639
-0.01210219557
-0.4688977899
0.01377070335
0.4706430092
-0.01551592264
-0.467500497
0.01736236187
0.4695992512
-0.009829688542
-0.009631578993
-0.1957615988
0.02292760663
0.2024004262
-0.02964465244
-0.1632451345
0.04710457014
0.1674873193
-0.05150316287
-0.1699870222
0.05891395095
0.1702417746
-0.05931685165
-0.1995791743
0.05501900267
0.1968204406
-0.05234291277
-0.2177236444
0.04389654082
0.213029949
-0.03922505642
-0.2383590551
0.04702405801
0.2415075327
-0.05015237452
-0.2675094686
0.06009449319
0.2700235522
-0.0625243406
-0.294325625
0.06384259057
0.2926652752
-0.06203566973
-0.2915449625
0.05046185878
0.2861836852
-0.04495732267
-0.2518609778
0.02576432403
0.2451974286
-0.01904951177
0.01097758543
-0.2267022878
0.2261125519
-0.01038784951
-0.4542525561
0.01746263816
0.4516027286
-0.01481281064
-0.4504613441
0.01145146152
0.4489057097
-0.009895827101
-0.01210112842
0.8947008446
0.009390595834
0.008841203602
-0.006783739
0.8917211149
-0.004734416128
0.8911458438
0.8875169378
-0.00491625842
0.9536339741
-0.009932736837
0.9534704434
-0.01514332308
0.9530251146
-0.01038187713
0.9523248052
-0.01028329543
-0.4730234324
0.4745236311
-0.01188207579
-0.4723301156
0.01345741343
0.4739550795
-0.01508237733
-0.4714738255
0.01677326467
0.4732428503
-0.009330240223
-0.009212049259
-0.226654376
0.01040345738
0.2340875953
-0.01784719828
-0.186205634
0.04490549971
0.1943014639
-0.05309585235
-0.1775055692
0.0729696396
0.182170165
-0.0777528635
-0.1950602277
0.08686915236
0.196377762
-0.08827433199
-0.2030826321
0.082771263
0.2035190314
-0.08323987275
-0.2459685736
0.09020283053
0.2459942276
-0.09020075735
-0.2707246415
0.08784075947
0.2686990421
-0.08573062053
-0.2816841682
0.07404002583
0.2760330668
-0.06827606826
-0.2653188165
0.04628920271
0.2569735265
-0.03786454992
-0.2256531474
0.01277466778
0.2247063091
-0.01182735588
0.01028251606
-0.2245075036
0.2240110961
-0.009786108507
-0.4479468011
0.01666663159
0.4462310055
-0.014950836
-0.4473529051
0.01331323449
0.44576908
-0.01172940944
-0.01134980112
0.8876551522
0.01009979933
0.008295694286
-0.006427175512
0.8867984893
-0.004387215028
0.8891058834
0.8831297228
-0.004775898264
0.9584098723
-0.009629654778
0.9583241999
-0.01462730517
0.958022765
-0.01002140203
0.9575543311
-0.009835429018
-0.475954634
0.4773541298
-0.01142089785
-0.4755046582
0.01287260404
0.4769806006
-0.0143485464
-0.4749013533
0.01585930648
0.4764510337
-0.008778839323
-0.008630147487
-0.2368963909
0.009580268046
0.2373018975
-0.009985774658
-0.2224886187
0.0159333066
0.2325459532
-0.0260076141
-0.2019890552
0.05401732318
0.2100378097
-0.06212452911
-0.2024746682
0.0802318092
0.2048614595
-0.0826736172
-0.2138758684
0.08965602359
0.2177649028
-0.0935660693
-0.2427038001
0.0933630278
0.2407392376
-0.0913756979
-0.2569798186
0.0803643356
0.2516533235
-0.07498289999
-0.2543126476
0.05399258725
0.246011009
-0.04563860567
-0.2294903356
0.01817704964
0.2237467612
-0.01242771853
-0.2232843556
0.01112727017
0.2228656253
-0.0107085399
0.00946395465
-0.2226733016
0.2222618847
-0.009052537806
-0.4446215387
0.01558594347
0.4431183939
-0.01408279869
-0.4442915083
0.01261996734
0.4428539447
-0.01118240365
-0.01423783861
0.8825144167
0.009588000632
0.009790573483
-0.009353984303
0.881914635
-0.00182319137
0.8815750904
0.8813065315
-0.00456693669
0.962976809
-0.009189210979
0.9629464742
-0.0139062534
0.9627398074
-0.009509847471
0.9624264441
-0.009268518951
-0.4786780623
0.4799631246
-0.01079490978
-0.4783750219
0.01211107758
0.4796938368
-0.01342989252
-0.4778929551
0.01475739219
0.4792292722
-0.008120321879
-0.007973387428
-0.2384094929
0.00880720968
0.2387460235
-0.009143740266
-0.2373462365
0.01013570322
0.237669561
-0.01045902772
-0.2353198946
0.01140908322
0.2364189873
-0.01250893507
-0.2150378582
0.02871233049
0.2195229121
-0.03320885412
-0.2260931601
0.04570421066
0.2280458923
-0.04766263074
-0.2335198812
0.04602751127
0.2309986839
-0.04349850057
-0.2337695093
0.03038278256
0.2277962746
-0.02439971814
-0.2240288344
0.01227596995
0.2237830166
-0.01203015217
-0.2226875449
0.01119820224
0.2223849568
-0.0108956142
-0.2217498077
0.009937722033
0.2214193645
-0.009607278929
0.008602036203
-0.2211562711
0.2208156819
-0.008261447062
-0.4417174363
0.0143576475
0.440415329
-0.01305554021
-0.4415257399
0.01176658256
0.4402403583
-0.01048120093
-0.01344528642
0.8777755762
0.008964640396
0.009219486426
-0.008871556337
0.8773409049
-0.00440432884
0.877107863
0.8769022026
-0.004311089934
0.967287899
-0.008657180886
0.9672925652
-0.01305460251
0.967137229
-0.00890274796
0.9669097994
-0.008635209764
-0.4811698833
0.4823393005
-0.0100721651
-0.4809328735
0.0112535138
0.4821004028
-0.01242104313
-0.4804664181
0.01357865295
0.4816107331
-0.007424436272
-0.007298531741
-0.2396650226
0.008016811181
0.2399447687
-0.008296557344
-0.2385393782
0.009105729692
0.2387992001
-0.009365551603
-0.2371306177
0.01010130299
0.2373253434
-0.01029602866
-0.2224580726
0.01027544709
0.2224571624
-0.01027453696
-0.2304944101
0.01142326595
0.2305657858
-0.01149464171
-0.2279040734
0.01150378641
0.2278703187
-0.01147003169
-0.2252669723
0.01123171619
0.2251472254
-0.0111119693
-0.2231426805
0.01064787263
0.2229566673
-0.01046185939
-0.2215871139
0.009825496864
0.2213527468
-0.009591129785
-0.2205332113
0.008837448677
0.2202688069
-0.008573044345
0.00775354953
-0.2199007117
0.2196162359
-0.007469073703
-0.4392062176
0.01308902396
0.4380843207
-0.01196712714
-0.439059581
0.01083942121
0.4379196427
-0.00969948293
-0.01253252264
0.8734559108
0.008286673548
0.008565514544
-0.008302968671
0.8731113509
-0.004131727803
0.8729366221
0.8727704748
-0.004028101152
0.9713160001
-0.008074101889
0.9713385659
-0.01213638571
0.9711995129
-0.008252355167
0.9710016072
-0.007975838412
-0.4834282213
0.4844850334
-0.009309167228
-0.4831942125
0.01036329373
0.4842234427
-0.0113925239
-0.4826687944
0.01239975326
0.4836461362
-0.006740467654
-0.006636627369
-0.2407102065
0.007253175851
0.2409441175
-0.007487086847
-0.2395014635
0.00815402168
0.2397127906
-0.008365348754
-0.2378155372
0.008942604141
0.2379518641
-0.009078931022
-0.2225453119
0.009002719913
0.2225991818
-0.009056589805
-0.2307117024
0.009949166219
0.2307447342
-0.009982198057
-0.2277723001
0.009966370022
0.2277401162
-0.009934186074
-0.2248293529
0.00973885727
0.224734777
-0.00964428138
-0.2224644281
0.009281321451
0.222319055
-0.009135948352
-0.2207275619
0.008635696426
0.2205417579
-0.008449892515
-0.219554529
0.007845475324
0.2193397792
-0.007630725562
0.00695524043
-0.2188550426
0.2186157021
-0.006715899922
-0.437042595
0.0118528347
0.4360752846
-0.01088552428
-0.4368761858
0.00990095173
0.4358688072
-0.008893573169
-0.01156758036
0.8695493046
0.007596052946
0.007878133564
-0.007691196476
0.869234967
-0.003835214698
0.8690806403
0.8689352601
-0.003733366734
0.9750493669
-0.007470910979
0.9750761102
-0.01119804073
0.9749266426
-0.007591553535
0.9747151011
-0.007319981036
-0.4854620871
0.4864125971
-0.008542063515
-0.4851867393
0.009479960686
0.4860929827
-0.01038620407
-0.4845532359
0.01126444971
0.4853954139
-0.006101728052
-0.00600489968
-0.2415860164
0.006538310488
0.2417828857
-0.006735179777
-0.2402885439
0.007291700538
0.2404630784
-0.007466235008
-0.2382931769
0.007924617908
0.2383871429
-0.008018583985
-0.2228193536
0.007926857711
0.2229092631
-0.008016767285
-0.2308127196
0.008718038611
0.2308274446
-0.008732763614
-0.2276444767
0.008696971114
0.2276128307
-0.008665325119
-0.2244779613
0.0084975332
0.2244000251
-0.008419597017
-0.221928489
0.008125491989
0.2218114586
-0.008008461602
-0.2200407774
0.007605287942
0.2198903491
-0.007454859689
-0.2187554271
0.006961618571
0.218578533
-0.006784724469
0.006222113299
-0.2179774542
0.2177752778
-0.006019936904
-0.4351760359
0.01068600767
0.434338917
-0.009848888696
-0.4349488531
0.008988744217
0.4340598448
-0.008099735913
-0.01059861167
0.8660327389
0.006921545022
0.007193632443
-0.007068712924
0.8657050683
-0.003531251315
0.8655431787
0.8654040088
-0.00343983628
0.9784892032
-0.00687328128
0.9785095552
-0.01027694957
0.9783303109
-0.006947537513
0.9780737931
-0.006688104117
-0.4872868659
0.4881398486
-0.007800520194
-0.4869413
0.008634519509
0.4877398262
-0.009433045751
-0.4861782563
0.01019976929
0.4869068408
-0.005508863027
-0.005419490806
-0.242325963
0.005884017337
0.2424934247
-0.006051479026
-0.2409418154
0.006521853312
0.2410878086
-0.006667846474
-0.2386198176
0.00703390348
0.2386830887
-0.007097174519
-0.2232175336
0.007015982778
0.2233306269
-0.007129076138
-0.2308543101
0.007680947535
0.2308585349
-0.007685172409
-0.227518659
0.007636595393
0.2274875806
-0.007605516959
-0.2241849356
0.007457318127
0.2241187258
-0.007391108311
-0.2214928527
0.007145899299
0.2213961905
-0.007049237056
-0.219480751
0.00671696893
0.2193565963
-0.006592814225
-0.2180938553
0.006183646436
0.2179461329
-0.006035924072
0.005562197129
-0.217236605
0.2170647282
-0.005390320324
-0.4335587133
0.009611549849
0.4328314125
-0.008884248977
-0.4332485353
0.008130838554
0.4324632013
-0.007345504562
-0.009662133345
0.8628750056
0.006281997549
0.00653786902
-0.006461021997
0.862503957
-0.003232861264
0.862315018
0.8621711475
-0.003156107558
0.9816453108
-0.006298026148
0.9816514738
-0.00939690391
0.9814291887
-0.006335664072
0.9811062414
-0.006093688054
-0.4889213615
0.4896862445
-0.007100547077
-0.4884878836
0.007842599055
0.4891928827
-0.008547598136
-0.4875858794
0.009219153456
0.4882195182
-0.004968135159
-0.004884657098
-0.242957605
0.005292927467
0.2431015061
-0.005436828567
-0.2414902026
0.005838938664
0.241613481
-0.005962217047
-0.2388380187
0.006255870646
0.2388796685
-0.006297520456
-0.2236917969
0.006240214968
0.2238175822
-0.006366000224
-0.2308601289
0.006800761468
0.230857508
-0.006798140571
-0.2273954644
0.006741666351
0.2273651803
-0.006711382284
-0.2239339153
0.006578245971
0.2238764331
-0.006520763716
-0.2211301995
0.006311746159
0.2210486591
-0.00623020572
-0.2190156518
0.005951086105
0.2189114218
-0.005846856086
-0.2175387885
0.005502323968
0.2174138166
-0.005377352118
0.004974021719
-0.2166054157
0.2164579356
-0.004826541626
-0.432152249
0.00863591756
0.4315176662
-0.008001334722
-0.4317465709
0.007339218285
0.4310515281
-0.006644175538
-0.00877988817
0.8600420068
0.005688753076
0.0059241339
-0.00588400685
0.8596080756
-0.002948273699
0.8593792848
0.8592228739
-0.00288845678
0.9845337675
-0.005757243236
0.9845202603
-0.00857455778
0.9842465032
-0.005766261174
0.9838434248
-0.005545480016
-0.4903851029
0.4910713119
-0.006452470104
-0.4898541512
0.007113799507
0.4904783492
-0.007737997548
-0.4888117149
0.00832869412
0.4893659345
-0.004478890974
-0.004404022763
-0.2435021071
0.004762008569
0.2436269083
-0.004886809747
-0.2419543858
0.005233790917
0.2420591875
-0.005338592584
-0.238980588
0.005575311853
0.2390074501
-0.005602173965
-0.2242043039
0.005573975584
0.2243350452
-0.005704716878
-0.2308419739
0.00604734672
0.2308345787
-0.006039951547
-0.2272757668
0.005978745834
0.2272464586
-0.005949437631
-0.2237146995
0.005828504091
0.2236640096
-0.00577781421
-0.2208223762
0.005596603831
0.2207524247
-0.005526652326
-0.218623141
0.005288446775
0.2185343625
-0.005199668291
-0.2170672912
0.004905784586
0.2169603528
-0.004798846251
0.004452018081
-0.2160626659
0.2159350529
-0.004324405105
-0.4309235543
0.007761169361
0.430366942
-0.007204557059
-0.4304169376
0.006620296638
0.4298000833
-0.006003442334
-0.0079659241
0.8574988663
0.005148506997
0.005360557636
-0.005348313441
0.856990465
-0.002683113268
0.8567140847
0.8565397606
-0.002640358161
0.9871741257
-0.005257388758
0.9871372909
-0.007818120373
0.9868072348
-0.005244974093
0.9863160691
-0.005045790618
-0.491697221
0.4923138428
-0.005861595882