/*--------------------------------*- C++ -*----------------------------------*\
| =========                 |                                                 |
| \\      /  F ield         | OpenFOAM: The Open Source CFD Toolbox           |
|  \\    /   O peration     | Version:  v1912                                 |
|   \\  /    A nd           | Website:  www.openfoam.com                      |
|    \\/     M anipulation  |                                                 |
\*---------------------------------------------------------------------------*/
FoamFile
{
    version     2.0;
    format      ascii;
    class       pointVectorField;
    location    "1.67";
    object      pointDisplacement;
}
// * * * * * * * * * * * * * * * * * * * * * * * * * * * * * * * * * * * * * //

dimensions      [0 1 0 0 0 0 0];


internalField   nonuniform List<vector> 
26316
(
(0 0 0)
(0 0 0)
(0 0 0)
(0 0 0)
(0 0 0)
(0 0 0)
(0 0 0)
(0 0 0)
(0 0 0)
(0 0 0)
(0 0 0)
(0 0 0)
(0 0 0)
(0 0 0)
(0 0 0)
(0 0 0)
(0 0 0)
(0 0 0)
(0 0 0)
(0 0 0)
(0 0 0)
(0 0 0)
(0 0 0)
(0 0 0)
(0 0 0)
(0 0 0)
(0 0 0)
(0 0 0)
(0 0 0)
(0 0 0)
(0 0 0)
(0 0 0)
(0 0 0)
(0 0 0)
(0 0 0)
(0 0 0)
(0 0 0)
(0 0 0)
(0 0 0)
(0 0 0)
(0 0 0)
(0 0 0)
(0 0 0)
(0 0 0)
(0 0 0)
(0 0 0)
(0 0 0)
(0 0 0)
(0 0 0)
(0 0 0)
(0 0 0)
(0 0 0)
(0 0 0)
(0 0 0)
(0 0 0)
(0 0 0)
(0 0 0)
(0 0 0)
(0 0 0)
(0 0 0)
(0 0 0)
(0 0 0)
(0 0 0)
(0 0 0)
(0 0 0)
(0 0 0)
(0 0 0)
(0 0 0)
(0 0 0)
(0 0 0)
(0 0 0)
(0 0 0)
(0 0 0)
(0 0 0)
(0 0 0)
(0 0 0)
(0 0 0)
(0 0 0)
(0 0 0)
(0 0 0)
(0 0 0)
(0 0 0)
(0 0 0)
(0 0 0)
(0 0 0)
(0 0 0)
(0 0 0)
(0 0 0)
(0 0 0)
(0 0 0)
(0 0 0)
(0 0 0)
(0 0 0)
(0 0 0)
(0 0 0)
(0 0 0)
(0 0 0)
(0 0 0)
(0 0 0)
(0 0 0)
(0 0 0)
(0 0 0)
(0 0 0)
(0 0 0)
(0 0 0)
(0 0 0)
(0 0 0)
(0 0 0)
(0 0 0)
(0 0 0)
(0 0 0)
(0 0 0)
(0 0 0)
(0 0 0)
(0 0 0)
(0 0 0)
(0 0 0)
(0 0 0)
(0 0 0)
(-2.571792632e-07 1.386918234e-05 2.775557562e-17)
(0 0 0)
(0 0 0)
(-1.422463809e-07 0.0001553568301 3.330669074e-16)
(6.5491322e-07 0.000132062562 2.91433544e-16)
(0 0 0)
(0 0 0)
(0 0 0)
(0 0 0)
(0 0 0)
(0 0 0)
(0 0 0)
(0 0 0)
(0 0 0)
(0 0 0)
(0 0 0)
(0 0 0)
(0 0 0)
(0 0 0)
(0 0 0)
(0 0 0)
(0 0 0)
(0 0 0)
(0 0 0)
(0 0 0)
(0 0 0)
(0 0 0)
(0 0 0)
(0 0 0)
(0 0 0)
(0 0 0)
(0 0 0)
(0 0 0)
(0 0 0)
(0 0 0)
(0 0 0)
(0 0 0)
(0 0 0)
(0 0 0)
(0 0 0)
(0 0 0)
(0 0 0)
(0 0 0)
(0 0 0)
(0 0 0)
(0 0 0)
(0 0 0)
(0 0 0)
(0 0 0)
(0 0 0)
(0 0 0)
(0 0 0)
(0 0 0)
(0 0 0)
(0 0 0)
(0 0 0)
(0 0 0)
(0 0 0)
(0 0 0)
(0 0 0)
(0 0 0)
(0 0 0)
(0 0 0)
(0 0 0)
(0 0 0)
(0 0 0)
(-1.602237912e-05 0.0002193816378 4.857225733e-16)
(-9.221909767e-05 0.001376069358 3.080868893e-15)
(-1.205727907e-06 1.808990831e-05 4.163336342e-17)
(-0.0001751568815 0.003596854614 8.007483565e-15)
(-0.0004352230494 0.008895599858 1.99146255e-14)
(-0.0005167787031 0.01204891594 2.69784195e-14)
(-0.0002408087573 0.00563894347 1.255939797e-14)
(-0.0002937971123 0.01188217005 2.645106356e-14)
(-0.0005160354998 0.02081621549 4.660161146e-14)
(-0.000431595107 0.0230015456 5.150047055e-14)
(-0.0002533715181 0.01352220991 3.010092176e-14)
(-1.258595452e-05 0.01581561788 3.520794767e-14)
(-1.861989781e-05 0.02600305964 5.821731985e-14)
(0.0001357271435 0.02566836401 5.746791931e-14)
(8.05082557e-05 0.01555682759 3.463895837e-14)
(0.0002750380641 0.01192572918 2.654820808e-14)
(0.0004857348812 0.02087717575 4.674038934e-14)
(0.0005335549581 0.01824136172 4.084232952e-14)
(0.0002896924421 0.0099831746 2.223221607e-14)
(0.0001707717927 0.003642672963 8.10462808e-15)
(0.0004234058282 0.008972670417 2.009503675e-14)
(0.0003187327036 0.005994756437 1.341982081e-14)
(9.979767472e-05 0.001888736855 4.218847494e-15)
(0 0 0)
(1.680735977e-05 0.0002362594065 5.273559367e-16)
(0 0 0)
(0 0 0)
(0 0 0)
(0 0 0)
(0 0 0)
(0 0 0)
(0 0 0)
(0 0 0)
(0 0 0)
(0 0 0)
(0 0 0)
(0 0 0)
(0 0 0)
(0 0 0)
(0 0 0)
(0 0 0)
(0 0 0)
(0 0 0)
(0 0 0)
(0 0 0)
(0 0 0)
(0 0 0)
(0 0 0)
(0 0 0)
(0 0 0)
(0 0 0)
(0 0 0)
(0 0 0)
(0 0 0)
(0 0 0)
(0 0 0)
(0 0 0)
(0 0 0)
(0 0 0)
(0 0 0)
(0 0 0)
(0 0 0)
(0 0 0)
(0 0 0)
(0 0 0)
(0 0 0)
(0 0 0)
(0 0 0)
(0 0 0)
(0 0 0)
(0 0 0)
(-4.474834941e-05 0.0004506252276 1.026956298e-15)
(-0.0002444707899 0.002624802662 6.009082121e-15)
(-5.79045712e-05 0.0006251781413 1.415534356e-15)
(-0.0008266616744 0.01114105131 2.536859611e-14)
(-0.001322530206 0.01773376933 4.062028491e-14)
(-0.001688047048 0.02468802822 5.653810753e-14)
(-0.001136936551 0.01670923566 3.805289417e-14)
(-0.001771115322 0.03574085432 8.137934771e-14)
(-0.002344717345 0.04711985566 1.07913678e-13)
(-0.002361204902 0.05420543126 1.241229342e-13)
(-0.001821753159 0.04198210538 9.559020242e-14)
(-0.001432785615 0.05745035707 1.308120279e-13)
(-0.0017835147 0.07135969751 1.634109514e-13)
(-0.001416040991 0.07524495597 1.723066134e-13)
(-0.001147267983 0.06101978071 1.389444115e-13)
(-2.861416523e-05 0.06577644855 1.497968416e-13)
(-2.784340688e-05 0.08037921496 1.840888553e-13)
(0.0004624669206 0.07982108058 1.828120988e-13)
(0.0003700246015 0.06525667948 1.486033518e-13)
(0.00137784092 0.05755815476 1.310895836e-13)
(0.001727227343 0.07147815419 1.637301406e-13)
(0.002016910674 0.06662626884 1.526279103e-13)
(0.001594634141 0.05313229902 1.210143097e-13)
(0.001731301865 0.0359162323 8.179568134e-14)
(0.002297944034 0.04732364213 1.083994006e-13)
(0.002179177382 0.03987890386 9.134359935e-14)
(0.001598476471 0.02945884224 6.709910405e-14)
(0.0008174050627 0.01128348514 2.570166302e-14)
(0.001306569907 0.01792106577 4.105049634e-14)
(0.0009241754053 0.01169801688 2.679800826e-14)
(0.0005133134487 0.0065379175 1.489086632e-14)
(0 0 0)
(4.442181922e-05 0.0004555778258 1.040834086e-15)
(0 0 0)
(0 0 0)
(0 0 0)
(0 0 0)
(0 0 0)
(0 0 0)
(0 0 0)
(0 0 0)
(0 0 0)
(0 0 0)
(0 0 0)
(0 0 0)
(0 0 0)
(0 0 0)
(0 0 0)
(0 0 0)
(0 0 0)
(0 0 0)
(0 0 0)
(0 0 0)
(0 0 0)
(0 0 0)
(0 0 0)
(0 0 0)
(0 0 0)
(0 0 0)
(0 0 0)
(0 0 0)
(0 0 0)
(0 0 0)
(0 0 0)
(0 0 0)
(0 0 0)
(0 0 0)
(0 0 0)
(0 0 0)
(0 0 0)
(0 0 0)
(0 0 0)
(-1.925203278e-05 0.0001591296387 3.60822483e-16)
(0 0 0)
(-0.0008196749053 0.00811323801 1.890154699e-14)
(-0.001218402256 0.01197199369 2.806088695e-14)
(-0.001907242221 0.02000535448 4.690692279e-14)
(-0.001400207405 0.01478514893 3.445854713e-14)
(-0.003204485239 0.04231641238 9.860168237e-14)
(-0.003889962274 0.05109681635 1.19751431e-13)
(-0.004353041546 0.06239987842 1.462441279e-13)
(-0.003660975209 0.05275251187 1.229155666e-13)
(-0.004179240642 0.08287125636 1.93067784e-13)
(-0.004766454276 0.09404662305 2.203792704e-13)
(-0.004562151151 0.1029002355 2.411404409e-13)
(-0.004039644828 0.09156270738 2.133293542e-13)
(-0.002804707984 0.1111587629 2.589872761e-13)
(-0.003098801836 0.1222534936 2.865069293e-13)
(-0.002402316645 0.1262067962 2.957772915e-13)
(-0.002185349589 0.1153060531 2.68673972e-13)
(-1.963210189e-05 0.1206031994 2.810390809e-13)
(-1.830721265e-05 0.1311535105 3.074207555e-13)
(0.0008028160498 0.1306302346 3.06213388e-13)
(0.0007304730875 0.12003745 2.797345688e-13)
(0.002758105816 0.1112813383 2.593758541e-13)
(0.003054606034 0.122364981 2.868955074e-13)
(0.003659596056 0.1171996255 2.747940764e-13)
(0.003284829571 0.1059532483 2.469691118e-13)
(0.004123916295 0.08312050817 1.937616734e-13)
(0.004710770833 0.09423572433 2.209760153e-13)
(0.004744648891 0.08439415933 1.978972541e-13)
(0.004107840581 0.0736145011 1.71612724e-13)
(0.003153936953 0.04230689482 9.861556016e-14)
(0.003928133609 0.0521630241 1.223465773e-13)
(0.003390052377 0.04152870065 9.740819262e-14)
(0.002688399746 0.03321002442 7.742417818e-14)
(0.0009338118785 0.009369752743 2.184363801e-14)
(0.001395236409 0.01390965258 3.262667914e-14)
(0.0007876614209 0.007393077883 1.734723476e-14)
(0.0004501955769 0.004252317273 9.922618283e-15)
(0 0 0)
(0 0 0)
(0 0 0)
(0 0 0)
(0 0 0)
(0 0 0)
(0 0 0)
(0 0 0)
(0 0 0)
(0 0 0)
(0 0 0)
(0 0 0)
(0 0 0)
(0 0 0)
(0 0 0)
(0 0 0)
(0 0 0)
(0 0 0)
(0 0 0)
(0 0 0)
(0 0 0)
(0 0 0)
(0 0 0)
(0 0 0)
(0 0 0)
(0 0 0)
(0 0 0)
(0 0 0)
(0 0 0)
(0 0 0)
(0 0 0)
(0 0 0)
(0 0 0)
(0 0 0)
(0 0 0)
(-8.898257141e-05 0.0006864009697 1.637578961e-15)
(-0.0002023637606 0.00155144624 3.719247132e-15)
(-0.0007188551076 0.005798363977 1.393329896e-14)
(-0.0004832620947 0.003921906567 9.36750677e-15)
(-0.002842793012 0.02736298768 6.530886942e-14)
(-0.003363380848 0.03217864171 7.727152251e-14)
(-0.004338083392 0.04425593271 1.06276099e-13)
(-0.003760619351 0.03859804811 9.212075547e-14)
(-0.005952015901 0.07634910383 1.821875983e-13)
(-0.006573565557 0.08373139603 2.010058786e-13)
(-0.006936261093 0.09634736438 2.312872116e-13)
(-0.006340267873 0.08876226683 2.117750419e-13)
(-0.006297713448 0.1217004887 2.902816876e-13)
(-0.006685016475 0.1279623177 3.070738108e-13)
(-0.006185209253 0.1354536826 3.25045546e-13)
(-0.005848037802 0.1292092838 3.081979116e-13)
(-0.003729399028 0.1443386483 3.443079155e-13)
(-0.003849135072 0.147446527 3.538280779e-13)
(-0.002917091534 0.1488452856 3.572003804e-13)
(-0.002847148453 0.1466661712 3.498729084e-13)
(-2.969755011e-05 0.1489702875 3.554379013e-13)
(-3.871159105e-05 0.1496114687 3.591016373e-13)
(0.0009255722306 0.1495805143 3.59060004e-13)
(0.0009225937211 0.1487568575 3.549521788e-13)
(0.003696518322 0.1445694687 3.450295605e-13)
(0.003802230057 0.1475706972 3.543276783e-13)
(0.004679249451 0.1451249105 3.484851296e-13)
(0.004519246107 0.1411518493 3.369110546e-13)
(0.00625537144 0.121852765 2.909200658e-13)
(0.006653197193 0.128270473 3.081424005e-13)
(0.006990601189 0.1197765337 2.877836858e-13)
(0.006506529541 0.1124031892 2.68410294e-13)
(0.006040278917 0.0784489834 1.873501354e-13)
(0.006655718828 0.08588265217 2.063627047e-13)
(0.006103894974 0.07279113756 1.749017597e-13)
(0.00547574947 0.06572508569 1.569577801e-13)
(0.00299032984 0.02924090553 6.981915046e-14)
(0.003524185213 0.0342401806 8.225364834e-14)
(0.002542272378 0.02326079578 5.587197371e-14)
(0.002083203232 0.01918331061 4.579669977e-14)
(0.0001376446018 0.001078116515 2.581268532e-15)
(0.0002364570618 0.00184015155 4.413136523e-15)
(6.003137127e-06 4.449099916e-05 1.110223025e-16)
(0 0 0)
(0 0 0)
(0 0 0)
(0 0 0)
(0 0 0)
(0 0 0)
(0 0 0)
(0 0 0)
(0 0 0)
(0 0 0)
(0 0 0)
(0 0 0)
(0 0 0)
(0 0 0)
(0 0 0)
(0 0 0)
(0 0 0)
(0 0 0)
(0 0 0)
(0 0 0)
(0 0 0)
(0 0 0)
(0 0 0)
(0 0 0)
(0 0 0)
(0 0 0)
(0 0 0)
(0 0 0)
(0 0 0)
(-8.46926353e-06 5.726845924e-05 1.387778781e-16)
(-2.311026797e-07 1.572735473e-06 0)
(0 0 0)
(-0.0006353460569 0.004780935734 1.169897512e-14)
(-0.0008019211391 0.005996684911 1.476596623e-14)
(-0.00166396601 0.01309150383 3.222422329e-14)
(-0.001419624073 0.01123939534 2.749189765e-14)
(-0.004614936821 0.04333281795 1.059846655e-13)
(-0.005022925484 0.04686350606 1.153244167e-13)
(-0.006104271397 0.06071826435 1.493943858e-13)
(-0.005784351936 0.05791317351 1.416228246e-13)
(-0.008013890984 0.1001046914 2.447486658e-13)
(-0.008341383379 0.1034900095 2.545880173e-13)
(-0.008568752812 0.1158401078 2.849526171e-13)
(-0.008273776305 0.1126286763 2.753491879e-13)
(-0.007491291063 0.1394851603 3.41005002e-13)
(-0.00763970711 0.1411182766 3.471389842e-13)
(-0.006882348056 0.1447773174 3.561456685e-13)
(-0.006795763072 0.1442479924 3.526345882e-13)
(-0.003992792904 0.1469267326 0)
(-0.004041025951 0.145992014 0)
(-0.003555183966 0.1459952741 0)
(-0.003043012934 0.1460193851 0)
(-0.003014835916 0.1464820452 0)
(-0.003005652955 0.146933679 0)
(-6.800500872e-05 0.1469211113 0)
(-7.275913728e-05 0.1464719747 0)
(0.0004192912517 0.14646716 0)
(0.00042138007 0.1469162826 0)
(0.003888287789 0.1468424212 0)
(0.003898090128 0.1463809806 0)
(0.003911306686 0.1459123564 0)
(0.004400632599 0.1458930649 0)
(0.004882947171 0.1458827396 0)
(0.004871453769 0.1468092986 0)
(0.007428213422 0.1403082991 3.433642259e-13)
(0.007550595275 0.1418182497 3.492206524e-13)
(0.008141470142 0.1361232377 3.352179645e-13)
(0.007959156547 0.133854945 3.275851812e-13)
(0.008086181567 0.102375442 2.505773367e-13)
(0.008380750398 0.1054127399 2.596395321e-13)
(0.007965816614 0.0925698955 2.279981759e-13)
(0.00760232195 0.08892909757 2.17659224e-13)
(0.004921085014 0.0468762029 1.147276718e-13)
(0.005382211055 0.05094213749 1.254552018e-13)
(0.004243650294 0.03782766427 9.314771177e-14)
(0.0038220152 0.03428727019 8.390510509e-14)
(0.000852156573 0.006506191669 1.591782262e-14)
(0.001065131871 0.008080788038 1.990074772e-14)
(0.000381667171 0.002758233569 6.786238238e-15)
(0.0002596873241 0.001888620462 4.62130334e-15)
(0 0 0)
(0 0 0)
(0 0 0)
(0 0 0)
(0 0 0)
(0 0 0)
(0 0 0)
(0 0 0)
(0 0 0)
(0 0 0)
(0 0 0)
(0 0 0)
(0 0 0)
(0 0 0)
(0 0 0)
(0 0 0)
(0 0 0)
(0 0 0)
(0 0 0)
(0 0 0)
(0 0 0)
(0 0 0)
(0 0 0)
(0 0 0)
(0 0 0)
(0 0 0)
(0 0 0)
(0 0 0)
(-7.631281336e-05 0.000502925688 1.276756478e-15)
(-4.348843418e-05 0.0002884577156 7.21644966e-16)
(-3.557732903e-05 0.0002374923552 5.967448757e-16)
(-0.001152222773 0.008450975282 2.120525977e-14)
(-0.001194941713 0.008707665339 2.198241589e-14)
(-0.002212761853 0.01696322149 4.281297539e-14)
(-0.002154439208 0.01662408992 4.168887457e-14)
(-0.005800145273 0.05304856467 1.330185961e-13)
(-0.005891448197 0.05352663464 1.350725087e-13)
(-0.007016795126 0.06794754735 1.714461906e-13)
(-0.006920140791 0.0674596945 1.691424778e-13)
(-0.008996975149 0.1092776789 2.739475313e-13)
(-0.00908418318 0.1095785973 2.764455331e-13)
(-0.009208823103 0.120968488 3.051864317e-13)
(-0.009132157575 0.1208090156 3.028410855e-13)
(-0.007855065473 0.14171888 3.552713679e-13)
(-0.007884430628 0.1411618948 3.561595463e-13)
(-0.006990593577 0.1423307528 0)
(-0.006979684398 0.1432432431 3.591016373e-13)
(-0.004102501469 0.1432254545 0)
(-0.00411006338 0.1427620416 0)
(-0.003630817381 0.1427597833 0)
(-0.003623305184 0.1432224666 0)
(0.003914214252 0.1431549722 0)
(0.003912122785 0.1426959976 0)
(0.004391193547 0.1426890679 0)
(0.004393782356 0.1431473578 0)
(0.007714275223 0.1423910849 3.573530361e-13)
(0.007724043988 0.141829044 3.582134589e-13)
(0.00850371581 0.1389367473 3.509414981e-13)
(0.008463797631 0.1390283108 3.489430966e-13)
(0.00920555766 0.113724757 2.854522174e-13)
(0.009319804975 0.1144779867 2.891853423e-13)
(0.009004190701 0.102159184 2.580574643e-13)
(0.008873794047 0.1012698286 2.541855615e-13)
(0.006320402675 0.05871558798 1.473543509e-13)
(0.006464095248 0.0596844346 1.507405312e-13)
(0.005251168751 0.04565074054 1.152966611e-13)
(0.005115533467 0.04474816077 1.122851812e-13)
(0.001545417247 0.01150235676 2.885192085e-14)
(0.0017451665 0.01290610538 3.258504577e-14)
(0.0008324340873 0.005864054356 1.480759959e-14)
(0.0006852737748 0.004858448079 1.21846977e-14)
(0 0 0)
(0 0 0)
(0 0 0)
(0 0 0)
(0 0 0)
(0 0 0)
(0 0 0)
(0 0 0)
(0 0 0)
(0 0 0)
(0 0 0)
(0 0 0)
(0 0 0)
(0 0 0)
(0 0 0)
(0 0 0)
(0 0 0)
(0 0 0)
(0 0 0)
(0 0 0)
(0 0 0)
(0 0 0)
(0 0 0)
(0 0 0)
(0 0 0)
(0 0 0)
(0 0 0)
(0 0 0)
(-0.0001252712499 0.0008043616316 2.109423747e-15)
(-0.0001131452367 0.0007312868679 1.887379142e-15)
(-9.926067786e-05 0.0006457490209 1.665334537e-15)
(-0.0014196963 0.01014562556 2.611799665e-14)
(-0.001467974257 0.01042260525 2.700617507e-14)
(-0.002560024766 0.01912042905 4.95159469e-14)
(-0.002499723752 0.01879242785 4.836409051e-14)
(-0.006255109576 0.05571317932 1.433297925e-13)
(-0.006329161165 0.05599720543 1.44995127e-13)
(-0.007442057843 0.07015686162 1.816602424e-13)
(-0.00737030898 0.0699516461 1.799532745e-13)
(-0.009333623633 0.110249432 2.835648383e-13)
(-0.00938437255 0.110070956 2.849526171e-13)
(-0.009450601711 0.120654673 3.12361248e-13)
(-0.009409486505 0.1209923439 3.111955138e-13)
(-0.007941611316 0.1389924234 3.575195695e-13)
(-0.007954714457 0.1381742311 3.577416141e-13)
(-0.007026382342 0.1386939388 0)
(-0.007018026479 0.1396008854 0)
(-0.004145492663 0.1395714274 0)
(-0.00414994717 0.1391176416 0)
(-0.003671926539 0.1391128062 0)
(-0.003667408971 0.1395665913 0)
(0.003886594714 0.1394933491 0)
(0.003881901945 0.139036896 0)
(0.004359833635 0.139031599 0)
(0.004364608054 0.13948782 0)
(0.007713683431 0.1394296167 3.59060004e-13)
(0.007703933306 0.1385354351 3.591016373e-13)
(0.008562624074 0.1369344976 3.549938121e-13)
(0.008560074986 0.1376237713 3.544387006e-13)
(0.009614579374 0.1160738001 2.989691827e-13)
(0.009665739735 0.1160233698 3.008010507e-13)
(0.009442761779 0.1046436722 2.712829961e-13)
(0.009374901118 0.1045025302 2.691596945e-13)
(0.006979611427 0.06326223005 1.629113511e-13)
(0.007082334872 0.06379742894 1.653677195e-13)
(0.0058788755 0.04984883001 1.292022045e-13)
(0.005772683066 0.04925533453 1.268291028e-13)
(0.002001387 0.01452273177 3.738676035e-14)
(0.00208284071 0.0150171967 3.891331701e-14)
(0.001074136825 0.007376250882 1.910971381e-14)
(0.00101260795 0.006998657979 1.801336857e-14)
(0 0 0)
(0 0 0)
(0 0 0)
(0 0 0)
(0 0 0)
(0 0 0)
(0 0 0)
(0 0 0)
(0 0 0)
(0 0 0)
(0 0 0)
(0 0 0)
(0 0 0)
(0 0 0)
(0 0 0)
(0 0 0)
(0 0 0)
(0 0 0)
(0 0 0)
(0 0 0)
(0 0 0)
(0 0 0)
(0 0 0)
(0 0 0)
(0 0 0)
(0 0 0)
(0 0 0)
(0 0 0)
(-0.000184789944 0.001155341713 3.094746681e-15)
(-0.0001666010986 0.001048634263 2.789435349e-15)
(-0.0001504064451 0.0009530570862 2.525757381e-15)
(-0.001588109554 0.01105506521 2.921274334e-14)
(-0.001636771387 0.01131804112 3.010092176e-14)
(-0.002768669453 0.02013726741 5.355438315e-14)
(-0.002708913461 0.01983514504 5.240252676e-14)
(-0.006510440345 0.05644406061 1.490751966e-13)
(-0.006582119722 0.05667554018 1.5068502e-13)
(-0.007686869815 0.07050340553 1.874334021e-13)
(-0.007617735048 0.07035513421 1.857958232e-13)
(-0.009509603189 0.109185293 2.882971639e-13)
(-0.009557755337 0.1089506917 2.896155538e-13)
(-0.009591372574 0.1189560018 3.16219273e-13)
(-0.009552670793 0.1193446376 3.151368055e-13)
(-0.007988951698 0.1356461616 3.582134589e-13)
(-0.008000280499 0.1348033939 3.583661146e-13)
(-0.007058338262 0.1350737679 0)
(-0.00705049105 0.1359783234 0)
(-0.004179827141 0.135948969 0)
(-0.004183989827 0.1354969461 0)
(-0.003706619715 0.1354922227 0)
(-0.00370449611 0.1357182547 0)
(-0.003702374495 0.1359440976 0)
(0.003843839512 0.1358457733 0)
(0.003837777533 0.1353910585 0)
(0.004315170654 0.135386524 0)
(0.004321294147 0.1358410911 0)
(0.007667828552 0.1357956934 3.590738817e-13)
(0.007653824699 0.1348648376 3.590183706e-13)
(0.008495370754 0.1330274611 3.541611449e-13)
(0.008518972817 0.1341000278 3.546191119e-13)
(0.009600493679 0.1132724592 2.995659276e-13)
(0.009556685476 0.1121081122 2.984834602e-13)
(0.009324458898 0.1009345678 2.687294831e-13)
(0.009371695467 0.1020462425 2.698674617e-13)
(0.00700254518 0.06191844479 1.637301406e-13)
(0.006955358334 0.06111870839 1.627031843e-13)
(0.005756406865 0.04759809244 1.266903249e-13)
(0.005800388619 0.04826616736 1.276062589e-13)
(0.002026752077 0.01433276421 3.788636072e-14)
(0.002000331711 0.01405418753 3.740063814e-14)
(0.001013283497 0.006779771948 1.804112415e-14)
(0.001031979812 0.006950199858 1.837419106e-14)
(0 0 0)
(0 0 0)
(0 0 0)
(0 0 0)
(0 0 0)
(0 0 0)
(0 0 0)
(0 0 0)
(0 0 0)
(0 0 0)
(0 0 0)
(0 0 0)
(0 0 0)
(0 0 0)
(0 0 0)
(0 0 0)
(0 0 0)
(0 0 0)
(0 0 0)
(0 0 0)
(0 0 0)
(0 0 0)
(0 0 0)
(0 0 0)
(0 0 0)
(0 0 0)
(0 0 0)
(0 0 0)
(-0.0002646285563 0.001609993356 4.427014311e-15)
(-0.0002430015187 0.001488635285 4.066191828e-15)
(-0.0002220833936 0.001369830515 3.719247132e-15)
(-0.001788899429 0.01212111376 3.290423489e-14)
(-0.001842488315 0.01239865851 3.388955783e-14)
(-0.003018550329 0.02136286186 5.838385331e-14)
(-0.002953878705 0.02105012797 5.71348524e-14)
(-0.006801278585 0.05735163073 1.556116347e-13)
(-0.006876796685 0.05757978104 1.573047248e-13)
(-0.007969912492 0.07106246539 1.941224959e-13)
(-0.007897564352 0.07092241501 1.92415528e-13)
(-0.00970296401 0.1082086062 2.935290899e-13)
(-0.009752211167 0.1079550098 2.948613576e-13)
(-0.009746433797 0.1173395858 3.204936316e-13)
(-0.009707369582 0.1177496995 3.194111642e-13)
(-0.008032027117 0.1322373728 3.587685704e-13)
(-0.008041833784 0.1313702382 3.588657149e-13)
(-0.007088782279 0.131453434 0)
(-0.007081328926 0.1323585191 0)
(-0.004212429382 0.1323293095 0)
(-0.004216323225 0.1318768633 0)
(-0.003739773119 0.1318721274 0)
(-0.003737773647 0.13209835 0)
(-0.003735753596 0.1323245303 0)
(0.003791846071 0.1322133047 0)
(0.003784487472 0.1317592342 0)
(0.004261423232 0.131755188 0)
(0.004268885606 0.1322091314 0)
(0.007595002148 0.1318354145 3.581857033e-13)
(0.007565473968 0.130666361 3.574501806e-13)
(0.008316218373 0.1275148094 3.488598299e-13)
(0.008378032289 0.1291413891 3.508859869e-13)
(0.009234557919 0.1064561727 2.892686091e-13)
(0.009045711109 0.103667051 2.836203494e-13)
(0.008782370498 0.09281884441 2.539357613e-13)
(0.008937602661 0.0950304505 2.5821012e-13)
(0.006447829428 0.05559455391 1.510180869e-13)
(0.00628627597 0.05385553675 1.473127176e-13)
(0.005095384509 0.04106186014 1.123129367e-13)
(0.005246370723 0.04255369464 1.155880947e-13)
(0.001635103906 0.01126339433 3.058664433e-14)
(0.001547355573 0.010588116 2.894906537e-14)
(0.0006878613777 0.004481698473 1.225408663e-14)
(0.000746726287 0.004897993396 1.329492072e-14)
(0 0 0)
(0 0 0)
(0 0 0)
(0 0 0)
(0 0 0)
(0 0 0)
(0 0 0)
(0 0 0)
(0 0 0)
(0 0 0)
(0 0 0)
(0 0 0)
(0 0 0)
(0 0 0)
(0 0 0)
(0 0 0)
(0 0 0)
(0 0 0)
(0 0 0)
(0 0 0)
(0 0 0)
(0 0 0)
(0 0 0)
(0 0 0)
(0 0 0)
(0 0 0)
(0 0 0)
(0 0 0)
(-0.000334449028 0.001978445841 5.606626274e-15)
(-0.0003458761367 0.002060605059 5.787037516e-15)
(-0.0003157377369 0.001894358488 5.287437155e-15)
(-0.002017640018 0.01329589968 3.71092046e-14)
(-0.002086120706 0.0136499673 3.83582055e-14)
(-0.003309140652 0.02276854736 6.397660179e-14)
(-0.003227994762 0.02236924673 6.242228956e-14)
(-0.007117607258 0.05832503157 1.627031843e-13)
(-0.007209310929 0.05864605271 1.647570969e-13)
(-0.008286809877 0.07176365162 2.015887457e-13)
(-0.00819972031 0.07153606669 1.995348331e-13)
(-0.009906277991 0.1072136404 2.990108161e-13)
(-0.009963423428 0.1070100213 3.005512506e-13)
(-0.009911958476 0.1157377503 3.250594238e-13)
(-0.009867579353 0.1161151804 3.238243007e-13)
(-0.008068914415 0.1287329684 3.590738817e-13)
(-0.008077214758 0.1278404546 3.591016373e-13)
(-0.007117890761 0.1278341582 0)
(-0.007110628798 0.1287390351 0)
(-0.004242209181 0.1287101669 0)
(-0.004245703201 0.1282577585 0)
(-0.003770055855 0.1282531373 0)
(-0.003768265921 0.1284794251 0)
(-0.003766456735 0.1287055445 0)
(0.003729580518 0.1285895843 0)
(0.003720913339 0.1281370201 0)
(0.004197684915 0.1281333541 0)
(0.004206499235 0.1285859168 0)
(0.007442834003 0.1266444562 3.537725668e-13)
(0.007383624118 0.1250172031 3.517047764e-13)
(0.008000913218 0.1200978113 3.37868622e-13)
(0.008099471346 0.1222297547 3.414490912e-13)
(0.008511805955 0.09580626488 2.676470157e-13)
(0.008370929738 0.09365208875 2.634836793e-13)
(0.007925942818 0.08171323161 2.298716772e-13)
(0.00817552831 0.08481837146 2.369354712e-13)
(0.005556267928 0.04667846376 1.303679387e-13)
(0.005208051436 0.04346194526 1.22235555e-13)
(0.004034872618 0.03166509915 8.905376436e-14)
(0.004384113971 0.0346378023 9.672818102e-14)
(0.001097799095 0.007361077294 2.055300374e-14)
(0.0009587352878 0.006384682144 1.795785742e-14)
(0.0003113254592 0.001973971978 5.551115123e-15)
(0.0003918603848 0.00250172574 6.980527267e-15)
(0 0 0)
(0 0 0)
(0 0 0)
(0 0 0)
(0 0 0)
(0 0 0)
(0 0 0)
(0 0 0)
(0 0 0)
(0 0 0)
(0 0 0)
(0 0 0)
(0 0 0)
(0 0 0)
(0 0 0)
(0 0 0)
(0 0 0)
(0 0 0)
(0 0 0)
(0 0 0)
(0 0 0)
(0 0 0)
(0 0 0)
(0 0 0)
(0 0 0)
(0 0 0)
(0 0 0)
(0 0 0)
(-0.0005945582189 0.003416376254 9.950373858e-15)
(-0.0005420651783 0.003137835924 9.076073226e-15)
(-0.0004639307573 0.002705192215 7.771561172e-15)
(-0.002306138223 0.01476662899 4.239664175e-14)
(-0.002477464622 0.01574731256 4.554689959e-14)
(-0.003754990486 0.02509331968 7.256695245e-14)
(-0.003545884628 0.0238724103 6.854239398e-14)
(-0.007519215306 0.05981596485 1.71682113e-13)
(-0.007656027485 0.06044326874 1.747491041e-13)
(-0.008690608004 0.07301800725 2.110811526e-13)
(-0.008579381842 0.07263876993 2.084582507e-13)
(-0.01015110992 0.10650595 3.056166431e-13)
(-0.01017990182 0.1059658953 3.062827769e-13)
(-0.010106657 0.1143281024 3.304578833e-13)
(-0.01005586125 0.1146725984 3.290423489e-13)
(-0.008101030258 0.1251298006 0)
(-0.008109531525 0.1242250208 0)
(-0.007148780871 0.1242153846 0)
(-0.007144615975 0.1246676177 0)
(-0.007140576758 0.1251198942 0)
(-0.00426915016 0.1250910995 0)
(-0.004270831015 0.124865189 0)
(-0.004032943398 0.1248629618 0)
(-0.004031284225 0.1250888095 0)
(-0.000142527204 0.1249940744 0)
(-0.0001463331112 0.1248814341 0)
(-0.0001493816739 0.1247687648 0)
(8.355439577e-05 0.1247689652 0)
(9.076654224e-05 0.1249941028 0)
(0.003649747987 0.1249746047 0)
(0.003637611352 0.124523969 0)
(0.003625286862 0.1240734613 0)
(0.004581643396 0.1240657844 0)
(0.004605079175 0.12496738 0)
(0.00412759181 0.1249709484 0)
(0.007154754268 0.1193546969 3.430450368e-13)
(0.007037271269 0.116807818 3.381739333e-13)
(0.007475685917 0.1098125614 3.179262409e-13)
(0.007669196548 0.1132642322 3.255451464e-13)
(0.007666518767 0.08418194011 2.419592304e-13)
(0.007392190376 0.08065660309 2.335076577e-13)
(0.006841635647 0.06875199691 1.990352327e-13)
(0.007129034869 0.07210608112 2.072370053e-13)
(0.004316548654 0.03530110506 1.014327511e-13)
(0.004056706874 0.03295023406 9.536815782e-14)
(0.002964482303 0.02263734155 6.551703624e-14)
(0.003193153151 0.02455235001 7.054079543e-14)
(0.0004532987887 0.002956492664 8.493206138e-15)
(0.0003684816766 0.002386499872 6.89726054e-15)
(2.921131861e-05 0.0001801257761 5.273559367e-16)
(5.58104382e-05 0.0003465714175 9.992007222e-16)
(0 0 0)
(0 0 0)
(0 0 0)
(0 0 0)
(0 0 0)
(0 0 0)
(0 0 0)
(0 0 0)
(0 0 0)
(0 0 0)
(0 0 0)
(0 0 0)
(0 0 0)
(0 0 0)
(0 0 0)
(0 0 0)
(0 0 0)
(0 0 0)
(0 0 0)
(0 0 0)
(0 0 0)
(0 0 0)
(0 0 0)
(0 0 0)
(0 0 0)
(0 0 0)
(0 0 0)
(0 0 0)
(-0.0005638197181 0.003158923236 9.492406861e-15)
(-0.0006371554545 0.003596776962 1.071365219e-14)
(-0.0006808377007 0.003872227192 1.144917494e-14)
(-0.00274305314 0.01713502289 5.066780329e-14)
(-0.002654833793 0.01645980632 4.904410211e-14)
(-0.003956629527 0.02579305836 7.68274333e-14)
(-0.004062323862 0.02668261724 7.889522369e-14)
(-0.007991792375 0.06203839024 1.833672103e-13)
(-0.007861662059 0.06056012868 1.803418526e-13)
(-0.008877178542 0.07278215956 2.167155344e-13)
(-0.00900473244 0.07440404781 2.198935478e-13)
(-0.01035542419 0.1061030738 3.135408599e-13)
(-0.01026759764 0.1043585527 3.107097912e-13)
(-0.01011201194 0.1117421328 3.326922071e-13)
(-0.01017732522 0.1133879587 3.350791866e-13)
(-0.008028829796 0.1215006935 0)
(-0.008038341575 0.1205957772 0)
(-0.007074905206 0.1205856503 0)
(-0.007070150421 0.1210380034 0)
(-0.007065393427 0.1214905666 0)
(-0.004175126359 0.1214601864 0)
(-0.004179883353 0.1210076231 0)
(-0.003698186189 0.1210025599 0)
(-0.003695806587 0.1212289466 0)
(-0.003693429195 0.1214551232 0)
(-0.003934277777 0.1214576548 0)
(-0.0003214446334 0.1214196795 0)
(-0.0003238216231 0.1211935029 0)
(-0.0003262010235 0.1209671162 0)
(0.000155510942 0.1209620528 0)
(0.0001602679362 0.1214146161 0)
(0.003532238474 0.1213791725 0)
(0.003522726695 0.1204742562 0)
(0.004469709963 0.120003629 3.577416141e-13)
(0.004492258053 0.1212731071 3.588240816e-13)
(0.006691150276 0.1094413359 3.238936896e-13)
(0.006530175754 0.1063125369 3.169825513e-13)
(0.006820277836 0.09809135191 2.924882558e-13)
(0.007015752344 0.1014338204 3.002181836e-13)
(0.006437341822 0.06889880871 2.039063363e-13)
(0.006177816774 0.06569902014 1.958988527e-13)
(0.005492226453 0.0537341772 1.602190602e-13)
(0.005868856582 0.05781597317 1.710992459e-13)
(0.003060747508 0.02434693362 7.203959651e-14)
(0.002666814181 0.02106327389 6.278311204e-14)
(0.001810225845 0.01343852118 4.00651734e-14)
(0.002063017868 0.01542476015 4.563016631e-14)
(7.585518538e-05 0.0004809350368 1.415534356e-15)
(3.426242583e-05 0.0002156799075 6.383782392e-16)
(0 0 0)
(0 0 0)
(0 0 0)
(0 0 0)
(0 0 0)
(0 0 0)
(0 0 0)
(0 0 0)
(0 0 0)
(0 0 0)
(0 0 0)
(0 0 0)
(0 0 0)
(0 0 0)
(0 0 0)
(0 0 0)
(0 0 0)
(0 0 0)
(0 0 0)
(0 0 0)
(0 0 0)
(0 0 0)
(0 0 0)
(0 0 0)
(0 0 0)
(0 0 0)
(0 0 0)
(0 0 0)
(0 0 0)
(0 0 0)
(-0.0001317168037 0.0007157310182 2.206568261e-15)
(-0.0002389877517 0.001308706892 4.024558464e-15)
(-0.0003550401656 0.001959194337 5.967448757e-15)
(-0.00203466575 0.01233176599 3.758104938e-14)
(-0.001738624986 0.01045755363 3.212707878e-14)
(-0.002829362218 0.01789388155 5.495603972e-14)
(-0.003200022909 0.0203923508 6.21447338e-14)
(-0.006888856387 0.05186306302 1.58012492e-13)
(-0.006387961591 0.04772931365 1.465494393e-13)
(-0.007399015004 0.05883096656 1.806332861e-13)
(-0.007906861882 0.06334762649 1.929845173e-13)
(-0.009529310368 0.09457716059 2.880889971e-13)
(-0.009110478778 0.08972377682 2.754185768e-13)
(-0.009158018883 0.09801282654 3.008704397e-13)
(-0.009515905376 0.1026441635 3.126665593e-13)
(-0.007977486359 0.1166063492 3.552436123e-13)
(-0.00785142717 0.1137992515 3.493733081e-13)
(-0.007050850772 0.1159739163 3.560762796e-13)
(-0.007099093372 0.1178003134 3.589073483e-13)
(-0.004213177894 0.1178401006 0)
(-0.004222691882 0.1169349741 0)
(-0.003259276533 0.1169248474 0)
(-0.003249762545 0.1178299739 0)
(-0.003731480729 0.1178350374 0)
(-0.0003594954772 0.1177995937 0)
(-0.0003690094657 0.1168944671 0)
(0.0005944121895 0.1168843404 0)
(0.000603926178 0.1177894669 0)
(0.003464914477 0.1167094847 3.559097461e-13)
(0.003405162418 0.1140114836 3.503863866e-13)
(0.004218283129 0.1105092534 3.396449788e-13)
(0.00432328766 0.114029688 3.477773625e-13)
(0.005990526448 0.09546008992 2.911837438e-13)
(0.005731691917 0.09063428733 2.785827125e-13)
(0.005822028287 0.08126822691 2.498001805e-13)
(0.006124193177 0.08615740789 2.628175455e-13)
(0.005108398707 0.05313983638 1.620786838e-13)
(0.004744491545 0.04896400362 1.50490731e-13)
(0.004014269023 0.03811734889 1.171562847e-13)
(0.004369891078 0.04182469088 1.275646255e-13)
(0.00170557302 0.01317681513 4.01761957e-14)
(0.001465145789 0.01123078553 3.450018049e-14)
(0.0007489568918 0.005396419828 1.657007864e-14)
(0.001017578936 0.007389916227 2.25375274e-14)
(0 0 0)
(0 0 0)
(0 0 0)
(0 0 0)
(0 0 0)
(0 0 0)
(0 0 0)
(0 0 0)
(0 0 0)
(0 0 0)
(0 0 0)
(0 0 0)
(0 0 0)
(0 0 0)
(0 0 0)
(0 0 0)
(0 0 0)
(0 0 0)
(0 0 0)
(0 0 0)
(0 0 0)
(0 0 0)
(0 0 0)
(0 0 0)
(0 0 0)
(0 0 0)
(0 0 0)
(0 0 0)
(0 0 0)
(0 0 0)
(0 0 0)
(0 0 0)
(0 0 0)
(0 0 0)