/*--------------------------------*- C++ -*----------------------------------*\
| =========                 |                                                 |
| \\      /  F ield         | OpenFOAM: The Open Source CFD Toolbox           |
|  \\    /   O peration     | Version:  v1912                                 |
|   \\  /    A nd           | Website:  www.openfoam.com                      |
|    \\/     M anipulation  |                                                 |
\*---------------------------------------------------------------------------*/
FoamFile
{
    version     2.0;
    format      ascii;
    class       volScalarField;
    location    "0.08";
    object      omega;
}
// * * * * * * * * * * * * * * * * * * * * * * * * * * * * * * * * * * * * * //

dimensions      [0 0 -1 0 0 0 0];


internalField   nonuniform List<scalar> 
12556
(
31.93093304
31.93181215
31.93273797
31.93358013
31.96672173
31.96741801
31.96812835
31.96955575
31.97239413
31.97714495
31.98383723
31.99096803
31.99603434
31.99539945
31.98996162
31.98307319
31.97689821
31.97195929
31.96975408
31.96794507
31.93421997
31.93298837
31.93190005
31.93090638
31.79469216
31.79726199
31.7999045
31.80221764
31.83604341
31.83859309
31.8425092
31.8641869
31.87703259
31.89884623
31.93004229
31.96360345
31.98699903
31.98670736
31.96443725
31.93349481
31.90340558
31.88125708
31.85168674
31.84252948
31.80508377
31.80123725
31.79792752
31.79497694
31.66003
31.66460829
31.6691717
31.67290854
31.70748261
31.71286231
31.72200737
31.75168917
31.78209715
31.83220493
31.9017064
31.97414507
32.02085569
32.02237506
31.97534814
31.90927414
31.84268675
31.79241535
31.74263136
31.72269259
31.6792931
31.67257081
31.6667695
31.66185287
31.52697902
31.5329569
31.53904465
31.54445085
31.58091926
31.59105857
31.60990325
31.65585139
31.71800739
31.82045428
31.96324229
32.11714056
32.22179311
32.20500296
32.09432086
31.9583122
31.82993829
31.73265305
31.65069405
31.61289201
31.55858698
31.54720687
31.53831221
31.53118301
31.39592201
31.4037516
31.4116778
31.41934614
31.45803322
31.47527875
31.51064915
31.5824239
31.70175148
31.91243983
32.23626366
32.63981356
32.91354144
32.83995602
32.512166
32.17984366
31.90633426
31.7206195
31.58473309
31.51627245
31.44338316
31.42527217
31.41247856
31.40283692
31.26630136
31.27554682
31.28524437
31.29583086
31.33949484
31.36803036
31.42933393
31.53829342
31.75367307
32.18481208
32.99907703
34.44981473
35.66324703
35.08116614
33.72326117
32.7708978
32.14986023
31.77650641
31.54675486
31.4357814
31.33547519
31.30607642
31.28809288
31.27549716
31.13892448
31.1499916
31.16224879
31.17684487
31.22596795
31.26974352
31.36544083
31.52819925
31.89917419
32.73512188
34.83025209
41.69444493
48.75652458
45.36018425
37.02130322
34.05863708
32.64900045
31.9373441
31.54543199
31.37294812
31.23390831
31.18999072
31.165069
31.14898641
31.0134571
31.02612802
31.04107573
31.06079996
31.11904069
31.18170071
31.31775178
31.55051139
32.12527622
33.53634529
37.89802725
59.93701678
77.81823436
44.59036608
36.36125908
33.46331837
32.21260254
31.57863629
31.32453898
31.13968191
31.07694893
31.04331856
31.0232921
30.89221988
30.90721046
30.92601149
30.95289571
31.0191457
31.10425182
31.28437675
31.60106776
32.39288421
34.34930761
40.46017668
73.10551214
150.4087878
55.54948828
39.49972993
34.53730402
32.57847046
31.64665049
31.28874085
31.05259958
30.96872612
30.92465177
30.90004409
30.77512495
30.79222593
30.8148429
30.84938161
30.92624743
31.03615946
31.26218588
31.66540608
32.6490806
34.98863717
41.84383034
78.36062868
187.2450855
64.95766555
42.65398077
35.66340452
32.97271562
31.73322435
31.26342464
30.97316052
30.86663543
30.81115291
30.78164035
30.66461489
30.68451927
30.71202976
30.75601542
30.84046907
30.97578718
31.24796338
31.7339343
32.87457721
35.46734069
42.76375123
87.20987517
185.8969126
70.22064383
45.01236664
36.61082194
33.33864778
31.81913158
31.24511946
30.90092947
30.77238004
30.70493462
30.66983613
30.55858548
30.58069717
30.61237469
30.66536943
30.76096937
30.92086973
31.23807162
31.79803511
33.06559976
35.84789964
43.6315645
97.96366839
170.8166441
71.88244528
46.32779195
37.24841633
33.61706277
31.88740335
31.22806555
30.83525088
30.68492634
30.60616544
30.5656367
30.45932242
30.48431469
30.52171022
30.58443802
30.68598174
30.86871014
31.22496655
31.8511531
33.21765003
36.16337906
44.69492007
107.0008014
780.0319403
145.966714
71.26243576
46.73573205
37.53812204
33.78194957
31.92631341
31.20602151
30.7724083
30.6042669
30.51430562
30.4683405
30.36349255
30.39095965
30.43337064
30.50385991
30.61949038
30.83122643
31.2309191
31.91689693
33.38492625
36.54118906
46.30623192
150.6566561
483.349472
135.6827575
69.6355298
46.42212546
37.54653217
33.84302783
31.93275721
31.17488686
30.7087005
30.52740753
30.42796198
30.37717132
30.27285658
30.3027855
30.3495414
30.42621243
30.54955407
30.78029919
31.21124372
31.95788738
33.52187731
36.83649658
47.72604471
386.512253
346.583062
125.5733561
66.73654121
45.6204562
37.34078459
33.81590005
31.90642614
31.13191943
30.64434029
30.45302153
30.34486842
30.29008652
30.18217831
30.21432704
30.2648446
30.34744379
30.47874043
30.72401751
31.18176052
31.99583348
33.70871592
37.34677251
50.8520149
626.5276846
295.4245939
114.4414882
63.11629085
44.47292225
37.01277009
33.7130322
31.84724394
31.0743774
30.57364073
30.37530807
30.26131848
30.20298012
30.09301453
30.1273466
30.18090501
30.26769825
30.40489404
30.66060924
31.13898382
32.00961193
33.94500733
38.32353869
59.68459497
900.8919512
233.5858522
101.1913031
58.95899357
43.23630899
36.68567818
33.57219156
31.76249097
31.00399856
30.49708135
30.29450783
30.17532013
30.1143382
29.99940028
30.03558287
30.09185073
30.18303236
30.32657431
30.58905786
31.08213804
31.97807387
34.12202954
39.80140009
86.37928477
811.1210105
184.4446058
89.06486633
55.404451
42.28322209
36.37549029
33.40574895
31.65712844
30.91766697
30.40931337
30.20441098
30.08301452
30.01985315
29.90613329
29.94405669
30.00247979
30.09612619
30.2429757
30.50925962
31.01177596
31.92370246
34.13537289
41.13291086
125.6912392
657.9549076
157.0586596
81.70442545
53.4723277
41.6591174
36.06252558
33.22279428
31.53744583
30.81918467
30.31422362
30.10942213
29.98694207
29.92283834
29.80743213
29.84660932
29.90686077
30.00324361
30.15408368
30.42180667
30.92950582
31.85129134
34.12132963
42.08637814
138.6599285
561.9526368
146.7145285
79.04903173
52.31645252
41.09792377
35.75832327
33.03226399
31.40783765
30.71051598
30.21053229
30.00679631
29.88425834
29.81990939
29.71058495
29.75075988
29.81215677
29.90895017
30.06005228
30.32757782
30.8372751
31.76457569
34.09589665
43.2535057
145.7304531
491.7968226
139.5669276
76.90815693
51.38691231
40.59768109
35.4683557
32.83996617
31.27139085
30.59376078
30.10224948
29.90133019
29.77954801
29.71538064
29.60685994
29.64744947
29.70974052
29.80789612
29.96136746
30.22753391
30.7370055
31.66691656
34.06794789
44.73102461
149.6959271
435.5451303
133.6343869
75.07783624
50.64536522
40.16028067
35.19576736
32.64967194
31.13044828
30.47084239
29.98598911
29.78727306
29.66656346
29.60305761
29.50560893
29.5463487
29.60896416
29.70638856
29.85831617
30.12260791
30.63037077
31.56127566
34.04921383
46.33918104
151.2767169
390.0806429
128.6239219
73.49330197
50.0358925
39.78566256
34.94309686
32.46405362
30.9871656
30.34331933
29.86665059
29.67117824
29.55196154
29.48935384
29.39466704
29.43507873
29.49808804
29.59690441
29.75154071
30.01367387
30.51889675
31.45091275
34.06110269
47.7724545
150.9443747
353.0182321
124.3233783
72.10955463
49.51711988
39.46690707
34.71173672
32.28502846
30.84329298
30.21249255
29.73990459
29.54615077
29.42838906
29.3669643
29.28904563
29.32899409
29.39184072
29.48948261
29.64137854
29.90153515
30.40407581
31.33955968
34.12388365
48.91508954
149.1898104
322.6460267
120.5817933
70.89303039
49.06598129
39.19362997
34.50128741
32.11373559
30.70009313
30.07951722
29.61450726
29.42425322
29.30834411
29.24815068
29.1726967
29.21185907
29.27466935
29.37369866
29.52889241
29.78703548
30.28725712
31.23084404
34.23921781
49.78415082
146.4274395
297.4946504
117.2888204
69.81819994
48.66984313
38.95653864
34.30995388
31.95050293
30.55852212
29.94576013
29.48383145
29.29524218
29.18096344
29.12210076
29.06825916
29.10660925
29.16860689
29.26505036
29.41471845
29.67108849
30.16966097
31.12794805
34.38835476
50.41811999
142.9524468
276.5040884
114.3660174
68.86530837
48.32049503
38.74863107
34.13547396
31.79516271
30.41924222
29.81235353
29.36004778
29.17584855
29.06359433
29.00597269
28.95074099
28.98804804
29.04939976
29.1464973
29.3001868
29.55443106
30.05231621
31.03327573
34.54758271
50.85010513
138.9796301
258.8656444
111.752838
68.01610419
48.01054313
38.56438495
33.97554859
31.64719743
30.28253075
29.68014405
29.22915488
29.04606935
28.93527847
28.87888938
28.85217966
28.88851514
28.94851456
29.04134735
29.18531893
29.43754998
29.93603897
30.94809921
34.69968667
51.11474377
134.7317957
243.8778797
109.3901041
67.25126375
47.73253212
38.39925927
33.82806423
31.50597343
30.14859823
29.54936028
29.1090647
28.93023649
28.82115888
28.76583948
28.73233017
28.76753364
28.82665165
28.92028294
29.07123059
29.3208984
29.82152141
30.87241221
34.83568792
51.24648776
130.403626
230.9528006
107.2204375
66.5522139
47.47971243
38.24956878
33.6911933
31.37096399
30.01768918
29.4202408
28.97442892
28.79461674
28.68642934
28.63214269
28.63923431
28.6735117
28.73142178
28.82069747
28.95718025
29.20505816
29.7095006
30.80526135
34.95171466
51.27111621
126.1084229
219.6769661
105.2035706
65.90491542
47.24678986
38.11239408
33.56345749
31.24175879
29.88974448
29.29218994
28.85737658
28.68093862
28.5738755
28.52042288
28.51099238
28.54419373
28.60145171
28.69286485
28.84440359
29.09052614
29.60070229
30.74530225
35.04656749
51.21117346
121.9105672
209.7413347
103.3139249
65.29913306
47.02952957
37.98541844
33.44365079
31.11777149
29.76414418
29.16492777
28.71371542
28.53448181
28.4278837
28.37527831
28.42297887
28.45543494
28.51200443
28.6002611
28.73096819
28.97735755
29.49554217
30.69118867
35.1211786
51.08215022
117.8662213
200.8788533
101.5267213
64.7255223
46.82434342
37.86674749
33.33057478
30.99806553
29.64015088
29.03760891
28.60415697
28.4278325
28.32187692
28.26986306
28.28171747
28.31317815
28.36922085
28.45959202
28.61887305
28.86538265
29.39400878
30.64157578
35.17774813
50.90306257
114.030572
192.8826289
99.8204177
64.17633358
46.62833928
37.75464824
33.22292378
30.88173044
29.51780682
28.91147096
28.44741991
28.26860074
28.1630684
28.11177044
28.20279281
28.2337495
28.28949936
28.37904851
28.50583241
28.7549145
29.29635229
30.59503896
35.2186367
50.68988182
110.445385
185.5961202
98.18274407
63.64643994
46.43926435
37.64764656
33.11973228
30.76843345
29.39863726
28.78747331
28.35754726
28.17954371
28.07418622
28.02320421
28.02046691
28.05035583
28.10555834
28.19649608
28.39776477
28.64788366
29.20470783
30.55074272
35.24603531
50.45675885
107.1443525
178.936625
96.61649195
63.13649844
46.25691458
37.54547988
33.02122254
30.65890962
29.28623618
28.67065689
28.15941843
27.97914645
27.87393466
27.82354657
72.46415297
178.1236781
88.2515285
77.61236666
226.0687002
184.9618577
85.89930117
220.9719033
227.7052936
96.74536211
197.8918145
218.0581911
105.9837991
954.2994424
814.9079487
177.0666666
194.6823858
132.0263951
595.0232045
934.8622232
504.5912291
171.7993822
175.0562023
56.9231703
48.28477079
80.33609936
44.98013327
562.1206792
189.3327299
142.1547307
61.06498739
49.08796843
41.576819
66.59002888
63.29526968
1905.080087
1359.216489
185.1195552
75.05439944
65.0531562
42.5775142
71.53790871
67.07297321
81.06998399
232.4584022
210.517326
1041.568625
1459.144209
187.344701
82.53897327
77.58980923
43.47060199
79.27485375
72.38044973
91.07823037
330.4195079
265.6035855
572.7757394
768.4247023
44.50070056
89.15200604
80.21546853
99.70610755
501.3381236
402.331938
2215.278791
366.9293797
428.6695248
46.09821394
108.8420199
90.63800862
114.8642797
1082.411375
715.4108854
145.6773718
452.8077077
586.1339869
181.3465902
210.4696079
112.1774305
175.3305671
1323.415209
593.711177
139.4365844
474.4604693
921.0465712
207.85574
190.2715527
75.41023125
248.3648986
260.1419965
216.134029
245.5756204
1477.690766
1905.349305
208.3209791
1318.658561
1128.501475
951.9746857
1315.788186
205.6883042
262.5227947
236.1071871
82.15030699
301.5924587
343.4844331
262.1539229
298.4459013
804.6950917
1017.842588
226.579793
769.3857091
599.9490564
1115.452029
798.6809733
227.8873464
398.1417591
333.6580222
92.37500328
407.6196407
506.5010903
346.2409306
403.7328388
441.7554667
550.9101219
704.8170978
510.7336502
99.99874604
3190.339014
693.886153
1051.723347
511.5334914
677.9460434
3609.91025
335.4995234
360.6129749
1938.06278
8599.075503
1091.243786
116.1525301
682.837036
1701.52079
7758.820037
1060.318109
1674.313728
701.6437698
39.96399014
62.67785051
53.05979495
67.50221309
143.5330669
97.28568054
3458.787568
604.428077
75.01311557
188.1104851
167.2427021
5917.294705
173.196848
84.55503948
83.50091841
5914.234598
817.9268574
910.8412201
616.7335735
295.9775627
323.5834839
164.6496075
147.0502697
69.14422979
1409.05537
261.021431
607.9737034
157.7198045
419.6285017
128.5529868
930.3940517
1191.918872
206.3800511
455.27308
385.9033022
579.4662391
468.2266179
209.6386004
1337.500786
4545.58666
824.3865722
80.5338781
63.94397081
102.2899012
165.1574543
76.27123033
82.15940116
4815.310962
393.2328772
3398.296602
445.595773
2483.726533
353.8312179
1553.772945
1533.946551
1211.440016
1240.608418
2290.139684
5013.061629
646.2151368
2771.009576
1503.962807
5636.586125
3274.934066
674.8216274
437.8390211
171.0093684
178.2996391
686.3028909
779.629229
5315.045841
771.3522694
220.518187
233.3197304
205.1701985
215.697405
768.3727053
1268.538424
1410.335787
194.3060495
902.2848979
738.6119218
1357.544106
902.7288514
197.9205722
144.5715557
447.9532563
212.5800166
655.8793207
479.323008
154.9162709
636.4871942
932.2283236
929.9446725
880.2600246
248.2632092
1480.479071
248.6300283
230.6239227
1433.359278
1376.903287
1474.941346
1439.899358
234.5322879
1578.93133
1596.75627
1206.79995
404.8429502
395.6067368
405.7216277
406.3524146
1196.888035
1121.622845
361.5686903
331.5718396
390.594935
370.3678592
1141.505112
320.716449
323.4259212
277.4473453
279.6704223
857.31144
5833.167466
873.6593353
437.1543558
443.8146718
374.2775905
378.2236662
1419.763667
1036.097333
496.7127123
1263.949545
2118.711933
562.2943704
192.1248234
201.5822785
180.9509471
189.2035489
553.7356703
1471.971785
738.7322812
751.230539
547.9745257
552.5364314
6103.076921
1121.749729
587.1767321
658.4114623
238.8072268
249.175705
1336.812502
2709.396561
1802.351085
2866.156152
1095.336146
6696.820805
3134.190586
5751.794506
1091.392678
784.6090591
4149.778831
2273.678875
4231.965218
2117.925133
2877.049888
47.32020746
111.8944427
111.2823049
163.0868531
4241.881365
7963.365914
362.0551622
156.9333247
168.1150742
1247.582482
3298.134082
4531.655213
512.6356315
564.6242234
1053.16414
270.7641786
287.0851664
600.1063216
158.6027029
116.9868099
240.0342436
474.6673398
146.4483803
172.6153731
1795.936114
4516.098398
4670.027333
1448.460199
1115.94348
3125.141366
2271.201953
5290.890377
5188.717752
1388.530079
304.739473
142.405572
146.8561271
136.9781987
140.9968502
299.0910772
162.5458158
168.8638439
433.2918149
998.7883578
399.8816584
418.164044
6585.718568
3415.155908
544.5973182
1149.651496
4124.799903
4512.115306
637.0398435
266.338484
223.0848654
319.2938833
281.0039911
667.1252954
1523.931779
5238.027614
5301.564024
1806.409649
250.4626666
132.0357695
135.7171339
695.5112639
682.476347
334.5718213
2143.98885
1963.578696
955.7398509
691.2756202
359.1811259
374.1674984
989.2571682
396.1126572
404.0842516
379.4525145
392.1099107
969.624122
361.7843179
155.0639012
160.611862
148.4087658
153.320248
357.5021772
419.3302332
1002.186742
992.5080537
1584.811892
1538.437093
485.85696
357.0096449
732.0436623
697.6932013
988.3473132
981.5873253
392.6359357
480.4431646
997.5608026
806.8083861
6161.292315
2228.857037
716.8952741
888.9104947
526.6251481
1617.832998
1592.279829
1624.253422
595.2623478
5171.077718
8723.659797
314.4886698
356.0088944
424.9378502
441.2426318
1098.187536
2074.449125
1253.707867
631.851124
1717.417622
8351.114563
1885.042782
1692.242169
15982.20935
1070.365222
1594.168944
2106.9428
2563.984928
1906.750261
5878.609521
5959.708727
1431.14215
1879.214739
6130.548496
1457.579421
1394.127651
409.0687669
1544.334773
605.9060059
1528.159616
447.6242755
4516.849413
3173.013807
1051.360219
5236.23105
6070.989472
4773.188318
3458.480671
1125.559432
4919.743037
6025.19735
3419.498669
4681.896971
6401.373948
2192.903767
3058.108728
1493.486758
1943.361327
5748.565329
4925.641101
1396.654357
850.9872243
2284.636576
1539.446563
764.7462433
477.3704915
1403.778008
4829.939215
6111.441751
1708.485789
1468.754308
4719.621131
4840.667859
3444.162332
3238.176411
1143.964582
5526.232897
5432.48894
4025.642705
5367.95505
5393.547335
1349.865402
5326.269511
3543.035049
3379.094694
3799.486347
2068.174446
971.1680664
1050.836041
4321.995636
1230.613957
1395.485754
1083.348463
1182.012746
4047.424441
3939.814699
1109.836776
1315.203599
373.506495
393.6458062
908.9191658
741.320217
354.1754244
368.5036595
1372.133872
1383.589311
893.4310181
331.2448592
351.593508
306.2178969
325.2616593
886.6156915
948.6158015
394.7459272
428.3673218
358.8015735
384.9405945
955.5662695
593.4504133
280.7471024
300.5366561
851.8636577
883.625968
2950.050334
3067.639109
1089.852165
4390.799598
4456.287061
5610.169024
3038.986303
2536.591297
4322.945869
3000.003564
738.424882
2114.201701
2821.015476
1518.315389
528.0045921
591.2699236
504.1616528
517.4521258
1483.858857
639.3654519
649.3908642
611.978803
635.7314832
1414.70881
456.6565842
468.9108673
436.4891447
452.3378339
1406.631008
1460.080736
488.4884003
499.7978911
472.9038208
484.6352084
1457.517718
5130.004846
5192.937749
1538.596186
1731.904761
5428.362071
5111.171278
952.060746
956.647382
926.9134276
950.6168186
968.8357812
981.1922661
958.3885881
966.2669862
665.3209935
675.2922796
652.5340596
661.9472381
715.0414676
884.527213
680.163244
692.5298965
1832.049075
2152.035787
1455.096208
1702.716715
6069.505795
3428.379646
3774.446702
2304.160059
3306.466529
1015.568183
1008.019524
423.5689056
1613.884594
1618.704404
1581.443059
1604.359337
1663.731673
475.0220715
1502.438912
1068.656885
952.0352443
752.5911658
361.0067266
1029.387233
1486.23869
981.9203117
1039.256145
1546.117635
1569.653422
1505.919743
1536.264873
389.0330154
979.5449819
970.0974846
6143.45366
1505.723308
6043.447002
5206.192086
6021.908136
1615.395725
6363.036361
1963.150519
6103.957155
5308.985983
723.5946521
804.336758
1651.429882
1623.130897
531.3620445
579.4186444
1715.771021
1654.115212
6036.21833
1138.025913
452.8113168
494.6701531
6232.570611
7059.332699
1789.402151
7651.064821
5572.646173
2351.239485
1071.946394
6670.106595
3943.528958
7427.566649
4379.412591
1536.888252
71.67143007
45.59693728
38.23826883
6066.218737
6041.513807
160.5545533
83.47961349
84.49451616
6312.826654
1075.395494
3126.148185
2231.909188
375.8825625
312.3467253
186.9032262
391.9499116
263.4614516
621.8186559
2292.116163
378.9525239
422.561568
58.57786442
69.87683287
142.8324855
490.4356903
988.8062743
1464.386056
222.2599313
122.8942083
126.3965358
118.0916101
121.7258884
219.1751439
949.5573535
1058.681245
3436.560444
769.9277621
675.8913442
400.1261664
336.9519371
349.8945709
736.2928194
1592.925747
2034.138962
694.1332672
127.5072936
130.8701243
246.8779934
309.9548756
650.0237134
625.0376659
603.6823118
539.2993206
289.4619939
627.1115246
319.2900689
332.6636447
4801.458166
4508.656812
2851.38242
1632.347988
1610.72984
1029.493556
4114.340117
5995.349707
5399.458445
1448.176298
837.6656155
926.0508442
1704.56277
1065.304689
1665.418276
1652.543338
1673.601212
3712.614692
5734.295889
3899.878341
4328.519356
5848.072583
1729.710349
1387.931999
829.9005207
1426.999345
207.874569
163.5588661
299.523839
1015.544349
2731.086653
1916.879379
6176.850628
6509.857732
6647.711887
5522.093558
6346.352083
106.885821
138.9046461
370.7231255
3904.148237
2549.885524
1964.026784
5130.678307
3957.802192
2518.52952
4468.058219
4085.065355
6250.932564
5930.291648
4394.634937
879.9798917
948.7523386
1898.378653
5788.913619
3229.420209
3572.188762
4664.637555
2912.738664
3368.752082
1316.157892
1728.468799
1402.392047
898.8531745
621.4473917
628.9015834
1322.772875
834.1563725
874.7837958
634.1625477
643.3322384
913.7035008
249.4210145
274.763562
567.5223181
713.8929685
1257.307999
926.4897443
1398.341956
1448.590978
938.4945409
1809.68874
1329.329873
1378.82899
939.4713064
940.9991705
1483.855978
1472.685755
1484.517532
1409.060852
1428.686258
1425.601161
904.9180614
907.7909508
890.8100987
895.2448096
1388.586862
1470.333004
931.1045741
934.1007061
910.9932968
914.2983785
1445.964226
664.5210376
653.949903
312.6723877
331.8409512
678.909224
667.933897
510.3574862
499.3640941
270.6926445
1515.154133
1517.077563
1488.756196
1492.773691
1857.465724
1523.512215
1524.332237
286.8901374
528.4928331
514.8250132
5773.518508
5712.398786
3754.478498
3962.20356
5792.811513
5761.703901
5967.395823
936.1985049
1890.294582
1575.268583
303.7251049
315.0800712
599.7653611
536.6500076
291.4233242
300.5376412
1057.925865
1057.929173
735.6577023
753.5940513
1065.314653
1069.578884
6055.760982
1413.463826
926.2733121
913.7974942
12316.34471
2216.81639
2158.53847
5028.048499
4201.686446
1730.667148
1710.255903
1081.505009
6462.825057
7046.753531
6736.457438
5307.482524
1147.811438
1774.334446
1720.218699
3159.920386
1162.83869
1375.004175
5950.390038
5864.11547
4633.389157
4312.730255
2599.793146
1461.273622
2116.747373
1704.287349
3775.903382
6006.530899
5164.832621
6080.195711
5823.566445
4249.843965
239.954438
345.8147155
1205.070095
4627.945883
4534.101672
4708.108259
4698.753279
4600.579238
2978.748372
2960.250437
2992.632563
2980.687889
4596.575822
5324.683366
3003.992627
3029.213755
2876.869406
2963.51236
5411.805045
4293.320224
2715.95651
2448.397422
2940.949997
2867.246165
4396.963714
5214.732455
3093.009603
3117.302193
3057.726328
3071.948279
5262.098623
4800.269322
4719.927083
4891.890365
4670.68086
1000.518904
701.2892546
704.7067171
1571.208489
1006.985001
1010.619459
981.3300255
1000.951411
1559.979048
5891.841953
6104.413195
5388.446639
5964.198607
1632.480075
1645.543876
1605.044033
1619.233914
2068.136495
977.1303441
1567.349072
1506.952004
1608.182053
1015.888857
1019.161074
1012.156553
1014.410768
1601.662354
1543.972542
1584.200511
1089.388644
1484.823239
2043.15558
6335.797371
5943.527128
4617.275115
6147.359325
823.4956061
1148.60329
13083.94853
1100.379208
759.5828553
762.387896
1721.976291
7999.023201
8277.243505
9603.60552
6184.354771
5857.086653
1680.611765
1669.374827
1065.979015
1640.016655
3096.741253
4512.403639
3151.503209
4136.527031
3120.186099
1277.8152
4231.227709
3171.880071
5937.081607
6152.211001
6077.149674
4656.342371
5295.048242
1424.862869
1737.510568
1418.450036
703.7875686
912.9789507
1364.635948
1449.105465
940.333937
1339.342449
1744.207885
5894.976567
6163.326083
5806.364842
5514.297722
6272.100255
6225.49706
6090.021025
3846.298706
5397.353048
4937.105967
6041.263233
6247.651027
4261.888633
4552.894062
4996.301409
6305.459285
5171.272351
3777.876563
4099.69288
3684.780576
2635.312588
3685.437249
1936.952888
2829.975136
3817.086944
4191.948379
3857.915436
4989.351768
3160.118889
3004.56337
4292.923354
3114.899318
4606.464937
4752.094056
3005.716838
2996.223178
3026.028129
3001.459872
4778.99912
3371.123335
2004.623122
2041.427818
5465.110764
5458.674317
4691.244062
5818.212611
5624.499597
5498.098578
5477.11229
5708.76591
4451.107767
2403.160668
2682.519253
2097.09826
2203.31583
3811.381373
5954.885878
5044.055102
2892.182295
6285.430592
6014.906246
5994.674211
4003.720353
5952.913048
5757.933291
2429.01007
2745.829144
5006.557073
1352.256354
1398.120443
689.1601336
762.9281269
1278.212971
911.5166431
646.9591706
669.6365727
1363.291319
1332.734098
806.9187313
1400.698614
1735.16274
885.2887203
1402.743264
1393.006128
2947.405445
2002.049407
1972.094088
2198.636873
2127.808944
3110.71775
4661.678853
4367.637121
2845.826226
4250.512187
4455.412689
3988.132598
4204.027604
2798.844009
4224.907871
4149.21831
5394.736102
3960.61609
993.8611165
986.0239913
1445.781094
1490.836952
950.6158104
946.9862072
1456.853566
1466.697241
1439.440449
1449.437287
901.0286858
903.254575
1422.946204
1397.921988
897.2496082
899.0261997
923.77978
926.8117145
1464.109403
1452.792559
917.8620784
920.9084489
5167.608325
3180.707158
3202.095746
3133.559101
3153.674523
5148.209808
5159.326538
3528.124901
4082.196998
3244.881174
3326.764525
5136.874102
953.6989453
1499.041135
1489.988564
1512.03481
1505.922411
955.0520211
943.387131
1458.768617
1442.040168
1481.343143
1471.112887
948.3735939
973.3122041
1551.483231
1542.714642
1564.27077
1555.709203
975.4928035
960.5250378
1523.799562
1518.462533
1537.583502
1529.649248
962.8034686
1506.438404
1509.597727
668.5077935
949.7043874
947.7230923
954.7263121
953.1143648
672.3130031
1498.15717
1501.761864
1563.463378
1485.166884
734.970261
1004.947608
1014.198146
1409.130395
1358.997012
809.2859567
682.2309246
960.3175022
959.6284658
966.3672855
970.0881478
691.2272863
1533.477531
1526.786411
5707.527463
5573.59462
5876.087397
4243.146502
4919.864001
3553.330495
5621.094967
5688.147826
5609.497621
5620.494051
3624.400003
2575.220659
4844.684701
4144.498331
5512.000563
5649.1398
2986.399675
1019.648277
723.2153176
724.8110131
710.5993675
712.9323104
1008.479288
1614.297214
1627.039022
1586.630191
1601.778168
1573.642115
1987.897497
1442.158675
850.4999174
933.9987195
749.618642
771.0892165
1058.260085
1397.381429
1917.467972
1526.267008
1451.960213
992.6732198
1576.670807
1564.796182
1610.275153
1569.569835
988.886391
1552.949592
1563.481668
1517.475987
1528.17684
5809.027892
3908.615329
4149.127327
2985.775192
3509.117622
5908.450446
5996.416991
5806.28395
4507.917593
5093.730105
6325.916081
5922.464129
4539.367071
4794.774941
3671.178542
4126.727554
6099.158541
1675.486861
1676.575864
1659.421324
1662.847846
1108.91477
1120.267896
781.3709933
1734.318545
1641.378596
1693.224487
1684.355748
1637.989897
1027.477088
1034.652491
1020.933181
1025.840697
1634.418545
1671.106328
1046.904706
1100.802831
1036.064257
1049.726472
1674.379914
5841.813017
787.9024268
792.3029268
1140.129537
6078.634578
8931.609126
9269.4673
8873.209243
8825.258767
6701.236145
1738.991922
6666.605507
4829.666518
5214.52245
1079.543531
1702.530506
1687.82357
6627.958577
7287.543544
7039.656838
5771.060288
6283.297897
7736.217998
7348.713424
4759.908365
6946.666766
6009.387569
2099.006403
1691.065959
1136.953373
31.77860921
31.79620551
31.87265812
31.80343018
31.83369386
31.89172429
31.84501047
31.88735494
31.92057014
31.90133609
31.9505394
31.95439407
31.96385376
31.9978139
31.98236535
32.00212429
32.00845317
31.98922014
32.00402696
31.97834319
31.97224137
31.96732301
31.92381132
31.94251666
31.90905964
31.86659963
31.91114458
31.85461491
31.82072196
31.8864631
31.67800793
31.71450847
31.77312765
31.73036522
31.79051207
31.81845626
31.81653333
31.90266131
31.88305809
31.93418004
32.03228589
31.95741355
32.05576165
32.12228458
32.01563539
32.13378004
32.14544355
32.02427136
32.12732114
32.07484893
31.98889515
32.04951144
31.96282365
31.92573143
31.93423051
31.85233414
31.85735022
31.82730803
31.76198403
31.8024038
31.59880459
31.66913971
31.69925764
31.70014406
31.82283765
31.79113014
31.87490824
32.0651768
31.92487421
32.13664691
32.37424483
32.07440054
32.41637447
32.58269054
32.20726969
32.61402081
32.64345624
32.20540916
32.57299438
32.43506522
32.12503946
32.36815965
32.16408595
31.99265611
32.0988329
31.92417926
31.85926027
31.87420059
31.751469
31.75313173
31.54652926
31.67227055
31.66319548
31.7317918
31.9815142
31.84877253
32.0937739
32.54591037
32.14546393
32.73696363
33.49403329
32.5073705
33.65718672
34.36166935
32.85052136
34.41482227
34.41769136
32.84142484
34.09645289
33.53112714
32.59319559
33.30684148
32.73382582
32.26035191
32.56871113
32.17283808
31.96644217
32.06720134
31.82129254
31.75907167
31.52726511
31.74700845
31.68428027
31.85473137
32.3361947
32.04949861
32.56926626
33.66535282
32.74666611
34.2280949
37.29935412
33.92292549
38.53856695
45.65076991
35.43050089
45.6556122
42.80175409
35.19693038
40.3179985
36.78629392
34.00607491
35.89535659
34.07045428
32.97629916
33.64168134
32.71708777
32.27734022
32.49413018
32.00490065
31.85402001
31.5421003
31.89042895
31.7767368
32.06421433
32.88958117
32.45713238
33.32386893
35.65423269
34.08744646
37.09327629
50.91759466
38.7159449
46.54668857
53.76934569
43.79445279
68.37583257
65.80443574
48.67977
52.11081938
45.43498817
42.31197316
42.23347958
36.72155323
34.59466676
35.67593331
33.66182508
32.91688494
33.22632606
32.33234103
32.07254237
31.58581617
32.07819787
31.93322783
32.3255171
33.52073121
33.04611782
34.1629722
37.71583252
36.22237748
38.67597781
41.50076076
40.46001959
62.81198475
72.08742072
68.02958659
105.6679435
73.42345451
60.67582089
52.77228516
40.7109079
37.62293144
38.66968782
34.99726446
33.97097642
34.25445733
32.79126585
32.43636625
31.64889198
32.27653267
32.12860155
32.58773471
34.06619998
33.66594767
34.84713583
39.03399453
38.10902899
40.89428395
44.43921371
43.89002589
73.83343083
87.91076327
86.7783766
169.925911
103.0436526
92.46134721
62.97677935
44.95052679
41.80452634
41.90234843
36.46408985
35.3671681
35.39043853
33.31159948
32.91867004
31.71750497
32.46093007
32.32413654
32.8223015
34.49656948
34.18316707
35.36072182
39.87006909
39.26707887
42.11450348
45.97803881
45.62997287
79.18104292
105.3840906
102.3039212
189.7330989
118.6019394
114.5831379
69.29445769
48.22788111
45.90115905
44.50015771
37.74517598
36.82380875
36.39873202
33.79515423
33.43239919
31.78402401
32.6223837
32.50286408
33.02242464
34.83938374
34.58739626
35.76317583
40.5422041
40.03421753
43.01808931
47.24187455
46.86183094
88.49951995
120.8413031
117.8735611
181.1796787
120.7575547