/*--------------------------------*- C++ -*----------------------------------*\
| =========                 |                                                 |
| \\      /  F ield         | OpenFOAM: The Open Source CFD Toolbox           |
|  \\    /   O peration     | Version:  v1912                                 |
|   \\  /    A nd           | Website:  www.openfoam.com                      |
|    \\/     M anipulation  |                                                 |
\*---------------------------------------------------------------------------*/
FoamFile
{
    version     2.0;
    format      ascii;
    class       surfaceScalarField;
    location    "0.08";
    object      phi;
}
// * * * * * * * * * * * * * * * * * * * * * * * * * * * * * * * * * * * * * //

dimensions      [0 3 -1 0 0 0 0];
oriented        oriented;


internalField   nonuniform List<scalar> 
25162
(
0.0004552696066
0.9161947304
0.0005850243379
0.9165702453
0.0007192401191
0.9165157842
0.0003553237362
0.9165200308
0.0004938855921
0.4583358939
0.0003694297937
0.4582914205
0.0004699810642
-0.0004614015932
-0.0005932220376
0.4582597084
0.0006835136669
-0.000772493129
0.4582026348
0.000904858345
-0.001049241
0.4581740925
0.001205148461
-0.001379688665
0.4581510351
0.001563653612
-0.001745498466
0.4581604363
0.001920062187
-0.002084701892
0.4582053164
0.002210885514
-0.002297928226
0.4582952469
0.002336181279
-0.002322518586
0.4583961991
0.002261319496
-0.002157743807
0.4584710805
0.002016663267
-0.001861126825
0.4585014355
0.001694691315
-0.001515096001
0.4584998293
0.001350266737
-0.001189740244
0.4584963581
0.001008382135
-0.0009275096706
0.4584630666
0.0008144430473
-0.000669576444
0.4584677952
0.0005517812036
-0.001671497693
0.918679881
0.0001411419369
-0.0004995252164
-0.001047822059
0.9187263244
1.251339925e-05
0.9157896645
0.9138125134
0.001252259062
0.9149424713
0.002025236448
0.9157972679
0.002399751348
0.9161412693
0.0008084274147
0.9168456136
0.001265741161
0.4579797069
0.0009788389205
-0.4581501184
-0.4581132755
-0.001211843475
0.4578223553
0.001502763658
-0.4579363046
-0.001860739873
0.4575079689
0.001073849657
0.001215225915
-0.2288931245
-0.001299188358
0.228781919
0.001410393808
-0.001876953936
-0.2288195608
0.228673293
0.002023221654
-0.002596840984
-0.2287675095
0.22858454
0.002779810547
-0.003406777046
-0.2287790925
0.2285853923
0.003600477224
-0.004144660619
-0.2288774066
0.2287445608
0.004277416823
-0.004249087151
-0.2290718688
0.2289240836
0.004397017843
-0.004691862331
-0.2292710148
0.2292862874
0.004676589774
-0.004339447855
-0.2294000502
0.2295276953
0.004211802722
-0.003701701003
-0.2294622547
0.2296525334
0.003511422325
-0.002946856625
-0.2294591933
0.2296590976
0.002746952354
-0.002237994914
-0.2294120847
0.2295861784
0.00206390122
-0.4589053049
-0.003129732784
0.4603704207
0.001664616923
-0.0003315555183
0.4609785059
-0.00137267162
-0.4592742788
-0.001590746927
0.9182606099
0.0003967663644
0.001613251617
-0.0009825373342
0.9181181148
0.0003548695092
0.9144522577
0.9141673829
0.001591362613
0.9133511087
0.004239603426
0.9131490271
0.007210886116
0.9131699866
0.003100903904
0.9143668452
0.006588750561
-0.4578649975
0.4575967643
0.003369137058
-0.4575277361
-0.003466392645
0.4580376031
0.002956525553
-0.456923505
-0.003206615303
0.4564920156
0.001759154134
0.001878950618
-0.2282404971
-0.002174970985
0.2280046211
0.002410846971
-0.2279517376
-0.003248999725
0.2276302709
0.003570466415
-0.2277610963
-0.004179192577
0.2298407253
0.002096246724
-0.2322660621
0.005023942725
0.2341342512
-0.006904483195
-0.2316565219
0.01081931063
0.2323852104
-0.0115565379
-0.2281424615
0.01217277021
0.2278452222
-0.01187306555
-0.2252075778
0.009494662076
0.2239525256
-0.008227576644
-0.2263210306
0.002942334203
0.2241123786
-0.0007216614584
-0.2305009816
-0.006404099144
0.2303835204
0.006522417203
-0.2305087171
-0.005386890073
0.2308834299
0.005012177308
-0.003682629398
-0.2303689113
0.2310673237
0.002984216985
-0.4630400076
-0.0001508922028
0.4619270481
0.00126385167
-0.4601029337
-0.001358818781
0.4601281757
0.001333576793
0.0002197286709
0.9200882119
-0.001178715109
-0.000868615494
0.001634151519
0.9167036919
0.0007560510726
0.9153303582
0.914923434
0.0005853924664
0.9127657163
0.001304197072
0.9124302225
0.002701125953
0.9117730577
0.003492153533
0.9111178324
0.00245798519
-0.4567358805
0.4561890711
0.00403896287
-0.4594224805
-0.005389562784
0.4562018762
0.008610167118
-0.4577283643
-0.01007912946
0.4590286817
0.002705669718
0.006073142372
-0.227136653
-0.002841281839
0.2268461982
0.003131736593
-0.2276663078
-0.003475542142
0.2300846741
0.001050214094
-0.2368219675
0.005407844887
0.2384719177
-0.007088611489
-0.2379320999
0.01033896714
0.2383820784
-0.01082079134
-0.2331878093
0.01084526169
0.2328711112
-0.01054485682
-0.2269047618
0.009371941407
0.2265907585
-0.009052617158
-0.2214519895
0.008227357418
0.2211877415
-0.007937605025
-0.219220031
0.006400913545
0.2183849967
-0.005529592793
-0.2232185017
0.001513543548
0.2214614268
0.0002716022544
-0.2346105102
-0.001919897605
0.2377800941
-0.001248889611
-0.003892259806
-0.2320222257
0.2320683788
0.003846106721
-0.4619863537
-0.005779314624
0.4632706861
0.004494982253
-0.4608967434
-0.003227028414
0.4619300638
0.002193708058
0.003006183473
0.9201567558
-0.00163105779
-0.001443669609
0.002074321034
0.9176355544
0.0009519230741
0.9164527561
0.9158753571
0.0001593184971
0.9126063978
0.0004126657337
0.9121768752
0.0009103695466
0.9112753539
0.001571730669
0.9097569637
0.000699507647
-0.4558016895
0.4548944252
0.002478995007
-0.4545886407
-0.003052711234
0.4537681676
0.003873184298
-0.452654095
-0.00497864621
0.4515809147
0.003169654078
0.00288217243
-0.2271907463
-0.005201234521
0.2254707719
0.006921181977
-0.2363718425
-0.005116157314
0.2396920482
0.001758187577
-0.2407017552
0.003672113616
0.2405567309
-0.00358160945
-0.2367380117
0.0008908255452
0.2351473563
0.0006572606794
-0.2296866794
-0.006326515079
0.2277850704
0.008210279511
-0.2255521139
-0.01212096242
0.2250985993
0.01258016448
-0.2225430743
-0.01096043405
0.2239538444
0.009579424834
-0.2189246249
-0.00423172992
0.2203292857
0.00287906671
-0.2279742071
0.008625809893
0.2231992978
-0.003807242011
-0.2262364659
-0.001835134337
0.2251274129
0.002971352065
-0.005555296882
-0.2335563805
0.234140205
0.00497147234
-0.4650013767
-0.006601436999
0.4666554193
0.004947394393
-0.4629052291
-0.003756231199
0.4639056353
0.002755824997
0.003685192759
0.9220962923
-0.003163011692
-0.002461717559
0.001998738177
0.919322009
0.00089814735
0.9175533469
0.9167735044
-0.0001960499461
0.9128024477
-0.0002550129583
0.9122358382
3.416515519e-06
0.9110169245
0.0003630075372
0.9091184959
0.0002788768028
-0.453914381
0.4534870392
0.0007903492926
-0.4530706438
-0.001889553949
0.4521286232
0.002831574618
-0.4504508208
-0.003613319614
0.449129536
0.002461624721
0.002472979733
-0.2280610437
-0.002097675479
0.2287429732
0.001397584121
-0.2370333741
-0.0007856937814
0.2366006359
0.001162399987
-0.2382800609
-0.006380449844
0.2348330406
0.009767251199
-0.2282681694
-0.01933321353
0.2276819293
0.01988379299
-0.2195799803
-0.03069363744
0.2171623999
0.0331025266
-0.2233715735
-0.04152069792
0.2226844412
0.04220889109
-0.2325952497
-0.03466002333
0.2352751839
0.03199652787
-0.2338140598
-0.01593965247
0.2341118456
0.01568925109
-0.2227420401
-0.01090919279
0.2247551664
0.008958985194
-0.2245718517
-0.005108674457
0.2252914499
0.004440283479
-0.004174487839
-0.2348895769
0.2346831089
0.004389155753
-0.4680914551
-0.006602328389
0.4695196599
0.005174123583
-0.4645051984
-0.00411818528
0.4650454114
0.003577972309
0.002896119568
0.9243582697
-0.00245449133
-0.002703605613
0.00154168559
0.9206764429
0.0006190364417
0.9184759961
0.9173925409
-0.0007191642362
0.9135216119
-0.001276430141
0.9127931042
-0.001619536228
0.9113600306
-0.0002197696196
0.90878857
-0.001069840764
-0.4532941345
0.4529133926
0.0001609722923
-0.4509281125
-0.0004830963291
0.4504372473
0.0009739615309
-0.4484867075
-0.002110463764
0.4479150231
0.001346900758
0.001335741236
-0.2289184758
-0.001101504442
0.2286957803
0.001293524789
-0.2346985949
-0.003430318089
0.2321727376
0.005886253619
-0.2276335441
-0.01070615213
0.2254657755
0.01281236557
-0.213706847
-0.02167320596
0.2090341305
0.02632474774
-0.206087322
-0.04532971556
0.1043913196
0.09856079927
0.0220589523
0.02640596642
-0.03245308616
-0.108712478
0.1081464951
0.03301906906
-0.02620429334
-0.250983625
0.04949651864
-0.02660164563
0.1267387476
0.1275542977
-0.03568879812
-0.243184644
0.248008625
0.03089565325
-0.2331126725
-0.01914746538
0.236633523
0.01569405845
-0.2294943747
-0.008361844794
0.2310820102
0.006828779522
-0.004019527184
-0.2339784703
0.2343543499
0.003664738424
-0.4709214847
-0.005304997691
0.4717592731
0.004467209331
-0.4660122485
-0.003324364417
0.4669436934
0.002392919492
0.001363480533
0.9258566905
-0.001280472449
-0.001581428962
0.000540805649
0.9214991178
0.0001560239151
0.9188607778
0.9175485648
-0.0012862237
0.9148078357
-0.002499647769
0.9140065282
-0.003482856331
0.9123432391
-0.00181544967
0.909639799
-0.002518635661
-0.4528861026
0.4528833177
-0.001812664797
-0.4501956972
0.001860096262
0.4500739456
-0.001738344698
-0.4465985618
0.001530440591
0.4463573708
-0.0005093984786
-0.0007798055731
-0.2269517388
-0.0006974112953
0.2261445207
0.001465637919
-0.2277802615
-0.004794983866
0.2264965836
0.006010420002
-0.2194909414
-0.01036326763
0.2179143452
0.01188582594
-0.2012960721
-0.01603816208
0.2001580993
0.01716975337
-0.0898065613
-0.01103358601
0.08956401138
0.01127613594
-0.03306694069
-0.1407788063
0.1437174361
0.0301283109
-0.03556739758
-0.2629064869
0.2672766623
0.0312111834
-0.2457805495
-0.02089811062
0.2487029061
0.01803122583
-0.2371195609
-0.01070143437
0.2392284746
0.008655333915
-0.003429820769
-0.2366170281
0.237446086
0.002622950115
-0.4729324104
-0.002691471942
0.473848479
0.001775403415
-0.4676526565
-0.001162031385
0.4682082519
0.0006064360177
-0.0009861354652
0.9263693293
0.0005498661624
-7.636946618e-05
-0.0008926321529
0.9214056145
-0.0005012742895
0.91846942
0.9170472905
-0.001859867361
0.916667703
-0.003644266374
0.9157909273
-0.005496458591
0.9141954314
-0.003241574434
0.9113350994
-0.00395018451
-0.4531662289
0.4534401628
-0.003515508325
-0.4501882536
0.003838128443
0.4504974947
-0.004147369453
-0.4462550699
0.004452790849
0.4464781003
-0.002186051571
-0.002492220876
-0.2242294777
0.001699073518
0.2235172645
-0.001012018511
-0.2223667949
-0.002025904043
0.2211450499
0.003205133721
-0.214396583
-0.006401525714
0.2136269581
0.007138223168
-0.2001920505
-0.00753432727
0.2008788695
0.006845755226
-0.09334011736
-0.001330037056
0.09402965945
0.0006404949614
-0.01470430142
-0.1568195659
0.1573230056
0.01420086174
-0.02041359369
-0.2766640492
0.2781988713
0.01888405059
-0.2562178746
-0.01383814879
0.2580199076
0.01207019845
-0.244815168
-0.006768709863
0.2463878297
0.005235457327
-0.001503409864
-0.2401581266
0.2409880959
0.0006936470374
-0.4749566063
0.0008587186511
0.4757807708
-0.001682883193
-0.4684148089
0.00198552266
0.468456272
-0.002026985788
-0.003771703508
0.9254081654
0.002646518075
0.002086349356
-0.002613118914
0.9202470299
-0.001342807781
0.9171991088
0.9157044827
-0.002394998233
0.9190627013
-0.004912729434
0.9183086585
-0.007395972443
0.9166786744
-0.004667520835
0.9139886806
-0.00538203283
-0.4540050969
0.4545689012
-0.005231325117
-0.4509537152
0.005886680576
0.4516997348
-0.006632700171
-0.4469080926
0.007395160017
0.4476205908
-0.003830877724
-0.004276443929
-0.2215721233
0.003495344369
0.2209760855
-0.002907664655
-0.2179303525
0.0003703296058
0.2169915794
0.0005539908415
-0.2120857164
-0.002713531958
0.2117686705
0.003019151722
-0.2036580387
-0.00202393449
0.2046897319
0.0009919354443
-0.09766184965
0.001417761423
0.09806517905
-0.0008897355816
-0.0009313552267
0.003710569726
-0.1543478307
0.1532895564
-0.002652295412
-0.00222561604
-0.2782276654
0.277037567
0.003418727565
-0.2612164228
-0.004080564955
0.2617057743
0.003610491083
-0.2503070931
-0.001219251366
0.251245314
0.0003044151751
0.00195809701
-0.2430255817
0.2435155576
-0.002435474454
-0.475573956
0.005616991205
0.474857009
-0.00490004416
-0.4681060108
0.004564970976
0.4682445255
-0.004703485709
-0.006785490924
0.9229369385
0.004975312931
0.004281404839
-0.004442397193
0.9179039362
-0.002235599683
0.9149923113
0.913468883
-0.002998840544
0.9220615418
-0.00601209386
0.9213219118
-0.009219532492
0.919886113
-0.006022546876
0.9174970158
-0.006705320772
-0.4554000345
0.4562321618
-0.00685467423
-0.4525757606
0.007860677786
0.4535671825
-0.008852099666
-0.448677034
0.01000949158
0.449933381
-0.005500931804
-0.005758760495
-0.2193234098
0.005001555989
0.2188024452
-0.004470317892
-0.2144650822
0.002230900884
0.2137026879
-0.001454337419
-0.2112245631
-9.678455978e-05
0.2111574666
0.0001728636969
-0.2078907118
0.001450815013
0.20898134
-0.002541283285
-0.1004755339
0.002921591439
0.1007634962
-0.001589143785
-0.001620409978
0.013473801
-0.1441696198
0.1427458166
-0.01204999782
0.01087414811
-0.2713797323
0.2690931819
-0.008586987649
-0.2618407425
0.005330140579
0.2612152603
-0.004698291776
-0.25316316
0.005029402791
0.2534242477
-0.00528569661
0.005919859698
-0.2441339384
0.2441513376
-0.005934955748
-0.473756092
0.01004918
0.4723222798
-0.00861536783
-0.4682208538
0.007345579522
0.4670678988
-0.006192624552
-0.009537215864
0.9192073408
0.006876208075
0.006390605488
-0.006188191407
0.9145549117
-0.003041589757
0.9118457097
0.9104272933
-0.003532796096
0.9255943379
-0.007118488774
0.9249076045
-0.01089819446
0.9236658187
-0.007213690465
0.9214192836
-0.007606771865
-0.4572737092
0.4583059869
-0.008245968184
-0.4548031512
0.009449823742
0.4561173737
-0.01076404626
-0.4510746143
0.0122222715
0.4524986691
-0.006586186007
-0.00704630397
-0.2172758679
0.006024442564
0.2167640755
-0.005481189728
-0.2116023463
0.003321949949
0.2109558473
-0.002631606695
-0.2112516544
0.001469947514
0.2113818228
-0.001571847377
-0.2123797131
0.003820647399
0.2135738919
-0.005014768035
-0.1026916842
0.004258252919
0.1029795328
-0.002253499086
-0.002292602429
0.01667688539
-0.1331452363
0.131772587
-0.01530423604
0.01745861376
-0.2623263683
0.260346038
-0.01548632274
-0.2596376731
0.01126247134
0.2598594265
-0.01150112478
-0.2533804124
0.01121234278
0.253099363
-0.01093615491
0.009351213562
-0.242914274
0.2422174976
-0.00865823558
-0.4706152429
0.01362716003
0.4686554383
-0.01166735543
-0.4658346665
0.00995627951
0.4643534066
-0.008475019592
-0.0119423218
0.9160863342
0.007782853162
0.007280475328
-0.007685396254
0.9102979862
-0.00373459182
0.9078949052
0.9066927015
-0.007684023328
0.9332783613
-0.01557736796
0.9328009491
-0.02363715025
0.931725601
-0.008398255998
0.9300290373
-0.02384864786
-0.4595773778
0.4608332715
-0.009654149687
-0.457488915
0.01104947649
0.4590607461
-0.01262130763
-0.4530044721
0.01423188518
0.4528133692
-0.006876498873
-0.007119715132
-0.2153484095
0.005679134893
0.2145371951
-0.004805392376
-0.2091087922
0.003237241659
0.2087163054
-0.002770184725
-0.2120478863
0.002478142938
0.2118289203
-0.002214311155
-0.2173688465
0.005105334514
0.2186911999
-0.003219371082
-0.003208316854
-0.05276441488
0.002751419859
0.05286225191
-0.002849256895
-0.05786665252
0.006290262976
0.05736018532
-0.01221054874
0.006426752964
0.01476670408
-0.1236356644
0.243496376
-0.02535905255
0.0143143771
-0.1235827403
-0.2552648802
0.01947950552
0.2543255227
-0.01856229546
-0.257988452
0.01601276416
0.2572774085
-0.01534029332
-0.2519968834
0.01388592774
0.2514214296
-0.01334388516
0.01108323162
-0.238974249
0.2379151453
-0.01003168666
-0.4663719867
0.01592825685
0.4640943723
-0.01365064237
-0.4628170889
0.01186925308
0.4611758595
-0.01022802366
-0.01379517537
0.9117441168
0.009298356356
0.008839036478
-0.00887497308
0.9053777839
-0.004361495631
0.9033814278
0.9023312058
-0.004154953286
0.9374333146
-0.008439901062
0.9370858969
-0.01299135704
0.936277057
-0.00889021121
0.9350074139
-0.009079522431
-0.46413225
0.4654589958
-0.01021695699
-0.4624240176
0.01169762141
0.4640263107
-0.01329991449
-0.4537268311
0.01505134983
0.4561286279
-0.008478006507
-0.008928992594
-0.2126110629
0.008527345366
0.2123938636
-0.008246906692
-0.2068820289
0.00661375968
0.2063260144
-0.005975826452
-0.2137319845
0.004524377899
0.2135985687
-0.004342471791
-0.2231519407
0.005301618543
0.2244714904
-0.003321215163
-0.003299953105
-0.05522514962
0.005770107498
0.1109133424
-0.05520136971
-0.00312511907
-0.003131811466
-0.1109425414
0.008069024585
0.1107858842
-0.01572144784
0.007809080469
0.02407165246
-0.2361901652
0.2347306182
-0.0226137415
-0.2513122174
0.01727734141
0.2510456495
-0.01705828178
-0.2556454395
0.01662808713
0.2576535293
-0.01869689237
-0.2494173695
0.01736607972
0.2473415427
-0.01532556135
0.01138553018
-0.2335335495
0.2324089044
-0.01026174843
-0.4620720337
0.01674339225
0.4602501761
-0.01492153464
-0.4595246156
0.01316532561
0.4576358396
-0.01127654952
-0.01329742965
0.9065805849
0.009160670753
0.009300290807
-0.009602096895
0.9016824512
-0.004697553406
0.8984768843
0.8976336524
-0.004312677367
0.9417459919
-0.008750959259
0.9415241788
-0.01344274184
0.9409688396
-0.009207267187
0.9400913143
-0.00931937505
-0.466864906
0.468260982
-0.01060334319
-0.4656397165
0.01211364841
0.4672509566
-0.01372488848
-0.4599620901
0.01546185191
0.4644925231
-0.009963226892
-0.01001996535
-0.2133056344
0.01248970387
0.2142519676
-0.01338478164
-0.205243123
0.01455348218
0.2052255045
-0.01446275202
-0.21191097
0.01295701452
0.2111181486
-0.01211334452
-0.2255448627
0.008727518123
0.2241969975
-0.007370148668
-0.114204105
0.008902502248
0.2286299168
-0.009156714077
-0.1141716
-0.2238397364
0.01509286277
0.2243999885
-0.01565311482
-0.2356503242
0.01901040405
0.2370685703
-0.02045407467
-0.2518197706
0.022764289
0.2519587832
-0.02297561655
-0.2556772454
0.02222656173
0.2549145611
-0.0215470808
-0.2428625926
0.01830832637
0.2427504875
-0.01823442974
0.01234321717
-0.231223239
0.2288383062
-0.009958284419
-0.4586294823
0.01829421344
0.4553588159
-0.01502354696
-0.4557355714
0.01340903313
0.4535988745
-0.01127233611
-0.01364285665
0.9015504962
0.009406394314
0.009266551003
-0.009636156931
0.8976757515
-0.004894454472
0.8937351819
0.892739198
-0.004353932461
0.9460999244
-0.008819997741
0.9459902441
-0.01350782438
0.9456566662
-0.009263802852
0.9451237325
-0.009276439773
-0.4696433407
0.4710319034
-0.01065236553
-0.4688376014
0.01212808435
0.470391367
-0.0136818499
-0.46810087
0.01533662745
0.4699104188
-0.008623426497
-0.008522904686
-0.2194386652
0.01396752802
0.2220036032
-0.01650266629
-0.2069702107
0.02246079116
0.2083454769
-0.02377927039
-0.2093656251
0.02555113738
0.2093115881
-0.02544853038
-0.2203586629
0.02358562763
0.2194576304
-0.02266382015
-0.2258369258
0.02035039986
0.2239779423
-0.01849333262
-0.2294535005
0.02271195678
0.2309508524
-0.02422961712
-0.2415203469
0.02873484431
0.242612674
-0.02987748417
-0.252019821
0.03118903741
0.2515899413
-0.03083469116
-0.2511418224
0.02742223637
0.2492402799
-0.02558934177
-0.2364475538
0.01856136396
0.2337199961
-0.01585744296
0.01164648715
-0.2267919955
0.2261600361
-0.01101452771
-0.4544935997
0.01842852504
0.4516970019
-0.01563192727
-0.4506635905
0.01214572875
0.4490082832
-0.01049042138
-0.01273806085
0.895116818
0.009834560899
0.009337178132
-0.007176098683
0.8921137893
-0.004922118306
0.8914812015
0.8878170797
-0.004292719417
0.9503926438
-0.008680175556
0.9503777003
-0.01325042424
0.9502269149
-0.009097340591
0.9499769253
-0.009006276378
-0.472363262
0.4736905483
-0.01042462692
-0.4718945495
0.0118186822
0.4733432635
-0.01326739615
-0.4715950453
0.01478857968
0.4731919081
-0.008243895743
-0.008141546703
-0.2320969694
0.009152183575
0.235413705
-0.01246560361
-0.2153481314
0.02379601157
0.2186510613
-0.02706641237
-0.2117530219
0.03469553293
0.2135491059
-0.03645590077
-0.2187810379
0.03963359556
0.2193544457
-0.04018908719
-0.2174522666
0.03927161952
0.2154716814
-0.03729815848
-0.233580137
0.04123577138
0.2338487778
-0.04153668539
-0.2436132878
0.04150441166
0.2430477822
-0.0409930218
-0.2479455311
0.03724544174
0.2458469943
-0.03520766497
-0.2412853896
0.0269270858
0.2378993728
-0.02358047541
-0.2252227922
0.01298263106
0.2245162268
-0.01227617866
0.01068985589
-0.2244670057
0.2239511574
-0.0101740075
-0.4479312944
0.01727150365
0.4461449702
-0.01548517948
-0.4473813493
0.0137856374
0.4457397042
-0.0121439923
-0.01178815371
0.8878717904
0.01038698427
0.008646197063
-0.006700081364
0.887025717
-0.004518067028
0.8892991872
0.8832990126
-0.004149322607
0.9545419665
-0.008373963991
0.9546023417
-0.01273762796
0.9545905789
-0.008743231356
0.9545545943
-0.008572065643
-0.4749447789
0.4761809485
-0.009979400934
-0.4747253746
0.01126354158
0.4760420103
-0.01258017725
-0.4746939731
0.0139415076
0.4760988796
-0.007739542853
-0.007606871226
-0.2372601943
0.008477021207
0.2376346999
-0.008851526793
-0.2309555176
0.01209038754
0.235595002
-0.01672430124
-0.2218130647
0.02928574969
0.2253717646
-0.03282801685
-0.2234360375
0.04118286821
0.2254461407
-0.04318353953
-0.212658812
0.04354020276
0.2129715449
-0.04386077432
-0.2330573775
0.0462918146
0.2323549348
-0.04561533585
-0.2387263294
0.04146285756
0.2365568115
-0.03932936063
-0.2370880051
0.03072190788
0.2335232011
-0.02718614907
-0.2260625698
0.01516491787
0.2233895962
-0.01249503585
-0.2231029082
0.01128544469
0.2226940559
-0.01087659245
0.009641424922
-0.2225852723
0.2221716097
-0.009227762278
-0.4444924496
0.01586823618
0.4429697967
-0.01434558331
-0.4442264226
0.01286390277
0.442767394
-0.0114048742
-0.01446105423
0.8826360203
0.009713549457
0.009983274924
-0.009494104063
0.8820587668
-0.001889556896
0.88169464
0.8814094557
-0.003943260537
0.958485227
-0.007941904617
0.9586009857
-0.01203608194
0.9586847562
-0.008250893609
0.9587953268
-0.00802592077
-0.4773380393
0.4784687214
-0.00938157568
-0.4772853467
0.0105428548
0.4784598507
-0.01171735878
-0.4774079886
0.0129136588
0.4786241823
-0.007138641604
-0.006991210864
-0.2386607037
0.007764700292
0.2389726389
-0.008076635504
-0.2383059947
0.009010721917
0.2386142673
-0.009318994539
-0.2371961542
0.01021796911
0.2378654595
-0.01088672951
-0.2325921944
0.01947686468
0.2351617087
-0.02204475409
-0.2162520549
0.02556461812
0.217600089
-0.02691589468
-0.2294537013
0.02732126175
0.2283643774
-0.02624062608
-0.2287505647
0.02037114869
0.2260029729
-0.01763024874
-0.2235674831
0.01192897483
0.2233717444
-0.01173323615
-0.222433597
0.01102371034
0.2221632134
-0.01075332668
-0.2216219223
0.009869524745
0.2213095289
-0.009557131311
0.008589769985
-0.2210783252
0.2207444417
-0.008255886447
-0.4415706959
0.01435086514
0.440288184
-0.01306835326
-0.4414362767
0.01179440862
0.4401597719
-0.01051790379
-0.0134519066
0.8778963565
0.008936444688
0.009255125728
-0.008875074461
0.8774819347
-0.004405255715
0.8772248213
0.8770042
-0.003693585829
0.9621788128
-0.007424087325
0.9623314873
-0.01121091308
0.962471582
-0.007669941264
0.9626688656
-0.007414510636
-0.4795185181
0.4805388513
-0.008690274465
-0.4795608209
0.009726291454
0.4805948274
-0.01076029797
-0.4797484404
0.01179769428
0.4807857164
-0.006483982522
-0.006350987721
-0.2398237604
0.007020375476
0.240082098
-0.00727871303
-0.2394375567
0.008035059067
0.2396815709
-0.008279073282
-0.2386231032
0.008977011656
0.238843159
-0.009197067536
-0.237057695
0.009757868051
0.2371281815
-0.009828354521
-0.2200673092
0.009832575465
0.220491769
-0.01025703527
-0.2270486965
0.01061026789
0.2270650491
-0.01062662052
-0.2247752527
0.01054245955
0.2247043429
-0.01047154975
-0.2228687003
0.01014465132
0.2227244019
-0.01000035291
-0.2214615906
0.009474116988
0.2212587471
-0.009271273523
-0.2204843551
0.008597320255
0.220241923
-0.008354888101
0.007589291909
-0.2198664726
0.2195948984
-0.007317717693
-0.4391127668
0.01283875323
0.4380363182
-0.01176230472
-0.4390025153
0.01067430263
0.4378947091
-0.00956649647
-0.01233551125
0.8736599239
0.00811930117
0.008452642617
-0.008175914333
0.8733223378
-0.004068866147
0.8731177731
0.8729353339
-0.003417890454
0.9655967033
-0.00685681158
0.9657704084
-0.01031905147
0.9659338219
-0.00704135028
0.9661664809
-0.006775316503
-0.48147888
0.4823924223
-0.007954892536
-0.4815593375
0.008870782472
0.4824619995
-0.009773444476
-0.4817412989
0.01066706373
0.4826205906
-0.005829448161
-0.005716907314
-0.2407856134
0.006288521675
0.2409990966
-0.00650200488
-0.2403346747
0.007115116947
0.2405288028
-0.007309245006
-0.2394209157
0.007855537452
0.2395895414
-0.008024163139
-0.2372754585
0.008423918476
0.2373081403
-0.008456600261
-0.2216137104
0.008527741593
0.2219431431
-0.00885717433
-0.2270908918
0.009055530972
0.2270929687
-0.009057607815
-0.2245148008
0.008977848712
0.2244579923
-0.008921040167
-0.2223467008
0.008668104088
0.2222363919
-0.008557795255
-0.2207254901
0.008155220461
0.2205693643
-0.007999094676
-0.2195965957
0.007474630486
0.2194055457
-0.007283580531
0.006671291467
-0.2188852953
0.2186639118
-0.006449907883
-0.437049574
0.01140287831
0.4361440077
-0.01049731202
-0.4368949804
0.009569989027
0.4359377208
-0.008612729444
-0.01118721177
0.869904822
0.007306080549
0.007636233074
-0.007444470602
0.8695795966
-0.00371342535
0.8693867279
0.8692219085
-0.003130261269
0.9687269646
-0.006268517353
0.9689086645
-0.009404341927
0.9690696465
-0.006399548146
0.9692977523
-0.006136065195
-0.4832259882
0.4840371945
-0.007210754508
-0.4833011343
0.008014735131
0.4840845392
-0.008798140029
-0.4834286233
0.009564501496
0.4841701437
-0.005200359872
-0.005105661971
-0.2415802258
0.005592564779
0.2417566468
-0.005768985803
-0.2410501644
0.006267458274
0.2412056393
-0.006422933239
-0.2400353787
0.006854965903
0.2401663418
-0.006985928959
-0.2373715808
0.007274968541
0.2373837798
-0.007287167594
-0.2228144771
0.007401880212
0.2230693662
-0.007656769372
-0.2270845854
0.007764314508
0.2270778151
-0.00775754422
-0.2243028765
0.007680388297
0.224255609
-0.007633120791
-0.22194323
0.007430801099
0.2218564081
-0.007343979217
-0.2201544411
0.00702826076
0.2200317352
-0.006905554934
-0.2188934511
0.006490383255
0.2187408403
-0.006337772436
0.005843204399
-0.2180876848
0.2179064122
-0.005661931832
-0.4353126923
0.01007078156
0.4345498026
-0.009307891861
-0.4350764104
0.008517654096
0.4342509163
-0.007692160072
-0.01005704258
0.8665960339
0.006525931387
0.006839899312
-0.006715576633
0.8662381306
-0.003356713773
0.866027865
0.8658651948
-0.002842848551
0.9715698131
-0.005683415459
0.9717492314
-0.008502425959
0.971888657
-0.005770484835
0.972082672
-0.005516860839
-0.4847715959
0.4854878253
-0.006486714272
-0.4848114448
0.007189374361
0.4854890942
-0.007867023785
-0.4848528705
0.008523560942
0.4854808343
-0.004620069643
-0.004531455013
-0.2422366501
0.004948970294
0.2423823929
-0.005094713101
-0.2416246766
0.00550136162
0.241750052
-0.005626737064
-0.2405146085
0.005971813357
0.2406174011
-0.006074605904
-0.2374021041
0.006285060569
0.237403717
-0.006286673542
-0.2237408566
0.006433530312
0.2239365002
-0.006629173873
-0.2270485323
0.006680242983
0.2270363283
-0.006668039024
-0.2241249708
0.006593906641
0.2240847749
-0.006553710731
-0.2216229146
0.006388019137
0.2215530276
-0.006318132081
-0.2197026761
0.006065542221
0.2196045529
-0.005967418986
-0.2183291453
0.005633891724
0.2182057237
-0.005510470132
0.00510693897
-0.2174341307
0.217284496
-0.00495730426
-0.4338488154
0.008860147771
0.4332047614
-0.008216093723
-0.4335096176
0.007541946711
0.4327981685
-0.006830497556
-0.008981210897
0.8636921727
0.00579659382
0.006088478286
-0.00601508049
0.8632720002
-0.003012065862
0.8630248504
0.8628531289
-0.002564008647
0.9741338218
-0.005117929826
0.9743031526
-0.007636783587
0.9744075107
-0.005169672067
0.9745467841
-0.004931223592
-0.4861318047
0.4867613327
-0.005799200109
-0.4861168908
0.006411238873
0.4867014962
-0.006995844293
-0.4860583828
0.007556703025
0.4865894702
-0.004085442649
-0.00400234778
-0.2427792726
0.004362026784
0.2428999661
-0.004482720242
-0.2420890227
0.004815814844
0.2421907877
-0.004917579818
-0.2408916681
0.005195513003
0.2409728535
-0.005276698461
-0.2374002788
0.005430664224
0.2373973158
-0.005427701225
-0.2244504653
0.005597465996
0.2245999364
-0.005746937138
-0.2269942078
0.005761815017
0.2269786802
-0.005746287329
-0.2239729081
0.005675695558
0.2239382783
-0.005641065781
-0.2213634877
0.005503184569
0.2213063127
-0.005446009584
-0.2193395935
0.005240854053
0.2192600597
-0.005161320211
-0.217871078
0.004890215454
0.2177702525
-0.004789389916
0.004457322437
-0.2168944247
0.2167700307
-0.004332928446
-0.4326121223
0.007773629407
0.4320668399
-0.007228346963
-0.4321602478
0.006652353925
0.4315470089
-0.006039115001
-0.007980082344
0.8611504698
0.00512780406
0.005393981115
-0.005358270766
0.8606501887
-0.002687513174
0.8603540928
0.8601656157
-0.002299927756
0.9764337495
-0.004584070638
0.9765872955
-0.006824169025
0.9766476091
-0.004607723301
0.9767186634
-0.004388325038
-0.4873240421
0.4878754889
-0.005159170107
-0.4872424974
0.005690925046
0.4877459322
-0.006194359916
-0.4870778357
0.006672874353
0.4875267997
-0.003598448916
-0.003523389425
-0.2432287557
0.003831181353
0.2433288668
-0.003931292422
-0.2424666363
0.004205027001
0.2425496919
-0.004288082543
-0.2411897669
0.004513189059
0.2412540587
-0.004577480903
-0.2373859212
0.004690321012
0.2373817999
-0.004686199693
-0.2249922225
0.004871456546
0.2251063613
-0.004985595349
-0.2269288158
0.004977026704
0.2269113181
-0.004959528919
-0.223841503
0.00489278491
0.2238114262
-0.004862708089
-0.2211503727
0.004746760749
0.2211030811
-0.0046994691
-0.2190442454
0.004531076951
0.2189791527
-0.00446598425
-0.2174958727
0.004243733722
0.217412895
-0.004160755975
0.003885752694
-0.2164458369
0.2163418855
-0.003781801266
-0.4315643345
0.006808173497
0.431101334
-0.006345173048
-0.4309977839
0.005852201676
0.4304688707
-0.005323288478
-0.007065558146
0.858929043
0.004524225888
0.004762759127
-0.00475464198
0.8583392725
-0.002388189381
0.8579876402
0.8577774263
-0.002054283847
0.9784880334
-0.004088806071
0.9786218177
-0.006073811058
0.9786326141