/*--------------------------------*- C++ -*----------------------------------*\
| =========                 |                                                 |
| \\      /  F ield         | OpenFOAM: The Open Source CFD Toolbox           |
|  \\    /   O peration     | Version:  v1912                                 |
|   \\  /    A nd           | Website:  www.openfoam.com                      |
|    \\/     M anipulation  |                                                 |
\*---------------------------------------------------------------------------*/
FoamFile
{
    version     2.0;
    format      ascii;
    class       pointVectorField;
    location    "0.08";
    object      pointDisplacement;
}
// * * * * * * * * * * * * * * * * * * * * * * * * * * * * * * * * * * * * * //

dimensions      [0 1 0 0 0 0 0];


internalField   nonuniform List<vector> 
26316
(
(0 0 0)
(0 0 0)
(0 0 0)
(0 0 0)
(0 0 0)
(0 0 0)
(0 0 0)
(0 0 0)
(0 0 0)
(0 0 0)
(0 0 0)
(0 0 0)
(0 0 0)
(0 0 0)
(0 0 0)
(0 0 0)
(0 0 0)
(0 0 0)
(0 0 0)
(0 0 0)
(0 0 0)
(0 0 0)
(0 0 0)
(0 0 0)
(0 0 0)
(0 0 0)
(0 0 0)
(0 0 0)
(0 0 0)
(0 0 0)
(0 0 0)
(0 0 0)
(0 0 0)
(0 0 0)
(0 0 0)
(0 0 0)
(0 0 0)
(0 0 0)
(0 0 0)
(0 0 0)
(0 0 0)
(0 0 0)
(0 0 0)
(0 0 0)
(0 0 0)
(0 0 0)
(0 0 0)
(0 0 0)
(0 0 0)
(0 0 0)
(0 0 0)
(0 0 0)
(0 0 0)
(0 0 0)
(0 0 0)
(0 0 0)
(0 0 0)
(0 0 0)
(0 0 0)
(0 0 0)
(0 0 0)
(0 0 0)
(0 0 0)
(0 0 0)
(0 0 0)
(0 0 0)
(0 0 0)
(0 0 0)
(0 0 0)
(0 0 0)
(0 0 0)
(0 0 0)
(0 0 0)
(0 0 0)
(0 0 0)
(0 0 0)
(0 0 0)
(0 0 0)
(0 0 0)
(0 0 0)
(0 0 0)
(0 0 0)
(0 0 0)
(0 0 0)
(0 0 0)
(0 0 0)
(0 0 0)
(0 0 0)
(0 0 0)
(0 0 0)
(0 0 0)
(0 0 0)
(0 0 0)
(0 0 0)
(0 0 0)
(0 0 0)
(0 0 0)
(0 0 0)
(0 0 0)
(0 0 0)
(0 0 0)
(0 0 0)
(0 0 0)
(0 0 0)
(0 0 0)
(0 0 0)
(0 0 0)
(0 0 0)
(0 0 0)
(0 0 0)
(0 0 0)
(0 0 0)
(0 0 0)
(0 0 0)
(0 0 0)
(0 0 0)
(0 0 0)
(0 0 0)
(0 0 0)
(-7.270691564e-07 6.709178278e-06 2.775557562e-17)
(0 0 0)
(0 0 0)
(-4.008826548e-07 7.515263133e-05 3.330669074e-16)
(1.852439999e-06 6.388527447e-05 2.775557562e-16)
(0 0 0)
(0 0 0)
(0 0 0)
(0 0 0)
(0 0 0)
(0 0 0)
(0 0 0)
(0 0 0)
(0 0 0)
(0 0 0)
(0 0 0)
(0 0 0)
(0 0 0)
(0 0 0)
(0 0 0)
(0 0 0)
(0 0 0)
(0 0 0)
(0 0 0)
(0 0 0)
(0 0 0)
(0 0 0)
(0 0 0)
(0 0 0)
(0 0 0)
(0 0 0)
(0 0 0)
(0 0 0)
(0 0 0)
(0 0 0)
(0 0 0)
(0 0 0)
(0 0 0)
(0 0 0)
(0 0 0)
(0 0 0)
(0 0 0)
(0 0 0)
(0 0 0)
(0 0 0)
(0 0 0)
(0 0 0)
(0 0 0)
(0 0 0)
(0 0 0)
(0 0 0)
(0 0 0)
(0 0 0)
(0 0 0)
(0 0 0)
(0 0 0)
(0 0 0)
(0 0 0)
(0 0 0)
(0 0 0)
(0 0 0)
(0 0 0)
(0 0 0)
(0 0 0)
(0 0 0)
(0 0 0)
(-4.529507677e-05 9.458321514e-05 4.996003611e-16)
(-0.000260625903 0.0005933498111 3.080868893e-15)
(-3.408733805e-06 8.041102064e-06 4.163336342e-17)
(-0.0004945623175 0.001599244059 8.021361353e-15)
(-0.001226690866 0.003837545375 1.992850329e-14)
(-0.001454135899 0.005198556504 2.700617507e-14)
(-0.0006792516219 0.002507469271 1.257327575e-14)
(-0.000823737254 0.005284177815 2.647881914e-14)
(-0.001438408945 0.008981721691 4.665712261e-14)
(-0.001195158539 0.009923915402 5.155598171e-14)
(-0.0007074230236 0.006013395131 3.014255512e-14)
(-2.342211258e-05 0.007031446724 3.524958103e-14)
(-2.068265627e-05 0.0112136823 5.827283101e-14)
(0.0004148542057 0.011067466 5.753730825e-14)
(0.0002393716236 0.006915742458 3.466671394e-14)
(0.0007844802316 0.005300212376 2.657596365e-14)
(0.001393824475 0.008997661365 4.679590049e-14)
(0.00152414652 0.00786118332 4.088396288e-14)
(0.0008238416581 0.004436784298 2.224609386e-14)
(0.0004834389631 0.001618997245 8.132383655e-15)
(0.001200826342 0.003866978671 2.010891453e-14)
(0.0009027965375 0.002583837544 1.34336986e-14)
(0.0002823143976 0.0008395092163 4.204969706e-15)
(0 0 0)
(4.751923087e-05 0.0001018560513 5.273559367e-16)
(0 0 0)
(0 0 0)
(0 0 0)
(0 0 0)
(0 0 0)
(0 0 0)
(0 0 0)
(0 0 0)
(0 0 0)
(0 0 0)
(0 0 0)
(0 0 0)
(0 0 0)
(0 0 0)
(0 0 0)
(0 0 0)
(0 0 0)
(0 0 0)
(0 0 0)
(0 0 0)
(0 0 0)
(0 0 0)
(0 0 0)
(0 0 0)
(0 0 0)
(0 0 0)
(0 0 0)
(0 0 0)
(0 0 0)
(0 0 0)
(0 0 0)
(0 0 0)
(0 0 0)
(0 0 0)
(0 0 0)
(0 0 0)
(0 0 0)
(0 0 0)
(0 0 0)
(0 0 0)
(0 0 0)
(0 0 0)
(0 0 0)
(0 0 0)
(0 0 0)
(0 0 0)
(-0.0001265009824 0.0001694601847 1.026956298e-15)
(-0.0006908647978 0.0009874086142 6.022959909e-15)
(-0.0001636869573 0.0002438717833 1.429412144e-15)
(-0.002331738609 0.004350982394 2.539635169e-14)
(-0.00372589217 0.006682169022 4.066191828e-14)
(-0.004746978877 0.009307810271 5.659361868e-14)
(-0.003202247228 0.006528588164 3.808064974e-14)
(-0.004952126641 0.0139780362 8.146261443e-14)
(-0.006536383406 0.01778369654 1.080108225e-13)
(-0.006553095838 0.02045947892 1.24261712e-13)
(-0.005074374257 0.01642083394 9.568734693e-14)
(-0.003908480952 0.02246183814 1.309508058e-13)
(-0.004830339731 0.02691616654 1.635774849e-13)
(-0.003767846288 0.0283684549 1.724870247e-13)
(-0.003083119133 0.02384928796 1.390831894e-13)
(0.0001051846785 0.02567171816 1.499356195e-13)
(0.000189528867 0.03024807304 1.842692665e-13)
(0.001571820624 0.03001813705 1.8299251e-13)
(0.001229170142 0.02545578031 1.487560075e-13)
(0.004037568472 0.02242203059 1.312144837e-13)
(0.005094726756 0.02683275416 1.638827962e-13)
(0.005885869383 0.02500082883 1.527666882e-13)
(0.004629403425 0.02069163284 1.21125332e-13)
(0.004949965462 0.01398288167 8.187894807e-14)
(0.006589267959 0.01774844703 1.085104229e-13)
(0.006226639464 0.01495804885 9.145462165e-14)
(0.004556341877 0.01147043016 6.716849299e-14)
(0.002316378417 0.004397210888 2.57294186e-14)
(0.003707148298 0.00672869141 4.10921297e-14)
(0.002618435756 0.004394200019 2.682576383e-14)
(0.001453040278 0.002548730046 1.490474411e-14)
(0 0 0)
(0.0001255948735 0.0001712873704 1.040834086e-15)
(0 0 0)
(0 0 0)
(0 0 0)
(0 0 0)
(0 0 0)
(0 0 0)
(0 0 0)
(0 0 0)
(0 0 0)
(0 0 0)
(0 0 0)
(0 0 0)
(0 0 0)
(0 0 0)
(0 0 0)
(0 0 0)
(0 0 0)
(0 0 0)
(0 0 0)
(0 0 0)
(0 0 0)
(0 0 0)
(0 0 0)
(0 0 0)
(0 0 0)
(0 0 0)
(0 0 0)
(0 0 0)
(0 0 0)
(0 0 0)
(0 0 0)
(0 0 0)
(0 0 0)
(0 0 0)
(0 0 0)
(0 0 0)
(0 0 0)
(0 0 0)
(0 0 0)
(-5.442711515e-05 5.052964491e-05 3.747002708e-16)
(0 0 0)
(-0.002314903943 0.002705460153 1.892930257e-14)
(-0.003439539824 0.0038174746 2.808864252e-14)
(-0.005377922186 0.006388745 4.693467837e-14)
(-0.003950511464 0.00493537162 3.44863027e-14)
(-0.00899329538 0.01416939293 9.869882689e-14)
(-0.01090510265 0.0163793283 1.198763311e-13)
(-0.01216880413 0.0200199396 1.463829058e-13)
(-0.01024709043 0.01767811404 1.230404667e-13)
(-0.0115608903 0.0278006812 1.93262073e-13)
(-0.01316203742 0.03020239523 2.20601315e-13)
(-0.01252275508 0.03303778779 2.413624856e-13)
(-0.01111011983 0.03071221385 2.13537521e-13)
(-0.007472438115 0.03722052851 2.59250954e-13)
(-0.008232452464 0.0391663427 2.86784485e-13)
(-0.006229276675 0.04038914205 2.960687251e-13)
(-0.00568714214 0.03857393233 2.689237721e-13)
(0.000480046328 0.04021198945 2.813166367e-13)
(0.0005532840811 0.041810877 3.077260669e-13)
(0.002869083079 0.04158738574 3.065048215e-13)
(0.002595068511 0.03997621569 2.800121246e-13)
(0.008251491569 0.03693824587 2.596256543e-13)
(0.009159726998 0.03880577101 2.871591853e-13)
(0.01082630152 0.03712799077 2.750577544e-13)
(0.00969782063 0.03513865321 2.472050342e-13)
(0.01191151923 0.02752388364 1.939559624e-13)
(0.01362776561 0.0297936759 2.211841821e-13)
(0.01366217429 0.02667820545 1.980915432e-13)
(0.01181157089 0.02437485572 1.717792575e-13)
(0.008982112435 0.01402383119 9.872658246e-14)
(0.01120023373 0.01648708269 1.224575996e-13)
(0.009644250171 0.01312384917 9.750533714e-14)
(0.007640823119 0.01100682477 7.749356712e-14)
(0.002643225014 0.003109606779 2.18575158e-14)
(0.003951279214 0.00440806847 3.265443471e-14)
(0.002228734074 0.002345182364 1.736111255e-14)
(0.001273424587 0.001412227404 9.922618283e-15)
(0 0 0)
(0 0 0)
(0 0 0)
(0 0 0)
(0 0 0)
(0 0 0)
(0 0 0)
(0 0 0)
(0 0 0)
(0 0 0)
(0 0 0)
(0 0 0)
(0 0 0)
(0 0 0)
(0 0 0)
(0 0 0)
(0 0 0)
(0 0 0)
(0 0 0)
(0 0 0)
(0 0 0)
(0 0 0)
(0 0 0)
(0 0 0)
(0 0 0)
(0 0 0)
(0 0 0)
(0 0 0)
(0 0 0)
(0 0 0)
(0 0 0)
(0 0 0)
(0 0 0)
(0 0 0)
(0 0 0)
(-0.0002515512746 0.0001868621064 1.637578961e-15)
(-0.0005720413861 0.0003984710466 3.73312492e-15)
(-0.002031355729 0.001490992498 1.393329896e-14)
(-0.001365786244 0.001068566009 9.36750677e-15)
(-0.008014512718 0.007491251622 6.537825836e-14)
(-0.009479554928 0.008322042311 7.735478924e-14)
(-0.01220904919 0.01146949335 1.063732435e-13)
(-0.01058703804 0.01058690091 9.223177777e-14)
(-0.01665111668 0.02105956072 1.823541318e-13)
(-0.01838541939 0.02180919362 2.012140454e-13)
(-0.01934601308 0.02512559277 2.315092562e-13)
(-0.01768647409 0.02452229801 2.119832088e-13)
(-0.01735540965 0.03369747406 2.905731211e-13)
(-0.0184327429 0.03346764811 3.073791222e-13)
(-0.01696360955 0.03541670093 3.253647352e-13)
(-0.01602727404 0.03575643579 3.08503223e-13)
(-0.009914361691 0.03980647502 3.446409824e-13)
(-0.01026488396 0.03840857206 3.541889004e-13)
(-0.007619194299 0.03870752426 3.575612029e-13)
(-0.007400712904 0.04038417602 3.502198531e-13)
(0.0005814961758 0.04079954374 3.55784846e-13)
(0.0005210798017 0.03868255545 3.594624598e-13)
(0.003245644297 0.0385954956 3.594069486e-13)
(0.00327056417 0.04066408069 3.552991235e-13)
(0.01107237388 0.03929223669 3.453765052e-13)
(0.01135738741 0.03782781465 3.54674623e-13)
(0.01381553415 0.03712111032 3.488320743e-13)
(0.01336814659 0.03829207213 3.372441215e-13)
(0.01812354883 0.03290339902 2.912114994e-13)
(0.01926435148 0.03257887946 3.084477118e-13)
(0.02015905615 0.03035567682 2.880751193e-13)
(0.01876736808 0.03028948474 2.68673972e-13)
(0.01725794442 0.02112146512 1.875444244e-13)
(0.01902002115 0.02176638267 2.065708715e-13)
(0.01740281556 0.01846906008 1.750682932e-13)
(0.0156080454 0.01771471711 1.571243136e-13)
(0.008479388662 0.00791895726 6.98885394e-14)
(0.009995879486 0.00873353054 8.235079285e-14)
(0.007202386911 0.005944721007 5.594136265e-14)
(0.005900410843 0.005204228996 4.585221092e-14)
(0.0003891738266 0.0002934850792 2.581268532e-15)
(0.0006685894573 0.0004721046783 4.427014311e-15)
(1.69717052e-05 1.141716576e-05 1.110223025e-16)
(0 0 0)
(0 0 0)
(0 0 0)
(0 0 0)
(0 0 0)
(0 0 0)
(0 0 0)
(0 0 0)
(0 0 0)
(0 0 0)
(0 0 0)
(0 0 0)
(0 0 0)
(0 0 0)
(0 0 0)
(0 0 0)
(0 0 0)
(0 0 0)
(0 0 0)
(0 0 0)
(0 0 0)
(0 0 0)
(0 0 0)
(0 0 0)
(0 0 0)
(0 0 0)
(0 0 0)
(0 0 0)
(0 0 0)
(-2.394365111e-05 1.010165055e-05 1.387778781e-16)
(-6.533573017e-07 3.033761589e-07 0)
(0 0 0)
(-0.001795698783 0.001001743365 1.169897512e-14)
(-0.002266410142 0.001159687874 1.477984402e-14)
(-0.004700781785 0.002538257914 3.225197887e-14)
(-0.004010652273 0.002360045699 2.751965322e-14)
(-0.01300486123 0.009178804914 1.0608181e-13)
(-0.01415554661 0.009176544906 1.15435439e-13)
(-0.01718189543 0.0119277729 1.495470414e-13)
(-0.01627753076 0.01230735705 1.417616025e-13)
(-0.02242895676 0.02140422791 2.449845882e-13)
(-0.02336064927 0.02046870425 2.548378175e-13)
(-0.02394717251 0.02292953071 2.852440506e-13)
(-0.02310299661 0.02410031666 2.756267437e-13)
(-0.02073749733 0.02981676324 3.413380689e-13)
(-0.02118707313 0.02787583821 3.474859289e-13)
(-0.01902507825 0.02855180772 3.564926132e-13)
(-0.01874085231 0.03081075753 3.529815329e-13)
(-0.01080007181 0.03129760626 0)
(-0.01098713025 0.0286584809 0)
(-0.009613844854 0.02864132152 0)
(-0.008165015267 0.02868166239 0)
(-0.008060265183 0.0299877237 0)
(-0.008009795507 0.03126365295 0)
(0.0002920347294 0.0310686669 0)
(0.0002542175725 0.02979955483 0)
(0.001644611105 0.02975923705 0)
(0.001674894681 0.03102845415 0)
(0.01146921539 0.03063150696 0)
(0.01147187047 0.02932683065 0)
(0.01148378501 0.02800166662 0)
(0.01286569265 0.02792058161 0)
(0.01422827124 0.02786521786 0)
(0.01424608518 0.03048452441 0)
(0.02142849895 0.02884338707 3.436972928e-13)
(0.02174260153 0.02683901207 3.495537193e-13)
(0.02338106776 0.02570902915 3.355510314e-13)
(0.02289039805 0.02747316488 3.279043703e-13)
(0.02308781818 0.02098752124 2.508132591e-13)
(0.02391108515 0.01985471862 2.598893323e-13)
(0.02268835027 0.0174488648 2.282202205e-13)
(0.02166429313 0.01824685787 2.178812686e-13)
(0.01396050189 0.00967336609 1.148386941e-13)
(0.01526746867 0.00966960822 1.255801019e-13)
(0.01202571976 0.007204096191 9.324485628e-14)
(0.01083106931 0.007095565377 8.398837181e-14)
(0.002410092055 0.001356929744 1.59317004e-14)
(0.003012574322 0.001553148186 1.99146255e-14)
(0.001079175476 0.0005311732626 6.800116026e-15)
(0.0007342487387 0.0003944971031 4.62130334e-15)
(0 0 0)
(0 0 0)
(0 0 0)
(0 0 0)
(0 0 0)
(0 0 0)
(0 0 0)
(0 0 0)
(0 0 0)
(0 0 0)
(0 0 0)
(0 0 0)
(0 0 0)
(0 0 0)
(0 0 0)
(0 0 0)
(0 0 0)
(0 0 0)
(0 0 0)
(0 0 0)
(0 0 0)
(0 0 0)
(0 0 0)
(0 0 0)
(0 0 0)
(0 0 0)
(0 0 0)
(0 0 0)
(-0.0002157439585 5.44356074e-05 1.276756478e-15)
(-0.0001229465143 3.623299112e-05 7.21644966e-16)
(-0.0001005809688 3.389414288e-05 5.967448757e-16)
(-0.00325650233 0.00121182154 2.121913756e-14)
(-0.003377384777 0.001099828789 2.201017146e-14)
(-0.00625243961 0.002152700221 4.285460875e-14)
(-0.006087063031 0.002393525925 4.174438573e-14)
(-0.01635818155 0.007750435068 1.33157374e-13)
(-0.01662202626 0.006908048906 1.351974088e-13)
(-0.01978245623 0.008813811504 1.71612724e-13)
(-0.01949977079 0.009899874232 1.693090113e-13)
(-0.02526497344 0.01616921424 2.742112093e-13)
(-0.02553752567 0.01434671098 2.767230889e-13)
(-0.02585812423 0.01584747594 3.054778652e-13)
(-0.02560905592 0.01788752666 3.031463969e-13)
(-0.02192149979 0.02089530906 3.556183126e-13)
(-0.02205182626 0.01838948329 3.564926132e-13)
(-0.01952207766 0.01847097375 0)
(-0.0194416282 0.02105378624 3.594624598e-13)
(-0.01131105437 0.02084284346 0)
(-0.01135758197 0.0195335356 0)
(-0.01000323801 0.01950113783 0)
(-0.009956890513 0.0208083864 0)
(0.01134232132 0.02020846564 0)
(0.01131149546 0.01891140471 0)
(0.01266509058 0.0188658138 0)
(0.01269728488 0.02016091267 0)
(0.02207625611 0.01973163684 3.577138585e-13)
(0.02205604948 0.0172155759 3.585742814e-13)
(0.0242502452 0.0167944854 3.512884428e-13)
(0.02418167362 0.01919928201 3.492900413e-13)
(0.0261941092 0.01564986291 2.85743651e-13)
(0.02648944152 0.01377807689 2.894628981e-13)
(0.02556863505 0.01231326553 2.583211423e-13)
(0.02522144202 0.0139543226 2.544353617e-13)
(0.01791426584 0.008175586433 1.474931288e-13)
(0.01831389903 0.007280262584 1.508931868e-13)
(0.01486875551 0.005598847195 1.154076834e-13)
(0.01448896406 0.006261065602 1.123962035e-13)
(0.004370890282 0.001632276146 2.889355422e-14)
(0.004935690621 0.001607429698 3.261280135e-14)
(0.00235378935 0.0007334431103 1.482147738e-14)
(0.001937679689 0.0006918101174 1.221245327e-14)
(0 0 0)
(0 0 0)
(0 0 0)
(0 0 0)
(0 0 0)
(0 0 0)
(0 0 0)
(0 0 0)
(0 0 0)
(0 0 0)
(0 0 0)
(0 0 0)
(0 0 0)
(0 0 0)
(0 0 0)
(0 0 0)
(0 0 0)
(0 0 0)
(0 0 0)
(0 0 0)
(0 0 0)
(0 0 0)
(0 0 0)
(0 0 0)
(0 0 0)
(0 0 0)
(0 0 0)
(0 0 0)
(-0.0003541586535 2.949760761e-05 2.095545959e-15)
(-0.000319875371 4.014434259e-05 1.90125693e-15)
(-0.0002806210786 4.707240636e-05 1.665334537e-15)
(-0.004013217709 0.0007476492901 2.613187444e-14)
(-0.004149952558 0.0005806956927 2.702005286e-14)
(-0.007236814141 0.001077882175 4.957145805e-14)
(-0.007065477305 0.001396974513 4.840572387e-14)
(-0.01766937056 0.004266504231 1.434685704e-13)
(-0.01788638811 0.00328387472 1.451339049e-13)
(-0.02102830542 0.004161249411 1.818267759e-13)
(-0.02081334132 0.005403459779 1.80119808e-13)
(-0.02632726545 0.008645723792 2.83842394e-13)
(-0.02650109663 0.006657699037 2.852440506e-13)
(-0.02668226354 0.007302842752 3.126665593e-13)
(-0.02652936928 0.00949384622 3.115008251e-13)
(-0.02235839457 0.01078610931 3.57880392e-13)
(-0.02244416518 0.008240208967 3.581024366e-13)
(-0.01982064541 0.00819438957 0)
(-0.01974779722 0.0107571893 0)
(-0.01163091234 0.01051800167 0)
(-0.01166813506 0.009235733815 0)
(-0.01031739418 0.00919611909 0)
(-0.01027999327 0.01047838165 0)
(0.01106549508 0.00986132139 0)
(0.01102745418 0.008571527895 0)
(0.01237791863 0.008530613519 0)
(0.0124161777 0.009819746596 0)
(0.02187940689 0.009529461394 3.594208264e-13)
(0.02180243325 0.006957282341 3.594624598e-13)
(0.02422831696 0.006805354345 3.55326879e-13)
(0.02426919053 0.009334613864 3.547856453e-13)
(0.02722947471 0.007797611314 2.992606163e-13)
(0.02733999404 0.00568774243 3.010924843e-13)
(0.02670723385 0.005143710554 2.715605518e-13)
(0.02654300431 0.007034817155 2.694233725e-13)
(0.01974724515 0.004348418024 1.630640067e-13)
(0.02002761212 0.003226247044 1.65534253e-13)
(0.01662358126 0.002556890951 1.293271046e-13)
(0.01632942075 0.003420980661 1.269540029e-13)
(0.005659048252 0.00104120705 3.741451593e-14)
(0.00588881988 0.0008045174268 3.895495038e-14)
(0.00303681513 0.0003996356737 1.91235916e-14)
(0.002862979314 0.0005058725753 1.802724636e-14)
(0 0 0)
(0 0 0)
(0 0 0)
(0 0 0)
(0 0 0)
(0 0 0)
(0 0 0)
(0 0 0)
(0 0 0)
(0 0 0)
(0 0 0)
(0 0 0)
(0 0 0)
(0 0 0)
(0 0 0)
(0 0 0)
(0 0 0)
(0 0 0)
(0 0 0)
(0 0 0)
(0 0 0)
(0 0 0)
(0 0 0)
(0 0 0)
(0 0 0)
(0 0 0)
(0 0 0)
(0 0 0)
(-0.0005224409489 -4.461009174e-05 3.094746681e-15)
(-0.0004710128087 -2.035772714e-05 2.803313137e-15)
(-0.0004252241848 -4.520243777e-07 2.525757381e-15)
(-0.004490530535 4.610898339e-06 2.924049891e-14)
(-0.004628494477 -0.0002093134796 3.012867733e-14)
(-0.00783092472 -0.0003581773114 5.36098943e-14)
(-0.007660791925 2.20325299e-05 5.245803791e-14)
(-0.01842385245 0.0001955193818 1.492139745e-13)
(-0.01863552091 -0.0008730298078 1.508376757e-13)
(-0.02177313472 -0.001037266164 1.876276912e-13)
(-0.02156384113 0.0002920091621 1.859901122e-13)
(-0.02694934124 0.000581709164 2.885885975e-13)
(-0.02711795528 -0.001474649855 2.898931095e-13)
(-0.02723157183 -0.001607080315 3.165107065e-13)
(-0.02708359693 0.0006394288683 3.154421169e-13)
(-0.02268747773 0.0005974784662 3.585742814e-13)
(-0.02276848518 -0.001952856148 3.587408148e-13)
(-0.02010747715 -0.002035365123 0)
(-0.02003619634 0.0005207040684 0)
(-0.01192459063 0.00028191115 0)
(-0.01196089291 -0.0009953903902 0)
(-0.01061198448 -0.001034653405 0)
(-0.01059371279 -0.0003959467697 0)
(-0.01057545698 0.0002422253012 0)
(0.01074665429 -0.0004452999481 0)
(0.01070483802 -0.001730106446 0)
(0.01205382173 -0.001768836662 0)
(0.01209580383 -0.0004844512327 0)
(0.02155220419 -0.0007571390841 3.594347042e-13)
(0.02146344585 -0.003319763507 3.593791931e-13)
(0.02384615295 -0.003343103261 3.545080896e-13)
(0.02396041631 -0.0008173133593 3.549660565e-13)
(0.02705241109 -0.0007647443789 2.99871239e-13)
(0.02689523353 -0.002889904801 2.987887715e-13)
(0.02626215275 -0.002586671183 2.689931611e-13)
(0.02642261484 -0.0006741398596 2.701450175e-13)
(0.01977118903 -0.0003176392578 1.638827962e-13)
(0.01962803005 -0.001474112512 1.628419621e-13)
(0.01625269797 -0.001112252525 1.26815225e-13)
(0.01638292994 -0.0002115770606 1.27731159e-13)
(0.005728585197 -2.92575552e-05 3.791411629e-14)
(0.005653391859 -0.0002953373764 3.742839372e-14)
(0.002864267701 -0.000138275312 1.805500194e-14)
(0.002917237827 -9.89433589e-06 1.837419106e-14)
(0 0 0)
(0 0 0)
(0 0 0)
(0 0 0)
(0 0 0)
(0 0 0)
(0 0 0)
(0 0 0)
(0 0 0)
(0 0 0)
(0 0 0)
(0 0 0)
(0 0 0)
(0 0 0)
(0 0 0)
(0 0 0)
(0 0 0)
(0 0 0)
(0 0 0)
(0 0 0)
(0 0 0)
(0 0 0)
(0 0 0)
(0 0 0)
(0 0 0)
(0 0 0)
(0 0 0)
(0 0 0)
(-0.0007482015392 -0.0001900987515 4.440892099e-15)
(-0.0006870430368 -0.0001455920431 4.080069615e-15)
(-0.0006278919088 -0.0001065783802 3.719247132e-15)
(-0.005060035327 -0.0009308806306 3.293199047e-14)
(-0.005212131961 -0.001199773493 3.39173134e-14)
(-0.008543221238 -0.002050916533 5.843936446e-14)
(-0.008358747781 -0.001600862436 5.717648577e-14)
(-0.01928452561 -0.004219740775 1.557642904e-13)
(-0.01950866764 -0.005383669374 1.574573805e-13)
(-0.02263364908 -0.006593701032 1.943167849e-13)
(-0.02241325534 -0.005168107474 1.92609817e-13)
(-0.02762946802 -0.007758124886 2.938205235e-13)
(-0.02780356802 -0.009890443061 2.951527911e-13)
(-0.02782946521 -0.01074984539 3.208128208e-13)
(-0.02767835094 -0.008441112806 3.197303533e-13)
(-0.02300563276 -0.009619303442 3.591155151e-13)
(-0.02308257749 -0.01217759503 3.592126596e-13)
(-0.02039004473 -0.0122656627 0)
(-0.02031984831 -0.009708075068 0)
(-0.01221322128 -0.009946363308 0)
(-0.01224878671 -0.01122487572 0)
(-0.0109021965 -0.01126412928 0)
(-0.01088426529 -0.01062487748 0)
(-0.01086627821 -0.009985746249 0)
(0.01040252404 -0.01070872335 0)
(0.01035707818 -0.0119916385 0)
(0.01170479579 -0.01202896377 0)
(0.01175052803 -0.01074641382 0)
(0.02115105356 -0.01098027783 3.58532648e-13)
(0.02102012706 -0.01350740603 3.57811003e-13)
(0.02315911816 -0.01324109772 3.491928968e-13)
(0.02337669786 -0.01081802046 3.512190538e-13)
(0.02589647918 -0.008973362499 2.895461648e-13)
(0.02534018143 -0.0108106454 2.83911783e-13)
(0.02464215324 -0.009662812975 2.541855615e-13)
(0.02510001514 -0.007991617085 2.584599201e-13)
(0.01817212246 -0.004584600852 1.511707426e-13)
(0.01770991402 -0.005516428458 1.474514955e-13)
(0.01436933134 -0.004174092459 1.124100812e-13)
(0.01479912421 -0.003476237747 1.15699117e-13)
(0.004620376054 -0.0008937987809 3.06143999e-14)
(0.004372218549 -0.001051629764 2.897682094e-14)
(0.001944252868 -0.0004426198932 1.226796442e-14)
(0.002110663948 -0.0003858593466 1.330879851e-14)
(0 0 0)
(0 0 0)
(0 0 0)
(0 0 0)
(0 0 0)
(0 0 0)
(0 0 0)
(0 0 0)
(0 0 0)
(0 0 0)
(0 0 0)
(0 0 0)
(0 0 0)
(0 0 0)
(0 0 0)
(0 0 0)
(0 0 0)
(0 0 0)
(0 0 0)
(0 0 0)
(0 0 0)
(0 0 0)
(0 0 0)
(0 0 0)
(0 0 0)
(0 0 0)
(0 0 0)
(0 0 0)
(-0.0009456780136 -0.0003997489166 5.606626274e-15)
(-0.0009779813733 -0.0003721340114 5.787037516e-15)
(-0.0008927414638 -0.0003020766436 5.287437155e-15)
(-0.005709511448 -0.002105091888 3.713696017e-14)
(-0.005904045718 -0.002449123147 3.841371665e-14)
(-0.009372870302 -0.004066441761 6.404599073e-14)
(-0.009141134674 -0.003523572468 6.247780071e-14)
(-0.02022432496 -0.009035613919 1.628558399e-13)
(-0.02049648309 -0.0103196737 1.649097525e-13)
(-0.02359929496 -0.01257546077 2.017830347e-13)
(-0.0233344845 -0.01103028059 1.997291221e-13)
(-0.02834772908 -0.01640702735 2.992883719e-13)
(-0.0285471712 -0.01862840636 3.008426841e-13)
(-0.02846611548 -0.02015061606 3.253786129e-13)
(-0.02829740117 -0.01777118207 3.241573676e-13)
(-0.02330682679 -0.01985362192 3.594208264e-13)
(-0.0233795011 -0.02241256135 3.594624598e-13)
(-0.02066878032 -0.02249304232 0)
(-0.02059913612 -0.01993603275 0)
(-0.01249384695 -0.02017333005 0)
(-0.01252828033 -0.02145175721 0)
(-0.01118423531 -0.02149063787 0)
(-0.01116689277 -0.02085119024 0)
(-0.01114950495 -0.02021221953 0)
(0.01002983717 -0.02094686458 0)
(0.009980774717 -0.0222254514 0)
(0.01132804894 -0.02226169341 0)
(0.01137752717 -0.02098311896 0)
(0.02053804716 -0.0209206964 3.541333893e-13)
(0.02032950843 -0.02329790763 3.520517211e-13)
(0.02211590639 -0.02242912 3.382016889e-13)
(0.02242809076 -0.02024284136 3.417821581e-13)
(0.02377486517 -0.01588796038 2.678968158e-13)
(0.02335917156 -0.01750968829 2.637334795e-13)
(0.0221745981 -0.01525290476 2.301075996e-13)
(0.02288691799 -0.01404606792 2.371713936e-13)
(0.01564027253 -0.007648038485 1.304928388e-13)
(0.01465839572 -0.008032927284 1.223604551e-13)
(0.01137248519 -0.005827250871 8.915090888e-14)
(0.01235713871 -0.005647963572 9.682532554e-14)
(0.00310195216 -0.001183965866 2.056688153e-14)
(0.002709073893 -0.001161525586 1.797173521e-14)
(0.0008800244401 -0.0003582286848 5.551115123e-15)
(0.001107647976 -0.0004011865711 6.994405055e-15)
(0 0 0)
(0 0 0)
(0 0 0)
(0 0 0)
(0 0 0)
(0 0 0)
(0 0 0)
(0 0 0)
(0 0 0)
(0 0 0)
(0 0 0)
(0 0 0)
(0 0 0)
(0 0 0)
(0 0 0)
(0 0 0)
(0 0 0)
(0 0 0)
(0 0 0)
(0 0 0)
(0 0 0)
(0 0 0)
(0 0 0)
(0 0 0)
(0 0 0)
(0 0 0)
(0 0 0)
(0 0 0)
(-0.001681509115 -0.0009939746367 9.964251646e-15)
(-0.001532969096 -0.0008413914955 9.089951014e-15)
(-0.001311921522 -0.0006649339346 7.78543896e-15)
(-0.006529512285 -0.003610736257 4.243827512e-14)
(-0.00701616182 -0.004201129525 4.558853295e-14)
(-0.01064635402 -0.006672016246 7.263634139e-14)
(-0.01005011275 -0.005816741322 6.861178292e-14)
(-0.02141605665 -0.0144092346 1.718486464e-13)
(-0.02182012158 -0.0159052161 1.749156375e-13)
(-0.02482508006 -0.01916065544 2.112893194e-13)
(-0.02448784292 -0.01744420508 2.086664175e-13)
(-0.02919720116 -0.02545799863 3.059219544e-13)
(-0.02931646875 -0.02769249912 3.065880883e-13)
(-0.02919750455 -0.02988228227 3.307770724e-13)
(-0.02900744147 -0.02741633942 3.293754158e-13)
(-0.02359417599 -0.03008285059 0)
(-0.0236673175 -0.03263951841 0)
(-0.02095252397 -0.03271890575 0)
(-0.02091620404 -0.03144101025 0)
(-0.02088023696 -0.03016298537 0)
(-0.01276644533 -0.03040023815 0)
(-0.01278345912 -0.03103862548 0)
(-0.01211125136 -0.03105783353 0)
(-0.01209430227 -0.03041962261 0)
(-0.001108865234 -0.03089846357 0)
(-0.001125736199 -0.03121660607 0)
(-0.001140468297 -0.03153487159 0)
(-0.0004821230453 -0.0315469499 0)
(-0.0004495184347 -0.03091104724 0)
(0.009607976208 -0.03115934862 0)
(0.009549212905 -0.03243229671 0)
(0.009489925632 -0.03370487254 0)
(0.01219240665 -0.03377848409 0)
(0.0123075839 -0.03123162634 0)
(0.01095828139 -0.03119562128 0)
(0.01957493311 -0.03002713853 3.433919815e-13)
(0.01921786732 -0.03199618521 3.385070002e-13)
(0.02053550003 -0.03011347031 3.1824543e-13)
(0.02109355618 -0.02853561732 3.258782133e-13)
(0.02134931816 -0.02120815307 2.421951528e-13)
(0.02057547741 -0.0221137691 2.337574578e-13)
(0.01910763104 -0.01882303218 1.992295218e-13)
(0.0199166083 -0.018138565 2.074590499e-13)
(0.01214673175 -0.008811434054 1.015298956e-13)
(0.0114152732 -0.008957105616 9.546530233e-14)
(0.008355753338 -0.006136226866 6.557254739e-14)
(0.009000094606 -0.006109144884 7.061018437e-14)
(0.001281140303 -0.0007300084306 8.507083926e-15)
(0.001041466839 -0.0006425603065 6.911138328e-15)
(8.258261215e-05 -4.845424258e-05 5.273559367e-16)
(0.0001577779579 -8.547521808e-05 9.992007222e-16)
(0 0 0)
(0 0 0)
(0 0 0)
(0 0 0)
(0 0 0)
(0 0 0)
(0 0 0)
(0 0 0)
(0 0 0)
(0 0 0)
(0 0 0)
(0 0 0)
(0 0 0)
(0 0 0)
(0 0 0)
(0 0 0)
(0 0 0)
(0 0 0)
(0 0 0)
(0 0 0)
(0 0 0)
(0 0 0)
(0 0 0)
(0 0 0)
(0 0 0)
(0 0 0)
(0 0 0)
(0 0 0)
(-0.001594687695 -0.001217510492 9.492406861e-15)
(-0.00180216629 -0.001299288883 1.072752998e-14)
(-0.001925731466 -0.00130665304 1.146305273e-14)
(-0.007772812902 -0.00575657117 5.072331444e-14)
(-0.007523193678 -0.005921666398 4.909961326e-14)
(-0.01122910939 -0.009254916645 7.691070003e-14)
(-0.01152788643 -0.008938669016 7.896461263e-14)
(-0.02282554069 -0.02060585645 1.835476215e-13)
(-0.02246250483 -0.02155631973 1.805222638e-13)
(-0.0254380175 -0.02585206866 2.16937579e-13)
(-0.02579021027 -0.02465792148 2.201155924e-13)
(-0.02995092976 -0.0350557386 3.138600491e-13)
(-0.02972734104 -0.03695798756 3.110151026e-13)
(-0.0293901682 -0.03958413767 3.33025274e-13)
(-0.02954350058 -0.03747588084 3.354122535e-13)
(-0.02358712138 -0.04034351513 0)
(-0.02366312625 -0.04290051398 0)
(-0.02094076888 -0.04298143401 0)
(-0.02090277527 -0.04170323157 0)
(-0.020864764 -0.04042443517 0)
(-0.01269781066 -0.04066719174 0)
(-0.01273582193 -0.04194598815 0)
(-0.01137470263 -0.0419864464 0)
(-0.01135568817 -0.04134675122 0)
(-0.01133669137 -0.04070765 0)
(-0.01201725101 -0.04068742087 0)
(-0.001808561294 -0.04099086653 0)
(-0.001827556961 -0.04162996779 0)
(-0.001846570853 -0.04226966299 0)
(-0.0004854097377 -0.04231012248 0)
(-0.0004473984715 -0.04103132608 0)
(0.009080691978 -0.04131454144 0)
(0.009004687101 -0.04387154028 0)
(0.01168784933 -0.04378310572 3.581024366e-13)
(0.01179482796 -0.04136246088 3.59184904e-13)
(0.01817618975 -0.03751966339 3.242267566e-13)
(0.01771452952 -0.03895021782 3.173017404e-13)
(0.0186454464 -0.03596021777 2.927658116e-13)
(0.01919794137 -0.03479778858 3.005096172e-13)
(0.01790577657 -0.02361374366 2.041145031e-13)
(0.01718022749 -0.02406445074 1.960931417e-13)
(0.01533661988 -0.01965715082 1.603578381e-13)
(0.01638560711 -0.01979217071 1.712657793e-13)
(0.008616706782 -0.00828623353 7.210898545e-14)
(0.007510279499 -0.007662647652 6.285250098e-14)
(0.005105895013 -0.00488053519 4.009292898e-14)
(0.005817826012 -0.005238596508 4.568567746e-14)
(0.0002144383434 -0.0001626504386 1.429412144e-15)
(9.686129378e-05 -7.805428725e-05 6.383782392e-16)
(0 0 0)
(0 0 0)
(0 0 0)
(0 0 0)
(0 0 0)
(0 0 0)
(0 0 0)
(0 0 0)
(0 0 0)
(0 0 0)
(0 0 0)
(0 0 0)
(0 0 0)
(0 0 0)
(0 0 0)
(0 0 0)
(0 0 0)
(0 0 0)
(0 0 0)
(0 0 0)
(0 0 0)
(0 0 0)
(0 0 0)
(0 0 0)
(0 0 0)
(0 0 0)
(0 0 0)
(0 0 0)
(0 0 0)
(0 0 0)
(-0.0003724260511 -0.0003478607638 2.220446049e-15)
(-0.0006757930896 -0.0006023842934 4.024558464e-15)
(-0.001004048038 -0.000852134277 5.967448757e-15)
(-0.005764250069 -0.005348002649 3.762268275e-14)
(-0.0049244692 -0.004801574573 3.216871214e-14)
(-0.008025722817 -0.008201089414 5.502542866e-14)
(-0.009079597493 -0.008825779218 6.221412274e-14)
(-0.0196861242 -0.02230141288 1.581790254e-13)
(-0.01824891365 -0.02174527612 1.467020949e-13)
(-0.02120517502 -0.02675729293 1.807998196e-13)
(-0.02266718318 -0.02719062738 1.931788063e-13)
(-0.02763753882 -0.04047568599 2.883665529e-13)
(-0.02642281595 -0.04068720438 2.756961326e-13)
(-0.02668594904 -0.04444099816 3.01175751e-13)
(-0.02772360644 -0.0439275876 3.129718706e-13)
(-0.02361526101 -0.05003417239 3.555766792e-13)
(-0.02327078962 -0.05170790731 3.497202528e-13)
(-0.02105018793 -0.05276590953 3.564232243e-13)
(-0.02115523055 -0.05062386786 3.59254293e-13)
(-0.01300186548 -0.05089637505 0)
(-0.01307788801 -0.05345396785 0)
(-0.01035559003 -0.05353488612 0)
(-0.0102795675 -0.05097729332 0)
(-0.01164074619 -0.0509368333 0)
(-0.002112614161 -0.05122004989 0)
(-0.002188636693 -0.0537776427 0)
(0.0005336791065 -0.0538585615 0)
(0.0006097016389 -0.05130096869 0)
(0.00871347982 -0.05108201168 3.562705686e-13)
(0.008531262092 -0.05277916734 3.507194535e-13)
(0.01089511688 -0.0512270994 3.399780457e-13)
(0.0111880064 -0.04998341515 3.481104294e-13)
(0.01620916385 -0.04196698597 2.914612995e-13)
(0.01550951969 -0.04212198214 2.78874146e-13)
(0.0159009948 -0.03777605432 2.500499807e-13)
(0.01672168749 -0.03788731796 2.630673457e-13)
(0.0142171577 -0.02332969531 1.622313395e-13)
(0.01321081333 -0.02272198237 1.506433867e-13)
(0.01122627976 -0.01766773296 1.17267307e-13)
(0.01221505183 -0.01833924942 1.276895256e-13)
(0.004808115511 -0.005751539408 4.021782907e-14)