/*--------------------------------*- C++ -*----------------------------------*\
| =========                 |                                                 |
| \\      /  F ield         | OpenFOAM: The Open Source CFD Toolbox           |
|  \\    /   O peration     | Version:  v1912                                 |
|   \\  /    A nd           | Website:  www.openfoam.com                      |
|    \\/     M anipulation  |                                                 |
\*---------------------------------------------------------------------------*/
FoamFile
{
    version     2.0;
    format      ascii;
    class       surfaceScalarField;
    location    "2.61";
    object      meshPhi;
}
// * * * * * * * * * * * * * * * * * * * * * * * * * * * * * * * * * * * * * //

dimensions      [0 3 -1 0 0 0 0];
oriented        oriented;


internalField   nonuniform List<scalar> 
25162
(
0
0
0
0
0
0
0
0
0
0
0
0
0
0
0
0
0
0
0
0
0
0
0
0
0
0
0
0
0
0
0
0
0
0
0
0
0
0
0
0
0
0
0
0
0
0
0
0
0
0
0
0
0
0
0
0
0
0
0
0
0
0
0
0
0
0
0
0
0
0
0
0
0
0
0
0
0
0
0
0
0
0
0
0
0
0
0
0
0
0
0
0
0
0
0
0
0
0
0
0
0
0
0
0
1.130378668e-09
-5.488572278e-08
6.14627797e-07
0
-3.08248437e-09
-5.224944352e-07
0
0
0
0
0
0
0
0
0
0
0
0
0
0
0
0
0
0
0
0
0
0
0
0
0
0
0
0
0
0
0
0
0
0
0
0
0
0
0
0
0
0
0
0
0
0
0
0
0
0
0
0
0
0
0
0
0
0
0
0
0
0
0
0
0
0
-5.442302315e-09
8.67374656e-07
4.916348853e-07
-5.514476472e-06
-1.906017055e-06
4.945103666e-05
4.432308146e-06
-7.002037288e-05
-2.579279893e-06
0.0001293505474
4.63178907e-06
-0.000144438555
1.626814166e-07
0.0001651686205
-7.534911683e-08
-0.0001627704125
2.460695615e-06
0.0001293950882
-4.273042801e-06
-0.00011132579
1.213986544e-06
4.976927639e-05
-3.26788401e-06
-3.111360636e-05
0
9.339628643e-07
-7.628361324e-08
0
0
0
0
0
0
0
0
0
0
0
0
0
0
0
0
0
0
0
0
0
0
0
0
0
0
0
0
0
0
0
0
0
0
0
0
0
0
0
0
0
0
0
0
0
0
0
0
0
0
0
-2.623955278e-07
1.78047071e-06
1.322692759e-06
-1.285335968e-05
-9.257944628e-06
0.0001143844474
1.441000608e-05
-0.0001640283527
-1.779810183e-05
0.0003281792155
2.383322569e-05
-0.0003808106776
-1.436868982e-05
0.0005090736714
1.863239185e-05
-0.0005382067796
-1.729950673e-06
0.000576144339
3.010230485e-06
-0.0005715782818
1.057702536e-05
0.0005076244738
-1.245638307e-05
-0.000470974523
1.356226564e-05
0.0003271887921
-1.766003848e-05
-0.0002725791121
5.781070721e-06
0.0001149298991
-9.511658996e-06
-7.181393321e-05
0
1.799508562e-06
-1.811019293e-07
0
0
0
0
0
0
0
0
0
0
0
0
0
0
0
0
0
0
0
0
0
0
0
0
0
0
0
0
0
0
0
0
0
0
0
0
0
0
0
0
0
0
0
0
0
8.57763572e-08
-6.416839934e-07
-1.04769706e-05
7.994981064e-05
1.437825279e-05
-0.0001379998731
-3.437032576e-05
0.000370018576
4.182948562e-05
-0.0004560553099
-4.422150571e-05
0.0006996598683
5.096327281e-05
-0.0007685029148
-3.245038556e-05
0.0009203703463
3.672169186e-05
-0.0009516770189
-8.42398997e-06
0.0009903659774
1.036546798e-05
-0.0009856891539
1.613453783e-05
0.0009178144449
-1.67470806e-05
-0.0008762782271
2.938806165e-05
0.000695546595
-3.273980733e-05
-0.0006195427827
1.906161881e-05
0.0003775706777
-2.174303423e-05
-0.0002999815111
6.032677844e-06
9.17816574e-05
-9.438436446e-06
-4.592630247e-05
0
0
0
0
0
0
0
0
0
0
0
0
0
0
0
0
0
0
0
0
0
0
0
0
0
0
0
0
0
0
0
0
0
0
0
0
0
0
0
0
0
0
-2.660059071e-06
8.847273204e-06
4.300428775e-06
-3.844703355e-05
-3.288211148e-05
0.000235926326
3.88033386e-05
-0.0003285082016
-5.682782391e-05
0.0006456284378
6.787694703e-05
-0.0007512536858
-6.580345906e-05
0.0009959054717
6.381497788e-05
-0.001048902749
-4.517749503e-05
0.001148557809
4.488923754e-05
-0.001161278574
-1.451807944e-05
0.001172082734
1.487029079e-05
-0.00117112175
1.556427124e-05
0.001149463011
-1.514169265e-05
-0.001126661536
1.963421126e-05
0.001007056558
-2.377590341e-05
-0.0009312721512
4.353123915e-05
0.0006457604009
-4.752525459e-05
-0.0005442898332
2.108132201e-05
0.0002497606722
-2.472168191e-05
-0.0001672197316
1.16265837e-05
6.098183552e-07
-1.068064781e-06
-1.773563178e-07
0
0
0
0
0
0
0
0
0
0
0
0
0
0
0
0
0
0
0
0
0
0
0
0
0
0
0
0
0
0
0
0
0
0
0
7.50958322e-08
-6.203293057e-09
-2.327810762e-07
-9.78786016e-06
4.254889579e-05
1.181003216e-05
-9.61119766e-05
-5.306488985e-05
0.0003570705833
5.721321867e-05
-0.0004698271653
-8.878848582e-05
0.0008052962145
9.18693197e-05
-0.0009028328906
-6.9296861e-05
0.00111471719
7.83251722e-05
-0.001155910008
-2.947454092e-05
0.001191691997
-1.175488043e-05
1.612261922e-05
-0.0005775733448
-0.0005890118496
0.000574614381
-8.073553487e-06
8.06127916e-06
-0.0005746021067
0.0005897037197
-6.831777585e-06
-0.001181912589
0.0005967031441
-5.530836905e-06
7.868339486e-06
0.001111664599
4.933579852e-05
-4.905400381e-05
-0.001064663259
5.350783089e-05
0.000828755434
-5.576090545e-05
-0.0007234520155
3.485151313e-05
0.0003851049313
-3.842512761e-05
-0.0002836671571
5.741300023e-05
4.913238993e-06
-6.35558113e-06
-1.830090278e-05
0
0
0
0
0
0
0
0
0
0
0
0
0
0
0
0
0
0
0
0
0
0
0
0
0
0
0
0
0
0
0
0
0
-3.173558232e-07
0
6.903013811e-07
-2.074273599e-06
-3.129973341e-06
-1.602643604e-05
6.769572095e-05
1.653993979e-05
-0.0001325270899
-6.65619144e-05
0.0004206861878
6.779176681e-05
-0.0005346640928
-9.936079884e-05
0.0008643985686
0.0001011372335
-0.0009557290256
-8.343232413e-05
0.001122890293
8.471551581e-05
-0.001134786616
-2.401446781e-05
0.0005762219718
2.313170309e-05
-0.0005753392071
0.0005708055443
6.841743928e-06
-7.697282626e-06
-0.0005699500056
0.001124192228
5.203355742e-05
-5.213328089e-05
-0.00109955655
6.523799598e-05
0.0009017651415
-6.611586958e-05
-0.0008037186672
4.482660952e-05
0.0004677158994
-4.531304118e-05
-0.0003575366789
9.682941251e-05
9.684323231e-06
-1.117295938e-05
-4.253502075e-05
0
0
0
0
0
0
0
0
0
0
0
0
0
0
0
0
0
0
0
0
0
0
0
0
0
0
0
0
0
0
0
0
0
-9.06799406e-07
0
1.148273548e-06
-5.415367761e-06
-6.030290719e-06
-1.917425629e-05
8.093564493e-05
1.972425716e-05
-0.0001491883259
-7.184213607e-05
0.000439529711
7.266329321e-05
-0.0005512231324
-0.0001038253398
0.0008665433252
0.0001043164831
-0.0009503648942
-8.575762023e-05
0.001090035512
8.5789687e-05
-0.001094542485
-2.630077471e-05
0.0005486027908
2.629680077e-05
-0.0005485988169
0.0005518316768
9.449985977e-06
-9.729732245e-06
-0.0005515519305
0.001098982804
5.530522054e-05
-5.595261657e-05
-0.001084975854
6.893681532e-05
0.0009164916593
-6.952628049e-05
-0.0008256641817
4.998719027e-05
0.0005012381271
-5.077616264e-05
-0.0003909063227
0.0001164826167
1.29983887e-05
-1.360471654e-05
-5.668209253e-05
0
0
0
0
0
0
0
0
0
0
0
0
0
0
0
0
0
0
0
0
0
0
0
0
0
0
0
0
0
0
0
0
0
-1.378479334e-06
0
1.694644288e-06
-7.837049781e-06
-8.626572078e-06
-2.109418698e-05
8.762718879e-05
2.164579897e-05
-0.0001565574346
-7.460077112e-05
0.0004429541297
7.537302392e-05
-0.000551508539
-0.0001053891276
0.0008537276703
0.0001058077687
-0.0009325507655
-8.575466412e-05
0.001058139685
8.568555039e-05
-0.001060477414
-2.630618539e-05
0.0005308844868
2.612718367e-05
-0.0002654848751
-0.0002652206099
0.0005339714447
1.042330561e-05
-1.05870036e-05
-0.0005338077467
0.001063461969
5.653883143e-05
-5.654743936e-05
-0.001049617508
6.950350192e-05
0.0008857163933
-6.936685083e-05
-0.0007976246122
5.038784591e-05
0.0004829443995
-5.009052682e-05
-0.0003762459582
0.0001113667119
1.321810626e-05
-1.303369568e-05
-5.385688165e-05
0
0
0
0
0
0
0
0
0
0
0
0
0
0
0
0
0
0
0
0
0
0
0
0
0
0
0
0
0
0
0
0
0
-2.041305215e-06
0
2.438520503e-06
-1.116718231e-05
-1.20948474e-05
-2.336766665e-05
9.580948982e-05
2.397272219e-05
-0.0001657265906
-7.774010189e-05
0.0004489880993
7.854984174e-05
-0.0005546039869
-0.0001070590018
0.000844063313
0.0001074814714
-0.0009178682019
-8.566111732e-05
0.001029060609
8.564889242e-05
-0.001029906048
-2.614913823e-05
0.0005157873644
2.609168766e-05
-0.0002580842241
-0.0002576456896
0.0005175371387
1.091510228e-05
-1.10407365e-05
-0.0005174115044
0.001028363079
5.636552644e-05
-5.583722248e-05
-0.001005922834
6.706627696e-05
0.0008244438482
-6.640301968e-05
-0.0007367828383
4.64532825e-05
0.0004287379827
-4.537523312e-05
-0.0003274662561
8.544967544e-05
1.038890181e-05
-9.766882077e-06
-3.667014457e-05
0
0
0
0
0
0
0
0
0
0
0
0
0
0
0
0
0
0
0
0
0
0
0
0
0
0
0
0
0
0
0
0
0
-2.91259591e-06
0
3.087071554e-06
-1.540357654e-05
-1.570980931e-05
-2.594468972e-05
0.0001049709574
2.671398988e-05
-0.0001758423984
-8.113955642e-05
0.0004555710369
8.212078521e-05
-0.0005580372768
-0.0001087986257
0.0008338774868
0.0001092854896
-0.0009023949073
-8.565731153e-05
0.0009984702735
8.559167382e-05
-0.0009984748923
-2.590753766e-05
0.0005001606044
2.589787449e-05
-0.0002502257558
-0.0002499251854
0.0005002329455
1.133187313e-05
-1.130493723e-05
-0.0005002598814
0.0009809648902
5.432186896e-05
-5.368135252e-05
-0.0009450215338
6.273850912e-05
0.0007397014397
-6.07744992e-05
-0.0006509759129
4.006451019e-05
0.0003526699729
-3.744731251e-05
-0.0002593748414
5.364492002e-05
6.582233189e-06
-5.639667547e-06
-1.745453142e-05
0
0
0
0
0
0
0
0
0
0
0
0
0
0
0
0
0
0
0
0
0
0
0
0
0
0
0
0
0
0
0
0
0
-4.268709812e-06
0
5.27228078e-06
-2.269347588e-05
-2.554990516e-05
-2.904425886e-05
0.0001185820436
3.102277319e-05
-0.0001903314143
-8.541767809e-05
0.0004669862075
8.669410423e-05
-0.000565421427
-0.0001108758468
0.0008240531347
0.0001114668567
-0.0008883220628
-8.569707475e-05
0.000967081698
8.542356545e-05
-0.0004844064235
-0.0004824017652
-1.318160296e-05
0.0002422117868
1.311410998e-05
-0.0002421442938
-1.318509307e-06
0.0001207372732
1.148050178e-06
-0.0002412193556
0.0001206525415
0.0004826791185
1.113879892e-05
-2.393123917e-05
-0.0009638937088
0.0004806119355
1.339509502e-05
5.111662393e-05
0.000917089973
-5.011110117e-05
-0.0008667718007
5.579716137e-05
0.0006412501517
-5.394817368e-05
-0.00054808206
3.085751282e-05
0.0002655021883
-2.898550162e-05
-0.0001835264506
2.075384366e-05
2.293018332e-06
-1.796044389e-06
-2.045168009e-06
0
0
0
0
0
0
0
0
0
0
0
0
0
0
0
0
0
0
0
0
0
0
0
0
0
0
0
0
0
0
0
0
0
-6.344352859e-06
0
5.240606314e-06
-2.888352366e-05
-2.610184043e-05
-3.402929513e-05
0.0001298376983
3.30093576e-05
-0.0002027516316
-9.041997787e-05
0.000473398706
8.89159804e-05
-0.0005682908572
-0.0001124829444
0.000812731845
0.0001115754217
-0.0008695475207
-8.514036261e-05
0.0009358587227
8.514036263e-05
-0.0004690134723
-0.0004668452504
-1.326862662e-05
0.0004690134723
2.598447434e-05
-1.271584773e-05
-0.0002346417826
-0.0002343716897
-8.295300261e-06
0.0002346417905
8.295288462e-06
-0.0004690134723
0.0002343716936
0.0009358587227
2.097103178e-05
-2.085708048e-05
-0.0009338203906
4.762072151e-05
0.0008315402757
-4.607189207e-05
-0.0007698965608
4.745505176e-05
0.0005210893316
-4.443237397e-05
-0.000432741867
2.149994224e-05
0.0001761667687
-1.90210349e-05
-0.0001118360695
2.695419861e-06
3.472456177e-07
-1.570489007e-07
0
0
0
0
0
0
0
0
0
0
0
0
0
0
0
0
0
0
0
0
0
0
0
0
0
0
0
0
0
0
0
0
0
0
-3.285019638e-06
0
1.212744211e-06
-1.258823658e-05
-7.790342965e-06
-2.584920263e-05
8.761917116e-05
2.242863865e-05
-0.0001470801143
-7.778894302e-05
0.0003819821919
7.208427717e-05
-0.0004685288384
-0.0001038843437
0.0007071986554
9.935879687e-05
-0.0007703852918
-8.520214954e-05
0.0008866019348
8.448627464e-05
-0.0009002810969
-2.598447435e-05
0.000904850997
4.975882224e-05
-0.000904850997
-2.377434792e-05
-1.437930115e-05
0.000904850997
1.437930115e-05
-0.000904850997
2.013231728e-05
0.0008902851847
-1.981556385e-05
-0.000866885092
4.233803964e-05
0.0007196646137
-4.077412144e-05
-0.000647757276
3.711951418e-05
0.0003952500208
-3.46127819e-05
-0.0003094199763
1.181577282e-05
9.434868212e-05
-9.619362651e-06
-4.943784231e-05
0
0
0
0
0
0
0
0
0
0
0
0
0
0
0
0
0
0
0
0
0
0
0
0
0
0
0
0
0
0
0
0
0
0
0
0
0
-2.970600331e-08
0
0
-6.652028761e-08
0
-1.116474765e-05
2.828339595e-05
7.690068111e-06
-6.318244816e-05
-5.074068923e-05
0.0002302121748
4.285715538e-05
-0.0002988956492
-7.952823855e-05
0.0005089141696
7.114703889e-05
-0.0005726990783
-7.513345554e-05
0.0007232439625
6.956042152e-05
-0.0007576001483
-4.748243225e-05
0.0008165800595
4.466025246e-05
-0.0008242087837
-1.297774821e-05
0.0008190826228
1.161935614e-05
-0.0008074935804
1.863591738e-05
0.0007324930963
-1.804301167e-05
-0.0006917105849
3.405931042e-05
0.0005227217525
-3.112582143e-05
-0.0004543830703
2.484880905e-05
0.0002408907198
-2.106288564e-05
-0.0001753903583
4.000818059e-06
3.184464979e-05
-2.385456324e-06
-8.697509427e-06
0
0
0
0
0
0
0
0
0
0
0
0
0
0
0
0
0
0
0
0
0
0
0
0
0
0
0
0
0
0
0
0
0
0
0
0
0
0
0
0
0
0
-8.134457111e-07
6.189693253e-08
1.344646777e-07
-4.620354333e-06
-2.026956981e-05
7.803392562e-05
1.3938251e-05
-0.0001182954942
-4.370652536e-05
0.0002616543839
3.475148597e-05
-0.0003110184392
-4.789101824e-05
0.0004428330369
3.997611316e-05
-0.0004777876299
-3.161160548e-05
0.0005472497901
2.655952388e-05
-0.0005578057174
-6.229428881e-06
0.000550709433
4.473059492e-06
-0.0005353873739
1.493959071e-05
0.0004517346075
-1.335517556e-05
-0.0004124057163
2.056887717e-05
0.0002711462246
-1.670907107e-05
-0.0002206769596
9.631090582e-06
8.326527862e-05
-6.306781518e-06
-4.84605919e-05
3.402555055e-08
2.055286821e-07
0
0
0
0
0
0
0
0
0
0
0
0
0
0
0
0
0
0
0
0
0
0
0
0
0
0
0
0
0
0
0
0
0
0
0
0
0
0
0
0
0
0
0
0
0
0
0
0
-1.607219701e-06
1.963366879e-06
2.512947845e-07
-9.031294812e-06
-1.23719511e-05
6.170083659e-05
7.144993695e-06
-8.561595596e-05
-1.828667614e-05
0.0001595001756
1.252559729e-05
-0.000181361257
-1.260701604e-05
0.0002276586012
8.909651813e-06
-0.0002349907198
-8.317313112e-07
0.00022951973
2.668109503e-07
-0.0002186777235
7.331515004e-06
0.0001635905142
-5.227754683e-06
-0.0001397817716
5.966442964e-06
6.496328415e-05
-3.25679492e-06
-4.280518757e-05
3.153179643e-07
2.446760552e-06
-8.79820686e-10
-2.627817717e-08
0
0
0
0
0
0
0
0
0
0
0
0
0
0
0
0
0
0
0
0
0
0
0
0
0
0
0
0
0
0
0
0
0
0
0
0
0
0
0
0
0
0
0
0
0
0
0
0
0
0
0
0
0
0
-3.875681472e-08
0
0
-3.077535773e-07
-1.590247854e-06
8.358282434e-06
2.495939484e-07
-1.292210922e-05
-1.669477086e-06
2.515430976e-05
5.452778639e-07
-2.733782545e-05
9.260230253e-08
2.550773166e-05
-3.473051532e-08
-2.228001614e-05
5.94563586e-07
8.884779536e-06
-5.0050105e-08
-4.900163464e-06
0
0
0
0
0
0
0
0
0
0
0
0
0
0
0
0
0
0
0
0
0
0
0
0
0
0
0
0
0
0
0
0
0
0
0
0
0
0
0
0
0
0
0
0
0
0
0
0
0
0
0
0
0
0
0
0
0
0
0
0
0
0
0
0
0
0
0
0
0
0
0
0
0
0
0
0
0
0
0
0
0
0
0
0
0
0
0
0
0
0
0
0
0
0
0
0
0
0
0
0
0
0
0
0
0
0
0
0
0
0
0
0
0
0
0
0
0
0
0
0
0
0
0
0
0
0
0
0
0
0
0
0
0
0
0
0
0
0
0
0
0
0
0
0
0
0
0
0
0
0
0
0
0
0
0
0
0
0
0
0
0
0
0
0
0
0
0
0
0
0
0
0
0
0
0
0
0
0
0
0
0
0
0
0
0
0
0
0
0
0
0
0
0
0
0
0
0
0
0
0
0
0
0
0
0
0
0
0
0
0
0
0
0
0
0
0
0
0
0
0
0
0
0
0
0
0
0
0
0
0
0
0
0
0
0
0
0
0
0
0
0
0
0
0
0
0
0
0
0
0
0
0
0
0
0
0
0
0
0
0
0
0
0
0
0
0
0
0
0
0
0
0
0
0
0
0
0
0
0
0
0
0
0
0
0
0
0
0
0
0
0
0
0
0
0
0
0
0
0
0
0
0
0
0
0
0
0
0
0
0
0
0
0
0
0
0
0
0
0
0
0
0
0
0
0
0
0
0
0
0
0
0
0
0
0
0
0
0
0
0
0
0
0
0
0
0
0
0
0
0
0
0
0
0
0
0
0
0
0
0
0
0
0
0
0
0
0
0
0
0
0
0
0
0
0
0
0
0
0
0
0
0
0
0
0
0
0
0
0
0
0
0
0
0
0
0
0
0
0
0
0
0
0
0
0
0
0
0
0
0
0
0
0
0
0
0
0
0
0
0
0
0
0
0
0
0
0
0
0
0
0
0
0
0
0
0
0
0
0
0
0
0
0
0
0
0
0
0
0
0
0
0
0
0
0
0
0
0
0
0
0
0
0
0
0
0
0
0
0
0
0
0
0
0
0
0
0
0
0
0
0
0
0
0
0
0
0
0
0
0
0
0
0
0
0
0
0
0
0
0
0
0
0
0
0
0
0
0
0
0
0
0
0
0
0
0
0
0
0
0
0
0
0
0
0
0
0
0
0
0
0
0
0
0
0
0
0
0
0
0
0
0
0
0
0
0
0
0
0
0
0
0
0
0
0
0
0
0
0
0
0
0
0
0
0
0
0
0
0
0
0
0
0
0
0
0
0
0
0
0
0
0
0
0
0
0
0
0
0
0
0
0
0
0
0
0
0
0
0
0
0
0
0
0
0
0
0
0
0
0
0
0
0
0
0
0
0
0
0
0
0
0
0
0
0
0
0
0
0
0
0
0
0
0
0
0
0
0
0
0
0
0
0
0
0
0
0
0
0
0
0
0
0
0
0
0
0
0
0
0
0
0
0
0
0
0
0
0
0
0
0
0
0
0
0
0
0
0
0
0
0
0
0
0
0
0
0
0
0
0
0
0
0
0
0
0
0
0
0
0
0
0
0
0
0
0
0
0
0
0
0
0
0
0
0
0
0
0
0
0
0
0
0
0
0
0
0
0
0
0
0
0
0
0
0
0
0
0
0
0
0
0
0
0
0
0
0
0
0
0
0
0
0
0
0
0
0
0
0
0
0
0
0
0
0
0
0
0
0
0
0
0
0
0
0
0
0
0
0
0
0
0
0
0
0
0
0
0
0
0
0
0
0
0
0
0
0
0
0
0
0
0
0
0
0
0
0
0
0
0
0
0
0
0
0
0
0
0
0
0
0
0
0
0
0
0
0
0
0
0
0
0
0
0
0
0
0
0
0
0
0
0
0
0
0
0
0
0
0
0
0
0
0
0
0
0
0
0
0
0
0
0
0
0
0
0
0
0
0
0
0
0
0
0
0
0
0
0
0
0
0
0
0
0
0
0
0
0
0
0
0
0
0
0
0
0
0
0
0
0
0
0
0
0
0
0
0
0
0
0
0
0
0
0
0
0
0
0
0
0
0
0
0
0
0
0
0
0
0
0
0
0
0
0
0
0
0
0
0
0
0
0
0
0
0
0
0
0
0
0
0
0
0
0
0
0
0
0
0
0
0
0
0
0
0
0
0
0
0
0
0
0
0
0
0
0
0
0
0
0
0
0
0
0
0
0
0
0
0
0
0
0
0
0
0
0
0
0
0
0
0
0
0
0
0
0
0
0
0
0
0
0
0
0
0
0
0
0
0
0
0
0
0
0
0
0
0
0
0
0
0
0
0
0
0
0
0
0
0
0
0
0
0
0
0
0
0
0
0
0
0
0
0
0
0
0
0
0
0
0
0
0
0
0
0
0
0
0
0
0
0
0
0
0
0
0
0
0
0
0
0
0
0
0
0
0
0
0
0
0
0
0
0
0
0
0
0
0
0
0
0
0
0
0
0
0
0
0
0
0
0
0
0
0
0
0
0
0
0
0
0
0
0
0
0
0
0
0
0
0
0
0
0
0
0
0
0
0
0
0
0
0
0
0
0
0
0
0
0
0
0
0
0
0
0
0
0
0
0
0
0
0
0
0
0
0
0
0
0
0
0
0
0
0
0
0
0
0
0
0
0
0
0
0
0
0
0
0
0
0
0
0
0
0
0
0
0
0
0
0
0
0
0
0
0
0
0
0
0
0
0
0
0
0
0
0
0
0
0
0
0
0
0
0
0
0
0
0
0
0
0
0
0
0
0
0
0
0
0
0
0
0
0
0
0
0
0
0
0
0
0
0
0
0
0
0
0
0
0
0
0
0
0
0
0
0
0
0
0
0
0
0
0
0
0
0
0
0
0
0
0
0
0
0
0
0
0
0
0
0
0
0
0
0
0
0
0
0
0
0
0
0
0
0
0
0
0
0
0
0
0
0
0
0
0
0
0
0
0
0
0
0
0
0
0
0
0
0
0
0
0
0
0
0
0
0
0
0
0
0
0
0
0
0
0
0
0
0
0
0
0
0
0
0
0
0
0
0
0
0
0
0
0
0
0
0
0
0
0
0
0
0
0
0
0
0
0
0
0
0
0
0
0
0
0
0
0
0
0
0
0
0
0
0
0
0
0
0
0
0
0
0
0
0
0
0
0
0
0
0
0
0
0
0
0
0
0
0
0
0.0005514020721
-0.000551424126
-2.627872078e-05
-6.557582051e-06
-0.0005529468364
6.2468698e-06
0.0002768520301
0.0002764055186
1.317720295e-06
0.0005731761446
-3.688320611e-06
0.0005328563406
-2.643681148e-05
-0.0002667548057
-0.0002659709088
-8.493504725e-06
-0.0005365856313
8.254329262e-06
0.0002681285617
0.000268696245
-7.473336749e-06
0.0002761631319
0.0002765842996
0.0005176874041
-2.622974212e-05
-0.0002591072482
-0.000258499552
-8.767363897e-06
-0.0005190105978
9.142696596e-06
0.0002589773565
0.0002596579085
-8.657165953e-06
0.0002664753884
0.0002676597175
0.0005019682546
-2.601050147e-05
-0.0002511989755
-0.0002506663153
-9.629123454e-06
-0.0005019749111
9.323612967e-06
0.0005022804215
0.0005177359568
-8.966182071e-06
0.0002429253227
-0.0002429253168
-1.318160888e-05
-0.0001210730047
9.047514962e-07
-9.283687363e-07
0.000121096622
0.0001211928294
-0.0002420271808
-1.557162603e-06
-9.261235104e-06
-0.0004850942108
9.339834034e-06
0.0004850156119
0.0005002214731
-9.617651045e-06
0.0002353480127
-0.0002353480127
-1.326862662e-05
-0.0002353480346
4.976917678e-06
-4.976987522e-06
0.0002353481044
0.000120855444
7.865807349e-07
-0.0004709652119
0.0002163529289
7.090036054e-06
3.878912145e-06
-1.967815135e-05
-0.0009346847745
0.0004701198374
0.0004695603174
6.106307807e-06
8.576463169e-06
0.0004825718515
-9.153968134e-06
0.0005781702898
-0.0005779647723
-2.421998534e-05
-1.019753686e-05
0.0005748217017
9.990216195e-06
-0.0005754841922
2.161285767e-06
0.0005746406268
-2.683739686e-06
0.0005855642371
6.823222259e-06
-1.848032862e-09
-0.0001417351731
-9.428466083e-08
0.0001418313058
-0.0002899260559
-4.430677822e-06
0.000290736857
3.619876655e-06
-0.0005527433104
9.246459943e-06
-4.765016894e-05
-0.001104935656
4.613915932e-05
0.001106729052
4.164265819e-05
0.001132248426
-4.553480113e-05
0.001065538702
-0.001068368532
-8.57984279e-05
2.847470869e-05
-2.850541422e-05
0.0005328870461
-2.849061447e-05
0.0005485552978
2.853810751e-05
-2.948491251e-08
-0.0001361149685
1.306755207e-07
0.0001360137779
5.494436516e-07
-0.0001382281977
0.0001380274401
-3.486860817e-07
-0.0005364694264
1.030710076e-05
-4.911481675e-05
-0.001073561598
4.878124505e-05
0.001073958537
0.001099653912
-4.822762548e-05
0.001036620167
-0.001037775584
-8.567661906e-05
2.83697727e-05
-2.840061593e-05
0.0005177182473
0.0005309163196
2.844287581e-05
2.615557276e-05
0.0005257020062
-2.618861289e-05
-0.0002630301809
-0.0002626387852
9.554197815e-06
-0.0001312817436
-9.523634559e-06
0.0002626451921
-0.0001313940117
-9.580792065e-06
-0.0001325994685
0.0002653764379
9.475478607e-06
-0.0001326716559
-2.85127526e-07
-0.0001318877471
2.844611085e-07
0.0001318884136
-2.303128139e-07
-0.0001338872169
0.0001337357134
3.818162609e-07
-0.0005190997651
1.100426957e-05
-5.016395115e-05
-0.001036791353
4.981840625e-05
0.001039221124
0.001063982103
-4.943651523e-05
0.001005982241
-0.001006138197
-8.571958279e-05
2.821106047e-05
-2.824262102e-05
0.0005019998151
0.0005157956086
2.836152848e-05
2.620633787e-05
0.0005099666064
-2.6120927e-05
-0.0002553049299
-0.0002547470873
4.745367103e-06
-0.0001272680395
-4.782646031e-06
0.0001273053184
-9.370177652e-06
-0.0001290622964
0.0002580720943
9.386869753e-06
-0.0001290264901
-8.330371526e-07
-0.0002549183647
7.670812395e-07
0.0002549843206
4.85300438e-07
-0.000259016593
-1.032706035e-06
0.0001298404563
0.0001297235423
0.0009750050755
-8.556552321e-05
-0.0004885402562
-0.0004865963708
2.804328741e-05
-0.0002436187796
-2.810044817e-05
0.000486601263
0.0005001908668
2.818079812e-05
1.321274262e-05
0.000247053998
-0.0002470745883
-1.319215234e-05
5.451937413e-06
-0.0001237401593
-5.296207762e-06
0.0001235844297
-5.117463369e-06
-0.0001249077384
0.0001249856153
5.039586412e-06
0.0001241489612
1.417862972e-06
-0.0001238066406
-1.760183569e-06
-1.095897311e-06
-0.0002467813208
1.196101664e-06
0.0002466811164
9.042063364e-07
-0.000250333439
0.0002503268063
-8.975736122e-07
0.000937863515
-8.691425046e-05
-0.0004651244152
-0.0004709652119
2.819686857e-05
-0.0002356171992
-2.819686857e-05
0.0004709652119
-0.00024219243
0.0004844031102
2.804439399e-05
1.318400951e-05
0.0002390259984
-0.0002390034968
-1.320651112e-05
4.786259277e-06
-0.0001184067103
-5.170843458e-06
0.0001187912944
-5.667026928e-06
-0.0001203949768
0.0001206009635
5.461040197e-06
0.0004553531079
-0.0004553531079
-2.598447434e-05
-0.0004553531079
1.050653745e-05
-1.050653745e-05
0.0004553531079
0.0002346418285
4.976879692e-06
-9.018803884e-06
0.0002797543037
8.800330638e-06
-0.000139664596
-0.0001398712344
9.247752075e-06
0.0002752426693
-9.200731034e-06
-0.0001379091188
-0.0001373805715
0.000290328845
-3.55459256e-06
2.985780694e-06
-0.0002897600332
0.0002810387427
-0.0002812569118
-8.800634756e-06
-0.0001385057385
7.009049381e-07
0.0001383542772
-0.00014121638
0.0001413304315
-1.158994769e-07
5.275365818e-06
-0.0005612751456
-5.8744119e-06
0.0002811928541
0.0002806813376
-9.991631764e-07
0.0001406699708
5.04874917e-07
-0.0002813920625
-4.143288672e-07
-0.0001385820393
4.906296479e-07
-0.0001326669501
-9.709581233e-06
0.0002658621092
-0.0001330663699
-0.0002697176902
-9.592918459e-06
0.0002697451957
9.565413007e-06
-2.63552721e-05
0.0005393486042
2.632525698e-05
-0.0005393185891
-9.085501894e-06
8.900451084e-06
-0.0001348586055
-0.0001346740339
4.647693607e-06
-0.0001326645901
-4.650053659e-06
0.0002743872965
9.119190013e-06
-0.0001371663543
-0.0001370923802
0.0002704773654
-9.046261562e-06
-0.0001354039395
-0.0001351126662
-0.0001337881015
-5.376586584e-08
0.0001336115545
-0.0001362916308
0.0001360921118
1.700340665e-07
4.182886612e-06
-0.0002721895564
0.0002722382857
-4.23161599e-06
1.497562542e-07
-7.495847477e-08
-0.0001363664286
-3.436917773e-08
-0.0001338877331
1.34000774e-07
-3.128856702e-07
-0.0001383296409
-0.0001361907318
2.255196009e-07
-0.0002723076083
4.183761459e-06
0.0002723067334
-0.0001291145284
-9.481683748e-06
0.0002584099918
-0.0001291839573
-0.0001312910609
0.0002623680788
9.662868702e-06
-0.0001311856889
0.0005239455206
2.627052507e-05
-0.0002623231691
-0.0002617373039
-4.776791936e-06
4.808377887e-06
-0.0001313226468
4.446348047e-06
-0.0001290775521
-4.483324341e-06
4.616386852e-06
-0.0001325681617
-0.0001313646785
-4.69385703e-06
-0.000259171321
5.60427657e-07
0.0001294868509
0.0001296093429
-0.0001317648244
0.0001317157074
-2.36010596e-07
9.235520312e-06
-0.000525082332
-9.123553673e-06
0.0002620335146
0.0002629368507
8.7906186e-07
0.0001312768959
-1.070777836e-06
-0.0002628500043
-1.04795165e-06
-0.0002591508167
1.027447324e-06
6.508164217e-08
-0.0001339866677
0.0001318402961
-0.0002635845878
3.975703168e-07
3.380361016e-07
-0.0005272846143
8.78037117e-06
0.0002635760893
0.0002641636741
-0.0001250387057
-5.166848245e-06
0.0001250880906
-0.0001271225827
0.0001271378239
4.73012593e-06
0.0005076425467
2.603165312e-05
-0.0002540941419
-0.00025337372
-4.722648052e-06
4.624948447e-06
-0.0001270248831
5.279632397e-06
-0.0001249252854
-5.393052719e-06
4.439933187e-06
-0.0001290558815
-0.0001272177132
-4.772974335e-06
-0.000251008184
9.107271097e-07
0.0002510016632
-0.0002545709086
0.0002545660599
-8.281884498e-07
-0.0001211103953
-5.801276413e-06
0.0001212446448
-0.0001233063348
0.0001233644348
5.393837368e-06
0.0002464972559
1.32115307e-05
-0.000246496044
-8.458962082e-07
-0.0001232028086
0.0001228105817
1.238123131e-06
-5.595148835e-06
5.490252996e-06
-0.000123201439
5.313004405e-06
-0.0001208421012
-5.581298506e-06
5.137789319e-06
-0.0001247658953
-0.0001238474226
-5.487885591e-06
-1.504556925e-06
0.0001248076219
-1.25984719e-06
-0.0004846346601
1.421368801e-06
0.0002418470785
0.00024262606
-0.0002460878997
0.0002459870861
-9.950837403e-07
1.417990406e-06
-0.0001232029361
-0.0002373363126
8.725282786e-06
0.0002362049555
-3.661754732e-06
-3.932170892e-06
-0.0001182687179
0.000118499739
4.555238204e-06
0.0002384452707
1.314080019e-05
-0.0002384020614
-4.866069978e-07
-0.0002354103974
0.0002355002377
3.96766688e-07
-3.630048912e-06
3.51721148e-06
-0.0001181558805
8.826517844e-06
-0.0002373885068
-3.77385407e-06
-5.000469557e-06
5.050318125e-06
-0.0001201322905
-3.893014686e-06
-0.0001181437445
-0.0002360608507
-7.162001893e-07
0.0002362904439
0.001098237798
-0.001103793166
-8.552435899e-05
-2.844358775e-05
0.0005513550454
-2.640653569e-05
0.0005754007829
2.722772458e-05
2.564171781e-05
0.0005629467059
-0.0005629085338
-2.567988989e-05
9.451112571e-06
-9.410837771e-06
0.0002809984679
-7.851741835e-06
0.00029114624
7.034346892e-06
1.868666541e-05
-0.0001406420732
7.120023686e-06
0.0001148353841
-0.0001492865718
-4.470950185e-06
0.0001514215655
2.335956455e-06
0.0005416015282
-0.0005416458627
-2.631093762e-05
-9.598653748e-06
0.0002704831007
-9.605233726e-06
0.0002743871173
9.605412933e-06
3.292628998e-05
-0.0001294572819
-1.093102173e-05
0.0001074620137
-0.0005018539483
1.12109104e-05
-4.837749982e-05
-0.000994621782
4.885485161e-05
0.001006731689
0.00103145656
-4.950348776e-05
3.291300901e-05
-0.0001247587089
-1.114419245e-05
0.0001029898923
9.067451552e-07
-0.0002487474989
-1.021518213e-06
0.0001243486064
0.0001245136655
-4.784293858e-07
-0.0001252256359
0.0001252006293
5.034359593e-07
8.430350931e-07
-0.0002359769425
-9.269433041e-07
1.116105863e-06
-0.0004753147045
-1.396019392e-07
0.0004743382005
-0.0004822474501
-1.051272169e-06
0.0002406762743
0.0002413626007
-9.598498386e-06
0.0002752359339
0.0002797671129
9.43830333e-06
0.0005575193905
2.600348624e-05
-0.0005578811589
-2.74316315e-06
0.0001384820572
3.028286114e-06
-0.0001387671802
0.0001500863853
2.371754749e-06
-3.14146024e-07
-0.000152143994
0.0001437241611
1.633261577e-06
-0.0001439267529
-1.430669732e-06
-5.567746174e-06
3.231394608e-06
-0.0002875897043
0.0001414066672
-0.0002825238149
-1.617188597e-06
-0.0005629845329
6.279394641e-06
0.0002808939654
0.0002810865387
-0.0001255592095
-5.711081509e-07
0.0001256518883
-1.686397896e-06
-0.0001264948754
0.000126811817
1.369456325e-06
9.105656896e-06
-0.0005080972758
0.0005082180831
-9.226464157e-06
1.204123476e-06
-1.270006436e-06
-0.0002545050256
-1.346294264e-06
-0.0002509685082
1.306618411e-06
-1.21207261e-06
-0.000258852472
-0.0002549232813
1.20904012e-06
-0.0005108073444
9.101932173e-06
0.0005108110691
-2.076536663e-06
-0.000122351689
0.0001227570431
1.67118263e-06
0.0001190541864
3.787571318e-06
-0.0001190626703
-3.779087391e-06
9.947805508e-07
-0.0002391215833
-1.025979453e-06
0.0001193829629
0.0001197698193
-0.0002839467527
-2.686273904e-06
0.0002839171134
2.715913182e-06
0.0006083057012
-2.735989673e-06
-7.778345167e-06
8.290405953e-07
-0.0002972555996
-0.0003013648073
0.0002883252487
-0.0002942657033
2.385862063e-06
-0.0002898397755
-4.850057476e-06
0.0002902591551
-0.0005936340454
-2.030343353e-05
0.0002970594472
0.0002871818726
9.735024533e-06
1.996113461e-05
-7.09713442e-06
7.40024179e-06
-0.0002842498601
-0.0001814562628
0.0002001429283
-2.084785542e-06
-0.0002859323302
1.436772012e-06
0.0001431066358
0.000143473708
-4.167089584e-06
-3.23345134e-05
-0.0001449546599
-2.814443463e-06
1.700945602e-06
-0.0001481730739
-0.0001444538866
-3.552761928e-07
-0.0002854988653
-1.265763246e-06
0.0001424749025
0.0001422049405
-3.935780653e-07
-0.0001372357728
0.0001372601482
3.692026609e-07
-0.0001374349375
-3.694330841e-07
0.0001374107926
3.654133209e-07
-0.0001331429812
0.0001331415919
-3.640240329e-07
-0.0001335858156
2.17542929e-07
0.0001337336859
-0.0001272294302
1.652193624e-06
-9.08103609e-07
0.0001264853402
-0.0001309590218
0.0001647451407
-8.59828966e-07
6.61737613e-07
-0.0002563154939
0.0002563110929
-6.57336645e-07
-2.481154939e-06
9.700935613e-07
-0.0001294479604
1.476810909e-06
-0.0001274276517
-1.278589453e-06
-2.289740969e-06
1.05580917e-05
-0.0001285715456
0.0001203031949
-0.0001288583855
-3.080051318e-06
-0.0002570188492
6.421137001e-07
0.0001284104951
0.000128627978
-0.000124149572
-4.415874857e-06
0.000124224072
4.341374856e-06
-1.093700171e-05
0.0002482509207
1.090932028e-05
-0.0002482232393
1.090326542e-05
0.0002470214186
-0.0002470416544
-1.088302962e-05
6.087762509e-07
-0.0002465834461
-6.483360862e-07
0.0002466230059
-0.0002481666095
7.714398135e-07
0.0001241250777
0.0001241768371
0.000159578417
-1.109197053e-07
-0.0001265544882
-3.729857594e-06
-0.0001198831285
0.0001201173425
3.495643578e-06
-1.070785902e-05
0.0002403892189
1.068992348e-05
-0.0002403712834
1.069189541e-05
0.000238979079
-1.080765445e-05
-0.0001194872084
-0.0001193761115
-1.08150125e-05
0.0002420921195
1.073804206e-05
-0.000242015149
0.0002408526309
-0.000240823
-1.07374899e-05
-0.0001195926793
-4.013897381e-06
0.0001198767191
0.000143759947
-1.467924447e-06
3.85409791e-05
-0.0001808330016
0.0001380206283
-2.839889656e-06
-0.0001379239018
8.889004438e-06
0.0002779623642
-8.999210218e-06
-0.0001387834693
-0.0001390686891
3.405892167e-06
-3.670640177e-06
0.0001382853763
-3.443565198e-06
0.0001423236201
4.879892025e-06
5.025290966e-06
-1.331955875e-05
0.0001377783709
-0.0001294841031
0.0001386693982
3.218551166e-06
0.0002777020056
9.190822174e-06
-0.0001392278653
-0.0001387759581
8.117126691e-06
0.000288587367
-0.0002887946094
-7.909884277e-06
2.877192785e-06
-3.03818811e-06
0.0001438851564
5.369879231e-06
0.0001454866672
-7.701611116e-07
-0.0001423064285
-2.909558024e-06
0.0001417724213
-0.0001433794702