/*--------------------------------*- C++ -*----------------------------------*\
| =========                 |                                                 |
| \\      /  F ield         | OpenFOAM: The Open Source CFD Toolbox           |
|  \\    /   O peration     | Version:  v1912                                 |
|   \\  /    A nd           | Website:  www.openfoam.com                      |
|    \\/     M anipulation  |                                                 |
\*---------------------------------------------------------------------------*/
FoamFile
{
    version     2.0;
    format      ascii;
    class       volScalarField;
    location    "2.61";
    object      p;
}
// * * * * * * * * * * * * * * * * * * * * * * * * * * * * * * * * * * * * * //

dimensions      [0 2 -2 0 0 0 0];


internalField   nonuniform List<scalar> 
12556
(
701.904058
701.5285206
700.4326586
697.8261673
693.5615593
684.0855905
667.7048788
640.4448381
598.1082544
535.0269269
445.7402717
327.2205301
181.9849183
19.4374751
-146.309897
-300.2169216
-431.7976017
-537.0088989
-616.6220477
-673.6945542
-722.4218523
-744.887392
-758.0114454
-764.1664372
702.1441722
702.0193835
701.4303024
699.776813
695.6144426
687.8217748
673.6682296
651.8393507
614.5848833
557.3696457
473.700491
358.4479435
212.0721135
43.8756493
-130.7553045
-293.3774953
-430.9741305
-539.5392385
-628.8124627
-682.9048792
-730.9794733
-750.9254189
-762.6199517
-768.0561968
702.6588248
703.0987824
703.6989103
703.9655502
701.7555857
697.6097031
688.759009
670.9740808
641.5389471
592.7461177
512.2536136
387.2400455
222.6309333
36.504273
-151.2367342
-325.460129
-468.9331441
-574.7721359
-662.7847617
-709.0931844
-750.7830852
-765.4156915
-773.8721283
-777.6802631
702.9967172
704.2357152
706.5728954
709.5509684
710.2704459
711.4842488
710.4741109
701.0068222
684.887549
647.8211289
570.1155586
431.7963063
222.8615485
-13.0062676
-227.6184596
-402.272142
-542.0823893
-641.7178422
-716.9598409
-749.3402473
-780.0284476
-786.8184671
-790.3902794
-791.8200301
702.3708864
704.519077
708.8298966
715.1564743
718.9846502
727.3640637
736.0386343
738.9283522
741.5149206
728.3088738
670.6719672
513.7491177
223.3334791
-124.1494796
-389.2321677
-561.3184993
-671.189049
-740.2406459
-790.3241025
-802.2724238
-814.3226864
-811.6440209
-809.1775919
-807.7032457
699.8835448
702.9364784
709.1481162
718.7483863
727.051353
742.3854616
761.936101
778.9377289
809.6119302
845.2680763
855.2891974
733.9747685
267.3820438
-349.7047723
-684.629361
-814.045117
-860.5069019
-874.8535358
-879.0756457
-862.0300814
-850.1101404
-836.5182139
-827.1218761
-822.4720013
694.6723397
698.5162684
706.3869307
718.8579945
731.4672579
753.3638696
782.716749
815.2617837
879.0946504
981.8311186
1132.552512
1288.579201
576.7583205
-919.7123846
-1169.005838
-1149.916435
-1095.895164
-1031.903558
-973.8242917
-921.0913355
-882.8675625
-857.2433273
-841.0023569
-833.3009142
685.9943303
690.4174025
699.4998547
714.039061
730.5608594
757.288548
793.82378
839.548449
929.4543629
1081.733249
1334.701065
1819.433971
-2492.238417
-1840.625366
-1515.210737
-1326.138865
-1181.013092
-1055.217554
-969.5619085
-904.6117362
-869.1119155
-847.5166891
-837.2791438
673.2843179
678.0008853
687.6856776
703.2488528
722.7450855
752.0103722
792.0674033
845.1839962
944.9197576
1101.569582
1309.061534
1523.431156
-3911.578483
-2346.627437
-1772.830132
-1483.470647
-1280.213028
-1102.719002
-995.071702
-909.7045805
-868.3724584
-843.5808728
-831.8244364
656.2265083
660.9188395
670.531232
685.9552157
707.2830013
736.5999655
776.3531047
831.0201051
927.0375253
1063.148834
1209.36619
1323.142241
-3703.046814
-2369.774526
-1809.82908
-1511.52177
-1298.475283
-1102.74078
-989.8054653
-894.829832
-852.7519857
-827.5149116
-815.5028776
634.7981651
639.1666801
648.0651377
662.1934762
684.2823453
711.3583405
747.5886831
799.1729753
883.7955989
995.708709
1107.93856
1201.262067
-2822.988232
-2026.528362
-1641.708424
-1411.712899
-1232.290635
-1052.855042
-952.5451453
-859.9606202
-822.0721156
-799.0930593
-788.0688409
609.2516347
613.0358695
620.7388502
632.3518272
654.8319305
677.4259366
707.7096971
752.8171202
821.7108769
910.2445932
1003.909169
1107.911121
-1877.003947
-1535.566893
-1352.832832
-1220.066338
-1101.033621
-964.0338514
-888.5580664
-808.0215346
-778.2364064
-759.5640758
-750.4997565
580.1026212
583.1193291
589.3733441
598.3128213
618.5562665
636.2886949
658.9505804
695.6663
745.5639883
807.7607102
878.4631826
986.846771
-809.6286287
-990.6130166
-1047.400916
-1028.430401
-990.7474634
-938.1221844
-853.782479
-806.9496277
-744.6512143
-724.7003504
-711.3182938
-704.7681487
548.0017809
550.1614501
554.786633
561.1542153
578.3321985
590.7136843
605.2140004
631.8835423
660.6856304
690.5133123
716.9978543
784.107379
203.6863197
-435.2044371
-655.3649642
-737.3895117
-770.8242823
-772.7328048
-738.615805
-717.578577
-676.3485107
-665.3412824
-657.2881352
-653.3929064
513.7069769
514.9292276
517.6314254
521.1507905
535.3175235
541.59072
548.0269093
562.726809
569.9201885
565.769023
538.5924172
453.2656531
164.8111439
-198.1287946
-404.2636112
-517.4798755
-588.0626119
-627.8500925
-629.2136042
-629.6431376
-606.7006355
-603.4395369
-600.3849245
-598.9521929
478.0101049
478.3375253
479.1336558
479.9020468
490.9630665
491.8031429
490.9841344
495.173528
485.926601
460.9163823
404.2615132
293.1251369
121.2664826
-91.61886897
-252.7352755
-367.6724362
-452.1780565
-510.044153
-532.9981539
-547.790492
-539.0399775
-541.9744875
-543.1378402
-543.7375461
441.7099692
441.2600221
440.38571
438.7480787
446.8506439
443.0518791
436.3768715
432.9578553
414.0337698
378.773654
317.5737096
232.5146157
105.3878857
-35.17796513
-160.8499449
-266.858746
-354.4049997
-417.1352764
-450.8158743
-474.1406695
-475.7718675
-483.2181479
-487.5339887
-489.5960127
405.5441064
404.4541493
402.2065427
398.612373
404.0232694
396.6139933
385.5154096
376.6133075
352.7286759
315.5854841
259.6346407
186.4484249
95.26326074
-7.535279576
-110.4677222
-205.2216529
-284.5493585
-344.063593
-381.9514595
-409.5715535
-418.0810094
-428.4293589
-434.8832089
-437.9082543
370.1195665
368.5288135
365.2063744
360.1214803
363.3093145
353.3054555
339.2155546
326.7249845
299.8294503
262.9923433
213.6681607
151.5996941
80.51287593
-1.5751985
-87.43665576
-166.5334556
-233.5769208
-287.2433803
-325.3663058
-353.9213569
-366.3069201
-378.227277
-385.9168115
-389.5588569
335.9108309
333.9589923
329.8595531
323.7345294
325.189767
313.5222145
297.7026213
283.2100144
255.4067
219.342584
174.297797
121.3443044
61.94922358
-5.322168011
-74.24487272
-138.6214939
-195.1282945
-242.3514025
-278.4901164
-306.1705832
-320.3833655
-332.843103
-341.0632127
-344.9694665
303.2683319
301.0877122
296.4914347
289.7290908
289.917741
277.359951
260.7063998
245.5244816
218.2006623
184.2013717
143.5542028
97.13956717
47.7846817
-7.978799173
-64.29590266
-117.4404272
-165.1793462
-206.30276
-239.3226961
-265.2001886
-279.8633003
-292.1499108
-300.3943774
-304.3246909
272.4280861
270.1330577
265.2847944
258.2204953
257.5604446
244.7150379
227.9804979
212.915689
186.9232328
155.584015
119.3311927
78.89725834
36.97398767
-9.560597773
-56.29393175
-100.6743085
-141.1585401
-176.7837765
-206.3460005
-229.9451695
-244.1734376
-255.8417523
-263.7770106
-267.5677025
243.5204305
241.2033959
236.305112
229.2162338
228.0158368
215.3555879
199.0973755
184.652854
160.4691357
132.0140408
99.92972581
64.73930145
28.86523655
-10.35505565
-49.5686028
-86.94916256
-121.4018411
-152.1802296
-178.3018626
-199.4693308
-212.7413217
-223.5355885
-230.9558399
-234.5045793
216.5865751
214.3191256
209.5268001
202.6292685
201.1376534
188.9974652
173.5964583
160.0699906
137.9304231
112.3795298
84.13097358
53.53067996
22.70034601
-10.58156201
-43.7359319
-75.40968686
-104.8054239
-131.3496769
-154.2219364
-172.9835924
-185.0257727
-194.8194273
-201.6098309
-204.8591637
191.5994828
189.4352489
184.863198
178.3139041
176.7278637
165.3353388
151.0427408
138.5908872
118.5802046
95.84425732
71.07718405
44.50464755
17.9506377
-10.40310326
-38.56613205
-65.50334178
-90.61944849
-113.4735165
-133.3559501
-149.8337881
-160.5285613
-169.2812089
-175.3910329
-178.315025
168.4824544
166.460038
162.188706
156.0956613
154.5641017
144.0629897
131.0334364
119.7287248
101.8361103
81.76866776
60.14908819
37.12726531
14.25025201
-9.93980247
-33.91363138
-56.85702918
-78.31578652
-97.94902486
-115.1179401
-129.477841
-138.803623
-146.5288275
-151.9501408
-154.54393
147.1212887
145.2670422
141.3504609
135.7836951
134.4211065
124.8937686
113.1751854
103.0733504
87.23212709
69.66100451
50.88885722
31.01531655
11.33943174
-9.279709089
-29.68132332
-49.20996814
-67.51282216
-84.32477967
-99.04765674
-111.4692685
-119.4559824
-126.1981322
-130.9490911
-133.2207738
127.374976
125.7056113
122.1775794
117.1786982
116.0718635
107.5580648
97.1635318
88.26595812
74.38705162
59.13674682
42.9497619
25.88380904
9.028589549
-8.487414855
-25.79930836
-42.3705617
-57.92340811
-72.25095473
-84.77215257
-95.43158842
-102.1365518
-107.9553089
-112.0684031
-114.0332391
109.0860848
107.6111502
104.4905122
100.080267
99.29657508
91.80567841
82.74189072
75.003587
62.99011853
49.8931274
36.06334042
21.52043844
7.177808169
-7.609977601
-22.2146088
-36.19345057
-49.32609309
-61.4516408
-71.98716531
-81.04772641
-86.53734571
-91.49790238
-95.0120946
-96.68858489
92.08805634
90.81186229
88.10676762
84.29109524
83.88348483
77.40501783
69.65010111
63.03329584
52.7840777
41.68597631
30.01688404
17.76370614
5.680360144
-6.68121592
-18.88393697
-30.56280123
-41.54249678
-51.70029307
-60.43904441
-68.04584047
-72.38575212
-76.55231865
-79.5079772
-80.91546167
76.20472734
75.12885345
72.84102143
69.61343291
69.63860458
64.14333399
57.660637
52.13791425
43.55329142
34.31516899
24.63945633
14.48356611
4.453246782
-5.725209354
-15.77040729
-25.38375895
-34.42552135
-42.7992783
-49.91489174
-56.19049569
-59.43462116
-62.86844874
-65.3037724
-66.4602053
61.27819373
60.40045598
58.52777596
55.87837094
56.36219828
51.82256493
46.52608322
42.13445564
35.11277165
27.6127787
19.78978638
11.57666403
3.430979402
-4.758960283
-12.84151262
-20.57716512
-27.8556212
-34.59316563
-40.2162386
-45.2709376
-47.47753793
-50.23059107
-52.18016741
-53.10303208
47.07228786
46.39699362
44.94146814
42.85244305
43.90474762
40.2604176
36.07965913
32.82929488
27.29497405
21.43281939
15.34817949
8.950731734
2.560376987
-3.79388387
-10.06675252
-16.07306943
-21.7308795
-26.98706881
-31.15570565
-35.09648657
-36.2666637
-38.39481045
-39.88431451
-40.58235137
33.64788208
33.15578606
32.10737409
30.61245309
31.90920532
29.28384821
26.20043762
24.06000922
19.9524042
15.64725668
11.20980073
6.527962764
1.797205229
-2.837100781
-7.416941521
-11.80677774
-15.95082618
-19.82040255
-22.61500137
-25.47684886
-25.8188325
-27.3218596
-28.37768378
-28.87632048
20.00198158
19.76096139
19.13593637
18.23310128
20.4443368
18.74248862
16.71414608
15.68244004
12.95461906
10.140412
7.275450283
4.238330936
1.105156021
-1.891643881
-4.863611963
-7.717376326
-10.42110669
-12.96785246
-14.45807919
-16.32913336
-15.37656229
-16.27899304
-16.90233336
-17.14925308
9.583401317
9.362121907
9.038598803
8.528770336
9.212785124
8.376467609
7.391051665
7.563085578
6.188876978
4.80847927
3.438406665
2.01317541
0.462545688
-0.9560879729
-2.379676362
-3.748406166
-5.055340115
-6.320283629
-6.479218961
-7.337819156
-7.158438341
-7.599867818
-7.893702597
-8.096529436
1562.398595
-4168.856742
-2624.135191
1341.659221
-4026.075018
-4239.043164
1213.837005
-3066.117854
-3931.415202
1120.207864
-2040.160398
-2934.579586
996.7299417
-865.9170867
-902.3839536
-1105.039755
-1916.890831
811.9560376
291.0125344
-819.4170062
155.2985185
-448.5067537
-999.5990021
1800.296967
772.4221639
-2287.856066
-736.7756617
-5373.145072
-3224.118012
-3839.528637
-2490.577728
-1968.453066
1235.171482
1330.426278
1500.521189
-5682.31563
-5908.324526
-3782.330552
-2645.099318
-2590.811433
1133.052455
1203.054202
1312.080505
1271.724481
1302.29794
1368.482132
-4243.374545
-5010.060623
-2942.308082
-2296.399133
-2592.913882
1031.062924
1105.483722
1190.082674
1166.227999
1206.109449
1238.316346
-2838.587694
-3435.760371
913.1768507
987.7557823
1092.771075
1060.4106
1124.736142
1167.146065
-1641.202348
-1583.840792
-2119.873532
759.2956359
805.9661552
969.822373
917.7050785
996.4956678
1059.619831
520.5662669
271.8037346
302.6860753
1920.554339
1578.772763
2490.01601
1996.227121
-5910.786841
-5439.154002
-3737.983908
-5209.738316
-5756.14991
1376.534078
1432.065023
1405.000705
1432.958324
1380.390756
1552.00676
1442.33745
-5055.292258
-5653.731734
-4174.594371
-5527.529592
-4967.390506
-5756.472519
-5553.775506
-4199.357267
1244.102726
1293.387008
1256.069722
1298.674064
1246.012135
1376.124755
1303.561376
-3523.936066
-4187.813343
-3455.57521
-4087.281311
-3454.015612
-4922.955702
-4186.662899
-3581.905702
1170.188025
1204.43256
1154.983617
1207.860915
1174.591887
1242.969921
1209.266823
-2198.047877
-2756.154817
1063.912271
1121.695137
1052.404742
-1600.207474
1127.29964
1069.153306
1171.448414
1130.390355
-1640.528074
-1033.052289
-1508.317497
-1593.220448
1008.412537
992.8446853
905.2123136
-86.94920487
999.4080375
898.3822344
1064.868288
1002.015829
-163.4037971
1328.685284
1533.976923
1718.636705
1745.833274
1968.288322
2354.709174
-6460.849402
-3832.879823
1429.913678
1442.25965
1558.598409
-3383.612414
-1992.254314
-1740.96114
-2167.215838
-2029.15701
-1965.725442
-2246.66349
-217.1675554
-521.6128754
-894.8374148
1585.575589
1902.628252
1699.876758
1610.380154
3345.318529
2668.560937
-3092.462614
-5056.872897
-3512.963028
-2292.527274
-2595.530168
-2418.011308
-2713.486606
-2171.674824
-3369.31497
-2793.28874
-2546.135094
-1208.481628
-365.6780267
-508.2902209
1272.646894
1880.261954
2480.472104
-2786.617394
-717.0872235
1026.139138
-6588.006886
-4738.660422
-6416.242745
-3687.650388
-6247.931198
-4414.143105
-5799.331601
-5817.057596
-4608.418063
-4660.392964
-3003.390755
-3320.426945
-3089.605928
-3297.32984
-2976.457978
-3693.228486
-3345.195492
-3174.88834
1144.54549
1114.807728
1095.153318
-1619.929968
-1879.581152
-1956.463039
1026.595507
989.0259397
959.5323886
1024.518951
998.1978186
1030.264243
1879.533827
1638.969553
1735.856398
1652.976156
1908.579708
1509.958927
1627.387901
1688.181626
2338.434488
2628.107288
3188.531191
1965.325734
2526.543104
2252.823274
2547.933625
1944.542003
-5806.211142
-5782.018585
1407.265865
1433.894634
1403.855111
1491.826287
1455.710957
1504.075531
1434.053524
1451.705815
1477.097763
-5340.413419
-5377.023209
-5281.829137
-4710.029111
-4839.538162
-4478.733447
-4657.938305
-5245.473422
-5693.744663
-4948.217159
-4925.958928
-4872.666809
-4939.141399
-5676.976782
1270.9102
1267.185812
1343.681272
1338.320876
-3796.995148
-3730.01373
-3845.721277
1193.31285
1190.785274
1224.220328
1221.995262
-2928.881126
-2617.900584
-2513.78307
-2638.543354
-2951.46951
1087.826631
1057.295971
1032.815704
1088.114652
1065.369857
1092.959021
-1257.091885
1097.296937
1091.682347
1151.028298
1148.830534
-1964.861778
-1256.191375
-1276.572132
-1533.912502
948.4172239
913.2997745
924.2185009
941.4972071
438.5460305
132.8101366
1036.559509
-355.3706166
87.35609989
-271.8406828
1033.601647
-416.6096803
-302.5460847
55.04843309
-4607.646678
-2167.573645
-2313.579523
580.8073599
545.1891695
771.2178426
659.7773815
672.0569483
939.1066682
177.6000834
-154.0564917
-336.8551003
4302.046628
-2347.441274
-2505.184158
-945.5207072
-1191.82214
-1209.140353
-172.6721549
-417.0329638
-144.5982694
2066.972723
2619.694909
3336.808959
-3276.688289
-686.0686827
1362.820135
-5741.954126
-6390.464294
-6318.134452
-5881.174749
-4398.661396
-4590.04311
-4402.007809
-5269.081608
-5115.702602
-4866.93256
1219.645231
1201.385688
1186.325573
1223.763325
1206.70278
1222.211105
1138.91954
1120.972542
1147.031397
1008.701997
991.6552666
976.9381771
841.2774638
590.9537348
330.6755628
-5881.692668
-6363.647603
-6421.619496
-5616.198571
-4680.237141
-4365.999913
-4899.702368
-4753.911973
-5634.117145
-5184.589353
-5456.851423
-5321.648996
-5547.562622
1262.757415
1249.360239
1229.838105
1252.426746
1259.513979
1254.416367
-4343.407635
-4176.545393
-4038.366522
-3805.318595
-3565.201423
-3802.43535
-4590.142605
-4194.918975
-4411.804961
-3882.031264
-4118.411262
-4540.280353
1187.155995
1161.131707
1144.701254
1181.43499
1166.396848
1189.654878
1203.002459
1217.085082
1218.309097
1187.520775
1201.918967
1183.088497
1234.445769
1239.72194
1249.536173
1218.268566
1220.299206
1213.889072
-2434.401711
-2575.170274
-2284.766515
-1456.390267
-1453.460827
1116.777042
1071.063628
1161.642573
1170.021087
1184.999812
1157.751677
1138.206162
-1773.287574
812.500085
902.1919719
862.8566079
971.6098535
952.7091733
974.7723625
99.57053004
345.1712039
108.871567
984.3817969
405.9913825
656.0259056
474.2746157
590.5567112
1047.983155
1015.627804
-5797.162394
-4487.538197
-5443.453396
-3512.04405
-3569.901253
-1988.66309
-2122.651908
-2140.807981
1561.789712
1545.53513
3152.246602
3562.024827
3994.080555
3358.222708
3041.829015
-2669.671925
-2511.070657
-2463.070678
-2519.550438
-2688.984532
-1223.59483
-1053.019381
-1059.962948
-1057.731944
-1227.598552
-842.9644909
-1009.729142
-614.1591966
-632.9780062
-793.9051081
-423.4445127
-580.2166964
-517.1535078
-6727.465244
-5899.083567
-5429.404359
-6281.029869
-6017.22205
-5242.114881
-4542.99894
-5428.363346
-6158.082056
-6085.242195
-5754.9478
-5867.565568
-6284.691233
-6188.207257
-4821.067762
-4649.242547
-4451.870804
-4704.635535
-4888.800918
-4458.896387
-4649.540769
-4940.065245
-4816.322179
-5064.086192
-4876.363858
-3139.890667
-3196.005904
-3164.462229
-3079.663965
-3211.350299
-3545.694499
-3440.474361
-3580.90643
-3255.544065
-3394.014697
-3493.843759
-1832.305754
-1804.662169
-1941.166939
1009.639879
996.5716504
1009.695609
1039.551933
1026.35076
1014.405468
1752.11371
1719.850909
1738.491409
1787.417468
1697.46056
1946.222999
1822.387677
1773.085676
1555.04016
1590.926927
1546.137955
1672.07861
1608.661645
1572.125888
2166.207397
2159.560949
1993.994496
2242.288313
2152.905441
-6369.163546
-6356.225797
-5866.678237
-6502.313203
-6544.731724
-6480.162457
-6448.849786
-6356.030005
-6567.880878
-6461.610122
-5669.096186
-6256.567286
-6365.503667
1418.356969
1420.374825
1413.282637
1434.400938
1423.881052
1423.570937
1405.122547
1398.766245
1412.409486
1406.874725
1471.87334
1495.582269
1474.452118
1534.336621
1504.052409
1477.77784
1443.521852
1449.809501
1437.76557
1468.610754
1454.264844
1448.065606
-5619.552183
-5499.991253
-5225.394519
-5502.803925
-5790.354853
-5650.801039
1287.027324
1276.651593
1304.727981
1289.685978
1260.823011
1254.869598
1272.343454
1262.580048
1374.381807
1356.62365
1395.531484
1380.17798
1326.165975
1308.814643
1350.617514
1332.478642
-3813.797943
-3962.691281
-3628.3063
-3768.05453
-3866.419076
-4225.697928
-4395.882123
-4012.214726
-4173.510326
1203.814555
1214.663788
1200.891124
1220.284737
1206.401548
1221.374133
1223.240698
1204.301395
1184.645972
1201.41814
1201.240363
1231.368328
1236.626558
1231.520512
1239.822021
1234.328729
1251.889456
1242.070099
1221.273183
1220.503205
1228.901379
1222.348464
1215.691726
1221.598167
1228.329774
-2700.261495
-2773.908192
-2839.922063
-2687.908774
-2887.317354
-2816.372523
-1239.5137
-1407.843972
-1440.810512
-1238.787733
1113.180742
1077.159477
1160.868923
1166.475265
1158.590457
1141.307258
1161.433826
1160.542783
-1850.593735
964.8712127
945.3088146
926.6368543
606.6275424
506.9045646
976.7501226
217.1991897
379.1976257
270.5028097
1042.117015
-509.9640904
-70.14424524
159.1797425
-116.8636986
1009.035904
-2215.489083
-1748.865503
-1152.814298
-2301.616813
-2353.967533
-1121.729949
-1173.027689
-1594.652263
-2365.631349
-1012.809894
-1006.388052
-846.576492
-2095.77743
-1603.804148
-1554.568334
2597.463578
3384.95357
4194.090117
-3449.781167
-599.7410294
1802.312407
-1428.776613
-1018.659298
-2726.449949
-5082.516155
-5741.273863
-6017.475903
1331.22814
1312.894584
1287.277871
1347.947739
1321.673096
1341.017519
-1622.894054
-1758.741551
-1775.633446
-2199.481734
-1944.957543
-1886.678163
1043.375278
1031.115835
1044.606577
-6093.714375
-6225.906706
-5632.4224
1279.133074
1256.392828
1269.740272
1286.019818
1289.462445
1303.631986
1308.091116
1324.343403
1317.881818
1070.134108
1058.533602
1047.812693
-1614.215915
-1569.315227
-1556.991063
1074.1818
1079.680742
1072.506871
-1706.187016
-1718.97982
-1629.224685
-1450.253208
-1437.389781
-1576.108145
995.896126
1060.752855
1067.472975
1070.286656
1002.656295
-6340.949218
-3419.489988
-2010.161822
-2073.427908
-2081.397207
-2294.786191
-2156.099416
-2117.597576
1587.468189
-4226.475938
-3699.00453
-4405.923676
-2420.522675
-2477.874839
-2336.792457
-847.2600487
-863.9686461
-689.8946505
-694.3918462
-790.0503243
-1653.044609
-1060.575117
-3221.699337
-6571.591561
-6250.293922
-6093.867226
-6712.768186
-6675.760313
-3048.48812
-3079.215906
-3032.461272
-3336.719481
-3326.651676
-3298.495025
-2902.755512
-3033.612176
-3113.420402
-3657.222313
-3607.459089
-3654.962786
-1946.701986
-1923.523031
-1957.106464
1828.788018
1877.13584
1666.155604
1679.903671
1697.797749
1670.618505
1517.764148
1534.628403
1523.434138
1645.462071
1622.918036
1605.37233
2419.078796
2226.353091
2248.407601
2438.232466
2425.044603
2568.641794
1930.388886
1985.078801
2005.089367
1412.273552
1412.357867
1417.353029
1433.459421
1430.938667
1431.870503
1412.324356
1411.902156
1417.957697
1415.25521
1462.129004
1468.038467
1462.261392
1514.015803
1504.649424
1495.996781
1434.52205
1437.124784
1435.104511
1457.640134
1454.765989
1450.943238
1275.296232
1285.96685
1281.794634
1257.550453
1261.858191
1271.470768
1353.409736
1370.243215
1358.304282
1369.015127
1362.474133
1410.215625
1404.843233
1314.274563
1355.988439
1349.559131
1323.248831
1330.242978
1347.662368
-3978.222651
-4035.828137
-3701.083562
-3754.120649
-3780.461957
-4091.026387
-4115.74162
-3986.758083
-4124.546668
-3970.110494
1074.917217
1062.871267
1074.053767
1107.279813
1091.532327
1079.629472
1101.357664
1108.478989
1103.190391
1086.576378
1090.242765
1095.206632
-1961.586179
924.2055802
928.5309103
922.8363756
678.7413911
934.3737207
313.3982002
448.5341706
576.267025
1042.655031
1042.260341
1038.134505
-418.8675005
-264.7367005
-239.8713205
-254.1586668
1028.639864
1035.440488
1040.507953
-149.4224209
-223.4229495
-370.770813
-2204.628256
-2245.722662
-2338.690945
-2292.674519
-2270.72989
4263.25507
4703.968643
4030.618862
-2399.244395
-2425.179707
-2353.53964
-2523.480336
-2472.405103
-2458.659723
-1886.398459
-1049.05054
-3369.510101
-5990.529136
-5989.7524
-5937.10387
-5969.157
-6365.347949
-6217.89387
-6236.856341
-6176.561735
-6198.436374
-6342.602545
-5222.382167
-5142.592604
-5190.98404
-5037.597727
-5092.712283
-5172.752497
-6413.746964
-6240.300409
-6214.105752
-6253.032637
-6256.289698
-6436.224307
-5409.801624
-5328.087484
-5372.843576
-5239.205037
-5284.019578
-5367.593165
-5883.415178
-5909.902772
-5795.55853
-5841.788676
1218.062526
1213.216024
1211.788367
1190.514295
1186.981504
1183.59771
1194.144238
1191.12399
1195.790051
-1573.724157
-1623.614257
-1449.905773
-1523.683496
1129.27144
1128.872941
1134.839459
1130.595072
1073.311489
1072.125954
1079.661423
1069.133934
1174.969304
1172.290632
1168.114751
1180.527861
1176.751414
1180.659032
1142.822297
1141.314903
1150.442698
1135.628708
1142.316108
-1781.614853
-1771.72088
-1759.374533
-1631.134797
917.6798239
966.966278
1109.870821
982.2705376
973.5176975
965.8979453
991.4860647
346.1284199
327.6003782
1085.763663
957.6151589
712.963892
1049.36005
1060.264982
1055.144054
1009.00303
-6044.512799
-6350.035775
-6108.149058
-5288.247683
-5039.232298
-4242.002074
-5819.497028
-5489.328837
-3461.188377
-3601.319939
-2134.38289
-2121.528304
-2133.533253
1573.416649
1524.033055
3757.919889
3591.281279
3442.53308
2849.354925
2705.321642
3254.127328
3028.33248
3134.032693
-2589.081171
-2531.926608
-2636.149686
-1075.623234
-1072.577385
-1059.86711
-1171.609214
-881.9799437
-865.1957487
-849.1190182
-1001.378657
-946.1400306
-942.5725369
-618.2285943
-673.1166791
-672.8164343
-495.2645256
-499.0600253
-547.3213416
-6509.120062
-6385.833017
-6649.49994
-6197.845944
-6460.124081
-6532.092222
-6655.000109
-6618.300202
-6124.569964
-6022.613047
-6045.621849
-5997.273084
-6005.703919
-6097.632743
-6246.909808
-6122.766218
-6150.764439
-6070.824256
-6096.375772
-6217.485528
-4767.014486
-4693.306309
-4747.083232
-4764.377918
-4830.610781
-4515.256917
-4541.640311
-4502.107357
-4593.055246
-4997.105817
-5040.511784
-5001.725835
-4917.77663
-4978.837992
-4802.121025
-4859.751899
-4938.078583
-3176.563385
-3101.333869
-3086.912295
-3114.86343
-3047.729372
-3098.907127
-3252.965453
-3280.98094
-3225.655308
-3507.971734
-3553.157389
-3583.194626
1788.193836
1691.348316
1567.540925
1549.084158
1532.294873
1587.810543
1603.250195
1585.297904
2217.262065
2308.257037
2338.756732
2576.406172
2453.620787
2073.381613
2051.135949
2131.059343
-6368.676008
-6178.974801
-6171.988108
-6192.783081
-6183.550289
-6361.766743
-6528.104449
-6536.411707
-6436.485056
-6663.36029
-6634.930745
-6620.239555
-6656.368291
-6411.64445
-6560.864565
-6642.26015
-6664.868177
-6502.49257
1419.452081
1416.959268
1415.581792
1428.331487
1427.517601
1423.565443
1412.303544
1412.214961
1413.244385
1412.55052
1479.601637
1473.746243
1467.416375
1486.254599
1495.14205
1486.578661
1445.122486
1440.648866
1437.971149
1450.361924
1452.354448
1449.224247
-5583.833721
-5495.339543
-5531.143648
-5413.952512
-5454.945758
-5540.320436
-5738.091155
-5658.956832
-5736.1934
-5564.965914
-5604.099417
-5689.540091
1284.184309
1285.619923
1287.497754
1277.947152
1282.454744
1280.710329
1298.824013
1296.972101
1305.123503
1288.570531
1291.035185
1293.373505
1259.196507
1261.052369
1261.806738
1257.624615
1259.741409
1257.267726
1268.373333
1268.230747
1272.811495
1262.637824
1264.691031
1265.037646
1382.22898
1375.69257
1368.559949
1372.365728
1378.486529
1359.797239
1366.0886
1362.623117
1396.508571
1388.77479
1330.781133
1325.21662
1319.987597
1322.646867
1328.470874
1310.082941
1309.800664
1312.506919
1344.601978
1347.310567
1353.542193
1334.95103
1341.12383
1338.56847
1343.322174
1337.148938
-3898.382998
-3932.085889
-3838.469805
-3806.961
-3843.190601
-4276.443965
-4309.272159
-4263.456231
-4435.603736
-4366.423727
-4332.50559
-4059.363568
-4095.738215
-4057.572377
-4215.406935
-4165.925433
-4117.054449
1206.833611
1203.328747
1200.328407
1209.583356
1206.592831
1210.808218
1214.718652
1209.583727
1222.469532
1223.261217
1203.682586
1195.585026
1191.179979
1191.422391
1193.256593
1197.429187
1195.215818
1200.197551
1229.593259
1233.193061
1242.525898
1235.55939
1248.533449
1250.578366
1254.35712
1244.595493
1247.390235
1245.347315
1220.436897
1220.138688
1225.137019
1223.444497
-2790.666169
-2771.685351
-2825.961155
-2674.999513
-2721.926273
-2755.449164
-2952.863138
-2994.056747
-2869.335868
-2884.937875
-2895.974808
-1378.79293
-1378.656196
-1433.169464
-1250.058898
-1310.307977
-1320.235547
1113.440667
1104.352036
1127.22158
1122.155388
1082.113372
1085.356353
1081.499069
1088.104671
1084.990778
1097.469529
1092.585088
1162.104338
1160.049025
1158.381561
1164.774415
1162.156726
1163.956839
1161.875552
1155.533109
1153.393936
1157.202289
1156.405677
1161.159184
-1906.649276
956.3261809
946.0328709
954.0796409
560.4829363
581.6075122
649.1709879
516.4681772
525.5697889
505.2281781
968.3242193
314.9705079
261.2098071
192.363961
1039.310767
1040.944477
1042.022827
-486.3470936
22.95451712
-38.08260152
140.1229199
125.1145516
139.2877681
-59.08320974
-192.4224387
-174.2092167
-72.18228923
1020.237068
1031.306295
1024.284024
665.0138058
642.753059
626.0959333
633.0897308
596.8921733
574.6158467
581.5631428
524.7591873
498.2982716
500.8121906
414.1659783
391.1307742
379.4738057
262.5852705
251.3246912
219.6609624
88.93255954
86.0925841
42.13378342
-96.63559627
-88.90826196
-142.6461294
-273.8175576
-255.326825
-314.9688516
-424.0857076
-399.2544499
-456.4126402
-539.1268666
-514.5797478
692.6161782
678.9992012
650.4711821
672.7024574
645.2711973
607.3550481
632.2317271
577.5868651
536.3219022
553.0853519
457.3739816
423.1434512
417.1032566
276.1550662
265.7826549
223.5445633
59.50270773
84.17881725
4.270511215
-152.8621801
-104.9465336
-201.6535388
-335.66133
-283.7670889
-376.3695978
-486.9977921
-436.5984307
-519.4140731
-600.3482879
-551.3886406
729.023578
727.7208384
690.1906395
726.0237466
713.1684945
660.0668074
704.9871684
662.0600067
594.6090147
639.3603234
534.5812154
473.5152732
486.1365428
298.1532313
279.5274104
221.641779
-14.21092442
45.73628452
-88.9910199
-284.6297507
-177.6106364
-339.0398414
-473.8793433
-362.1921233
-511.8470203
-607.417719
-509.9895322
-633.3459026
-696.2452556
-621.124194
769.0236365
785.8965742
741.6159762
791.8635742
809.0287843
734.3415024
813.0321575
808.7839163
691.7080075
798.9584811
713.7955282
565.984108
657.6584995
373.108931
310.1802428
245.6474424
-158.1340468
-41.56990749
-275.8280645
-535.456166
-333.3246694
-595.0494769
-717.4442194
-524.2567984
-742.9958369
-795.8752486
-648.4723377
-807.934586
-832.8944184
-726.3301357
806.9289377
846.2438586
801.2191556
862.793551
923.9947638
836.7613905
948.5176903
1031.482648
859.4312725
1060.17273
1117.116028
788.3075954
1106.520565
687.3018697
420.5994883
527.9389448
-513.8300521
-215.3356791
-709.852163
-994.7062637
-625.2205306
-1027.990465
-1059.863631
-793.3627048
-1057.856953
-1043.328381
-852.879092
-1035.014544
-1004.137171
-873.2707831
835.1148778
894.1840957
859.7659024
919.9477005
1020.509547
951.9067395
1063.541179
1232.309017
1090.555235
1306.179514
1701.407438
1260.834125
1526.042703
1640.659272
1198.856983
792.3380401
-454.6797099
-86.16325774
-1281.352977
-1302.926593
-1048.439279
-1667.300376
-1476.818369
-1159.133463
-1427.710662
-1306.727582
-1110.983957
-1272.053456
-1176.560912
-1048.482715
845.659986
914.7056726
902.1457804
944.4649034
1057.356942
1036.15173
1103.547488
1267.475352
1258.344033