/*--------------------------------*- C++ -*----------------------------------*\
| =========                 |                                                 |
| \\      /  F ield         | OpenFOAM: The Open Source CFD Toolbox           |
|  \\    /   O peration     | Version:  v1912                                 |
|   \\  /    A nd           | Website:  www.openfoam.com                      |
|    \\/     M anipulation  |                                                 |
\*---------------------------------------------------------------------------*/
FoamFile
{
    version     2.0;
    format      ascii;
    class       surfaceScalarField;
    location    "2.22";
    object      meshPhi;
}
// * * * * * * * * * * * * * * * * * * * * * * * * * * * * * * * * * * * * * //

dimensions      [0 3 -1 0 0 0 0];
oriented        oriented;


internalField   nonuniform List<scalar> 
25162
(
0
0
0
0
0
0
0
0
0
0
0
0
0
0
0
0
0
0
0
0
0
0
0
0
0
0
0
0
0
0
0
0
0
0
0
0
0
0
0
0
0
0
0
0
0
0
0
0
0
0
0
0
0
0
0
0
0
0
0
0
0
0
0
0
0
0
0
0
0
0
0
0
0
0
0
0
0
0
0
0
0
0
0
0
0
0
0
0
0
0
0
0
0
0
0
0
0
0
0
0
0
0
0
0
-3.318120263e-09
-1.189316546e-07
1.331807658e-06
0
4.820042535e-09
-1.132183198e-06
0
0
0
0
0
0
0
0
0
0
0
0
0
0
0
0
0
0
0
0
0
0
0
0
0
0
0
0
0
0
0
0
0
0
0
0
0
0
0
0
0
0
0
0
0
0
0
0
0
0
0
0
0
0
0
0
0
0
0
0
0
0
0
0
0
0
1.525642172e-08
1.98155635e-06
-1.406242676e-06
-1.255833496e-05
5.486507132e-06
0.0001114536198
-1.275153195e-05
-0.0001576453519
6.924111621e-06
0.0002916530998
-1.171845233e-05
-0.0003262030952
-1.274484486e-06
0.0003755089998
2.765259236e-06
-0.0003709487715
-7.004198081e-06
0.0002967445934
1.284138543e-05
-0.0002556702792
-3.27565926e-06
0.0001144399062
8.816535194e-06
-7.149536138e-05
0
2.135998801e-06
2.103162759e-07
0
0
0
0
0
0
0
0
0
0
0
0
0
0
0
0
0
0
0
0
0
0
0
0
0
0
0
0
0
0
0
0
0
0
0
0
0
0
0
0
0
0
0
0
0
0
0
0
0
0
0
7.434396964e-07
4.285284406e-06
-3.84830526e-06
-3.068751654e-05
2.779737875e-05
0.0002691174844
-4.359737847e-05
-0.0003849806691
4.922678843e-05
0.0007692013095
-6.446357512e-05
-0.0008936583402
2.812093161e-05
0.001203216204
-3.281890231e-05
-0.001276068415
-1.36905013e-05
0.00138024443
1.98525959e-05
-0.001374143957
-4.075656861e-05
0.001232553457
5.324135592e-05
-0.001146798307
-3.824221381e-05
0.0008012496866
5.133776171e-05
-0.0006679411469
-1.512427076e-05
0.0002808121585
2.460275363e-05
-0.0001750134017
0
4.367073608e-06
6.282412323e-07
0
0
0
0
0
0
0
0
0
0
0
0
0
0
0
0
0
0
0
0
0
0
0
0
0
0
0
0
0
0
0
0
0
0
0
0
0
0
0
0
0
0
0
0
0
-2.477487862e-07
-1.639161758e-06
3.26463547e-05
0.000200469807
-4.927622186e-05
-0.0003435629754
0.0001043846269
0.0009108863308
-0.0001266117987
-0.00112220268
0.0001099328465
0.001728124196
-0.0001230014026
-0.001902751411
4.10983497e-05
0.002298404704
-4.177670086e-05
-0.002383498024
-4.344786758e-05
0.002500900704
5.14891663e-05
-0.002495773643
-9.672212897e-05
0.002343716603
0.0001117445162
-0.002244375788
-9.661404863e-05
0.001796946985
0.0001128663559
-0.001603964035
-7.756796251e-05
0.000988211648
9.556527206e-05
-0.000781347958
-1.538939132e-05
0.0002365036176
2.32825444e-05
-0.0001178529317
0
0
0
0
0
0
0
0
0
0
0
0
0
0
0
0
0
0
0
0
0
0
0
0
0
0
0
0
0
0
0
0
0
0
0
0
0
0
0
0
0
0
7.739128172e-06
2.356424248e-05
-1.278206258e-05
-0.0001017988597
0.0001035588579
0.0006175497795
-0.0001221690059
-0.0008579887546
0.0002108627171
0.001686515017
-0.0002163389506
-0.001966458196
0.0001563384322
0.0026247293
-0.0001837793398
-0.002764940455
4.091378713e-05
0.003047342602
-4.470605875e-05
-0.003084281797
-6.830884863e-05
0.003119011568
6.98457514e-05
-0.003117782494
-0.0001594898593
0.003073217333
0.0001706346962
-0.003018766585
-0.0002297053626
0.002729869545
0.0002390464681
-0.002530422926
-0.000112554598
0.001761652423
0.0001246827188
-0.001485636699
-4.92827189e-05
0.0006796366468
5.801323481e-05
-0.000453905553
3.121527388e-05
-1.716423359e-06
2.970167838e-06
-4.769226046e-07
0
0
0
0
0
0
0
0
0
0
0
0
0
0
0
0
0
0
0
0
0
0
0
0
0
0
0
0
0
0
0
0
0
0
0
-2.184602541e-07
-1.756670314e-08
-6.678673945e-07
2.98373699e-05
0.0001190495265
-3.628882093e-05
-0.0002680793455
0.0001742214467
0.0009897920833
-0.0001821224621
-0.001306529773
0.0002404851704
0.002238365994
-0.0002496141791
-0.002512263344
0.0001888108462
0.00311949144
-0.0001619234315
-0.003243219374
9.142141577e-05
0.003353393637
-0.0001185894616
-4.826844678e-05
-0.001615991514
-0.00166196563
0.001606586088
-3.081609065e-05
3.085229538e-05
-0.001606622293
0.001652931711
-0.0002526758363
-0.003324691216
0.001684716797
0.0001063078289
0.0001334107148
0.003139044779
-0.0002165145996
0.0002297856074
-0.00301322044
-0.0001650966023
0.002357107413
0.0001757641422
-0.00206292868
-7.960226244e-05
0.001101864807
8.516272307e-05
-0.0008105141036
0.0001628874256
-1.228407801e-05
1.566320923e-05
-5.177970781e-05
0
0
0
0
0
0
0
0
0
0
0
0
0
0
0
0
0
0
0
0
0
0
0
0
0
0
0
0
0
0
0
0
0
9.117882843e-07
0
-1.936028921e-06
-6.153598998e-06
-9.414451549e-06
4.975023355e-05
0.0002005662406
-5.138719417e-05
-0.0003924044603
0.0002087273246
0.001243804551
-0.0002118798071
-0.00158009738
0.0002599499802
0.002555052294
-0.0002588096798
-0.002826264404
0.0001413606707
0.003326897498
-0.0001358833503
-0.00336445459
2.589378224e-05
0.001702831622
-2.863963809e-05
-0.001700085766
0.001686450614
-9.064022492e-05
8.811633983e-05
-0.001683926729
0.003334774974
-0.000249334887
0.0002538943509
-0.003265249572
-0.0001860860083
0.002684708211
0.0001894092955
-0.002394077811
-9.890835294e-05
0.001393712542
0.0001025358316
-0.001065128767
0.000289267814
-2.31933744e-05
2.637716517e-05
-0.0001268620821
0
0
0
0
0
0
0
0
0
0
0
0
0
0
0
0
0
0
0
0
0
0
0
0
0
0
0
0
0
0
0
0
0
2.496678232e-06
0
-3.148132846e-06
-1.693948992e-05
-1.911636044e-05
5.968601595e-05
0.0002526929065
-6.14677061e-05
-0.0004655755931
0.0002230684986
0.00137096873
-0.000225289835
-0.001719538271
0.0002601341542
0.002705480376
-0.000260427767
-0.00296831669
0.0001299750145
0.003408323808
-0.000129388164
-0.003423066204
1.911202988e-05
0.001710107178
-1.910831278e-05
-0.001710110895
0.001720139627
-8.29581292e-05
8.207789853e-05
-0.001719259397
0.00343694294
-0.0002540629402
0.0002536983361
-0.003394505603
-0.0002004339049
0.002871851638
0.0002025213344
-0.002588582236
-0.0001084613235
0.001573191742
0.0001101726833
-0.001226937243
0.0003652664674
-3.025973241e-05
3.15058185e-05
-0.0001776269508
0
0
0
0
0
0
0
0
0
0
0
0
0
0
0
0
0
0
0
0
0
0
0
0
0
0
0
0
0
0
0
0
0
3.791223503e-06
0
-4.675038891e-06
-2.58587242e-05
-2.884017123e-05
6.5894293e-05
0.0002886269189
-6.768614632e-05
-0.0005154569187
0.0002309055533
0.00145777736
-0.0002331001526
-0.001815222239
0.0002613974557
0.002812285716
-0.0002617444694
-0.003073063852
0.0001283395557
0.003490587558
-0.0001281709757
-0.00349881622
1.890100504e-05
0.001745845956
-1.946191951e-05
-0.0008716160128
-0.0008736690286
0.00175637422
-7.960843117e-05
7.900827744e-05
-0.001755774067
0.003508611722
-0.0002502475824
0.0002486098195
-0.003461552007
-0.0001997847563
0.002918228103
0.0001983669214
-0.002627440961
-0.0001085319596
0.001590458941
0.0001078978822
-0.00123913056
0.0003669344694
-3.057472798e-05
3.017831787e-05
-0.0001774902897
0
0
0
0
0
0
0
0
0
0
0
0
0
0
0
0
0
0
0
0
0
0
0
0
0
0
0
0
0
0
0
0
0
5.634858575e-06
0
-6.738659493e-06
-3.886462225e-05
-4.266383156e-05
7.328758762e-05
0.0003329925248
-7.525857927e-05
-0.0005757556104
0.0002397072742
0.001559221416
-0.0002419748468
-0.001926239519
0.0002626888378
0.002934136242
-0.0002629770516
-0.003191904479
0.0001272562039
0.003582385153
-0.000127033035
-0.003585672512
1.915465833e-05
0.001789881998
-1.930924609e-05
-0.0008941181823
-0.0008956092282
0.00179645337
-7.73390176e-05
7.677896319e-05
-0.001795893315
0.003578381875
-0.0002394494706
0.0002357090282
-0.003495952623
-0.0001869576752
0.002851520866
0.0001858823103
-0.002551073802
-9.952028063e-05
0.0014837884
9.720363528e-05
-0.001133599401
0.000296396531
-2.442380785e-05
2.31088322e-05
-0.0001273186537
0
0
0
0
0
0
0
0
0
0
0
0
0
0
0
0
0
0
0
0
0
0
0
0
0
0
0
0
0
0
0
0
0
8.086108472e-06
0
-8.589970156e-06
-5.657899836e-05
-5.855263099e-05
8.169045125e-05
0.0003849864015
-8.420240861e-05
-0.0006446081513
0.0002490907507
0.001669416938
-0.0002517881233
-0.00204523719
0.0002637680052
0.0030595262
-0.000264009924
-0.003312404845
0.000126475276
0.003669542272
-0.0001266510947
-0.003669652114
1.963988001e-05
0.001832109488
-1.96254212e-05
-0.0009150590866
-0.0009170648607
0.001832814768
-7.489872237e-05
7.480896795e-05
-0.001832725013
0.003599068755
-0.0002238110655
0.0002186262962
-0.003462151086
-0.0001702455674
0.002704991445
0.0001603007364
-0.00237135073
-8.573462626e-05
0.00127988482
7.964078527e-05
-0.0009410104534
0.0001959997606
-1.594015492e-05
1.37436418e-05
-6.387421689e-05
0
0
0
0
0
0
0
0
0
0
0
0
0
0
0
0
0
0
0
0
0
0
0
0
0
0
0
0
0
0
0
0
0
1.215587843e-05
0
-1.658579171e-05
-8.792377517e-05
-0.0001004375234
9.159103377e-05
0.0004578307772
-9.81584855e-05
-0.0007338751203
0.0002607387174
0.00180486899
-0.0002634810505
-0.002187233796
0.0002644908519
0.003196794073
-0.0002672333537
-0.003443670104
0.0001263732436
0.003754257681
-0.0001275245038
-0.001873983896
-0.001879122525
1.058875086e-05
0.0009353751922
-1.084780094e-05
-0.0009351161421
-5.127262332e-06
0.0004663541302
4.363891794e-06
-0.0009324086359
0.0004668178763
0.001866793904
-7.432950341e-05
0.0001557507826
-0.003739887812
0.001871502236
-7.982960718e-05
-0.0002061857169
0.003545300694
0.0001948305693
-0.003341074385
-0.0001406063872
0.002464349756
0.0001350488094
-0.002104975716
-6.630512091e-05
0.001020374498
6.283882603e-05
-0.0007060114034
8.01878259e-05
-5.823701759e-06
4.610996764e-06
-7.906124191e-06
0
0
0
0
0
0
0
0
0
0
0
0
0
0
0
0
0
0
0
0
0
0
0
0
0
0
0
0
0
0
0
0
0
1.80135821e-05
0
-1.477216292e-05
-0.0001186620621
-0.000108819687
0.0001080571161
0.0005342752459
-0.0001046615461
-0.0008348265704
0.0002732538567
0.001950996366
-0.0002690314313
-0.00234196542
0.0002614395948
0.003345332053
-0.0002610026688
-0.003576647068
0.0001231898699
0.003840057747
-0.00012318987
-0.001917823337
-0.00192223441
9.006990536e-06
0.001917823337
-1.651132745e-05
7.504336926e-06
-0.0009578030928
-0.0009600202445
-3.157599682e-05
0.0009578031167
3.1575961e-05
-0.001917823337
0.0009600202565
0.003840057747
-0.0001649557859
0.0001634871851
-0.003829935111
-0.000175543643
0.003388963781
0.0001712830745
-0.003133416357
-0.0001188018291
0.002115633803
0.0001101453945
-0.001750335201
-4.791133112e-05
0.0007115954417
4.4031416e-05
-0.00045399383
1.099461502e-05
-9.303843046e-07
4.247490565e-07
0
0
0
0
0
0
0
0
0
0
0
0
0
0
0
0
0
0
0
0
0
0
0
0
0
0
0
0
0
0
0
0
0
0
9.138609002e-06
0
-3.325414948e-06
-5.475176186e-05
-3.433002529e-05
8.096384251e-05
0.0003837008133
-6.97557159e-05
-0.0006457690776
0.0002369664834
0.001684710746
-0.000220119153
-0.002066996263
0.0002532626472
0.003111218048
-0.0002466936605
-0.003382543683
0.0001301202226
0.003863629073
-0.0001352396136
-0.003913326428
1.651132745e-05
0.003925830937
-2.701236753e-05
-0.003925830937
1.050104007e-05
-6.916271619e-05
0.003925830937
6.916271624e-05
-0.003925830937
-0.0001525894852
0.003855701253
0.0001459759434
-0.003748427653
-0.0001459547204
0.003095262107
0.0001369649263
-0.002781785995
-8.621724856e-05
0.001693629781
8.028220003e-05
-0.001326156391
-2.81552979e-05
0.0004058419911
2.272594201e-05
-0.0002123438717
0
0
0
0
0
0
0
0
0
0
0
0
0
0
0
0
0
0
0
0
0
0
0
0
0
0
0
0
0
0
0
0
0
0
0
0
0
8.076911776e-08
0
0
-3.03249072e-07
0
3.361291466e-05
0.0001308745605
-2.280197978e-05
-0.0002938043653
0.0001553904537
0.001081144572
-0.0001310246472
-0.001405989552
0.0002090727254
0.002393685834
-0.0001904167285
-0.00268973828
0.0001383062722
0.003373177938
-0.0001340785735
-0.003524122461
3.068897679e-05
0.003772807641
-3.24565333e-05
-0.003801685601
-6.328846522e-05
0.003762543538
5.763147715e-05
-0.00370372285
-0.0001171096416
0.003339735149
0.000105043935
-0.003146400696
-0.0001041859066
0.002362416134
9.213075811e-05
-0.002050543577
-5.794896929e-05
0.001086306297
4.944862834e-05
-0.0007918593292
-9.977938871e-06
0.0001448045321
6.081171844e-06
-3.964759071e-05
0
0
0
0
0
0
0
0
0
0
0
0
0
0
0
0
0
0
0
0
0
0
0
0
0
0
0
0
0
0
0
0
0
0
0
0
0
0
0
0
0
0
2.268333204e-06
2.987859484e-07
-3.671625737e-07
-2.245362811e-05
6.087075991e-05
0.0003861350789
-4.138957004e-05
-0.000587456817
0.0001222295637
0.001306119864
-9.816786696e-05
-0.001552559244
0.0001056137241
0.002202000225
-9.196916248e-05
-0.002370540921
3.467378814e-05
0.002693664222
-3.352704474e-05
-0.002737830638
-3.455406921e-05
0.002679609179
2.667505004e-05
-0.002597440824
-6.638045845e-05
0.002173075485
5.403666164e-05
-0.001978929199
-5.585074023e-05
0.001294511981
4.444478423e-05
-0.001053009716
-2.349414374e-05
0.0003984494001
1.567801209e-05
-0.0002324373932
-9.236646189e-08
9.917833783e-07
0
0
0
0
0
0
0
0
0
0
0
0
0
0
0
0
0
0
0
0
0
0
0
0
0
0
0
0
0
0
0
0
0
0
0
0
0
0
0
0
0
0
0
0
0
0
0
0
4.526464641e-06
1.006874529e-05
-6.903175585e-07
-4.664494415e-05
3.53177173e-05
0.0003226527273
-2.030504919e-05
-0.0004485746169
4.69246804e-05
0.0008364587793
-3.303194363e-05
-0.0009501289205
2.335017554e-05
0.001185752018
-1.835921872e-05
-0.001220814799
-8.671373923e-06
0.001182469796
5.130951735e-06
-0.001123524616
-2.316178164e-05
0.0008346936872
1.552519497e-05
-0.0007120874946
-1.547033041e-05
0.0003304463938
8.48470461e-06
-0.0002178815543
-8.4272716e-07
1.248943763e-05
2.391514175e-09
-1.344275834e-07
0
0
0
0
0
0
0
0
0
0
0
0
0
0
0
0
0
0
0
0
0
0
0
0
0
0
0
0
0
0
0
0
0
0
0
0
0
0
0
0
0
0
0
0
0
0
0
0
0
0
0
0
0
0
1.055895054e-07
0
0
-1.670858508e-06
4.36781604e-06
4.563532208e-05
-6.833979197e-07
-7.066480139e-05
4.30875048e-06
0.0001376280971
-1.460054543e-06
-0.0001494639735
-4.7946076e-07
0.0001389866594
1.165956207e-07
-0.000121252103
-1.605405744e-06
4.819955255e-05
1.35328745e-07
-2.656037186e-05
0
0
0
0
0
0
0
0
0
0
0
0
0
0
0
0
0
0
0
0
0
0
0
0
0
0
0
0
0
0
0
0
0
0
0
0
0
0
0
0
0
0
0
0
0
0
0
0
0
0
0
0
0
0
0
0
0
0
0
0
0
0
0
0
0
0
0
0
0
0
0
0
0
0
0
0
0
0
0
0
0
0
0
0
0
0
0
0
0
0
0
0
0
0
0
0
0
0
0
0
0
0
0
0
0
0
0
0
0
0
0
0
0
0
0
0
0
0
0
0
0
0
0
0
0
0
0
0
0
0
0
0
0
0
0
0
0
0
0
0
0
0
0
0
0
0
0
0
0
0
0
0
0
0
0
0
0
0
0
0
0
0
0
0
0
0
0
0
0
0
0
0
0
0
0
0
0
0
0
0
0
0
0
0
0
0
0
0
0
0
0
0
0
0
0
0
0
0
0
0
0
0
0
0
0
0
0
0
0
0
0
0
0
0
0
0
0
0
0
0
0
0
0
0
0
0
0
0
0
0
0
0
0
0
0
0
0
0
0
0
0
0
0
0
0
0
0
0
0
0
0
0
0
0
0
0
0
0
0
0
0
0
0
0
0
0
0
0
0
0
0
0
0
0
0
0
0
0
0
0
0
0
0
0
0
0
0
0
0
0
0
0
0
0
0
0
0
0
0
0
0
0
0
0
0
0
0
0
0
0
0
0
0
0
0
0
0
0
0
0
0
0
0
0
0
0
0
0
0
0
0
0
0
0
0
0
0
0
0
0
0
0
0
0
0
0
0
0
0
0
0
0
0
0
0
0
0
0
0
0
0
0
0
0
0
0
0
0
0
0
0
0
0
0
0
0
0
0
0
0
0
0
0
0
0
0
0
0
0
0
0
0
0
0
0
0
0
0
0
0
0
0
0
0
0
0
0
0
0
0
0
0
0
0
0
0
0
0
0
0
0
0
0
0
0
0
0
0
0
0
0
0
0
0
0
0
0
0
0
0
0
0
0
0
0
0
0
0
0
0
0
0
0
0
0
0
0
0
0
0
0
0
0
0
0
0
0
0
0
0
0
0
0
0
0
0
0
0
0
0
0
0
0
0
0
0
0
0
0
0
0
0
0
0
0
0
0
0
0
0
0
0
0
0
0
0
0
0
0
0
0
0
0
0
0
0
0
0
0
0
0
0
0
0
0
0
0
0
0
0
0
0
0
0
0
0
0
0
0
0
0
0
0
0
0
0
0
0
0
0
0
0
0
0
0
0
0
0
0
0
0
0
0
0
0
0
0
0
0
0
0
0
0
0
0
0
0
0
0
0
0
0
0
0
0
0
0
0
0
0
0
0
0
0
0
0
0
0
0
0
0
0
0
0
0
0
0
0
0
0
0
0
0
0
0
0
0
0
0
0
0
0
0
0
0
0
0
0
0
0
0
0
0
0
0
0
0
0
0
0
0
0
0
0
0
0
0
0
0
0
0
0
0
0
0
0
0
0
0
0
0
0
0
0
0
0
0
0
0
0
0
0
0
0
0
0
0
0
0
0
0
0
0
0
0
0
0
0
0
0
0
0
0
0
0
0
0
0
0
0
0
0
0
0
0
0
0
0
0
0
0
0
0
0
0
0
0
0
0
0
0
0
0
0
0
0
0
0
0
0
0
0
0
0
0
0
0
0
0
0
0
0
0
0
0
0
0
0
0
0
0
0
0
0
0
0
0
0
0
0
0
0
0
0
0
0
0
0
0
0
0
0
0
0
0
0
0
0
0
0
0
0
0
0
0
0
0
0
0
0
0
0
0
0
0
0
0
0
0
0
0
0
0
0
0
0
0
0
0
0
0
0
0
0
0
0
0
0
0
0
0
0
0
0
0
0
0
0
0
0
0
0
0
0
0
0
0
0
0
0
0
0
0
0
0
0
0
0
0
0
0
0
0
0
0
0
0
0
0
0
0
0
0
0
0
0
0
0
0
0
0
0
0
0
0
0
0
0
0
0
0
0
0
0
0
0
0
0
0
0
0
0
0
0
0
0
0
0
0
0
0
0
0
0
0
0
0
0
0
0
0
0
0
0
0
0
0
0
0
0
0
0
0
0
0
0
0
0
0
0
0
0
0
0
0
0
0
0
0
0
0
0
0
0
0
0
0
0
0
0
0
0
0
0
0
0
0
0
0
0
0
0
0
0
0
0
0
0
0
0
0
0
0
0
0
0
0
0
0
0
0
0
0
0
0
0
0
0
0
0
0
0
0
0
0
0
0
0
0
0
0
0
0
0
0
0
0
0
0
0
0
0
0
0
0
0
0
0
0
0
0
0
0
0
0
0
0
0
0
0
0
0
0
0
0
0
0
0
0
0
0
0
0
0
0
0
0
0
0
0
0
0
0
0
0
0
0
0
0
0
0
0
0
0
0
0
0
0
0
0
0
0
0
0
0
0
0
0
0
0
0
0
0
0
0
0
0
0
0
0
0
0
0
0
0
0
0
0
0
0
0
0
0
0
0
0
0
0
0
0
0
0
0
0
0
0
0
0
0
0
0
0
0
0
0
0
0
0
0
0
0
0
0
0
0
0
0
0
0
0
0
0
0
0
0
0
0
0
0
0
0
0
0
0
0
0
0
0
0
0
0
0
0
0
0
0
0
0
0
0
0
0
0
0
0
0
0
0
0
0
0
0
0
0
0
0
0
0
0
0
0
0
0
0
0
0
0
0
0
0
0
0
0
0
0
0
0
0
0
0
0
0
0
0
0
0
0
0
0
0
0
0
0
0
0
0
0
0
0
0
0
0
0
0
0
0
0
0
0
0
0
0
0
0
0
0
0
0
0
0
0
0
0
0
0
0
0
0
0
0
0
0
0
0
0
0
0
0
0
0
0
0
0
0
0
0
0
0
0
0
0
0
0
0
0
0
0
0
0
0
0
0
0
0
0
0
0
0
0
0
0
0
0
0
0
0
0
0
0
0
0
0
0
0
0
0
0
0
0
0
0
0
0
0
0
0
0
0
0
0
0
0
0
0
0
0
0
0
0
0
0
0
0
0
0
0
0
0
0
0
0
0
0
0
0
0
0
0
0
0
0
0
0
0
0
0
0
0
0
0
0
0
0
0
0
0
0
0
0
0
0
0
0
0
0
0
0
0
0
0
0
0
0
0
0
0
0
0
0
0
0
0
0
0
0
0
0
0
0
0
0
0
0
0
0
0
0
0
0
0.001707379612
-0.00170746087
1.919328791e-05
7.923122801e-05
-0.001712075667
-8.017793785e-05
0.0008586548247
0.0008543675517
-9.468719257e-05
0.001693496179
8.76416271e-05
0.001740634036
1.850517626e-05
-0.0008699434102
-0.0008702947969
7.284180169e-05
-0.001753133007
-7.368402442e-05
0.0008775332155
0.0008764420141
7.636073713e-05
0.0008622975818
0.0008607125364
0.001784415689
1.891707746e-05
-0.00089163382
-0.0008925442882
7.132641108e-05
-0.001789541137
-7.012937545e-05
0.0008944979634
0.0008938461381
7.224390985e-05
0.0008780208375
0.0008789512745
0.001826301151
1.931478738e-05
-0.0009124111605
-0.000913564898
6.729706327e-05
-0.001826744826
-6.851198853e-05
0.001827959752
0.001797254642
7.052513854e-05
0.0009349208456
-0.0009349232235
1.059112879e-05
-0.000466847866
2.227459022e-06
-2.338076353e-06
0.0004669584834
0.0004665123139
-0.0009323459479
-6.141494383e-06
6.700305223e-05
-0.001863611731
-6.689886786e-05
0.001863507546
0.001833069827
6.704200416e-05
0.0009573662442
-0.0009573662442
9.006990532e-06
-0.0009573663106
1.353398615e-05
-1.353414285e-05
0.0009573664673
0.0004668311955
1.750393648e-06
-0.001912517801
0.000877791208
3.102059626e-05
1.476368921e-05
0.0001082099142
-0.00377690709
0.001908019638
0.001892130157
-6.364173079e-05
-6.781088758e-05
0.001866633527
6.716342951e-05
0.001697217427
-0.001696491047
2.516740189e-05
-2.431024341e-05
0.001607205241
2.369108982e-05
-0.001689106174
-9.198428112e-05
0.001686403262
-0.0001050974489
0.001640407169
0.0001176219909
1.353549122e-05
-0.0004282790315
-1.378601119e-05
0.0004285295515
-0.0008550226554
-3.899896644e-05
0.0008573581298
3.666349205e-05
-0.001711423677
-8.361011916e-05
0.0002422615209
-0.003409659063
-0.0002468045804
0.003415105675
-0.0002554459782
0.003356642132
0.000246267209
0.003468272238
-0.003477951389
0.0001285572578
-2.490634287e-05
2.483443201e-05
0.001740705947
2.504355236e-05
0.001709944417
-2.488079113e-05
1.489156719e-05
-0.0004339800788
-1.457795104e-05
0.0004336664626
-1.227224951e-05
-0.0004299816051
0.000429527097
1.272675754e-05
-0.0017527027
-8.003873844e-05
0.0002370185451
-0.003494802308
-0.0002383906969
0.003496369747
0.003439043733
0.0002404705887
0.003560358349
-0.003564713332
0.0001275028652
-2.498617029e-05
2.491463377e-05
0.001784487226
0.001745917164
-2.497755102e-05
-1.92755689e-05
0.001763944845
1.920291882e-05
-0.0008811087122
-0.0008827634824
-1.443890786e-07
-0.0004415924786
1.501122091e-07
0.0008827673227
-0.0004411805673
-1.424718733e-08
-0.0004349961243
0.0008712963516
-3.115437604e-07
-0.0004359744363
1.242614808e-05
-0.0004439512076
-1.249967918e-05
0.0004440247387
-1.448801408e-05
-0.000439128172
0.0004384636634
1.515252267e-05
-0.001789724736
-7.715541904e-05
0.0002296014719
-0.003560064735
-0.0002325247723
0.003569973192
0.00351069587
0.0002355642694
0.003647187458
-0.003647933068
0.0001263704237
-2.521167897e-05
2.514209239e-05
0.001826370738
0.001789869035
-2.497320687e-05
-1.876893175e-05
0.001805869758
1.911812126e-05
-0.0009025725245
-0.0009036464225
2.350880756e-07
-0.0004519491833
-3.214872411e-07
0.0004520355825
4.943000134e-07
-0.0004468122348
0.0008941251753
-4.126376455e-07
-0.0004473946029
2.252348959e-05
-0.0009047291338
-2.281694951e-05
0.0009050225938
-2.404397721e-05
-0.0008978058479
2.212055121e-05
0.0004504633787
0.0004492658952
0.003733350032
0.0001267948988
-0.001864239027
-0.00186953266
-2.563120452e-05
-0.0009343751488
2.537004795e-05
0.001869557151
0.001832180242
-2.528243272e-05
-1.052746749e-05
0.0009251805492
-0.0009252705095
1.061742789e-05
2.019983714e-06
-0.0004635124711
-1.578791061e-06
0.0004630712784
-1.117024097e-06
-0.000456640338
0.000456815923
9.414390948e-07
0.0004657839761
5.29872987e-06
-0.0004645090995
-6.573606473e-06
2.08558858e-05
-0.0009246475127
-2.055588535e-05
0.0009243475123
-2.195139197e-05
-0.0009159741514
0.0009159806085
2.194493482e-05
0.003759545808
0.0001197197817
-0.001843557919
-0.001912517801
-2.252305586e-05
-0.0009551515567
2.252305586e-05
0.001912517801
-0.0009385325398
0.001873901293
-2.562476527e-05
-1.057875986e-05
0.0009456240428
-0.0009455369163
1.04916333e-05
3.945656752e-07
-0.0004699504367
-1.566511186e-06
0.0004711223822
-2.694655436e-06
-0.0004652068631
0.0004657449952
2.156523266e-06
0.001954957164
-0.001954957164
1.651132745e-05
-0.001954957164
2.556497418e-05
-2.556497419e-05
0.001954957164
0.0009578032043
1.353389849e-05
-1.408907162e-06
0.0008475891494
7.277537473e-07
-0.0004227787394
-0.0004241292566
1.987654205e-06
0.0008536894843
-1.900576492e-06
-0.0004273175227
-0.0004264590393
0.0008563303525
1.468093376e-05
-1.645399121e-05
-0.000854557295
0.0008486440164
-0.0008492956793
-7.572442433e-07
-0.0004300302335
-1.190805224e-05
0.0004296660362
-0.0004274094849
0.0004277656445
1.317933169e-05
-8.308466894e-05
-0.001703299553
8.12817309e-05
0.0008547758853
0.0008503266053
-3.223825073e-05
0.0004265199065
3.073810111e-05
-0.0008524292418
1.327804468e-05
-0.0004302133803
-1.309489786e-05
-0.0004345042873
-4.197930755e-07
0.0008699761208
-0.0004350662876
-0.0008621574611
-9.178793494e-08
0.0008622380709
1.117810685e-08
1.885071883e-05
0.001726829545
-1.892450647e-05
-0.001726755758
-1.716466574e-06
1.151920079e-06
-0.0004307494918
-0.0004308434228
6.862112389e-07
-0.0004345033811
-6.871174628e-07
0.0008539149619
1.591410691e-06
-0.0004264784146
-0.0004270403038
0.0008617118144
-1.560794483e-06
-0.0004310468416
-0.0004308206449
-0.0004380537455
-1.374045451e-05
0.0004373061859
-0.0004354215584
0.0004347971738
1.55159518e-05
-3.834466461e-05
-0.000870083721
0.0008702525688
3.817581685e-05
-1.514523257e-05
1.535254072e-05
-0.0004356288666
1.431441517e-05
-0.0004384894553
-1.38787053e-05
1.349224933e-05
-0.0004301958097
-0.0004342395568
-1.488575451e-05
-0.000867545487
-3.83494046e-05
0.000867550227
-0.0004462324523
1.593626727e-07
0.0008923027117
-0.0004457353221
-0.0004423360187
0.0008848340075
1.864461868e-07
-0.000442828824
0.001769908325
-1.885602781e-05
-0.000884664224
-0.0008856636417
-9.490289509e-07
1.035079372e-06
-0.0004424220692
2.506910487e-07
-0.0004461459391
-3.372043331e-07
6.036531711e-07
-0.0004349135663
-0.0004417651787
-7.763288258e-07
-0.0008953199879
-2.382315737e-05
0.0004477151281
0.00044738404
-0.0004442064709
0.0004440653654
1.256725355e-05
-7.010401049e-05
-0.001774253017
7.038101178e-05
0.0008869529439
0.0008870230721
-2.619611639e-05
0.0004432843352
2.551958029e-05
-0.00088681427
2.540037393e-05
-0.0008952198741
-2.550048773e-05
1.474612897e-05
-0.0004395598858
0.0004430140322
-0.0008863216031
-1.294103793e-05
-1.389871515e-05
-0.00176978006
-7.166308146e-05
0.0008861633451
0.0008851757859
-0.0004563114824
-1.206414858e-06
0.0004564008732
-0.0004521965297
0.0004521990289
2.325889045e-07
0.001809821775
-1.934394317e-05
-0.0009043833063
-0.000904863457
-8.661979356e-07
6.065960644e-07
-0.0004519369278
2.216582358e-06
-0.0004560440718
-2.483992974e-06
2.482895176e-07
-0.0004468098333
-0.0004518578641
-9.575171047e-07
-0.0009153033927
-2.198942962e-05
0.0009153414304
-0.0009066063957
0.0009066103651
2.251952024e-05
-0.0004668058613
-3.048306701e-06
0.0004671595126
-0.0004630564545
0.0004632286439
1.847794388e-06
0.0009262490938
-1.052417304e-05
-0.0009262523883
-2.309909874e-06
-0.0004630350528
0.0004615840884
3.760874191e-06
-3.145331585e-06
2.880020006e-06
-0.000462791143
2.583029018e-06
-0.0004660857203
-3.30317003e-06
1.861844314e-06
-0.0004562856
-0.0004637897695
-2.868033129e-06
-4.748974819e-06
0.000468223041
4.078958926e-05
-0.001862618093
-4.040972478e-05
0.0009312019344
0.0009310362942
-0.0009251685491
0.0009248503653
2.117406963e-05
5.293281895e-06
-0.0004630296048
-0.0009653576281
-1.160859937e-06
0.0009609142049
3.873607822e-06
1.73067533e-06
-0.0004702764238
0.0004709212502
-2.50260772e-07
0.0009466000478
-1.075552764e-05
-0.00094642328
2.607859411e-06
-0.0009352922663
0.0009358257016
-3.141294759e-06
9.489278773e-07
-1.329608602e-06
-0.0004698957431
3.002849923e-06
-0.000965383672
1.369514646e-06
-4.346320639e-06
1.854729441e-06
-0.0004644785635
1.215116493e-07
-0.0004691230205
-0.0009346873285
1.529744942e-06
0.000935765443
0.003388150091
-0.003406193261
0.0001313651709
2.520521936e-05
0.001707217945
3.125118528e-05
0.00170046372
-2.888328276e-05
-2.116562845e-05
0.001697152522
-0.001697014293
2.102739975e-05
-3.992558658e-07
5.124516896e-07
0.0008485308206
5.017641951e-06
0.0008588187512
-7.50604063e-06
6.11712931e-05
-0.0004196867801
1.416807285e-05
0.0003443474142
-0.0004395969822
-2.04968618e-05
0.0004458232488
1.42705952e-05
0.001722482448
-0.001722649072
1.901734248e-05
-9.273021293e-08
0.0008617127566
-2.102289649e-08
0.0008539154491
2.05357452e-08
0.0001233418016
-0.000453995163
-4.497637068e-05
0.000375629732
-0.001826205139
-7.543840988e-05
0.0002217608937
-0.003601431554
-0.0002248647108
0.003649488554
0.003591329448
0.0002294387704
0.0001217234936
-0.0004617011745
-4.117732229e-05
0.0003811550033
1.474676444e-05
-0.0009196725323
-1.524284403e-05
0.0004601766538
0.0004599919581
-7.994321127e-06
-0.0004579009487
0.0004578196868
8.075583027e-06
2.184189462e-06
-0.0009341782967
-2.693221251e-06
4.927897935e-05
-0.001877110344
-4.555582124e-05
0.001873387186
-0.001866063573
4.133341006e-05
0.0009330194902
0.0009325002622
-2.043728063e-08
0.0008536888987
0.0008476308382
-4.409445919e-07
0.001692004594
-2.005744102e-05
-0.001693112781
-1.887759603e-06
0.0004253768605
2.775074009e-06
-0.0004262641749
0.0004422335432
1.374381236e-05
-7.692008756e-06
-0.0004482853468
0.0004284372847
-2.029563402e-06
-0.000429129223
2.721501649e-06
-4.554516694e-05
3.862029214e-05
-0.0008480977806
0.0004265327668
-0.0008529829137
-3.406713532e-05
-0.001697062392
-7.995702472e-05
0.000848090732
0.0008458440161
-0.0004583526759
-8.346191318e-06
0.0004587045461
-1.261092388e-05
-0.0004563549293
0.000457552745
1.141310824e-05
-6.971792887e-05
-0.001811973659
0.001812544473
6.914711483e-05
-2.461446201e-05
2.432670837e-05
-0.0009063186421
2.377513822e-05
-0.0009151033211
-2.397520989e-05
2.480940023e-05
-0.0008972148742
-0.0009047297035
-2.461389237e-05
-0.00180936393
-6.986554519e-05
0.001809511546
-6.806095886e-06
-0.0004661652286
0.0004677046175
5.266706938e-06
0.0004657591411
6.787958906e-06
-0.0004656969015
-6.850198449e-06
1.012880284e-08
-0.0009339400305
-2.624598524e-07
0.0004667380225
0.000467454339
-0.0008137877828
-6.681290861e-06
0.0008137278447
6.741228884e-06
0.001751424444
3.740011819e-05
-4.439048682e-05
-2.217607695e-05
-0.0008536935632
-0.0008685644351
0.0008474824248
-0.0008650540051
3.225251411e-05
-0.0008518607351
-4.017969617e-05
0.0008530414648
-0.001707980824
-0.0001072724403
0.0008560072705
0.0008237119923
5.419035513e-05
8.134364613e-05
-2.311889831e-05
2.40376127e-05
-0.0008147064972
-0.0005398793086
0.0006010506018
-3.223752959e-05
-0.0008546045465
3.039406609e-05
0.0004280414783
0.0004284065316
-2.020954599e-05
-8.704508294e-05
-0.0004326246797
-1.632991434e-05
1.312667318e-05
-0.000436393741
-0.000430719681
-9.176645154e-06
-0.0008504124891
-2.972616148e-05
0.0004247144473
0.0004231866737
-1.403667253e-05
-0.0004323517887
0.0004324239019
1.396455934e-05
-0.0004324276834
-1.403691379e-05
0.0004324279247
-1.207645987e-05
-0.0004427950568
0.0004427267973
1.214471936e-05
-0.0004436348259
-1.262283274e-05
0.0004441811988
-0.0004519504526
1.250958291e-05
-9.708170125e-06
0.0004491490398
-0.0004604102691
0.0005806913237
3.060746944e-06
-2.329048019e-05
-0.0009005375993
0.0009005353917
2.32926878e-05
-1.642579614e-05
1.082308339e-05
-0.0004548075563
1.274640331e-05
-0.0004527120444
-1.198481147e-05
-1.489212555e-05
4.423537045e-05
-0.000444897591
0.0004155543461
-0.0004517764501
-1.864450904e-05
-0.0008999576734
-2.338424847e-05
0.0004500322892
0.0004500191525
-0.0004600557957
5.529592119e-07
0.0004602325302
-7.296937601e-07
4.927770632e-06
0.0009202791108
-5.010263927e-06
-0.0009201966175
-5.003251982e-06
0.0009251090084
-0.0009251975706
5.091814147e-06
1.336726627e-05
-0.0009241374295
-1.359056316e-05
0.0009243607264
-0.0009206468512
1.417686347e-05
0.0004609063637
0.0004603103885
0.0005912828052
-3.85841285e-07
-0.0004691734704
2.529236293e-06
-0.0004694168146
0.0004700425693
-3.154991067e-06
5.487008589e-06
0.0009412075483
-5.57473821e-06
-0.0009411198186
-5.575374937e-06
0.000945450275
5.136770278e-06
-0.0004722948583
-0.000472716812
5.2412966e-06
0.0009349519353
-5.498201868e-06
-0.00093469503
0.0009397971705
-0.000939712891
5.402729103e-06
-0.000467767022
1.72344311e-06
0.0004685728152
0.0004341353158
1.978449247e-06
0.0001082649222
-0.0005443786873
0.0004232917254
-2.180474434e-06
-0.0004229990106
1.026505057e-06
0.0008506908676
-1.345846234e-06
-0.0004243900282
-0.0004259814982
2.51419328e-06
-3.228149527e-06
0.0004240056817
-2.646436065e-06
0.000430205467
6.576284882e-06
7.924733146e-06
-3.29649592e-05
0.0004273868351
-0.000402346609
0.0004258518673
2.03918651e-06
0.0008527427109
1.966925695e-06
-0.0004271835777
-0.0004264995538
-1.253977939e-06
0.0008598608653
-0.0008604410232
1.834135781e-06
8.006934131e-07
-1.292292543e-06
0.0004289288839
2.344118197e-05
0.0004286272281
-9.834866865e-06
-0.00042951473
-1.172543347e-06
0.0004280408373
-0.0004279747556
0.0004281254123
6.500366673e-07
0.0008541912923
-6.904113431e-07
-0.0008547548589
6.490764209e-07
-0.0004306533954
-0.0004289409994
1.404718612e-06
-1.416765582e-05
-0.0004292137721
0.0004281195034
1.526192458e-05
-0.0004278945738
-1.420388203e-05
0.0004279308
7.692600488e-07