/*--------------------------------*- C++ -*----------------------------------*\
| =========                 |                                                 |
| \\      /  F ield         | OpenFOAM: The Open Source CFD Toolbox           |
|  \\    /   O peration     | Version:  v1912                                 |
|   \\  /    A nd           | Website:  www.openfoam.com                      |
|    \\/     M anipulation  |                                                 |
\*---------------------------------------------------------------------------*/
FoamFile
{
    version     2.0;
    format      ascii;
    class       volScalarField;
    location    "2.22";
    object      p;
}
// * * * * * * * * * * * * * * * * * * * * * * * * * * * * * * * * * * * * * //

dimensions      [0 2 -2 0 0 0 0];


internalField   nonuniform List<scalar> 
12556
(
781.0291411
780.096811
777.8133614
773.0952122
766.3595787
752.0460948
728.5887822
691.0981652
634.7163643
553.342102
442.0757491
299.8143291
132.2427452
-47.44742545
-221.8962696
-376.7092459
-504.0851819
-602.7327578
-675.4135895
-726.2718767
-768.7066476
-787.82098
-798.8330746
-803.9033158
781.6165048
781.0156042
779.3969369
775.8882875
769.2052827
757.0242043
736.3029503
706.0094777
655.5416477
580.4818069
474.3137659
333.6478988
162.0625046
-25.18774454
-210.0985145
-373.1842571
-505.4477084
-606.3952025
-687.15622
-734.8139872
-776.3939251
-793.0514918
-802.7173442
-807.1460855
782.9866204
783.1200736
783.049367
782.1578674
777.5185087
770.155729
755.9948732
730.1606623
688.411336
621.4693138
516.9983924
365.0475065
171.2354968
-38.82497872
-239.6995001
-412.4293593
-546.4203508
-641.8819626
-719.5245067
-758.9558009
-794.0816767
-805.5380601
-812.1852018
-815.1073292
784.5522401
785.7270177
787.8919395
790.4992309
789.675209
789.1160686
784.9377588
769.0052898
742.9167842
689.8012363
588.7641792
419.3863628
180.4842685
-85.15964899
-318.5360594
-495.7536048
-623.0331411
-707.4965919
-770.1129319
-795.6655055
-819.4016871
-823.8580431
-825.9353832
-826.6500557
785.2430062
787.6053389
792.3391158
799.1322645
802.8222056
811.191479
819.5635518
819.4349681
816.0516382
791.0713032
713.5826922
527.9107051
197.9091963
-186.1431491
-474.4739192
-650.6430341
-748.6341813
-800.9446183
-836.865377
-842.6088357
-848.9292122
-844.6853095
-841.1805258
-839.2566038
783.88672
787.4356459
794.7162178
805.8829914
814.7987743
832.747837
855.3425854
873.8467536
904.5413044
934.0045865
928.5198887
776.5279515
255.0326251
-411.8314383
-766.2249391
-891.8248978
-923.4038941
-922.2451738
-915.0684419
-894.3444189
-878.8916159
-864.7924388
-855.060178
-850.3128483
779.3591482
783.9497129
793.4041232
808.4271072
823.0187657
849.5635635
885.4971884
923.5229815
992.4509108
1094.973535
1240.681191
1375.770818
531.5597272
-1043.755914
-1266.861912
-1218.016873
-1135.779525
-1057.403062
-995.3636121
-943.7485923
-905.0925151
-880.3981744
-864.6762196
-857.2720883
770.6829651
776.0371363
787.0709608
804.8181004
824.4756784
857.4481069
902.9784048
957.5318004
1056.010607
1213.48122
1479.97762
2006.691089
-2734.22567
-1968.851372
-1575.214242
-1341.293346
-1181.547914
-1061.16111
-982.1359965
-920.4752045
-887.4710316
-867.147363
-857.5584587
757.1137962
762.8543343
774.671425
793.7437825
817.1948814
853.4729885
903.5428555
967.2732958
1076.245686
1239.336678
1466.424102
1728.654877
-4151.282133
-2477.54168
-1822.277701
-1478.053339
-1260.69667
-1096.657439
-999.4421265
-920.7353109
-882.8094888
-859.9029752
-849.0228075
738.2390652
743.9473189
755.6644416
774.5290622
800.2245181
836.4214784
885.7552327
950.975015
1054.232277
1194.321773
1354.849005
1494.575069
-3864.78813
-2474.639236
-1845.902459
-1495.39688
-1269.206818
-1090.798998
-989.6528773
-903.1715301
-864.6732863
-841.5031921
-830.4403506
714.0313514
719.316512
730.0988249
747.2611005
773.7444593
806.8359554
851.1351695
911.8225899
1000.789705
1113.430747
1233.391668
1340.096132
-2918.864365
-2097.834084
-1665.624625
-1394.871438
-1205.731964
-1042.621252
-952.2186878
-867.6010661
-832.9529126
-811.8240055
-801.6570447
684.8220265
689.3535905
698.5822007
712.5307587
739.22149
766.3990066
802.6022681
854.612561
925.1234634
1011.342274
1106.245837
1216.310262
-1925.012265
-1577.958973
-1370.433793
-1213.023412
-1086.815942
-960.6170115
-891.3835073
-816.5134192
-789.3380011
-771.9974909
-763.5810623
651.2744928
654.8286672
662.1855504
672.6937515
696.4828243
717.2447962
743.3295838
784.5146998
833.7272097
891.1862066
956.1508195
1060.894791
-806.6441921
-1007.032823
-1072.164438
-1048.70138
-999.2101402
-939.8348837
-858.9504461
-814.1798777
-755.5651476
-736.8527665
-724.1351638
-717.976035
614.2224961
616.6992182
621.990701
629.2286737
649.0633882
662.9556128
678.6382886
707.0385528
733.4863771
757.5699131
775.3166912
821.4098107
221.4223358
-435.1513784
-675.040364
-766.2337841
-794.6117086
-788.5956163
-751.5547487
-729.6837472
-689.5065493
-678.7193218
-670.8270716
-667.0822463
574.624334
575.9423445
578.8514062
582.5494995
598.560027
604.8456812
610.6051152
625.0051202
628.9335069
620.4216054
584.9396706
484.4835272
187.139281
-193.7434146
-425.2892035
-553.3431954
-622.0341279
-652.3979062
-647.7141226
-645.4213387
-621.705538
-617.9742478
-614.6951625
-613.213563
533.4643149
533.6940375
534.2851535
534.6324213
546.8178709
546.502568
543.6220392
546.0354784
532.7263881
501.7524316
438.8402818
315.0003854
136.1622916
-97.32517849
-280.6511532
-407.32476
-489.2602099
-537.9369671
-554.3746178
-565.8495557
-555.280492
-557.3912854
-558.0520083
-558.4750463
491.7184397
491.0206416
489.6234679
487.1151863
495.6895907
489.9161498
480.2079375
473.5492218
448.6676393
406.5177666
337.5026498
235.3734182
105.0884989
-54.63895312
-195.3931383
-307.2633571
-389.7502209
-445.0036833
-473.0528738
-493.2506869
-492.6063688
-499.079293
-502.8056374
-504.6080912
450.2710871
448.8264815
445.8288955
441.0582998
446.4419306
436.5455786
421.8663111
409.109579
378.0484249
332.3044173
267.2615999
182.341272
83.81504221
-34.81890556
-145.5778263
-240.5101157
-315.2046052
-369.9679171
-403.6477502
-428.6589083
-434.9329613
-444.3277292
-450.1773605
-452.9271365
409.8357117
407.8223835
403.6045494
397.1618599
399.9851041
387.253797
369.4305314
352.9760826
319.3639045
273.9838838
215.2629443
145.7208113
65.19425586
-27.20506546
-116.042823
-194.6931991
-259.599635
-310.56718
-345.5720569
-372.2452634
-382.7040824
-393.7889303
-400.9290276
-404.3189336
370.9567449
368.5486727
363.4809576
355.9189425
356.8121717
342.3764863
322.8349944
304.6921219
270.9175602
227.7537571
175.1804893
114.7751233
48.9396435
-24.73978589
-96.28650495
-161.2664304
-217.0487977
-262.8779438
-296.9600688
-323.3287935
-335.9689242
-347.7723114
-355.5434978
-359.2410215
334.0239622
331.3812066
325.8034255
317.6004132
317.1485072
301.9119413
281.7237031
263.2958314
230.7995552
190.9270984
144.317411
91.82447094
37.36315736
-22.95009874
-81.64522657
-135.8444882
-183.6317919
-224.1782937
-255.9625971
-280.9870991
-294.4348794
-306.2478554
-314.1521447
-317.9229125
299.2877001
296.5445186
290.7465773
282.2993328
280.9703556
265.6313603
245.6662976
227.7550654
197.3365919
161.1351211
120.0567054
74.75106332
28.75434093
-21.36474031
-70.21161249
-115.7972731
-156.7373903
-192.2877388
-221.1716591
-244.293108
-257.6289949
-268.983124
-276.6779294
-280.3559571
266.872873
264.1345616
258.3466062
249.9731608
248.1165871
233.1949889
214.0560958
197.1250021
169.1818722
136.6881926
100.6106104
61.46322902
22.26994741
-19.84085284
-60.9094466
-99.50213205
-134.6099046
-165.6116332
-191.4341666
-212.3936354
-225.0373122
-235.647997
-242.9138494
-246.391017
236.8013917
234.147265
228.5402721
220.4768877
218.3727841
204.2191091
186.3412403
170.5945223
145.2785522
116.3594082
84.75453546
50.88175468
17.32314286
-18.32644728
-53.09603124
-85.91933772
-116.0489461
-142.9822615
-165.802297
-184.5433772
-196.1602181
-205.8716687
-212.5778569
-215.7892354
209.0188306
206.5065684
201.2017817
193.6125856
191.4743018
178.3124818
161.902307
147.5082555
124.8091712
99.24923004
71.63476363
42.31609882
13.50852069
-16.8090431
-46.37023267
-74.36199348
-100.2207916
-123.5448292
-143.5290752
-160.1091372
-170.5279626
-179.2725776
-185.3518391
-188.2635385
183.4171825
181.0867525
176.1665032
169.1589423
167.1445686
155.1071763
140.2515058
127.2972618
107.1284728
84.68171262
60.63431814
35.28437566
10.54000045
-15.29189265
-40.46918325
-64.3588413
-86.5287323
-106.6586835
-124.0182178
-138.5553222
-147.710437
-155.47857
-160.9078457
-163.5076833
159.8491817
157.7264124
153.2433377
146.8825374
145.1105518
134.2624134
120.9850495
109.4890416
91.72553925
72.14353224
51.29662005
29.43870259
8.214588137
-13.78290836
-35.21392614
-55.57716908
-74.53669817
-91.83771738
-106.7948467
-119.4338791
-127.3197923
-134.1371909
-138.9219625
-141.2118971
138.1404597
136.2403566
132.2247481
126.5451875
125.1017803
115.4627407
103.7449198
93.68646207
78.1880597
61.23652601
43.2765373
24.52198553
6.383676876
-12.29014157
-30.47583502
-47.77157675
-63.91422423
-78.7017204
-91.4698947
-102.3622053
-109.0088054
-114.9206592
-119.0832303
-121.0735978
118.1012686
116.4310658
112.8970953
107.9116403
106.8617663
98.42339043
88.22569648
79.55460539
66.18211872
51.64923318
36.30908953
20.33863363
4.936145929
-10.82044359
-26.158879
-40.75591798
-54.40544488
-66.94897632
-77.72377913
-87.01524133
-92.46815651
-97.5286853
-101.1000445
-102.8055018
99.53408317
98.09560157
95.04633607
90.75329215
90.14666639
82.88308982
74.18463207
66.80789777
55.43278384
43.13202831
30.18619845
16.73518804
3.785345192
-9.37849314
-22.18744969
-34.38303196
-45.80438879
-56.32996443
-65.28947739
-73.11241421
-77.42165843
-81.68697139
-84.70142778
-86.13839549
82.23443
81.02673014
78.45872105
74.84456928
74.73317652
68.60145118
61.35715335
55.21431558
45.71305619
35.48109056
24.73959755
13.59062985
2.864545652
-7.966254483
-18.50031742
-28.53445985
-37.94325165
-46.62368367
-53.94157445
-60.40921337
-63.61723931
-67.1428637
-69.63414336
-70.81842466
66.01545437
65.03421426
62.94039353
59.98820623
60.39826261
55.35748587
49.49662581
44.57687324
36.83045003
28.52587212
19.83027137
10.80697275
2.12236315
-6.58332677
-15.04655039
-23.11300109
-30.68820249
-37.68388409
-43.45842482
-48.6852237
-50.84242902
-53.67662162
-55.67606136
-56.62358807
50.62334126
49.87021101
48.24774075
45.93394784
46.96684353
42.94747464
38.33446322
34.70472026
28.61122707
22.11817082
15.34089699
8.301824844
1.51688593
-5.226848167
-11.78032461
-18.03351005
-23.92172246
-29.39418054
-33.65547071
-37.74180971
-38.84515981
-41.0404883
-42.57118114
-43.28957461
36.06689984
35.52284574
34.35864246
32.70809294
34.08184843
31.18273349
27.79663965
25.40691415
20.89770617
16.12728234
11.16960312
6.005375679
1.014405726
-3.892012655
-8.659767167
-13.21837568
-17.52908739
-21.55744446
-24.41380254
-27.38378869
-27.63319418
-29.18726042
-30.27408011
-30.78821344
21.42262551
21.14669919
20.4543864
19.45854259
21.77496578
19.89076742
17.6826053
16.52661619
13.54884703
10.43419227
7.222304254
3.857173039
0.5891345005
-2.571422755
-5.645012053
-8.596397177
-11.40800207
-14.06360024
-15.57062014
-17.51770048
-16.45489621
-17.38802385
-18.02939488
-18.28602665
9.685792496
9.466605448
9.129594553
8.622345586
9.719901901
8.811541156
7.75299572
7.914774959
6.43750826
4.92874518
3.405394885
1.797297192
0.2296287615
-1.252975624
-2.698887021
-4.104311017
-5.464938461
-6.797126071
-6.925624554
-7.830096867
-7.481119378
-7.931411396
-8.24089137
-8.452122079
1771.083817
-4438.787631
-2893.385271
1517.393548
-4206.587437
-4498.690377
1356.594952
-3171.846163
-4100.794106
1232.517833
-2093.30157
-3032.650412
1073.170203
-862.2959794
-901.2930546
-1122.672576
-1964.656097
851.7292002
309.0678987
-814.7360959
171.1583927
-447.6023655
-1013.799364
1974.813357
748.8437962
-2540.435288
-855.2295205
-5836.48836
-3669.435712
-4087.310344
-2644.395111
-2115.820566
1384.774936
1502.542058
1698.158922
-5957.739515
-6265.901091
-3953.873054
-2771.656618
-2740.628263
1263.880283
1344.888092
1480.336536
1430.662012
1466.174922
1548.616384
-4397.264678
-5213.676626
-3045.355968
-2384.007226
-2710.029591
1139.389578
1217.173568
1328.048333
1293.669264
1337.290554
1383.662194
-2917.963832
-3544.821445
996.9168279
1066.142221
1200.62684
1155.274221
1222.824314
1281.381701
-1659.916804
-1610.159942
-2166.859539
821.8122736
848.930137
1043.473781
973.1637826
1041.81284
1135.437025
552.6733112
297.9336592
321.5765449
2192.584966
1820.91095
2716.701642
2270.483568
-6274.713952
-5896.857979
-4028.798435
-5642.036133
-6112.473295
1559.279183
1635.486789
1593.754932
1638.414326
1563.502238
1789.3712
1651.239904
-5262.539847
-5924.774126
-4387.690786
-5794.518665
-5172.444357
-6106.526352
-5825.38231
-4418.652496
1391.450053
1455.128941
1410.767561
1461.756253
1393.516589
1557.861796
1467.777052
-3637.637748
-4338.919311
-3586.248821
-4234.987215
-3565.999284
-5124.452997
-4340.099041
-3721.67575
1285.434213
1334.631911
1278.692029
1338.426565
1290.203325
1389.450214
1340.828795
-2248.300223
-2831.667901
1141.215804
1218.605069
1145.163802
-1616.549114
1224.536743
1146.878723
1286.036854
1228.810048
-1657.892016
-1042.473348
-1532.431495
-1610.30473
1015.352615
1035.272238
958.3036883
-73.66866382
1041.707256
916.4128507
1141.099486
1047.406209
-150.4288048
1486.074557
1734.117742
1897.455452
1955.983678
2231.909648
2573.76875
-7225.07165
-4518.382776
1622.96926
1648.8996
1792.32406
-3481.08008
-2045.531719
-1793.777651
-2245.452765
-2061.410004
-2001.835998
-2294.101884
-205.4524102
-519.3034686
-900.5962578
1823.615025
2165.073461
1912.324944
1893.050684
3588.365671
3009.150674
-3499.168012
-5496.791142
-3804.392957
-2341.892819
-2657.348461
-2488.770282
-2788.215494
-2222.068772
-3476.716227
-2871.744743
-2623.220594
-1212.838278
-346.5764107
-498.4061625
1207.421437
1972.809596
2688.947291
-3203.489989
-935.1379042
919.1593007
-7344.479524
-5229.58034
-7113.368371
-4320.63373
-6959.737274
-4900.648693
-6109.073763
-6132.308998
-4784.255142
-4839.613739
-3084.013663
-3412.938134
-3181.107
-3390.74038
-3056.477436
-3805.315544
-3440.726346
-3270.7014
1250.390752
1218.018216
1191.805408
-1643.752251
-1912.639945
-1984.871122
1088.526644
1050.013445
1009.28789
1098.304751
1062.593569
1094.13769
2195.523316
1924.553846
1996.332458
1936.496531
2220.822073
1765.972148
1907.249781
1944.223597
2603.708574
2955.947904
3433.751656
2281.422419
2856.706332
2524.061669
2890.269415
2266.790218
-6214.193505
-6196.5472
1602.013151
1646.219421
1596.968987
1715.894187
1688.857149
1756.760648
1648.532642
1682.331064
1697.032508
-5574.864857
-5615.779247
-5517.602721
-4928.856067
-5079.926653
-4670.892885
-4869.851242
-5477.155934
-6003.744194
-5227.438854
-5229.424921
-5120.414226
-5210.370088
-5981.792402
1426.654141
1421.838958
1516.796969
1510.24297
-3926.293652
-3844.832761
-3977.475688
1316.944853
1313.43537
1363.716949
1360.499432
-3006.545802
-2681.597876
-2577.920499
-2702.067599
-3029.056063
1174.923354
1142.00987
1109.480707
1182.477527
1152.597348
1181.353333
-1262.719792
1185.996232
1179.075402
1258.26651
1254.998319
-1993.164737
-1263.134164
-1288.933225
-1554.875714
994.1514835
946.597921
932.0366585
952.3299551
452.5342728
149.3618989
1100.641693
-335.5219385
104.7619503
-250.0157705
1095.735961
-405.7922886
-282.6377563
71.95007099
-5617.815361
-2207.409834
-2359.520165
629.6135019
583.7440081
812.8680567
697.2193534
710.1421933
953.1728777
199.8023908
-144.342502
-332.9769373
4526.723412
-2394.479606
-2559.47162
-948.7798349
-1201.975424
-1214.67705
-163.4389816
-412.7601797
-132.4291126
1923.936257
2701.080761
3559.128646
-3918.211667
-1048.438364
1124.047134
-6032.987219
-6775.898995
-6677.568589
-6219.972536
-4561.690264
-4755.954582
-4559.33679
-5479.652442
-5314.491065
-5059.858082
1357.73682
1336.328565
1315.492352
1366.438022
1343.572932
1361.281142
1250.429489
1226.296561
1253.934555
1062.06318
1045.170496
1023.338802
859.8327442
620.6548919
355.2428456
-6263.892997
-6770.213133
-6814.635747
-6019.614429
-5020.852493
-4722.378318
-5211.12673
-5087.790271
-6031.435876
-5403.095455
-5683.332237
-5535.565672
-5804.754401
1416.158418
1399.812342
1374.452678
1401.120411
1411.31849
1404.943069
-4497.867752
-4320.977987
-4180.762602
-3936.831629
-3691.172675
-3942.998004
-4767.588157
-4362.698811
-4597.633377
-4027.734579
-4280.470437
-4714.501109
1309.455269
1280.603612
1258.2247
1308.674447
1287.823986
1312.932237
1330.588121
1345.675795
1349.932847
1304.211497
1321.296274
1301.70593
1377.950871
1384.408165
1397.201828
1350.94397
1356.014053
1348.435613
-2494.923064
-2637.036446
-2334.851138
-1463.052775
-1464.754719
1210.497568
1153.251865
1273.118322
1282.519424
1300.615523
1260.420511
1240.07252
-1794.125183
805.2988066
931.7443749
888.8206716
1015.504856
988.4498755
1007.022881
115.9692537
359.5694512
123.1557629
1016.143167
415.0382947
675.9867738
489.1377988
587.8959935
1119.236346
1068.765437
-6574.778978
-5428.975685
-6216.602309
-3617.373737
-3678.644076
-2022.289826
-2160.806646
-2176.243219
1831.929473
1812.51041
3459.619911
3914.856783
4228.12059
3729.224407
3363.003592
-2732.305754
-2565.775355
-2519.262354
-2571.453773
-2751.4043
-1225.564424
-1050.415618
-1060.734957
-1054.437828
-1229.401898
-834.1936457
-1005.511213
-598.2180439
-620.8081487
-784.5587258
-408.9580777
-567.31039
-498.2047717
-7404.590751
-6473.151789
-6014.70582
-6820.169959
-6584.991971
-5829.012832
-5120.609515
-6145.299344
-6482.991903
-6394.26006
-6050.421672
-6200.273905
-6637.608588
-6520.562808
-5000.313714
-4818.691867
-4618.045728
-4875.533446
-5068.783128
-4618.498243
-4817.089297
-5125.787073
-5005.806847
-5260.147147
-5060.489462
-3224.369883
-3283.910134
-3252.251175
-3167.387642
-3305.209341
-3653.158917
-3545.389086
-3692.582344
-3351.363293
-3496.765855
-3598.981267
-1856.822435
-1831.756554
-1972.928436
1071.262852
1052.163986
1065.341819
1108.815651
1095.061644
1077.843816
2056.237644
2019.5974
2034.835051
2069.620383
1969.885269
2239.702259
2107.766109
2074.207712
1820.007491
1847.676036
1794.989668
1941.166271
1868.286815
1840.378837
2493.788569
2460.89111
2292.702258
2583.176831
2489.089614
-6809.363627
-6773.300237
-6255.130373
-6931.97413
-7009.395776
-6899.839389
-6948.311676
-6888.758444
-7042.731993
-6952.925031
-6103.502013
-6732.556413
-6820.762004
1623.172812
1623.212308
1611.16057
1644.493773
1628.473629
1630.157636
1594.996677
1584.199367
1608.611865
1598.292641
1713.016809
1731.731021
1703.489946
1780.585572
1742.663852
1721.770268
1664.438445
1667.853986
1649.794174
1695.367852
1674.410496
1671.170245
-5861.627178
-5729.613655
-5447.785616
-5755.301606
-6051.968561
-5897.725359
1447.803224
1434.179346
1469.911724
1451.57472
1413.008251
1403.925262
1428.804978
1415.84136
1553.189254
1531.756602
1579.56328
1560.245561
1495.560354
1475.124968
1524.562306
1502.966575
-3937.38539
-4095.440147
-3742.668272
-3889.500244
-3987.59858
-4370.89419
-4551.685685
-4147.369502
-4315.836789
1328.369111
1342.245741
1327.486182
1348.135989
1331.272239
1353.299282
1352.103275
1328.150707
1304.300838
1321.752077
1324.792632
1372.094194
1380.36256
1374.020639
1383.780661
1375.219144
1399.907015
1387.066643
1357.325586
1353.477087
1368.99065
1359.422685
1351.232233
1358.323045
1368.115129
-2760.904443
-2843.860437
-2910.500516
-2748.674852
-2959.766364
-2888.048232
-1239.987434
-1417.942731
-1448.680987
-1239.608377
1205.681775
1160.569601
1269.042965
1277.888544
1269.015385
1244.253068
1265.129499
1267.633991
-1875.164204
993.1086777
978.1924039
949.8161265
610.5823831
514.708812
1004.335213
232.75778
390.7650484
285.0052028
1111.614777
-490.7911514
-50.64705982
176.1542832
-96.69216033
1065.016488
-2443.916653
-1888.044321
-1257.847486
-2346.530139
-2400.262368
-1141.515706
-1200.556786
-1640.145826
-2410.148755
-1012.270295
-1003.001761
-839.074295
-2142.993659
-1633.120532
-1587.775755
2331.801384
3408.084351
4338.203256
-4384.356712
-1155.314598
1414.494101
-1618.584712
-1237.082264
-3110.563541
-5561.439525
-6282.17456
-6537.148142
1501.712761
1479.544963
1447.742497
1523.753615
1490.489281
1513.816667
-1643.582691
-1784.173144
-1797.366741
-2246.237595
-1981.922383
-1924.290933
1118.440259
1101.458836
1115.581221
-6605.004078
-6710.981456
-6073.798664
1437.583853
1408.812274
1425.196611
1445.957418
1450.8582
1468.281047
1473.839241
1493.274908
1485.298504
1151.932984
1139.401505
1124.356042
-1630.172861
-1583.810319
-1572.190174
1152.162127
1158.934986
1151.707798
-1726.519365
-1738.952172
-1644.493885
-1462.625472
-1452.334672
-1595.516632
1034.931858
1135.427168
1142.415618
1146.824438
1050.86374
-7108.351836
-3517.885538
-2042.292728
-2109.068193
-2116.268847
-2340.950013
-2196.825729
-2160.11017
1866.331562
-4585.522544
-4058.840175
-4855.830057
-2475.017324
-2531.623436
-2384.571802
-837.0249353
-852.3064487
-674.2083028
-679.3239584
-778.5594543
-1975.107737
-1418.006753
-3821.152668
-7260.693498
-6903.448641
-6750.365571
-7306.449075
-7284.64039
-3130.689455
-3162.538913
-3113.766182
-3429.849075
-3420.679265
-3392.504085
-2982.308024
-3119.049379
-3198.431762
-3768.114206
-3716.615353
-3766.652577
-1976.141399
-1953.048523
-1986.659587
2139.909154
2199.745244
1955.786362
1967.196996
1980.718081
1949.856848
1776.662606
1791.753253
1777.646314
1921.135238
1895.059735
1881.236264
2716.806211
2526.224778
2578.731415
2779.570313
2780.771028
2924.028098
2256.592211
2316.546005
2332.287441
1613.828871
1612.836759
1616.100932
1645.162712
1640.681115
1642.190737
1600.018448
1598.12644
1615.222867
1610.997281
1697.750514
1702.491268
1694.216393
1765.136983
1752.76397
1745.58878
1651.206859
1652.991458
1648.87146
1687.116392
1681.78261
1678.970901
1432.386976
1446.27837
1440.62085
1409.164482
1414.718543
1427.503393
1528.074566
1548.566075
1534.966672
1546.173386
1538.424769
1594.993262
1588.277286
1482.570321
1530.746407
1523.136783
1491.836147
1500.284237
1521.145779
-4107.860969
-4169.988228
-3815.957882
-3873.188239
-3899.596979
-4229.859622
-4252.666651
-4126.495287
-4266.190517
-4104.260919
1161.13436
1145.110005
1157.182865
1199.4458
1182.753107
1167.12578
1190.375657
1198.830417
1193.182511
1172.652378
1176.559246
1182.869863
-1990.686123
941.9701005
949.6141892
936.3485222
674.6422284
951.481791
327.5585173
459.2952738
584.4214978
1107.006565
1108.505572
1104.05804
-399.9155715
-242.7313301
-218.5857645
-233.8785394
1088.752864
1095.798868
1102.894618
-130.6294727
-208.2190492
-356.1069154
-2244.1478
-2287.170503
-2384.877015
-2337.731538
-2315.477102
4549.358981
4869.179125
4357.85034
-2448.606551
-2474.361468
-2397.435948
-2577.784666
-2524.652116
-2511.56434
-2400.149218
-1596.756902
-4218.743298
-6286.757602
-6290.262345
-6222.76644
-6260.605924
-6741.329939
-6581.063616
-6608.465893
-6526.170673
-6554.563961
-6710.70214
-5427.617054
-5346.080614
-5398.641481
-5234.036202
-5292.794701
-5374.410476
-6820.754742
-6636.472815
-6614.275462
-6633.600887
-6645.560055
-6837.290618
-5631.807574
-5546.956279
-5594.889727
-5450.522011
-5498.9053
-5584.486019
-6158.172156
-6190.330367
-6060.364527
-6112.552724
1347.674727
1342.49508
1340.061704
1308.252086
1304.398721
1299.961836
1313.353363
1309.485619
1314.429825
-1587.699538
-1639.982916
-1457.367532
-1534.912737
1224.941079
1223.212443
1232.760751
1227.439164
1156.426805
1152.83146
1160.099007
1151.507936
1288.521445
1285.513789
1280.270666
1295.831996
1291.017363
1295.23555
1242.751273
1240.166557
1252.835528
1237.188307
1244.511338
-1801.940159
-1792.734971
-1781.285186
-1646.035936
937.649035
977.7659052
1103.716205
1018.178957
1010.084409
999.0641964
1027.041806
357.3997807
340.8612937
1078.562742
952.3307863
716.1258194
1121.05854
1133.678175
1128.186485
1059.670058
-6854.355322
-7164.791389
-6880.72965
-6221.173185
-5910.066959
-5092.140815
-6693.495738
-6361.194666
-3562.228326
-3707.069591
-2171.865185
-2158.974141
-2169.512282
1847.782963
1788.496274
4077.648639
3905.447894
3773.221409
3221.427608
3079.650752
3603.018048
3391.60869
3512.158256
-2646.431144
-2584.458306
-2696.573376
-1071.363952
-1068.006275
-1056.29737
-1171.239275
-873.3783137
-854.3570414
-839.4017653
-996.3066492
-938.7722284
-935.9116177
-603.2166759
-659.0424541
-658.2237703
-477.3521563
-482.6398974
-530.8139154
-7139.548768
-7031.081374
-7338.8922
-6746.362488
-7037.463735
-7097.059616
-7269.030193
-7239.838766
-6443.986636
-6334.638707
-6363.134445
-6300.018038
-6311.524061
-6410.424795
-6594.512275
-6459.539265
-6494.219829
-6394.300841
-6425.984178
-6556.556446
-4942.716582
-4867.968351
-4925.400238
-4937.824523
-5006.398989
-4674.397681
-4702.162289
-4664.318718
-4758.251741
-5188.475118
-5232.717697
-5191.568428
-5106.184169
-5171.167954
-4984.49025
-5045.608442
-5126.528775
-3262.337662
-3182.478184
-3169.25554
-3196.257656
-3129.044195
-3183.460358
-3344.90206
-3372.417898
-3313.173738
-3614.091565
-3659.970276
-3688.727162
2095.981096
1986.301754
1830.001812
1808.873413
1793.824449
1859.689359
1871.98222
1850.795829
2567.049437
2662.622154
2681.924703
2944.701198
2817.895288
2405.179671
2389.227332
2476.045588
-6793.18548
-6601.271543
-6601.067056
-6599.350337
-6598.983084
-6783.105447
-6962.393656
-6979.2789
-6947.257151
-7199.300549
-7158.850674
-7184.52183
-7212.256439
-6932.648528
-7040.656039
-7155.598852
-7167.644819
-6983.304694
1623.678514
1619.318284
1618.659447
1636.744122
1635.359388
1629.568631
1603.177406
1601.519987
1607.362306
1605.029146
1719.318206
1710.778204
1705.708237
1733.030702
1740.397014
1729.045692
1665.24077
1658.630116
1656.785302
1675.856053
1676.973938
1671.547308
-5822.144908
-5729.942163
-5769.767059
-5640.279627
-5685.625118
-5774.745563
-5996.8679
-5912.829735
-5994.657888
-5808.028871
-5852.449733
-5942.274558
1443.862256
1445.675659
1448.669976
1435.864918
1441.426017
1439.306732
1462.909404
1461.5029
1470.57489
1450.900682
1454.518967
1456.371398
1410.338052
1412.548206
1414.375625
1407.001839
1410.173445
1407.369267
1423.755773
1424.036839
1429.697827
1416.282187
1419.38295
1419.40544
1561.886833
1554.080952
1546.123089
1550.353114
1557.721312
1535.357539
1542.853
1538.961226
1578.708194
1569.722579
1500.896293
1494.235726
1488.298243
1491.287584
1498.250016
1476.496408
1477.463262
1479.955636
1517.375556
1520.504096
1527.912198
1505.83988
1513.157532
1510.189551
1515.729501
1508.396327
-4024.04479
-4059.247579
-3961.427898
-3928.830436
-3963.559777
-4424.28626
-4457.553548
-4409.479646
-4591.807706
-4517.408234
-4483.677978
-4195.611942
-4231.609553
-4194.795162
-4358.832627
-4307.532798
-4256.208865
1332.402947
1328.602697
1324.617298
1336.849575
1332.858182
1337.3856
1341.608551
1335.484138
1353.403726
1353.187687
1326.543061
1317.902485
1312.954594
1312.96334
1313.7689
1320.759562
1317.595248
1322.815102
1372.730381
1376.89567
1386.788149
1377.351682
1395.525539
1397.885321
1402.697549
1389.860499
1393.665324
1391.318257
1355.4716
1354.14906
1364.282507
1361.554478
-2857.761913
-2839.127322
-2897.0952
-2737.159062
-2786.142545
-2820.619491
-3028.162649
-3071.154489
-2942.068473
-2955.766631
-2967.367601
-1385.157171
-1386.604041
-1442.113101
-1252.777198
-1315.178841
-1324.470253
1204.151212
1193.776569
1220.402784
1214.106374
1165.70414
1170.362718
1166.264042
1173.397611
1168.945986
1185.521979
1179.232041
1271.350777
1268.997488
1266.261897
1275.851102
1272.166107
1274.280457
1266.900074
1260.181439
1256.910583
1264.005157
1262.127239
1267.140278
-1933.272184
985.8613639
971.4797422
977.7060063
566.276532
584.0095216
647.8716169
521.8311716
529.7628641
511.7060744
991.3196431
329.8378904
276.9319687
208.8366152
1106.993676
1109.020113
1111.852614
-467.9419335
42.21665333
-17.84323169
157.5180405
144.1929284
157.3992352
-38.00032852
-172.5293749
-153.5133019
-50.8190049
1076.855018
1089.561094
1082.23678
722.5359399
691.3009193
670.7921863
677.9709563
628.7777871
602.5988054
608.2824187
534.0509182
504.5955705
503.7279367
397.1105783
372.0968145
355.543804
218.6632025
206.5555172
168.9359491
18.40029581
20.20107168
-33.06835058
-181.2481196
-166.3380312
-228.8682572
-359.7080373
-335.3386019
-399.6000186
-502.927195
-475.1036549
-532.9836842
-608.5962935
-583.2629885
758.0718582
736.9216741
700.9242872
727.4041623
687.9812555
641.2538249
670.1182202
598.1188243
547.510486
567.0280804
449.8312593
407.6289931
402.5164981
238.861146
222.6741359
178.2706803
-8.265065137
14.08599441
-69.57249262
-241.1067564
-191.4594938
-292.8803894
-429.6116647
-372.306657
-469.1748387
-571.0936379
-516.6965062
-599.7165073
-669.8634762
-621.0258958
806.0897131
800.0769967
751.2399814
796.0701519
774.0697649
706.7150296
762.0470183
704.3480207
619.7462275
675.5378963
549.6256071
468.8261751
492.417784
275.5654173
245.8485414
191.8842134
-70.92654116
-19.87312761
-153.6178212
-367.5835118
-265.2222622
-426.0538299
-566.1259615
-456.6243284
-603.3296823
-690.7397604
-595.0682166
-712.7283116
-762.5294648
-690.2737258
860.329911
876.4908967
818.3181451
881.7882559
893.596293
800.6106922
894.6159062
879.4390642
740.5649066
864.2439205
757.9688085
587.8996821
692.6214875
374.4107235
290.5584386
232.2446104
-208.0453423
-95.30110242
-335.0571308
-613.1700569
-414.393395
-676.0952049
-799.8461901
-614.5070421
-823.7090185
-867.2574874
-729.7284962
-875.3867135
-888.1687958
-790.8578509
912.1289484
954.7875617
896.461635
971.7888422
1032.33144
927.7784236
1055.838171
1133.335584
936.9490101
1158.820209
1200.797608
840.5818161
1176.821358
668.7330581
423.1686525
491.2058943
-610.3780222
-268.3405842
-809.9083857
-1089.913547
-704.476094
-1119.357388
-1135.192444
-873.5464053
-1129.044979
-1095.042427
-919.8867484
-1081.270021
-1038.135608
-924.1695694
951.136599
1016.590719
972.4548053
1043.875484
1147.762594
1065.592716
1191.73435
1365.510788
1200.377603
1443.274832
1869.991363
1357.873297
1643.315095
1731.219321
1253.22359
697.5648815
-630.7239619
-181.2894715
-1445.600526
-1440.205042
-1165.836147
-1789.217624
-1552.330932
-1236.234499
-1489.764427
-1336.001642
-1156.627331
-1293.503115
-1184.688001
-1076.260607
967.260865
1043.883018
1027.011876
1075.484992
1193.146197
1166.655128