/*--------------------------------*- C++ -*----------------------------------*\
| =========                 |                                                 |
| \\      /  F ield         | OpenFOAM: The Open Source CFD Toolbox           |
|  \\    /   O peration     | Version:  v1912                                 |
|   \\  /    A nd           | Website:  www.openfoam.com                      |
|    \\/     M anipulation  |                                                 |
\*---------------------------------------------------------------------------*/
FoamFile
{
    version     2.0;
    format      ascii;
    class       pointVectorField;
    location    "2.22";
    object      pointDisplacement;
}
// * * * * * * * * * * * * * * * * * * * * * * * * * * * * * * * * * * * * * //

dimensions      [0 1 0 0 0 0 0];


internalField   nonuniform List<vector> 
26316
(
(0 0 0)
(0 0 0)
(0 0 0)
(0 0 0)
(0 0 0)
(0 0 0)
(0 0 0)
(0 0 0)
(0 0 0)
(0 0 0)
(0 0 0)
(0 0 0)
(0 0 0)
(0 0 0)
(0 0 0)
(0 0 0)
(0 0 0)
(0 0 0)
(0 0 0)
(0 0 0)
(0 0 0)
(0 0 0)
(0 0 0)
(0 0 0)
(0 0 0)
(0 0 0)
(0 0 0)
(0 0 0)
(0 0 0)
(0 0 0)
(0 0 0)
(0 0 0)
(0 0 0)
(0 0 0)
(0 0 0)
(0 0 0)
(0 0 0)
(0 0 0)
(0 0 0)
(0 0 0)
(0 0 0)
(0 0 0)
(0 0 0)
(0 0 0)
(0 0 0)
(0 0 0)
(0 0 0)
(0 0 0)
(0 0 0)
(0 0 0)
(0 0 0)
(0 0 0)
(0 0 0)
(0 0 0)
(0 0 0)
(0 0 0)
(0 0 0)
(0 0 0)
(0 0 0)
(0 0 0)
(0 0 0)
(0 0 0)
(0 0 0)
(0 0 0)
(0 0 0)
(0 0 0)
(0 0 0)
(0 0 0)
(0 0 0)
(0 0 0)
(0 0 0)
(0 0 0)
(0 0 0)
(0 0 0)
(0 0 0)
(0 0 0)
(0 0 0)
(0 0 0)
(0 0 0)
(0 0 0)
(0 0 0)
(0 0 0)
(0 0 0)
(0 0 0)
(0 0 0)
(0 0 0)
(0 0 0)
(0 0 0)
(0 0 0)
(0 0 0)
(0 0 0)
(0 0 0)
(0 0 0)
(0 0 0)
(0 0 0)
(0 0 0)
(0 0 0)
(0 0 0)
(0 0 0)
(0 0 0)
(0 0 0)
(0 0 0)
(0 0 0)
(0 0 0)
(0 0 0)
(0 0 0)
(0 0 0)
(0 0 0)
(0 0 0)
(0 0 0)
(0 0 0)
(0 0 0)
(0 0 0)
(0 0 0)
(0 0 0)
(0 0 0)
(0 0 0)
(0 0 0)
(0 0 0)
(-2.031053741e-07 6.527626058e-06 2.775557562e-17)
(0 0 0)
(0 0 0)
(-1.123785278e-07 7.311965241e-05 3.330669074e-16)
(5.171825123e-07 6.215621135e-05 2.91433544e-16)
(0 0 0)
(0 0 0)
(0 0 0)
(0 0 0)
(0 0 0)
(0 0 0)
(0 0 0)
(0 0 0)
(0 0 0)
(0 0 0)
(0 0 0)
(0 0 0)
(0 0 0)
(0 0 0)
(0 0 0)
(0 0 0)
(0 0 0)
(0 0 0)
(0 0 0)
(0 0 0)
(0 0 0)
(0 0 0)
(0 0 0)
(0 0 0)
(0 0 0)
(0 0 0)
(0 0 0)
(0 0 0)
(0 0 0)
(0 0 0)
(0 0 0)
(0 0 0)
(0 0 0)
(0 0 0)
(0 0 0)
(0 0 0)
(0 0 0)
(0 0 0)
(0 0 0)
(0 0 0)
(0 0 0)
(0 0 0)
(0 0 0)
(0 0 0)
(0 0 0)
(0 0 0)
(0 0 0)
(0 0 0)
(0 0 0)
(0 0 0)
(0 0 0)
(0 0 0)
(0 0 0)
(0 0 0)
(0 0 0)
(0 0 0)
(0 0 0)
(0 0 0)
(0 0 0)
(0 0 0)
(0 0 0)
(-1.265360538e-05 0.0001016816698 4.857225733e-16)
(-7.283209367e-05 0.0006378019356 3.080868893e-15)
(-9.522134676e-07 8.417484085e-06 4.163336342e-17)
(-0.0001383488158 0.001673687172 7.993605777e-15)
(-0.0003438337908 0.004123146968 1.990074772e-14)
(-0.0004083420127 0.005584758543 2.695066392e-14)
(-0.0001902262798 0.002623926542 1.254552018e-14)
(-0.0002322443268 0.00552907729 2.642330799e-14)
(-0.0004081929448 0.009648534232 4.65599781e-14)
(-0.000341652393 0.01066147089 5.14449594e-14)
(-0.000200383688 0.006292243011 3.007316618e-14)
(-1.033053691e-05 0.007359392724 3.518019209e-14)
(-1.573221378e-05 0.01205260903 5.814793091e-14)
(0.000106188333 0.0118974445 5.742628595e-14)
(6.320249151e-05 0.007238964885 3.4597325e-14)
(0.0002169866563 0.005549276456 2.653433029e-14)
(0.0003829427806 0.009676570417 4.669875597e-14)
(0.0004208648968 0.008454852006 4.080069615e-14)
(0.0002286263222 0.004645363507 2.220446049e-14)
(0.0001348447814 0.0016949945 8.10462808e-15)
(0.000334258728 0.004158788997 2.006728117e-14)
(0.0002516617502 0.002778539772 1.340594302e-14)
(7.88087576e-05 0.0008788595156 4.204969706e-15)
(0 0 0)
(1.327337903e-05 0.000109504312 5.273559367e-16)
(0 0 0)
(0 0 0)
(0 0 0)
(0 0 0)
(0 0 0)
(0 0 0)
(0 0 0)
(0 0 0)
(0 0 0)
(0 0 0)
(0 0 0)
(0 0 0)
(0 0 0)
(0 0 0)
(0 0 0)
(0 0 0)
(0 0 0)
(0 0 0)
(0 0 0)
(0 0 0)
(0 0 0)
(0 0 0)
(0 0 0)
(0 0 0)
(0 0 0)
(0 0 0)
(0 0 0)
(0 0 0)
(0 0 0)
(0 0 0)
(0 0 0)
(0 0 0)
(0 0 0)
(0 0 0)
(0 0 0)
(0 0 0)
(0 0 0)
(0 0 0)
(0 0 0)
(0 0 0)
(0 0 0)
(0 0 0)
(0 0 0)
(0 0 0)
(0 0 0)
(0 0 0)
(-3.53398842e-05 0.0002054808601 1.026956298e-15)
(-0.0001930778354 0.001196900587 6.009082121e-15)
(-4.573016332e-05 0.0002862690329 1.415534356e-15)
(-0.0006530203548 0.00510167757 2.534084054e-14)
(-0.001044876355 0.008086923422 4.057865155e-14)
(-0.001333934085 0.01125838532 5.648259638e-14)
(-0.0008982716776 0.007651557889 3.801126081e-14)
(-0.001400489944 0.0163671329 8.129608098e-14)
(-0.001854686054 0.0214886741 1.078026557e-13)
(-0.001868666401 0.02472018794 1.240119119e-13)
(-0.001441152031 0.01922539127 9.549305791e-14)
(-0.001136095976 0.02630905447 1.306871278e-13)
(-0.001415317359 0.03254336196 1.632582958e-13)
(-0.001125867946 0.03431506237 1.7214008e-13)
(-0.0009111954103 0.02794357135 1.388056337e-13)
(-2.85795681e-05 0.0301211454 1.496303081e-13)
(-3.061231233e-05 0.03665541953 1.83908444e-13)
(0.0003567274831 0.03640045964 1.826316876e-13)
(0.0002863372004 0.02988285026 1.48464574e-13)
(0.001083560809 0.02635663505 1.309508058e-13)
(0.001357250288 0.03259456667 1.635636071e-13)
(0.001586919686 0.03038173438 1.524613769e-13)
(0.001255448672 0.02432977302 1.208894096e-13)
(0.001365498827 0.01644605545 8.171241461e-14)
(0.001811796412 0.02157914212 1.083022561e-13)
(0.001718866655 0.01818435108 9.126033262e-14)
(0.001261184129 0.01348918875 6.702971511e-14)
(0.0006453625478 0.005166695962 2.567390744e-14)
(0.001031423904 0.008171805183 4.100886297e-14)
(0.0007296769105 0.005334179148 2.675637489e-14)
(0.0004053257057 0.002993710111 1.487698853e-14)
(0 0 0)
(3.50814623e-05 0.0002077367639 1.040834086e-15)
(0 0 0)
(0 0 0)
(0 0 0)
(0 0 0)
(0 0 0)
(0 0 0)
(0 0 0)
(0 0 0)
(0 0 0)
(0 0 0)
(0 0 0)
(0 0 0)
(0 0 0)
(0 0 0)
(0 0 0)
(0 0 0)
(0 0 0)
(0 0 0)
(0 0 0)
(0 0 0)
(0 0 0)
(0 0 0)
(0 0 0)
(0 0 0)
(0 0 0)
(0 0 0)
(0 0 0)
(0 0 0)
(0 0 0)
(0 0 0)
(0 0 0)
(0 0 0)
(0 0 0)
(0 0 0)
(0 0 0)
(0 0 0)
(0 0 0)
(0 0 0)
(0 0 0)
(-1.520415122e-05 7.129389532e-05 3.747002708e-16)
(0 0 0)
(-0.0006474088656 0.00365213312 1.888766921e-14)
(-0.0009623843027 0.005365052073 2.803313137e-14)
(-0.001506680124 0.008965571696 4.683753385e-14)
(-0.001106060101 0.006655644085 3.441691376e-14)
(-0.002532835998 0.01905053624 9.850453786e-14)
(-0.003075020527 0.02290186667 1.196265309e-13)
(-0.003442188274 0.02796864326 1.460914723e-13)
(-0.002894522022 0.02374933382 1.227906665e-13)
(-0.003308665535 0.03731051715 1.92873495e-13)
(-0.003774293992 0.04215512679 2.201572258e-13)
(-0.003614924303 0.04612391387 2.408906408e-13)
(-0.003200219642 0.04122387094 2.131073096e-13)
(-0.002229643841 0.05004609172 2.587235981e-13)
(-0.002464185768 0.05479815707 2.862154957e-13)
(-0.001915248432 0.05656951379 2.95485858e-13)
(-0.001741619383 0.05191278047 2.683825384e-13)
(-3.272167486e-05 0.05429496415 2.807615251e-13)
(-3.390992615e-05 0.05878353704 3.071154442e-13)
(0.0006147308468 0.05854767317 3.059080766e-13)
(0.0005598367136 0.05403917761 2.794570131e-13)
(0.002163559212 0.05009395739 2.591121762e-13)
(0.002395454392 0.05483907521 2.866040738e-13)
(0.002874643771 0.0525229215 2.745165206e-13)
(0.002580907487 0.04769450725 2.467193116e-13)
(0.003248673754 0.03741458695 1.935673843e-13)
(0.003710285575 0.04222923608 2.207400929e-13)
(0.00373902203 0.03781855597 1.977029651e-13)
(0.003237736773 0.03313539498 1.714323128e-13)
(0.00248868161 0.01904281818 9.853229344e-14)
(0.003099147094 0.02337221271 1.222077994e-13)
(0.002675324702 0.01860575311 9.731104811e-14)
(0.002121839177 0.01494706725 7.734091145e-14)
(0.0007373661678 0.004216698995 2.181588243e-14)
(0.00110165789 0.006231839554 3.258504577e-14)
(0.0006219871128 0.003312305948 1.731947918e-14)
(0.0003555166529 0.001913694917 9.908740495e-15)
(0 0 0)
(0 0 0)
(0 0 0)
(0 0 0)
(0 0 0)
(0 0 0)
(0 0 0)
(0 0 0)
(0 0 0)
(0 0 0)
(0 0 0)
(0 0 0)
(0 0 0)
(0 0 0)
(0 0 0)
(0 0 0)
(0 0 0)
(0 0 0)
(0 0 0)
(0 0 0)
(0 0 0)
(0 0 0)
(0 0 0)
(0 0 0)
(0 0 0)
(0 0 0)
(0 0 0)
(0 0 0)
(0 0 0)
(0 0 0)
(0 0 0)
(0 0 0)
(0 0 0)
(0 0 0)
(0 0 0)
(-7.027365032e-05 0.0003032870214 1.637578961e-15)
(-0.000159817154 0.000682244965 3.719247132e-15)
(-0.0005677396959 0.002549872693 1.391942117e-14)
(-0.000381666701 0.001732925617 9.353628982e-15)
(-0.002245789442 0.01209153082 6.525335827e-14)
(-0.002657133807 0.01415208977 7.718825579e-14)
(-0.003427730502 0.01946430693 1.061650767e-13)
(-0.002971347373 0.0170567895 9.203748874e-14)
(-0.004706171938 0.03374536217 1.820071871e-13)
(-0.005197758345 0.03682971616 2.008115896e-13)
(-0.005486256712 0.04238101752 2.310512892e-13)
(-0.005014776049 0.03923510334 2.115668751e-13)
(-0.004987897761 0.05380558205 2.89990254e-13)
(-0.005294314442 0.05630336602 3.067684995e-13)
(-0.004901395995 0.05960241851 3.247124791e-13)
(-0.004634593399 0.05712622735 3.078926003e-13)
(-0.002965402156 0.0638154564 3.439609708e-13)
(-0.003059568915 0.06488117289 3.534811333e-13)
(-0.002323860463 0.06549625977 3.568534357e-13)
(-0.002269294881 0.06484366392 3.495259637e-13)
(-4.484832622e-05 0.06585804299 3.550770789e-13)
(-5.084377864e-05 0.06582917851 3.587546926e-13)
(0.0007107179907 0.0658136013 3.586991815e-13)
(0.0007072944651 0.06576179681 3.545913563e-13)
(0.002899214638 0.06390398938 3.446964936e-13)
(0.002983137361 0.06492128153 3.539668558e-13)
(0.003676423104 0.06384217131 3.481381849e-13)
(0.003549913231 0.06239058384 3.365779877e-13)
(0.004925914641 0.05385191063 2.906286323e-13)
(0.005239556479 0.05641147518 3.078370892e-13)
(0.005507931406 0.05266936755 2.874922522e-13)
(0.005126406009 0.04966887097 2.681327382e-13)
(0.004764387904 0.03466020031 1.871697242e-13)
(0.005249700261 0.03776327813 2.061545379e-13)
(0.004815757556 0.03200712512 1.747213485e-13)
(0.004320303504 0.02903882793 1.568051244e-13)
(0.002360769257 0.01291996732 6.974976152e-14)
(0.002782143182 0.01505659866 8.217038161e-14)
(0.002007251743 0.01022876699 5.581646256e-14)
(0.001644839326 0.008476232835 4.57550664e-14)
(0.0001087024944 0.0004763796904 2.567390744e-15)
(0.0001867368334 0.000809181432 4.413136523e-15)
(4.740922704e-06 1.956404358e-05 1.110223025e-16)
(0 0 0)
(0 0 0)
(0 0 0)
(0 0 0)
(0 0 0)
(0 0 0)
(0 0 0)
(0 0 0)
(0 0 0)
(0 0 0)
(0 0 0)
(0 0 0)
(0 0 0)
(0 0 0)
(0 0 0)
(0 0 0)
(0 0 0)
(0 0 0)
(0 0 0)
(0 0 0)
(0 0 0)
(0 0 0)
(0 0 0)
(0 0 0)
(0 0 0)
(0 0 0)
(0 0 0)
(0 0 0)
(0 0 0)
(-6.688527908e-06 2.455703298e-05 1.387778781e-16)
(-1.825113e-07 6.779332604e-07 0)
(0 0 0)
(-0.0005017752199 0.002071477515 1.168509733e-14)
(-0.0006333334119 0.002584992407 1.473821065e-14)
(-0.001314213553 0.005643538734 3.219646771e-14)
(-0.001121225676 0.004869932379 2.747801986e-14)
(-0.00364595102 0.01877800895 1.058597654e-13)
(-0.003968242029 0.02020459144 1.151995166e-13)
(-0.004823200742 0.02617902109 1.492417301e-13)
(-0.004570548207 0.02509759712 1.414840467e-13)
(-0.006336116015 0.04338610201 2.444988656e-13)
(-0.006594551192 0.04462492961 2.543243394e-13)
(-0.006775893768 0.0499512252 2.846611835e-13)
(-0.006543281011 0.04881485695 2.750855099e-13)
(-0.005930202863 0.06045783243 3.406580573e-13)
(-0.006046439595 0.060852083 3.467920395e-13)
(-0.005449001435 0.06243044514 3.557987238e-13)
(-0.005381895088 0.06252524027 3.522737657e-13)
(-0.003168865973 0.06370040446 0)
(-0.003205326369 0.06296213122 0)
(-0.002821640924 0.06296555386 0)
(-0.002417198646 0.06298548926 0)
(-0.002395753492 0.06335092184 0)
(-0.00238928955 0.06370761327 0)
(-6.927570734e-05 0.06370281516 0)
(-7.224636112e-05 0.06334810358 0)
(0.0003163562309 0.06334516001 0)
(0.0003172219945 0.06369985586 0)
(0.003055322918 0.06364757513 0)
(0.003063869632 0.06328317195 0)
(0.003075125245 0.06291310158 0)
(0.003461601463 0.06289872024 0)
(0.003842524863 0.06289140767 0)
(0.003831830854 0.06362313268 0)
(0.005852436682 0.06078838229 3.43031159e-13)
(0.005950103101 0.06112880721 3.488598299e-13)
(0.006417771932 0.05867191794 3.348710198e-13)
(0.006273007318 0.05799088636 3.272521143e-13)
(0.00637859034 0.04435001186 2.503136587e-13)
(0.006611518336 0.04542903494 2.593619763e-13)
(0.00628545394 0.03989354625 2.277622535e-13)
(0.005998282302 0.03852433717 2.174371794e-13)
(0.003884829323 0.02030648761 1.146027717e-13)
(0.004248889485 0.02195463895 1.253303017e-13)
(0.003350466268 0.01630319699 9.305056725e-14)
(0.003017570242 0.01485340881 8.382183836e-14)
(0.0006729530382 0.002818738264 1.590394483e-14)
(0.0008411363544 0.003483027892 1.987299214e-14)
(0.0003014133621 0.001188892349 6.786238238e-15)
(0.000205083232 0.0008182376481 4.62130334e-15)
(0 0 0)
(0 0 0)
(0 0 0)
(0 0 0)
(0 0 0)
(0 0 0)
(0 0 0)
(0 0 0)
(0 0 0)
(0 0 0)
(0 0 0)
(0 0 0)
(0 0 0)
(0 0 0)
(0 0 0)
(0 0 0)
(0 0 0)
(0 0 0)
(0 0 0)
(0 0 0)
(0 0 0)
(0 0 0)
(0 0 0)
(0 0 0)
(0 0 0)
(0 0 0)
(0 0 0)
(0 0 0)
(-6.026744358e-05 0.0002109879504 1.276756478e-15)
(-3.434463697e-05 0.0001216970322 7.21644966e-16)
(-2.809690588e-05 0.0001007486675 5.967448757e-16)
(-0.0009099891981 0.003585238085 2.117750419e-14)
(-0.0009437225412 0.003673846891 2.195466031e-14)
(-0.001747615251 0.007157218033 4.277134202e-14)
(-0.001701571297 0.007052858578 4.1661119e-14)
(-0.004581866122 0.02250915135 1.32893696e-13)
(-0.004653787 0.02258734436 1.349337309e-13)
(-0.005543178139 0.02867392019 1.712796571e-13)
(-0.005467151012 0.02862516336 1.689620666e-13)
(-0.007110637319 0.04637353227 2.736699756e-13)
(-0.00717866941 0.0462459511 2.761679774e-13)
(-0.007278092798 0.05105326984 3.048672426e-13)
(-0.00721859 0.05126769632 3.025357742e-13)
(-0.00621246573 0.06014091281 3.549105454e-13)
(-0.006234133923 0.05957370239 3.557987238e-13)
(-0.005528341652 0.06006552158 0)
(-0.005521321494 0.06078678645 3.587546926e-13)
(-0.00324904776 0.06077714823 0)
(-0.003254210928 0.06041115715 0)
(-0.002875724997 0.06041021011 0)
(-0.002870599817 0.06077562493 0)
(0.00308223404 0.06073547703 0)
(0.00308138338 0.06037300067 0)
(0.003459739071 0.06036836408 0)
(0.0034609837 0.06073030059 0)
(0.006083505851 0.0603956954 3.569922136e-13)
(0.006092757119 0.05982574267 3.578665142e-13)
(0.006708807994 0.05860313814 3.505945534e-13)
(0.006675862467 0.05896695655 3.485822742e-13)
(0.007264435986 0.04823253644 2.851607839e-13)
(0.007355545372 0.04828423267 2.889077866e-13)
(0.007107243655 0.04308874572 2.578076641e-13)
(0.007003579378 0.04295049898 2.539218835e-13)
(0.004989987647 0.02490432497 1.472016953e-13)
(0.00510367803 0.0251756827 1.505878755e-13)
(0.00414631067 0.01925665354 1.15171761e-13)
(0.004039077042 0.01898068426 1.121880366e-13)
(0.001220421673 0.004879407847 2.882416528e-14)
(0.001378169095 0.005444557584 3.25572902e-14)
(0.0006573948948 0.002473880772 1.47937218e-14)
(0.0005411785501 0.002061053451 1.217081991e-14)
(0 0 0)
(0 0 0)
(0 0 0)
(0 0 0)
(0 0 0)
(0 0 0)
(0 0 0)
(0 0 0)
(0 0 0)
(0 0 0)
(0 0 0)
(0 0 0)
(0 0 0)
(0 0 0)
(0 0 0)
(0 0 0)
(0 0 0)
(0 0 0)
(0 0 0)
(0 0 0)
(0 0 0)
(0 0 0)
(0 0 0)
(0 0 0)
(0 0 0)
(0 0 0)
(0 0 0)
(0 0 0)
(-9.893184525e-05 0.0003296057305 2.095545959e-15)
(-8.935548061e-05 0.000301476879 1.887379142e-15)
(-7.839029995e-05 0.0002677967972 1.651456749e-15)
(-0.001121206834 0.004207686783 2.609024108e-14)
(-0.001159325971 0.004297006472 2.696454171e-14)
(-0.002021778509 0.007883262185 4.947431353e-14)
(-0.001974183982 0.007794090516 4.830857936e-14)
(-0.00494036324 0.02311016778 1.431910146e-13)
(-0.00499859757 0.02309079318 1.448563491e-13)
(-0.005877617165 0.02893087785 1.814798312e-13)
(-0.00582134512 0.02901761886 1.797728633e-13)
(-0.007372934048 0.04573763596 2.832734047e-13)
(-0.007412034355 0.0453939409 2.846750613e-13)
(-0.007464502553 0.04975889483 3.120420589e-13)
(-0.007433212787 0.05019459239 3.108902025e-13)
(-0.006274629781 0.05765909611 3.571726248e-13)
(-0.006283410657 0.0569809675 3.573807916e-13)
(-0.00555025818 0.05719330452 0)
(-0.005545242107 0.05790957542 0)
(-0.003276622325 0.05789132461 0)
(-0.00327934824 0.05753294194 0)
(-0.002901825539 0.05752995753 0)
(-0.002899049821 0.05788833978 0)
(0.003066812416 0.05784368137 0)
(0.003063902991 0.05748319176 0)
(0.003441356257 0.05747984268 0)
(0.00344433057 0.05784014913 0)
(0.006089311978 0.05780764764 3.587130593e-13)
(0.006083200694 0.05709526194 3.587408148e-13)
(0.006761383785 0.05643347807 3.546329896e-13)
(0.006757825494 0.05705684892 3.540778781e-13)
(0.007591326008 0.04812026856 2.986638714e-13)
(0.0076328234 0.04781334254 3.005096172e-13)
(0.007456839515 0.04312409594 2.710193181e-13)
(0.007402362206 0.0433235332 2.688821388e-13)
(0.005511569226 0.0262288366 1.627586954e-13)
(0.005593015463 0.02629353791 1.652011861e-13)
(0.004642667 0.02054569335 1.290634266e-13)
(0.004558608698 0.02042241871 1.267042027e-13)
(0.00158054929 0.006022305986 3.734512699e-14)
(0.001644892918 0.006190389128 3.887168365e-14)
(0.0008482870763 0.00304075591 1.909583602e-14)
(0.0007996915286 0.00290231832 1.7985613e-14)
(0 0 0)
(0 0 0)
(0 0 0)
(0 0 0)
(0 0 0)
(0 0 0)
(0 0 0)
(0 0 0)
(0 0 0)
(0 0 0)
(0 0 0)
(0 0 0)
(0 0 0)
(0 0 0)
(0 0 0)
(0 0 0)
(0 0 0)
(0 0 0)
(0 0 0)
(0 0 0)
(0 0 0)
(0 0 0)
(0 0 0)
(0 0 0)
(0 0 0)
(0 0 0)
(0 0 0)
(0 0 0)
(-0.0001459357189 0.0004615795826 3.094746681e-15)
(-0.000131571429 0.0004216907123 2.789435349e-15)
(-0.0001187819806 0.0003857148482 2.525757381e-15)
(-0.001254171492 0.004474404648 2.917110997e-14)
(-0.001292589164 0.004551651814 3.007316618e-14)
(-0.002186417029 0.008098778189 5.3498872e-14)
(-0.002139263769 0.008028414999 5.234701561e-14)
(-0.005140956427 0.02284978475 1.48922541e-13)
(-0.005197273644 0.02279743607 1.505323644e-13)
(-0.006069255901 0.02836097824 1.872529909e-13)
(-0.006015103641 0.02848262318 1.856154119e-13)
(-0.0075079001 0.04420621364 2.880196082e-13)
(-0.007544881383 0.04383051654 2.893241202e-13)
(-0.007570802578 0.04785572 3.158862061e-13)
(-0.00754147992 0.04831957985 3.148037386e-13)
(-0.006305736954 0.05491623033 3.578526364e-13)
(-0.006313108528 0.05422757715 3.580191699e-13)
(-0.005569176786 0.05433423798 0)
(-0.005564558244 0.05504861954 0)
(-0.003297415392 0.05503044739 0)
(-0.00329991392 0.05467345741 0)
(-0.002922905158 0.05467056027 0)
(-0.002921622554 0.05484907159 0)
(-0.002920341191 0.0550274335 0)
(0.003039412965 0.05496295313 0)
(0.003035419179 0.05460383389 0)
(0.003412445782 0.05460108602 0)
(0.003416488406 0.05496008864 0)
(0.006059451741 0.05493514795 3.58726937e-13)
(0.006049973578 0.05420915914 3.586575481e-13)
(0.006714447809 0.05346888245 3.538003224e-13)
(0.006731557797 0.05424738764 3.542721672e-13)
(0.007584613865 0.04582021377 2.992744941e-13)
(0.007551090118 0.04505886898 2.981781488e-13)
(0.007366971506 0.04056848079 2.684519274e-13)
(0.007403408995 0.04127953304 2.696037837e-13)
(0.005530995064 0.02504973645 1.635497293e-13)
(0.00549404398 0.024568154 1.62522773e-13)
(0.004546741954 0.01913422612 1.265654248e-13)
(0.004581286418 0.01952757683 1.274813588e-13)
(0.00160065098 0.005799700022 3.784472735e-14)
(0.001579801808 0.005650654678 3.735900478e-14)
(0.0008002450139 0.002726007019 1.801336857e-14)
(0.0008150066204 0.002812492311 1.834643548e-14)
(0 0 0)
(0 0 0)
(0 0 0)
(0 0 0)
(0 0 0)
(0 0 0)
(0 0 0)
(0 0 0)
(0 0 0)
(0 0 0)
(0 0 0)
(0 0 0)
(0 0 0)
(0 0 0)
(0 0 0)
(0 0 0)
(0 0 0)
(0 0 0)
(0 0 0)
(0 0 0)
(0 0 0)
(0 0 0)
(0 0 0)
(0 0 0)
(0 0 0)
(0 0 0)
(0 0 0)
(0 0 0)
(-0.0002089860636 0.0006257914928 4.413136523e-15)
(-0.0001919068181 0.000582732095 4.066191828e-15)
(-0.0001753873274 0.0005399577545 3.719247132e-15)
(-0.001412684077 0.004778230325 3.286260153e-14)
(-0.001454986301 0.004853872392 3.384792446e-14)
(-0.002383569711 0.00836368067 5.831446437e-14)
(-0.002332548659 0.008298561439 5.707934125e-14)
(-0.005369403901 0.02261368557 1.55458979e-13)
(-0.005428700469 0.02254694625 1.571520691e-13)
(-0.006290841488 0.0278279107 1.939282068e-13)
(-0.006234216457 0.02796605526 1.922351167e-13)
(-0.007656305203 0.04267231628 2.932376564e-13)
(-0.007694074279 0.04227855433 2.94569924e-13)
(-0.007688124118 0.04595385927 3.201744425e-13)
(-0.007658583298 0.04643490395 3.190919751e-13)
(-0.006333439839 0.05214428289 3.584077479e-13)
(-0.006339601684 0.05144470733 3.585048924e-13)
(-0.005586901091 0.0514750453 0)
(-0.005582594521 0.0521898445 0)
(-0.003316845319 0.05217178354 0)
(-0.003319130791 0.05181445974 0)
(-0.002942769603 0.05181155138 0)
(-0.002941585365 0.05199021294 0)
(-0.002940384801 0.05216884115 0)
(0.003004691296 0.05209413953 0)
(0.002999672387 0.05173552687 0)
(0.00337633694 0.05173316386 0)
(0.003381438026 0.05209167623 0)
(0.006008218528 0.05193876756 3.578248808e-13)
(0.005986425891 0.05112093002 3.571032359e-13)
(0.006578779013 0.04988654661 3.484990074e-13)
(0.006626215422 0.05087597432 3.505251644e-13)
(0.007299538957 0.04193791563 2.889632977e-13)
(0.007151127779 0.04055602052 2.833427937e-13)
(0.006941693891 0.03631267396 2.536859611e-13)
(0.007063670586 0.0374374626 2.57946442e-13)
(0.005093911588 0.02190447365 1.50879309e-13)
(0.004966504257 0.02107243989 1.471600619e-13)
(0.004025179207 0.01606752118 1.121880366e-13)
(0.004144323754 0.01676729183 1.154631946e-13)
(0.001291381708 0.004438855402 3.055888875e-14)
(0.001222085904 0.004143887281 2.892130979e-14)
(0.0005432459485 0.001754083156 1.224020885e-14)
(0.0005897342316 0.001930361306 1.328104293e-14)
(0 0 0)
(0 0 0)
(0 0 0)
(0 0 0)
(0 0 0)
(0 0 0)
(0 0 0)
(0 0 0)
(0 0 0)
(0 0 0)
(0 0 0)
(0 0 0)
(0 0 0)
(0 0 0)
(0 0 0)
(0 0 0)
(0 0 0)
(0 0 0)
(0 0 0)
(0 0 0)
(0 0 0)
(0 0 0)
(0 0 0)
(0 0 0)
(0 0 0)
(0 0 0)
(0 0 0)
(0 0 0)
(-0.0002641234333 0.0007463720007 5.592748487e-15)
(-0.0002731479736 0.0007833859058 5.787037516e-15)
(-0.0002493475557 0.0007256390813 5.287437155e-15)
(-0.001593239871 0.005093476248 3.706757123e-14)
(-0.001647291922 0.005189822212 3.833044993e-14)
(-0.002612799439 0.008657336297 6.392109064e-14)
(-0.002548790137 0.008569885091 6.235290062e-14)
(-0.00561775449 0.02234937243 1.625366508e-13)
(-0.00568976055 0.02230370424 1.645905634e-13)
(-0.006538859502 0.02729400945 2.013805789e-13)
(-0.006470681127 0.02741318405 1.993405441e-13)
(-0.007812248549 0.04108871928 2.987055048e-13)
(-0.007856157874 0.04070292307 3.002459392e-13)
(-0.007813413239 0.04402254979 3.247402347e-13)
(-0.007779758151 0.0445000909 3.235051116e-13)
(-0.00635623896 0.04933134577 3.587130593e-13)
(-0.006361211692 0.04862143609 3.587408148e-13)
(-0.005603572509 0.04861669059 0)
(-0.005599416726 0.04933132502 0)
(-0.003334047141 0.04931353284 0)
(-0.00333601692 0.04895623963 0)
(-0.002960368882 0.0489534202 0)
(-0.002959350239 0.04913213294 0)
(-0.002958316098 0.04931071272 0)
(0.002961842013 0.04923221686 0)
(0.00295578703 0.04887479154 0)
(0.003332321256 0.04887272844 0)
(0.003338492445 0.0492301528 0)
(0.005893930918 0.0484813785 3.534117443e-13)
(0.005848496792 0.04749798767 3.513578317e-13)
(0.006334669169 0.04562782094 3.375355551e-13)
(0.00641142005 0.04679014518 3.411160243e-13)
(0.006731300637 0.03667533472 2.673694599e-13)
(0.006620610367 0.03558066091 2.632061236e-13)
(0.006266855288 0.03104566051 2.296496326e-13)
(0.006463739816 0.03246983984 2.366995489e-13)
(0.004390181848 0.0178718689 1.302291608e-13)
(0.004115101327 0.0165152264 1.221245327e-13)
(0.003187611856 0.01203331309 8.895661985e-14)
(0.003463507092 0.01326268451 9.663103651e-14)
(0.0008670306845 0.002819035879 2.053912596e-14)
(0.0007571975197 0.002426722344 1.793010185e-14)
(0.0002458708078 0.0007503062235 5.551115123e-15)
(0.0003094744538 0.0009581109492 6.96664948e-15)
(0 0 0)
(0 0 0)
(0 0 0)
(0 0 0)
(0 0 0)
(0 0 0)
(0 0 0)
(0 0 0)
(0 0 0)
(0 0 0)
(0 0 0)
(0 0 0)
(0 0 0)
(0 0 0)
(0 0 0)
(0 0 0)
(0 0 0)
(0 0 0)
(0 0 0)
(0 0 0)
(0 0 0)
(0 0 0)
(0 0 0)
(0 0 0)
(0 0 0)
(0 0 0)
(0 0 0)
(0 0 0)
(-0.0004695272958 0.001247413815 9.93649607e-15)
(-0.000428075735 0.001155465794 9.062195439e-15)
(-0.0003663746367 0.001004397487 7.771561172e-15)
(-0.001820937751 0.005483210758 4.235500839e-14)
(-0.001956167534 0.005799405422 4.549138843e-14)
(-0.002964486037 0.009242037628 7.249756351e-14)
(-0.002799510176 0.008865038485 6.847300504e-14)
(-0.005933103501 0.02221774255 1.715017017e-13)
(-0.006040591879 0.02226675232 1.745686928e-13)
(-0.006855039019 0.02690079741 2.10859108e-13)
(-0.00676793446 0.02698220769 2.082500838e-13)
(-0.008000533005 0.03956594774 3.053113318e-13)
(-0.008022052318 0.03904260981 3.059774656e-13)
(-0.007961345954 0.04212344658 3.301248164e-13)
(-0.007922726992 0.04259955508 3.28709282e-13)
(-0.00637528171 0.0464792226 0)
(-0.006380416396 0.0457646627 0)
(-0.005621651837 0.04575872941 0)
(-0.005619151931 0.04611588541 0)
(-0.005616751355 0.04647307543 0)
(-0.003349007149 0.04645534655 0)
(-0.003349940307 0.04627693194 0)
(-0.003162065934 0.04627558822 0)
(-0.003161149791 0.04645395316 0)
(-8.985918338e-05 0.04638592379 0)
(-9.266828326e-05 0.04629696006 0)
(-9.487922388e-05 0.04620797477 0)
(8.908045382e-05 0.04620853957 0)
(9.438326757e-05 0.04638635344 0)
(0.002905104046 0.04637716651 0)
(0.002896305713 0.04602125815 0)
(0.0028873588 0.04566545063 0)
(0.003642649707 0.04566105697 0)
(0.003659584402 0.04637312822 0)
(0.003282485056 0.04637511299 0)
(0.005671219738 0.04428576637 3.426980921e-13)
(0.005579247069 0.04298477462 3.378269886e-13)
(0.005922976759 0.04040970404 3.176070518e-13)
(0.006075436257 0.04202479359 3.252259573e-13)
(0.006064924697 0.03123475448 2.41723308e-13)
(0.005848229716 0.02968116967 2.33285613e-13)
(0.005410609579 0.02530131728 1.988409437e-13)
(0.005637687551 0.02675513729 2.070427163e-13)
(0.003410770675 0.01310076792 1.013356066e-13)
(0.003205463179 0.01212803547 9.52710133e-14)
(0.002341982084 0.008332721982 6.54476473e-14)
(0.002522641077 0.009112370066 7.047140649e-14)
(0.0003580013822 0.001097449751 8.479328351e-15)
(0.0002910141062 0.0008785976069 6.89726054e-15)
(2.306943167e-05 6.631541238e-05 5.273559367e-16)
(4.407597425e-05 0.0001286507087 9.992007222e-16)
(0 0 0)
(0 0 0)
(0 0 0)
(0 0 0)
(0 0 0)
(0 0 0)
(0 0 0)
(0 0 0)
(0 0 0)
(0 0 0)
(0 0 0)
(0 0 0)
(0 0 0)
(0 0 0)
(0 0 0)
(0 0 0)
(0 0 0)
(0 0 0)
(0 0 0)
(0 0 0)
(0 0 0)
(0 0 0)
(0 0 0)
(0 0 0)
(0 0 0)
(0 0 0)
(0 0 0)
(0 0 0)
(-0.0004452492561 0.001112776955 9.464651285e-15)
(-0.000503160714 0.001278841892 1.071365219e-14)
(-0.0005376561355 0.001389313446 1.143529715e-14)
(-0.002165726976 0.006148671095 5.061229214e-14)
(-0.002096063458 0.005853095707 4.898859096e-14)
(-0.003123319882 0.009172776528 7.675804437e-14)
(-0.003206791788 0.009575500952 7.881195696e-14)
(-0.006303946797 0.02226905819 1.831867991e-13)
(-0.00620102384 0.02154246794 1.801614413e-13)
(-0.006999627715 0.02589179577 2.165073676e-13)
(-0.007100629329 0.02670948985 2.196715032e-13)
(-0.008156212866 0.03809194722 3.132355486e-13)
(-0.008086063481 0.03712817433 3.103906021e-13)
(-0.007959864284 0.03975462785 3.323452624e-13)
(-0.008012447149 0.04070679107 3.347322419e-13)
(-0.006311927769 0.04361328053 0)
(-0.006317860263 0.04289861104 0)
(-0.005556973818 0.0428922949 0)
(-0.00555400826 0.04324954664 0)
(-0.005551041323 0.04360696439 0)
(-0.00326841519 0.04358801624 0)
(-0.003271382126 0.04323059849 0)
(-0.002890955505 0.04322744055 0)
(-0.002889471347 0.04340623243 0)
(-0.002887988568 0.0435848583 0)
(-0.003078201879 0.04358643727 0)
(-0.0002249197578 0.04356275208 0)
(-0.0002264022189 0.04338412621 0)
(-0.000227886217 0.04320533433 0)
(0.0001525520939 0.0432021763 0)
(0.0001555190302 0.04355959405 0)
(0.002818576766 0.04353748792 0)
(0.002812644271 0.04282281843 0)
(0.003560302891 0.04265287573 3.573807916e-13)
(0.003576718841 0.04349677173 3.584771369e-13)
(0.005307950905 0.03924533545 3.235745005e-13)
(0.005181042441 0.03778158848 3.166633622e-13)
(0.005406600556 0.03485929128 2.921968223e-13)
(0.005560969924 0.03637336654 2.999128723e-13)
(0.005093215102 0.02470708954 2.036981694e-13)
(0.004888000965 0.02334790155 1.956906859e-13)
(0.004343537891 0.01909654902 1.600525268e-13)
(0.00464148005 0.02073355786 1.709327124e-13)
(0.002418366131 0.008732653155 7.197020757e-14)
(0.00210702799 0.007487032347 6.272760089e-14)
(0.001429990196 0.004777040697 4.000966225e-14)
(0.001629718431 0.005532840595 4.558853295e-14)
(5.990641656e-05 0.0001725323338 1.415534356e-15)
(2.705854575e-05 7.66770109e-05 6.383782392e-16)
(0 0 0)
(0 0 0)
(0 0 0)
(0 0 0)
(0 0 0)
(0 0 0)
(0 0 0)
(0 0 0)
(0 0 0)
(0 0 0)
(0 0 0)
(0 0 0)
(0 0 0)
(0 0 0)
(0 0 0)
(0 0 0)
(0 0 0)
(0 0 0)
(0 0 0)
(0 0 0)
(0 0 0)
(0 0 0)
(0 0 0)
(0 0 0)
(0 0 0)
(0 0 0)
(0 0 0)
(0 0 0)
(0 0 0)
(0 0 0)
(-0.0001040207185 0.0002423457781 2.220446049e-15)
(-0.000188733847 0.0004477013197 4.024558464e-15)
(-0.0002803800807 0.0006769743465 5.967448757e-15)
(-0.001606473461 0.004261596299 3.755329381e-14)
(-0.001372769231 0.003577867439 3.208544541e-14)
(-0.002233602324 0.00612256883 5.490052857e-14)
(-0.002526135722 0.007047751378 6.208922265e-14)
(-0.005433615493 0.01792898397 1.578598363e-13)
(-0.005038723822 0.01633533017 1.464106614e-13)
(-0.005834027442 0.02013635052 1.804389971e-13)
(-0.006234240539 0.02190075857 1.927902282e-13)
(-0.007503129374 0.03270122903 2.877975636e-13)
(-0.007173365131 0.03071395188 2.751410211e-13)
(-0.007206743657 0.03355151017 3.005790061e-13)
(-0.007488529915 0.03549042162 3.123473702e-13)
(-0.006265813668 0.04031347768 3.548827898e-13)
(-0.00616588603 0.03895162071 3.490263634e-13)
(-0.005532276171 0.03969360947 3.557154571e-13)
(-0.005571379093 0.04072368519 3.585465258e-13)
(-0.003292147924 0.04072900625 0)
(-0.003298081797 0.04001417075 0)
(-0.002537211953 0.04000785475 0)
(-0.00253127808 0.04072269025 0)
(-0.002911721303 0.04072584832 0)
(-0.0002486519465 0.04070374209 0)
(-0.0002545858191 0.03998890659 0)
(0.0005062890054 0.03998259055 0)
(0.000512222878 0.04069742605 0)
(0.002771098334 0.04031599731 3.555628014e-13)
(0.002724340828 0.03899177502 3.500255641e-13)
(0.003364390411 0.03779176293 3.392980341e-13)
(0.003447437789 0.03938787733 3.4741654e-13)
(0.004754234821 0.0329697462 2.908923102e-13)
(0.004548801989 0.03099157608 2.783051567e-13)
(0.00461578469 0.027788785 2.495503804e-13)
(0.004855484538 0.02975656101 2.625399897e-13)
(0.004041518282 0.01835453941 1.619121504e-13)
(0.003753408651 0.01674409977 1.503380753e-13)
(0.00317416338 0.01303561089 1.170313846e-13)
(0.00345554388 0.01444705805 1.274258477e-13)
(0.001347403055 0.004552404043 4.013456234e-14)
(0.001157426421 0.003841503965 3.447242491e-14)