/*--------------------------------*- C++ -*----------------------------------*\
| =========                 |                                                 |
| \\      /  F ield         | OpenFOAM: The Open Source CFD Toolbox           |
|  \\    /   O peration     | Version:  v1912                                 |
|   \\  /    A nd           | Website:  www.openfoam.com                      |
|    \\/     M anipulation  |                                                 |
\*---------------------------------------------------------------------------*/
FoamFile
{
    version     2.0;
    format      ascii;
    class       surfaceVectorField;
    location    "2.22";
    object      Uf;
}
// * * * * * * * * * * * * * * * * * * * * * * * * * * * * * * * * * * * * * //

dimensions      [0 1 -1 0 0 0 0];


internalField   nonuniform List<vector> 
25162
(
(99.99886516 0.004622144944 -1.932872734e-21)
(99.99567131 0.004067351735 5.726746309e-21)
(99.99818866 0.01147631065 -1.908548498e-21)
(99.99358404 0.0141715747 1.93311784e-21)
(99.99687098 0.02324852631 -3.806881717e-21)
(99.98898274 0.03104785745 1.149063456e-20)
(99.99850008 0.0272039846 1.181149355e-21)
(99.9807304 0.05929479637 -7.563524989e-21)
(99.99151042 0.06048462148 -1.265554255e-21)
(99.99744647 0.04969688735 1.835165354e-21)
(99.99918438 0.02992982528 9.08740869e-22)
(99.99002096 0.08442612833 1.82453023e-21)
(99.99770285 0.04824016083 8.926257123e-22)
(99.99830085 0.0375676179 -9.201834313e-22)
(99.99714006 0.06166321013 8.925892549e-22)
(99.98441115 0.1388374492 1.776859276e-21)
(99.99684973 0.07833377715 0)
(99.99664737 0.09679214716 -3.263735723e-21)
(99.97938643 0.2140131065 -3.263718736e-21)
(99.99615362 0.1188416098 -8.486260117e-22)
(99.99558901 0.1444248156 2.84450324e-21)
(99.97278987 0.3161761336 3.103963125e-21)
(99.99504643 0.1735567986 3.829329471e-22)
(99.99458596 0.2059200153 -2.539755813e-21)
(99.96732715 0.4452721816 3.63379327e-22)
(99.99425879 0.2408849309 -2.597249965e-21)
(99.99414401 0.2774288141 2.716713283e-22)
(99.96592935 0.5905469576 -1.725597555e-21)
(99.9943449 0.3138874865 2.303180503e-21)
(99.99492138 0.3482448139 1.967034081e-21)
(99.97208615 0.727154203 -8.662974567e-22)
(99.99585906 0.3781781988 0)
(99.9972048 0.4012643801 0)
(99.98689986 0.8176889813 1.843166633e-22)
(99.99880225 0.4153115133 0)
(100.0003999 0.4196258615 4.427035262e-22)
(100.0056893 0.8343751553 -7.080690743e-24)
(100.0019512 0.4135729026 9.850614141e-22)
(100.003357 0.3982564955 -2.071162828e-22)
(100.021611 0.7753455772 -6.129435464e-22)
(100.004422 0.3751353074 -1.094257665e-21)
(100.0051066 0.3464143339 8.955718294e-23)
(100.0301751 0.6616654479 1.776466166e-21)
(100.0054834 0.3141585504 4.557126767e-22)
(100.0055572 0.2802953822 0)
(100.0315233 0.5270788352 0)
(100.0053968 0.2465913955 0)
(100.0052194 0.2142296506 7.698588318e-22)
(100.0278612 0.3987197193 1.599688562e-21)
(100.0053566 0.1844461831 -3.900468398e-21)
(100.0052259 0.1555252688 -1.450631263e-21)
(100.0236631 0.2847703497 3.167363289e-21)
(100.0045253 0.130235446 3.167126936e-21)
(100.0033912 0.1088448164 -8.950492564e-22)
(100.0143483 0.1971980389 -5.354081015e-23)
(100.0008935 0.09351719568 1.741601255e-21)
(100.0091469 0.09155573923 -7.798603632e-21)
(100.0520391 0.2248101108 5.064943548e-22)
(100.0183986 0.2009211168 -2.781450135e-21)
(100.0030327 0.09326925262 -1.625363922e-21)
(100.0064954 0.05337626473 -9.8201959e-22)
(100.035706 0.138671632 1.556329665e-20)
(100.0054322 0.02512480571 -7.891188599e-21)
(100.0265446 0.07437677432 -1.659490061e-20)
(100.0236776 0.02352990271 1.467004781e-21)
(99.98956147 0.01259364273 9.562092337e-21)
(99.98383591 0.00628638864 2.418026183e-22)
(99.98297792 0.03163854073 1.527484932e-20)
(99.97573471 0.02262593825 -1.337063778e-20)
(99.97069411 0.06430367392 7.943950586e-21)
(99.95841523 0.05137846939 -2.074629288e-20)
(99.96397571 0.1061946745 -1.348012783e-21)
(99.92916717 0.1005817632 3.991583863e-20)
(99.9386802 0.1327158933 -8.795494041e-21)
(99.94613468 0.1368279082 -1.886401941e-21)
(99.95871399 0.1368939598 3.716943202e-21)
(99.97486231 0.09686937138 1.847981398e-21)
(99.95972045 0.1645404294 1.805631178e-21)
(99.94666087 0.178965143 1.836989913e-21)
(99.91034163 0.2366135501 -3.710771441e-21)
(99.93307663 0.2317526065 -1.888584653e-23)
(99.93729387 0.2697852313 1.777138132e-21)
(99.91694114 0.2970610155 -1.630396292e-23)
(99.86370549 0.3884974279 0)
(99.90835313 0.3504924563 0)
(99.8835111 0.4009975861 -2.21589638e-21)
(99.91312531 0.4076447844 -4.358411241e-21)
(99.90222368 0.4287347584 -5.402161595e-23)
(99.87424511 0.4957653762 -9.803790736e-21)
(99.8939699 0.4702512478 -3.370016514e-21)
(99.86653762 0.641475911 2.834440498e-23)
(99.88406167 0.6066324959 -2.220066821e-21)
(99.83018299 0.7420130317 -1.214351383e-20)
(99.85903794 0.6990174861 -2.958229656e-21)
(99.83477333 0.9194364533 -5.55043444e-21)
(99.85941819 0.8620734129 -5.229459896e-21)
(99.79209765 1.060583598 5.292032689e-22)
(99.83010096 0.9913260853 -6.659135927e-21)
(99.82003199 1.245388412 -5.9164505e-23)
(99.8523239 1.155702846 -4.35799966e-21)
(99.77717137 1.431019272 -2.253068606e-21)
(99.82249548 1.325631762 -3.274863316e-21)
(99.84124824 1.570836285 -5.393255084e-21)
(99.8773961 1.439456507 -7.542580844e-21)
(99.80836788 1.794184265 -2.568197094e-21)
(99.85537294 1.644470127 -3.326188651e-21)
(99.91032078 1.810932979 -1.342571088e-21)
(99.94391066 1.635277428 -2.296030967e-21)
(99.89921507 2.050111848 -1.151587109e-21)
(99.93429974 1.858595816 -5.607422119e-22)
(100.0040526 1.889488745 2.04186886e-22)
(100.0246954 1.682102038 -2.846335408e-22)
(100.0138651 2.115816277 -5.302422927e-23)
(100.026677 1.900846596 -6.78442748e-22)
(100.0931072 1.800371216 -2.443790754e-22)
(100.0799786 1.573975435 -2.246351617e-22)
(100.1171622 1.984238431 -8.896847019e-23)
(100.1104606 1.760373873 2.00314292e-21)
(100.1507736 1.567413642 2.33910465e-21)
(100.1121931 1.349167691 4.0604331e-21)
(100.1798118 1.702753438 4.068940015e-21)
(100.1572179 1.494920833 5.405984426e-22)
(100.166846 1.264848588 -6.632607925e-21)
(100.1171335 1.076162841 -6.186979115e-21)
(100.1932589 1.35667382 -2.232511207e-21)
(100.1643969 1.183300328 -2.203872146e-21)
(100.1517269 0.9667934176 -5.29235037e-21)
(100.1000925 0.815849877 4.85685901e-22)
(100.1689171 1.023968618 -1.421400472e-21)
(100.1441309 0.8931106989 5.794027499e-21)
(100.0954262 0.5644549284 -1.347730112e-20)
(100.1518763 0.7685191858 -1.347625396e-20)
(100.2140166 0.8330865275 1.36402383e-20)
(100.1320887 0.6416034884 -2.761328183e-20)
(100.112304 0.5318587602 1.198015988e-20)
(100.1561386 0.5686305486 -1.698707672e-20)
(100.0919561 0.4388049089 2.421034561e-20)
(100.0690834 0.387541265 2.690578728e-20)
(100.0867629 0.2670678264 2.312399057e-20)
(100.1970007 0.4208574641 -2.112484272e-22)
(100.149842 0.4704945255 4.843442296e-20)
(100.0882647 0.3722634002 2.634711012e-21)
(100.0628173 0.1562890552 -7.10982276e-22)
(100.1396539 0.2581328764 3.320848906e-20)
(100.0506925 0.07191870393 -7.723917824e-21)
(100.1060875 0.1385965412 -1.760721771e-20)
(100.0915148 0.04370012086 7.888542424e-21)
(99.97244357 0.01519498762 -2.295146902e-20)
(99.96949436 0.005019545015 -1.1471022e-20)
(99.9543081 0.04009736657 -4.970817057e-20)
(99.95229452 0.02017725167 1.073708448e-20)
(99.92136349 0.08534712154 1.064903327e-20)
(99.91596278 0.05207260365 -4.208095902e-20)
(99.88548847 0.1552686042 2.541088827e-20)
(99.85680744 0.1097774734 4.576083978e-20)
(99.84696848 0.1702754512 -4.142191623e-20)
(99.90163564 0.1689311547 -7.545312454e-21)
(99.84821077 0.1891684347 -5.601386598e-20)
(99.86145852 0.2124249276 -3.780865326e-21)
(99.8436382 0.2967600968 -7.402379867e-21)
(99.82569044 0.2836128469 -3.690097225e-21)
(99.7614817 0.3414400676 2.586864775e-20)
(99.78350542 0.3716099287 7.290514518e-21)
(99.76372961 0.4928004131 -6.41252628e-21)
(99.7341537 0.4800234461 4.719438406e-21)
(99.63939698 0.5772054458 -3.648493653e-20)
(99.70357648 0.592159954 2.572998301e-21)
(99.6556755 0.6338303006 -1.589768533e-20)
(99.68608288 0.7455348296 -6.588975613e-21)
(99.66242139 0.7415937572 0)
(99.60455615 0.8178142026 6.807807941e-21)
(99.63326536 0.8287395667 -6.569614882e-21)
(99.57504234 1.136418218 3.218626216e-21)
(99.53930334 1.140123185 1.262341328e-20)
(99.46307289 1.255423776 6.258195815e-21)
(99.50776629 1.259835763 1.568814639e-20)
(99.47238624 1.653899386 -3.171088329e-20)
(99.42006076 1.674374942 -2.707358179e-20)
(99.32912123 1.842697474 -4.449128103e-20)
(99.39581718 1.828400446 1.069146506e-20)
(99.42609027 2.280945608 2.874461109e-19)
(99.35486165 2.336402042 2.973843084e-19)
(99.26846135 2.565986632 -5.562173133e-21)
(99.35748048 2.510190859 7.27880724e-21)
(99.5077713 2.913010861 4.454278304e-19)
(99.42564649 3.026798663 -2.445927803e-19)
(99.36955689 3.309052982 2.21200508e-19)
(99.47056212 3.183074231 2.240601932e-19)
(99.75001919 3.37206052 -2.004129567e-19)
(99.67181359 3.562450617 0)
(99.69423389 3.846702749 -2.064056267e-19)
(99.75283011 3.631847395 5.375401207e-20)
(100.0540649 3.490044328 7.494091344e-21)
(100.0236487 3.734243425 2.191455183e-20)
(100.0825843 3.981147421 7.40738672e-21)
(100.1133773 3.713125852 -6.305701303e-20)
(100.3318349 3.248511274 2.616145507e-22)
(100.3491066 3.515442612 0)
(100.4381457 3.688673587 1.375976761e-19)
(100.4120119 3.407461999 -4.477871574e-20)
(100.4913392 2.756227382 6.45801091e-21)
(100.5455641 3.008412532 2.785385053e-20)
(100.6346911 3.111867205 1.410792029e-21)
(100.5711616 2.855298043 9.679857362e-21)
(100.5247121 2.171310021 -6.159098848e-21)
(100.5979094 2.385266936 -1.431170652e-20)
(100.6735355 2.437564054 -4.995328715e-21)
(100.5913579 2.226150675 5.5845842e-21)
(100.5417492 1.776237331 -1.765923756e-20)
(100.4683405 1.609586017 -1.19138754e-20)
(100.5990048 1.795674328 -1.192994174e-20)
(100.5218172 1.636352384 6.386238199e-21)
(100.3783813 1.085094201 -5.330361735e-20)
(100.5040786 1.324866302 -2.785529735e-20)
(100.5902343 1.315213055 -8.078117994e-20)
(100.4407883 1.099379909 -3.792011703e-20)
(100.2801889 0.7357057926 -6.132801866e-20)
(100.3794862 0.9047329869 2.428664068e-20)
(100.4361277 0.8826958771 -2.910457419e-20)
(100.3213898 0.7387117201 -2.545997965e-20)
(100.2421173 0.4079288659 1.044316087e-20)
(100.4164081 0.5606742696 -2.634590598e-20)
(100.3886096 0.6753211108 -1.698758607e-22)
(100.2895956 0.608153831 -1.507964146e-20)
(100.1773075 0.2373390249 1.555597872e-20)
(100.3001507 0.3406633945 2.769837781e-20)
(100.1421858 0.1087945655 -1.982189855e-21)
(100.227363 0.1818191756 -4.004749161e-21)
(100.1941177 0.05693588552 0)
(99.95376149 0.009176476667 2.304200363e-20)
(99.96085547 -0.0009962161264 -3.843315837e-21)
(99.91952363 0.03027512999 1.937760832e-20)
(99.93243829 0.002745802633 2.690877438e-20)
(99.85810645 0.07614700836 -7.704296212e-21)
(99.87279348 0.02603723883 -3.815909469e-21)
(99.77854246 0.1674656281 0)
(99.77475798 0.07746539816 5.869884171e-21)
(99.73490138 0.1596276705 1.787152019e-20)
(99.78891852 0.1971502857 -5.22859941e-20)
(99.72365572 0.1906373868 1.343651347e-20)
(99.72597604 0.2369513046 0)
(99.66680708 0.3673630271 2.672729132e-22)
(99.65578256 0.3253365874 -2.972011574e-20)
(99.56257834 0.3719307109 -2.970012219e-20)
(99.57195847 0.4368809886 6.026218957e-20)
(99.49541572 0.6357166047 -8.961266579e-20)
(99.47322124 0.5761675908 3.227553111e-20)
(99.33572785 0.6608545128 -5.990641339e-20)
(99.39032791 0.7430462171 -2.980830459e-20)
(99.32537308 0.7546486707 -4.899194893e-20)
(99.3084824 0.9875209685 7.087277414e-21)
(99.28478185 0.9510106128 1.409053669e-20)
(99.19450515 1.025564508 3.559827491e-20)
(99.21994213 1.072877963 7.02890228e-21)
(99.04738964 1.557074914 -8.226202364e-20)
(99.0061601 1.514486221 -1.411585459e-19)
(98.88289009 1.636438375 -2.554418541e-20)
(98.93029652 1.692101839 -1.577773517e-19)
(98.78240975 2.372186455 1.87432449e-19)
(98.70973727 2.333341453 5.795385554e-19)
(98.56107753 2.529770631 7.688544481e-19)
(98.64754225 2.581568363 4.381803235e-21)
(98.64195505 3.437354734 3.08561301e-19)
(98.52400331 3.431894852 2.105005563e-20)
(98.3718226 3.733789244 -3.211510629e-19)
(98.5162409 3.742228605 5.954666131e-19)
(98.81000336 4.603522626 0)
(98.65077172 4.684214952 -5.608741649e-19)
(98.56526844 5.07990878 0)
(98.75755278 4.976160293 0)
(99.46432234 5.456447945 4.464137573e-19)
(99.2605969 5.67125978 1.742509358e-19)
(99.37216617 6.073789839 3.25033888e-19)
(99.48235617 5.80823772 2.842874343e-19)
(100.2507878 5.609769922 -3.677313289e-21)
(100.1817279 5.92458276 -3.691647579e-21)
(100.3489867 6.219431217 -1.721330843e-19)
(100.4008091 5.859409577 -6.383150349e-21)
(100.9080361 5.082375189 -1.821737554e-19)
(100.9389407 5.42148268 -3.096044765e-21)
(101.1322421 5.574383555 -1.844840907e-19)
(101.069976 5.214734406 6.273879221e-20)
(101.2198584 4.18750831 -8.395296621e-22)
(101.3164223 4.494393859 1.113240665e-19)
(101.4784108 4.543510228 1.362929987e-19)
(101.3543218 4.235653699 4.631767155e-19)
(101.2415168 3.197582199 -4.210444971e-20)
(101.3645614 3.449785589 5.043989406e-21)
(101.4809732 3.433524971 7.043169423e-21)
(101.3395473 3.193037491 1.247034672e-19)
(101.2162264 2.49634703 0)
(101.0955997 2.310932042 4.746797836e-20)
(101.2932687 2.461502924 0)
(101.1620874 2.286193765 0)
(100.8477599 1.514969453 2.959732538e-20)
(101.0588456 1.776511851 1.907861973e-20)
(101.1479657 1.675189206 -1.710388538e-20)
(100.9186923 1.456421774 3.712089655e-20)
(100.6248394 1.004524843 -3.399128606e-20)
(100.7880856 1.184056052 -1.517953895e-20)
(100.8411129 1.097008355 -1.533323608e-20)
(100.6698502 0.9535518393 -7.389928792e-21)
(100.460861 0.4899203263 -9.392111621e-21)
(100.6928303 0.617536977 -1.986577231e-20)
(100.7177251 0.8016059679 -2.617953485e-21)
(100.5882041 0.7660218863 5.277696029e-21)
(100.3379685 0.282268009 7.977939959e-21)
(100.4959301 0.3703966919 1.213798947e-20)
(100.2690958 0.1282553409 -2.022201481e-21)
(100.3726173 0.19431195 -3.573870485e-21)
(100.3150731 0.06019878777 -5.145521797e-22)
(99.9443172 -0.007720579033 0)
(99.96815445 -0.01239735113 0)
(99.89169414 -0.002606315936 3.877628928e-21)
(99.92767654 -0.03165456758 0)
(99.79712496 0.02849737533 9.803249263e-21)
(99.84356624 -0.03087535057 -3.300132256e-21)
(99.66431413 0.1203792688 1.685537364e-20)
(99.70319188 -0.001696540984 2.166337553e-20)
(99.62252592 0.08898323906 -6.521393695e-21)
(99.66098263 0.1684644618 2.313897415e-20)
(99.59272367 0.1298439402 1.876782927e-21)
(99.57541244 0.193241972 -9.30698808e-21)
(99.45330194 0.3527289613 0)
(99.46115694 0.2851037131 -1.937876978e-20)
(99.34326948 0.3078577571 -1.589324419e-20)
(99.32460334 0.4026633661 3.951372578e-21)
(99.1631855 0.6490363409 0)
(99.16327228 0.553183259 3.950949531e-21)
(98.98562785 0.5999508776 -4.071096946e-21)
(99.00482956 0.7508388558 1.979127312e-20)
(98.9332557 0.7344493345 5.100262577e-21)
(98.81953861 1.064699888 2.277646675e-19)
(98.80949411 0.9936042887 0)
(98.68532211 1.051820017 1.523871334e-20)
(98.69411007 1.136390795 -1.120489767e-19)
(98.31967446 1.791669529 2.223314586e-19)
(98.29136549 1.692846973 -5.524838576e-20)
(98.11584913 1.803628142 -1.091124019e-19)
(98.14517133 1.92511795 -5.408752776e-20)
(97.75700388 2.924544601 8.894533063e-19)
(97.68301408 2.80381756 5.322786854e-19)
(97.43971344 3.01833704 4.235202116e-19)
(97.52851187 3.168727482 5.504809965e-20)
(97.32312958 4.610673652 -3.701361809e-19)
(97.15454649 4.499350739 1.242346554e-20)
(96.87761257 4.881508926 0)
(97.09256615 5.015963108 -3.48449476e-19)
(97.56327628 6.678150445 6.283046757e-19)
(97.26511283 6.687513836 -3.461300373e-19)
(97.10050559 7.269536594 3.254748724e-19)
(97.48001812 7.235542235 2.908617614e-19)
(99.00126126 8.276028478 8.182478738e-20)
(98.62976793 8.536902625 1.540346285e-20)
(98.81096202 9.16923783 -4.257509294e-20)
(99.13807714 8.805986768 2.305738112e-20)
(100.8519155 8.337175674 0)
(100.7285718 8.81555756 -6.467309076e-21)
(101.1175679 9.167782184 0)
(101.1892188 8.608092892 0)
(102.098533 7.134666862 -2.813556924e-19)
(102.1896563 7.600617647 -2.460490018e-19)
(102.5472621 7.672545779 -1.327892728e-18)
(102.3933351 7.195154718 -6.469202553e-19)
(102.5033569 5.546369622 -2.278672325e-20)
(102.6923456 5.915675861 0)
(102.9475673 5.850931942 -2.716347731e-20)
(102.70961 5.496996306 0)
(102.3697366 4.063853816 4.459710829e-19)
(102.5784487 4.336685199 -4.470405862e-21)
(102.7225988 4.231561884 2.258318058e-19)
(102.4914335 3.979919676 1.454690992e-19)
(102.1671928 3.011496578 -4.496440794e-20)
(101.9812429 2.816536475 -3.914088758e-21)
(102.2456388 2.901299419 1.100521352e-20)
(102.0494203 2.729576492 2.297593023e-20)
(101.4851569 1.786426857 -9.611167831e-20)
(101.7896592 2.041350472 -6.091525231e-20)
(101.8529318 1.838226961 -3.414570415e-20)
(101.5414445 1.64963434 -1.754795833e-20)
(101.0796972 1.153593104 1.182833312e-20)
(101.3121542 1.320487605 3.565049275e-20)
(101.3362792 1.16930222 -4.005586471e-21)
(101.1093603 1.047173959 -3.906388681e-21)
(100.714048 0.4983043358 2.066138961e-21)
(100.9946532 0.5694133992 0)
(101.0992153 0.8155278998 -1.10574779e-22)
(100.9549125 0.8218458866 -1.066324709e-20)
(100.5185066 0.2798068153 4.546816567e-22)
(100.7019802 0.334266331 2.06595269e-21)
(100.4081083 0.1249305378 -2.072234737e-21)
(100.5186997 0.1691336912 -2.074127894e-21)
(100.4329065 0.05145582296 -2.084237427e-21)
(99.95608378 -0.03615854495 0)
(100.0022828 -0.02913732483 1.899167275e-21)
(99.88524331 -0.06011500069 -7.771756795e-21)
(99.95035298 -0.08274304723 -1.913147174e-21)
(99.75726656 -0.06030751124 8.02886197e-21)
(99.84390516 -0.1187764676 -3.869510672e-21)
(99.56462199 0.008035740356 1.053499341e-20)
(99.66387326 -0.1289778106 2.934250414e-21)
(99.53350549 -0.04443106446 -1.606534446e-24)
(99.53977806 0.07312761651 -7.827342045e-21)
(99.47945139 8.57914003e-05 -7.892342796e-21)
(99.43567478 0.07219998913 0)
(99.23789117 0.2360764407 -1.589285185e-20)
(99.2753784 0.1497538552 0)
(99.14204159 0.137567967 -9.277863876e-23)
(99.08196202 0.2522200458 -6.258341874e-23)
(98.80825104 0.5125794605 8.183823957e-21)
(98.84968039 0.3870733489 1.228773323e-20)
(98.64245387 0.3865879259 1.654423968e-20)
(98.6061352 0.5889181414 -1.302872578e-20)
(98.53877193 0.5394291536 -4.00678752e-20)
(98.27875164 0.9318633654 9.247034073e-20)
(98.30005784 0.8321091116 3.1999996e-20)
(98.14504407 0.8621091828 0)
(98.11628829 0.9785650964 0)
(97.46156387 1.70797361 -1.16478885e-19)
(97.47278502 1.556888617 -1.21851432e-19)
(97.23916826 1.629820057 -1.199903348e-19)
(97.21807307 1.811583501 -1.203610354e-19)
(96.35159879 3.082332103 -1.122198602e-19)
(96.31953878 2.847032148 -2.440823488e-19)
(95.950375 3.019352831 0)
(95.98799449 3.305513709 0)
(95.18483113 5.4713379 4.994197791e-19)
(95.00184128 5.152490777 2.581863185e-19)
(94.49251047 5.533890295 2.567913943e-19)
(94.73097813 5.943268991 -3.169765785e-20)
(95.03492123 9.158375344 6.49634772e-20)
(94.49077915 8.905452528 1.810297235e-19)
(94.00502519 9.761074276 -7.244818945e-20)
(94.75927784 10.0470855 5.926351838e-20)
(97.98097057 12.65885738 -3.941928272e-20)
(97.17902624 13.0526391 -9.976543058e-20)
(97.51390369 14.23573312 1.042561534e-19)
(98.45297582 13.58196192 -5.417162101e-20)
(102.4414622 12.19389203 1.04449598e-19)
(102.2467164 13.08269792 -6.900096783e-20)
(103.1471434 13.43766897 1.049733231e-19)
(103.1709475 12.40750788 1.03678286e-19)
(104.4568488 9.273607646 -9.042390557e-19)
(104.7265357 9.945201225 3.224646131e-19)
(105.3307337 9.778694935 -2.049146027e-19)
(104.9335247 9.133734515 2.18635863e-19)
(104.5805664 6.587171118 6.112582017e-21)
(104.9430186 6.995183267 3.942490741e-20)
(105.2348043 6.743716456 -6.536109438e-19)
(104.8221083 6.382348122 3.929201128e-20)
(103.953802 4.550813848 2.829741729e-19)
(104.283204 4.809599361 -7.501149e-20)
(104.4161091 4.578836029 0)
(104.0705315 4.361182706 7.553770876e-20)
(103.398069 3.194768718 -2.931390951e-20)
(103.1250521 3.020955931 6.835548074e-20)
(103.4469347 3.00394404 -4.809403461e-20)
(103.1730296 2.85805695 4.39445862e-20)
(102.2398031 1.820354932 2.790749807e-20)
(102.6366656 2.022788954 -2.638536261e-22)
(102.6323503 1.723712218 1.703959219e-20)
(102.2485655 1.604464389 1.269239327e-20)
(101.5979082 1.137667245 -1.668383588e-20)
(101.8968381 1.261225532 -8.519634925e-21)
(101.8621782 1.053614486 -8.521285484e-21)
(101.5865647 0.9802468367 1.300739781e-20)
(100.967098 0.4118797769 0)
(101.2830128 0.4069319646 1.379424834e-21)
(101.4778325 0.6794837084 -1.147997861e-20)
(101.3419363 0.7557901337 2.844199399e-20)
(100.6889569 0.2214779823 -5.227795114e-22)
(100.8815046 0.2233195509 -1.629836067e-21)
(100.5330507 0.09547001206 -2.096249094e-21)
(100.6375212 0.1029273064 -2.375617106e-21)
(100.5229455 0.02988702311 2.667454191e-21)
(100.0005464 -0.07516081551 -1.337495845e-23)
(100.0731948 -0.05049323183 6.293570696e-23)
(99.9138662 -0.1403272726 1.986167321e-21)
(100.0118806 -0.1480850934 -7.614440695e-23)
(99.75692187 -0.1864130751 -1.040700871e-20)
(99.88751464 -0.2331078892 1.567108126e-21)
(99.50609061 -0.1623435506 -9.400684654e-21)
(99.67627887 -0.2983106425 -1.582254329e-20)
(99.49594018 -0.2361612628 -1.346907597e-20)
(99.45104729 -0.09111344324 -7.400638227e-21)
(99.41570259 -0.1962457783 -2.934959807e-21)
(99.33841959 -0.1247040008 3.405412671e-23)
(99.06133594 0.01348204268 1.196951822e-20)
(99.13643227 -0.08051501458 1.216337607e-20)
(99.00051889 -0.1342296084 6.006616651e-21)
(98.89218236 -0.01589859864 2.068123182e-20)
(98.49794465 0.2214806921 1.319788604e-20)
(98.59532715 0.07565512361 1.740669138e-20)
(98.38059471 0.01909321958 -5.926527012e-20)
(98.26064848 0.2397457381 5.991150223e-21)
(98.2108459 0.1639319922 7.10546922e-20)
(97.77932338 0.5598338417 6.520116252e-20)
(97.84362131 0.4436331149 1.269616279e-19)
(97.67597129 0.4291788032 3.350275243e-20)
(97.59959704 0.559943799 1.3004858e-19)
(96.60356196 1.227978363 3.194596001e-22)
(96.68924529 1.037909959 0)
(96.41591368 1.038518718 0)
(96.30141149 1.259559433 0)
(94.75385051 2.510699103 -1.271230796e-20)
(94.84516001 2.187538367 -1.969093273e-19)
(94.38885983 2.219214563 -3.335671049e-19)
(94.25393688 2.610236339 -1.855941145e-19)
(92.13025153 4.994604777 2.203614679e-20)
(92.13177479 4.409944348 -8.255770248e-20)
(91.34515789 4.50785531 2.183028908e-20)
(91.30442114 5.274225858 -2.163387191e-19)
(89.22714704 10.6720309 -3.818728165e-19)
(88.62162863 9.478541879 1.452586405e-19)
(86.82511178 10.62099443 -2.641374701e-19)
(87.10096507 9.907887656 -2.706627468e-19)
(88.2792993 11.95338195 -3.904206954e-19)
(87.36737704 11.98532568 -1.339848763e-19)
(92.62397576 21.55514823 1.156069253e-19)
(93.91588975 21.30566097 0)
(92.93348465 23.2614485 0)
(94.55129432 22.63706584 0)
(106.857638 19.57714592 0)
(107.0535529 17.96331338 0)
(108.6246746 17.63821062 -1.196469223e-19)
(107.6273149 20.41743794 0)
(109.5808178 19.2638591 -2.03000667e-19)
(109.1886763 19.99008786 -5.558937914e-19)
(109.4927661 11.75321662 7.329248365e-21)
(108.7409324 10.89117809 1.001788249e-19)
(110.1600219 11.00480822 -1.358847306e-19)
(109.2654646 10.33470252 9.926999633e-20)
(107.511299 6.795789673 -3.908703083e-19)
(108.1390994 7.153792212 7.293827192e-20)
(108.3571652 6.623266717 -4.616821128e-19)
(107.7056374 6.365617091 4.840545621e-19)
(105.9246085 4.347030383 5.777475014e-19)
(106.3951386 4.519819327 5.679658288e-19)
(106.4370402 4.148255145 3.777275279e-19)
(105.9715354 4.033231999 3.866570261e-19)
(104.7748949 2.836310868 -5.467294752e-21)
(104.4191966 2.73971056 -7.628226293e-20)
(104.7450396 2.574913976 -3.881135919e-21)
(104.4014784 2.503620905 4.161867872e-21)
(103.0167911 1.541179469 4.500059746e-21)
(103.5072412 1.636656508 5.257433504e-22)
(103.3742685 1.269363166 -2.633024772e-21)
(102.9403743 1.257009167 -4.713143427e-21)
(102.1114795 0.9111329152 4.686115573e-21)
(102.4564153 0.9587835493 -2.353595447e-23)
(102.343145 0.7139230876 -7.575080237e-21)
(102.0364233 0.7130205658 9.484022941e-21)
(101.1757805 0.2252884243 -1.845542609e-22)
(101.4872159 0.1317523126 -3.062656289e-22)
(101.8071294 0.386323251 8.58695504e-22)
(101.6933425 0.4975671668 6.9074829e-21)
(100.8163516 0.1046340629 -3.491549582e-21)
(100.9951933 0.0393314684 -2.52607603e-22)
(100.6169414 0.038330988 2.600278449e-21)
(100.7000036 -0.002045942442 -2.352215845e-21)
(100.5590861 -0.003885883833 4.491119679e-22)
(100.0875569 -0.1225827617 1.406446828e-23)
(100.1888314 -0.07514963207 -2.815224481e-21)
(99.98926676 -0.2386064324 -5.129661255e-22)
(100.121347 -0.2235792616 1.224850887e-21)
(99.81157286 -0.3429047186 -4.041715048e-21)
(99.98595931 -0.3659037779 -2.661867269e-21)
(99.51344538 -0.3808791126 8.304907478e-21)
(99.75539235 -0.4966562949 -9.154896194e-22)
(99.53130619 -0.4724907759 8.676263076e-22)
(99.42362044 -0.3158761749 4.057070262e-21)
(99.42696981 -0.4436856569 8.42100355e-21)
(99.31484884 -0.3843326893 5.938873031e-21)
(98.9647835 -0.3010621641 -2.02470513e-21)
(99.08168246 -0.3883880592 3.131741357e-21)
(98.95710775 -0.4832634262 2.069304637e-21)
(98.79921825 -0.3801080848 6.268703588e-21)
(98.29795945 -0.2141506285 -2.118777983e-20)
(98.45585214 -0.35504651 4.95902234e-20)
(98.25579946 -0.4706010922 3.135276395e-20)
(98.05046871 -0.2587228767 3.18206409e-20)
(98.03111262 -0.3600462571 1.301582466e-19)
(97.44748668 -0.04146348937 0)
(97.55733985 -0.1531312813 -6.594129941e-20)
(97.40271035 -0.2179330642 0)
(97.27284495 -0.09868965444 1.286163235e-19)
(95.98052969 0.3275084486 3.041467004e-20)
(96.15553264 0.1429140071 -4.652551291e-21)
(95.8907802 0.05571103656 -1.446037363e-19)
(95.67308446 0.2562954522 2.279342821e-23)
(93.55512287 1.025473875 0)
(93.82231135 0.7102535323 -7.798909825e-20)
(93.3965351 0.5601898315 2.043760199e-20)
(93.04735975 0.9003854803 -3.389398197e-20)
(89.64659171 2.148549809 5.565396973e-19)
(90.07607481 1.567692084 3.417403309e-19)
(89.43345134 1.205183109 2.237071467e-19)
(88.79879738 1.801687066 1.006354628e-19)
(82.26973326 3.727794213 1.38698586e-19)
(82.88804808 2.984245615 1.423542884e-19)
(82.19580762 2.331151607 1.415864543e-19)
(81.29434971 3.079679637 1.423918844e-19)
(122.746857 23.62302735 0)
(121.0331653 22.50657925 0)
(123.4941324 21.76853194 0)
(121.804822 21.04563841 0)
(116.6027605 10.32658571 0)
(115.0547291 9.849656546 -1.905285948e-19)
(116.6415089 8.84107767 0)
(115.1816418 8.699351425 7.175112323e-20)
(110.8802394 5.385369921 4.086272594e-20)
(111.7617158 5.477973114 3.704499383e-20)
(111.6561846 4.721460456 -2.893586204e-20)
(110.8328482 4.7553282 -1.242917584e-19)
(107.9042201 3.169765257 0)
(108.4809906 3.171218856 -2.347313573e-19)
(108.3413621 2.712893181 8.993239082e-21)
(107.8096527 2.775148017 0)
(106.0413648 1.829547114 -2.085323603e-21)
(105.6337 1.846011222 -1.021055452e-21)
(105.8953002 1.528431057 4.264729907e-20)
(105.5198974 1.571359106 -9.000706173e-20)
(103.6832452 0.9130818799 -5.137168762e-21)
(104.2274253 0.8639049642 -2.440051034e-20)
(103.9262914 0.4830960361 8.228762029e-21)
(103.4888518 0.6056371278 1.219825506e-21)
(102.5277664 0.465598815 -2.057899982e-21)
(102.8839738 0.4127072958 1.433913607e-20)
(102.6690474 0.1730715479 5.280385081e-21)
(102.3758875 0.2626949247 1.046857132e-20)
(101.2919571 -0.049499105 -3.575478574e-22)
(101.5688742 -0.2363697481 -1.10573279e-21)
(102.0028446 -0.04648776362 -1.123500854e-21)
(101.9466785 0.1210913648 -1.283997993e-21)
(100.8674213 -0.06516014479 1.122882234e-21)
(101.0098541 -0.2022894665 1.377606883e-21)
(100.6330895 -0.04274394477 -4.455093501e-21)
(100.6788035 -0.1374606737 1.721289709e-21)
(100.5187487 -0.04752381861 -2.206402063e-21)
(100.2242682 -0.1751714076 -1.604402421e-21)
(100.3540719 -0.1013647953 8.886491266e-22)
(100.119994 -0.3478847228 -9.340489166e-22)
(100.2842916 -0.3038508464 -6.615137742e-22)
(99.93214389 -0.5173810662 4.777132714e-22)
(100.1458823 -0.5071363501 -2.357088308e-22)
(99.60301157 -0.6305201716 5.371056453e-22)
(99.91009995 -0.7084435286 8.035180628e-22)
(99.65252006 -0.7321388831 4.756631613e-22)
(99.47871937 -0.5812913802 1.393984843e-21)
(99.52832567 -0.7211119519 -1.28998482e-23)
(99.38491271 -0.6830190826 -1.290168296e-23)
(98.98020112 -0.6764279856 -2.064594693e-21)
(99.13594086 -0.7442792132 0)
(99.03519198 -0.8757012573 -1.01357013e-21)
(98.83479179 -0.8024471283 -1.071288377e-21)
(98.25813013 -0.7426745069 -1.516739292e-20)
(98.47058988 -0.8562813885 -3.017473492e-24)
(98.30622025 -1.022139114 -2.938490027e-23)
(98.02840689 -0.8500448555 -8.675356222e-20)
(98.04518889 -0.9642210955 -8.636448652e-20)
(97.36316809 -0.7822458581 -1.693010307e-20)
(97.51011271 -0.8689254294 -1.467363057e-19)
(97.3829276 -0.975663632 -2.801876943e-19)
(97.21060913 -0.888607105 -1.334066022e-19)
(95.78509368 -0.8060037061 3.09797326e-20)
(96.0266328 -0.9417683969 -2.63814413e-19)
(95.80643196 -1.095372523 1.464701577e-19)
(95.52307671 -0.9613471596 1.869748663e-20)
(93.27707846 -0.862834647 -8.696782652e-20)
(93.65266813 -1.064460821 -5.935701395e-20)
(93.34121998 -1.31238861 -9.406457013e-20)
(92.90324568 -1.132563468 -9.357916838e-20)
(89.69811249 -1.336639493 -5.503684763e-19)
(90.28542498 -1.575303825 -1.262586098e-19)
(89.96461007 -2.010252149 -1.039848782e-19)
(89.31213286 -1.855287321 -5.561140593e-19)
(85.53202448 -3.502607286 2.51497455e-19)
(86.03338357 -3.454337616 4.341177316e-21)
(86.02570481 -3.837854849 4.933052147e-19)
(85.58853462 -3.973038325 6.223537242e-19)
(136.6038003 8.110928229 -5.350970615e-19)
(134.895998 8.938829644 -5.820238961e-19)
(135.4284423 6.693186958 -8.455982327e-21)
(134.0020663 7.555098234 -1.157637403e-18)
(121.8230285 3.629585544 -4.370305469e-19)
(120.1770802 4.198077538 2.248837835e-20)
(120.7786306 2.325886454 -1.380331832e-20)
(119.466042 3.015807256 3.651132997e-19)
(113.4019377 2.064003506 0)
(114.2851031 1.722676451 -1.983408348e-20)
(113.7314166 1.026339974 1.877916258e-19)
(112.9849393 1.425268453 -1.472123764e-19)
(109.308842 1.008722849 -8.854455854e-20)
(109.8654052 0.7786009628 2.527481228e-19)
(109.4952745 0.3608560494 -3.184480029e-19)
(109.0141175 0.6204282277 2.536650685e-19)
(106.8431229 0.2501122468 -1.485002679e-20)
(106.451597 0.4039714242 2.514576523e-19)