/*--------------------------------*- C++ -*----------------------------------*\
| =========                 |                                                 |
| \\      /  F ield         | OpenFOAM: The Open Source CFD Toolbox           |
|  \\    /   O peration     | Version:  v1912                                 |
|   \\  /    A nd           | Website:  www.openfoam.com                      |
|    \\/     M anipulation  |                                                 |
\*---------------------------------------------------------------------------*/
FoamFile
{
    version     2.0;
    format      ascii;
    class       pointVectorField;
    location    "2.78";
    object      pointDisplacement;
}
// * * * * * * * * * * * * * * * * * * * * * * * * * * * * * * * * * * * * * //

dimensions      [0 1 0 0 0 0 0];


internalField   nonuniform List<vector> 
26316
(
(0 0 0)
(0 0 0)
(0 0 0)
(0 0 0)
(0 0 0)
(0 0 0)
(0 0 0)
(0 0 0)
(0 0 0)
(0 0 0)
(0 0 0)
(0 0 0)
(0 0 0)
(0 0 0)
(0 0 0)
(0 0 0)
(0 0 0)
(0 0 0)
(0 0 0)
(0 0 0)
(0 0 0)
(0 0 0)
(0 0 0)
(0 0 0)
(0 0 0)
(0 0 0)
(0 0 0)
(0 0 0)
(0 0 0)
(0 0 0)
(0 0 0)
(0 0 0)
(0 0 0)
(0 0 0)
(0 0 0)
(0 0 0)
(0 0 0)
(0 0 0)
(0 0 0)
(0 0 0)
(0 0 0)
(0 0 0)
(0 0 0)
(0 0 0)
(0 0 0)
(0 0 0)
(0 0 0)
(0 0 0)
(0 0 0)
(0 0 0)
(0 0 0)
(0 0 0)
(0 0 0)
(0 0 0)
(0 0 0)
(0 0 0)
(0 0 0)
(0 0 0)
(0 0 0)
(0 0 0)
(0 0 0)
(0 0 0)
(0 0 0)
(0 0 0)
(0 0 0)
(0 0 0)
(0 0 0)
(0 0 0)
(0 0 0)
(0 0 0)
(0 0 0)
(0 0 0)
(0 0 0)
(0 0 0)
(0 0 0)
(0 0 0)
(0 0 0)
(0 0 0)
(0 0 0)
(0 0 0)
(0 0 0)
(0 0 0)
(0 0 0)
(0 0 0)
(0 0 0)
(0 0 0)
(0 0 0)
(0 0 0)
(0 0 0)
(0 0 0)
(0 0 0)
(0 0 0)
(0 0 0)
(0 0 0)
(0 0 0)
(0 0 0)
(0 0 0)
(0 0 0)
(0 0 0)
(0 0 0)
(0 0 0)
(0 0 0)
(0 0 0)
(0 0 0)
(0 0 0)
(0 0 0)
(0 0 0)
(0 0 0)
(0 0 0)
(0 0 0)
(0 0 0)
(0 0 0)
(0 0 0)
(0 0 0)
(0 0 0)
(0 0 0)
(0 0 0)
(0 0 0)
(0 0 0)
(-6.9069869e-07 -1.138424231e-06 2.775557562e-17)
(0 0 0)
(0 0 0)
(-3.809218543e-07 -1.275310163e-05 3.330669074e-16)
(1.759705484e-06 -1.08396335e-05 2.775557562e-16)
(0 0 0)
(0 0 0)
(0 0 0)
(0 0 0)
(0 0 0)
(0 0 0)
(0 0 0)
(0 0 0)
(0 0 0)
(0 0 0)
(0 0 0)
(0 0 0)
(0 0 0)
(0 0 0)
(0 0 0)
(0 0 0)
(0 0 0)
(0 0 0)
(0 0 0)
(0 0 0)
(0 0 0)
(0 0 0)
(0 0 0)
(0 0 0)
(0 0 0)
(0 0 0)
(0 0 0)
(0 0 0)
(0 0 0)
(0 0 0)
(0 0 0)
(0 0 0)
(0 0 0)
(0 0 0)
(0 0 0)
(0 0 0)
(0 0 0)
(0 0 0)
(0 0 0)
(0 0 0)
(0 0 0)
(0 0 0)
(0 0 0)
(0 0 0)
(0 0 0)
(0 0 0)
(0 0 0)
(0 0 0)
(0 0 0)
(0 0 0)
(0 0 0)
(0 0 0)
(0 0 0)
(0 0 0)
(0 0 0)
(0 0 0)
(0 0 0)
(0 0 0)
(0 0 0)
(0 0 0)
(0 0 0)
(-4.302938432e-05 -3.164025453e-05 4.857225733e-16)
(-0.0002475948254 -0.0001983825555 3.080868893e-15)
(-3.238215064e-06 -2.323274115e-06 4.163336342e-17)
(-0.0004698683812 -0.0004615156762 8.007483565e-15)
(-0.001165601542 -0.001280589232 1.990074772e-14)
(-0.001381898512 -0.001733834133 2.696454171e-14)
(-0.0006453861558 -0.0007232619426 1.254552018e-14)
(-0.0007830351764 -0.001523463555 2.643718577e-14)
(-0.001367960476 -0.002994870676 4.658773367e-14)
(-0.001137211367 -0.003309932292 5.147271498e-14)
(-0.0006726884658 -0.001733839853 3.008704397e-14)
(-2.314457752e-05 -0.002029683466 3.519406988e-14)
(-2.199794586e-05 -0.00374690649 5.818956428e-14)
(0.0003918120913 -0.003700491941 5.744016374e-14)
(0.000226532194 -0.001997090077 3.461120279e-14)
(0.0007447289051 -0.001532293886 2.653433029e-14)
(0.001322585705 -0.003013724379 4.672651155e-14)
(0.001446746609 -0.002633726889 4.082845173e-14)
(0.0007822733725 -0.00128279255 2.221833828e-14)
(0.0004592077976 -0.0004679961914 8.10462808e-15)
(0.001140476134 -0.001295395257 2.008115896e-14)
(0.0008575098568 -0.0008652290309 1.341982081e-14)
(0.0002681790369 -0.0002426070868 4.204969706e-15)
(0 0 0)
(4.514191526e-05 -3.407809802e-05 5.273559367e-16)
(0 0 0)
(0 0 0)
(0 0 0)
(0 0 0)
(0 0 0)
(0 0 0)
(0 0 0)
(0 0 0)
(0 0 0)
(0 0 0)
(0 0 0)
(0 0 0)
(0 0 0)
(0 0 0)
(0 0 0)
(0 0 0)
(0 0 0)
(0 0 0)
(0 0 0)
(0 0 0)
(0 0 0)
(0 0 0)
(0 0 0)
(0 0 0)
(0 0 0)
(0 0 0)
(0 0 0)
(0 0 0)
(0 0 0)
(0 0 0)
(0 0 0)
(0 0 0)
(0 0 0)
(0 0 0)
(0 0 0)
(0 0 0)
(0 0 0)
(0 0 0)
(0 0 0)
(0 0 0)
(0 0 0)
(0 0 0)
(0 0 0)
(0 0 0)
(0 0 0)
(0 0 0)
(-0.0001201734644 -9.430818979e-05 1.026956298e-15)
(-0.0006563257199 -0.0005489842194 6.009082121e-15)
(-0.0001554998487 -0.0001204816976 1.415534356e-15)
(-0.002215487713 -0.002141999607 2.535471832e-14)
(-0.003540468651 -0.003698068 4.060640713e-14)
(-0.004511379999 -0.005143004925 5.651035195e-14)
(-0.003042941156 -0.003209511388 3.803901638e-14)
(-0.004708451293 -0.006851523304 8.135159213e-14)
(-0.006216211507 -0.009797054583 1.078581668e-13)
(-0.006234289681 -0.0112684316 1.24067423e-13)
(-0.00482612298 -0.008045939581 9.554856906e-14)
(-0.003723425473 -0.01101887331 1.307565167e-13)
(-0.004604301708 -0.01485128963 1.633415625e-13)
(-0.003596691768 -0.01567248383 1.722372245e-13)
(-0.002940686711 -0.01171120114 1.388750226e-13)
(8.624060267e-05 -0.01265967842 1.497135749e-13)
(0.0001603245072 -0.01679623906 1.840055885e-13)
(0.001473759138 -0.01669899721 1.827288321e-13)
(0.001154224486 -0.01257236669 1.485339629e-13)
(0.003825141989 -0.01111937628 1.310201947e-13)
(0.004824322474 -0.01500076216 1.636468738e-13)
(0.005577935038 -0.01399299945 1.525446436e-13)
(0.004388919649 -0.01027062476 1.209587985e-13)
(0.004698280708 -0.006947236078 8.176792576e-14)
(0.006252838798 -0.009948721231 1.083438894e-13)
(0.005910322293 -0.008382158607 9.131584378e-14)
(0.004325677843 -0.005696807769 6.705747069e-14)
(0.002200101079 -0.00217853714 2.568778523e-14)
(0.003520722844 -0.003760562233 4.103661855e-14)
(0.002487033245 -0.002452791854 2.678413047e-14)
(0.001380217802 -0.001261463153 1.487698853e-14)
(0 0 0)
(0.0001193114305 -9.538205243e-05 1.040834086e-15)
(0 0 0)
(0 0 0)
(0 0 0)
(0 0 0)
(0 0 0)
(0 0 0)
(0 0 0)
(0 0 0)
(0 0 0)
(0 0 0)
(0 0 0)
(0 0 0)
(0 0 0)
(0 0 0)
(0 0 0)
(0 0 0)
(0 0 0)
(0 0 0)
(0 0 0)
(0 0 0)
(0 0 0)
(0 0 0)
(0 0 0)
(0 0 0)
(0 0 0)
(0 0 0)
(0 0 0)
(0 0 0)
(0 0 0)
(0 0 0)
(0 0 0)
(0 0 0)
(0 0 0)
(0 0 0)
(0 0 0)
(0 0 0)
(0 0 0)
(0 0 0)
(0 0 0)
(-5.170449583e-05 -4.430113499e-05 3.60822483e-16)
(0 0 0)
(-0.002199280553 -0.002106791945 1.890154699e-14)
(-0.003267849948 -0.003315710184 2.806088695e-14)
(-0.005109933081 -0.005530622672 4.687916721e-14)
(-0.003753482496 -0.003834227994 3.444466934e-14)
(-0.008548290198 -0.01093012779 9.856004901e-14)
(-0.01036639036 -0.01406425777 1.197097976e-13)
(-0.01157023378 -0.01715789944 1.461608612e-13)
(-0.00974207668 -0.01361139401 1.228600555e-13)
(-0.01100132286 -0.02135220874 1.929845173e-13)
(-0.01252673732 -0.0258288585 2.202821259e-13)
(-0.01192398219 -0.02826720243 2.410294186e-13)
(-0.01057723761 -0.02359496964 2.132183319e-13)
(-0.007132289333 -0.0287057253 2.58862376e-13)
(-0.00785955872 -0.03366415517 2.863820292e-13)
(-0.005959082524 -0.03479473682 2.956385137e-13)
(-0.005438811183 -0.02981058056 2.685351941e-13)
(0.000416659012 -0.031310137 2.809141808e-13)
(0.0004811255722 -0.03631510785 3.072819776e-13)
(0.002681519575 -0.0362256023 3.060607323e-13)
(0.002426313238 -0.03120929788 2.796096688e-13)
(0.00780540756 -0.02905282512 2.59250954e-13)
(0.008663088644 -0.03408163504 2.867567295e-13)
(0.01024952324 -0.0326823646 2.746691763e-13)
(0.009182535609 -0.02769259565 2.468580895e-13)
(0.01129713142 -0.02176803666 1.936784066e-13)
(0.01292335098 -0.02633884135 2.20864993e-13)
(0.01296053389 -0.0235926817 1.978139874e-13)
(0.01120617743 -0.01928034654 1.715155795e-13)
(0.008527980925 -0.01106695274 9.85739268e-14)
(0.01063299305 -0.01459009066 1.222771884e-13)
(0.00915739257 -0.01162055217 9.735268147e-14)
(0.007255633111 -0.00869089253 7.738254482e-14)
(0.002510762822 -0.002448854994 2.184363801e-14)
(0.003753121944 -0.003880627135 3.261280135e-14)
(0.002117102399 -0.002060394251 1.731947918e-14)
(0.001209673526 -0.001110438138 9.908740495e-15)
(0 0 0)
(0 0 0)
(0 0 0)
(0 0 0)
(0 0 0)
(0 0 0)
(0 0 0)
(0 0 0)
(0 0 0)
(0 0 0)
(0 0 0)
(0 0 0)
(0 0 0)
(0 0 0)
(0 0 0)
(0 0 0)
(0 0 0)
(0 0 0)
(0 0 0)
(0 0 0)
(0 0 0)
(0 0 0)
(0 0 0)
(0 0 0)
(0 0 0)
(0 0 0)
(0 0 0)
(0 0 0)
(0 0 0)
(0 0 0)
(0 0 0)
(0 0 0)
(0 0 0)
(0 0 0)
(0 0 0)
(-0.0002389686016 -0.0002278246624 1.637578961e-15)
(-0.0005434303007 -0.0005431753748 3.719247132e-15)
(-0.001929807609 -0.00202832428 1.391942117e-14)
(-0.001297497324 -0.001300849551 9.353628982e-15)
(-0.007615245364 -0.009040639344 6.528111385e-14)
(-0.009007497262 -0.0112095354 7.724376694e-14)
(-0.01160238106 -0.01539305232 1.062205879e-13)
(-0.01006072776 -0.01273315063 9.209299989e-14)
(-0.0158311676 -0.02506541585 1.821043316e-13)
(-0.01748042117 -0.0290146983 2.009226119e-13)
(-0.01839776365 -0.03335414748 2.311761893e-13)
(-0.01681934245 -0.02909841631 2.116778974e-13)
(-0.01652042228 -0.03980577757 2.901567875e-13)
(-0.01754519386 -0.04417909827 3.069350329e-13)
(-0.01615368577 -0.04676983439 3.248790126e-13)
(-0.01526291311 -0.04227886949 3.080591338e-13)
(-0.009464812251 -0.04735661712 3.441413821e-13)
(-0.009796930654 -0.0510420652 3.536615445e-13)
(-0.007284334905 -0.05158814184 3.570338469e-13)
(-0.007078299637 -0.04818175842 3.49706375e-13)
(0.0005034876199 -0.04915121137 3.552713679e-13)
(0.0004486612694 -0.0520708946 3.589351039e-13)
(0.003037093462 -0.05213755569 3.588934705e-13)
(0.003058314416 -0.04915619674 3.547717675e-13)
(0.0104729334 -0.04799695012 3.448769048e-13)
(0.0107447215 -0.05168439351 3.541611449e-13)
(0.01308149962 -0.05090803454 3.483185962e-13)
(0.01265610657 -0.04693390487 3.367583989e-13)
(0.01718486304 -0.04067517894 2.907812879e-13)
(0.01826745242 -0.04524124814 3.080036226e-13)
(0.01912173065 -0.04231899926 2.876587857e-13)
(0.01780132228 -0.03759158834 2.682853939e-13)
(0.01638137398 -0.02626234088 1.872668687e-13)
(0.01805370176 -0.03034681698 2.062516824e-13)
(0.01652156057 -0.02570114138 1.748046152e-13)
(0.01481794486 -0.0219845316 1.56902269e-13)
(0.008053354504 -0.00974440561 6.979139489e-14)
(0.009493456846 -0.01204528554 8.221201497e-14)
(0.006840987843 -0.008171634137 5.584421814e-14)
(0.005604444582 -0.00638399459 4.579669977e-14)
(0.0003697030884 -0.0003578312276 2.567390744e-15)
(0.0006351367093 -0.0006447749972 4.413136523e-15)
(1.612270153e-05 -1.558729046e-05 1.110223025e-16)
(0 0 0)
(0 0 0)
(0 0 0)
(0 0 0)
(0 0 0)
(0 0 0)
(0 0 0)
(0 0 0)
(0 0 0)
(0 0 0)
(0 0 0)
(0 0 0)
(0 0 0)
(0 0 0)
(0 0 0)
(0 0 0)
(0 0 0)
(0 0 0)
(0 0 0)
(0 0 0)
(0 0 0)
(0 0 0)
(0 0 0)
(0 0 0)
(0 0 0)
(0 0 0)
(0 0 0)
(0 0 0)
(0 0 0)
(-2.274588834e-05 -2.549045082e-05 1.387778781e-16)
(-6.206734891e-07 -6.693692352e-07 0)
(0 0 0)
(-0.00170590733 -0.00194123259 1.169897512e-14)
(-0.002153087697 -0.002549305781 1.475208844e-14)
(-0.00446588347 -0.005559031171 3.219646771e-14)
(-0.003810228738 -0.004558604927 2.747801986e-14)
(-0.01235742004 -0.01749671692 1.059291543e-13)
(-0.01345075084 -0.01981062248 1.152689055e-13)
(-0.01632799513 -0.025629613 1.493249968e-13)
(-0.01546885684 -0.0233440589 1.415534356e-13)
(-0.02132385242 -0.0402212044 2.446237657e-13)
(-0.022208531 -0.04354572368 2.544631172e-13)
(-0.02276990749 -0.04872356245 2.848138392e-13)
(-0.02196868895 -0.04523472489 2.752242878e-13)
(-0.01973288 -0.05604367412 3.408384686e-13)
(-0.02015777965 -0.0594078782 3.469863286e-13)
(-0.01810545158 -0.06099101498 3.559930128e-13)
(-0.01783833304 -0.05797434645 3.524680547e-13)
(-0.01029587134 -0.05910524046 0)
(-0.01046984778 -0.0616126425 0)
(-0.009165218664 -0.06162700441 0)
(-0.007788904657 -0.06158663508 0)
(-0.007691237682 -0.06034574436 0)
(-0.007645093901 -0.05913355539 0)
(0.0002418220041 -0.05930706633 0)
(0.0002076883403 -0.06051276119 0)
(0.00152860269 -0.06054909915 0)
(0.001555579392 -0.05934331515 0)
(0.0108606288 -0.05970657914 0)
(0.0108649935 -0.06094600246 0)
(0.01087818352 -0.06220487579 0)
(0.01219109394 -0.06227995412 0)
(0.01348560567 -0.06233062486 0)
(0.01349882983 -0.05984228945 0)
(0.02032540986 -0.05749610652 3.431976925e-13)
(0.02062616044 -0.06084632175 3.490541189e-13)
(0.02218501401 -0.05845561298 3.35051431e-13)
(0.02171704747 -0.05489530824 3.274325255e-13)
(0.02191635038 -0.04201348719 2.504524366e-13)
(0.02269915472 -0.04532925113 2.59514632e-13)
(0.02154118211 -0.03979565307 2.279010314e-13)
(0.02056806907 -0.03648154694 2.175620795e-13)
(0.01325863363 -0.01917942984 1.146721607e-13)
(0.01449998458 -0.02183560284 1.253996906e-13)
(0.01142206774 -0.01619106494 9.311995619e-14)
(0.01028736897 -0.0140092584 8.387734951e-14)
(0.002289459975 -0.002648104127 1.590394483e-14)
(0.002861776039 -0.003444902719 1.988686993e-14)
(0.001025179132 -0.001174849402 6.786238238e-15)
(0.0006975125779 -0.0007681023249 4.62130334e-15)
(0 0 0)
(0 0 0)
(0 0 0)
(0 0 0)
(0 0 0)
(0 0 0)
(0 0 0)
(0 0 0)
(0 0 0)
(0 0 0)
(0 0 0)
(0 0 0)
(0 0 0)
(0 0 0)
(0 0 0)
(0 0 0)
(0 0 0)
(0 0 0)
(0 0 0)
(0 0 0)
(0 0 0)
(0 0 0)
(0 0 0)
(0 0 0)
(0 0 0)
(0 0 0)
(0 0 0)
(0 0 0)
(-0.0002049516623 -0.0002643422075 1.276756478e-15)
(-0.0001167962567 -0.0001456963582 7.21644966e-16)
(-9.554952143e-05 -0.000115155475 5.967448757e-16)
(-0.003093670062 -0.004092042759 2.119138198e-14)
(-0.003208497336 -0.004392134785 2.19685381e-14)
(-0.005939911038 -0.008546247476 4.27990976e-14)
(-0.005782843305 -0.008039977456 4.167499679e-14)
(-0.01554282117 -0.02554543565 1.32963085e-13)
(-0.01579304843 -0.02685390268 1.350031198e-13)
(-0.01879696516 -0.03404488037 1.713629239e-13)
(-0.01852911132 -0.03244181751 1.690592111e-13)
(-0.02401390058 -0.05242164947 2.738087534e-13)
(-0.02427091372 -0.05477311295 2.76320633e-13)
(-0.02457786985 -0.06045671408 3.05033776e-13)
(-0.02434363013 -0.05794077658 3.027023077e-13)
(-0.02084626104 -0.06805215045 3.551048344e-13)
(-0.02096659351 -0.07064891139 3.559791351e-13)
(-0.01856356052 -0.07130270653 0)
(-0.01849078166 -0.06884791365 3.589351039e-13)
(-0.01076653494 -0.06903786308 0)
(-0.01080888666 -0.07028175577 0)
(-0.009522230165 -0.07031062071 0)
(-0.009480046634 -0.06906868458 0)
(0.01075479993 -0.06960852434 0)
(0.01072734738 -0.07084076042 0)
(0.01201331112 -0.07088215975 0)
(0.01204206644 -0.06965178567 0)
(0.02095263752 -0.06961038254 3.572003804e-13)
(0.02093695953 -0.07221466701 3.580469254e-13)
(0.02302215016 -0.07081214553 3.507749646e-13)
(0.02295374739 -0.06803283448 3.487765632e-13)
(0.02487162871 -0.05570636695 2.853273173e-13)
(0.02515423145 -0.05840635481 2.890604422e-13)
(0.02428151875 -0.05210415452 2.579325642e-13)
(0.02395010679 -0.04958780049 2.540745392e-13)
(0.01701480773 -0.02866788994 1.47284962e-13)
(0.01739493865 -0.03035647641 1.506711422e-13)
(0.01412328776 -0.02318927415 1.1524115e-13)
(0.01376222357 -0.02181876206 1.122435478e-13)
(0.004152107569 -0.005586157266 2.883804306e-14)
(0.004688648191 -0.006532204352 3.257116798e-14)
(0.002236013818 -0.002964967744 1.47937218e-14)
(0.001840724792 -0.002357219888 1.21846977e-14)
(0 0 0)
(0 0 0)
(0 0 0)
(0 0 0)
(0 0 0)
(0 0 0)
(0 0 0)
(0 0 0)
(0 0 0)
(0 0 0)
(0 0 0)
(0 0 0)
(0 0 0)
(0 0 0)
(0 0 0)
(0 0 0)
(0 0 0)
(0 0 0)
(0 0 0)
(0 0 0)
(0 0 0)
(0 0 0)
(0 0 0)
(0 0 0)
(0 0 0)
(0 0 0)
(0 0 0)
(0 0 0)
(-0.0003364420359 -0.0004907747464 2.095545959e-15)
(-0.0003038738621 -0.0004304475636 1.887379142e-15)
(-0.0002665833043 -0.0003663686032 1.665334537e-15)
(-0.003812492176 -0.005748215925 2.609024108e-14)
(-0.003942368837 -0.006126514074 2.69784195e-14)
(-0.006874851187 -0.01122680782 4.950206911e-14)
(-0.006712148307 -0.01063532371 4.833633493e-14)
(-0.01678659396 -0.03140731089 1.432604035e-13)
(-0.01699219348 -0.03275449024 1.449396159e-13)
(-0.01997730186 -0.04099068926 1.815769757e-13)
(-0.01977397987 -0.039388194 1.798700078e-13)
(-0.02501495255 -0.06195155384 2.834399382e-13)
(-0.0251778603 -0.06418440494 2.84827717e-13)
(-0.02535046924 -0.07035100338 3.122085923e-13)
(-0.02520791428 -0.06798256144 3.110567359e-13)
(-0.0212471789 -0.07821397408 3.573669138e-13)
(-0.02132507805 -0.0806868957 3.575889584e-13)
(-0.01883268418 -0.0810657616 0)
(-0.01876709834 -0.07863102929 0)
(-0.01105581591 -0.07884679238 0)
(-0.01108936629 -0.08006498424 0)
(-0.009806122491 -0.0801007103 0)
(-0.009772402824 -0.07888252322 0)
(0.01050643008 -0.07943857994 0)
(0.01047211307 -0.08066392223 0)
(0.0117550961 -0.08070088333 0)
(0.01178962131 -0.07947616813 0)
(0.02077998653 -0.07972564045 3.588934705e-13)
(0.02071049515 -0.08217980088 3.589351039e-13)
(0.02301518512 -0.08130056161 3.548134009e-13)
(0.02305047826 -0.07876361196 3.542721672e-13)
(0.02586413578 -0.06650487048 2.988304049e-13)
(0.02597164023 -0.06896254373 3.006622729e-13)
(0.02537064222 -0.06218509013 2.711719738e-13)
(0.02521259167 -0.05986091127 2.690347944e-13)
(0.01875836743 -0.03614974136 1.628419621e-13)
(0.01902545091 -0.03782332052 1.652844528e-13)
(0.01579179436 -0.02951828959 1.291466933e-13)
(0.01551190159 -0.02811114281 1.267735916e-13)
(0.00537589497 -0.008256517093 3.735900478e-14)
(0.005594209935 -0.008858890032 3.888556144e-14)
(0.002884893719 -0.004346982978 1.910971381e-14)
(0.002719745508 -0.003974876524 1.799949079e-14)
(0 0 0)
(0 0 0)
(0 0 0)
(0 0 0)
(0 0 0)
(0 0 0)
(0 0 0)
(0 0 0)
(0 0 0)
(0 0 0)
(0 0 0)
(0 0 0)
(0 0 0)
(0 0 0)
(0 0 0)
(0 0 0)
(0 0 0)
(0 0 0)
(0 0 0)
(0 0 0)
(0 0 0)
(0 0 0)
(0 0 0)
(0 0 0)
(0 0 0)
(0 0 0)
(0 0 0)
(0 0 0)
(-0.0004963049907 -0.0008076627654 3.080868893e-15)
(-0.0004474499473 -0.0007092862077 2.775557562e-15)
(-0.0004039521834 -0.0006233174686 2.511879593e-15)
(-0.004265840596 -0.007220518747 2.918498776e-14)
(-0.004396874297 -0.007645158745 3.008704397e-14)
(-0.00743893021 -0.01358838586 5.354050536e-14)
(-0.00727739588 -0.01294160556 5.237477119e-14)
(-0.01750094015 -0.03669665636 1.490058077e-13)
(-0.01770135844 -0.03811099002 1.506156311e-13)
(-0.02068100464 -0.04736139862 1.873501354e-13)
(-0.02048319589 -0.04569328039 1.857125564e-13)
(-0.02559676666 -0.07078562576 2.881722638e-13)
(-0.02575456201 -0.07306247794 2.894628981e-13)
(-0.02586118712 -0.07976910432 3.160527395e-13)
(-0.02572344552 -0.07736844852 3.149841499e-13)
(-0.02154545089 -0.08806342938 3.580469254e-13)
(-0.02161880635 -0.09052548141 3.582134589e-13)
(-0.0190907249 -0.09078431264 0)
(-0.01902661855 -0.08835597648 0)
(-0.01132035183 -0.08857137205 0)
(-0.01135303481 -0.08978484467 0)
(-0.01007153231 -0.0898202392 0)
(-0.01005507637 -0.08921344965 0)
(-0.01003863477 -0.08860716795 0)
(0.01021808969 -0.08923019859 0)
(0.01018017908 -0.09045080862 0)
(0.01146175235 -0.09048569689 0)
(0.01149982109 -0.08926548663 0)
(0.02048367293 -0.08950257584 3.589212261e-13)
(0.02040296821 -0.09192159297 3.588518371e-13)
(0.02266625003 -0.09073649758 3.539807336e-13)
(0.02277130504 -0.08845328374 3.544525784e-13)
(0.02570602001 -0.07478802041 2.994271497e-13)
(0.0255591515 -0.07653847507 2.983446823e-13)
(0.02495595111 -0.06889488847 2.68604583e-13)
(0.02510641052 -0.06736120063 2.697425616e-13)
(0.01878412114 -0.04078244926 1.636468738e-13)
(0.0186488396 -0.04162649972 1.626199175e-13)
(0.01544127455 -0.03238266607 1.26620936e-13)
(0.01556455943 -0.03175490376 1.275507477e-13)
(0.005442113225 -0.009396629713 3.785860514e-14)
(0.005370718079 -0.009528956606 3.737288257e-14)
(0.002721015142 -0.004592654058 1.802724636e-14)
(0.002771327151 -0.004552355544 1.836031327e-14)
(0 0 0)
(0 0 0)
(0 0 0)
(0 0 0)
(0 0 0)
(0 0 0)
(0 0 0)
(0 0 0)
(0 0 0)
(0 0 0)
(0 0 0)
(0 0 0)
(0 0 0)
(0 0 0)
(0 0 0)
(0 0 0)
(0 0 0)
(0 0 0)
(0 0 0)
(0 0 0)
(0 0 0)
(0 0 0)
(0 0 0)
(0 0 0)
(0 0 0)
(0 0 0)
(0 0 0)
(0 0 0)
(-0.000710768626 -0.001276616034 4.427014311e-15)
(-0.0006526707218 -0.001144740066 4.066191828e-15)
(-0.00059647954 -0.00102102137 3.719247132e-15)
(-0.004806720741 -0.009022609742 3.287647932e-14)
(-0.004951165228 -0.009521725338 3.387568004e-14)
(-0.008115165161 -0.01638983921 5.835609773e-14)
(-0.007940040113 -0.01565357846 5.710709683e-14)
(-0.0183157399 -0.04250874116 1.555422457e-13)
(-0.01852788884 -0.04403365543 1.572353359e-13)
(-0.02149404864 -0.05429455165 1.940392291e-13)
(-0.02128584288 -0.05251793751 1.923322612e-13)
(-0.0262330748 -0.0800032089 2.934041898e-13)
(-0.02639590623 -0.08235742953 2.947225797e-13)
(-0.02641745998 -0.0895164857 3.20340976e-13)
(-0.02627689136 -0.0870563341 3.192585085e-13)
(-0.02183325794 -0.09790516759 3.58602037e-13)
(-0.02190273605 -0.1003606517 3.586991815e-13)
(-0.01934471395 -0.1005033734 0)
(-0.0192816399 -0.09807359626 0)
(-0.01158010358 -0.09828851943 0)
(-0.01161208486 -0.09950314132 0)
(-0.01033278465 -0.09953853014 0)
(-0.01031665294 -0.09893122317 0)
(-0.01030046799 -0.09832403066 0)
(0.009905663608 -0.09898081542 0)
(0.009864302259 -0.1001996338 0)
(0.01114467076 -0.1002331892 0)
(0.01118630469 -0.09901471732 0)
(0.02011693814 -0.09899205186 3.580052921e-13)
(0.01999604619 -0.1012139669 3.572975249e-13)
(0.02202683667 -0.09883086565 3.486932965e-13)
(0.02223039106 -0.09702981532 3.507194535e-13)
(0.02461680437 -0.08003923422 2.891298312e-13)
(0.02408996579 -0.08039168701 2.834954493e-13)
(0.02342338114 -0.07196246144 2.53824739e-13)
(0.02385695259 -0.07143011163 2.580852199e-13)
(0.0172672977 -0.04169792782 1.50948698e-13)
(0.01682860971 -0.04166438202 1.472294509e-13)
(0.01365318331 -0.03173524471 1.122435478e-13)
(0.01406126235 -0.03188424997 1.155325835e-13)
(0.004389412327 -0.008413328625 3.057276654e-14)
(0.004153674667 -0.008158729968 2.893518758e-14)
(0.001847023735 -0.003450917075 1.224020885e-14)
(0.002005110773 -0.003655831525 1.329492072e-14)
(0 0 0)
(0 0 0)
(0 0 0)
(0 0 0)
(0 0 0)
(0 0 0)
(0 0 0)
(0 0 0)
(0 0 0)
(0 0 0)
(0 0 0)
(0 0 0)
(0 0 0)
(0 0 0)
(0 0 0)
(0 0 0)
(0 0 0)
(0 0 0)
(0 0 0)
(0 0 0)
(0 0 0)
(0 0 0)
(0 0 0)
(0 0 0)
(0 0 0)
(0 0 0)
(0 0 0)
(0 0 0)
(-0.0008983602136 -0.00176502952 5.606626274e-15)
(-0.0009290478056 -0.001786105502 5.787037516e-15)
(-0.0008480745254 -0.001594712573 5.287437155e-15)
(-0.005423501864 -0.01117787157 3.709532681e-14)
(-0.005608236361 -0.01181581024 3.834432771e-14)
(-0.008902716201 -0.01969056807 6.394884622e-14)
(-0.008682743661 -0.01878798731 6.239453398e-14)
(-0.01920518978 -0.04883758304 1.626199175e-13)
(-0.01946278754 -0.05056537088 1.646738301e-13)
(-0.02240627472 -0.06182375978 2.014777234e-13)
(-0.02215607479 -0.05984837329 1.994515664e-13)
(-0.02690487637 -0.08957430388 2.988720382e-13)
(-0.02709156167 -0.09206662762 3.004124727e-13)
(-0.0270098781 -0.09957854564 3.249067682e-13)
(-0.02685277838 -0.09701334549 3.236855228e-13)
(-0.02210491246 -0.1077049558 3.589073483e-13)
(-0.02217033443 -0.1101445718 3.589351039e-13)
(-0.01959506678 -0.1102196567 0)
(-0.01953251652 -0.1077904295 0)
(-0.01183225255 -0.1080044132 0)
(-0.01186315851 -0.1092189525 0)
(-0.01058627673 -0.1092539907 0)
(-0.01057070452 -0.1086464985 0)
(-0.01055508863 -0.1080394593 0)
(0.009566073376 -0.1087074548 0)
(0.009521270189 -0.1099221665 0)
(0.01080121594 -0.1099546934 0)
(0.01084641413 -0.1087399929 0)
(0.01954801986 -0.107345825 3.536060333e-13)
(0.01935293121 -0.1090921421 3.515243652e-13)
(0.02104693476 -0.1048462266 3.377298441e-13)
(0.02134104724 -0.1036540677 3.412964356e-13)
(0.02260702027 -0.08126541075 2.675221156e-13)
(0.02221339172 -0.081776618 2.633587792e-13)
(0.02108261617 -0.07132700581 2.297745327e-13)
(0.02175882395 -0.07192532526 2.368383267e-13)
(0.01486291299 -0.03950153681 1.303124275e-13)
(0.01392995849 -0.03785835458 1.221800439e-13)
(0.01080614094 -0.02755736979 8.9012131e-14)
(0.01174173936 -0.02928512265 9.668654766e-14)
(0.002946901695 -0.006207378862 2.053912596e-14)
(0.002573656787 -0.0055431046 1.794397964e-14)
(0.0008360115273 -0.001712900389 5.551115123e-15)
(0.001052252684 -0.002108447514 6.980527267e-15)
(0 0 0)
(0 0 0)
(0 0 0)
(0 0 0)
(0 0 0)
(0 0 0)
(0 0 0)
(0 0 0)
(0 0 0)
(0 0 0)
(0 0 0)
(0 0 0)
(0 0 0)
(0 0 0)
(0 0 0)
(0 0 0)
(0 0 0)
(0 0 0)
(0 0 0)
(0 0 0)
(0 0 0)
(0 0 0)
(0 0 0)
(0 0 0)
(0 0 0)
(0 0 0)
(0 0 0)
(0 0 0)
(-0.001597347359 -0.003406662553 9.950373858e-15)
(-0.001456247915 -0.003044389853 9.076073226e-15)
(-0.001246269243 -0.002553206884 7.771561172e-15)
(-0.006202161159 -0.01391829295 4.238276397e-14)
(-0.006664298497 -0.01525712503 4.551914401e-14)
(-0.01011154043 -0.0242899493 7.253919687e-14)
(-0.009545497561 -0.02248062118 6.850076062e-14)
(-0.02033317599 -0.05616493596 1.715988462e-13)
(-0.02071576181 -0.0583439757 1.746658373e-13)
(-0.02356456883 -0.07042909507 2.109701303e-13)
(-0.02324587182 -0.06815177135 2.083611061e-13)
(-0.02770031305 -0.0998093234 3.054778652e-13)
(-0.02781083289 -0.1020965261 3.06143999e-13)
(-0.02769139833 -0.1101580056 3.302913498e-13)
(-0.02751425275 -0.1074688851 3.28903571e-13)
(-0.02236344006 -0.1174340159 0)
(-0.02242931321 -0.1198629234 0)
(-0.01985017935 -0.1199345067 0)
(-0.01981748044 -0.1187204698 0)
(-0.01978511691 -0.1175063105 0)
(-0.01207677577 -0.1177202399 0)
(-0.01209203716 -0.1183267243 0)
(-0.01145342061 -0.1183440225 0)
(-0.01143822043 -0.1177377057 0)
(-0.001001508956 -0.1181770858 0)
(-0.001017086905 -0.1184793412 0)
(-0.001030632782 -0.1187817105 0)
(-0.0004051955221 -0.1187922551 0)
(-0.0003751195232 -0.118188109 0)
(0.009179732097 -0.1184097896 0)
(0.00912570526 -0.1196191582 0)
(0.00907118013 -0.120828174 0)
(0.0116386091 -0.1208942877 0)
(0.01174442955 -0.1184746403 0)
(0.01046255727 -0.1184423414 0)
(0.01864398234 -0.1133470593 3.428923812e-13)
(0.01830659768 -0.1140120047 3.380073998e-13)
(0.01955255284 -0.1072168462 3.17787463e-13)
(0.02008190609 -0.1076031809 3.254063685e-13)
(0.02030538443 -0.07997283615 2.418482081e-13)
(0.01957011152 -0.07874475158 2.334105131e-13)
(0.01816912831 -0.06709540389 1.98951966e-13)
(0.01893790979 -0.06847338277 2.071398608e-13)
(0.01154328493 -0.03345435089 1.013911177e-13)
(0.01084818296 -0.03209258764 9.532652445e-14)
(0.007939621051 -0.02203078247 6.547540288e-14)
(0.008551888107 -0.02324871459 7.051303985e-14)
(0.00121708102 -0.002793933453 8.493206138e-15)
(0.0009893885785 -0.002318251504 6.89726054e-15)
(7.845158207e-05 -0.0001749304606 5.273559367e-16)
(0.0001498856062 -0.0003274166906 9.992007222e-16)
(0 0 0)
(0 0 0)
(0 0 0)
(0 0 0)
(0 0 0)
(0 0 0)
(0 0 0)
(0 0 0)
(0 0 0)
(0 0 0)
(0 0 0)
(0 0 0)
(0 0 0)
(0 0 0)
(0 0 0)
(0 0 0)
(0 0 0)
(0 0 0)
(0 0 0)
(0 0 0)
(0 0 0)
(0 0 0)
(0 0 0)
(0 0 0)
(0 0 0)
(0 0 0)
(0 0 0)
(0 0 0)
(-0.00151486322 -0.003502425904 9.492406861e-15)
(-0.001711951878 -0.003885194639 1.071365219e-14)
(-0.001829330653 -0.004073927475 1.144917494e-14)
(-0.007382672934 -0.01800226559 5.064004771e-14)
(-0.007145556087 -0.017755641 4.901634654e-14)
(-0.01066421161 -0.02779934003 7.679967773e-14)
(-0.01094804575 -0.02800785171 7.885359032e-14)
(-0.02166676848 -0.06494432498 1.832839436e-13)
(-0.02132153118 -0.06509877712 1.802585858e-13)
(-0.02414057074 -0.07818270842 2.166183899e-13)
(-0.02447577108 -0.07783467812 2.197964033e-13)
(-0.02840341632 -0.1108896519 3.134020821e-13)
(-0.02818918604 -0.1119939544 3.105571356e-13)
(-0.02786137952 -0.1199292721 3.325395515e-13)
(-0.02800935251 -0.1185166224 3.34926531e-13)
(-0.02234224857 -0.127181516 0)
(-0.02241084141 -0.129610742 0)
(-0.01982451983 -0.1296837706 0)
(-0.01979023137 -0.1284694398 0)
(-0.01975592698 -0.1272545446 0)
(-0.01199707507 -0.1274736275 0)
(-0.01203137946 -0.1286885226 0)
(-0.0107382751 -0.1287250354 0)
(-0.01072111494 -0.1281173057 0)
(-0.01070397071 -0.1275101402 0)
(-0.01135052289 -0.1274918839 0)
(-0.001651959861 -0.1277657374 0)
(-0.001669103008 -0.1283729028 0)
(-0.001686262629 -0.1289806325 0)
(-0.0003931185303 -0.1290171464 0)
(-0.0003588141407 -0.1278022513 0)
(0.008693159061 -0.1280578473 0)
(0.008624566215 -0.1304870733 0)
(0.01117311304 -0.1300596575 3.575889584e-13)
(0.01127156433 -0.1280293113 3.586714259e-13)
(0.01732163516 -0.1157322348 3.237549118e-13)
(0.01688353556 -0.1153818222 3.168437734e-13)
(0.01775971623 -0.1064808939 2.92349478e-13)
(0.01828460043 -0.1072869935 3.00065528e-13)
(0.01703172247 -0.07285215834 2.038091917e-13)
(0.01634185741 -0.07129827547 1.958017082e-13)
(0.01458348164 -0.05828926805 1.601357935e-13)
(0.01558116643 -0.06111030569 1.710298569e-13)
(0.008188345203 -0.02568609442 7.199796315e-14)
(0.007136729516 -0.02280632646 6.275535647e-14)
(0.004851347938 -0.01454238004 4.003741783e-14)
(0.005527867352 -0.01626218464 4.561628852e-14)
(0.0002037122306 -0.000506365161 1.415534356e-15)
(9.201608808e-05 -0.0002331234985 6.383782392e-16)
(0 0 0)
(0 0 0)
(0 0 0)
(0 0 0)
(0 0 0)
(0 0 0)
(0 0 0)
(0 0 0)
(0 0 0)
(0 0 0)
(0 0 0)
(0 0 0)
(0 0 0)
(0 0 0)
(0 0 0)
(0 0 0)
(0 0 0)
(0 0 0)
(0 0 0)
(0 0 0)
(0 0 0)
(0 0 0)
(0 0 0)
(0 0 0)
(0 0 0)
(0 0 0)
(0 0 0)
(0 0 0)
(0 0 0)
(0 0 0)
(-0.0003537923103 -0.0008785621282 2.220446049e-15)
(-0.0006419763776 -0.00156668712 4.024558464e-15)
(-0.0009537988267 -0.002286777045 5.967448757e-15)
(-0.005475016606 -0.01437817286 3.75671716e-14)
(-0.004677453355 -0.01250714338 3.211320099e-14)
(-0.007622277094 -0.02138614382 5.492828414e-14)
(-0.008622994826 -0.02375857822 6.211697823e-14)
(-0.01868592792 -0.06028047816 1.57943103e-13)
(-0.01732215273 -0.05691535333 1.464800503e-13)
(-0.02012337045 -0.07010818422 1.805361416e-13)
(-0.02151033145 -0.07358023627 1.929012505e-13)
(-0.02620403897 -0.1097364124 2.87964097e-13)
(-0.02505229662 -0.1068036897 2.753075545e-13)
(-0.02529285476 -0.1166659679 3.007316618e-13)
(-0.02627674036 -0.1190962891 3.125139036e-13)
(-0.02235623062 -0.1354277324 3.550770789e-13)
(-0.02202809699 -0.1355661044 3.492067746e-13)
(-0.0199154156 -0.1382263903 3.559097461e-13)
(-0.0200175156 -0.1368914351 3.587408148e-13)
(-0.01227147832 -0.13719166 0)
(-0.0123400871 -0.1396214503 0)
(-0.009753821943 -0.1396944774 0)
(-0.009685213164 -0.1372646871 0)
(-0.01097837396 -0.1372281728 0)
(-0.001926361256 -0.13748377 0)
(-0.001994970035 -0.1399135602 0)
(0.0005913120527 -0.1399865878 0)
(0.0006599208319 -0.1375567975 0)
(0.00835731321 -0.1365455191 3.557432127e-13)
(0.008185180888 -0.1367888858 3.502198531e-13)
(0.0104260291 -0.1326556401 3.394784454e-13)
(0.01070457133 -0.1334840066 3.47610829e-13)
(0.01545193068 -0.1118681136 2.910449659e-13)
(0.01478490255 -0.108904306 2.784716902e-13)
(0.01514676129 -0.09765681759 2.496891582e-13)
(0.01592888837 -0.1009761381 2.626787676e-13)
(0.01352254167 -0.06224106101 1.620092949e-13)
(0.01256487739 -0.05879977935 1.50421342e-13)
(0.01067372509 -0.04575348845 1.171007735e-13)
(0.01161426211 -0.04896519012 1.274952366e-13)