/*--------------------------------*- C++ -*----------------------------------*\
| =========                 |                                                 |
| \\      /  F ield         | OpenFOAM: The Open Source CFD Toolbox           |
|  \\    /   O peration     | Version:  v1912                                 |
|   \\  /    A nd           | Website:  www.openfoam.com                      |
|    \\/     M anipulation  |                                                 |
\*---------------------------------------------------------------------------*/
FoamFile
{
    version     2.0;
    format      ascii;
    class       pointVectorField;
    location    "1.34";
    object      pointDisplacement;
}
// * * * * * * * * * * * * * * * * * * * * * * * * * * * * * * * * * * * * * //

dimensions      [0 1 0 0 0 0 0];


internalField   nonuniform List<vector> 
26316
(
(0 0 0)
(0 0 0)
(0 0 0)
(0 0 0)
(0 0 0)
(0 0 0)
(0 0 0)
(0 0 0)
(0 0 0)
(0 0 0)
(0 0 0)
(0 0 0)
(0 0 0)
(0 0 0)
(0 0 0)
(0 0 0)
(0 0 0)
(0 0 0)
(0 0 0)
(0 0 0)
(0 0 0)
(0 0 0)
(0 0 0)
(0 0 0)
(0 0 0)
(0 0 0)
(0 0 0)
(0 0 0)
(0 0 0)
(0 0 0)
(0 0 0)
(0 0 0)
(0 0 0)
(0 0 0)
(0 0 0)
(0 0 0)
(0 0 0)
(0 0 0)
(0 0 0)
(0 0 0)
(0 0 0)
(0 0 0)
(0 0 0)
(0 0 0)
(0 0 0)
(0 0 0)
(0 0 0)
(0 0 0)
(0 0 0)
(0 0 0)
(0 0 0)
(0 0 0)
(0 0 0)
(0 0 0)
(0 0 0)
(0 0 0)
(0 0 0)
(0 0 0)
(0 0 0)
(0 0 0)
(0 0 0)
(0 0 0)
(0 0 0)
(0 0 0)
(0 0 0)
(0 0 0)
(0 0 0)
(0 0 0)
(0 0 0)
(0 0 0)
(0 0 0)
(0 0 0)
(0 0 0)
(0 0 0)
(0 0 0)
(0 0 0)
(0 0 0)
(0 0 0)
(0 0 0)
(0 0 0)
(0 0 0)
(0 0 0)
(0 0 0)
(0 0 0)
(0 0 0)
(0 0 0)
(0 0 0)
(0 0 0)
(0 0 0)
(0 0 0)
(0 0 0)
(0 0 0)
(0 0 0)
(0 0 0)
(0 0 0)
(0 0 0)
(0 0 0)
(0 0 0)
(0 0 0)
(0 0 0)
(0 0 0)
(0 0 0)
(0 0 0)
(0 0 0)
(0 0 0)
(0 0 0)
(0 0 0)
(0 0 0)
(0 0 0)
(0 0 0)
(0 0 0)
(0 0 0)
(0 0 0)
(0 0 0)
(0 0 0)
(0 0 0)
(0 0 0)
(0 0 0)
(0 0 0)
(-1.714037321e-07 5.714605024e-07 2.775557562e-17)
(0 0 0)
(0 0 0)
(-9.485800878e-08 6.401051457e-06 3.330669074e-16)
(4.364432727e-07 5.441568788e-06 2.91433544e-16)
(0 0 0)
(0 0 0)
(0 0 0)
(0 0 0)
(0 0 0)
(0 0 0)
(0 0 0)
(0 0 0)
(0 0 0)
(0 0 0)
(0 0 0)
(0 0 0)
(0 0 0)
(0 0 0)
(0 0 0)
(0 0 0)
(0 0 0)
(0 0 0)
(0 0 0)
(0 0 0)
(0 0 0)
(0 0 0)
(0 0 0)
(0 0 0)
(0 0 0)
(0 0 0)
(0 0 0)
(0 0 0)
(0 0 0)
(0 0 0)
(0 0 0)
(0 0 0)
(0 0 0)
(0 0 0)
(0 0 0)
(0 0 0)
(0 0 0)
(0 0 0)
(0 0 0)
(0 0 0)
(0 0 0)
(0 0 0)
(0 0 0)
(0 0 0)
(0 0 0)
(0 0 0)
(0 0 0)
(0 0 0)
(0 0 0)
(0 0 0)
(0 0 0)
(0 0 0)
(0 0 0)
(0 0 0)
(0 0 0)
(0 0 0)
(0 0 0)
(0 0 0)
(0 0 0)
(0 0 0)
(0 0 0)
(-1.067859731e-05 5.959263242e-06 4.857225733e-16)
(-6.146548355e-05 3.738909396e-05 3.080868893e-15)
(-8.035870116e-07 5.559655029e-07 4.163336342e-17)
(-0.0001167645749 0.0001105892681 8.007483565e-15)
(-0.0002902258081 0.0002418724676 1.99146255e-14)
(-0.0003447148857 0.0003276899741 2.69784195e-14)
(-0.0001605593021 0.0001734079615 1.254552018e-14)
(-0.0001961035235 0.0003654769369 2.645106356e-14)
(-0.0003448057127 0.0005662674897 4.660161146e-14)
(-0.0002887231633 0.0006257282064 5.148659277e-14)
(-0.0001692480848 0.0004159443197 3.010092176e-14)
(-8.911485305e-06 0.0004863977834 3.520794767e-14)
(-1.37849127e-05 0.0007071182439 5.820344207e-14)
(8.911862693e-05 0.0006979298282 5.745404152e-14)
(5.315038519e-05 0.0004784165966 3.463895837e-14)
(0.0001830082376 0.000366633981 2.654820808e-14)
(0.0003228433987 0.000567354306 4.674038934e-14)
(0.0003549239208 0.0004956814584 4.084232952e-14)
(0.0001928640227 0.0003069048493 2.223221607e-14)
(0.0001137872096 0.0001119643548 8.10462808e-15)
(0.0002820252871 0.0002437582431 2.009503675e-14)
(0.0002123539947 0.0001628610611 1.341982081e-14)
(6.650509609e-05 5.805433289e-05 4.204969706e-15)
(0 0 0)
(1.120155518e-05 6.417537246e-06 5.273559367e-16)
(0 0 0)
(0 0 0)
(0 0 0)
(0 0 0)
(0 0 0)
(0 0 0)
(0 0 0)
(0 0 0)
(0 0 0)
(0 0 0)
(0 0 0)
(0 0 0)
(0 0 0)
(0 0 0)
(0 0 0)
(0 0 0)
(0 0 0)
(0 0 0)
(0 0 0)
(0 0 0)
(0 0 0)
(0 0 0)
(0 0 0)
(0 0 0)
(0 0 0)
(0 0 0)
(0 0 0)
(0 0 0)
(0 0 0)
(0 0 0)
(0 0 0)
(0 0 0)
(0 0 0)
(0 0 0)
(0 0 0)
(0 0 0)
(0 0 0)
(0 0 0)
(0 0 0)
(0 0 0)
(0 0 0)
(0 0 0)
(0 0 0)
(0 0 0)
(0 0 0)
(0 0 0)
(-2.982397494e-05 5.616675498e-06 1.026956298e-15)
(-0.0001629457329 3.274960956e-05 6.009082121e-15)
(-3.859261542e-05 1.013151456e-05 1.415534356e-15)
(-0.0005511782449 0.0001809825142 2.536859611e-14)
(-0.0008819939866 0.0002221567935 4.060640713e-14)
(-0.001126128899 0.0003097146186 5.653810753e-14)
(-0.0007582554928 0.0002716940249 3.805289417e-14)
(-0.001182767968 0.0005823683064 8.137934771e-14)
(-0.001566663615 0.0005928850074 1.078859224e-13)
(-0.001578936382 0.0006824122098 1.241229342e-13)
(-0.001217415348 0.0006843642803 9.559020242e-14)
(-0.0009610266511 0.0009365442179 1.307981501e-13)
(-0.001197771636 0.0008981519383 1.633970736e-13)
(-0.000953877033 0.0009465487391 1.723066134e-13)
(-0.0007715190041 0.0009944556912 1.389305337e-13)
(-2.707823116e-05 0.001070082751 1.49769086e-13)
(-3.010056363e-05 0.001008218586 1.840749775e-13)
(0.0002968409893 0.001000098373 1.82798221e-13)
(0.0002387316237 0.001060906964 1.485894741e-13)
(0.0009121678741 0.0009336924971 1.310618281e-13)
(0.00114203208 0.0008923882658 1.63702385e-13)
(0.001336295991 0.0008310212977 1.526001547e-13)
(0.001057561656 0.000861418006 1.210004319e-13)
(0.001151482671 0.0005816379142 8.179568134e-14)
(0.001527524215 0.0005890956821 1.083855228e-13)
(0.001449527625 0.0004963387323 9.134359935e-14)
(0.001063738487 0.0004770422254 6.708522626e-14)
(0.0005445437926 0.0001827681014 2.570166302e-14)
(0.0008702217413 0.0002231411562 4.105049634e-14)
(0.0006156946532 0.0001457153399 2.678413047e-14)
(0.0003420310245 0.0001059227878 1.489086632e-14)
(0 0 0)
(2.960561803e-05 5.673354557e-06 1.040834086e-15)
(0 0 0)
(0 0 0)
(0 0 0)
(0 0 0)
(0 0 0)
(0 0 0)
(0 0 0)
(0 0 0)
(0 0 0)
(0 0 0)
(0 0 0)
(0 0 0)
(0 0 0)
(0 0 0)
(0 0 0)
(0 0 0)
(0 0 0)
(0 0 0)
(0 0 0)
(0 0 0)
(0 0 0)
(0 0 0)
(0 0 0)
(0 0 0)
(0 0 0)
(0 0 0)
(0 0 0)
(0 0 0)
(0 0 0)
(0 0 0)
(0 0 0)
(0 0 0)
(0 0 0)
(0 0 0)
(0 0 0)
(0 0 0)
(0 0 0)
(0 0 0)
(0 0 0)
(-1.283101789e-05 -5.008049014e-07 3.747002708e-16)
(0 0 0)
(-0.0005463962481 8.232235277e-06 1.890154699e-14)
(-0.0008122501558 -3.500572401e-05 2.806088695e-14)
(-0.001271732996 -5.741567836e-05 4.6893045e-14)
(-0.0009335481229 1.542279524e-05 3.444466934e-14)
(-0.002138546482 4.759749906e-05 9.858780459e-14)
(-0.002596516656 -0.0001412531092 1.197375532e-13)
(-0.002907094125 -0.0001709570123 1.462163723e-13)
(-0.002444360567 6.056775502e-05 1.229016888e-13)
(-0.002796259282 9.865231423e-05 1.930539062e-13)
(-0.003190139685 -0.0002536770514 2.203653926e-13)
(-0.003056622851 -0.0002771712699 2.411126854e-13)
(-0.002705629687 0.0001094269362 2.133015986e-13)
(-0.001888874291 0.0001310417894 2.589595205e-13)
(-0.002087936576 -0.0003318388312 2.864652959e-13)
(-0.001625228137 -0.0003444618954 2.957356582e-13)
(-0.001477572218 0.0001344245469 2.686323386e-13)
(-3.613271906e-05 0.0001335027797 2.809974475e-13)
(-3.824107748e-05 -0.0003665191897 3.073791222e-13)
(0.0005092371735 -0.0003684204266 3.061717546e-13)
(0.0004640188173 0.0001301097285 2.797068133e-13)
(0.001818617558 0.0001124881321 2.593342208e-13)
(0.002013196469 -0.0003552099591 2.86853874e-13)
(0.002418285521 -0.0003431615559 2.74752443e-13)
(0.002171502819 0.0001047941404 2.469413563e-13)
(0.002737566886 7.812688012e-05 1.937339178e-13)
(0.003126210643 -0.0002813795639 2.209482597e-13)
(0.003151442839 -0.0002528816922 1.978694986e-13)
(0.002729207655 6.86062544e-05 1.715849685e-13)
(0.002099188999 3.896706109e-05 9.861556016e-14)
(0.002613899475 -0.0001618492257 1.223188217e-13)
(0.002256785393 -0.0001318982856 9.739431484e-14)
(0.001790007052 2.845310301e-05 7.741030039e-14)
(0.0006222227873 7.338189794e-06 2.184363801e-14)
(0.0009295973276 -4.395124465e-05 3.261280135e-14)
(0.0005248735006 -2.325112866e-05 1.733335697e-14)
(0.0003000151098 3.367013845e-06 9.908740495e-15)
(0 0 0)
(0 0 0)
(0 0 0)
(0 0 0)
(0 0 0)
(0 0 0)
(0 0 0)
(0 0 0)
(0 0 0)
(0 0 0)
(0 0 0)
(0 0 0)
(0 0 0)
(0 0 0)
(0 0 0)
(0 0 0)
(0 0 0)
(0 0 0)
(0 0 0)
(0 0 0)
(0 0 0)
(0 0 0)
(0 0 0)
(0 0 0)
(0 0 0)
(0 0 0)
(0 0 0)
(0 0 0)
(0 0 0)
(0 0 0)
(0 0 0)
(0 0 0)
(0 0 0)
(0 0 0)
(0 0 0)
(-5.930517615e-05 -1.046274407e-05 1.637578961e-15)
(-0.0001348730848 -3.004187206e-05 3.719247132e-15)
(-0.0004791387193 -0.0001121482364 1.393329896e-14)
(-0.0003221013546 -5.971739703e-05 9.36750677e-15)
(-0.001895609726 -0.0004142666224 6.530886942e-14)
(-0.002242855314 -0.0006192184655 7.727152251e-14)
(-0.002893585208 -0.0008500312876 1.062483435e-13)
(-0.00250827089 -0.0005830161909 9.212075547e-14)
(-0.003974384211 -0.001140133442 1.821598428e-13)
(-0.004389597787 -0.001599816144 2.010058786e-13)
(-0.004634084668 -0.001836502445 2.31259456e-13)
(-0.004235800705 -0.001318836327 2.117472864e-13)
(-0.004216442957 -0.001786780034 2.90253932e-13)
(-0.004475301782 -0.002408707218 3.070321775e-13)
(-0.004144602357 -0.002544621116 3.250039127e-13)
(-0.003919185842 -0.001895688441 3.081562783e-13)
(-0.002512504534 -0.00211945913 3.442662821e-13)
(-0.002591777811 -0.002769175744 3.537864446e-13)
(-0.001971084928 -0.002797257371 3.57158747e-13)
(-0.001925368765 -0.002156223466 3.498312751e-13)
(-4.843344178e-05 -0.002201567813 3.553823902e-13)
(-5.293730647e-05 -0.0028230529 3.59060004e-13)
(0.0005897672034 -0.002827348928 3.590044928e-13)
(0.0005863480675 -0.002203139445 3.549105454e-13)
(0.002436748617 -0.002157067926 3.450018049e-13)
(0.002507788248 -0.002808159399 3.542721672e-13)
(0.003093190941 -0.002768666409 3.484434963e-13)
(0.002986354747 -0.00211223261 3.368694212e-13)
(0.004150012194 -0.001841171956 2.908784325e-13)
(0.004414431538 -0.002480751046 3.081146449e-13)
(0.004641864385 -0.002329696942 2.877420524e-13)
(0.004320270235 -0.00171205518 2.683686606e-13)
(0.004017829032 -0.001204297329 1.873362576e-13)
(0.004427030921 -0.001674001363 2.063349491e-13)
(0.004061739819 -0.001417965254 1.748740042e-13)
(0.003643925679 -0.001008152138 1.569439023e-13)
(0.00199188283 -0.0004466768008 6.981915046e-14)
(0.00234737066 -0.0006648133806 8.223977055e-14)
(0.001693708588 -0.0004511057613 5.587197371e-14)
(0.00138792954 -0.0002925803796 4.579669977e-14)
(9.173506121e-05 -1.641045014e-05 2.581268532e-15)
(0.0001575884181 -3.567937909e-05 4.413136523e-15)
(4.000932567e-06 -8.630949093e-07 1.110223025e-16)
(0 0 0)
(0 0 0)
(0 0 0)
(0 0 0)
(0 0 0)
(0 0 0)
(0 0 0)
(0 0 0)
(0 0 0)
(0 0 0)
(0 0 0)
(0 0 0)
(0 0 0)
(0 0 0)
(0 0 0)
(0 0 0)
(0 0 0)
(0 0 0)
(0 0 0)
(0 0 0)
(0 0 0)
(0 0 0)
(0 0 0)
(0 0 0)
(0 0 0)
(0 0 0)
(0 0 0)
(0 0 0)
(0 0 0)
(-5.644546671e-06 -2.336968297e-06 1.387778781e-16)
(-1.540239345e-07 -5.725088958e-08 1.387778781e-17)
(0 0 0)
(-0.0004234634444 -0.0001531676747 1.169897512e-14)
(-0.0005344907697 -0.0002180605327 1.476596623e-14)
(-0.001109138826 -0.0004756145361 3.222422329e-14)
(-0.0009462631812 -0.0003597351144 2.749189765e-14)
(-0.003077535822 -0.001381457809 1.059707877e-13)
(-0.003349563981 -0.001696523329 1.152966611e-13)
(-0.00407155751 -0.002195382578 1.49380508e-13)
(-0.003858341197 -0.00184327302 1.41595069e-13)
(-0.005350703106 -0.003176407335 2.447070324e-13)
(-0.005568700872 -0.003731092282 2.54546384e-13)
(-0.005722616538 -0.004174334588 2.849248615e-13)
(-0.0055264817 -0.003572085578 2.753075545e-13)
(-0.005011508087 -0.004418799722 3.409633687e-13)
(-0.005109119515 -0.00508485349 3.471112286e-13)
(-0.004605269701 -0.005216465282 3.561040351e-13)
(-0.004549268133 -0.004564494384 3.525929548e-13)
(-0.002681958723 -0.004624773584 0)
(-0.002711921019 -0.005247854484 0)
(-0.002388126249 -0.005244546539 0)
(-0.0020468325 -0.005227280499 0)
(-0.002029134148 -0.004918862438 0)
(-0.002024069131 -0.004617837551 0)
(-6.61657181e-05 -0.004619350027 0)
(-6.828485584e-05 -0.004918700264 0)
(0.0002596665362 -0.004920759486 0)
(0.0002600093394 -0.004621424827 0)
(0.002570795292 -0.00466255153 0)
(0.002578406449 -0.004970068073 0)
(0.002588309888 -0.005282364289 0)
(0.002914479304 -0.005294078361 0)
(0.003235954875 -0.005299833056 0)
(0.003226129946 -0.004682329876 0)
(0.004932050912 -0.004511722433 3.433225926e-13)
(0.005014975203 -0.005175286543 3.49179019e-13)
(0.005410157722 -0.004972236832 3.351763311e-13)
(0.005287601794 -0.004307845849 3.275574256e-13)
(0.005379315732 -0.003300308943 2.505357033e-13)
(0.005576032038 -0.003862449131 2.595978987e-13)
(0.005301668349 -0.003392941068 2.279842981e-13)
(0.005059268963 -0.002867672298 2.176314684e-13)
(0.003277693925 -0.001511488494 1.14713794e-13)
(0.003584874815 -0.001864576381 1.25441324e-13)
(0.002827051811 -0.001383203516 9.313383398e-14)
(0.002546159008 -0.001104562437 8.390510509e-14)
(0.0005678999445 -0.0002090128334 1.591782262e-14)
(0.0007098263236 -0.0002946621011 1.988686993e-14)
(0.0002543646781 -0.0001005193863 6.786238238e-15)
(0.0001730714596 -6.063872141e-05 4.62130334e-15)
(0 0 0)
(0 0 0)
(0 0 0)
(0 0 0)
(0 0 0)
(0 0 0)
(0 0 0)
(0 0 0)
(0 0 0)
(0 0 0)
(0 0 0)
(0 0 0)
(0 0 0)
(0 0 0)
(0 0 0)
(0 0 0)
(0 0 0)
(0 0 0)
(0 0 0)
(0 0 0)
(0 0 0)
(0 0 0)
(0 0 0)
(0 0 0)
(0 0 0)
(0 0 0)
(0 0 0)
(0 0 0)
(-5.086060644e-05 -2.967275259e-05 1.276756478e-15)
(-2.898395246e-05 -1.568090881e-05 7.355227538e-16)
(-2.371139872e-05 -1.182606918e-05 5.967448757e-16)
(-0.0007679686363 -0.0004204020943 2.119138198e-14)
(-0.0007964349308 -0.0004729264793 2.198241589e-14)
(-0.001474890311 -0.000920630964 4.281297539e-14)
(-0.001436040992 -0.0008263424831 4.168887457e-14)
(-0.003867321447 -0.002629541813 1.330047184e-13)
(-0.003927925013 -0.002897463528 1.350586309e-13)
(-0.004678819275 -0.003675168678 1.71418435e-13)
(-0.004614809801 -0.003340970156 1.691147222e-13)
(-0.00600340921 -0.005402967336 2.73905898e-13)
(-0.006060406741 -0.005917965023 2.764177776e-13)
(-0.00614479889 -0.006532213915 3.051447983e-13)
(-0.006095100026 -0.005971656828 3.027994522e-13)
(-0.00524722589 -0.007007201998 3.552297345e-13)
(-0.005264758499 -0.007627887636 3.561040351e-13)
(-0.004669184959 -0.007694891426 0)
(-0.004664049843 -0.007085514304 3.590738817e-13)
(-0.002746429137 -0.007091845682 0)
(-0.00275038624 -0.007400717276 0)
(-0.002430974649 -0.00740110265 0)
(-0.002427048974 -0.007092717425 0)
(0.002596690161 -0.007120089992 0)
(0.002596368611 -0.007425990742 0)
(0.002915674325 -0.007429489937 0)
(0.002916328941 -0.007124044344 0)
(0.005129602004 -0.007116945202 3.572975249e-13)
(0.005138169373 -0.007738633036 3.581718255e-13)
(0.005658217102 -0.007586717102 3.508998647e-13)
(0.005629711353 -0.006954371778 3.489014633e-13)
(0.00612779448 -0.005693726379 2.854105841e-13)
(0.006205119712 -0.006256284763 2.891575868e-13)
(0.005996048048 -0.005582207906 2.580158309e-13)
(0.005908225925 -0.005069311159 2.541578059e-13)
(0.004210381405 -0.002934281663 1.473404732e-13)
(0.004306430336 -0.003256301259 1.507266534e-13)
(0.003498757866 -0.002489105849 1.152689055e-13)
(0.003408204117 -0.002234546112 1.122713034e-13)
(0.001029902869 -0.0005731109248 2.885192085e-14)
(0.001163026821 -0.0007025151353 3.258504577e-14)
(0.0005547788679 -0.0003190065112 1.480759959e-14)
(0.000456703304 -0.0002419370312 1.21846977e-14)
(0 0 0)
(0 0 0)
(0 0 0)
(0 0 0)
(0 0 0)
(0 0 0)
(0 0 0)
(0 0 0)
(0 0 0)
(0 0 0)
(0 0 0)
(0 0 0)
(0 0 0)
(0 0 0)
(0 0 0)
(0 0 0)
(0 0 0)
(0 0 0)
(0 0 0)
(0 0 0)
(0 0 0)
(0 0 0)
(0 0 0)
(0 0 0)
(0 0 0)
(0 0 0)
(0 0 0)
(0 0 0)
(-8.349001096e-05 -6.282221434e-05 2.095545959e-15)
(-7.540840123e-05 -5.355794551e-05 1.887379142e-15)
(-6.615473954e-05 -4.419070964e-05 1.651456749e-15)
(-0.0009462097376 -0.0006937584481 2.610411887e-14)
(-0.0009783750941 -0.0007627645076 2.700617507e-14)
(-0.001706218792 -0.001398477728 4.952982469e-14)
(-0.001666066774 -0.001284237397 4.835021272e-14)
(-0.004169462732 -0.003799177626 1.433159147e-13)
(-0.004218485124 -0.00408733063 1.449812492e-13)
(-0.004960359766 -0.005117783167 1.816324868e-13)
(-0.004913064522 -0.004767072855 1.799255189e-13)
(-0.006222998533 -0.007504696765 2.835232049e-13)
(-0.006255511697 -0.008020856698 2.849109837e-13)
(-0.006299869156 -0.008791707797 3.123196146e-13)
(-0.006274047552 -0.008235515568 3.111538804e-13)
(-0.005296626696 -0.009468112593 3.574779361e-13)
(-0.005303261565 -0.01007603812 3.576999807e-13)
(-0.004684540161 -0.01011882701 0)
(-0.004681090194 -0.009514348633 0)
(-0.002766544372 -0.009527270259 0)
(-0.002768452957 -0.00982971832 0)
(-0.002449852024 -0.009831824125 0)
(-0.002447901409 -0.009529376358 0)
(0.002586837524 -0.009560541181 0)
(0.002584776375 -0.009864767523 0)
(0.002903319109 -0.009867181154 0)
(0.002905435218 -0.009563109314 0)
(0.005137605599 -0.009579144419 3.590183706e-13)
(0.005133234283 -0.01018725595 3.59060004e-13)
(0.005705581108 -0.01007433447 3.54938301e-13)
(0.005701813785 -0.009460086653 3.543831895e-13)
(0.006405574092 -0.007984167813 2.989275494e-13)
(0.006441135345 -0.008541277184 3.007594174e-13)
(0.006292677713 -0.007702694743 2.712552405e-13)
(0.006246265931 -0.007187409498 2.691180612e-13)
(0.004651034438 -0.004345396632 1.628974733e-13)
(0.004719926935 -0.004690267804 1.653399639e-13)
(0.003917951662 -0.003662470901 1.291883267e-13)
(0.003846917856 -0.003381034561 1.26815225e-13)
(0.001333834378 -0.0009948118207 3.738676035e-14)
(0.001388142949 -0.001101124303 3.891331701e-14)
(0.0007158802861 -0.0005405692026 1.909583602e-14)
(0.0006748679874 -0.0004791500406 1.801336857e-14)
(0 0 0)
(0 0 0)
(0 0 0)
(0 0 0)
(0 0 0)
(0 0 0)
(0 0 0)
(0 0 0)
(0 0 0)
(0 0 0)
(0 0 0)
(0 0 0)
(0 0 0)
(0 0 0)
(0 0 0)
(0 0 0)
(0 0 0)
(0 0 0)
(0 0 0)
(0 0 0)
(0 0 0)
(0 0 0)
(0 0 0)
(0 0 0)
(0 0 0)
(0 0 0)
(0 0 0)
(0 0 0)
(-0.0001231570199 -0.000113451582 3.094746681e-15)
(-0.0001110348813 -9.759890178e-05 2.789435349e-15)
(-0.0001002417476 -8.388503697e-05 2.525757381e-15)
(-0.001058401626 -0.0009723696516 2.919886555e-14)
(-0.00109081663 -0.001052693263 3.010092176e-14)
(-0.00184509193 -0.001872013563 5.355438315e-14)
(-0.001805317669 -0.001743719299 5.240252676e-14)
(-0.004338225479 -0.004953162593 1.490613188e-13)
(-0.004385608378 -0.005259632498 1.506711422e-13)
(-0.005121245326 -0.006539609765 1.874195243e-13)
(-0.005075766373 -0.006170674748 1.857819454e-13)
(-0.006334912625 -0.009567746342 2.882694083e-13)
(-0.006365603751 -0.01009716863 2.895739204e-13)
(-0.00638716599 -0.01102419825 3.161637618e-13)
(-0.006363034694 -0.01045772065 3.150951722e-13)
(-0.005319771506 -0.01189454694 3.581579477e-13)
(-0.005325213079 -0.01250144636 3.583244812e-13)
(-0.004697379746 -0.01253166138 0)
(-0.004694263196 -0.01192877788 0)
(-0.002780963866 -0.01194163473 0)
(-0.002782682078 -0.01224290723 0)
(-0.002464514962 -0.01224493995 0)
(-0.002463627738 -0.01209428988 0)
(-0.002462741398 -0.01194376591 0)
(0.002566864498 -0.01199166549 0)
(0.002563886741 -0.01229473654 0)
(0.00288206875 -0.01229664326 0)
(0.00288508785 -0.01199367058 0)
(0.00511554953 -0.01200617023 3.590461262e-13)
(0.005108333146 -0.01260861808 3.589628594e-13)
(0.005669027367 -0.01244115009 3.541056337e-13)
(0.005682709893 -0.01186067219 3.545774785e-13)
(0.006402092413 -0.01002307987 2.99538172e-13)
(0.006374332465 -0.01048903222 2.984418268e-13)
(0.006218598793 -0.009442408943 2.687017275e-13)
(0.006248919733 -0.009028599158 2.698397061e-13)
(0.004668078311 -0.005471972665 1.63702385e-13)
(0.004637050318 -0.005710989777 1.626754287e-13)
(0.003837391791 -0.004445167126 1.266764471e-13)
(0.00386645046 -0.004263029825 1.275923811e-13)
(0.001350833041 -0.001263653793 3.787248293e-14)
(0.001333246079 -0.001310263988 3.740063814e-14)
(0.0006753449656 -0.0006317886094 1.802724636e-14)
(0.0006878006969 -0.0006124775003 1.837419106e-14)
(0 0 0)
(0 0 0)
(0 0 0)
(0 0 0)
(0 0 0)
(0 0 0)
(0 0 0)
(0 0 0)
(0 0 0)
(0 0 0)
(0 0 0)
(0 0 0)
(0 0 0)
(0 0 0)
(0 0 0)
(0 0 0)
(0 0 0)
(0 0 0)
(0 0 0)
(0 0 0)
(0 0 0)
(0 0 0)
(0 0 0)
(0 0 0)
(0 0 0)
(0 0 0)
(0 0 0)
(0 0 0)
(-0.0001763653814 -0.0001922505555 4.427014311e-15)
(-0.0001619522139 -0.0001697025598 4.066191828e-15)
(-0.0001480113807 -0.0001488455831 3.719247132e-15)
(-0.001192143277 -0.001316241459 3.28903571e-14)
(-0.001227833272 -0.001412544686 3.388955783e-14)
(-0.002011378624 -0.002432685141 5.838385331e-14)
(-0.001968347347 -0.002284768713 5.712097462e-14)
(-0.004530402075 -0.006215197392 1.555977569e-13)
(-0.004580273431 -0.006546927107 1.57290847e-13)
(-0.005307281907 -0.00807645276 1.940947403e-13)
(-0.005259748301 -0.00768243523 1.924016502e-13)
(-0.006458025722 -0.01171266316 2.935013343e-13)
(-0.006489343581 -0.01226074529 2.948197242e-13)
(-0.006483633258 -0.01332655668 3.204658761e-13)
(-0.006459351533 -0.01274532956 3.193834086e-13)
(-0.00534002556 -0.01432288499 3.587130593e-13)
(-0.005344442457 -0.0149297214 3.588240816e-13)
(-0.004709211302 -0.01494460089 0)
(-0.004706358488 -0.01434136527 0)
(-0.002794235404 -0.01435412982 0)
(-0.002795773449 -0.0146556838 0)
(-0.002478152819 -0.01465772669 0)
(-0.002477348772 -0.01450694995 0)
(-0.002476530911 -0.01435620133 0)
(0.002540699104 -0.01441274284 0)
(0.002536855675 -0.0147153875 0)
(0.002854731723 -0.01471696984 0)
(0.002858644612 -0.01441440972 0)
(0.005075420785 -0.01438835283 3.581301922e-13)
(0.005057785271 -0.01496088137 3.574085472e-13)
(0.005557412467 -0.01460356225 3.488043188e-13)
(0.005596761381 -0.01409797638 3.508443536e-13)
(0.006163454219 -0.01162439059 2.892130979e-13)
(0.006038569216 -0.01187454808 2.835925939e-13)
(0.005861103627 -0.01063051403 2.539080057e-13)
(0.005963736032 -0.01037525149 2.581823644e-13)
(0.004299711818 -0.006062951417 1.510042091e-13)
(0.004192279199 -0.00616101983 1.47284962e-13)
(0.003397472287 -0.004695162643 1.122851812e-13)
(0.003497972767 -0.004638444048 1.155742169e-13)
(0.001089851777 -0.001225877703 3.058664433e-14)
(0.001031373366 -0.001208897246 2.894906537e-14)
(0.0004584598173 -0.0005115209205 1.225408663e-14)
(0.0004976920727 -0.000532885977 1.329492072e-14)
(0 0 0)
(0 0 0)
(0 0 0)
(0 0 0)
(0 0 0)
(0 0 0)
(0 0 0)
(0 0 0)
(0 0 0)
(0 0 0)
(0 0 0)
(0 0 0)
(0 0 0)
(0 0 0)
(0 0 0)
(0 0 0)
(0 0 0)
(0 0 0)
(0 0 0)
(0 0 0)
(0 0 0)
(0 0 0)
(0 0 0)
(0 0 0)
(0 0 0)
(0 0 0)
(0 0 0)
(0 0 0)
(-0.0002228952565 -0.000280599557 5.606626274e-15)
(-0.0002305112376 -0.0002804568048 5.787037516e-15)
(-0.0002104262724 -0.0002471398268 5.287437155e-15)
(-0.001344472357 -0.001733530598 3.709532681e-14)
(-0.001390072836 -0.001856681292 3.83582055e-14)
(-0.002204699532 -0.003095665377 6.397660179e-14)
(-0.002150718249 -0.002915245922 6.240841177e-14)
(-0.004739262469 -0.007590485975 1.626754287e-13)
(-0.004799823444 -0.007962733103 1.647293413e-13)
(-0.005515474679 -0.009740102979 2.015609901e-13)
(-0.005458234897 -0.00930615401 1.995070775e-13)
(-0.006587340987 -0.0139388416 2.989691827e-13)
(-0.006623792489 -0.01451533288 3.005096172e-13)
(-0.006586678049 -0.01569944514 3.250177905e-13)
(-0.006558965394 -0.01509629764 3.237965451e-13)
(-0.005356133005 -0.0167473124 3.590322484e-13)
(-0.005359546644 -0.01735204124 3.59060004e-13)
(-0.004720155227 -0.01735683207 0)
(-0.004717429483 -0.01675373567 0)
(-0.002805627058 -0.01676627381 0)
(-0.002806898718 -0.01706780163 0)
(-0.002489880025 -0.01706977025 0)
(-0.002489215782 -0.0169189505 0)
(-0.002488538315 -0.01676824292 0)
(0.002507667147 -0.01682801371 0)
(0.00250294806 -0.01712965749 0)
(0.002820713795 -0.01713098686 0)
(0.002825530951 -0.01682934376 0)
(0.004981884555 -0.01658942198 3.537309334e-13)
(0.004944198549 -0.01708259188 3.516631431e-13)
(0.0053538303 -0.01641325209 3.378408664e-13)
(0.005418064417 -0.01601420116 3.414213356e-13)
(0.005685173172 -0.01255216186 2.676053823e-13)
(0.005592040269 -0.01279902798 2.63442046e-13)
(0.005292350684 -0.01116541301 2.298439217e-13)
(0.005458393233 -0.01111086273 2.369215935e-13)
(0.003706009486 -0.006108566805 1.303540609e-13)
(0.003473825909 -0.005932722147 1.222216772e-13)
(0.002690619019 -0.00432051847 8.903988657e-14)
(0.002923492907 -0.004530869401 9.671430323e-14)
(0.0007317262614 -0.0009616837082 2.055300374e-14)
(0.0006390321321 -0.0008701492035 1.794397964e-14)
(0.0002074960581 -0.000268959155 5.551115123e-15)
(0.0002611730378 -0.000326748667 6.980527267e-15)
(0 0 0)
(0 0 0)
(0 0 0)
(0 0 0)
(0 0 0)
(0 0 0)
(0 0 0)
(0 0 0)
(0 0 0)
(0 0 0)
(0 0 0)
(0 0 0)
(0 0 0)
(0 0 0)
(0 0 0)
(0 0 0)
(0 0 0)
(0 0 0)
(0 0 0)
(0 0 0)
(0 0 0)
(0 0 0)
(0 0 0)
(0 0 0)
(0 0 0)
(0 0 0)
(0 0 0)
(0 0 0)
(-0.0003962310982 -0.0005656960277 9.964251646e-15)
(-0.0003612516792 -0.0005004606036 9.076073226e-15)
(-0.0003091836369 -0.0004152987391 7.771561172e-15)
(-0.001536560106 -0.002265583988 4.239664175e-14)
(-0.00165064599 -0.002509996179 4.55330218e-14)
(-0.002501285372 -0.003998036282 7.255307466e-14)
(-0.002362140861 -0.003661159358 6.852851619e-14)
(-0.005004490385 -0.009161660722 1.716682352e-13)
(-0.005094925205 -0.009618187988 1.747213485e-13)
(-0.00578095837 -0.01161532768 2.11053397e-13)
(-0.005707813598 -0.01112179726 2.084443729e-13)
(-0.006743727867 -0.01629886084 3.055888875e-13)
(-0.006761285191 -0.01684849847 3.062550213e-13)
(-0.006708635917 -0.01817849667 3.304162499e-13)
(-0.00667678547 -0.01754915205 3.290145933e-13)
(-0.005369076287 -0.01916152056 0)
(-0.005372628225 -0.01976455513 0)
(-0.004732287739 -0.01976873268 0)
(-0.004730568546 -0.01946732008 0)
(-0.004728933217 -0.01916587887 0)
(-0.002815126879 -0.01917836099 0)
(-0.002815719305 -0.01932892905 0)
(-0.002657167536 -0.01932985762 0)
(-0.002656589415 -0.01917933149 0)
(-6.460194051e-05 -0.01923338441 0)
(-6.687531239e-05 -0.01930846545 0)
(-6.864386418e-05 -0.01938356403 0)
(8.660214178e-05 -0.01938288624 0)
(9.088285027e-05 -0.01923282037 0)
(0.002462906784 -0.0192375001 0)
(0.00245587088 -0.01953786669 0)
(0.002448709476 -0.01983814833 0)
(0.003086116805 -0.01984103037 0)
(0.003099629687 -0.01924008312 0)
(0.002781387124 -0.01923882046 0)
(0.004796310237 -0.01838760254 3.430034035e-13)
(0.004719093756 -0.01869275351 3.381322999e-13)
(0.005007933916 -0.01757538716 3.178846075e-13)
(0.005136415806 -0.01745207143 3.255173908e-13)
(0.00512339624 -0.01297010504 2.419314749e-13)
(0.004940501881 -0.01290796515 2.334799021e-13)
(0.004569792566 -0.01100056162 1.990074772e-13)
(0.004761479339 -0.01110727055 2.072231275e-13)
(0.002879295909 -0.005432624796 1.014188733e-13)
(0.002705984702 -0.00526729852 9.535428003e-14)
(0.001976832412 -0.003617393694 6.550315845e-14)
(0.002129326857 -0.003776991719 7.052691764e-14)
(0.0003021288284 -0.0004543951706 8.493206138e-15)
(0.0002455954584 -0.0003810368599 6.911138328e-15)
(1.94686533e-05 -2.875597868e-05 5.273559367e-16)
(3.719644018e-05 -5.325801732e-05 9.992007222e-16)
(0 0 0)
(0 0 0)
(0 0 0)
(0 0 0)
(0 0 0)
(0 0 0)
(0 0 0)
(0 0 0)
(0 0 0)
(0 0 0)
(0 0 0)
(0 0 0)
(0 0 0)
(0 0 0)
(0 0 0)
(0 0 0)
(0 0 0)
(0 0 0)
(0 0 0)
(0 0 0)
(0 0 0)
(0 0 0)
(0 0 0)
(0 0 0)
(0 0 0)
(0 0 0)
(0 0 0)
(0 0 0)
(-0.0003757412318 -0.0006026911208 9.478529073e-15)
(-0.0004246111802 -0.0006630558932 1.071365219e-14)
(-0.0004537212553 -0.0006892704704 1.144917494e-14)
(-0.001827403821 -0.003048194832 5.066780329e-14)
(-0.001768617207 -0.003032501077 4.903022433e-14)
(-0.002635125242 -0.004750192725 7.68274333e-14)
(-0.002705568731 -0.004744750268 7.88813459e-14)
(-0.005316276979 -0.01101871952 1.833394547e-13)
(-0.005229342967 -0.01114019905 1.803279748e-13)
(-0.00590161597 -0.01338446845 2.166877788e-13)
(-0.005986984534 -0.01321098537 2.198657922e-13)
(-0.006872299249 -0.01883186195 3.134992266e-13)
(-0.006812709151 -0.01918354809 3.106681579e-13)
(-0.006704559858 -0.02054183481 3.326505738e-13)
(-0.006749430821 -0.02012597281 3.350375533e-13)
(-0.005312477187 -0.02158006734 0)
(-0.005316702288 -0.02218319526 0)
(-0.004674570689 -0.0221876936 0)
(-0.004672458629 -0.02188619969 0)
(-0.004670345588 -0.02158456567 0)
(-0.002743978811 -0.02159806048 0)
(-0.002746091853 -0.02189969449 0)
(-0.002425040064 -0.02190194356 0)
(-0.002423983052 -0.02175105651 0)
(-0.002422927022 -0.02160030955 0)
(-0.002583452917 -0.02159918502 0)
(-0.000175494907 -0.02161605352 0)
(-0.0001765506686 -0.02176680048 0)
(-0.0001776075459 -0.02191768754 0)
(0.0001434541084 -0.02191993668 0)
(0.00014556715 -0.02161830266 0)
(0.002392989919 -0.02163404657 0)
(0.002388764817 -0.0222371745 0)
(0.003019617524 -0.02215653632 3.576999807e-13)
(0.003032782771 -0.02162141706 3.58796326e-13)
(0.004491158764 -0.01952933374 3.238659341e-13)
(0.004384168304 -0.01964062842 3.16940918e-13)
(0.004572766074 -0.01812331742 2.924466225e-13)
(0.004703037438 -0.01810170362 3.001765503e-13)
(0.004302875391 -0.01229419964 2.038924585e-13)
(0.004129565765 -0.01213803975 1.958710971e-13)
(0.003668590745 -0.009925859411 1.601774269e-13)
(0.003920276264 -0.01031479697 1.710853681e-13)
(0.00204147181 -0.004340072604 7.202571872e-14)
(0.001778613951 -0.003887619817 6.278311204e-14)
(0.001206977599 -0.002479716928 4.005129561e-14)
(0.001375574656 -0.002748779093 4.563016631e-14)
(5.055611882e-05 -8.565450242e-05 1.415534356e-15)
(2.283514769e-05 -3.977785665e-05 6.383782392e-16)
(0 0 0)
(0 0 0)
(0 0 0)
(0 0 0)
(0 0 0)
(0 0 0)
(0 0 0)
(0 0 0)
(0 0 0)
(0 0 0)
(0 0 0)
(0 0 0)
(0 0 0)
(0 0 0)
(0 0 0)
(0 0 0)
(0 0 0)
(0 0 0)
(0 0 0)
(0 0 0)
(0 0 0)
(0 0 0)
(0 0 0)
(0 0 0)
(0 0 0)
(0 0 0)
(0 0 0)
(0 0 0)
(0 0 0)
(0 0 0)
(-8.778386958e-05 -0.0001557236642 2.220446049e-15)
(-0.000159272947 -0.0002757737066 4.024558464e-15)
(-0.0002366119926 -0.000399626685 5.967448757e-15)
(-0.001355535322 -0.002514175181 3.758104938e-14)
(-0.001158354143 -0.002202716727 3.212707878e-14)
(-0.001884543049 -0.003767913304 5.495603972e-14)
(-0.002131320875 -0.004156179193 6.21447338e-14)
(-0.004582140918 -0.01055924232 1.579847364e-13)
(-0.004249225842 -0.01004040679 1.465355615e-13)
(-0.004918825638 -0.01237229984 1.806055305e-13)
(-0.005256147682 -0.0128937932 1.929567617e-13)
(-0.006320825973 -0.01924159884 2.880473637e-13)
(-0.006043031596 -0.01886029463 2.753908213e-13)
(-0.006069136964 -0.02060248197 3.008426841e-13)
(-0.006306517631 -0.02088296909 3.126249259e-13)
(-0.005270807412 -0.02373408991 3.551881012e-13)
(-0.005186292992 -0.02392973706 3.493316747e-13)
(-0.004650907718 -0.0243925137 3.560346462e-13)
(-0.004684403537 -0.02398310089 3.588518371e-13)
(-0.002760881181 -0.02401085238 0)
(-0.002765107264 -0.02461412041 0)
(-0.002122989675 -0.02461861864 0)