/*--------------------------------*- C++ -*----------------------------------*\
| =========                 |                                                 |
| \\      /  F ield         | OpenFOAM: The Open Source CFD Toolbox           |
|  \\    /   O peration     | Version:  v1912                                 |
|   \\  /    A nd           | Website:  www.openfoam.com                      |
|    \\/     M anipulation  |                                                 |
\*---------------------------------------------------------------------------*/
FoamFile
{
    version     2.0;
    format      ascii;
    class       volVectorField;
    location    "0.6";
    object      U;
}
// * * * * * * * * * * * * * * * * * * * * * * * * * * * * * * * * * * * * * //

dimensions      [0 1 -1 0 0 0 0];


internalField   nonuniform List<vector> 
12556
(
(99.99862894 0.003324104462 -4.615540506e-21)
(99.99809235 0.01137685429 3.726197084e-26)
(99.99671142 0.02451449331 -4.608922765e-21)
(99.9943268 0.04634746923 -4.583035922e-21)
(99.9996897 0.0369557696 4.432914778e-21)
(99.99712394 0.06142803293 0)
(99.99558923 0.09963923131 0)
(99.99509662 0.1521912473 -7.819959877e-21)
(99.99372866 0.221500477 9.138214811e-22)
(99.99282597 0.3054100759 -6.004230105e-21)
(99.99264917 0.3944329895 7.403781274e-22)
(99.99365563 0.469900666 0)
(99.99862497 0.5089434979 0)
(100.0036145 0.5016009072 8.976915429e-22)
(100.0073994 0.4508697437 -1.520976644e-21)
(100.0067935 0.3740833478 9.555077632e-22)
(100.0066281 0.2913583969 0)
(100.0059229 0.216069817 1.584768639e-21)
(100.0054506 0.1522632765 6.510395581e-21)
(100.0029118 0.1062831452 -1.826116871e-21)
(100.0114444 0.1201769957 -1.582951255e-20)
(100.0077564 0.07348060102 0)
(100.0056925 0.03905569504 -1.985512424e-21)
(100.0054202 0.01227887078 -1.397980531e-20)
(99.98768087 0.00867272012 1.848144414e-20)
(99.9817792 0.03026832548 4.617751142e-21)
(99.96881683 0.06615570012 3.226967478e-20)
(99.94670219 0.1268781287 -1.382176982e-20)
(99.94948289 0.1745006774 4.464503132e-21)
(99.91514432 0.2936572419 -5.010413496e-23)
(99.87072438 0.4768566881 0)
(99.84757827 0.6428767517 -7.887567061e-21)
(99.79905678 0.9463322302 -7.321406611e-21)
(99.76178715 1.324579162 -1.279055216e-20)
(99.75630607 1.735649925 -5.311673572e-21)
(99.80193242 2.098201501 -3.345871335e-21)
(99.90508135 2.306030618 -2.859769388e-21)
(100.0180387 2.293060422 -1.314200176e-23)
(100.1179773 2.073392306 -5.231546413e-22)
(100.1697428 1.728076609 4.943591056e-21)
(100.1766588 1.345706074 -9.714353396e-21)
(100.15203 0.9996494439 0)
(100.1576465 0.74351861 -2.762533747e-20)
(100.1111024 0.5028999133 5.321680052e-20)
(100.1075536 0.3417325812 1.532597505e-20)
(100.0741485 0.208164967 3.155683457e-20)
(100.0552106 0.1110582594 -3.165023785e-20)
(100.0478226 0.03493655478 1.596516219e-20)
(99.9675516 0.01033770718 -1.844022169e-20)
(99.95094194 0.03770892999 -3.701747511e-20)
(99.91520302 0.08667211216 -8.307635297e-20)
(99.85603523 0.1710273594 1.105642082e-19)
(99.82356481 0.271555768 -9.152121611e-21)
(99.72227453 0.4738893978 -8.91739184e-21)
(99.58519901 0.787070777 -1.548296728e-20)
(99.50875707 1.129893331 0)
(99.3522108 1.70709756 3.032269652e-20)
(99.23506922 2.440092607 0)
(99.23034057 3.276853147 1.504893846e-18)
(99.41028851 4.080013174 -1.511144869e-20)
(99.79756442 4.543319053 5.495756647e-20)
(100.2521548 4.524619258 -2.699212463e-20)
(100.5855223 4.031573387 -2.86578036e-19)
(100.7220728 3.288036007 8.149184989e-21)
(100.710118 2.515785224 -1.050482751e-20)
(100.607392 1.8252863 -2.471894854e-20)
(100.5207964 1.26326253 -1.659957803e-19)
(100.3767259 0.8414878903 -3.682951729e-20)
(100.2956001 0.5144148609 -1.571068681e-20)
(100.2077968 0.3104960065 3.57091846e-20)
(100.1551719 0.1657837231 -4.01098016e-21)
(100.1319212 0.05180898141 0)
(99.94637707 0.005986220112 -9.28934684e-21)
(99.91457588 0.02621341583 6.50454743e-20)
(99.84681738 0.07380036807 -1.861003474e-20)
(99.73623127 0.1619990269 0)
(99.64773311 0.3017327519 0)
(99.44628209 0.5603256679 -7.205980637e-20)
(99.16795241 0.9751419043 -1.442604806e-19)
(98.94658353 1.482073685 3.413045347e-20)
(98.59303671 2.313465582 -6.478013854e-20)
(98.30642943 3.460007136 9.217684412e-19)
(98.24222157 4.921743948 0)
(98.6520995 6.399202816 4.455934724e-19)
(99.66235118 7.306567745 0)
(100.8146897 7.169213418 3.061247555e-19)
(101.5477904 6.171381238 -4.188856429e-19)
(101.7369061 4.844349247 0)
(101.6009407 3.561201726 0)
(101.3418792 2.510997795 0)
(101.0773744 1.654279976 6.045690356e-20)
(100.7755279 1.075243785 -4.666010658e-20)
(100.5569681 0.6075474028 -4.024115893e-20)
(100.3938312 0.363079557 2.036391854e-20)
(100.2924569 0.1911709718 -4.085211034e-21)
(100.2460293 0.05914150702 0)
(99.93849991 -0.005853364408 0)
(99.88900063 -0.009021104726 0)
(99.78457073 0.01840097623 9.376609376e-21)
(99.61241203 0.08855394498 1.418804608e-20)
(99.45221271 0.2461045361 2.352906946e-20)
(99.12110395 0.5194471316 0)
(98.6593041 0.9667315577 0)
(98.22012891 1.594514538 2.138367346e-19)
(97.57553097 2.650061174 1.113061884e-18)
(96.91954928 4.309076975 0)
(96.59192496 6.650463136 0)
(97.30169676 9.333083895 6.427142975e-19)
(99.5386809 11.1049661 0)
(102.1246546 10.56571963 0)
(103.4366111 8.494625525 -7.089108989e-19)
(103.4951362 6.219562902 0)
(102.9718741 4.361147778 -7.276816402e-19)
(102.3433682 2.937295478 -5.089128739e-22)
(101.7873082 1.837540331 -1.000852283e-19)
(101.2707524 1.162288698 8.311575548e-21)
(100.857837 0.5964210969 0)
(100.6008356 0.3501291576 4.164987632e-21)
(100.4405132 0.17886993 -3.128198857e-21)
(100.3660937 0.05442688878 -1.037105954e-21)
(99.96014088 -0.02570040592 0)
(99.89254779 -0.06948172571 0)
(99.75178624 -0.08375656789 -1.879797953e-20)
(99.51559916 -0.05619002374 3.827437495e-20)
(99.27002523 0.08999363884 0)
(98.79923011 0.3250886293 0)
(98.12550892 0.7359965451 3.008796231e-20)
(97.4425104 1.384972252 0)
(96.35014853 2.56762881 1.252148636e-18)
(95.00826765 4.617486268 -1.562775181e-19)
(93.80188164 8.004503818 0)
(94.19159542 13.01242381 9.787178931e-19)
(99.01132712 17.16724023 0)
(105.0508226 15.28421342 -7.764285924e-19)
(106.9106189 10.68693258 -1.206443541e-18)
(106.2117086 7.076853678 0)
(104.8384666 4.648667363 -6.115362265e-20)
(103.5782105 2.996481937 -6.946948475e-20)
(102.5735103 1.735607087 2.577996256e-20)
(101.8022633 1.056345017 -1.720085957e-20)
(101.1567486 0.4658974549 0)
(100.7932798 0.2614625824 0)
(100.5699029 0.1239028291 -1.051413637e-21)
(100.4656299 0.03631542445 -3.153505402e-21)
(100.026979 -0.05306821827 4.584762314e-21)
(99.94312305 -0.1532653833 -4.619233933e-21)
(99.77082532 -0.2297093488 9.431847648e-21)
(99.47813609 -0.270635928 -3.454442988e-20)
(99.14258546 -0.1686228923 8.923104168e-23)
(98.54340316 -0.02637055871 2.962748632e-20)
(97.68567768 0.2617788984 -6.147240917e-20)
(96.72996554 0.8231222645 -1.043085915e-20)
(95.11378241 1.906814226 -1.725608429e-19)
(92.79705311 3.901424219 1.156845878e-18)
(89.58572428 7.56173553 8.953923201e-19)
(86.13990077 15.79559393 8.528998772e-19)
(95.57664743 29.08420372 0)
(112.7653043 21.57229992 -9.000247298e-19)
(112.6788267 11.72901796 0)
(109.7932181 6.724861206 7.833789032e-19)
(107.0262832 4.077274229 -1.103136058e-19)
(104.9013033 2.502644569 1.305866794e-18)
(103.3273139 1.291098397 0)
(102.2885288 0.7193823393 9.388232033e-21)
(101.3994764 0.2164221847 2.764549455e-21)
(100.9320286 0.09253961503 -3.268662228e-21)
(100.6508017 0.02645369908 -3.715163598e-21)
(100.5180092 0.005032120761 8.949191838e-21)
(100.1524861 -0.08643578826 -4.585236006e-21)
(100.0562971 -0.2555362638 4.620882209e-21)
(99.86105286 -0.409806745 -5.86598654e-21)
(99.5276107 -0.5398387298 -3.948458337e-21)
(99.11410534 -0.5125445155 1.685952926e-20)
(98.41825976 -0.5086310248 1.00530341e-20)
(97.44061174 -0.424007179 -5.23740086e-21)
(96.24545944 -0.07150316468 1.377800339e-18)
(94.21101258 0.6181894443 0)
(91.08028031 1.844575503 0)
(85.91751875 3.721637249 0)
(76.11012414 7.335740442 2.655591819e-18)
(130.269912 22.67095567 0)
(120.062499 8.742699512 0)
(113.4646376 4.362142577 0)
(109.0304407 2.439396004 -1.701550504e-18)
(106.0487919 1.383250783 -1.350378839e-21)
(103.8993629 0.5046905891 -5.000082271e-21)
(102.6285029 0.1732520589 2.118946008e-20)
(101.5276649 -0.1414024299 -3.368736547e-21)
(100.9793163 -0.1440022497 2.75487358e-21)
(100.6543073 -0.1067893416 -5.199049631e-22)
(100.4982019 -0.03787860521 -8.403591985e-21)
(100.3464157 -0.1234281537 -2.205730832e-21)
(100.243369 -0.36893851 -1.657047898e-21)
(100.0366068 -0.610058862 -5.685637916e-22)
(99.68290842 -0.8409530152 1.720469334e-21)
(99.21355239 -0.9104833509 -3.404323078e-23)
(98.47200169 -1.073996802 0)
(97.45087197 -1.233561802 -9.701692009e-23)
(96.11775127 -1.172145007 -1.594827655e-18)
(93.91551909 -1.02348985 0)
(90.64780182 -0.8351614074 1.78490432e-18)
(85.76681325 -1.229160624 4.427558078e-18)
(79.15918949 -3.525519256 -5.722489338e-20)
(142.0435155 3.384315957 -3.965283272e-19)
(124.4328173 0.84067855 -3.298726642e-18)
(115.6351965 0.05785724105 4.538870043e-18)
(110.1960939 -0.1385871673 8.959378851e-19)
(106.6882577 -0.2302153764 0)
(104.1473323 -0.5264736761 -5.097779554e-21)
(102.7337642 -0.5254271767 1.190476531e-20)
(101.4984218 -0.5714327525 1.156701697e-21)
(100.9059608 -0.4256153366 0)
(100.5568316 -0.2638925934 4.238212983e-21)
(100.3865779 -0.08870738408 4.188124506e-21)
(100.6133811 -0.1611736301 4.343388856e-21)
(100.5095894 -0.4846073844 6.924038026e-23)
(100.3038626 -0.8138881061 0)
(99.95253862 -1.148066805 2.204335914e-22)
(99.45411008 -1.325057 -2.307136775e-21)
(98.72427066 -1.660416247 2.461455995e-21)
(97.7346562 -2.059793294 1.679873827e-19)
(96.39291768 -2.290678101 1.791828384e-19)
(94.29077906 -2.636597226 1.603097343e-18)
(91.3586899 -3.214591827 -1.127756415e-19)
(87.51983452 -4.588927878 1.978642168e-18)
(83.48358679 -7.05393458 5.336995876e-19)
(136.9201306 -13.68750651 -4.357427289e-18)
(123.2488404 -7.634452655 2.007280978e-19)
(115.2900702 -4.734826448 0)
(110.0452068 -3.00053155 -1.74389842e-18)
(106.606659 -2.017616307 9.717056531e-20)
(103.9843163 -1.652261971 4.302746041e-20)
(102.5620833 -1.287788579 0)
(101.2885145 -1.02660062 -1.129468286e-21)
(100.6959408 -0.7223150666 -4.677171946e-21)
(100.345382 -0.4294085867 5.224269974e-22)
(100.1720102 -0.1424167239 0)
(100.9523129 -0.1968946163 -2.137469244e-21)
(100.8534927 -0.5938044179 2.155963739e-21)
(100.6601049 -1.004863448 2.099246585e-21)
(100.3333751 -1.437109634 -1.967544383e-21)
(99.83029223 -1.719444167 -2.270814228e-21)
(99.16154845 -2.207148359 0)
(98.2639604 -2.813892118 4.651567796e-21)
(97.006281 -3.295263215 1.705937699e-19)
(95.13341123 -4.002194615 -2.322162451e-18)
(92.6584276 -5.022429853 -2.730506152e-20)
(89.61300875 -6.727149159 -1.809373159e-18)
(86.54246053 -8.912107675 2.326390785e-21)
(126.4767905 -22.23097085 0)
(118.5220968 -13.40727377 -2.56390438e-18)
(112.9130401 -8.483756083 0)
(108.7809877 -5.454633133 0)
(105.832537 -3.668276855 1.370508481e-18)
(103.416454 -2.700465814 0)
(102.1182861 -2.010025458 -2.808681573e-20)
(100.898146 -1.455428638 -1.410005473e-20)
(100.3497885 -1.002728211 1.06902726e-21)
(100.0195134 -0.5870837338 -3.372390173e-21)
(99.85366689 -0.1937918749 4.942981917e-22)
(101.3567286 -0.2281736755 7.816491753e-21)
(101.2678492 -0.6888632637 0)
(101.0954337 -1.167549313 -2.095119414e-21)
(100.8083448 -1.691148913 0)
(100.321221 -2.062877959 0)
(99.75135834 -2.668478745 -6.73331313e-21)
(98.98809093 -3.433252502 -3.482842383e-21)
(97.87382073 -4.101430844 -1.488599002e-18)
(96.28740671 -5.040249331 -7.274345085e-19)
(94.25825667 -6.309817949 2.67214531e-20)
(91.77241936 -8.200728542 -1.526339722e-18)
(89.04924978 -10.41075646 -1.556203168e-18)
(116.1750879 -24.65415399 2.051732706e-18)
(112.7220037 -15.9709306 -1.870678915e-18)
(109.5517452 -10.61185656 -7.676739152e-19)
(106.7647226 -7.100523114 0)
(104.541364 -4.910221967 0)
(102.5288743 -3.537246581 2.234406673e-21)
(101.4480801 -2.611552382 -3.412224097e-20)
(100.358002 -1.822614033 8.354902928e-21)
(99.8841611 -1.239841876 0)
(99.59042135 -0.7232522348 3.884427594e-21)
(99.44065582 -0.2383917726 0)
(101.8162372 -0.2541731211 7.806457176e-21)
(101.7401918 -0.7684169891 1.230356736e-19)
(101.5927654 -1.301658253 -2.477804775e-19)
(101.3496458 -1.892755721 -3.359837445e-22)
(100.9225823 -2.329247015 -1.962258801e-21)
(100.4546149 -3.016647578 0)
(99.84926408 -3.884955257 -2.466967616e-19)
(98.90163937 -4.665057821 0)
(97.6219349 -5.724559342 2.019768182e-18)
(96.03098988 -7.117493373 0)
(94.10907071 -9.18015787 5.578918929e-21)
(91.88104809 -11.7219442 0)
(102.3034492 -32.75352945 -1.501222241e-18)
(107.314137 -22.22140648 -5.579976231e-19)
(107.4255956 -15.92617558 1.194019144e-18)
(106.1370464 -11.22005918 -5.622443683e-19)
(104.5181447 -7.876869256 -8.906759645e-20)
(103.0006935 -5.654995718 -1.727050666e-20)
(101.4548463 -4.09143406 -6.791553111e-20)
(100.6208528 -3.040283126 0)
(99.71464461 -2.094884719 0)
(99.32605797 -1.419277232 1.212801614e-20)
(99.07793788 -0.8292295535 2.237576938e-21)
(98.94979874 -0.2732183216 -7.255507491e-21)
(102.3172121 -0.2723932118 0)
(102.2556335 -0.8248292628 0)
(102.1369984 -1.395415155 0)
(101.9404957 -2.023435445 0)
(101.5721737 -2.522451821 0)
(101.2079912 -3.266024753 0)
(100.746795 -4.185165991 7.461920765e-19)
(99.98693225 -5.009408092 -1.119191806e-18)
(98.9967912 -6.095652712 -1.212440452e-18)
(97.82199724 -7.487509039 -1.006397826e-18)
(96.51132119 -9.500134685 1.302086508e-18)
(95.39383843 -12.1647388 0)
(96.0986309 -21.78864909 9.499528727e-20)
(102.153226 -18.19381712 3.81667979e-19)
(103.4932508 -14.28809912 7.021366063e-19)
(103.2410908 -10.73716832 -1.403229326e-18)
(102.4061718 -7.950912835 5.579069593e-20)
(101.4206868 -5.944869557 -1.175658184e-19)
(100.3180904 -4.373878175 -9.440893209e-20)
(99.71818299 -3.294296342 -3.558845993e-20)
(99.0102541 -2.259896654 -1.97354178e-20)
(98.70588367 -1.538043153 1.942540175e-20)
(98.50660808 -0.9010348749 0)
(98.40234146 -0.2968162794 1.943940591e-20)
(102.845863 -0.2829109508 0)
(102.7994888 -0.8575801207 0)
(102.711731 -1.4492182 0)
(102.563319 -2.089034447 0)
(102.252503 -2.620378208 0)
(101.9959772 -3.379689299 0)
(101.6769155 -4.280806614 -2.786279274e-19)
(101.10286 -5.132057708 0)
(100.3724498 -6.176453057 -9.713644091e-19)
(99.5351915 -7.441225758 0)
(98.72815707 -9.113636262 4.144899738e-19)
(98.50587096 -11.6799995 6.766416594e-19)
(97.63614707 -14.54557921 2.57255712e-19)
(100.1258383 -14.10103694 0)
(101.0438826 -12.09561363 1.231593471e-20)
(101.0513445 -9.699203201 6.088946793e-19)
(100.6013221 -7.564081649 0)
(99.97071137 -5.903561064 -2.530317406e-20)
(99.2052534 -4.430538111 0)
(98.80989069 -3.390556321 0)
(98.28130302 -2.329456602 -3.666139238e-20)
(98.0539021 -1.597020959 1.808927696e-20)
(97.90170377 -0.9383831692 7.584170921e-22)
(97.82064657 -0.3091761698 -1.338356909e-20)
(103.3879175 -0.2862111163 0)
(103.3556667 -0.8676116221 0)
(103.2964844 -1.464649867 0)
(103.1926144 -2.098468726 0)
(102.9351045 -2.641274685 0)
(102.7686623 -3.385730683 0)
(102.5643249 -4.228969162 0)
(102.1492167 -5.07625071 3.787295113e-19)
(101.6095962 -6.053780455 -1.595924172e-18)
(101.0047709 -7.133878988 0)
(100.4528924 -8.391087795 -6.726467742e-19)
(98.07087694 -9.717033758 5.863307399e-19)
(98.77034154 -11.13841385 0)
(99.50268098 -11.14912002 2.897325121e-20)
(99.64370311 -10.06260777 -6.933174601e-22)
(99.47887165 -8.501236186 0)
(99.14257322 -6.943670381 0)
(98.71424276 -5.620270877 0)
(98.18498958 -4.313702261 -3.098395742e-20)
(97.94383515 -3.35962934 4.709217267e-20)
(97.56013683 -2.319897824 1.139643898e-20)
(97.39781997 -1.604323336 1.945650526e-20)
(97.28629861 -0.9452374631 -2.210010653e-20)
(97.22556364 -0.3114733119 0)
(103.9302301 -0.2833212829 0)
(103.9100303 -0.8581667634 0)
(103.8745404 -1.447111761 0)
(103.8080135 -2.060407913 0)
(103.598357 -2.598006458 0)
(103.5016433 -3.304127563 0)
(103.3760715 -4.075492759 0)
(103.0687131 -4.86937077 0)
(102.6582891 -5.759887922 1.151463514e-20)
(102.1518018 -6.658303551 -2.955231271e-19)
(101.7167858 -7.587250288 -1.10352011e-18)
(93.51272219 -7.2580982 0)
(99.4381133 -9.022020774 -2.522572244e-19)
(99.16672039 -9.071935362 9.835149915e-20)
(98.73593656 -8.392921572 -5.638420131e-19)
(98.34640292 -7.360159414 -2.07649589e-19)
(97.99233043 -6.254611746 1.157108919e-20)
(97.66530757 -5.20722501 0)
(97.28551694 -4.08561926 0)
(97.15043483 -3.239141842 0)
(96.87022246 -2.2497235 3.943444676e-20)
(96.7589195 -1.569938063 -3.688901999e-20)
(96.67951436 -0.9267121846 -2.493302285e-21)
(96.63498603 -0.3057696816 2.501857611e-21)
(104.4615749 -0.2754357063 0)
(104.4510864 -0.8331068354 0)
(104.4339281 -1.40318653 0)
(104.3964537 -1.984999705 0)
(104.226101 -2.503657532 0)
(104.1787552 -3.157721117 0)
(104.1022541 -3.849089197 0)
(103.8499449 -4.552930519 0)
(103.485373 -5.325068265 2.984250696e-20)
(102.960178 -6.066649154 -1.051419264e-19)
(102.4560499 -6.80603554 -1.38234061e-18)
(93.3555644 -6.587042149 5.072858229e-19)
(99.57173138 -7.637998982 0)
(98.79494721 -7.552558305 0)
(98.04897021 -7.069301798 3.122249221e-20)
(97.50933457 -6.369691891 -2.140001074e-20)
(97.1040555 -5.567291423 0)
(96.80519807 -4.740626266 0)
(96.50983089 -3.795282182 0)
(96.43211222 -3.051418294 0)
(96.22479838 -2.133940379 0)
(96.15071469 -1.501691235 0)
(96.09569234 -0.8893244264 0)
(96.06327709 -0.2945606889 0)
(104.9732847 -0.2637261158 0)
(104.9701576 -0.7962065033 0)
(104.9661336 -1.339428498 0)
(104.9494807 -1.882962806 0)
(104.808831 -2.373043737 0)
(104.7916022 -2.968741855 0)
(104.7384112 -3.580357226 0)
(104.5076339 -4.191646864 0)
(104.1398302 -4.825825651 0)
(103.5771913 -5.4311802 0)
(101.7084292 -5.879667418 0)
(97.06304183 -6.221767025 3.440998594e-19)
(99.5101042 -6.502688841 4.003038962e-20)
(98.4545785 -6.378190725 2.631396627e-20)
(97.5562009 -6.035529056 0)
(96.89260515 -5.530885157 0)
(96.41987213 -4.921392879 0)
(96.1087424 -4.264796363 0)
(95.84603428 -3.471391934 0)
(95.79447275 -2.825841473 0)
(95.63231945 -1.990507227 0)
(95.5824354 -1.411349632 0)
(95.54361676 -0.8379898162 0)
(95.52059122 -0.2781829075 0)
(105.4591188 -0.2493259034 0)
(105.4610872 -0.7510861246 0)
(105.4653365 -1.262052989 0)
(105.4618871 -1.764110602 0)
(105.3421208 -2.219904726 0)
(105.3388864 -2.756015365 0)
(105.2895164 -3.295572624 0)
(105.0584698 -3.818936343 0)
(104.6644773 -4.339392593 0)
(104.0688986 -4.819835817 0)
(101.418621 -5.070593203 0)
(98.41380316 -5.441705922 0)
(99.49589182 -5.565254181 0)
(98.24824205 -5.457301172 0)
(97.20311587 -5.195275613 0)
(96.42637547 -4.810400993 0)
(95.88402135 -4.335767928 0)
(95.54067546 -3.806775043 0)
(95.28244164 -3.140280464 0)
(95.23450826 -2.584324428 0)
(95.09608748 -1.83323475 0)
(95.05952819 -1.308410084 0)
(95.02999981 -0.7786173793 0)
(95.01287132 -0.2589512263 0)
(105.9150046 -0.2332716639 0)
(105.9200349 -0.7010430944 0)
(105.9283052 -1.17663108 0)
(105.9314413 -1.63651537 0)
(105.8253761 -2.055449373 0)
(105.8236383 -2.53445029 0)
(105.7634062 -3.009639857 0)
(105.5198963 -3.454849502 0)
(105.0888249 -3.884345294 0)
(104.4454417 -4.268891235 0)
(101.1740886 -4.414574639 0)
(99.0839549 -4.758780028 0)
(99.4758446 -4.802445846 -3.777541467e-35)
(98.08613376 -4.704853124 0)
(96.92996591 -4.495367423 0)
(96.0632705 -4.192474732 0)
(95.4568404 -3.814624254 0)
(95.07338382 -3.382837541 0)
(94.80345209 -2.820183185 0)
(94.74518261 -2.34218107 0)
(94.61517706 -1.672162866 0)
(94.58346881 -1.200230238 0)
(94.55777909 -0.7156318211 0)
(94.54392416 -0.2384539723 0)
(106.3387173 -0.2164346055 0)
(106.345118 -0.6488368294 0)
(106.3539944 -1.08782657 0)
(106.3583382 -1.506410855 0)
(106.2603844 -1.888205699 0)
(106.2511421 -2.314527775 0)
(106.1701384 -2.731466921 0)
(105.9075926 -3.110968173 0)
(105.4360854 -3.46825465 0)
(104.7375113 -3.780632887 0)
(100.9365767 -3.859275903 0)
(99.49917376 -4.170844132 0)
(99.43921767 -4.172057133 0)
(97.9494864 -4.080584146 0)
(96.71118253 -3.907122712 0)
(95.77328423 -3.662229651 0)
(95.11056892 -3.355521703 0)
(94.68639727 -2.999406779 0)
(94.39458147 -2.521467645 0)
(94.31827359 -2.109236586 0)
(94.18631222 -1.514319764 0)
(94.15331522 -1.092233026 0)
(94.12748451 -0.6523180977 0)
(94.11486317 -0.217780769 0)
(106.7295765 -0.1994978777 0)
(106.7360111 -0.5965975153 0)
(106.7429436 -0.9992413388 0)
(106.7444297 -1.378470519 0)
(106.6501967 -1.724323295 0)
(106.6275002 -2.103008837 0)
(106.5203973 -2.467136452 0)
(106.2346258 -2.793137538 0)
(105.7239406 -3.093038238 0)
(104.9659862 -3.349945126 0)
(100.7271433 -3.385460252 0)
(99.755721 -3.664688974 0)
(99.39236152 -3.64303514 -5.089106286e-35)
(97.83077836 -3.556466824 0)
(96.53094086 -3.409058478 0)
(95.53665488 -3.206555217 0)
(94.82557876 -2.953297138 0)
(94.36284688 -2.656061346 0)
(94.04424694 -2.247984789 0)
(93.9456594 -1.891200805 0)
(93.80510285 -1.364358201 0)
(93.76666788 -0.9881450821 0)
(93.73797364 -0.5909666757 0)
(93.7250847 -0.1976843812 0)
(107.0880966 -0.1829748531 0)
(107.0935437 -0.5458855423 0)
(107.0967191 -0.9134804078 0)
(107.092454 -1.256004253 0)
(106.9986497 -1.567972197 0)
(106.9587416 -1.903949086 0)
(106.8233609 -2.221930671 0)
(106.5122292 -2.503420791 0)
(105.9656505 -2.757685207 0)
(105.1454914 -2.9709965 0)
(100.5577306 -2.980240716 0)
(99.9124955 -3.229182587 0)
(99.3394613 -3.194621938 0)
(97.72562966 -3.112545729 0)
(96.37910642 -2.984872416 0)
(95.33998937 -2.814329784 0)
(94.58776406 -2.602110126 0)
(94.08960539 -2.351296774 0)
(93.74286623 -2.001004195 0)
(93.6199757 -1.691083822 0)
(93.46680542 -1.225099105 0)
(93.4203206 -0.8903542963 0)
(93.38700399 -0.5330838465 0)
(93.37278808 -0.178665062 0)
(107.4156177 -0.1672375328 0)
(107.4193223 -0.4978025872 0)
(107.4175078 -0.8323460513 0)
(107.4055402 -1.14122831 0)
(107.3097551 -1.421842449 0)
(107.250481 -1.719913287 0)
(107.0861248 -1.99814897 0)
(106.7495911 -2.242268765 0)
(106.1709573 -2.459943106 0)
(105.2868523 -2.638364262 0)
(100.4320944 -2.633017118 0)
(100.006465 -2.854431171 0)
(99.28320073 -2.812187445 1.738592423e-35)
(97.63126823 -2.734355729 0)
(96.24897654 -2.622181382 0)
(95.17403252 -2.47641176 0)
(94.38694392 -2.296347856 0)
(93.85680197 -2.082657316 0)
(93.48227956 -1.78037383 0)
(93.33468844 -1.51011239 0)
(93.16670943 -1.098031719 0)
(93.11068246 -0.8002684906 0)
(93.07169633 -0.4795924391 0)
(93.0554397 -0.161035385 0)
(107.714027 -0.1525424424 0)
(107.7154548 -0.4530893013 0)
(107.7078673 -0.7570195178 0)
(107.6869668 -1.035503351 0)
(107.5875205 -1.28749751 0)
(107.5078709 -1.552194338 0)
(107.3149123 -1.796368294 0)
(106.9540946 -2.008984468 0)
(106.3469864 -2.197001627 0)
(105.3983031 -2.347125464 0)
(100.3489389 -2.33507284 0)
(100.0603162 -2.531929198 0)
(99.22530953 -2.484876841 0)
(97.54576572 -2.41104567 0)
(96.13590668 -2.311382648 0)
(95.03218939 -2.185267239 0)
(94.21559384 -2.030852917 0)
(93.65686763 -1.84723092 0)
(93.25579582 -1.585040534 0)
(93.08407366 -1.348376779 0)
(92.90032016 -0.98373329 0)
(92.83404118 -0.7185961523 0)
(92.78885159 -0.4309879974 0)
(92.77010401 -0.1449691678 0)
(107.9855787 -0.1390527038 0)
(107.984371 -0.4122019102 0)
(107.9705668 -0.6882095921 0)
(107.9400359 -0.9395706247 0)
(107.8357383 -1.165742364 0)
(107.7354774 -1.401240654 0)
(107.5149638 -1.616307112 0)
(107.1316253 -1.802302452 0)
(106.4990313 -1.966006865 0)
(105.4862068 -2.092969327 0)
(100.3043156 -2.079365868 0)
(100.0878055 -2.254579956 0)
(99.16691285 -2.20443174 0)
(97.46771115 -2.134345517 0)
(96.03656955 -2.044991005 0)
(94.90965265 -1.934755271 0)
(94.06806184 -1.801093285 0)
(93.48392015 -1.642070404 0)
(93.05794111 -1.413523184 0)
(92.86319624 -1.205328346 0)
(92.66343677 -0.8821949206 0)
(92.58671817 -0.6455631132 0)
(92.53514357 -0.3874612571 0)
(92.51364658 -0.1305399184 0)
(108.2327632 -0.1268604267 0)
(108.2286926 -0.3753832479 0)
(108.2084702 -0.6262758376 0)
(108.1679876 -0.8537279829 0)
(108.0580153 -1.056817524 0)
(107.9374078 -1.266922026 0)
(107.6907759 -1.457175794 0)
(107.2869304 -1.620650782 0)
(106.6312032 -1.764236787 0)
(105.555585 -1.872138968 0)
(100.2931471 -1.860218596 0)
(100.0974225 -2.016507784 0)
(99.10874607 -1.964399789 0)
(97.3960032 -1.897789744 0)
(95.94846599 -1.817043919 0)
(94.80278218 -1.719805301 0)
(93.93996605 -1.603105943 0)
(93.33326166 -1.464350146 0)
(92.88413744 -1.264126177 0)
(92.66772994 -1.080033965 0)
(92.45217629 -0.7930421239 0)
(92.3651587 -0.5810772356 0)
(92.30724254 -0.3489984414 0)
(92.28286931 -0.1177530944 0)
(108.4581485 -0.1160089708 0)
(108.4510826 -0.3427307227 0)
(108.4244044 -0.571343799 0)
(108.3739023 -0.7780002681 0)
(108.257684 -0.9606336927 0)
(108.1172961 -1.148799222 0)
(107.846157 -1.317953048 0)
(107.4238423 -1.462403909 0)
(106.7467782 -1.589256852 0)
(105.6104267 -1.681434438 0)
(100.310115 -1.673083063 0)
(100.0945922 -1.813001181 0)
(99.05128524 -1.759733597 0)
(97.32974524 -1.696303846 0)
(95.86965964 -1.622792289 0)
(94.70875564 -1.536271703 0)
(93.82784989 -1.433518551 0)
(93.20109492 -1.311509338 0)
(92.73055768 -1.135156007 0)
(92.49391148 -0.9714124334 0)
(92.26300641 -0.7157189055 0)
(92.1660202 -0.5248633898 0)
(92.10193811 -0.3154647581 0)
(92.07464872 -0.1065734266 0)
(108.6643967 -0.106507141 0)
(108.6542607 -0.3142424003 0)
(108.6211865 -0.5233830922 0)
(108.5607628 -0.7122226981 0)
(108.437831 -0.8769057712 0)
(108.2783985 -1.046291588 0)
(107.9842306 -1.197318803 0)
(107.5455405 -1.32603739 0)
(106.8484556 -1.438911316 0)
(105.6539411 -1.518122079 0)
(100.3501481 -1.514346302 0)
(100.082947 -1.640202463 0)
(98.99480684 -1.586364549 0)
(97.26816211 -1.52580546 0)
(95.79858174 -1.458382204 0)
(94.62530408 -1.380727388 0)
(93.7288988 -1.289467035 0)
(93.0842122 -1.181262467 0)
(92.59395738 -1.02502586 0)
(92.33842545 -0.8783580175 0)
(92.09265612 -0.6495754341 0)
(91.986129 -0.4765476345 0)
(91.91611946 -0.2866560853 0)
(91.88592171 -0.09694104688 0)
(108.8539058 -0.09834986171 0)
(108.8406797 -0.2898697222 0)
(108.8013308 -0.4822714374 0)
(108.7311852 -0.6562061202 0)
(108.6012955 -0.8052361885 0)
(108.4236747 -0.9587244481 0)
(108.1079693 -1.093890592 0)
(107.6545332 -1.210171086 0)
(106.9384785 -1.311320452 0)
(105.6887282 -1.379884839 0)
(100.408672 -1.38110197 0)
(100.0650322 -1.494942023 0)
(98.93946028 -1.440998157 -2.585409419e-36)
(97.21057652 -1.38300236 0)
(95.73393204 -1.320689122 0)
(94.55056713 -1.250354759 0)
(93.64081015 -1.16856037 0)
(92.98002101 -1.07202256 0)
(92.4714195 -0.9325044202 0)
(92.19831705 -0.7997962542 0)
(91.93828975 -0.5940038704 0)
(91.82268134 -0.435721089 0)
(91.74700915 -0.2623499627 0)
(91.71395141 -0.08879115831 0)
(109.0299087 -0.09150245972 0)
(109.0135335 -0.2695054851 0)
(108.9679974 -0.4478311806 0)
(108.8883457 -0.6095176023 0)
(108.7507491 -0.745202231 0)
(108.5557911 -0.8853151482 0)
(108.220419 -1.007271724 0)
(107.7529104 -1.113389442 0)
(107.0187715 -1.204835889 0)
(105.7169316 -1.264776935 0)
(100.4816292 -1.27103658 0)
(100.0427245 -1.374662433 0)
(98.88531841 -1.320985097 0)
(97.15639242 -1.26525386 0)
(95.67460703 -1.207193658 0)
(94.48297779 -1.142845671 0)
(93.56165971 -1.068753782 0)
(92.88655189 -0.9819249361 0)
(92.36028087 -0.8562979199 0)
(92.07093193 -0.7347557728 0)
(91.79673103 -0.5482796528 0)
(91.67248782 -0.4019742417 0)
(91.59136834 -0.2422981352 0)
(91.55545661 -0.08204174143 0)
(109.192266 -0.08599848015 0)
(109.1728706 -0.2531695574 0)
(109.1213359 -0.4199435543 0)
(109.0324821 -0.5724901079 0)
(108.8886241 -0.69626506 0)
(108.6771265 -0.8253520405 0)
(108.3238678 -0.9378721065 0)
(107.842779 -1.034286848 0)
(107.091097 -1.118046241 0)
(105.7403583 -1.17116855 0)
(100.5655745 -1.182322645 0)
(100.0174161 -1.277316602 0)
(98.83239363 -1.224192943 0)
(97.10506562 -1.17043858 0)
(95.61963119 -1.115863751 0)
(94.4211504 -1.056318914 0)
(93.4896716 -0.9883316703 0)
(92.80146571 -0.9086989511 0)
(92.25858656 -0.7947356689 0)
(91.95379324 -0.6821425066 0)
(91.66729107 -0.5123474225 0)
(91.53485133 -0.3749620021 0)
(91.4485504 -0.2263776597 0)
(91.40994852 -0.07667674658 0)
(109.3532151 -0.08163394729 0)
(109.3303206 -0.2404666729 0)
(109.2725053 -0.398260439 0)
(109.1735409 -0.5422568869 0)
(109.0180544 -0.6582531294 0)
(108.7897861 -0.7788022513 0)
(108.4195165 -0.8842942047 0)
(107.9260051 -0.9722561629 0)
(107.1570348 -1.049871256 0)
(105.7605223 -1.097762863 0)
(100.6576409 -1.113551121 0)
(99.99016809 -1.201314954 0)
(98.78066836 -1.148966893 0)
(97.05610245 -1.096907518 0)
(95.5681367 -1.045118019 0)
(94.36385784 -0.9893159836 0)
(93.42326834 -0.9260365924 0)
(92.72279888 -0.8519797741 0)
(92.16440275 -0.7471685423 0)
(91.84486828 -0.6420818168 0)
(91.54133861 -0.4835604258 0)
(91.40019152 -0.354240517 0)
(91.30857885 -0.2141460803 0)
(91.26688672 -0.07248137265 0)
(109.47705 -0.07905475829 0)
(109.4519198 -0.232595657 0)
(109.3892585 -0.3843058957 0)
(109.2836651 -0.5259785904 0)
(109.138035 -0.6303964235 0)
(108.8955294 -0.7448521563 0)
(108.5092371 -0.8456506739 0)
(108.0040286 -0.9264928965 0)
(107.2180008 -0.9994242385 0)
(105.778723 -1.043561941 0)
(100.755438 -1.063713335 0)
(99.96181327 -1.145486892 0)
(98.73007978 -1.094053056 0)
(97.00903633 -1.043404622 0)
(95.5193281 -0.9937530425 0)
(94.30999243 -0.9407255168 0)
(93.36107047 -0.8808802189 0)
(92.6490727 -0.8108520136 0)
(92.07589709 -0.712985555 0)
(91.74252089 -0.6135057442 0)
(91.44226517 -0.4676139836 0)
(91.29526834 -0.3408643304 0)
(91.19957777 -0.20654892 0)
(91.15599279 -0.07000730303 0)
(109.7091998 -0.07599015967 0)
(109.679208 -0.2246995753 0)
(109.6071946 -0.3710972671 0)
(109.4843048 -0.5040848379 0)
(109.2486177 -0.6136369705 0)
(108.9912893 -0.7238965897 0)
(108.5908736 -0.8223787951 0)
(108.07811 -0.896319113 0)
(107.2752997 -0.965911491 0)
(105.7961943 -1.00789564 0)
(100.8567248 -1.032211253 0)
(99.93298742 -1.109061879 0)
(98.68061463 -1.058527329 0)
(96.96348256 -1.009034544 0)
(95.4725089 -0.9609202222 0)
(94.25856282 -0.9097644848 0)
(93.30181366 -0.8521402236 0)
(92.57885985 -0.7847941943 0)
(91.99515306 -0.6919580919 0)
(91.64996724 -0.5961645551 0)
(91.26343775 -0.4477389696 0)