/*--------------------------------*- C++ -*----------------------------------*\
| =========                 |                                                 |
| \\      /  F ield         | OpenFOAM: The Open Source CFD Toolbox           |
|  \\    /   O peration     | Version:  v1912                                 |
|   \\  /    A nd           | Website:  www.openfoam.com                      |
|    \\/     M anipulation  |                                                 |
\*---------------------------------------------------------------------------*/
FoamFile
{
    version     2.0;
    format      ascii;
    class       surfaceVectorField;
    location    "1.37";
    object      Uf;
}
// * * * * * * * * * * * * * * * * * * * * * * * * * * * * * * * * * * * * * //

dimensions      [0 1 -1 0 0 0 0];


internalField   nonuniform List<vector> 
25162
(
(99.99806159 0.008281365039 -2.098321173e-21)
(99.99224432 0.00753445835 6.223796705e-21)
(99.9972079 0.01936208937 -2.066552448e-21)
(99.98962723 0.02504985326 2.115169639e-21)
(99.99552025 0.03684668957 -4.117056183e-21)
(99.98363574 0.05141772363 1.246280962e-20)
(99.99804512 0.04098942115 1.262873784e-21)
(99.97303139 0.09225643522 -8.152971464e-21)
(99.98871589 0.09034980432 -1.366855927e-21)
(99.99728599 0.07367129835 1.972445343e-21)
(99.99903975 0.04388440607 9.692780432e-22)
(99.98692808 0.1199646228 1.955494748e-21)
(99.99701299 0.06784721866 9.511150903e-22)
(99.9977891 0.05386740331 -9.903076316e-22)
(99.99633824 0.08521739758 9.510762439e-22)
(99.9801558 0.1903872505 1.888969373e-21)
(99.99604215 0.1064369347 0)
(99.99587038 0.1295137274 -3.396247366e-21)
(99.9746729 0.2844841502 -3.39622969e-21)
(99.9953612 0.1566024308 -8.790147415e-22)
(99.99481945 0.1872638796 2.957389694e-21)
(99.96830602 0.406893743 3.191496178e-21)
(99.99436105 0.2211940184 3.921934766e-22)
(99.99406285 0.2575859889 -2.491112517e-21)
(99.96479736 0.5518707564 3.602921084e-22)
(99.99400149 0.2952494555 -2.458325289e-21)
(99.99425161 0.3324631772 4.199441002e-22)
(99.96767182 0.6996798802 -1.590915972e-21)
(99.99485872 0.3670405496 2.240718299e-21)
(99.99585994 0.3966764794 1.81562308e-21)
(99.97911322 0.8167461995 -7.769580377e-22)
(99.99711415 0.4190739919 0)
(99.9986604 0.432299522 0)
(99.99753984 0.868312009 1.095692413e-22)
(100.0007068 0.4349362584 0)
(100.002554 0.4266108857 7.36821422e-22)
(100.0166611 0.8364862476 -1.379792038e-23)
(100.0037769 0.4087928977 1.240998577e-21)
(100.0047406 0.3833097076 -4.988290118e-22)
(100.0288367 0.7372051071 -7.5912387e-22)
(100.0054312 0.352440927 -1.398331249e-21)
(100.0057748 0.3182980092 8.090629688e-23)
(100.0331341 0.6014835091 1.940100832e-21)
(100.0058135 0.2828647187 5.070019599e-22)
(100.0056021 0.2478248373 0)
(100.0311497 0.461923834 0)
(100.0052324 0.2145133756 0)
(100.0048909 0.1836786066 7.771997587e-22)
(100.0257714 0.3394552571 1.612829219e-21)
(100.004889 0.1561256568 -3.932855409e-21)
(100.0046764 0.1299389156 -1.470932475e-21)
(100.0209453 0.2363342682 3.181765854e-21)
(100.0039722 0.1075519461 3.181528426e-21)
(100.0029633 0.08891375443 -8.78825445e-22)
(100.0124663 0.1601533588 -4.290382094e-23)
(100.0009146 0.07559525574 1.720366154e-21)
(100.0074604 0.0720352657 -7.603749085e-21)
(100.0430108 0.1775085973 3.384030011e-22)
(100.0157508 0.1614163769 -2.697330683e-21)
(100.0026403 0.07447668532 -1.558039199e-21)
(100.0051521 0.04131374838 -9.498983192e-22)
(100.0287301 0.1080692087 1.507011957e-20)
(100.0041927 0.01924977835 -7.622853859e-21)
(100.0207302 0.05709831099 -1.606807997e-20)
(100.0181408 0.01790959062 1.31400074e-21)
(99.98214531 0.02308616451 1.03837332e-20)
(99.97054496 0.01266225929 3.034470297e-22)
(99.97366102 0.05444067747 1.654194985e-20)
(99.96023103 0.04270567428 -1.454505152e-20)
(99.95768766 0.1034328755 8.644087893e-21)
(99.93778197 0.08895315203 -2.247168909e-20)
(99.95057188 0.1609272989 -1.475926105e-21)
(99.89948912 0.162069398 4.325190009e-20)
(99.91623846 0.2032345793 -9.504654388e-21)
(99.92738619 0.2055452639 -2.041830847e-21)
(99.94467952 0.201938757 4.000057342e-21)
(99.96576739 0.1442508406 1.988107495e-21)
(99.94706812 0.2346523799 1.928470617e-21)
(99.9294319 0.2581251594 1.969098347e-21)
(99.88187552 0.3394940786 -3.991948635e-21)
(99.91260395 0.327812835 -2.771430289e-23)
(99.92011374 0.3712313547 1.889265823e-21)
(99.89317683 0.4128502682 -2.228318038e-23)
(99.82560977 0.5377402594 0)
(99.88325459 0.4787932581 0)
(99.85227046 0.5489867998 -2.341765968e-21)
(99.89299011 0.545175145 -4.587304929e-21)
(99.87830014 0.5765013278 -6.80403652e-23)
(99.84454583 0.6654052801 -1.031604186e-20)
(99.8694257 0.628217561 -3.546418367e-21)
(99.84163266 0.8351883529 2.753990972e-23)
(99.86449711 0.785497793 -2.29725019e-21)
(99.79995057 0.9644685108 -1.252516715e-20)
(99.83519405 0.9041019051 -3.057423539e-21)
(99.8175209 1.154885776 -5.549910959e-21)
(99.84866827 1.076050858 -5.261253177e-21)
(99.7727677 1.329498566 6.674340503e-22)
(99.81668281 1.235900331 -6.644170816e-21)
(99.82263851 1.497605513 -1.914974824e-23)
(99.86061734 1.379560306 -4.172549101e-21)
(99.78375406 1.715782844 -6.396645178e-21)
(99.83181505 1.579609079 -3.110956639e-21)
(99.87289362 1.78982266 -4.534227678e-21)
(99.91216364 1.626659248 -6.818160927e-21)
(99.85220297 2.034074793 -1.365196248e-20)
(99.89358872 1.853666375 -3.080469459e-22)
(99.96226314 1.946752264 -2.673233656e-21)
(99.9921632 1.744453752 -1.259356474e-21)
(99.9641941 2.191373495 -4.194811634e-22)
(99.98757111 1.976418206 -2.996642537e-22)
(100.0617761 1.924203 3.707271678e-22)
(100.0617824 1.693383331 -6.953655188e-23)
(100.0827109 2.133839021 3.23531101e-22)
(100.0834126 1.901507892 -9.913578848e-22)
(100.138049 1.733572674 -3.151792903e-22)
(100.106212 1.500762727 -2.438925744e-22)
(100.1668723 1.892554838 -7.540481561e-23)
(100.1493877 1.668420403 2.456092196e-21)
(100.1718677 1.437014777 2.606379715e-21)
(100.1227957 1.227361682 4.52837969e-21)
(100.2013053 1.548006053 4.523626855e-21)
(100.1725755 1.352862586 5.657522734e-22)
(100.1683635 1.115217534 -7.047694946e-21)
(100.1156045 0.9430950601 -6.544508908e-21)
(100.1928599 1.187684231 -2.377344484e-21)
(100.1623058 1.032465392 -2.328484165e-21)
(100.1422509 0.8262253511 -5.457658586e-21)
(100.0929661 0.6941294313 4.95562741e-22)
(100.1577138 0.8701288971 -1.447552172e-21)
(100.1331123 0.7569101791 5.883877565e-21)
(100.0843292 0.4672351537 -1.339982217e-20)
(100.1356312 0.6393340435 -1.339878103e-20)
(100.1885045 0.6867334629 1.353897055e-20)
(100.1156167 0.527832047 -2.732550112e-20)
(100.0967702 0.4330275016 1.181078399e-20)
(100.1334998 0.4591636547 -1.648944593e-20)
(100.0783157 0.3533280531 2.393209174e-20)
(100.0589596 0.3140414808 2.65735685e-20)
(100.0706159 0.2090968862 2.244068517e-20)
(100.1617443 0.3292160105 -1.650192064e-22)
(100.125635 0.3750907449 4.746432874e-20)
(100.073978 0.2959352695 2.553602605e-21)
(100.0497171 0.120572691 -7.110028929e-22)
(100.1117862 0.1991244129 3.215476998e-20)
(100.0391413 0.05499949418 -7.495918488e-21)
(100.082547 0.1052785036 -1.704420235e-20)
(100.0700185 0.03293695117 7.621866533e-21)
(99.95175697 0.03097855471 -2.494917232e-20)
(99.94129262 0.01328123714 -1.246990523e-20)
(99.92843819 0.07441341793 -5.39417448e-20)
(99.9193027 0.0463554098 1.146853884e-20)
(99.88571718 0.1438686986 1.069833464e-20)
(99.87255843 0.1011142179 -4.565342631e-20)
(99.84273931 0.2435629134 2.753610014e-20)
(99.79590064 0.1906073427 4.957959583e-20)
(99.78923676 0.2656669831 -4.228967758e-20)
(99.86655978 0.2571203986 -8.175481057e-21)
(99.79478264 0.2933773604 -6.054312362e-20)
(99.81341471 0.3203302544 -4.092884047e-21)
(99.793264 0.4295833738 -7.946201249e-21)
(99.76782016 0.4167962654 -3.958810581e-21)
(99.68326614 0.5002841744 2.77961103e-20)
(99.71534073 0.5345889347 7.789959706e-21)
(99.69626566 0.6875569682 -6.862725935e-21)
(99.6553247 0.6779214703 5.079451035e-21)
(99.53428698 0.8129952197 -3.913008378e-20)
(99.62136079 0.82088941 2.710579064e-21)
(99.5595367 0.8813791638 -1.698323282e-20)
(99.60862746 1.011154654 -6.942098162e-21)
(99.57663987 1.011458322 0)
(99.50541123 1.114181776 7.214964264e-21)
(99.54454216 1.121771114 -6.903440584e-21)
(99.49447258 1.494414335 3.34558553e-21)
(99.44744988 1.50814062 1.309326228e-20)
(99.35865461 1.659000652 6.479827201e-21)
(99.41798095 1.653318342 1.624835067e-20)
(99.4164687 2.099208052 -2.554279593e-20)
(99.35035401 2.139919091 -4.012999556e-20)
(99.25640858 2.346000662 -1.635896508e-20)
(99.33978254 2.310710594 1.660029657e-20)
(99.44174151 2.745967112 3.98739847e-20)
(99.36048612 2.832167789 3.27213985e-20)
(99.28345604 3.08815089 -7.718284068e-20)
(99.38618132 3.000078077 6.743408097e-20)
(99.60919925 3.308928078 -7.074715058e-21)
(99.52659109 3.461937408 -3.92787015e-21)
(99.49191289 3.753054715 -1.074553717e-19)
(99.59500477 3.58586218 0)
(99.90890332 3.607939952 3.162182098e-20)
(99.85164842 3.835588323 2.519489304e-22)
(99.88041053 4.115479933 3.565437225e-20)
(99.9479987 3.864304476 4.213964601e-20)
(100.2374646 3.51500163 1.233055869e-20)
(100.2308558 3.791705865 7.612411114e-21)
(100.3105901 4.009190001 1.014837013e-20)
(100.3139974 3.711268738 1.308080433e-20)
(100.4618418 3.078997892 1.870108909e-20)
(100.5051005 3.355295082 0)
(100.6004323 3.49172343 -5.552070815e-20)
(100.547266 3.205168561 0)
(100.5466615 2.487065205 6.139928418e-21)
(100.6162818 2.724517517 1.593370698e-20)
(100.7013781 2.795677714 6.168878561e-21)
(100.6222436 2.55890951 9.677557378e-21)
(100.5182641 1.883242687 -6.490347778e-21)
(100.5967868 2.074960818 -1.519145476e-20)
(100.6633014 2.106646744 -5.25098159e-21)
(100.5772181 1.919872538 5.745213874e-21)
(100.5028045 1.498859219 -1.793428273e-20)
(100.4322111 1.355958487 -1.206515797e-20)
(100.5507945 1.507055751 -1.208142833e-20)
(100.4776164 1.371884415 6.40311491e-21)
(100.3319896 0.8894053649 -5.299446971e-20)
(100.4457702 1.089323389 -2.776313471e-20)
(100.5148221 1.070202428 -8.037169579e-20)
(100.3827984 0.8945576244 -3.81900445e-20)
(100.2381981 0.5910939314 -6.018345502e-20)
(100.3245234 0.7288320522 2.400551533e-20)
(100.3691427 0.7042685529 -2.856868541e-20)
(100.2710295 0.5893793905 -2.497415139e-20)
(100.1957604 0.3154702214 1.012426063e-20)
(100.3386678 0.4309205284 -2.56426314e-20)
(100.3225136 0.5271518012 -1.378458857e-22)
(100.2404822 0.4809501935 -1.468745702e-20)
(100.1396484 0.1809291909 1.507307046e-20)
(100.238347 0.2580574438 2.676938323e-20)
(100.1093577 0.08202707425 -1.91426055e-21)
(100.175852 0.1353655763 -3.859738768e-21)
(100.1473763 0.04205889269 0)
(99.91475922 0.0276505201 2.505363594e-20)
(99.91523232 0.007734822194 -4.184140716e-21)
(99.87062219 0.07076562926 2.109760401e-20)
(99.87867251 0.03061945014 2.927171405e-20)
(99.79133534 0.1464832451 -8.383508998e-21)
(99.80123414 0.07901032557 -4.128279363e-21)
(99.69098856 0.2752960916 0)
(99.67558636 0.1640872268 6.401599853e-21)
(99.62795346 0.2738482563 1.941574213e-20)
(99.70881354 0.3139086567 -5.660012834e-20)
(99.61655988 0.3155338362 1.45975204e-20)
(99.62499524 0.3734643357 0)
(99.55520186 0.5473740935 1.834662914e-22)
(99.53632269 0.4959619868 -3.208415026e-20)
(99.41286008 0.5675092041 -3.206256636e-20)
(99.43130605 0.6481080634 6.497016635e-20)
(99.34289054 0.907310511 -9.641474843e-20)
(99.30882988 0.8354104445 3.604562596e-20)
(99.13044437 0.9604009251 -6.454242448e-20)
(99.21320633 1.055631523 -3.215781257e-20)
(99.12704694 1.074014863 -5.274097868e-20)
(99.12567704 1.368298413 7.572749469e-21)
(99.0907618 1.326806554 1.503133894e-20)
(98.9773614 1.430503637 3.808690262e-20)
(99.01633055 1.485361655 7.509356421e-21)
(98.84651553 2.092483804 -1.758776431e-21)
(98.78624314 2.049710558 7.169964132e-21)
(98.64481177 2.20687812 1.203054067e-19)
(98.71559522 2.264859706 2.844684946e-20)
(98.64580416 3.014785316 -3.147421339e-19)
(98.54805633 2.985671657 -1.569678747e-19)
(98.39362915 3.209095198 -2.125009246e-19)
(98.51075176 3.252369957 7.161269732e-22)
(98.63485137 4.100440319 3.003826662e-22)
(98.49083813 4.116123436 1.190378316e-20)
(98.35036867 4.427959466 1.444720672e-22)
(98.5257964 4.415425259 -5.586361472e-21)
(98.97781417 5.165255967 1.032725538e-19)
(98.79820754 5.279476068 0)
(98.73584681 5.668530015 0)
(98.95096574 5.531370338 0)
(99.73150399 5.804471186 -8.766815455e-21)
(99.5755848 6.061356715 -1.162263561e-19)
(99.65215487 6.442691973 3.181570625e-20)
(99.82137721 6.137053593 2.108299153e-20)
(100.6045021 5.653564719 -6.089614221e-20)
(100.5535469 6.017062764 -8.79005052e-20)
(100.7346617 6.273814075 -3.826208893e-20)
(100.7660378 5.867713015 5.22611572e-20)
(101.1682556 4.815063356 -1.090022864e-19)
(101.2328372 5.184167113 8.23708255e-20)
(101.4209319 5.290809819 -1.071113129e-19)
(101.3257361 4.905169634 -1.566118928e-20)
(101.3155312 3.725020568 3.394511509e-20)
(101.4391806 4.026123081 -1.900536976e-20)
(101.5798311 4.03605406 6.384495201e-20)
(101.4332083 3.738545556 -6.12015442e-20)
(101.2078791 2.726232288 1.367660768e-19)
(101.3363034 2.94352873 -8.995435338e-22)
(101.4289147 2.907765075 1.838795518e-19)
(101.2874147 2.704813283 3.070212547e-19)
(101.1113181 2.068611838 0)
(100.9946689 1.911920005 4.825101263e-20)
(101.1706858 2.026927019 0)
(101.0464614 1.881333522 0)
(100.734546 1.221731721 2.907376575e-20)
(100.923115 1.433842572 1.885000164e-20)
(100.9870356 1.336654762 -1.637672252e-20)
(100.788134 1.164538549 3.645616602e-20)
(100.5265883 0.7946758686 -3.315727911e-20)
(100.6670141 0.9376371374 -1.481014641e-20)
(100.7046792 0.8593806368 -1.494173421e-20)
(100.5603855 0.7477761068 -7.273462156e-21)
(100.3698353 0.3712288372 -9.325190745e-21)
(100.5591448 0.4610916661 -1.919318336e-20)
(100.5904639 0.6176466886 -2.549205992e-21)
(100.485518 0.5937683797 5.720405836e-21)
(100.2642186 0.2099849105 7.69454225e-21)
(100.3903512 0.2717434247 1.168093976e-20)
(100.2052854 0.09415137855 -1.945133951e-21)
(100.2850918 0.1392804942 -3.430867867e-21)
(100.2361671 0.04271952136 -4.924556653e-22)
(99.88541309 0.01028259597 0)
(99.90555348 -0.004838763824 0)
(99.81716053 0.03726772503 4.243508271e-21)
(99.85328597 -0.007385460155 0)
(99.69457181 0.09876680105 1.078883948e-20)
(99.74334693 0.01659856905 -3.443918381e-21)
(99.5248986 0.2416222477 1.778765646e-20)
(99.55998173 0.07641632787 2.372665199e-20)
(99.46510499 0.201818676 -7.131079015e-21)
(99.52461399 0.2969488821 2.513812187e-20)
(99.43106838 0.256616549 2.016876595e-21)
(99.41194093 0.3414489613 -1.025088666e-20)
(99.26204883 0.5570266966 0)
(99.26608026 0.4706506884 -2.11220459e-20)
(99.10837605 0.5126016853 -1.736315022e-20)
(99.09229944 0.6347632393 4.307286749e-21)
(98.89708018 0.965413367 0)
(98.88856217 0.8424730395 4.306825596e-21)
(98.65444607 0.9204912137 -4.457857295e-21)
(98.6941728 1.105884768 2.142296863e-20)
(98.59639284 1.096676038 5.555566166e-21)
(98.47975288 1.524053328 2.777356341e-19)
(98.45847757 1.435340222 3.202824722e-20)
(98.30035591 1.521227795 3.2506359e-20)
(98.32328239 1.625784264 4.094475218e-19)
(97.96249219 2.421177019 2.009171108e-19)
(97.90811701 2.309620762 -1.112686954e-19)
(97.71206901 2.438256516 2.688603146e-19)
(97.76890491 2.578989479 2.651380948e-19)
(97.47958178 3.663971169 -2.422339932e-19)
(97.3691043 3.538662963 6.796777377e-20)
(97.12232905 3.758764895 -3.237712109e-22)
(97.25249848 3.91498146 -1.889944025e-19)
(97.23489314 5.337560849 -1.504317581e-20)
(97.02630104 5.231037691 -1.088889477e-22)
(96.76002495 5.598670874 5.160461237e-19)
(97.01895048 5.729067455 -4.587346216e-19)
(97.68888935 7.298398943 2.853355453e-20)
(97.35044663 7.319824885 -4.945182717e-19)
(97.19335686 7.884750877 6.366110543e-19)
(97.61493314 7.835483998 2.832571239e-19)
(99.26871261 8.705901377 2.970813732e-19)
(98.91012953 9.018142755 8.338270634e-20)
(99.0732262 9.623554078 1.387555134e-19)
(99.46667313 9.207083989 1.699068218e-19)
(101.2798073 8.455080336 -9.789881726e-20)
(101.1464959 8.998508518 3.042211957e-20)
(101.5409106 9.321369051 -9.7835369e-20)
(101.6185452 8.694856202 -9.817946262e-20)
(102.4463653 6.838336025 -9.578651906e-21)
(102.5648827 7.363049971 -5.125259601e-21)
(102.9051323 7.388531616 4.538055177e-21)
(102.7213774 6.850886367 -2.082693613e-23)
(102.5974257 4.930867326 2.078573995e-20)
(102.8200808 5.316166185 -3.143924495e-21)
(103.0301516 5.212283962 -4.410932227e-20)
(102.7648575 4.845887113 -4.385305156e-20)
(102.2358231 3.385949541 -4.60740387e-20)
(102.4512059 3.631148468 -5.752791934e-20)
(102.5525307 3.512516803 5.174687941e-20)
(102.3229187 3.289307686 -8.560904442e-20)
(101.9421879 2.436656882 -2.1770703e-20)
(101.77314 2.28183768 -3.766823074e-21)
(101.9956848 2.333614603 1.837150791e-20)
(101.8212485 2.199267354 2.233219501e-20)
(101.2677905 1.408842555 -9.30912018e-20)
(101.5379577 1.612557332 -5.889412119e-20)
(101.5726521 1.431788653 -3.292992858e-20)
(101.3037589 1.287655843 -1.683149747e-20)
(100.8987096 0.8926056357 1.14429711e-20)
(101.0960385 1.020128252 3.456028322e-20)
(101.1051282 0.8903339551 -3.859360294e-21)
(100.9159586 0.8001665633 -3.780223336e-21)
(100.5674284 0.3629418981 1.978120357e-21)
(100.7936428 0.4037751003 0)
(100.8927661 0.6042311864 -7.567225308e-23)
(100.7787 0.6195886581 -1.02824579e-20)
(100.4008272 0.1987212409 4.394271195e-22)
(100.5451932 0.2298986462 1.977942022e-21)
(100.3071386 0.08698195481 -1.981443506e-21)
(100.3904765 0.1115831112 -1.983676914e-21)
(100.3182051 0.0333284082 -1.985189841e-21)
(99.87940283 -0.0223813474 0)
(99.92668705 -0.02443895255 2.081566638e-21)
(99.78705274 -0.02864536634 -8.49131303e-21)
(99.85927333 -0.0674769664 -2.098068236e-21)
(99.62004388 -0.003578444437 8.841553186e-21)
(99.71986449 -0.08700228465 -4.206761326e-21)
(99.3740864 0.1064474029 1.155660647e-20)
(99.48506916 -0.07413229216 3.471860208e-21)
(99.32419319 0.04621377169 -2.307543085e-23)
(99.34945579 0.1926918459 -8.550591513e-21)
(99.25847917 0.1070625845 -8.673654578e-21)
(99.20865415 0.2031559565 0)
(98.95871703 0.4320836478 -1.736272159e-20)
(99.00040375 0.3185285881 0)
(98.81964233 0.3156381646 -1.208861565e-22)
(98.75032112 0.4671055578 -8.740449594e-23)
(98.40929899 0.823462824 8.990851976e-21)
(98.45185992 0.6597657661 1.346455843e-20)
(98.17459138 0.6739290221 1.819162872e-20)
(98.14482585 0.9424033977 -3.267666474e-21)
(98.05307928 0.8782653856 8.490792814e-21)
(97.76517491 1.39011346 1.781386861e-19)
(97.77717469 1.265034764 7.50862724e-20)
(97.5932481 1.302725988 2.184475821e-19)
(97.57420039 1.448869891 2.179865781e-19)
(96.91014212 2.315466216 6.339655702e-19)
(96.8978738 2.138188324 6.304045206e-19)
(96.6422977 2.213415127 7.976611408e-19)
(96.64852671 2.423223736 3.114633819e-19)
(95.92210738 3.76005089 5.873147662e-19)
(95.84505494 3.52127853 1.641637395e-19)
(95.47595165 3.659448468 0)
(95.56467268 3.989302665 -7.982568174e-21)
(94.96705173 6.107293822 1.280683388e-22)
(94.7410221 5.774594315 -1.238620804e-18)
(94.24179943 6.130787973 6.05811717e-19)
(94.52258044 6.548600068 6.597608113e-19)
(94.99936006 9.743330314 2.291018196e-19)
(94.41221111 9.484995134 1.165087147e-19)
(93.92514493 10.3535721 -3.171226301e-19)
(94.7217253 10.63239117 -2.240451595e-19)
(98.14695572 13.22342289 5.00163193e-20)
(97.30281942 13.64603662 1.923695686e-19)
(97.67576439 14.86153019 -3.943947455e-20)
(98.63749649 14.15117749 -2.706358653e-20)
(102.8275915 12.50349106 0)
(102.6044446 13.46708288 -2.639776259e-20)
(103.540011 13.80736865 0)
(103.5683134 12.69392986 7.185295611e-20)
(104.8251712 9.068209585 1.009815551e-19)
(105.1178857 9.831470633 -2.103874355e-19)
(105.7059766 9.61274282 -1.370680236e-19)
(105.2705934 8.876567764 4.072582672e-20)
(104.611424 5.924651037 2.375673097e-19)
(105.0155524 6.380430038 -1.1260956e-19)
(105.2417205 6.087680424 -2.645635527e-19)
(104.7932701 5.686092811 2.468594101e-19)
(103.6494114 3.743975927 -4.913322042e-19)
(103.9860736 3.987039604 -5.103900439e-19)
(104.0534935 3.756165936 -2.513334869e-19)
(103.7099347 3.547256844 -1.215778504e-19)
(102.9542036 2.496840882 6.404359547e-20)
(102.7140314 2.366429671 0)
(102.9714249 2.330594191 -1.645127643e-20)
(102.7358883 2.223012902 -1.599518432e-20)
(101.8903635 1.396716201 2.704136764e-20)
(102.2334271 1.548831236 -2.186070506e-22)
(102.2073203 1.296347879 1.634560249e-20)
(101.8795733 1.21089203 1.218460383e-20)
(101.3129586 0.8481960716 -1.597879786e-20)
(101.5637916 0.9366091502 -8.132557604e-21)
(101.5202159 0.7632477541 -8.134133173e-21)
(101.2933509 0.7161794211 1.234713431e-20)
(100.7584563 0.276021859 0)
(101.0094718 0.2527326917 1.304233213e-21)
(101.1855119 0.4691389213 -1.09179742e-20)
(101.0810375 0.5407159498 2.711030484e-20)
(100.523918 0.1409310567 -4.982512671e-22)
(100.6725359 0.1263437375 -1.543454516e-21)
(100.3928896 0.05800674656 -1.995267906e-21)
(100.468658 0.05017157673 -2.253779579e-21)
(100.3729074 0.01339965842 2.558839207e-21)
(99.91186022 -0.0688893423 -1.583812584e-23)
(99.99168477 -0.05013997482 8.272323709e-23)
(99.79861902 -0.1247729625 2.183272523e-21)
(99.91205035 -0.1463801204 -9.966531178e-23)
(99.59325258 -0.1557177039 -1.14144808e-20)
(99.74920547 -0.2255791849 1.736986554e-21)
(99.27002703 -0.09722518048 -1.026843326e-20)
(99.47276382 -0.2803806777 -1.734404544e-20)
(99.24718234 -0.1874747984 -1.481645012e-20)
(99.20700527 -0.002609656931 -8.086369672e-21)
(99.14760803 -0.1309830794 -3.24056424e-21)
(99.05334058 -0.0341221031 3.096240582e-23)
(98.69921641 0.1646823474 1.315814478e-20)
(98.78959666 0.03930450288 1.341499935e-20)
(98.60414056 -0.01819695573 6.616945561e-21)
(98.47099507 0.1401543802 2.287175192e-20)
(97.97021121 0.4704471189 -6.557940733e-20)
(98.08669449 0.2769226027 -6.108652195e-20)
(97.80374219 0.2143460909 -7.626275676e-20)
(97.66786255 0.5037738007 -1.460068181e-19)
(97.60042337 0.4076726599 -2.23618334e-20)
(97.12166188 0.9150405665 -2.383314248e-19)
(97.18254169 0.7679652362 -3.917450747e-19)
(96.98733035 0.7472821282 -7.901080097e-20)
(96.90740087 0.9139418959 -2.362728675e-19)
(95.88079613 1.701337538 1.783296371e-19)
(95.9432952 1.478872822 8.668286e-19)
(95.65777366 1.46434965 5.478807574e-19)
(95.56997483 1.719075397 0)
(94.18645991 3.012797117 3.760373161e-19)
(94.2386682 2.662283901 4.737670557e-19)
(93.79450878 2.669538211 -3.565866956e-19)
(93.706352 3.079451527 1.016804407e-19)
(91.78113663 5.475946918 5.833924617e-19)
(91.74809811 4.865084297 2.537356841e-19)
(90.95615479 4.9594463 -6.068010486e-19)
(90.9544426 5.7461176 8.752104664e-19)
(88.94376231 11.41114969 -1.206868301e-18)
(88.28895338 10.21882207 4.067982742e-20)
(86.44522599 11.43938498 -1.072336324e-18)
(86.72282715 10.67939848 -5.235475949e-19)
(88.00432879 12.78256532 -7.888022917e-19)
(87.05669694 12.84886082 -2.574701114e-19)
(92.83414102 22.60375901 1.229177049e-19)
(94.16221678 22.30613265 0)
(93.21180105 24.35673846 1.001796278e-19)
(94.85493292 23.65325386 0)
(107.483307 20.10073675 -1.346865149e-20)
(107.6518193 18.42039883 -2.813355073e-20)
(109.2554837 18.0296021 1.765444019e-19)
(108.3036264 20.91122943 7.782339896e-19)
(110.2906854 19.69043081 -1.324211672e-20)
(109.9068734 20.45509279 -5.791076262e-19)
(109.9880412 11.79851139 1.7061562e-19)
(109.1802498 10.83710952 -1.523890961e-19)
(110.6414525 10.9667787 3.792866282e-19)
(109.6736111 10.21259978 1.732025647e-19)
(107.4417731 6.171989653 3.247113627e-19)
(108.1298905 6.597167761 -2.041150928e-21)
(108.254156 6.016411474 3.248055812e-19)
(107.543965 5.706618502 4.02036484e-19)
(105.3717848 3.527266437 -1.623731068e-19)
(105.8566286 3.7143969 -1.246705895e-20)
(105.8216509 3.35214036 2.858399551e-19)
(105.3508783 3.227165534 1.31930203e-19)
(104.0594005 2.132034624 -4.259678018e-19)
(103.7437074 2.058395789 -1.266661037e-19)
(104.0020868 1.908543573 -1.433954217e-19)
(103.7014748 1.855554918 -2.446910125e-19)
(102.5091643 1.126487342 4.271008725e-21)
(102.9124243 1.181162805 -2.781826571e-20)
(102.7811341 0.8859720433 -2.436410308e-21)
(102.4255759 0.8921846565 -4.420184514e-21)
(101.7134555 0.6322178937 4.39508184e-21)
(102.0033159 0.6592038456 -2.182778315e-23)
(101.8912064 0.4591800919 -7.199447197e-21)
(101.6391656 0.4705671836 8.869456016e-21)
(100.9065842 0.1078842384 -1.991837292e-22)
(101.1509301 0.01113664607 -2.813151553e-22)
(101.4289485 0.2077796414 8.355576253e-22)
(101.3455727 0.3082511642 6.522718688e-21)
(100.6064044 0.0352488928 -3.303632593e-21)
(100.7409392 -0.0363168412 -2.455862252e-22)
(100.4401737 0.005982815409 2.478000058e-21)
(100.4962111 -0.04262625953 -2.188189966e-21)
(100.3785357 -0.0165286695 4.02841713e-22)
(99.99584102 -0.1265321728 1.65927284e-23)
(100.111048 -0.08016221133 -3.087146323e-21)
(99.86747125 -0.2445791307 -5.669612451e-22)
(100.0234293 -0.2385158898 1.342157e-21)
(99.63483313 -0.3474540215 -4.442420905e-21)
(99.84631927 -0.3883805682 -2.924194132e-21)
(99.24998869 -0.3670197867 9.142596537e-21)
(99.54461217 -0.5246557341 -1.008821518e-21)
(99.26279961 -0.4800115432 9.659386986e-22)
(99.14230072 -0.2786287548 4.493159037e-21)
(99.13189656 -0.4372924777 9.296020549e-21)
(98.99252491 -0.3558705632 6.569540956e-21)
(98.54193729 -0.2269671326 -2.230546307e-21)
(98.68717338 -0.3447025973 3.476961386e-21)
(98.51661037 -0.4562195283 2.293690294e-21)
(98.31861769 -0.317675245 6.959990918e-21)
(97.68663464 -0.08493748254 1.100700007e-20)
(97.87976782 -0.2707837758 1.910348811e-20)
(97.62615582 -0.4150175119 5.807747604e-20)
(97.38064322 -0.1386541499 1.103262232e-20)
(97.35436763 -0.2709636567 1.100727856e-20)
(96.68320027 0.1445045017 -4.154202642e-20)
(96.80216708 0.0008100908567 -1.884472329e-21)
(96.61920129 -0.08135195354 -4.150554175e-20)
(96.47338836 0.07413862129 -4.117347368e-20)
(95.14785686 0.5864633732 -1.946454287e-19)
(95.30525384 0.3665473081 -1.564719208e-21)
(95.03872932 0.2547609041 -5.875950941e-19)
(94.8425036 0.4906875627 -3.914790686e-21)
(92.90201908 1.303983467 -4.124295377e-19)
(93.13581501 0.9569185239 0)
(92.72872739 0.7794576437 2.125527462e-19)
(92.42204964 1.14869806 0)
(89.12626781 2.47875678 0)
(89.55671432 1.853342302 0)
(88.87775111 1.479396865 0)
(88.23746524 2.125918405 -2.50820143e-19)
(81.40279923 4.377762004 8.597690071e-19)
(82.02559208 3.56959842 2.818459531e-19)
(81.26286637 2.909236218 1.190941543e-18)
(80.35022137 3.73590317 4.226115195e-19)
(123.9607393 23.80048797 8.687584451e-19)
(122.1658094 22.69835258 4.150118394e-19)
(124.6719999 21.86887884 4.001754267e-19)
(122.9157946 21.17701574 3.995507848e-19)
(117.2831795 10.269487 3.31949544e-19)
(115.6439731 9.756721114 1.08916606e-20)
(117.2518475 8.703162965 3.733301146e-19)
(115.7146892 8.557834166 4.978028507e-19)
(110.7009773 4.864536505 -1.4124521e-19)
(111.6795585 5.021188092 -3.466824628e-19)
(111.4396471 4.230024484 -7.768881775e-19)
(110.5400799 4.217770734 -1.308574594e-19)
(107.0923485 2.487683646 -2.451728188e-20)
(107.6903779 2.515972199 -1.023824794e-20)
(107.4597362 2.087441469 3.273149567e-19)
(106.9163207 2.120025617 7.009276742e-20)
(105.0519855 1.264461247 -1.537676721e-19)
(104.687537 1.281605916 1.499282641e-19)
(104.8901243 1.015933424 7.926116801e-20)
(104.5582974 1.054239791 1.887121391e-20)
(103.0098392 0.5803143732 -4.757744796e-21)
(103.4434111 0.5172025299 -7.307750883e-21)
(103.1831547 0.2183799225 7.523943414e-21)
(102.8360854 0.3329290929 1.129077547e-21)
(102.030906 0.2467298523 -1.985883227e-21)
(102.3277557 0.1924283325 1.337467765e-20)
(102.1344624 -0.0005677006801 4.9508462e-21)
(101.8906314 0.08244107713 9.810705535e-21)
(100.9739556 -0.1292718935 -3.401973487e-22)
(101.1875506 -0.3045262542 -1.043743532e-21)
(101.5605648 -0.1612487736 -1.056754999e-21)
(101.523786 -0.01921866233 -1.159930824e-21)
(100.6218374 -0.1122012687 1.064454223e-21)
(100.7247293 -0.2449819699 1.298224018e-21)
(100.4274758 -0.0642654218 -4.213663279e-21)
(100.4509397 -0.1599476039 1.651139709e-21)
(100.3178966 -0.05453726447 -2.080202211e-21)
(100.14073 -0.1908597322 -1.761542916e-21)
(100.2910882 -0.1121828299 9.758600512e-22)
(100.0047361 -0.378663255 -1.027468671e-21)
(100.2006138 -0.3367192607 -7.249768206e-22)
(99.75905961 -0.5626071792 5.272267769e-22)
(100.0198786 -0.5619233043 -2.59117143e-22)
(99.33455129 -0.6769650422 5.936513288e-22)
(99.71188081 -0.7859231779 8.798092396e-22)
(99.3880034 -0.8027544842 5.242826411e-22)
(99.18278406 -0.6086253571 1.529420897e-21)
(99.23184085 -0.7826627839 -1.478928025e-23)
(99.05232291 -0.7288599914 -1.479138374e-23)
(98.53190869 -0.6996449965 -2.290584155e-21)
(98.72743388 -0.7918971466 0)
(98.58911544 -0.9504862118 -1.126261574e-21)
(98.33863371 -0.8523826044 -1.196205401e-21)
(97.62589203 -0.764302356 3.533106401e-20)
(97.88381007 -0.9121730137 -7.308607229e-21)
(97.6866335 -1.121393513 -3.519367434e-20)
(97.3469092 -0.9011948235 7.53179652e-20)
(97.3684363 -1.049427813 -1.233305014e-19)
(96.55992601 -0.7987118928 4.329788634e-20)
(96.72867442 -0.9144257513 -1.428018206e-19)
(96.58247996 -1.043654493 -1.497077217e-19)
(96.38131047 -0.9271094828 -3.618410971e-19)
(94.93158903 -0.7853628219 1.997047811e-19)
(95.16125685 -0.9538461085 1.046896553e-19)
(94.96283223 -1.129874195 -2.035794019e-19)
(94.68556281 -0.9642427593 -2.110991328e-19)
(92.62051635 -0.8114237489 -2.506559827e-19)
(92.97656365 -1.042445668 2.135313519e-19)
(92.69934299 -1.309782805 -2.289261215e-19)
(92.28600794 -1.100830176 -2.805588915e-19)
(89.10482058 -1.24532469 -4.721939177e-19)
(89.72295756 -1.512964341 8.694301558e-21)
(89.37876718 -1.975927321 -2.381184033e-19)
(88.68554756 -1.794427318 7.871330502e-21)
(84.54579258 -3.46558126 5.366932894e-19)
(85.09024832 -3.433573161 5.192490219e-19)
(85.06404141 -3.853907384 2.565350342e-19)
(84.58131054 -3.977035687 -5.46445636e-19)
(137.7135159 7.535282976 6.295140934e-19)
(135.9930549 8.424536916 0)
(136.4774119 6.118792892 5.688076255e-19)
(135.0405064 7.032486927 0)
(122.4946253 3.291337173 1.18339199e-20)
(120.7857051 3.894698875 -3.418580925e-20)
(121.3641802 1.96968383 -4.085405756e-20)
(120.0081385 2.69650366 -1.012819873e-19)
(113.1191174 1.684189564 5.812571647e-20)
(114.131848 1.374476311 0)
(113.4341664 0.686041589 -4.888865595e-19)
(112.5874446 1.063982992 0)
(108.2938635 0.6035195075 1.192652183e-18)
(108.9003584 0.4107509373 3.904099469e-19)