/*--------------------------------*- C++ -*----------------------------------*\
| =========                 |                                                 |
| \\      /  F ield         | OpenFOAM: The Open Source CFD Toolbox           |
|  \\    /   O peration     | Version:  v1912                                 |
|   \\  /    A nd           | Website:  www.openfoam.com                      |
|    \\/     M anipulation  |                                                 |
\*---------------------------------------------------------------------------*/
FoamFile
{
    version     2.0;
    format      ascii;
    class       surfaceScalarField;
    location    "1.11";
    object      meshPhi;
}
// * * * * * * * * * * * * * * * * * * * * * * * * * * * * * * * * * * * * * //

dimensions      [0 3 -1 0 0 0 0];
oriented        oriented;


internalField   nonuniform List<scalar> 
25162
(
0
0
0
0
0
0
0
0
0
0
0
0
0
0
0
0
0
0
0
0
0
0
0
0
0
0
0
0
0
0
0
0
0
0
0
0
0
0
0
0
0
0
0
0
0
0
0
0
0
0
0
0
0
0
0
0
0
0
0
0
0
0
0
0
0
0
0
0
0
0
0
0
0
0
0
0
0
0
0
0
0
0
0
0
0
0
0
0
0
0
0
0
0
0
0
0
0
0
0
0
0
0
0
0
4.725437827e-09
8.328088836e-08
-9.325848016e-07
0
-8.288396447e-09
7.928579766e-07
0
0
0
0
0
0
0
0
0
0
0
0
0
0
0
0
0
0
0
0
0
0
0
0
0
0
0
0
0
0
0
0
0
0
0
0
0
0
0
0
0
0
0
0
0
0
0
0
0
0
0
0
0
0
0
0
0
0
0
0
0
0
0
0
0
0
-2.19514289e-08
-1.428292585e-06
2.072481509e-06
8.983555957e-06
-8.122157528e-06
-7.82265859e-05
1.896643112e-05
0.0001104566741
-9.401239176e-06
-0.0002055296671
1.49594749e-05
0.0002309378946
3.198760734e-06
-0.0002705196039
-7.624651783e-06
0.0002688409355
1.027205649e-05
-0.0002182575671
-1.933813561e-05
0.0001886203318
4.564024595e-06
-8.449618557e-05
-1.204391321e-05
5.263240281e-05
0
-1.544447514e-06
-3.016696838e-07
0
0
0
0
0
0
0
0
0
0
0
0
0
0
0
0
0
0
0
0
0
0
0
0
0
0
0
0
0
0
0
0
0
0
0
0
0
0
0
0
0
0
0
0
0
0
0
0
0
0
0
-1.084680656e-06
-3.168173042e-06
5.79751757e-06
2.235830406e-05
-4.351224376e-05
-0.0001900886656
6.896163651e-05
0.0002704882072
-7.107773083e-05
-0.0005399589382
9.090221483e-05
0.0006298337748
-2.347501419e-05
-0.0008652125483
2.013699023e-05
0.0009251979768
4.344185005e-05
-0.001026804692
-6.437967387e-05
0.001030792918
6.862770897e-05
-0.0009452639312
-9.322271389e-05
0.000884724943
5.086945608e-05
-0.0006249228957
-6.847438363e-05
0.0005213219134
1.939646318e-05
-0.0002172619623
-3.036166261e-05
0.0001344896301
0
-3.263192048e-06
-8.545573391e-07
0
0
0
0
0
0
0
0
0
0
0
0
0
0
0
0
0
0
0
0
0
0
0
0
0
0
0
0
0
0
0
0
0
0
0
0
0
0
0
0
0
0
0
0
0
3.555358761e-07
1.249717137e-06
-5.260738452e-05
-0.0001475502733
7.910384398e-05
0.0002500001751
-0.0001665710197
-0.0006509924166
0.0002014342167
0.0008018958269
-0.0001392655139
-0.001249094214
0.0001486579064
0.001384167622
1.174098388e-05
-0.001708113147
-2.732344962e-05
0.001783623734
0.0001459901963
-0.001907453972
-0.0001740635235
0.001915180794
0.0001875710252
-0.001832720879
-0.0002228771581
0.001766285323
0.0001343595248
-0.001437941783
-0.0001604897627
0.001288197422
8.59362374e-05
-0.0008022930378
-0.0001004046434
0.000629873971
1.923418729e-05
-0.0001869231354
-2.780761741e-05
9.222112033e-05
0
0
0
0
0
0
0
0
0
0
0
0
0
0
0
0
0
0
0
0
0
0
0
0
0
0
0
0
0
0
0
0
0
0
0
0
0
0
0
0
0
0
-1.19961682e-05
-1.819322619e-05
2.015900162e-05
7.775643647e-05
-0.0001757981851
-0.0004603257133
0.0002089896277
0.0006365036004
-0.0003100083885
-0.001249302479
0.0003251111705
0.001461296652
-0.0001536341203
-0.00198283767
0.0001700606396
0.002095766997
7.099634225e-05
-0.002346716393
-7.814046758e-05
0.002383051203
0.0002326642106
-0.002419769907
-0.0002382874514
0.002421409357
0.0003310293088
-0.002410075495
-0.0003575544272
0.002378914401
0.0003106619988
-0.00219548493
-0.0003401010435
0.002048317454
0.0001225997502
-0.00144026483
-0.0001365739364
0.001215546829
5.087911152e-05
-0.0005518627363
-5.713185985e-05
0.0003664532673
-2.451941048e-05
2.387935624e-06
-4.048450419e-06
3.726556149e-07
0
0
0
0
0
0
0
0
0
0
0
0
0
0
0
0
0
0
0
0
0
0
0
0
0
0
0
0
0
0
0
0
0
0
0
3.118867798e-07
1.401767255e-08
5.354351816e-07
-4.890072121e-05
-9.355771745e-05
6.006988438e-05
0.0002093717198
-0.0003028923355
-0.0007630389067
0.0003144296551
0.001014261942
-0.0003622856304
-0.001736027222
0.000371925381
0.001953038289
-0.0001434103275
-0.002451374484
0.0001111335564
0.002560023552
4.934116039e-05
-0.00265455516
2.931920331e-05
-1.917125241e-05
0.001278773965
0.001316292084
-0.001271755995
0.0001153108219
-0.0001158428571
0.001272288031
-0.001312436289
0.0004529552977
0.002642148046
-0.001342180181
-0.0002105523532
-0.0002299345207
-0.002517494216
0.0003776521597
-0.0004044793043
0.00242844017
0.0001854839798
-0.001917114954
-0.0002058645559
0.001686759462
7.233075725e-05
-0.0009077485562
-7.514491723e-05
0.0006658216
-0.0001317820814
1.544994723e-05
-1.917932341e-05
4.161574316e-05
0
0
0
0
0
0
0
0
0
0
0
0
0
0
0
0
0
0
0
0
0
0
0
0
0
0
0
0
0
0
0
0
0
-1.308850167e-06
0
2.805630863e-06
4.997153199e-06
7.673257705e-06
-8.385067867e-05
-0.0001624584404
8.67895274e-05
0.0003174740694
-0.0003635292762
-0.00100353973
0.0003697150422
0.001274048282
-0.0003803076943
-0.002059978376
0.0003798816478
0.002279823535
-7.369025936e-05
-0.002691338075
6.58975067e-05
0.002725083702
3.579664267e-05
-0.001377162181
-3.354073719e-05
0.001374906276
-0.001364772644
0.0001937646821
-0.0001916331426
0.001362641104
-0.002705094221
0.0004603228794
-0.0004713670148
0.002654915703
0.0002341804126
-0.002196086569
-0.000240998067
0.001961105829
8.275879061e-05
-0.001143423331
-8.53012087e-05
0.0008734609061
-0.0002383650897
2.681257254e-05
-2.995459693e-05
0.0001041612582
0
0
0
0
0
0
0
0
0
0
0
0
0
0
0
0
0
0
0
0
0
0
0
0
0
0
0
0
0
0
0
0
0
-3.641857046e-06
0
4.608810131e-06
1.401719197e-05
1.589320241e-05
-0.0001016299243
-0.0002085531093
0.0001048150305
0.0003839163247
-0.0003896501275
-0.001129102311
0.0003937427737
0.001416147183
-0.0003792521245
-0.002229735296
0.0003793894828
0.002447364835
-5.559743904e-05
-0.002814258081
5.422581464e-05
0.002827316668
4.109395835e-05
-0.001410813714
-4.109032883e-05
0.001410810084
-0.001419042622
0.0001872731918
-0.0001865294995
0.00141829893
-0.002838514119
0.0004869311476
-0.0004893841021
0.002805959344
0.0002668930701
-0.00238311942
-0.0002725444014
0.002151043292
9.108783627e-05
-0.00131130119
-9.295662423e-05
0.001023067447
-0.0003041292502
3.339728847e-05
-3.451169446e-05
0.0001477008151
0
0
0
0
0
0
0
0
0
0
0
0
0
0
0
0
0
0
0
0
0
0
0
0
0
0
0
0
0
0
0
0
0
-5.560432285e-06
0
6.875671826e-06
2.178288986e-05
2.439478882e-05
-0.000112767823
-0.0002425631067
0.0001159896347
0.000432857065
-0.0004040905562
-0.001222813028
0.0004080925443
0.00152260808
-0.000380293737
-0.002360496277
0.0003804125741
0.002580381339
-5.140634103e-05
-0.002935109422
5.057437971e-05
0.00294271471
4.121069735e-05
-0.001466756554
-4.073195717e-05
0.0007318744887
0.0007344033252
-0.001475367427
0.0001843158633
-0.0001837833012
0.001474834865
-0.002949870457
0.0004852633905
-0.0004820116448
0.002908609991
0.0002708460543
-0.002450055176
-0.0002694086849
0.002205939283
9.230592301e-05
-0.001336146591
-9.221842782e-05
0.001041358554
-0.0003087770157
3.369462934e-05
-3.336048177e-05
0.0001494352702
0
0
0
0
0
0
0
0
0
0
0
0
0
0
0
0
0
0
0
0
0
0
0
0
0
0
0
0
0
0
0
0
0
-8.317176095e-06
0
9.98611502e-06
3.328283071e-05
3.668315628e-05
-0.0001260902987
-0.0002845582971
0.0001296543573
0.0004916430083
-0.0004201868684
-0.001330038389
0.0004243206248
0.001643107463
-0.0003804633524
-0.00250468539
0.000380364321
0.002725878121
-4.80237857e-05
-0.003064028277
4.734561617e-05
0.003067322356
4.092968253e-05
-0.001529580969
-4.078652413e-05
0.0007636871108
0.0007657506997
-0.001534704675
0.0001821541065
-0.0001816242377
0.001534174806
-0.003057167248
0.0004625305141
-0.0004527901904
0.002981165754
0.0002488358502
-0.002413862633
-0.0002515796289
0.002164359587
8.543249104e-05
-0.001258912258
-8.430748702e-05
0.0009625047321
-0.0002526837326
2.801173505e-05
-2.676972964e-05
0.000108738587
0
0
0
0
0
0
0
0
0
0
0
0
0
0
0
0
0
0
0
0
0
0
0
0
0
0
0
0
0
0
0
0
0
-1.203053303e-05
0
1.279727743e-05
4.920120472e-05
5.123198936e-05
-0.0001413166227
-0.000333984599
0.0001458817282
0.0005587499938
-0.0004372811177
-0.001445540859
0.0004421254878
0.001771071607
-0.0003795828764
-0.002652286871
0.0003790327665
0.002873149029
-4.577754901e-05
-0.003189159647
4.572119349e-05
0.003189461901
4.044039214e-05
-0.001590890413
-4.044631031e-05
0.0007941917677
0.0007967045633
-0.001590679061
0.0001797869387
-0.0001796359274
0.00159052805
-0.003119277366
0.0004233858135
-0.0004108286651
0.002994357257
0.0002245104832
-0.002334721045
-0.0002009550891
0.002034043421
7.570113287e-05
-0.001091428528
-7.025897903e-05
0.000802326299
-0.000169253536
1.941601181e-05
-1.704729131e-05
5.534631892e-05
0
0
0
0
0
0
0
0
0
0
0
0
0
0
0
0
0
0
0
0
0
0
0
0
0
0
0
0
0
0
0
0
0
-1.823685971e-05
0
2.461454262e-05
7.740203307e-05
8.886769735e-05
-0.0001590490709
-0.0004008046337
0.000171174429
0.000640974474
-0.0004580323857
-0.001582275786
0.0004617138677
0.001919944572
-0.0003762232338
-0.002818038763
0.0003838829908
0.003030866922
-4.53007303e-05
-0.003312007461
4.628411032e-05
0.001651750815
0.001659273265
1.915467623e-05
-0.0008241251678
-1.893063546e-05
0.0008239011271
4.658961237e-05
-0.0004103737072
-4.582769134e-05
0.0008207159895
-0.0004111042034
-0.001643832065
0.0001791441537
-0.0003678154237
0.00329616738
-0.001650919828
0.000187255783
0.0003781591511
-0.003110528995
-0.0003529763407
0.00291979476
0.000168497751
-0.002144293671
-0.0001606669547
0.001830183097
6.075537866e-05
-0.000888488264
-5.886121069e-05
0.0006158392347
-7.051823234e-05
7.725324471e-06
-6.202496617e-06
6.973374994e-06
0
0
0
0
0
0
0
0
0
0
0
0
0
0
0
0
0
0
0
0
0
0
0
0
0
0
0
0
0
0
0
0
0
-2.760617566e-05
0
2.243729325e-05
0.0001066471837
9.828178992e-05
-0.0001895286759
-0.0004813610763
0.0001832692827
0.0007528615068
-0.0004794463557
-0.001761561773
0.0004725524426
0.002114055781
-0.0003635750691
-0.003011729108
0.0003666868478
0.003215315236
-4.070831887e-05
-0.003435772864
4.070831889e-05
0.001714445536
0.001721327328
2.137826978e-05
-0.001714445536
-4.493267444e-05
2.355440467e-05
0.0008558641844
0.0008585813517
0.0001145746807
-0.0008558642765
-0.0001145745425
0.001714445536
-0.0008585813978
-0.003435772864
0.0003762589515
-0.0003729521171
0.003425052024
0.0003112662566
-0.00301023921
-0.0002991795822
0.002778452791
0.0001393716593
-0.001869645044
-0.0001197294727
0.001537152859
4.761433684e-05
-0.0006239466086
-4.733161134e-05
0.0004012223971
-9.824981662e-06
1.327561476e-06
-6.108730728e-07
0
0
0
0
0
0
0
0
0
0
0
0
0
0
0
0
0
0
0
0
0
0
0
0
0
0
0
0
0
0
0
0
0
0
-1.364957841e-05
0
4.873112262e-06
5.003275181e-05
3.145053074e-05
-0.0001397315371
-0.0003539941434
0.0001193756005
0.0005981239871
-0.0004167939249
-0.001571668128
0.0003867488579
0.001929400595
-0.0003752880288
-0.002891997882
0.0003728279398
0.00313412337
-6.613148205e-05
-0.003532921572
8.819734523e-05
0.003561317807
4.493267443e-05
-0.003559495437
-9.857241896e-05
0.003559495437
5.36397445e-05
0.0002378535595
-0.003559495437
-0.0002378535596
0.003559495437
0.0003483822653
-0.003491390023
-0.0003325701363
0.003388316372
0.0002434810924
-0.002777763135
-0.0002245885434
0.002490655843
8.978434838e-05
-0.001510478166
-8.38883525e-05
0.001182967223
3.267456244e-05
-0.0003640612271
-2.600393511e-05
0.0001901625066
0
0
0
0
0
0
0
0
0
0
0
0
0
0
0
0
0
0
0
0
0
0
0
0
0
0
0
0
0
0
0
0
0
0
0
0
0
-1.170040296e-07
0
0
2.78608439e-07
0
-5.533413575e-05
-0.000122102733
3.685752533e-05
0.0002759614592
-0.0002698365536
-0.001030382395
0.0002258056954
0.001343576102
-0.0003313035586
-0.002289907404
0.0003047592998
0.002568488709
-0.0001387768741
-0.003189322342
0.0001466490354
0.003318568573
7.698308948e-05
-0.003514181763
-6.155903894e-05
0.003531528519
0.0002211806334
-0.003474379626
-0.0002018387967
0.003413335665
0.0002593698824
-0.00305288911
-0.0002280490646
0.002866167884
0.0001588643717
-0.002129400795
-0.0001364216033
0.00184324039
6.24944948e-05
-0.0009740369116
-5.44283074e-05
0.0007111249897
1.265716569e-05
-0.000131561998
-8.004336891e-06
3.621910212e-05
0
0
0
0
0
0
0
0
0
0
0
0
0
0
0
0
0
0
0
0
0
0
0
0
0
0
0
0
0
0
0
0
0
0
0
0
0
0
0
0
0
0
-3.397894626e-06
-2.777892038e-07
5.349636512e-07
2.102617309e-05
-0.0001011276598
-0.0003694678327
6.756828442e-05
0.0005649115359
-0.0001977067906
-0.001266313295
0.0001583776666
0.001506053406
-0.0001370102571
-0.002127866382
0.000123791849
0.002284598991
1.09631004e-05
-0.002569134015
2.601791475e-06
0.002601040485
0.0001194204101
-0.00251407833
-9.100293689e-05
0.002426287808
0.0001303627981
-0.002002764147
-0.0001012876571
0.001816142895
7.606716021e-05
-0.001176925068
-5.937590462e-05
0.0009560927887
2.83441438e-05
-0.0003630837338
-1.964797971e-05
0.0002126129723
1.335118903e-07
-9.21631043e-07
0
0
0
0
0
0
0
0
0
0
0
0
0
0
0
0
0
0
0
0
0
0
0
0
0
0
0
0
0
0
0
0
0
0
0
0
0
0
0
0
0
0
0
0
0
0
0
0
-6.872728418e-06
-9.499144348e-06
1.014103895e-06
4.431341297e-05
-5.558197855e-05
-0.0003108801767
3.150422174e-05
0.0004332982962
-6.786658021e-05
-0.0008093677924
4.841255889e-05
0.0009183145894
-2.09452766e-05
-0.00113772246
1.97021385e-05
0.001167382887
2.716136088e-05
-0.001117531732
-1.519958674e-05
0.001057540642
3.705003959e-05
-0.0007773543641
-2.367794813e-05
0.0006614952542
2.052765633e-05
-0.0003062428356
-1.143880914e-05
0.0002021869384
1.191446071e-06
-1.170488049e-05
-3.463163045e-09
1.263779449e-07
0
0
0
0
0
0
0
0
0
0
0
0
0
0
0
0
0
0
0
0
0
0
0
0
0
0
0
0
0
0
0
0
0
0
0
0
0
0
0
0
0
0
0
0
0
0
0
0
0
0
0
0
0
0
-1.533888381e-07
0
0
1.588397084e-06
-6.455358358e-06
-4.363912418e-05
1.000419824e-06
6.764614223e-05
-5.982579425e-06
-0.0001316602623
2.092122076e-06
0.0001428191198
9.864374616e-07
-0.0001322126468
-1.965979879e-07
0.000115179565
2.285358469e-06
-4.568273332e-05
-1.943552767e-07
2.517986502e-05
0
0
0
0
0
0
0
0
0
0
0
0
0
0
0
0
0
0
0
0
0
0
0
0
0
0
0
0
0
0
0
0
0
0
0
0
0
0
0
0
0
0
0
0
0
0
0
0
0
0
0
0
0
0
0
0
0
0
0
0
0
0
0
0
0
0
0
0
0
0
0
0
0
0
0
0
0
0
0
0
0
0
0
0
0
0
0
0
0
0
0
0
0
0
0
0
0
0
0
0
0
0
0
0
0
0
0
0
0
0
0
0
0
0
0
0
0
0
0
0
0
0
0
0
0
0
0
0
0
0
0
0
0
0
0
0
0
0
0
0
0
0
0
0
0
0
0
0
0
0
0
0
0
0
0
0
0
0
0
0
0
0
0
0
0
0
0
0
0
0
0
0
0
0
0
0
0
0
0
0
0
0
0
0
0
0
0
0
0
0
0
0
0
0
0
0
0
0
0
0
0
0
0
0
0
0
0
0
0
0
0
0
0
0
0
0
0
0
0
0
0
0
0
0
0
0
0
0
0
0
0
0
0
0
0
0
0
0
0
0
0
0
0
0
0
0
0
0
0
0
0
0
0
0
0
0
0
0
0
0
0
0
0
0
0
0
0
0
0
0
0
0
0
0
0
0
0
0
0
0
0
0
0
0
0
0
0
0
0
0
0
0
0
0
0
0
0
0
0
0
0
0
0
0
0
0
0
0
0
0
0
0
0
0
0
0
0
0
0
0
0
0
0
0
0
0
0
0
0
0
0
0
0
0
0
0
0
0
0
0
0
0
0
0
0
0
0
0
0
0
0
0
0
0
0
0
0
0
0
0
0
0
0
0
0
0
0
0
0
0
0
0
0
0
0
0
0
0
0
0
0
0
0
0
0
0
0
0
0
0
0
0
0
0
0
0
0
0
0
0
0
0
0
0
0
0
0
0
0
0
0
0
0
0
0
0
0
0
0
0
0
0
0
0
0
0
0
0
0
0
0
0
0
0
0
0
0
0
0
0
0
0
0
0
0
0
0
0
0
0
0
0
0
0
0
0
0
0
0
0
0
0
0
0
0
0
0
0
0
0
0
0
0
0
0
0
0
0
0
0
0
0
0
0
0
0
0
0
0
0
0
0
0
0
0
0
0
0
0
0
0
0
0
0
0
0
0
0
0
0
0
0
0
0
0
0
0
0
0
0
0
0
0
0
0
0
0
0
0
0
0
0
0
0
0
0
0
0
0
0
0
0
0
0
0
0
0
0
0
0
0
0
0
0
0
0
0
0
0
0
0
0
0
0
0
0
0
0
0
0
0
0
0
0
0
0
0
0
0
0
0
0
0
0
0
0
0
0
0
0
0
0
0
0
0
0
0
0
0
0
0
0
0
0
0
0
0
0
0
0
0
0
0
0
0
0
0
0
0
0
0
0
0
0
0
0
0
0
0
0
0
0
0
0
0
0
0
0
0
0
0
0
0
0
0
0
0
0
0
0
0
0
0
0
0
0
0
0
0
0
0
0
0
0
0
0
0
0
0
0
0
0
0
0
0
0
0
0
0
0
0
0
0
0
0
0
0
0
0
0
0
0
0
0
0
0
0
0
0
0
0
0
0
0
0
0
0
0
0
0
0
0
0
0
0
0
0
0
0
0
0
0
0
0
0
0
0
0
0
0
0
0
0
0
0
0
0
0
0
0
0
0
0
0
0
0
0
0
0
0
0
0
0
0
0
0
0
0
0
0
0
0
0
0
0
0
0
0
0
0
0
0
0
0
0
0
0
0
0
0
0
0
0
0
0
0
0
0
0
0
0
0
0
0
0
0
0
0
0
0
0
0
0
0
0
0
0
0
0
0
0
0
0
0
0
0
0
0
0
0
0
0
0
0
0
0
0
0
0
0
0
0
0
0
0
0
0
0
0
0
0
0
0
0
0
0
0
0
0
0
0
0
0
0
0
0
0
0
0
0
0
0
0
0
0
0
0
0
0
0
0
0
0
0
0
0
0
0
0
0
0
0
0
0
0
0
0
0
0
0
0
0
0
0
0
0
0
0
0
0
0
0
0
0
0
0
0
0
0
0
0
0
0
0
0
0
0
0
0
0
0
0
0
0
0
0
0
0
0
0
0
0
0
0
0
0
0
0
0
0
0
0
0
0
0
0
0
0
0
0
0
0
0
0
0
0
0
0
0
0
0
0
0
0
0
0
0
0
0
0
0
0
0
0
0
0
0
0
0
0
0
0
0
0
0
0
0
0
0
0
0
0
0
0
0
0
0
0
0
0
0
0
0
0
0
0
0
0
0
0
0
0
0
0
0
0
0
0
0
0
0
0
0
0
0
0
0
0
0
0
0
0
0
0
0
0
0
0
0
0
0
0
0
0
0
0
0
0
0
0
0
0
0
0
0
0
0
0
0
0
0
0
0
0
0
0
0
0
0
0
0
0
0
0
0
0
0
0
0
0
0
0
0
0
0
0
0
0
0
0
0
0
0
0
0
0
0
0
0
0
0
0
0
0
0
0
0
0
0
0
0
0
0
0
0
0
0
0
0
0
0
0
0
0
0
0
0
0
0
0
0
0
0
0
0
0
0
0
0
0
0
0
0
0
0
0
0
0
0
0
0
0
0
0
0
0
0
0
0
0
0
0
0
0
0
0
0
0
0
0
0
0
0
0
0
0
0
0
0
0
0
0
0
0
0
0
0
0
0
0
0
0
0
0
0
0
0
0
0
0
0
0
0
0
0
0
0
0
0
0
0
0
0
0
0
0
0
0
0
0
0
0
0
0
0
0
0
0
0
0
0
0
0
0
0
0
0
0
0
0
0
0
0
0
0
0
0
0
0
0
0
0
0
0
0
0
0
0
0
0
0
0
0
0
0
0
0
0
0
0
0
0
0
0
0
0
0
0
0
0
0
0
0
0
0
0
0
0
0
0
0
0
0
0
0
0
0
0
0
0
0
0
0
0
0
0
0
0
0
0
0
0
0
0
0
0
0
0
0
0
0
0
0
0
0
0
0
0
0
0
0
0
0
0
0
0
0
0
0
0
0
0
0
0
0
0
0
0
0
0
0
0
0
0
0
0
0
0
0
0
0
0
0
0
0
0
0
0
0
0
0
0
0
0
0
0
0
0
0
0
0
0
0
0
0
0
0
0
0
0
0
0
0
0
0
0
0
0
0
0
0
0
0
0
0
0
0
0
0
0
0
0
0
0
0
0
0
0
0
-0.001405219437
0.001405278732
4.103466352e-05
-0.0001804725243
0.001409055034
0.0001812661256
-0.0007071243884
-0.0007027242472
0.000193464681
-0.001370693482
-0.0001875438424
-0.00145915931
4.154910132e-05
0.0007288597947
0.0007299611109
-0.0001749620995
0.001469401916
0.0001757001189
-0.0007359296525
-0.0007342102832
-0.0001780657767
-0.000711795353
-0.000709654017
-0.001521757421
4.114065691e-05
0.0007599905306
0.0007615559158
-0.0001734630058
0.001525756922
0.0001724790278
-0.0007630484263
-0.0007617245176
-0.0001744358173
-0.0007379658097
-0.0007379278996
-0.001582769022
4.07287306e-05
0.0007903540512
0.0007921266319
-0.000169756644
0.001582332935
0.0001707858578
-0.001583362148
-0.001535429757
-0.0001727379246
-0.0008229764898
0.0008229829377
1.914822831e-05
0.0004107356405
-2.275322005e-05
2.289778267e-05
-0.0004108802032
-0.0004102371982
0.0008200067268
4.755572434e-05
-0.0001690389459
0.001638290734
0.0001689597688
-0.001638211557
-0.001591095201
-0.0001693405043
-0.0008547378426
0.0008547378426
2.137826978e-05
0.0008547380988
-5.40233944e-05
5.402406214e-05
-0.0008547387666
-0.0004108900219
-2.223690539e-05
0.001706762087
-0.0007772780343
1.248174945e-05
2.734697768e-05
-0.0003096071982
0.003361795669
-0.001701123133
-0.001683335986
0.00016295046
0.0001693201888
-0.001643738905
-0.000169132106
-0.001368936692
0.001368289828
3.644350715e-05
0.0001049578885
-0.001272015081
-0.0001046988028
0.00136375034
0.0001912136142
-0.001361499273
0.0002032958619
-0.00130189579
-0.0002138363605
-3.690765078e-05
0.0003494910541
3.704091793e-05
-0.0003496243213
0.0006918878622
8.290543664e-05
-0.0006938186771
-8.097462173e-05
0.001408481752
0.0001878464738
-0.000485851726
0.002802869829
0.0004893104567
-0.002807102663
0.00048875608
-0.002719202801
-0.0004852694288
-0.002903587171
0.002912291882
-5.219197785e-05
-3.261123661e-05
3.267502015e-05
-0.001459223093
3.25309972e-05
-0.001410682752
-3.266195875e-05
-4.111963952e-05
0.0003607263166
4.086865025e-05
-0.0003604753274
3.671872571e-05
0.0003547767167
-0.0003547501916
-3.674525076e-05
0.001469019589
0.0001846981904
-0.0004813037182
0.002925490249
0.0004826426754
-0.002926982272
-0.00284013872
-0.0004844994686
-0.00303257615
0.003036806252
-4.875934969e-05
-3.25072491e-05
3.257049052e-05
-0.001521820662
-0.001466822324
-3.254546654e-05
-4.086103031e-05
-0.00149164329
4.093489699e-05
0.0007446867393
0.0007468826844
-3.43086819e-05
0.0003737654069
3.418743571e-05
-0.0007469152838
0.0003732711231
3.43561613e-05
0.0003651384158
-0.0007315819992
-3.405779895e-05
0.000366145221
-3.56713147e-05
0.0003758510196
3.587363608e-05
-0.000376053341
3.806424876e-05
0.0003682171117
-0.0003673136619
-3.896769852e-05
0.001525850665
0.0001820603637
-0.0004709270354
0.003029943568
0.0004753626465
-0.003040166437
-0.002951924035
-0.0004797563786
-0.00315726355
0.003158307719
-4.609039681e-05
-3.229703516e-05
3.235745268e-05
-0.001582829439
-0.001529574212
-3.251400585e-05
-4.122471728e-05
-0.001552706015
4.093152389e-05
0.0007756464406
0.000777352768
-1.752348848e-05
0.0003887732468
1.764941146e-05
-0.0003888991698
3.367256557e-05
0.0003814798516
-0.0007636641917
-3.371442076e-05
0.0003822261953
-6.86211928e-05
0.0007780341935
6.893351948e-05
-0.0007783465202
7.015160048e-05
0.0007667081839
-6.850071383e-05
-0.0003848203587
-0.0003835387119
-0.003281579703
-4.571258623e-05
0.001637156666
0.001644834894
-3.200372568e-05
0.0008217478932
3.219777083e-05
-0.001644918428
-0.001590949517
-3.223793155e-05
-1.919105227e-05
-0.000808376945
0.0008084548509
1.91131463e-05
-2.006188095e-05
0.0004054110766
1.951327916e-05
-0.0004048624748
1.882913385e-05
0.000395990755
-0.0003962616576
-1.855823123e-05
-0.0004075295483
-2.597988279e-05
0.0004062099787
2.72994524e-05
-6.698408101e-05
0.0008074121404
6.67735389e-05
-0.0008072015983
6.80088912e-05
0.0007946732703
-0.0007946679009
-6.801426058e-05
-0.003356738669
-3.870133089e-05
0.001647969595
0.001706762087
-3.622952589e-05
0.000852024244
3.622952588e-05
-0.001706762087
0.0008276488351
-0.001651752661
-3.202506778e-05
-1.919017455e-05
-0.0008383703527
0.0008382935465
1.926698077e-05
-1.786069075e-05
0.0004156678534
1.92844012e-05
-0.0004170915639
2.097484069e-05
0.0004091633443
-0.0004099114151
-2.022676991e-05
-0.001768222544
0.001768222544
4.493267445e-05
0.001768222544
-0.0001058694512
0.0001058694513
-0.001768222544
-0.0008558646463
-5.402302457e-05
3.651608767e-05
-0.0006920807598
-3.597839077e-05
0.0003451244444
0.0003464186185
-3.714463603e-05
-0.0007030469228
3.698318205e-05
0.000351900602
0.0003513077747
-0.0006917945959
2.381564663e-05
-2.235221392e-05
0.0006903311632
-0.0006920610792
0.0006925889044
3.598826254e-05
0.0003544406659
3.663231966e-05
-0.0003543542598
0.0003489494595
-0.0003492654442
-3.659166605e-05
0.0001837500197
0.001391893159
-0.0001822245243
-0.000698968429
-0.0006944502252
7.829652146e-05
-0.0003485196829
-7.702869604e-05
0.0006962013169
-3.730388371e-05
0.0003544886915
3.725585809e-05
0.0003645098591
3.471464593e-05
-0.0007296700481
0.0003648017044
0.0007174494346
3.437101817e-05
-0.0007175258159
-3.429463684e-05
4.127921461e-05
-0.00143786908
-4.121271314e-05
0.001437802578
3.655993788e-05
-3.60504021e-05
0.0003583042962
0.0003586356026
-1.817489902e-05
0.0003644992336
1.818552443e-05
-0.0007040345961
-3.681224069e-05
0.0003515717676
0.0003521304331
-0.0007162459605
3.64767953e-05
0.0003581427772
0.0003581863259
0.0003670937465
3.708628995e-05
-0.0003661157877
0.0003624022728
-0.0003619179371
-4.160397516e-05
8.960289205e-05
0.0007239955095
-0.0007241473024
-8.94510992e-05
4.091779836e-05
-4.102635002e-05
0.0003625108244
-3.786682395e-05
0.0003676714609
3.728910953e-05
-3.728533014e-05
0.0003547581631
0.0003609801179
4.066399706e-05
0.0007210692151
8.961276068e-05
-0.0007210790838
0.0003807973363
3.40172199e-05
-0.0007613031045
0.0003801611139
0.0003746301965
-0.0007494368778
-3.463237462e-05
0.000375130374
-0.001499887614
-4.120974071e-05
0.0007492957466
0.0007509405779
1.862220067e-05
-1.872749046e-05
0.0003747354863
-1.748400154e-05
0.0003806721493
1.760918853e-05
-1.80800744e-05
0.0003650435912
0.000374045951
1.834165658e-05
0.000763813174
7.000515566e-05
-0.0003820719029
-0.0003815948263
0.0003761203502
-0.0003760426811
-3.574898383e-05
0.000172565068
0.001503260844
-0.0001727537188
-0.0007519019575
-0.0007511702354
7.297830468e-05
-0.0003754948252
-7.237908849e-05
0.0007510159592
-7.21337528e-05
0.0007637079463
7.223898052e-05
-3.843304328e-05
0.000368783331
-0.0003748036472
0.0007498358197
3.644511383e-05
3.735203799e-05
0.001496328486
0.0001738578385
-0.0007496139423
-0.0007480073139
0.0003955490564
1.900505312e-05
-0.0003957249756
0.000389181123
-0.0003892406205
-1.746399104e-05
-0.001559228238
-4.072255776e-05
0.0007787655091
0.0007799605692
1.844766985e-05
-1.811768292e-05
0.0003888511361
-2.047687815e-05
0.0003951434709
2.088246357e-05
-1.745528836e-05
0.0003814511384
0.0003885888269
1.863208981e-05
0.0007932777805
6.808981325e-05
-0.0007933587025
0.0007805112906
-0.0007805053226
-6.86271608e-05
0.0004107506657
2.14490397e-05
-0.0004112248647
0.0004048125709
-0.0004050058542
-1.986859761e-05
-0.0008100725156
-1.919582328e-05
0.0008100772866
2.277399698e-05
0.0004048723858
-0.0004033772599
-2.426912287e-05
2.171422781e-05
-2.134382716e-05
0.0004044421703
-2.087507611e-05
0.0004097680532
2.185768861e-05
-1.997346661e-05
0.0003954873434
0.0004058222693
2.130303505e-05
2.526020932e-05
-0.0004100157606
-0.0001323020908
0.001637330836
0.0001319002852
-0.0008188900384
-0.0008180389921
0.0008085737803
-0.0008083116698
-6.724619148e-05
-2.596550398e-05
0.000404858007
0.0008619310113
-3.415149493e-05
-0.000857832084
1.40241702e-05
1.602839738e-05
0.0004160774587
-0.0004169643206
-1.697382882e-05
-0.000839969261
-1.903592458e-05
0.000839815011
3.814207421e-05
0.0008284660753
-0.0008290377679
-3.757038159e-05
1.449227753e-05
-1.401859006e-05
0.0004156037713
-3.868763978e-05
0.0008621823267
1.646340522e-05
2.197291912e-05
-1.988966102e-05
0.0004081779292
1.551027669e-05
0.0004146498543
0.0008271656366
3.925063018e-05
-0.0008282741926
-0.002783977488
0.002800077588
-5.8017084e-05
3.240462451e-05
-0.001405093064
2.766443354e-05
-0.001375302396
-2.952421891e-05
-3.946451314e-05
-0.001383236695
0.001383109496
3.959171162e-05
-3.409195159e-05
3.400177657e-05
-0.0006919709042
3.049777057e-05
-0.0006938024355
-2.848993097e-05
-6.77910659e-05
0.0003423307698
1.240547034e-05
-0.0002869451743
0.000355330113
4.1504544e-05
-0.0003602039788
-3.663067815e-05
-0.001430978193
0.001431108739
4.114866793e-05
3.439341218e-05
-0.0007162683545
3.44591041e-05
-0.0007040353016
-3.445839861e-05
-0.0001347282986
0.0003900085602
6.303692121e-05
-0.0003183171828
0.00158187462
0.0001802452535
-0.0004473418219
0.003110867008
0.0004556559024
-0.003157463455
-0.003070935628
-0.0004678286807
-0.0001326602684
0.0004021018996
5.796187443e-05
-0.0003274035056
-5.82427361e-05
0.0008002017908
5.879902443e-05
-0.0004005828762
-0.0004001752029
2.982608213e-05
0.0003971870712
-0.0003971175565
-2.989559687e-05
-4.360381153e-05
0.0008266808372
4.408861094e-05
-0.0001407623271
0.001661424447
0.0001370161098
-0.001657678229
0.001643208823
-0.0001328365886
-0.0008219277886
-0.0008207465365
3.44342224e-05
-0.0007030220411
-0.0006921194524
-3.405325899e-05
-0.001382501799
-4.035030513e-05
0.001383387591
1.890397681e-05
-0.0003476507284
-1.944753246e-05
0.0003481942841
-0.0003567003566
8.781612535e-06
-1.352070288e-05
0.000361439447
-0.0003478739681
-1.792869464e-05
0.0003481480921
1.765457064e-05
8.927879499e-05
-8.347862197e-05
0.0006860876891
-0.0003477937826
0.0006958135348
7.976782342e-05
0.001383431716
0.0001811477346
-0.0006917452313
-0.0006890841994
0.0003974272727
3.015169759e-05
-0.0003977528882
3.466098576e-05
0.0003945143163
-0.0003957745106
-3.340079143e-05
0.0001719638878
0.001560466133
-0.00156100858
-0.0001714214411
7.135991644e-05
-7.106336407e-05
0.0007802147382
-7.048920201e-05
0.0007930723576
7.069462491e-05
-7.162469949e-05
0.0007661991306
0.0007780527432
7.134136671e-05
0.001555121918
0.0001721403118
-0.001555298342
2.735973915e-05
0.0004090161094
-0.0004105591584
-2.58166902e-05
-0.000410789525
-2.632473515e-05
0.0004108875541
2.622670601e-05
-4.083264662e-05
0.0008240540992
4.115091325e-05
-0.0004119710953
-0.0004124012706
0.0006505927503
5.223799152e-05
-0.000650612821
-5.221792083e-05
-0.001396300072
4.554928736e-05
-3.054577291e-06
-1.867893911e-05
0.0006798560034
0.0006926282973
-0.0006838036485
0.0006975880432
1.003125188e-05
0.0006884577286
8.39212018e-05
-0.0006894734938
0.001371859838
0.000191834828
-0.0006888985964
-0.0006595483679
-9.612676026e-05
-0.0001191209412
6.836352446e-05
-6.943547234e-05
0.0006516646982
0.0004321261698
-0.0004999172357
7.733597651e-05
0.0006946841019
-7.59593243e-05
-0.0003479940462
-0.000348066708
4.027494694e-05
4.089835691e-05
0.000350952866
3.796596068e-05
-3.556682125e-05
0.0003529309736
0.0003501559352
3.244978161e-05
0.0006903976769
7.521718987e-05
-0.0003448752967
-0.0003434035936
3.573506824e-05
0.0003577925211
-0.0003578349674
-3.569262195e-05
0.0003579736281
3.589023511e-05
-0.000358128795
3.515648917e-05
0.0003732383607
-0.0003730478795
-3.534697036e-05
0.0003739599059
3.572602768e-05
-0.0003745294444
0.0003886432006
-3.474304624e-05
3.168978737e-05
-0.0003855899417
0.000396943526
-0.000507279375
-2.439244961e-05
6.939586689e-05
0.0007721773368
-0.0007721561146
-6.941708915e-05
3.898024253e-05
-3.303291153e-05
0.000390996195
-3.501881523e-05
0.0003894962768
3.416573899e-05
3.486053627e-05
-6.234975881e-05
0.00037862077
-0.0003511315475
0.0003876144001
4.137440263e-05
0.0007708898568
6.948078951e-05
-0.0003856052553
-0.000385369524
0.0004005179078
1.638255152e-05
-0.0004007802609
-1.612019841e-05
2.726836103e-05
-0.0008018007487
-2.718624786e-05
0.0008017186355
-2.718438571e-05
-0.000808307689
0.0008083805659
2.711150886e-05
-5.679193245e-05
0.0008070064129
5.706013074e-05
-0.0008072746112
0.0008017955535
-5.765264323e-05
-0.0004015569215
-0.0004008287249
-0.0005222710123
-2.022460118e-05
0.0004098353451
1.387062802e-05
0.0004145613792
-0.0004154074031
-1.302460408e-05
2.662080925e-05
-0.0008322603136
-2.655815069e-05
0.000832197655
-2.656323698e-05
-0.0008382114346
2.696659294e-05
0.000418641214
0.0004191668646
2.694570193e-05
-0.0008237500468
-2.669472526e-05
0.0008234990701
-0.0008302641779
0.0008301704654
2.671452177e-05
0.0004126393259
1.490267625e-05
-0.0004136713742
-0.0003571428134
1.609186971e-05
-0.0001127972863
0.00045384823
-0.0003456192498
1.932067195e-05
0.0003452025547
-3.614566589e-05
-0.0006971541459
3.64433999e-05
0.000347674542
0.0003491818699
-2.099552369e-05
2.19490513e-05
-0.0003465727774
2.131891077e-05
-0.0003526486157
-2.581310847e-05
-2.536673011e-05
4.766652691e-05
-0.0003528270399
0.0003305272431
-0.0003484006127
-2.024563945e-05
-0.0006996933012
-3.689140491e-05
0.0003503841514
0.0003500548888
-3.438954373e-05
-0.0006974805875
0.000697942723
3.392740826e-05
-2.021834869e-05
2.058907667e-05
-0.000348244696
8.81700884e-07
-0.0003460169335
-1.156512403e-05
0.0003517812343
1.965197774e-05
-0.0003501143012
0.0003481609348
-0.0003480224338
-2.035684972e-05
-0.0006938735969
-3.484426538e-05
0.0006943283185
-2.023071848e-05
0.0003504629587
0.0003510880598
1.678504416e-05
3.751038375e-05
0.0003522468375
-0.0003515171333
-3.824008792e-05
0.0003508837585
3.761241569e-05
-0.0003509857904
-1.828966121e-05