/*--------------------------------*- C++ -*----------------------------------*\
| =========                 |                                                 |
| \\      /  F ield         | OpenFOAM: The Open Source CFD Toolbox           |
|  \\    /   O peration     | Version:  v1912                                 |
|   \\  /    A nd           | Website:  www.openfoam.com                      |
|    \\/     M anipulation  |                                                 |
\*---------------------------------------------------------------------------*/
FoamFile
{
    version     2.0;
    format      ascii;
    class       surfaceScalarField;
    location    "1.11";
    object      phi;
}
// * * * * * * * * * * * * * * * * * * * * * * * * * * * * * * * * * * * * * //

dimensions      [0 3 -1 0 0 0 0];
oriented        oriented;


internalField   nonuniform List<scalar> 
25162
(
0.0004365666688
0.9162134333
0.0005461924793
0.9165903742
0.0006544771351
0.9165417153
0.0003253281193
0.9165487683
0.0004303807674
0.4583361299
0.0003391982392
0.4582972889
0.0004296152311
-0.0004269041497
-0.0005460876534
0.4582672521
0.0006288355061
-0.0007107529488
0.4582104525
0.0008353004474
-0.0009723980435
0.4581803315
0.001122066538
-0.00129238475
0.4581523446
0.001475040198
-0.001659518571
0.45815323
0.001841288573
-0.002015337431
0.4581917141
0.002155123316
-0.002261230122
0.458273148
0.00232158208
-0.00233275753
0.4583723197
0.002295437822
-0.002213847017
0.458456139
0.002087707987
-0.001940272416
0.4584965696
0.001778702812
-0.001599539193
0.4585027143
0.001431824854
-0.001266127899
0.4585027806
0.001078347284
-0.0009901321291
0.458470562
0.0008695700909
-0.0007177459606
0.4584728797
0.0005948662507
-0.001577742325
0.9187254918
4.749508911e-05
-0.0005452445172
-0.0009902866609
0.9187625443
3.964550663e-05
0.9158200678
0.9138396455
0.001199392044
0.9150140413
0.00191446905
0.9158752972
0.002217943134
0.9162382413
0.000692812158
0.9169802315
0.001093667766
0.4580226378
0.0008411591119
-0.4581709847
-0.4581368172
-0.001049625478
0.4578742197
0.001312222906
-0.4579661066
-0.0016383902
0.4575719982
0.0009547230883
0.001077775488
-0.2289087387
-0.001164573636
0.2288051664
0.001268146019
-0.001711094028
-0.2288317194
0.2286938294
0.0018489841
-0.002407960386
-0.2287671559
0.2285903333
0.002584782957
-0.003222734641
-0.2287555959
0.2285633957
0.00341493484
-0.004006545887
-0.2288345896
0.2287263826
0.004114664866
-0.003899577026
-0.2290186595
0.2288130385
0.004105346089
-0.00472684074
-0.2292334458
0.2292109836
0.004749302942
-0.004474600558
-0.2293759862
0.2294787753
0.004371811458
-0.003889391051
-0.2294554847
0.2296336509
0.003711224797
-0.003145347268
-0.2294666691
0.229667504
0.002944512368
-0.002415602939
-0.2294247555
0.2296051374
0.002235221029
-0.4589363217
-0.003448157207
0.4604423879
0.001942090989
-0.0005708767494
0.4610390749
-0.001166674541
-0.4593015236
-0.001313196274
0.9184381868
0.0001708100885
0.001429691128
-0.0008133938043
0.9182627419
0.0004352026742
0.9145714714
0.9142748482
0.001511404832
0.9135026365
0.004072343969
0.9133143581
0.006944093225
0.913366492
0.002924510322
0.9146198425
0.006379971838
-0.4579234226
0.4576999024
0.003148030614
-0.457617474
-0.00320062782
0.4581752584
0.002642843413
-0.45703529
-0.002839061045
0.4566632828
0.001553917466
0.001657150749
-0.2283005294
-0.001939471902
0.2280809479
0.00215905342
-0.2280062929
-0.00294710857
0.2277007761
0.003252625335
-0.2278144748
-0.003426391593
0.2319459567
-0.0007146961667
-0.2358942634
0.01488911435
0.2396966085
-0.01873453385
-0.234487106
0.02704189418
0.2361229177
-0.0287086723
-0.2274903887
0.03049245376
0.2270093129
-0.03000527342
-0.2215140818
0.0254216086
0.2190050374
-0.02287386082
-0.2230198031
0.01223248745
0.2186090682
-0.007782408935
-0.2304646249
-0.006393110231
0.2299161939
0.006943387375
-0.2305344961
-0.005791795156
0.2309181963
0.005408094987
-0.004034209176
-0.230428331
0.2311464476
0.00331609264
-0.4631699414
-0.0007312107095
0.4621375285
0.001763623638
-0.4602158195
-0.001783541915
0.4603083797
0.001690981667
0.0006487147429
0.92049054
-0.001530010822
-0.001171057089
0.001897051768
0.9170144049
0.000880535601
0.9155879875
0.9151553838
0.000487821752
0.9130148147
0.00110021037
0.9127019694
0.002370289053
0.9120964133
0.003268435148
0.9115095563
0.002212140103
-0.4568849184
0.4563950777
0.003758275838
-0.4596158338
-0.005052003093
0.4564575685
0.00821026835
-0.4579761937
-0.009610302204
0.4593536436
0.00243315931
0.005799693047
-0.2272741389
-0.002525608489
0.2270083
0.002791447462
-0.2289020501
-0.002264384518
0.2340414384
-0.002898906759
-0.2465951734
0.01736700359
0.2505520665
-0.02142974563
-0.2486223887
0.03041788965
0.2503848944
-0.03229009475
-0.2391538719
0.03499974216
0.2392735101
-0.0351760278
-0.2256300744
0.03455136396
0.2252176508
-0.0341219907
-0.2133919068
0.03212660483
0.2124365989
-0.03108616286
-0.2076531948
0.02587804623
0.2051634132
-0.02326705875
-0.214758371
0.01257927224
0.2104592775
-0.008186441252
-0.2347104201
-0.001772339323
0.2370971833
-0.0006103060931
-0.004419469433
-0.2321728924
0.2322519034
0.004340458432
-0.4623066847
-0.006608592532
0.4637191566
0.005196120692
-0.4611603198
-0.00381342082
0.4622945679
0.002679172629
0.00355531344
0.9208394838
-0.002057406836
-0.001846850367
0.002405705951
0.9181640123
0.001107362538
0.916886331
0.9162627463
5.37201966e-05
0.9129610945
0.0001927281488
0.9125629615
0.0005527720424
0.9117363695
0.001285294021
0.9103349704
0.0004420639776
-0.4560636888
0.4551856331
0.002163349753
-0.4549117188
-0.00268254667
0.4541591632
0.003435102209
-0.4530693274
-0.00446059845
0.4520882238
0.002869028365
0.002572673658
-0.227437009
-0.004837346767
0.2260209333
0.006251817168
-0.2479320839
0.001890374171
0.2534556304
-0.00754286696
-0.2582436965
0.01882398712
0.259331698
-0.02009775516
-0.2509028466
0.01960574752
0.2493480588
-0.0181954255
-0.2361295849
0.01179708376
0.2337961674
-0.009523594362
-0.224197243
0.004893473005
0.2239531223
-0.004629005818
-0.2132402012
0.007259853021
0.215056868
-0.008974778122
-0.2024430374
0.01418341584
0.2033965361
-0.01496103995
-0.2122820628
0.02489072076
0.2049528103
-0.01737458081
-0.2175428317
0.005214019142
0.2141011631
-0.001669075111
-0.006262838186
-0.2338793948
0.2345253871
0.005616845843
-0.4655934959
-0.007606113692
0.4674036013
0.005796008297
-0.4633865433
-0.004457051591
0.4645180175
0.003325577401
0.004293283195
0.9231121874
-0.003643684964
-0.002922301883
0.002359812187
0.9200974834
0.001066104754
0.9181800384
0.9173288511
-0.0002979874834
0.913259082
-0.000466527327
0.9127315014
-0.0003282148499
0.911598057
0.000123117727
0.909842947
4.069081553e-05
-0.4542580151
0.4538855946
0.0004955382205
-0.4535291748
-0.001537172539
0.4526518166
0.002414530752
-0.451050242
-0.003118410017
0.4498258385
0.002157256239
0.00218555733
-0.2337925153
-0.000316523788
0.2361121688
-0.002070855841
-0.2556395276
0.007485499045
0.2563820978
-0.008437438576
-0.2580589462
0.005746616673
0.2546310286
-0.002545796036
-0.239481865
-0.009693536303
0.2385921024
0.01045394303
-0.2225981855
-0.02674801762
0.2185712629
0.03074574953
-0.2229677763
-0.04174281831
0.2226049542
0.04210962426
-0.2271546594
-0.03054945311
0.2316598927
0.02610190598
-0.2179597544
-0.005661370435
0.2200454142
0.003752317205
-0.2013310461
0.001026326946
0.2028463819
-0.002302970603
-0.2078205362
0.002539581605
0.2071099166
-0.00163729976
-0.003687788007
-0.2336285724
0.2322742471
0.00506792058
-0.46902475
-0.007689808631
0.4706616926
0.006052866053
-0.465251266
-0.004844256439
0.4659270772
0.00416844527
0.003480220689
0.9257196686
-0.002913857261
-0.003173844634
0.001883871704
0.9216938323
0.0007767968923
0.9192871132
0.918105648
-0.0008085791392
0.9140676612
-0.00145940861
0.9133823308
-0.001902962983
0.9120416114
-0.000425701664
0.9096264656
-0.001260779897
-0.4537330313
0.4533949465
-8.761685354e-05
-0.4515083004
-0.0001910320335
0.4510647717
0.000634560798
-0.4492548225
-0.001717927507
0.4488255722
0.001117272551
0.001029043908
-0.239701331
0.00111403011
0.2404094346
-0.001949116838
-0.2578234119
0.002428151022
0.2538886679
0.001243832671
-0.2463385555
-0.005438192843
0.2435948206
0.007955277002
-0.2195551701
-0.01973904561
0.2129903799
0.02622746346
-0.2049258682
-0.04782748778
0.1037559733
0.09787008919
0.02339790098
0.02772939254
-0.03402468634
-0.1086578766
0.1080912033
0.03459135958
-0.02752791873
-0.252023476
0.05192414434
-0.02788761667
0.1273776678
0.1281371992
-0.03348576156
-0.2329364916
0.2391594471
0.02737868721
-0.2109321352
-0.01456868653
0.2156154465
0.01013611123
-0.2090496734
-0.002213271886
0.2099020807
0.001605605689
-0.002103722431
-0.2270598382
0.2263574706
0.002899985738
-0.4722824254
-0.006303667948
0.4733345542
0.005251539092
-0.467022322
-0.003952020542
0.4680746867
0.002899655835
0.001829233396
0.9275049538
-0.001639712596
-0.001974805947
0.0008108411895
0.9227122245
0.0002792654227
0.919818689
0.9183849134
-0.001357208404
0.9154248696
-0.002641085714
0.9146662081
-0.003691712489
0.9130922381
-0.001962356174
0.9105417148
-0.00264460557
-0.453391395
0.4534133235
-0.001984284756
-0.450857182
0.002052609922
0.4507545923
-0.001950020233
-0.4478198343
0.001756080511
0.4479895063
-0.0007180087599
-0.001221910913
-0.2400532219
-0.000143539345
0.239265808
0.0007729987929
-0.2496334973
-0.003882930261
0.2481416383
0.005098094982
-0.2355480427
-0.009844212779
0.2335367566
0.01163607982
-0.2016759764
-0.01703363574
0.1999561044
0.01872755489
-0.08876731066
-0.01197932532
0.08848785682
0.01225877916
-0.03408972913
-0.1417242767
0.1447110632
0.03110294268
-0.03645488532
-0.2583884424
0.2636538659
0.03125068457
-0.2256731407
-0.01971676177
0.2289072126
0.0167244883
-0.2149601785
-0.009522399145
0.2171128206
0.007642261921
-0.001593711804
-0.22676841
0.2270587532
0.001440714431
-0.4747012694
-0.003376441595
0.475775719
0.00230199204
-0.4688810291
-0.001569897612
0.4695175314
0.0009333953039
-0.0007254587305
0.9281885201
0.0003667194812
-0.0003248271053
-0.0007471806791
0.9227339465
-0.0004372478209
0.9195087561
0.9179476656
-0.001910753521
0.9173356231
-0.003740249199
0.9164957038
-0.005624731816
0.9149767208
-0.003321950362
0.9122469227
-0.004007989343
-0.4537015535
0.4539799489
-0.003600345745
-0.4508725149
0.003918864349
0.4511696223
-0.004215971698
-0.448078825
0.00449572025
0.4484891052
-0.002335816718
-0.002601061047
-0.2375723612
0.002162844925
0.2368078943
-0.001576926289
-0.243051233
-0.001436730735
0.2414957553
0.002701070911
-0.2284795568
-0.006374579935
0.2273242256
0.007312144271
-0.1991273634
-0.008321340895
0.1996992148
0.007737802602
-0.09230636703
-0.001721604536
0.09302342116
0.001004550408
-0.01507804558
-0.1578361438
0.1583125268
0.01460166262
-0.02125804731
-0.275121834
0.2770488793
0.01936600974
-0.2379900886
-0.0133799448
0.2402346756
0.01137308521
-0.2232133595
-0.005714027662
0.2250390642
0.004178425516
-0.0008131723148
-0.2293141167
0.2300571603
0.0002276715821
-0.4769985113
0.0006510715957
0.47788344
-0.001536000308
-0.469777584
0.00188455099
0.4698460926
-0.0019530596
-0.003769743735
0.9272422605
0.002675736145
0.002040267252
-0.002622914487
0.9215871172
-0.001351479085
0.9182373207
0.9165961865
-0.002428439618
0.9197640627
-0.004969048547
0.9190363128
-0.007451970424
0.9174596426
-0.004686380282
0.914864261
-0.005382928448
-0.4545312978
0.4550794663
-0.005234548779
-0.4515979709
0.005862082308
0.4523027923
-0.006566903712
-0.4490631328
0.007272242255
0.4499704857
-0.003891498243
-0.004335589803
-0.2345778205
0.003838943033
0.2338961338
-0.003350772089
-0.2372899501
0.0009119474818
0.2360251539
4.905175093e-05
-0.2247651077
-0.002491241838
0.2241061769
0.002930168763
-0.2022744616
-0.002378074902
0.2032390887
0.001406674474
-0.09682361504
0.001263095211
0.09724420909
-0.0008219386312
-0.0008617506142
0.003594931859
-0.1551735255
0.1540991678
-0.002520574142
-0.002622478553
-0.276945351
0.2755319329
0.004073905479
-0.2440955175
-0.004956577608
0.2448360219
0.004458751796
-0.2299291572
-0.001827162747
0.2312457961
0.0008052243236
0.001793522121
-0.2327777814
0.2335245799
-0.002381313014
-0.4776792547
0.005937752223
0.4769104421
-0.005168939561
-0.4694862701
0.004793633416
0.4695906653
-0.004898028668
-0.007064271381
0.9246307205
0.005222870034
0.004452941349
-0.004620768211
0.9191436141
-0.002323529076
0.9159400816
0.9142726574
-0.003021648405
0.9227857111
-0.006043249035
0.9220579134
-0.009227868404
0.920644262
-0.005998527742
0.9182851252
-0.006650204827
-0.4558799818
0.4566778307
-0.00679637666
-0.4531263914
0.007757568825
0.4540568664
-0.008688043852
-0.4512132829
0.009767447981
0.4526678636
-0.005522008342
-0.005771655347
-0.2319571346
0.005309645766
0.2313332696
-0.004896429563
-0.2325267523
0.002858242324
0.2314413732
-0.002090066121
-0.2225619052
0.0003920647203
0.2221639802
-0.000215233514
-0.2062629112
0.001409123112
0.2073000122
-0.002448840102
-0.09972435294
0.002874106805
0.100016799
-0.00156787529
-0.001598677582
0.01347280894
-0.1449256186
0.1435014781
-0.01204866844
0.01045439249
-0.2685424889
0.2655744079
-0.007420050306
-0.2451559959
0.00229878357
0.2457021738
-0.002592714612
-0.2344359918
0.003436406844
0.2352590748
-0.003964207285
0.005511667641
-0.2357493954
0.2362109949
-0.005830563994
-0.4757087481
0.01083148379
0.4741344502
-0.009257185881
-0.4695011876
0.007874084156
0.4682572407
-0.006630137328
-0.01007832148
0.9206356212
0.007313586394
0.006759834408
-0.006525726919
0.9155910195
-0.00320523899
0.9126195937
0.9110674184
-0.003555090208
0.9263408014
-0.007146675513
0.9256494987
-0.01090049765
0.9243980841
-0.007168403532
0.922126118
-0.007573086888
-0.4576947563
0.4586869013
-0.008160548543
-0.4552262497
0.009309663558
0.4564700829
-0.01055349684
-0.4540448737
0.01192353963
0.4554177891
-0.006639461063
-0.00675819399
-0.2294865206
0.006433490088
0.2288739167
-0.006050216639
-0.2283688047
0.004221504759
0.2273944659
-0.003577541045
-0.2212502789
0.002328864407
0.2210262353
-0.002325132864
-0.2105365439
0.004034279699
0.2116786328
-0.005176614457
-0.1019271352
0.004277672844
0.102206189
-0.002257478731
-0.002299247869
0.01676563176
-0.1339430429
0.1325830132
-0.01540560199
0.01670129322
-0.2571611521
0.254565745
-0.01399352319
-0.2445936202
0.009795155879
0.2436017007
-0.008526114066
-0.2368772131
0.007777422216
0.2371186925
-0.007735241509
0.008745578855
-0.2369360462
0.2369123298
-0.008610324017
-0.4722592238
0.0147245507
0.4701150605
-0.01258038736
-0.4669132875
0.01071764889
0.4653080154
-0.009112376788
-0.01269983823
0.9171212286
0.008406871874
0.007807358997
-0.008157334246
0.9110485156
-0.003963223859
0.9084254833
0.9071041946
-0.007720569903
0.9340613713
-0.01563270951
0.9335616384
-0.02367597135
0.932441346
-0.008364611537
0.9306577325
-0.02384297427
-0.4599100961
0.4611270588
-0.009581574229
-0.4577695838
0.01092220158
0.4592707789
-0.01242339665
-0.4566964886
0.01394624428
0.4572196629
-0.007294489768
-0.007347576173
-0.2269456927
0.006967238209
0.2262649195
-0.006538760129
-0.2245438822
0.004751497745
0.2236207949
-0.004169760642
-0.2205748448
0.003249818348
0.2204744024
-0.003369863864
-0.21530522
0.005618952914
0.2165592516
-0.0034270125
-0.003445972042
-0.0523197307
0.00278889884
0.05241084683
-0.00288001497
-0.05826092553
0.00625549853
0.05777202133
-0.01215554397
0.00638894964
0.01499327509
-0.1245882217
0.2455030927
-0.02591270039
0.01455350614
-0.1245489519
-0.2483500588
0.01787261542
0.2463169335
-0.01567393876
-0.2423197863
0.01288845879
0.2421293031
-0.01239169574
-0.2380105577
0.01203136603
0.238200566
-0.01195061951
0.0111794983
-0.2362370292
0.2357206972
-0.01060114421
-0.4676418484
0.01718385725
0.465176206
-0.01471821473
-0.4636442155
0.01277541462
0.4618623117
-0.01099351072
-0.01469552077
0.9123843524
0.009950986524
0.009481410526
-0.009447250407
0.9058002453
-0.004639914263
0.9036181472
0.9024642803
-0.004211324132
0.9382726954
-0.008535619835
0.9378859341
-0.01309238461
0.9369981108
-0.008904101522
0.9355842491
-0.009114799646
-0.4643878834
0.4656780525
-0.01019427066
-0.4625664216
0.01162906211
0.464109462
-0.01317210243
-0.4584880749
0.01484731305
0.4598081108
-0.008052667462
-0.008314441539
-0.2240592839
0.007820334362
0.2234181593
-0.007444450793
-0.2208852207
0.005757540815
0.2199713094
-0.005189229625
-0.2206029662
0.004231509905
0.2204777774
-0.004313018978
-0.2207764309
0.00623466564
0.2220142465
-0.003733449887
-0.003739031299
-0.05460435356
0.005968156386
0.1096112574
-0.05457694359
-0.003191979295
-0.003206137337
-0.1122231661
0.008230982704
0.1120770521
-0.01607503434
0.007990165669
0.02512108909
-0.2383430983
0.2364798892
-0.02325046604
-0.2426081429
0.01545122077
0.2422852502
-0.01490862838
-0.2423290939
0.01438600078
0.2433992025
-0.01514325943
-0.2384919511
0.01437144233
0.2382653599
-0.01392240969
0.01189681466
-0.2335773503
0.2327523275
-0.01106268358
-0.4629702384
0.01804390469
0.4609749173
-0.01604858362
-0.4600672135
0.01413883916
0.4580382999
-0.01210992549
-0.01429589735
0.906794177
0.009880394597
0.0100056782
-0.0102418652
0.9017462131
-0.005009929232
0.8983862113
0.8974543511
-0.004402769362
0.9426754648
-0.008916055582
0.9423992203
-0.01365291775
0.941734973
-0.009297252959
0.9406648338
-0.009436249489
-0.4670633427
0.4684338088
-0.01066771899
-0.4656734576
0.01214874126
0.467245772
-0.01372105566
-0.4620353573
0.01540567599
0.4650023874
-0.009153477282
-0.009291935581
-0.2223765325
0.01040613174
0.2224691772
-0.01072255039
-0.2175214992
0.01063557691
0.2169108601
-0.01035262522
-0.2193122575
0.009199484292
0.2186928318
-0.008819724029
-0.2243295737
0.007929318276
0.2240946072
-0.007744813865
-0.1127240358
0.01023977756
0.225419435
-0.01028262171
-0.112652555
-0.2264091068
0.01674773511
0.2269701485
-0.0173087769
-0.2348753606
0.01854194194
0.235378331
-0.01895765087
-0.2423232367
0.01941815479
0.2425811852
-0.01940788855
-0.2429139357
0.01898708076
0.2429343635
-0.01868589354
-0.2363799504
0.01707646794
0.2362748448
-0.01680413417
0.01315341128
-0.2317047586
0.229270371
-0.01071902379
-0.4591935474
0.01957277637
0.4557701692
-0.01614939812
-0.4560028037
0.01439648835
0.4537290549
-0.01212273946
-0.01469516744
0.9013532447
0.01013857171
0.009997528012
-0.01031671422
0.8973677599
-0.005228218199
0.8932977153
0.8922261329
-0.004486743744
0.9471622086
-0.009073166118
0.9469856427
-0.01385710707
0.9465189139
-0.009449089962
0.9457559765
-0.009499159864
-0.469815129
0.4711965009
-0.01083046184
-0.4688056512
0.0122983001
0.4703450294
-0.0138376783
-0.4677560664
0.01546912499
0.4695103751
-0.008642318676
-0.008581276612
-0.2246290612
0.01213788739
0.2260687443
-0.01371295262
-0.2163492568
0.01716908615
0.2167750158
-0.01786400801
-0.2168712596
0.0186697027
0.216526574
-0.01857705412
-0.2224992941
0.01761621364
0.2219481137
-0.01720215169
-0.2233937741
0.0164266425
0.2220158357
-0.01508147502
-0.2304962552
0.01933045616
0.2316309581
-0.02042345696
-0.2380298001
0.02335668314
0.2388971544
-0.02406863707
-0.2435172051
0.02490426606
0.2435961867
-0.02471953001
-0.2419650347
0.02278657986
0.2411423909
-0.02170909027
-0.2329633616
0.01740755698
0.2313195036
-0.01567300897
0.01239113918
-0.2271135752
0.2264498177
-0.01172738165
-0.454774427
0.01965261804
0.45184893
-0.01672712103
-0.4506609825
0.01310523155
0.4488863992
-0.01133064827
-0.01381627397
0.8945223458
0.01057227273
0.01007490012
-0.007879279482
0.8914307655
-0.005267819616
0.8906862554
0.8869583134
-0.004474519268
0.9516367279
-0.009034074322
0.9515451978
-0.01375767418
0.9512425138
-0.00939185878
0.950735098
-0.009344936906
-0.4725450207
0.4738865579
-0.01073339596
-0.471846413
0.01214270545
0.4733060969
-0.01360238938
-0.471175281
0.01512828023
0.4727683275
-0.008399876557
-0.008321450079
-0.2327041056
0.009278039977
0.2351161856
-0.01170800538
-0.2205044124
0.01979499397
0.2226324241
-0.02208488998
-0.2172616923
0.0273512616
0.2182669142
-0.02855689446
-0.2212837833
0.03077999048
0.2215673014
-0.03120702279
-0.2167479018
0.03068618441
0.2149548935
-0.02893864754
-0.2339193765
0.03316153174
0.234260903
-0.0334436852
-0.2402022282
0.03352236974
0.2400334423
-0.03319603764
-0.2421322878
0.03060864255
0.2409304758
-0.02920268955
-0.2367120968
0.02348641747
0.234533219
-0.02116576505
-0.2255790749
0.01369861843
0.2249133175
-0.01303207287
0.01138051408
-0.2246734941
0.2241315141
-0.01083853403
-0.4479549207
0.0184247362
0.4460570958
-0.01652691127
-0.4471544898
0.0147204592
0.4454118512
-0.01297782064
-0.01287393857
0.8868923748
0.01111951582
0.009384393773
-0.007413521937
0.8859703488
-0.004869649335
0.8881423828
0.882088664
-0.004383628554
0.9560203564
-0.0088354889
0.9559970582
-0.01341299838
0.9558200233
-0.009155187042
0.9555085098
-0.009031223084
-0.4751780366
0.4764497179
-0.01042686834
-0.4747117754
0.01174906744
0.4760641217
-0.01310141373
-0.4742818496
0.01449420894
0.4757124804
-0.008016726482
-0.007908113321
-0.2367741163
0.008758812015
0.237150678
-0.009135373755
-0.231470052
0.01187467774
0.2350507771
-0.01548435845
-0.2238225608
0.02521025721
0.2264529486
-0.02793898531
-0.2242661047
0.03437008911
0.2257451096
-0.03593858683
-0.211700127
0.03592050361
0.2116904829
-0.03593927679
-0.2340031279
0.03919493474
0.2335361315
-0.038679909
-0.2373595
0.03546306312
0.2358119546
-0.03381303065
-0.2350670502
0.02719168116
0.2324551993
-0.02448486311
-0.2261296878
0.01530726514
0.2240633542
-0.01323054105
-0.2234553395
0.01199759576
0.2230320852
-0.01157434149
0.01028485162
-0.2226962193
0.222261484
-0.009850116276
-0.444302745
0.01696933494
0.4426854121
-0.01535200205
-0.4438031818
0.01377628877
0.4422518191
-0.01222492608
-0.01554132786
0.8812839102
0.01043638978
0.01071340275
-0.01020667181
0.8806356928
-0.002246813977
0.880182525
0.8798418501
-0.004231144732
0.9602515012
-0.008512852868
0.9602787663
-0.012881318
0.9601884884
-0.008781591406
0.9600128585
-0.008604075276
-0.4776636585
0.4788501084
-0.009968041324
-0.4773546729
0.011188506
0.4785872476
-0.01242108066
-0.4770597342
0.01367273572
0.4783264604
-0.007533568965
-0.0074058929
-0.2381952965
0.008177768562
0.2385169725
-0.00849944452
-0.2373866438
0.009458304659
0.2377020303
-0.009773691204
-0.2357730586
0.01069489342
0.2363770504
-0.01130032028
-0.2313738428
0.01843626783
0.2334840313
-0.02056500841
-0.214384358
0.02289761153
0.2157231992
-0.02424372111
-0.2313584733
0.02535253841
0.2304884583
-0.02446628027
-0.2298028654
0.01963844681
0.2275739671
-0.01739113659
-0.2247052463
0.01268738693
0.2245044587
-0.01248659931
-0.223086512
0.0117552447
0.2228063053
-0.01147503797
-0.2219160729
0.01055363865
0.2215885244
-0.01022609019
0.009206163818
-0.2211081484
0.2207541987
-0.008852214045
-0.4411970881
0.01541645816
0.4398286008
-0.01404797089
-0.4408323416
0.0126874417
0.4394690373
-0.01132413746
-0.01452454489
0.8761825697
0.009650978034
0.009974907331
-0.009585676608
0.8756968245
-0.00475908934
0.8753559378
0.8750827607
-0.004034081438
0.9642855826
-0.008102029703
0.9643467146
-0.0122210943
0.964307553
-0.008316385893
0.9642139025
-0.008105752374
-0.4799749687
0.4810688551
-0.009410272284
-0.4797562601
0.0105240655
0.4808675082
-0.01163531362
-0.4795131152
0.01274793529
0.4806224043
-0.006988385678
-0.006868838727
-0.2394063481
0.007551717819
0.2396800142
-0.007825383958
-0.2385562358
0.008623931632
0.2388132845
-0.008880980378
-0.2371720961
0.009618780579
0.2374075611
-0.009854245616
-0.2351213684
0.01047745304
0.2351870248
-0.01054310949
-0.2186169918
0.01014815544
0.2192729141
-0.01080407776
-0.2294215277
0.01146203784
0.2294367388
-0.01147724895
-0.2265091998
0.01137055835
0.2264285065
-0.01128986501
-0.2239755603
0.01093023825
0.2238195555
-0.01077423352
-0.2220688287
0.01020992774
0.2218520685
-0.00999316757
-0.2207155923
0.009273232969
0.2204563892
-0.009014029902
0.008193845556
-0.2198184261
0.2195266714
-0.007902090819
-0.4385692561
0.01388672706
0.4374098214
-0.01272729236
-0.4382273619
0.01155580125
0.4370352319
-0.01036367126
-0.01340250575
0.8715911316
0.00882924237
0.00916470145
-0.008884668687
0.8711789874
-0.004422291622
0.8708935607
0.8706604691
-0.003808492802
0.9680940754
-0.007636211626
0.9681744334
-0.01148441966
0.9681557611
-0.007795933581
0.9680965851
-0.007571168674
-0.4821001786
0.483103057
-0.00879881194
-0.4819175281
0.009808399096
0.4829133558
-0.01080422675
-0.4816586318
0.01178898142
0.4826262226
-0.006429467758
-0.006327104509
-0.2404362654
0.006923452906
0.2406691919
-0.007156379368
-0.2395121485
0.007824080464
0.239723463
-0.008035394889
-0.2380382844
0.008634158783
0.2382262762
-0.008822150579
-0.2352718282
0.009270544655
0.2352690592
-0.009267775617
-0.2211219467
0.009028315623
0.2216942893
-0.009600658214
-0.2294494322
0.009980666218
0.2294444133
-0.009975647351
-0.2262008973
0.009857500254
0.2261289947
-0.009785597693
-0.2233992769
0.009484894101
0.2232726387
-0.009358255877
-0.2212718941
0.008905575279
0.2210985643
-0.008732245495
-0.2197581225
0.008154238859
0.2195485314
-0.007944647836
0.007274676233
-0.2187591762
0.218517941
-0.007033441096
-0.4363393826
0.01244750466
0.4353504068
-0.01145852885
-0.4359523885
0.0104480796
0.4349112435
-0.009406934661
-0.01225295222
0.8674828825
0.008015250777
0.008345950538
-0.008153220865
0.8670792561
-0.00406708076
0.8668074206
0.8665933883
-0.003567358204
0.9716614337
-0.007141701505
0.9717487767
-0.01071216402
0.9717262236
-0.007252435621
0.9716635963
-0.007026739656
-0.4840417891
0.4849561154
-0.008166761949
-0.483852382
0.009077782178
0.4847419056
-0.009967305799
-0.4835295551
0.01083743084
0.4843730527
-0.005883164605
-0.005797763807
-0.2413135949
0.006316753291
0.2415124971
-0.00651565545
-0.2403012118
0.007077774535
0.2404769167
-0.00725347945
-0.2387334135
0.007746821557
0.2388854957
-0.007898903756
-0.2351886178
0.008216748801
0.2351417926
-0.008169923648
-0.2232646132
0.008065374697
0.2237375827
-0.008538344198
-0.2294085984
0.008748142563
0.2293909816
-0.008730525774
-0.2259229366
0.008604624877
0.2258570949
-0.008538783112
-0.2229253193
0.008278700136
0.2228189624
-0.008172343193
-0.2206279648
0.007797680805
0.2204854811
-0.007655197188
-0.2189781896
0.007180061051
0.2188053298
-0.007007201229
0.006451037766
-0.2178808159
0.2176787689
-0.006248990729
-0.4344354132
0.01111979795
0.433588119
-0.01027250373
-0.4339664146
0.00939817201
0.4330562286
-0.008487986035
-0.01112579573
0.8638200737
0.007237971112
0.007550633411
-0.007426659527
0.8633801199
-0.003711613661
0.8630923747
0.8628817747
-0.003322334217
0.9749837679
-0.006641815613
0.9750682581
-0.009938949838
0.9750233578
-0.006711549977
0.9749284069
-0.006492210402
-0.4858072982
0.4866384693
-0.00754272109
-0.4855802784
0.008363447149
0.4863745381
-0.009157706873
-0.485160433
0.009927746278
0.4858978842
-0.005370806435
-0.005294390982
-0.2420640666
0.005749550217
0.2422347393
-0.005920222884
-0.2409604229
0.00639760423
0.2411084363
-0.006545617554
-0.2392978915
0.006958254003
0.2394220638
-0.007082426321
-0.2349553209
0.007301071399
0.2348807061
-0.00722645663
-0.2250057813
0.007234427777
0.2253795269
-0.007608173335
-0.2293251911
0.007712504681
0.2292997086
-0.007687022272
-0.2256668859
0.007557120923
0.2256057353
-0.007495970304
-0.2225232099
0.007265566091
0.2224315156
-0.007173871796
-0.2200939173
0.00685581445
0.2199740168
-0.006735913935
-0.2183305651
0.006337161023
0.218185404
-0.006192000014
0.00572318767
-0.2171425942
0.2169712189
-0.005551812351
-0.4328017548
0.009920399734
0.432071205
-0.009189849961
-0.432230108
0.00842976552
0.4314323753
-0.007632032797
-0.01005707066
0.8605590561
0.00651454852
0.006803539722
-0.006730882036
0.8600539313
-0.003369311558
0.8597308043
0.8595124631
-0.003081547901
0.9780653158
-0.006152608465
0.9781393187
-0.009187967359
0.9780587167
-0.006188811629
0.9779105353
-0.005981284146
-0.4874089136
0.4881634822
-0.006943380214
-0.4871233463
0.00768271642
0.4878332066
-0.008392576762
-0.4865890209
0.009075284262
0.4872372706
-0.004898210701
-0.004825323242
-0.2427092586
0.005228534397
0.2428566787
-0.005375954521
-0.2415184201
0.005785421477
0.2416448135
-0.00591181487
-0.2397597021
0.006261391657
0.2398616121
-0.00636330165
-0.2346298171
0.006505746956
0.2345393169
-0.006415246786
-0.2263637434
0.006510701914
0.2266490179
-0.006795976411
-0.2292150849
0.00683476243
0.229184625
-0.006804302507
-0.2254282963
0.006673036114
0.225371027
-0.006615766802
-0.2221739141
0.006408170936
0.2220932816
-0.00632753848
-0.2196412834
0.006052070707
0.2195384321
-0.005949219433
-0.2177835871
0.005608667543
0.2176597726
-0.005484852999
0.005084262709
-0.2165143742
0.2163673429
-0.004937231446
-0.4313908774
0.008849164472
0.4307566712
-0.008214958244
-0.4307077956
0.007550841814
0.4300063145
-0.006849360688
-0.00906638627
0.8576554851
0.005853952337
0.006116004903
-0.006080809802
0.8570683548
-0.003048058865
0.8566980533
0.8564644043
-0.00285123851
0.9809165543
-0.005686272465
0.9809743527
-0.00847642663
0.9808488709
-0.005695245119
0.9806331028
-0.005503749002
-0.4888607086
0.4895457111
-0.006380247665
-0.4885029634
0.007046919408
0.4891386419
-0.007682597903
-0.4878460605
0.008289492163
0.4884183833
-0.004464048768
-0.004397766158
-0.2432679859
0.004753802881
0.2433963219
-0.004882138856
-0.2419970932
0.005237082537
0.2421064071
-0.005346396391
-0.240139045
0.00564546301
0.2402228884
-0.00572930636
-0.2342549594
0.005813028356
0.2341574115
-0.005715480487
-0.2273899532
0.005874368968
0.2276021041
-0.006086519909
-0.2290881104
0.006083896555
0.2290545243
-0.00605031052
-0.2252044233
0.005919477944
0.2251505119
-0.005865566627
-0.2218650567
0.005676280505
0.2217931027
-0.005604326492
-0.219250823
0.005362039363
0.2191612447
-0.005272461075
-0.217314846
0.00497745134
0.2172078641
-0.004870469493
0.004524221834
-0.2159738199
0.2158464444
-0.0043968463
-0.4301640193
0.007901233028
0.4296096603
-0.007346874074
-0.4293683747
0.006763502954
0.4287491181
-0.006144246419
-0.008164826095
0.8550665837
0.005260188198
0.005493539271
-0.005485530635
0.8543890593
-0.002752821056
0.8539653438
0.8537115832
-0.002635152938
0.9835517073
-0.005249975598
0.9835891753
-0.007813999254
0.9834128945
-0.00523780952
0.9831202727