/*--------------------------------*- C++ -*----------------------------------*\
| =========                 |                                                 |
| \\      /  F ield         | OpenFOAM: The Open Source CFD Toolbox           |
|  \\    /   O peration     | Version:  v1912                                 |
|   \\  /    A nd           | Website:  www.openfoam.com                      |
|    \\/     M anipulation  |                                                 |
\*---------------------------------------------------------------------------*/
FoamFile
{
    version     2.0;
    format      ascii;
    class       surfaceScalarField;
    location    "2.39";
    object      meshPhi;
}
// * * * * * * * * * * * * * * * * * * * * * * * * * * * * * * * * * * * * * //

dimensions      [0 3 -1 0 0 0 0];
oriented        oriented;


internalField   nonuniform List<scalar> 
25162
(
0
0
0
0
0
0
0
0
0
0
0
0
0
0
0
0
0
0
0
0
0
0
0
0
0
0
0
0
0
0
0
0
0
0
0
0
0
0
0
0
0
0
0
0
0
0
0
0
0
0
0
0
0
0
0
0
0
0
0
0
0
0
0
0
0
0
0
0
0
0
0
0
0
0
0
0
0
0
0
0
0
0
0
0
0
0
0
0
0
0
0
0
0
0
0
0
0
0
0
0
0
0
0
0
-9.15877088e-10
7.253730719e-08
-8.123005006e-07
0
2.861101224e-09
6.905803315e-07
0
0
0
0
0
0
0
0
0
0
0
0
0
0
0
0
0
0
0
0
0
0
0
0
0
0
0
0
0
0
0
0
0
0
0
0
0
0
0
0
0
0
0
0
0
0
0
0
0
0
0
0
0
0
0
0
0
0
0
0
0
0
0
0
0
0
4.47947967e-09
-1.155082325e-06
-3.51000892e-07
7.295960537e-06
1.274295571e-06
-6.443461058e-05
-2.749847244e-06
9.110956406e-05
2.347417864e-06
-0.0001691362592
-4.787730721e-06
0.0001896067971
7.836316588e-07
-0.0002201052478
-2.488251436e-06
0.0002180512664
-2.077973912e-06
-0.0001756246423
3.285141422e-06
0.000151512662
-1.18943535e-06
-6.77765859e-05
3.478325294e-06
4.225233561e-05
0
-1.247232988e-06
6.494471736e-08
0
0
0
0
0
0
0
0
0
0
0
0
0
0
0
0
0
0
0
0
0
0
0
0
0
0
0
0
0
0
0
0
0
0
0
0
0
0
0
0
0
0
0
0
0
0
0
0
0
0
0
2.001208982e-07
-2.387208533e-06
-8.108047905e-07
1.701167582e-05
3.49521253e-06
-0.0001472181953
-4.290796979e-06
0.00021008825
1.09508804e-05
-0.0004198187501
-1.558232625e-05
0.0004888245177
2.224615239e-05
-0.0006652714947
-3.231690459e-05
0.0007086564399
1.8555703e-05
-0.0007770603163
-2.841090942e-05
0.0007770511185
-2.765757228e-06
-0.000705209993
-1.979694094e-07
0.0006581971052
-1.681143509e-05
-0.0004624405676
2.237124201e-05
0.0003855937386
-7.32358603e-06
-0.0001612282695
1.330342658e-05
0.0001000703156
0
-2.433705606e-06
1.460331372e-07
0
0
0
0
0
0
0
0
0
0
0
0
0
0
0
0
0
0
0
0
0
0
0
0
0
0
0
0
0
0
0
0
0
0
0
0
0
0
0
0
0
0
0
0
0
-6.866696036e-08
8.71591212e-07
2.325827074e-06
-0.000104894612
-9.226637048e-07
0.0001791648851
5.502135442e-06
-0.0004724084395
-6.042566676e-06
0.0005820778361
3.759457355e-05
-0.000902611859
-4.753070123e-05
0.0009976006996
7.282845811e-05
-0.001220331288
-8.76622228e-05
0.001270679633
6.770342434e-05
-0.001348348194
-8.138553509e-05
0.001350440088
2.002372683e-05
-0.00128234579
-2.967618492e-05
0.00123255989
-3.595997986e-05
-0.000995849723
3.804083411e-05
0.0008905980321
-3.150222869e-05
-0.0005484582796
4.104878755e-05
0.0004328104015
-8.082800915e-06
-0.0001297835484
1.399027705e-05
6.425476404e-05
0
0
0
0
0
0
0
0
0
0
0
0
0
0
0
0
0
0
0
0
0
0
0
0
0
0
0
0
0
0
0
0
0
0
0
0
0
0
0
0
0
0
1.347540214e-06
-1.201823207e-05
-1.74941491e-06
5.163495247e-05
-2.674509811e-06
-0.0003086266913
5.007740304e-06
0.0004275225596
3.020342271e-06
-0.0008384089085
-1.187985393e-05
0.0009786872603
8.231531053e-05
-0.00132153917
-8.276361507e-05
0.001397377902
0.0001241060531
-0.00155848303
-0.0001301816931
0.001581834417
0.0001101139466
-0.001604330871
-0.0001128518233
0.001604811607
6.556689153e-05
-0.00159054831
-7.580714222e-05
0.001567204811
-5.670492553e-07
-0.001430559029
-4.342197629e-06
0.001333384344
-8.397672196e-05
-0.0009358618047
9.251990031e-05
0.0007895682604
-3.916207431e-05
-0.0003592278288
4.857133354e-05
0.0002389316626
-1.609742904e-05
-5.687748258e-07
1.079259587e-06
2.43777916e-07
0
0
0
0
0
0
0
0
0
0
0
0
0
0
0
0
0
0
0
0
0
0
0
0
0
0
0
0
0
0
0
0
0
0
0
-6.091664156e-08
8.610631695e-09
3.237673279e-07
1.979459531e-06
-5.809364991e-05
-1.694637713e-06
0.0001302761492
-1.699714869e-05
-0.0004766878337
1.328153635e-05
0.0006324080299
3.049618111e-05
-0.001083044338
-3.362667476e-05
0.001217744348
0.000112322581
-0.00152358809
-0.000132963062
0.001588728929
0.0001150635131
-0.001644795139
-2.27600616e-05
-5.808904169e-05
0.0007975704058
0.000813010323
-0.00079377896
5.740543218e-05
-5.764288698e-05
0.0007940164148
-0.0008164000867
0.0001239536791
0.001636686817
-0.0008276074265
-4.924671892e-05
-6.738626369e-05
-0.001556679906
-3.25139531e-06
-6.344298638e-06
0.001499325362
-0.0001042205916
-0.001179239392
0.0001023883071
0.001035902542
-7.482276104e-05
-0.0005565174642
8.463210119e-05
0.0004085056322
-8.115493225e-05
-6.506817135e-06
8.920235138e-06
2.565969885e-05
0
0
0
0
0
0
0
0
0
0
0
0
0
0
0
0
0
0
0
0
0
0
0
0
0
0
0
0
0
0
0
0
0
2.555532654e-07
0
-5.509601157e-07
2.905302505e-06
4.387483578e-06
6.650845151e-07
-9.450945623e-05
-5.029180773e-07
0.0001847476618
-1.706704745e-05
-0.000584533226
1.754250086e-05
0.0007424085017
4.5303407e-05
-0.001200685717
-4.768269889e-05
0.001328635547
0.0001559424603
-0.001567324198
-0.0001603080186
0.001586542383
6.841093919e-05
-0.0008048737102
-6.716777048e-05
0.0008036305415
-0.000797771874
4.598509108e-05
-4.474329333e-05
0.0007965300762
-0.0015746825
2.712285675e-05
-3.177832077e-05
0.001544673141
-0.0001111163576
-0.001276153945
0.0001109451
0.001139286005
-0.0001038101036
-0.0006640681719
0.0001060303791
0.0005072963079
-0.0001382147964
-1.511242844e-05
1.79699082e-05
6.042800716e-05
0
0
0
0
0
0
0
0
0
0
0
0
0
0
0
0
0
0
0
0
0
0
0
0
0
0
0
0
0
0
0
0
0
7.21511343e-07
0
-9.049166788e-07
7.66821598e-06
8.565514134e-06
-2.328761672e-07
-0.0001142149308
4.173580077e-07
0.000210286136
-1.822072994e-05
-0.0006185898004
1.838934799e-05
0.0007758523583
5.351191371e-05
-0.001221443168
-5.45156303e-05
0.001340570171
0.0001659404839
-0.001541140643
-0.0001666570891
0.00154819315
7.150651361e-05
-0.0007753987958
-7.149664357e-05
0.0007753889257
-0.0007799395921
4.219693143e-05
-4.179292973e-05
0.0007795355904
-0.001554385837
3.780866161e-05
-3.88149523e-05
0.001536411956
-0.000107030428
-0.001304280264
0.0001059006944
0.001177075179
-0.0001164527526
-0.0007172573191
0.0001181718848
0.0005596116238
-0.0001663922027
-2.181206053e-05
2.307930432e-05
8.081928981e-05
0
0
0
0
0
0
0
0
0
0
0
0
0
0
0
0
0
0
0
0
0
0
0
0
0
0
0
0
0
0
0
0
0
1.073310698e-06
0
-1.298245978e-06
1.122899658e-05
1.239553369e-05
-8.988788133e-07
-0.0001251402818
1.103269071e-06
0.0002233319831
-1.898076932e-05
-0.0006309888631
1.916872147e-05
0.0007856993847
5.663059747e-05
-0.001218031868
-5.75728501e-05
0.001331462658
0.0001680656093
-0.001514316156
-0.0001684779087
0.001518178015
7.147491781e-05
-0.0007594250664
-7.12138281e-05
0.0003796257516
0.000379538225
-0.0007637043702
4.073721849e-05
-4.049106692e-05
0.0007634582186
-0.001521824876
3.702214685e-05
-3.56372237e-05
0.001500677876
-0.0001054759293
-0.00126434106
0.0001052359741
0.001138407098
-0.0001166552786
-0.0006895873061
0.0001155951903
0.0005374523706
-0.0001593697015
-2.224098573e-05
2.183543557e-05
7.712846765e-05
0
0
0
0
0
0
0
0
0
0
0
0
0
0
0
0
0
0
0
0
0
0
0
0
0
0
0
0
0
0
0
0
0
1.537883403e-06
0
-1.801708536e-06
1.619459626e-05
1.75955559e-05
-1.773005354e-06
-0.0001384860023
2.019251728e-06
0.0002392740694
-1.968905577e-05
-0.0006473501749
1.985724117e-05
0.000799742798
6.055280424e-05
-0.001219188932
-6.162093372e-05
0.001326886656
0.0001697426957
-0.001491534808
-0.0001700769264
0.001493114354
7.120420036e-05
-0.000747168568
-7.111372887e-05
0.0003737059191
0.0003733721774
-0.0007494326124
3.992990501e-05
-3.97258393e-05
0.0007492285467
-0.001488119252
2.744069672e-05
-2.355302294e-05
0.00145122457
-0.0001070404139
-0.001175200147
0.0001015392371
0.001053806607
-0.0001062596117
-0.0006130015079
0.000102883484
0.0004687134841
-0.0001230755328
-1.645726861e-05
1.521584618e-05
5.296724613e-05
0
0
0
0
0
0
0
0
0
0
0
0
0
0
0
0
0
0
0
0
0
0
0
0
0
0
0
0
0
0
0
0
0
2.098142485e-06
0
-2.202660108e-06
2.261469737e-05
2.32373491e-05
-2.857630697e-06
-0.0001535073957
3.197703634e-06
0.0002568055245
-2.029796506e-05
-0.0006643769429
2.042365831e-05
0.0008140305033
6.520046938e-05
-0.001219321935
-6.665891674e-05
0.001320978756
0.0001708608535
-0.001466645705
-0.0001709079332
0.001466796452
7.080350009e-05
-0.0007341595505
-7.078451698e-05
0.0003671354503
0.000367005117
-0.0007338294282
3.921571458e-05
-3.922285533e-05
0.000733836569
-0.001434420794
1.237900631e-05
-7.801856688e-06
0.00137671126
-0.0001011035179
-0.001073396189
0.0001079975945
0.0009345837305
-8.887035897e-05
-0.0005012820826
8.265877444e-05
0.0003685963902
-7.787045232e-05
-9.35895158e-06
7.733471512e-06
2.548386898e-05
0
0
0
0
0
0
0
0
0
0
0
0
0
0
0
0
0
0
0
0
0
0
0
0
0
0
0
0
0
0
0
0
0
2.82883302e-06
0
-3.063022269e-06
3.361949365e-05
3.808625685e-05
-3.865925584e-06
-0.0001739654178
4.997927606e-06
0.0002781009281
-2.066858477e-05
-0.0006871464373
1.936469185e-05
0.000834035008
7.190198301e-05
-0.001225311597
-6.901668753e-05
0.001317503874
0.000171168701
-0.001440449967
-0.0001707797656
0.0007208870117
0.00071917402
3.557575928e-05
-0.0003603234741
-3.54774821e-05
0.0003602251969
2.362067205e-05
-0.0001793468305
-2.332331917e-05
0.0003584192388
-0.0001793697612
-0.0007175129632
3.945804782e-05
-7.785875679e-05
0.001434114174
-0.0007156823477
3.748184595e-05
-2.568694954e-06
-0.001352321041
1.112008278e-05
0.001268693626
-0.0001050810903
-0.0009309079403
0.0001018924452
0.0007945332503
-6.543192036e-05
-0.0003858933523
6.019518468e-05
0.0002675870727
-3.070506955e-05
-2.659099225e-06
1.99560014e-06
3.042738884e-06
0
0
0
0
0
0
0
0
0
0
0
0
0
0
0
0
0
0
0
0
0
0
0
0
0
0
0
0
0
0
0
0
0
3.755005869e-06
0
-3.317081241e-06
4.396073202e-05
3.999927029e-05
-6.722759432e-06
-0.0001985344355
6.109787805e-06
0.0003105892801
-1.986961576e-05
-0.0007269527011
1.980470286e-05
0.0008723624223
8.186380737e-05
-0.001241910607
-7.822882331e-05
0.001325351809
0.0001711479383
-0.001414431523
-0.0001711479383
0.0007081928099
0.0007062387133
3.610613412e-05
-0.0007081928099
-7.175166256e-05
3.564552843e-05
0.0003541352254
0.0003540575844
5.701367514e-05
-0.0003541352739
-5.701360249e-05
0.0007081928099
-0.0003540576087
-0.001414431523
8.230789206e-05
-8.081804761e-05
0.001409778127
-2.185797974e-05
-0.001238959434
2.381338821e-05
0.001143072385
-8.858153105e-05
-0.0007683956718
9.073819794e-05
0.0006303640614
-4.174337466e-05
-0.0002559518856
3.373406971e-05
0.0001649320688
-4.061485332e-06
-3.108554674e-07
1.351915189e-07
0
0
0
0
0
0
0
0
0
0
0
0
0
0
0
0
0
0
0
0
0
0
0
0
0
0
0
0
0
0
0
0
0
0
2.321310512e-06
0
-9.533178513e-07
1.960113659e-05
1.216583953e-05
-2.189175433e-06
-0.0001390624129
6.469619309e-07
0.0002352767794
-1.717375954e-05
-0.0006196851122
1.522311511e-05
0.0007608283633
5.669540072e-05
-0.00113846958
-4.797803359e-05
0.001232309756
0.0001575514501
-0.001382500889
-0.0001443632747
0.001391256656
7.175166254e-05
-0.001388741601
-0.0001416639128
0.001388741601
6.991225031e-05
0.000112184412
-0.001388741601
-0.000112184412
0.001388741601
7.045489503e-05
-0.001361160958
-6.453492444e-05
0.00131993671
-3.582080548e-05
-0.001078917656
3.798761133e-05
0.0009665493001
-7.675681859e-05
-0.0005854044865
7.046736169e-05
0.0004585534937
-1.854351829e-05
-0.000141484316
1.534158258e-05
7.389463893e-05
0
0
0
0
0
0
0
0
0
0
0
0
0
0
0
0
0
0
0
0
0
0
0
0
0
0
0
0
0
0
0
0
0
0
0
0
0
2.471818396e-08
0
0
1.038543697e-07
0
2.352130241e-06
-4.559680107e-05
-2.420196038e-06
0.0001033240361
-6.612766288e-06
-0.000388124646
3.464107205e-06
0.0005066241658
2.53839474e-05
-0.0008634285248
-2.014740026e-05
0.0009675352103
9.961875266e-05
-0.001195643039
-8.457956284e-05
0.001241741103
0.0001274556513
-0.001308308069
-0.0001156201133
0.001313110997
0.0001039806986
-0.001288100325
-9.45380348e-05
0.001264192978
4.027550747e-05
-0.001126057297
-3.096530551e-05
0.001055387242
-4.047682854e-05
-0.0007802079867
3.914633277e-05
0.0006745467794
-4.661977129e-05
-0.0003562223432
3.786626093e-05
0.0002603310874
-5.194435233e-06
-4.849344002e-05
2.811672824e-06
1.340392629e-05
0
0
0
0
0
0
0
0
0
0
0
0
0
0
0
0
0
0
0
0
0
0
0
0
0
0
0
0
0
0
0
0
0
0
0
0
0
0
0
0
0
0
5.637090351e-07
-9.82942269e-08
-1.087753938e-07
7.45626418e-06
2.996498674e-06
-0.0001321542501
-3.499269981e-06
0.0002025624058
1.120933063e-05
-0.0004557743661
-9.637913685e-06
0.0005420885153
4.516978731e-05
-0.0007637679999
-3.485471863e-05
0.0008186546444
7.01687931e-05
-0.0009148971195
-5.492441889e-05
0.0009241286955
5.462366772e-05
-0.0008867521487
-4.101297091e-05
0.0008536159936
6.380095277e-06
-0.0006992210189
-9.25329589e-07
0.0006325654225
-2.805931689e-05
-0.0004078756966
2.270395298e-05
0.000331165067
-1.429491931e-05
-0.0001261596845
8.553688085e-06
7.408266488e-05
-2.860560091e-08
-3.260162351e-07
0
0
0
0
0
0
0
0
0
0
0
0
0
0
0
0
0
0
0
0
0
0
0
0
0
0
0
0
0
0
0
0
0
0
0
0
0
0
0
0
0
0
0
0
0
0
0
0
1.014099831e-06
-3.200530098e-06
-1.950499702e-07
1.496682433e-05
5.32981248e-06
-0.00010571339
-3.650000512e-06
0.0001475374671
1.325427457e-05
-0.0002756912121
-8.794145624e-06
0.0003124993495
1.951806483e-05
-0.0003850867262
-1.219435673e-05
0.0003941756319
1.109526014e-05
-0.0003742864306
-5.761033418e-06
0.0003532171316
-4.947821672e-06
-0.0002577929424
4.235886057e-06
0.0002190192544
-7.245588494e-06
-0.0001013141681
3.671479522e-06
6.698528646e-05
-2.914085446e-07
-3.924706523e-06
7.333344568e-10
4.247282121e-08
0
0
0
0
0
0
0
0
0
0
0
0
0
0
0
0
0
0
0
0
0
0
0
0
0
0
0
0
0
0
0
0
0
0
0
0
0
0
0
0
0
0
0
0
0
0
0
0
0
0
0
0
0
0
3.182969096e-08
0
0
5.075526287e-07
1.172357679e-06
-1.399183137e-05
-1.968458484e-07
2.168816855e-05
1.553163285e-06
-4.213526036e-05
-4.658222811e-07
4.565686562e-05
1.316119688e-07
-4.211435448e-05
9.062384969e-09
3.665417655e-05
-5.446349689e-07
-1.453685486e-05
4.322365712e-08
8.023809759e-06
0
0
0
0
0
0
0
0
0
0
0
0
0
0
0
0
0
0
0
0
0
0
0
0
0
0
0
0
0
0
0
0
0
0
0
0
0
0
0
0
0
0
0
0
0
0
0
0
0
0
0
0
0
0
0
0
0
0
0
0
0
0
0
0
0
0
0
0
0
0
0
0
0
0
0
0
0
0
0
0
0
0
0
0
0
0
0
0
0
0
0
0
0
0
0
0
0
0
0
0
0
0
0
0
0
0
0
0
0
0
0
0
0
0
0
0
0
0
0
0
0
0
0
0
0
0
0
0
0
0
0
0
0
0
0
0
0
0
0
0
0
0
0
0
0
0
0
0
0
0
0
0
0
0
0
0
0
0
0
0
0
0
0
0
0
0
0
0
0
0
0
0
0
0
0
0
0
0
0
0
0
0
0
0
0
0
0
0
0
0
0
0
0
0
0
0
0
0
0
0
0
0
0
0
0
0
0
0
0
0
0
0
0
0
0
0
0
0
0
0
0
0
0
0
0
0
0
0
0
0
0
0
0
0
0
0
0
0
0
0
0
0
0
0
0
0
0
0
0
0
0
0
0
0
0
0
0
0
0
0
0
0
0
0
0
0
0
0
0
0
0
0
0
0
0
0
0
0
0
0
0
0
0
0
0
0
0
0
0
0
0
0
0
0
0
0
0
0
0
0
0
0
0
0
0
0
0
0
0
0
0
0
0
0
0
0
0
0
0
0
0
0
0
0
0
0
0
0
0
0
0
0
0
0
0
0
0
0
0
0
0
0
0
0
0
0
0
0
0
0
0
0
0
0
0
0
0
0
0
0
0
0
0
0
0
0
0
0
0
0
0
0
0
0
0
0
0
0
0
0
0
0
0
0
0
0
0
0
0
0
0
0
0
0
0
0
0
0
0
0
0
0
0
0
0
0
0
0
0
0
0
0
0
0
0
0
0
0
0
0
0
0
0
0
0
0
0
0
0
0
0
0
0
0
0
0
0
0
0
0
0
0
0
0
0
0
0
0
0
0
0
0
0
0
0
0
0
0
0
0
0
0
0
0
0
0
0
0
0
0
0
0
0
0
0
0
0
0
0
0
0
0
0
0
0
0
0
0
0
0
0
0
0
0
0
0
0
0
0
0
0
0
0
0
0
0
0
0
0
0
0
0
0
0
0
0
0
0
0
0
0
0
0
0
0
0
0
0
0
0
0
0
0
0
0
0
0
0
0
0
0
0
0
0
0
0
0
0
0
0
0
0
0
0
0
0
0
0
0
0
0
0
0
0
0
0
0
0
0
0
0
0
0
0
0
0
0
0
0
0
0
0
0
0
0
0
0
0
0
0
0
0
0
0
0
0
0
0
0
0
0
0
0
0
0
0
0
0
0
0
0
0
0
0
0
0
0
0
0
0
0
0
0
0
0
0
0
0
0
0
0
0
0
0
0
0
0
0
0
0
0
0
0
0
0
0
0
0
0
0
0
0
0
0
0
0
0
0
0
0
0
0
0
0
0
0
0
0
0
0
0
0
0
0
0
0
0
0
0
0
0
0
0
0
0
0
0
0
0
0
0
0
0
0
0
0
0
0
0
0
0
0
0
0
0
0
0
0
0
0
0
0
0
0
0
0
0
0
0
0
0
0
0
0
0
0
0
0
0
0
0
0
0
0
0
0
0
0
0
0
0
0
0
0
0
0
0
0
0
0
0
0
0
0
0
0
0
0
0
0
0
0
0
0
0
0
0
0
0
0
0
0
0
0
0
0
0
0
0
0
0
0
0
0
0
0
0
0
0
0
0
0
0
0
0
0
0
0
0
0
0
0
0
0
0
0
0
0
0
0
0
0
0
0
0
0
0
0
0
0
0
0
0
0
0
0
0
0
0
0
0
0
0
0
0
0
0
0
0
0
0
0
0
0
0
0
0
0
0
0
0
0
0
0
0
0
0
0
0
0
0
0
0
0
0
0
0
0
0
0
0
0
0
0
0
0
0
0
0
0
0
0
0
0
0
0
0
0
0
0
0
0
0
0
0
0
0
0
0
0
0
0
0
0
0
0
0
0
0
0
0
0
0
0
0
0
0
0
0
0
0
0
0
0
0
0
0
0
0
0
0
0
0
0
0
0
0
0
0
0
0
0
0
0
0
0
0
0
0
0
0
0
0
0
0
0
0
0
0
0
0
0
0
0
0
0
0
0
0
0
0
0
0
0
0
0
0
0
0
0
0
0
0
0
0
0
0
0
0
0
0
0
0
0
0
0
0
0
0
0
0
0
0
0
0
0
0
0
0
0
0
0
0
0
0
0
0
0
0
0
0
0
0
0
0
0
0
0
0
0
0
0
0
0
0
0
0
0
0
0
0
0
0
0
0
0
0
0
0
0
0
0
0
0
0
0
0
0
0
0
0
0
0
0
0
0
0
0
0
0
0
0
0
0
0
0
0
0
0
0
0
0
0
0
0
0
0
0
0
0
0
0
0
0
0
0
0
0
0
0
0
0
0
0
0
0
0
0
0
0
0
0
0
0
0
0
0
0
0
0
0
0
0
0
0
0
0
0
0
0
0
0
0
0
0
0
0
0
0
0
0
0
0
0
0
0
0
0
0
0
0
0
0
0
0
0
0
0
0
0
0
0
0
0
0
0
0
0
0
0
0
0
0
0
0
0
0
0
0
0
0
0
0
0
0
0
0
0
0
0
0
0
0
0
0
0
0
0
0
0
0
0
0
0
0
0
0
0
0
0
0
0
0
0
0
0
0
0
0
0
0
0
0
0
0
0
0
0
0
0
0
0
0
0
0
0
0
0
0
0
0
0
0
0
0
0
0
0
0
0
0
0
0
0
0
0
0
0
0
0
0
0
0
0
0
0
0
0
0
0
0
0
0
0
0
0
0
0
0
0
0
0
0
0
0
0
0
0
0
0
0
0
0
0
0
0
0
0
0
0
0
0
0
0
0
0
0
0
0
0
0
0
0
0
0
0
0
0
0
0
0
0
0
0
0
0
0
0
0
0
0
0
0
0
0
0
0
0
0
0
0
0
0
0
0
0
0
0
0
0
0
0
0
0
0
0
0
0
0
0
0
0
0
0
0
0
0
0
0
0
0
0
0
0
0
0
0
0
0
0
0
0
0
0
0
0
0
0
0
0
0
0
0
0
0
0
0
0
0
0
0
0
0
0
0
0
0
0
0
0
0
0
0
0
0
0
0
0
0
-0.0007782068496
0.0007782334089
7.147995428e-05
-4.500449999e-05
0.0007803763373
4.545123202e-05
-0.0003908768405
-0.0003899462288
5.257866127e-05
-0.0008011954957
-4.915503954e-05
-0.0007610828646
7.166621524e-05
0.0003808608256
0.0003800307415
-4.21628392e-05
0.0007662746784
4.251829356e-05
-0.0003830531623
-0.0003835769705
-4.369107181e-05
-0.0003904709661
-0.0003907820541
-0.0007487179297
7.132651974e-05
0.0003745878419
0.0003740077685
-4.168072816e-05
0.0007504202049
4.115341621e-05
-0.0003745984781
-0.0003752944148
-4.191890452e-05
-0.0003812754402
-0.0003826728646
-0.0007355729621
7.095919251e-05
0.0003679442041
0.0003674730655
-4.03331497e-05
0.0007351482557
4.076567798e-05
-0.0007355807839
-0.0007497375111
-4.137582949e-05
-0.0003610676329
0.0003610698142
3.557357797e-05
0.0001798256504
-1.207639806e-05
1.213537029e-05
-0.0001798846226
-0.0001799164001
0.0003593516516
2.401107098e-05
-4.068060841e-05
0.0007199611625
4.056595622e-05
-0.0007198465104
-0.0007339045701
-4.025800778e-05
-0.0003548711104
0.0003548711104
3.610613412e-05
0.000354871245
-2.919804889e-05
2.919842788e-05
-0.000354871624
-0.0001795716055
-1.185162303e-05
0.0007098191064
-0.0003229614377
1.002646915e-05
1.500078234e-05
-7.713717667e-05
0.001404485479
-0.0007077248675
-0.0007052332463
4.409326639e-05
4.151654538e-05
-0.0007173727991
-4.082077244e-05
-0.0008063621207
0.0008060514198
6.872164e-05
5.849759018e-05
-0.0007939437589
-5.833279129e-05
0.0008033274475
5.137911424e-05
-0.0008021279005
5.897745858e-05
-0.0008104232956
-6.495424969e-05
-1.257199448e-05
0.0001990336044
1.267253575e-05
-0.0001991341457
0.0004052754276
3.112011991e-05
-0.000406433127
-2.996242051e-05
0.0007800713261
4.250194265e-05
-6.027535809e-05
0.00155837337
6.218611177e-05
-0.001560691381
6.314967865e-05
-0.001583244699
-6.050818311e-05
-0.001520313079
0.001524805734
0.0001676785788
-7.33020887e-05
7.334897449e-05
-0.0007611297504
7.335088436e-05
-0.0007753341114
-7.341556872e-05
-1.405325191e-05
0.0001932908258
1.39141221e-05
-0.000193151696
1.221508209e-05
0.0001954426471
-0.0001953297088
-1.232802047e-05
0.00076609977
4.091212686e-05
-5.814287307e-05
0.00153171918
5.873344643e-05
-0.001532397259
-0.001555230549
-5.956780605e-05
-0.001497650898
0.001499704976
0.0001693830569
-7.312176613e-05
7.316876666e-05
-0.0007487649303
-0.0007594750778
-7.325207729e-05
-7.123635908e-05
-0.0007555113194
7.129174891e-05
0.000377862641
0.0003775932885
-3.272598219e-05
0.0001888043444
3.261831242e-05
-0.0003776183033
0.0001889216287
3.271684744e-05
0.0001895626965
-0.0003794567534
-3.255263843e-05
0.000189729848
-1.20175959e-05
0.0001897092886
1.208789238e-05
-0.0001897795851
1.307956939e-05
0.0001912069218
-0.0001908195184
-1.346697283e-05
0.0007505212386
3.982887131e-05
-5.373313944e-05
0.001496340431
5.563275725e-05
-0.001501206308
-0.00152277941
-5.74658386e-05
-0.00147258017
0.001473095675
0.0001706658845
-7.28715237e-05
7.291912196e-05
-0.0007356205603
-0.0007471841825
-7.310615162e-05
-7.126273097e-05
-0.0007423484385
7.114352707e-05
0.0003714872529
0.0003709803896
-1.635735096e-05
0.000185314677
1.643966561e-05
-0.0001853969917
3.227581701e-05
0.0001868145912
-0.0003736717632
-3.228479112e-05
0.0001868661461
-2.3327352e-05
0.0003710859722
2.345233235e-05
-0.0003712109526
2.393910775e-05
0.0003749737252
-2.314326841e-05
-0.0001880221753
-0.0001877473893
-0.001447146106
0.0001709503974
0.000724487708
0.0007228767011
-7.265639429e-05
0.0003617825054
7.272201343e-05
-0.0007229157574
-0.0007342038807
-7.282719344e-05
-3.561426184e-05
-0.0003646552868
0.000364684999
3.55845496e-05
-1.792566632e-05
0.0001828537788
1.760829288e-05
-0.0001825364054
1.719478649e-05
0.000183098994
-0.0001832773202
-1.701646031e-05
-0.000183507563
-1.308471067e-05
0.0001828962445
1.369602921e-05
-2.28637131e-05
0.0003639837074
2.274049019e-05
-0.0003638604845
2.317204261e-05
0.0003671178957
-0.0003671016563
-2.318828195e-05
-0.001415113285
0.0001733176413
0.0007031244755
0.0007098191064
-7.359733699e-05
0.000354947996
7.359733696e-05
-0.0007098191064
0.0003606081721
-0.0007209219792
-7.266606135e-05
-3.559306826e-05
-0.000357791705
0.0003577582139
3.562655936e-05
-1.651941354e-05
0.0001767074159
1.729954356e-05
-0.0001774875459
1.841293248e-05
0.0001787311877
-0.0001791841031
-1.796001713e-05
-0.0006968102454
0.0006968102454
7.175166256e-05
0.0006968102454
-5.885612732e-05
5.885612734e-05
-0.0006968102454
-0.0003541354823
-2.919784049e-05
3.228471607e-05
-0.0003929404029
-3.198841286e-05
0.0001961473533
0.0001964967464
-3.269285086e-05
-0.0003886093029
3.257727674e-05
0.0001947260009
0.0001939988761
-0.0004052386949
2.4809589e-05
-2.400527115e-05
0.000404434377
-0.0003944452494
0.0003947499942
3.197997126e-05
0.0001956821234
1.210580405e-05
-0.0001955728454
0.0001983534163
-0.0001985259931
-1.239941763e-05
4.687466455e-05
0.0007887779633
-4.600513189e-05
-0.0003953319964
-0.0003943154995
2.657167961e-05
-0.000197696965
-2.585545521e-05
0.0003953341569
-1.225086743e-05
0.0001957396424
1.219334847e-05
0.0001895785116
3.291098673e-05
-0.0003798614414
0.0001900887905
0.0003833329116
3.270671343e-05
-0.0003833771309
-3.266249412e-05
7.156335474e-05
-0.0007668649231
-7.151704424e-05
0.0007668186126
3.226594768e-05
-3.198123446e-05
0.0001916059471
0.0001914422514
-1.632524823e-05
0.0001895697677
1.633399211e-05
-0.0003876683157
-3.250808303e-05
0.0001937893964
0.0001936941514
-0.0003841171402
3.223546798e-05
0.0001922374662
0.0001919101537
0.0001909831334
1.265393331e-05
-0.0001905574973
0.0001937465408
-0.0001934805043
-1.431928845e-05
2.136069362e-05
0.0003868192235
-0.000386893683
-2.128623409e-05
1.364015243e-05
-1.371500208e-05
0.0001938213905
-1.264495733e-05
0.0001912300577
1.239803298e-05
-1.229882269e-05
0.0001954906024
0.0001934172009
1.351377735e-05
0.0003867030267
2.136215089e-05
-0.0003867044839
0.0001868204479
3.246923475e-05
-0.0003738517513
0.0001868378856
0.0001889111761
-0.0003775003949
-3.290610625e-05
0.0001887693429
-0.0007541678378
-7.13971063e-05
0.0003774378631
0.000376890722
1.663336108e-05
-1.66962842e-05
0.0001889740992
-1.586033427e-05
0.0001867390413
1.594174088e-05
-1.6266493e-05
0.0001895039412
0.0001889969418
1.644076362e-05
0.0003749063284
2.38506475e-05
-0.0001873570261
-0.0001874608421
0.000189533842
-0.0001894837641
-1.20676738e-05
4.10640773e-05
0.0007556258601
-4.120540893e-05
-0.0003772384204
-0.000378246108
2.375464035e-05
-0.0001888838507
-2.34664659e-05
0.0003781295182
-2.343257882e-05
0.0003748675056
2.347140166e-05
-1.288757717e-05
0.0001914495417
-0.0001895405427
0.0003789087049
1.199504903e-05
1.21007177e-05
0.0007576367589
4.170374533e-05
-0.0003788562746
-0.0003794201523
0.000183233265
1.73204194e-05
-0.0001833588979
0.0001851789515
-0.0001852323154
-1.630398703e-05
-0.0007401825989
-7.100305216e-05
0.0003703331289
0.0003695897911
1.649785985e-05
-1.62978943e-05
0.000184978986
-1.777556485e-05
0.0001829734144
1.803541539e-05
-1.583662461e-05
0.0001867908815
0.0001851841058
1.662843105e-05
0.0003677768558
2.318541084e-05
-0.0003677902241
0.0003709246916
-0.000370912125
-2.333991855e-05
0.0001799120089
1.869985218e-05
-0.0001801989286
0.0001820813098
-0.0001821902496
-1.781672646e-05
-0.0003641471542
-3.561325199e-05
0.0003641461443
1.195558221e-05
0.0001819597913
-0.0001812633694
-1.265200417e-05
1.84668181e-05
-1.823746344e-05
0.0001818519551
-1.785896529e-05
0.0001793269718
1.844400247e-05
-1.746220429e-05
0.0001827856334
0.0001831021588
1.821843808e-05
1.31112657e-05
-0.0001846632465
-4.677010423e-05
0.0007192175095
4.649009911e-05
-0.0003590372374
-0.000359900267
0.0003632461278
-0.0003631040328
-2.300580811e-05
-1.308009457e-05
0.0001819551752
0.000357900738
-3.18267484e-05
-0.0003561245395
1.480586103e-05
1.524468885e-05
0.0001765469592
-0.000177059962
-1.600641075e-05
-0.0003572400998
-3.552976708e-05
0.0003571767986
2.163844185e-05
0.000351923582
-0.0003521056428
-2.145638109e-05
1.360855184e-05
-1.336833225e-05
0.0001763067396
-3.234416658e-05
0.0003580996711
1.504871363e-05
1.70965199e-05
-1.728515958e-05
0.000178157382
1.415251396e-05
0.0001761634538
0.0003525621043
2.205762679e-05
-0.0003529812892
-0.001547887567
0.001556698429
0.0001646429089
7.328877479e-05
-0.00077814474
7.052187612e-05
-0.0008037516722
-7.164391408e-05
-7.060828942e-05
-0.0007898631257
0.0007898033597
7.066805542e-05
-3.257362411e-05
3.251773402e-05
-0.0003943893593
3.040585075e-05
-0.0004063737935
-2.927075218e-05
-3.518540881e-05
0.0001977111043
1.939092704e-06
-0.0001644647882
0.0002085174648
1.865316922e-05
-0.0002114212916
-1.574934247e-05
-0.0007689168949
0.0007689745749
7.150567474e-05
3.27267961e-05
-0.0003841372228
3.280498714e-05
-0.0003876681663
-3.280513647e-05
-6.247766744e-05
0.000188415078
2.825498304e-05
-0.0001541923936
0.0007349786899
3.938528032e-05
-4.373427477e-05
0.001450931493
4.724886395e-05
-0.001472698624
-0.001494722205
-5.24979974e-05
-6.21604644e-05
0.0001836085753
2.778042079e-05
-0.0001492285316
-2.440677804e-05
0.0003657192915
2.463777297e-05
-0.0001829067186
-0.0001830435678
1.231071804e-05
0.0001836153016
-0.0001835788487
-1.234717092e-05
-2.273456556e-05
0.0003524225024
2.287416743e-05
-5.082399917e-05
0.0007101144112
4.913045318e-05
-0.0007084208652
0.0007168613786
-4.711442738e-05
-0.0003579007829
-0.0003586162726
3.278188493e-05
-0.0003885862007
-0.0003929606333
-3.255339374e-05
-0.0007834112356
-7.110594693e-05
0.0007839088931
1.314117523e-05
-0.0001943585773
-1.344721592e-05
0.000194664618
-0.0002092263757
7.323924777e-06
-1.011974687e-05
0.0002120221978
-0.0002012474621
-1.275701544e-05
0.0002013780259
1.262645165e-05
3.307789191e-05
-2.97128421e-05
0.0004019103778
-0.000198473315
0.0003966478195
2.743077947e-05
0.0007900656845
4.544411907e-05
-0.0003943181105
-0.0003943170285
0.0001840480083
1.245674728e-05
-0.0001841940375
1.45038318e-05
0.0001849652336
-0.0001855427404
-1.392632505e-05
4.11416792e-05
0.0007405119075
-0.0007407097648
-4.094382182e-05
2.316221599e-05
-2.304276204e-05
0.0003708052376
-2.2889309e-05
0.0003677038187
2.296234613e-05
-2.319350805e-05
0.0003747346544
0.0003711029679
2.314522033e-05
0.0007432527453
4.116826934e-05
-0.0007432793354
1.411317184e-05
0.0001812712456
-0.0001819709602
-1.341345726e-05
-0.0001772019544
-1.62742272e-05
0.0001772952867
1.618089496e-05
-2.257821444e-05
0.0003561184963
2.267123194e-05
-0.0001778615
-0.0001783500138
0.0003942086234
2.793738301e-05
-0.0003942008972
-2.794510919e-05
-0.0008420082529
4.550032418e-05
-1.044045956e-05
-2.144604529e-05
0.0004112150633
0.0004171793703
-0.0004021810015
0.0004102581114
1.67324791e-05
0.0004048752678
3.174066547e-05
-0.0004054958133
0.0008270257062
7.969668368e-05
-0.0004144641334
-0.0003991847228
-3.903907767e-05
-5.403445604e-05
3.535761049e-05
-3.594899962e-05
0.0003948000125
0.000250930456
-0.0002861158648
2.778127938e-05
0.0004006457722
-2.693076625e-05
-0.0002005280552
-0.0002009682301
1.767966765e-05
3.047512133e-05
0.000202775667
1.621002133e-05
-1.474815161e-05
0.0002070555951
0.0002024839045
1.290686745e-05
0.0003997489745
2.659741329e-05
-0.0001995105614
-0.000199054547
1.235095129e-05
0.0001943124723
-0.0001943383425
-1.232508107e-05
0.0001946822476
1.239282802e-05
-0.0001947241244
1.179256946e-05
0.0001908830824
-0.0001908152443
-1.186040755e-05
0.0001915508421
1.20584512e-05
-0.0001918167238
0.0001851865295
-1.454051225e-05
1.313085563e-05
-0.0001837768729
0.0001912965357
-0.0002440188303
-9.755372872e-06
2.363087077e-05
0.0003722533538
-0.0003722365692
-2.364765536e-05
1.616361874e-05
-1.339029591e-05
0.0001885232129
-1.429480595e-05
0.0001855752263
1.390610915e-05
1.447040932e-05
-2.766773992e-05
0.0001854814829
-0.0001722841523
0.0001872959635
1.728273324e-05
0.0003729696968
2.36608709e-05
-0.0001863867521
-0.0001866129449
0.0001826182864
1.562699931e-05
-0.0001827863655
-1.545892022e-05
3.35425905e-05
-0.0003654751679
-3.349603831e-05
0.0003654286158
-3.348224809e-05
-0.0003646024671
0.0003646296977
3.345501748e-05
-2.384717291e-05
0.0003637064545
2.394131993e-05
-0.0003638006015
0.0003651655838
-2.416120429e-05
-0.0001827109364
-0.0001827002212
-0.0002385998102
-1.042131237e-05
0.0001868606581
1.419542868e-05
0.0001787082058
-0.0001792142496
-1.368938482e-05
3.311510467e-05
-0.0003588823286
-3.309634949e-05
0.0003588635735
-3.310236509e-05
-0.0003577187536
3.328346072e-05
0.0001788208617
0.0001787167963
3.333387893e-05
-0.0003601434944
-3.320584215e-05
0.0003600154576
-0.0003592515411
0.0003591968058
3.316983998e-05
0.0001780461164
1.47899631e-05
-0.0001786406509
-0.0002033702473
1.15276182e-05
-6.715665892e-05
0.000258999288
-0.0001935785043
1.33685325e-05
0.000193351147
-3.207185772e-05
-0.000391267464
3.224648339e-05
0.0001953123894
0.000195780449
-1.496063822e-05
1.552807276e-05
-0.0001941459389
1.512346645e-05
-0.0002006681047
-1.782560906e-05
-1.718378904e-05
2.979306548e-05
-0.0001949648549
0.0001823555784
-0.0001948131337
-1.450608188e-05
-0.0003911919377
-3.24829758e-05
0.0001960785194
0.0001955245364
-3.103907333e-05
-0.000403756759
0.0004040444848
3.075134746e-05
-1.45443019e-05
1.475443335e-05
-0.0002014575935
3.155576862e-06
-0.0002029673018
-9.414650723e-06
0.0002005225113
1.412696929e-05
-0.0001995260142
0.0002010738378
-0.0002009629954
-1.465514433e-05
-0.0004001133493
-3.131557165e-05
0.0004003898476
-1.409170513e-05
0.0002024085275
0.0002000756042