/*--------------------------------*- C++ -*----------------------------------*\
| =========                 |                                                 |
| \\      /  F ield         | OpenFOAM: The Open Source CFD Toolbox           |
|  \\    /   O peration     | Version:  v1912                                 |
|   \\  /    A nd           | Website:  www.openfoam.com                      |
|    \\/     M anipulation  |                                                 |
\*---------------------------------------------------------------------------*/
FoamFile
{
    version     2.0;
    format      ascii;
    class       surfaceScalarField;
    location    "2.39";
    object      phi;
}
// * * * * * * * * * * * * * * * * * * * * * * * * * * * * * * * * * * * * * //

dimensions      [0 3 -1 0 0 0 0];
oriented        oriented;


internalField   nonuniform List<scalar> 
25162
(
0.0004878863517
0.9161621137
0.0006551895977
0.9165326968
0.0008400859109
0.9164651037
0.0004166661365
0.9164459517
0.0006274680975
0.4583355591
0.0004311070681
0.4582770774
0.0005561784055
-0.0005332558211
-0.0006963797035
0.4582404818
0.0008058978926
-0.0009143121891
0.4581823025
0.001067009643
-0.001231169726
0.4581565824
0.001404587349
-0.001592045209
0.4581456312
0.001781413987
-0.001958894193
0.4581737507
0.002120143524
-0.002257610352
0.4582464309
0.002342679407
-0.002382738719
0.4583463596
0.002369879093
-0.002304767585
0.4584438173
0.002195950324
-0.002054295538
0.4584973411
0.001886954413
-0.00171559846
0.4585090159
0.001541582565
-0.001362215907
0.4584938537
0.001203362206
-0.001052629791
0.4584844498
0.0008831800147
-0.000815864005
0.4584494619
0.0007164021087
-0.0005840511317
0.4584587299
0.0004753212068
-0.001835696381
0.9185968817
0.0003084747117
-0.0004196600586
-0.001149300853
0.9186636045
-3.70294558e-05
0.9157377286
0.9137629705
0.001347608101
0.9148145056
0.002231902753
0.9156484021
0.002754839519
0.9159421669
0.001056526692
0.9165600081
0.001584256355
0.4578915955
0.001272317728
-0.4581073865
-0.4580539942
-0.001568633088
0.4576876752
0.001934952102
-0.4578579212
-0.002380378186
0.4573313092
0.001359964733
0.001547025425
-0.2288493857
-0.001625726449
0.2287160993
0.001759012852
-0.0022979221
-0.2287811203
0.2286121221
0.002466920352
-0.00309275267
-0.2287562341
0.2285577295
0.003291257329
-0.003904399617
-0.2288165617
0.2286275925
0.0040933688
-0.004542598426
-0.2289691423
0.228824847
0.004686822156
-0.004848512955
-0.2291824362
0.2291428288
0.004888239144
-0.004666040964
-0.2293513703
0.229437511
0.00457990024
-0.004117045286
-0.2294479167
0.2296211405
0.003943821542
-0.003373562721
-0.2294754609
0.229684444
0.00316457959
-0.002601349167
-0.2294473902
0.2296447742
0.002403965196
-0.00192762547
-0.2293911756
0.2295529649
0.001765836257
-0.4588502602
-0.002575170031
0.4602451376
0.001180292608
8.659689492e-05
0.4608732384
-0.001733265721
-0.4592265695
-0.002073702787
0.9179397801
0.0007966953889
0.00193410901
-0.001280435425
0.9178703371
0.0002138410229
0.9142434522
0.9139768116
0.001738400216
0.9130761053
0.004559897979
0.9128269043
0.007756240032
0.9127458249
0.003509254169
0.9137690116
0.007037982371
-0.4576945438
0.4573361929
0.003867605137
-0.4572868508
-0.004081237716
0.4576592843
0.003708804172
-0.4566066979
-0.004119125232
0.4559918659
0.002283883847
0.002450073463
-0.2280647427
-0.002790800367
0.2277778289
0.003077714183
-0.2277828481
-0.004076414308
0.2274096475
0.004449614889
-0.2276387279
-0.00575902665
0.2266687206
0.006723239661
-0.2269628782
-0.01019256447
0.2258226785
0.01130756482
-0.2275876658
-0.01417764353
0.2268635277
0.01488375138
-0.2291849779
-0.01603939809
0.2291823069
0.01604582763
-0.2307905641
-0.01491547122
0.2315707903
0.01415814988
-0.2312517795
-0.0110800731
0.2324847902
0.009870297766
-0.2305769246
-0.006358872179
0.2311094026
0.005827576494
-0.2304622682
-0.004699969947
0.230822987
0.004339251236
-0.003087116759
-0.2302686
0.2309352896
0.002420427183
-0.4628171461
0.0008415324165
0.4615701943
0.000405419406
-0.4599094213
-0.0006256207016
0.4598208678
0.000714174198
-0.0005439564238
0.9194024472
-0.0005767463611
-0.000341964292
0.00116808645
0.9161582942
0.0005349113837
0.9148766272
0.914511723
0.0007604972248
0.9123156081
0.001688917585
0.911898484
0.003371415329
0.9110633271
0.004008158572
0.9101249955
0.003007272894
-0.4563428745
0.4556615378
0.004689495336
-0.4588785822
-0.00620374285
0.4554649105
0.009617414568
-0.4569909528
-0.01131256545
0.4580265184
0.003445061759
0.006831938107
-0.2267081563
-0.003728459675
0.2263336806
0.004102935321
-0.2255471156
-0.005935353164
0.2236033644
0.007865090542
-0.2213668
-0.01449206775
0.2189962181
0.01680057512
-0.2208824358
-0.02343474822
0.2188115329
0.02544127683
-0.2237434849
-0.03048297344
0.2224313016
0.03176184252
-0.2289646836
-0.03410071229
0.2287714215
0.0343038388
-0.2346506181
-0.03295772335
0.2358336447
0.03182467337
-0.2379741213
-0.02656837858
0.2403071334
0.02430665355
-0.2367216147
-0.01668827551
0.2394007572
0.01406431115
-0.234464184
-0.002131968599
0.2388914265
-0.002292986279
-0.003002678593
-0.2317650597
0.2317596808
0.003008057524
-0.4614555753
-0.004378001992
0.4625288719
0.003304705374
-0.4604494923
-0.00222343412
0.4613168997
0.001356026767
0.0020401975
0.9189879134
-0.0008821798719
-0.0007434838243
0.001484772619
0.9167137191
0.0006730388964
0.9156883609
0.9151847619
0.0003345704596
0.9119810377
0.0008022466743
0.9114308078
0.001599428546
0.9102661453
0.002156309565
0.9083067336
0.001261380845
-0.4551232417
0.4540778426
0.003201708701
-0.4536339454
-0.003962164046
0.4525811438
0.005014965676
-0.45133646
-0.006406366345
0.4499241693
0.004044082873
0.003774574223
-0.2264006651
-0.006273516374
0.2241199816
0.008553396923
-0.2166930687
-0.01780487052
0.2158489518
0.01857331394
-0.2106717239
-0.02408659903
0.207741349
0.02690784494
-0.2119516402
-0.03467579383
0.2096313084
0.03691107287
-0.2179748869
-0.04252463163
0.2164077102
0.04405629372
-0.2276226495
-0.04748689103
0.2269860362
0.0481350946
-0.2392755551
-0.04791887159
0.2404183696
0.04683549549
-0.2482421995
-0.03999526023
0.2512060832
0.03713454739
-0.25540779
-0.02128168097
0.255763475
0.0210320973
-0.241073776
-0.01434477711
0.2443464279
0.01113174651
-0.00440218843
-0.2330474408
0.2335385808
0.003911048505
-0.4640197024
-0.004894974667
0.465408893
0.003505784052
-0.4621026668
-0.002559393482
0.462891297
0.001770763253
0.002599581196
0.9203668571
-0.002323654066
-0.001654870877
0.001345283464
0.9179680169
0.0005907465042
0.9164428979
0.9157755084
-5.573964784e-05
0.9120367773
6.676051839e-05
0.9113083076
0.0005879926645
0.9097449131
0.0008675254898
0.9072737303
0.0007534704978
-0.4529453919
0.4523524884
0.001460429027
-0.4516436722
-0.002752694936
0.4504641267
0.003932240487
-0.4484495816
-0.005003971473
0.4467944119
0.003339123348
0.003320017885
-0.2172939078
-0.005760504589
0.2147584693
0.008256728194
-0.2028714603
-0.01719858521
0.1995389714
0.02040984498
-0.2012491352
-0.03168318847
0.1968613138
0.035939591
-0.2058358027
-0.04227990846
0.2051364836
0.04290383718
-0.2122444883
-0.04518664309
0.2123298792
0.04508397637
-0.2239930245
-0.04940429218
0.2227035059
0.05069606784
-0.2442196663
-0.04987219681
0.2439818129
0.050143634
-0.2652418324
-0.04083984784
0.2630902496
0.04309351463
-0.2637751142
-0.03633699887
0.2677280655
0.03252179792
-0.255649294
-0.02043845602
0.2597380095
0.01646062741
-0.005254597998
-0.2373109483
0.2392865678
0.00329432163
-0.4665563632
-0.004774682506
0.4676787138
0.003652331978
-0.4632700222
-0.00285735226
0.463581529
0.002545845474
0.001821894901
0.9220389305
-0.001633828685
-0.001860139532
0.0008998652483
0.9188900465
0.0003174678843
0.9170252953
0.9160929762
-0.0006459492655
0.9126827266
-0.001096612135
0.9117589705
-0.001266629175
0.9099149302
0.0001436164762
0.9066455516
-0.0007820668809
-0.4520271718
0.451509483
0.0006613053413
-0.4490426106
-0.001144467741
0.44835581
0.001831268387
-0.4458604803
-0.003177543162
0.4448524658
0.002034726036
0.002150560203
-0.2074542884
-0.005865436688
0.204970302
0.008276955734
-0.1888720555
-0.01656654261
0.1880396975
0.01724689603
-0.1888868805
-0.02483480094
0.1869102767
0.0266798352
-0.1985567496
-0.03144363173
0.1968837025
0.03307217841
-0.2047422842
-0.04855918328
0.10361744
0.09772883301
0.02380836929
0.02814682518
-0.0345492913
-0.1086719393
0.1081083434
0.03511288717
-0.02788005981
-0.2522627471
0.05253866301
-0.02825145997
0.1275448314
0.1283107725
-0.0463445294
-0.2673394516
0.270104111
0.04364682022
-0.2797315743
-0.03230753833
0.2820062189
0.03017806283
-0.2707635852
-0.0222624127
0.274724334
0.01843986646
-0.008172301629
-0.2477256555
0.2505398865
0.005411152377
-0.4687572029
-0.003605555713
0.4692716956
0.003091063041
-0.4643270077
-0.002186225849
0.4650474655
0.001465768087
0.0004457325217
0.9230447658
-0.0005982222405
-0.0008533455953
-1.05830427e-05
0.9193463621
-0.0001005406383
0.9171152529
0.9159924356
-0.001307952846
0.9139906794
-0.002518713836
0.9129697315
-0.003453791787
0.9108500081
-0.00168562179
0.9073668685
-0.002489486952
-0.4513955533
0.4513046136
-0.001594682168
-0.4479644265
0.001546932484
0.4477407628
-0.001323268783
-0.4427432889
0.001011610415
0.4414563425
3.521737025e-05
0.0002331212123
-0.1988576476
-0.002271942389
0.1974401239
0.003599065698
-0.180486697
-0.008535848559
0.1786561747
0.01020802007
-0.1823750545
-0.01511975427
0.1808676953
0.01650154294
-0.1948637992
-0.01906880347
0.1946454
0.01927235007
-0.08842766688
-0.01234106586
0.08812416217
0.01264457058
-0.03446209681
-0.1421171395
0.1451366123
0.03144262404
-0.03886067963
-0.2779420901
0.2808486527
0.03598878184
-0.292345018
-0.02705756607
0.2955407371
0.02399888619
-0.2855950566
-0.01504002581
0.2885538863
0.01223574767
-0.007735311998
-0.2577509513
0.2601869654
0.005374227252
-0.4701469562
-0.001450713402
0.4708137988
0.0007838708024
-0.465586599
-0.0003477288395
0.4660005158
-6.618798311e-05
-0.0016088485
0.9232106236
0.0009828296379
0.0004601610814
-0.001268814651
0.9190063282
-0.0006774977937
0.916523936
0.9153149378
-0.001993792973
0.9159844724
-0.003899398615
0.9148753371
-0.005852174011
0.9128027835
-0.003393917194
0.9091278874
-0.004219275655
-0.4515613032
0.4518128044
-0.003645418403
-0.4478091111
0.003957337703
0.4481263882
-0.004274614768
-0.440747831
0.004591087834
0.4403577293
-0.001895987886
-0.002321048591
-0.1932133284
0.0004346436425
0.1919820758
0.0007003532227
-0.1735513899
-0.004727025228
0.1720494986
0.00607148534
-0.1782432822
-0.009191789538
0.1775887737
0.009728174791
-0.1961816844
-0.009136371006
0.1971397617
0.008171957887
-0.09193278992
-0.001904244494
0.09266225432
0.001174780095
-0.01522676222
-0.1583296227
0.1587989556
0.01475742937
-0.02168358965
-0.286496348
0.2872657332
0.02093318465
-0.3023478925
-0.01741037531
0.3040107896
0.01587581299
-0.2959810168
-0.01043072553
0.2979634473
0.008604221585
-0.003339689238
-0.2653570269
0.2669053014
0.001875720433
-0.4717300851
0.001381367337
0.4724514463
-0.002102728543
-0.4661175376
0.002334508592
0.4661125027
-0.002329473703
-0.00402622054
0.9221351938
0.002771929147
0.002329721122
-0.002773065254
0.9177531729
-0.001418578152
0.9151694489
0.9138963597
-0.002646973149
0.9186314456
-0.005415225436
0.9176435894
-0.008152096001
0.9155396541
-0.005118034416
0.9120435409
-0.005949715114
-0.4524189678
0.4530292972
-0.005728363774
-0.4486413809
0.006457908559
0.4494889698
-0.007305497482
-0.4402443005
0.008178910375
0.4402470371
-0.003865889791
-0.004339156754
-0.1887019747
0.002641504424
0.1876112523
-0.00164917811
-0.1680005228
-0.001780279986
0.1667712184
0.002854685921
-0.1762022952
-0.00494584581
0.175974103
0.005061549558
-0.2005848226
-0.003058200281
0.2018547622
0.001784811123
-0.09656076257
0.001142673414
0.09699598318
-0.0007680274765
-0.0008098665377
0.00354109389
-0.1555824384
0.1544946217
-0.002453277186
-0.002724942424
-0.287854049
0.2873050753
0.003293678168
-0.3080552365
-0.003141415423
0.3087296998
0.002593126037
-0.3024491853
-0.0002579882554
0.3034289243
-0.0005685556873
0.002413479178
-0.2688670825
0.2692495714
-0.002713321311
-0.4722348663
0.0053195005
0.471598522
-0.004683156198
-0.4657716267
0.004406016222
0.4659601031
-0.004594492593
-0.0066439379
0.919795189
0.004779705897
0.004204236826
-0.004369762998
0.915478998
-0.002203911486
0.9130035974
0.9116924482
-0.003363631796
0.9219950774
-0.006749397466
0.9210293551
-0.0103492314
0.919139488
-0.006752874359
0.9159889097
-0.007541725892
-0.4539637916
0.4549030755
-0.007692158243
-0.4505037178
0.00884133634
0.4516651894
-0.01000280804
-0.4405538945
0.01134571882
0.4409550311
-0.005739378192
-0.006041003555
-0.1844517188
0.004354788203
0.1834134496
-0.00341755327
-0.1633436624
0.0002934357034
0.1622711585
0.0006265074472
-0.1756991127
-0.002075663159
0.1757288156
0.001939330627
-0.2056785486
0.0008014636574
0.2069397898
-0.002063950146
-0.09957988483
0.002767021985
0.0998871952
-0.001521971929
-0.001552360426
0.01343228434
-0.1452250858
0.1437868433
-0.01199404186
0.01182788794
-0.2854369665
0.2851728688
-0.01153078328
-0.3108739218
0.01335535464
0.3080363994
-0.01039093754
-0.3049202311
0.009600055901
0.3046673364
-0.009199497097
0.007535417107
-0.2672288044
0.2665273452
-0.006762608249
-0.4706593652
0.009030808391
0.4694556694
-0.007827112613
-0.4660372806
0.006731976496
0.4650294387
-0.005724134646
-0.009044335753
0.9163994279
0.006414608026
0.006025488876
-0.005905904165
0.9123405665
-0.00291262768
0.9100103209
0.9087798205
-0.003996672451
0.9259917498
-0.008060666341
0.925093349
-0.01234737602
0.9234261977
-0.008182839461
0.9204698073
-0.008645434159
-0.4560957404
0.4572799348
-0.009367033797
-0.4530962626
0.01076262965
0.4546260345
-0.01229240162
-0.4410446846
0.01398442961
0.4421843002
-0.006839550475
-0.0083302423
-0.180251905
0.005220650243
0.1791344477
-0.004206831181
-0.1592171351
0.001090019168
0.1582488579
-0.0002715212716
-0.1761762814
-0.0006182675477
0.1764799463
0.0002144042767
-0.2107099442
0.003471827829
0.2119757038
-0.004737691108
-0.1019171096
0.004163978809
0.102214882
-0.002210276407
-0.002251474835
0.01668624427
-0.1341316813
0.1327580502
-0.01531261319
0.02071003909
-0.2839970992
0.2842672678
-0.02092707524
-0.3077973538
0.01681067395
0.3124227886
-0.02130419032
-0.302878424
0.02214073586
0.3019941788
-0.02111759337
0.01205415393
-0.261118905
0.2588523387
-0.009733575556
-0.4680299788
0.01213627741
0.4663833983
-0.01048969688
-0.4639748703
0.00902473815
0.4626960365
-0.007745904295
-0.01119521315
0.9137382243
0.007145638747
0.006710778023
-0.007247398206
0.9083927516
-0.003532334135
0.9062952569
0.9052474864
-0.008231401454
0.9342231513
-0.0166857173
0.9335476649
-0.02533496872
0.9320754491
-0.009557873346
0.9297301617
-0.02503744973
-0.4587489807
0.4601901483
-0.01099904095
-0.4562291812
0.01261621625
0.4580472483
-0.01443428339
-0.4397204906
0.01630584314
0.4364308014
-0.006117221658
-0.006970403857
-0.1764234187
0.002279474728
0.1741479921
-0.0001093156441
-0.155457115
-0.000333739146
0.1553568801
0.0002883893601
-0.1778646125
0.001741355407
0.1763588673
-0.0003306878294
-0.2158185279
0.004984719375
0.2171409992
-0.003148680422
-0.003158510238
-0.05240434227
0.002718009236
0.05250158528
-0.002815252243
-0.05833695858
0.006243933837
0.05784281661
-0.01212632071
0.006376528837
0.01483090802
-0.1246793046
0.2456368148
-0.02553731752
0.01437835557
-0.1246294562
-0.2845102166
0.02707758369
0.2877088504
-0.03020114149
-0.3120089665
0.02807770791
0.3108524684
-0.0267816464
-0.2977176904
0.02161123447
0.2956857971
-0.01945579806
0.01217412288
-0.2487828281
0.2462168839
-0.009579852853
-0.4644252241
0.01426503033
0.4624695737
-0.01230937988
-0.4613719568
0.01079129595
0.4599509241
-0.009370263146
-0.01291711468
0.9098870995
0.00861105111
0.008157188388
-0.008350953758
0.9038265907
-0.004117690836
0.902061994
0.9011297956
-0.004760071733
0.938983223
-0.009667488805
0.9384550819
-0.01487864718
0.9372866075
-0.01017689422
0.9354360553
-0.0104076465
-0.463690307
0.4652183022
-0.01170488943
-0.4616447941
0.01341490117
0.4634990839
-0.01526919092
-0.4352008191
0.01729582852
0.4406191842
-0.01078417183
-0.01201441968
-0.1698284259
0.0121494202
0.1700148019
-0.01244723803
-0.1521930009
0.0119279841
0.151494181
-0.01137450899
-0.1812265775
0.00899891286
0.1801776355
-0.008037047057
-0.2215505941
0.005385044562
0.2228415785
-0.003342559459
-0.003333469531
-0.05480383658
0.00567241513
0.1100293237
-0.05478025774
-0.003055817937
-0.00306182655
-0.1122473556
0.008126804651
0.1120895874
-0.0158501321
0.007881095636
0.02454200659
-0.2389450425
0.2391775182
-0.02477131877
-0.28968844
0.02800593718
0.2905990129
-0.02882257848
-0.3065179587
0.02807006087
0.3128647928
-0.03428102006
-0.2887302922
0.02996830131
0.2812336288
-0.02237260874
0.01136054002
-0.2348535829
0.232681361
-0.009184080995
-0.4607587663
0.01515254492
0.4592233157
-0.01361709429
-0.4585147409
0.0121024379
0.4568330189
-0.01042071588
-0.01240683373
0.9051978305
0.008484515642
0.008611587208
-0.009064591578
0.9004843485
-0.004445684574
0.897443087
0.896684111
-0.004957216546
0.9439404396
-0.01005477735
0.9435526428
-0.01543642895
0.9426682592
-0.01056702802
0.9412703209
-0.01070366657
-0.4668358842
0.4684409913
-0.01217213508
-0.4653578757
0.01390804526
0.4672039802
-0.0157541497
-0.4498944868
0.01774865873
0.4603872267
-0.01421277581
-0.01406175777
-0.1751468673
0.02210895779
0.1785328111
-0.02558957376
-0.1514129067
0.03294627306
0.1524071418
-0.03407970075
-0.1738645094
0.03259430495
0.1714830765
-0.03031542958
-0.2184558319
0.01784240747
0.2125430147
-0.01195153419
-0.1131803833
0.009243535922
0.2264550322
-0.009376778243
-0.1131414066
-0.2264034086
0.0159099807
0.2269579077
-0.01646447987
-0.2504602423
0.02819380379
0.2558629163
-0.03356117353
-0.297130087
0.04233936733
0.297872683
-0.04297176169
-0.3090378745
0.03931523793
0.3064790002
-0.03662322318
-0.2693268967
0.02577228294
0.2696976701
-0.02607226473
0.01137546469
-0.230808957
0.2285069534
-0.009073461142
-0.4578549593
0.01695560321
0.4548070045
-0.01390764845
-0.4551178968
0.01248843411
0.4531432737
-0.01051381089
-0.01283849555
0.9005738577
0.00881333575
0.008649132609
-0.009146862729
0.8967927157
-0.004663324224
0.8929595485
0.8920207868
-0.00501938562
0.9489598252
-0.01016208442
0.9486953416
-0.0155492911
0.9480554658
-0.01065667562
0.947049354
-0.01067164855
-0.4700315524
0.4716239167
-0.01224903989
-0.4690144314
0.01393990586
0.4707824402
-0.01570791464
-0.467600986
0.01758174316
0.4697375436
-0.009963845298
-0.009754584023
-0.1940884114
0.02363780279
0.2010459908
-0.03065304137
-0.160128526
0.04889139931
0.1646066968
-0.0534849209
-0.1672612286
0.06120678977
0.1675586013
-0.06161350567
-0.1983190728
0.05705497333
0.1954312944
-0.05422833218
-0.2176586904
0.04530345425
0.2127851695
-0.04044657184
-0.2387456282
0.0484009308
0.2420253023
-0.05166614017
-0.2692329113
0.06207750513
0.2718319371
-0.06461517105
-0.2973410416
0.06603980287
0.29557131
-0.06416307961
-0.2944791356
0.05209628682
0.2888404911
-0.04635299748
-0.2529524276
0.02632611311
0.2459855062
-0.01932171951
0.01095942557
-0.2266347682
0.226046631
-0.01037128838
-0.4541226237
0.01744087265
0.4514777874
-0.01479603637
-0.4503343557
0.01143879661
0.4487817804
-0.00988622127
-0.01209616609
0.8944505516
0.009385029329
0.008834442821
-0.006782548009
0.8914790976
-0.00473399292
0.8909109935
0.8872867939
-0.004964428464
0.9539242537
-0.01003124099
0.9537621541
-0.01529625842
0.9533204833
-0.01049240143
0.952632632
-0.01038713501
-0.4731587893
0.4746771391
-0.01201075121
-0.472489875
0.01360417706
0.4741328391
-0.01524714122
-0.4716386895
0.01695732488
0.4734295279
-0.009435490609
-0.009312672726
-0.2263772853
0.01052726736
0.2341175165
-0.01827531143
-0.1842449921
0.04645394093
0.1927053218
-0.05498417601
-0.1752354034
0.07568019389
0.1801272633
-0.08065993935
-0.1936073678
0.0901394529
0.1949555799
-0.09155286676
-0.2025974998
0.08574582887
0.2031814587
-0.08635426364
-0.2466262806
0.09341064841
0.246639612
-0.09340445431
-0.2725044307
0.0909439001
0.2703694348
-0.0887477034
-0.284009545
0.07657338937
0.2780953761
-0.0705771545
-0.2669819066
0.04767869828
0.258266488
-0.03890546137
-0.2256106206
0.01278537676
0.2246453474
-0.01181974899
0.01027534657
-0.2244445247
0.2239486252
-0.009779447099
-0.4478252603
0.0166578772
0.4461108764
-0.01494349331
-0.4472310221
0.01330713399
0.4456484994
-0.01172461129
-0.01134963383
0.887408923
0.01009834287
0.008292919601
-0.006428522225
0.886557986
-0.004387921521
0.8888703928
0.8828988724
-0.004817063936
0.9587413177
-0.009713531266
0.9586586215
-0.01475672381
0.9583636758
-0.01011494912
0.9579122404
-0.009921383041
-0.4761232809
0.4775370818
-0.01152875009
-0.4756980936
0.01299438948
0.4771874831
-0.01448377896
-0.4751058961
0.01600837014
0.4766705299
-0.00886310595
-0.008709897954
-0.2370035199
0.009672155061
0.2374127503
-0.01008138544
-0.2220703356
0.01622732094
0.2325211054
-0.02669067608
-0.2008293705
0.05578872626
0.2092092023
-0.06421206194
-0.2009979399
0.08281589327
0.2033976241
-0.08525684565
-0.2140048018
0.09297832505
0.2179029447
-0.09689288055
-0.2431848803
0.09651343077
0.2411334833
-0.09444629869
-0.2581129958
0.08300470895
0.2525624957
-0.0774147232
-0.2554203355
0.05561032385
0.2467794048
-0.0469314901
-0.2296451066
0.01840554152
0.2236828693
-0.01243913134
-0.2232209948
0.01113135871
0.2228011897
-0.0107115536
0.009465049452
-0.2226108539
0.2221990933
-0.009053288784
-0.4445017484
0.01558765852
0.4429980888
-0.01408399902
-0.4441714169
0.01262077952
0.4427337383
-0.01118310097
-0.0142418807
0.882268581
0.009590793258
0.009791429433
-0.009357396272
0.8816735016
-0.001825852852
0.8813388494
0.8810730195
-0.004600440746
0.9633417584
-0.009257232353
0.9633154131
-0.01401055438
0.9631169979
-0.009585216929
0.9628231686
-0.009336265667
-0.4788725165
0.4801684018
-0.01088110215
-0.4785932212
0.01220741642
0.479921493
-0.01353568817
-0.4781240597
0.01487245543
0.4794696793
-0.008183672741
-0.00803440229
-0.2385289728
0.008876393791
0.2388677423
-0.009215163326
-0.2374750287
0.01021304824
0.2378003522
-0.01053837171
-0.2354448614
0.01149302275
0.2365677523
-0.01261645298
-0.2140722234
0.02932414405
0.2187961026
-0.03405669507
-0.226114763
0.0470404315
0.2280612309
-0.04899150839
-0.2336205176
0.04728003743
0.2310039299
-0.04465813027
-0.2339770697
0.03106325707
0.2277835517
-0.02486272465
-0.2239534686
0.01230419254
0.2237045026
-0.01205522651
-0.2226164551
0.01121562444
0.2223118238
-0.01091099321
-0.2216818226
0.009948281926
0.2213501723
-0.009616631694
0.008608730239
-0.2210917642
0.2207506116
-0.008267577686
-0.4415959507
0.01436747368
0.440292024
-0.013063547
-0.4414048612
0.01177313555
0.4401183797
-0.01048665398
-0.01345407065
0.8775275516
0.008970967627
0.009224132439
-0.008877769764
0.8770972007
-0.004407552826
0.8768686324
0.8766654667
-0.004336753786
0.9676785122
-0.008709122929
0.9676877822
-0.0131337898
0.9675416647
-0.008959961915
0.9673347366
-0.008685395867
-0.4813833639
0.482560737
-0.01013733504
-0.4811682894
0.01132570399
0.4823421207
-0.01249953526
-0.4807142057
0.01366313897
0.4818642624
-0.007470308599
-0.007342887113
-0.2397921212
0.008067008214
0.2400733448
-0.008348231734
-0.2386755205
0.009161671801
0.2389368382
-0.009422989539
-0.23725173
0.01015619026
0.2374356818
-0.01034014201
-0.2219913659
0.01031982781
0.2220372964
-0.01036575837
-0.230512592
0.01148031428
0.230573517
-0.01154123928
-0.2277908622
0.01154829318
0.2277548255
-0.01151225648
-0.225168407
0.01126716961
0.2250464218
-0.01114518444
-0.2230564591
0.01067446896
0.2228683718
-0.01048638166
-0.2215085252
0.009844530387
0.2212725956
-0.009608600819
-0.2204605666
0.008851017072
0.2201951027
-0.00858555321
0.007763464854
-0.2198334819
0.2195483793
-0.007478362328
-0.439080786
0.0131039983
0.4379566133
-0.01197982559
-0.4389361876
0.01085014171
0.4377946198
-0.009708573985
-0.01254510341
0.8732037245
0.008295551375
0.008573379064
-0.00831149484
0.8728635922
-0.004136047983
0.8726931856
0.8725294187
-0.004046112646
0.9717246249
-0.008110461877
0.9717521315
-0.01219155866
0.9716227615
-0.008292668083
0.9714454151
-0.008009569132
-0.4836550462
0.4847171804
-0.009354802292
-0.4834408945
0.01041334426
0.4844739355
-0.01144638519
-0.4829264817
0.01245730588
0.483907442
-0.006772234708
-0.006666031432
-0.2408423903
0.007287276541
0.2410772377
-0.007522123949
-0.2396424164
0.008191888243
0.2398543665
-0.008403838295
-0.2378928745
0.008972668542
0.2380185916
-0.00909838562
-0.2222534279
0.0090431881
0.222345167
-0.00913492727
-0.230699167
0.009986208519
0.2307275667
-0.01001460823
-0.2276516603
0.009998919689
0.2276183515
-0.009965610959
-0.2247234299
0.009766781164
0.2246276113
-0.009670962659
-0.2223711967
0.009304141432
0.2222245638
-0.009157508493
-0.220643519
0.00865377451
0.2204566727
-0.008466928203
-0.2194780065
0.007859743991
0.2192624462
-0.007644183663
0.006966546715
-0.2187850203
0.2185451174
-0.006726643725
-0.4369125497
0.01187049868
0.4359429086
-0.0109008576
-0.4367493893
0.00991417198
0.4357401615
-0.008904944111
-0.01158271693
0.8692919541
0.007606511439
0.007887975929
-0.007701363496
0.8689822387
-0.003840330173
0.8688321523
0.8686890885
-0.003744148807
0.9754687737
-0.007492628695
0.9755006114
-0.01123082964
0.9753609625
-0.007616251678
0.9751694858
-0.007338648637
-0.4856973043
0.4866508892
-0.008569836612
-0.4854399559
0.009509998217
0.4863479504
-0.01041799276
-0.4848170936
0.01129782754
0.4856608807
-0.006120282555
-0.006021332083
-0.2417212402
0.006558249847
0.2419185928
-0.006755602427
-0.2404303991
0.007313161433
0.2406045322
-0.007487294534
-0.2383314378
0.007934773015
0.2384173329
-0.008020668136
-0.2226630674
0.007961672865
0.2227803783
-0.008078983772
-0.2307847857
0.008740955482
0.2307965788
-0.008752748637
-0.2275208482
0.008718840487
0.2274890225
-0.008687014747
-0.2243682432
0.008518136294
0.2242898073
-0.008439700436
-0.2218312133
0.00814382069
0.2217135523
-0.00802615963
-0.2199532601
0.007621125886
0.2198022347
-0.00747010045
-0.2186760526
0.00697513955
0.2184986041
-0.006797691039
0.006233412813
-0.217905056
0.2177022641
-0.006030620913
-0.4350414341
0.01070420126
0.4342023811
-0.009865148284
-0.4348183708
0.009003041906
0.4339275462
-0.008112217268
-0.01061510548
0.8657698639
0.006932698189
0.007204497445
-0.00707980182
0.8654469351
-0.003536826962
0.8652891774
0.8651522616
-0.00344394651
0.9789127202
-0.006881543329
0.9789382082
-0.01028930263
0.9787687218
-0.006958082021
0.9785314904
-0.006693225202
-0.487526268
0.4883804151
-0.007812229185
-0.4871971152
0.008646679787
0.487995688
-0.009445252583
-0.4864445063
0.01021190794
0.487173115
-0.005515876252
-0.00542464032
-0.2424624669
0.005891567146
0.2426299988
-0.006059099016
-0.2410808944
0.006528870984
0.2412257943
-0.006673770876
-0.2386306322
0.007029488717
0.2386890784
-0.007087934865
-0.2231567387
0.007044757208
0.2232882682
-0.007176286678
-0.2308158168
0.007692928085
0.2308177986
-0.007694909891
-0.227395382
0.007649204638
0.2273647822
-0.007618604852
-0.224074121
0.00747112508
0.22400798
-0.007404984149
-0.2213938228
0.007159604186
0.2212970165
-0.007062797865
-0.2193914141
0.006729948254
0.2192670264
-0.006605560532
-0.2180126359
0.006195583257
0.2178646048
-0.006047552228
0.005572764546
-0.2171621357
0.2169898454
-0.005400474331
-0.4334203217
0.009629268772
0.4326913073
-0.008900254411
-0.4331145377
0.008145136533
0.4323275592
-0.007358158088
-0.009678940997
0.8626067166
0.006293127114
0.006548961237
-0.006472377486
0.8622403716
-0.003238583794
0.8620553837
0.8619136778
-0.003154169168
0.9820668894
-0.006294134785
0.9820781738
-0.009390911552
0.9818654985
-0.00633359883
0.9815609805
-0.006086802818
-0.4891613933
0.4899258191
-0.00709802465
-0.4887430494
0.007839017148
0.4894466929
-0.008542660591
-0.4878514995
0.009212822096
0.4884838845
-0.00496514683
-0.004880060266
-0.2430938417
0.005289777563
0.2432374713
-0.005433407186
-0.2416243526
0.005833734823
0.2417462414
-0.005955623623
-0.2388341907
0.006241082044
0.2388740169
-0.006280908279
-0.2236938967
0.006262906599
0.223831309
-0.006400318972
-0.2308133942
0.006803965687
0.2308089998
-0.006799571308
-0.2272748038
0.006746435731
0.2272454247
-0.006717056652
-0.223824051
0.006585924902
0.2237670596
-0.006528933491
-0.2210311871
0.006320957646
0.2209498775
-0.006239648038
-0.2189258462
0.005960954595
0.2188216789
-0.005856787288
-0.2174566742
0.005512216826
0.2173316139
-0.005387156497
0.004983331866
-0.2165295985
0.2163818671
-0.004835600445
-0.4320106166
0.008652127854
0.4313747145
-0.008016225769
-0.4316094471
0.007352732271
0.4309130032
-0.006656288454
-0.008796156558
0.8597687436
0.005699287128
0.005934842367
-0.005895078887
0.8593392939
-0.002953875903
0.8591141807
0.8589598019
-0.002881116244
0.9849480056
-0.00574253173
0.9849395893
-0.008552319135
0.9846752859
-0.005753104595
0.9842898388
-0.005528072842
-0.4906227712
0.4913071541
-0.006437487564
-0.4901060022
0.00709650978
0.4907277064
-0.007718213958
-0.4890742986
0.008306464904
0.4896262692
-0.00446733815
-0.00439109735
-0.24363683
0.004749736377
0.243761098
-0.004874004406
-0.2420829028
0.00521852589
0.2421863109
-0.005321933975
-0.2389732701
0.005553180329
0.2390007096
-0.005580619809
-0.2242449554
0.005590761956
0.2243823643
-0.005728170893
-0.2307887641
0.006043397158
0.2307799933
-0.006034626329
-0.2271591601
0.005976943411
0.2271310204
-0.005948803723
-0.2236072862
0.005830759231
0.2235573915
-0.005780864516
-0.220724739
0.005601594383
0.2206553031
-0.005532158532
-0.2185339586
0.005295164903
0.2184454801
-0.005206686324
-0.2169851164
0.004913402261
0.2168782787
-0.004806564572
0.004459749273
-0.2159861406
0.2158584269
-0.004332035598
-0.4307794966
0.007775215287
0.4302219958
-0.007217714491
-0.4302772098
0.006632438362
0.429659247
-0.006014475502
-0.007980988537
0.8572212995
0.005158025379
0.005370407278
-0.005358666612
0.856716972
-0.002688380767
0.8564438949
0.8562714211
-0.002628253298
0.9875762589
-0.005233159395
0.9875444954
-0.007781654461
0.987223781
-0.005222158438
0.9867495966
-0.005019253781
-0.491930022
0.4925436727
-0.005835809186