/*--------------------------------*- C++ -*----------------------------------*\
| =========                 |                                                 |
| \\      /  F ield         | OpenFOAM: The Open Source CFD Toolbox           |
|  \\    /   O peration     | Version:  v1912                                 |
|   \\  /    A nd           | Website:  www.openfoam.com                      |
|    \\/     M anipulation  |                                                 |
\*---------------------------------------------------------------------------*/
FoamFile
{
    version     2.0;
    format      ascii;
    class       volVectorField;
    location    "1.4";
    object      U;
}
// * * * * * * * * * * * * * * * * * * * * * * * * * * * * * * * * * * * * * //

dimensions      [0 1 -1 0 0 0 0];


internalField   nonuniform List<vector> 
12556
(
(99.99794521 0.004896208965 -4.374511038e-21)
(99.99746272 0.01603419382 6.181913077e-25)
(99.99603176 0.0324174169 -4.360252532e-21)
(99.99365804 0.05739456783 -4.322862228e-21)
(99.9998694 0.04391898551 4.153990406e-21)
(99.9969946 0.06986549597 0)
(99.99551634 0.109162158 0)
(99.99519533 0.1617335799 -7.087651324e-21)
(99.99410833 0.2286262711 8.148686231e-22)
(99.99364262 0.3056594254 -5.116219965e-21)
(99.99448117 0.3811553209 7.598794866e-22)
(99.9959828 0.4371588044 0)
(100.0004686 0.4568586364 0)
(100.0044727 0.4324705855 1.611584251e-21)
(100.0057114 0.3753251888 -2.068180576e-21)
(100.0061986 0.3028718777 1.04644916e-21)
(100.0056118 0.230532336 0)
(100.0048198 0.167877066 1.572208477e-21)
(100.0043331 0.1164280151 6.428514874e-21)
(100.0023149 0.0800280014 -1.766438769e-21)
(100.0087057 0.08913023746 -1.523872917e-20)
(100.0058043 0.05407039927 0)
(100.0041343 0.02834266827 -1.898876889e-21)
(100.00388 0.008849536676 -1.335447676e-20)
(99.98172968 0.01321151651 1.754638143e-20)
(99.97588603 0.04375068271 4.37645267e-21)
(99.96259667 0.08906468914 3.052334807e-20)
(99.93977325 0.1585714355 -1.307135378e-20)
(99.94550171 0.2080303177 4.188379758e-21)
(99.91135363 0.3342437568 -6.177176319e-23)
(99.86871815 0.5227178924 0)
(99.84778702 0.6858223525 -7.209914336e-21)
(99.8065904 0.9811622375 -6.568753166e-21)
(99.78298834 1.332856839 -1.109402833e-20)
(99.79640818 1.689387081 -4.398938952e-21)
(99.85688606 1.963854132 -2.664003213e-21)
(99.95467211 2.074374004 -2.008339465e-21)
(100.0590352 1.983581494 7.833797323e-22)
(100.1311227 1.732684531 -6.683832865e-22)
(100.1591504 1.400034871 5.38657224e-21)
(100.152092 1.064219343 -1.004074853e-20)
(100.1250955 0.7765213413 0)
(100.1251336 0.5677220746 -2.701813773e-20)
(100.0866608 0.3787876585 5.175813452e-20)
(100.0817801 0.2527405758 1.475271164e-20)
(100.0555265 0.1528301458 3.020717965e-20)
(100.0402875 0.08037855659 -3.029672011e-20)
(100.0344482 0.02513704934 1.525374573e-20)
(99.95077176 0.01761023682 -1.750730357e-20)
(99.93419749 0.05932182052 -3.518766634e-20)
(99.89805736 0.1229417373 -7.868970077e-20)
(99.83749627 0.2236589462 1.046374564e-19)
(99.81143652 0.3299938071 -8.638747161e-21)
(99.70928096 0.5447413401 -8.336759642e-21)
(99.5769162 0.8697919297 -1.443814816e-20)
(99.51105523 1.213466491 0)
(99.3781763 1.783196331 2.730312192e-20)
(99.30302318 2.478718925 9.513669475e-20)
(99.36010508 3.199790713 0)
(99.58448969 3.801843137 1.858896717e-19)
(99.96191045 4.076070046 7.117513696e-21)
(100.3494547 3.899138599 -9.069124644e-20)
(100.5870308 3.342747749 -1.118840146e-19)
(100.6546857 2.648712792 4.037555658e-21)
(100.6035774 1.980154085 -1.072821078e-20)
(100.4937185 1.410064558 -2.445213278e-20)
(100.4116768 0.9600261441 -1.622713853e-19)
(100.2927381 0.6319347531 -3.562789311e-20)
(100.2246618 0.3781489483 -1.505448238e-20)
(100.1552034 0.2265558898 3.417250308e-20)
(100.1132995 0.1190510789 -3.83064336e-21)
(100.0950317 0.03706641508 0)
(99.91343139 0.01576019331 -8.841655402e-21)
(99.88158595 0.05548935469 6.185379256e-20)
(99.81338677 0.1224368913 -1.770161502e-20)
(99.7018227 0.2319482116 0)
(99.61660636 0.3822488695 0)
(99.41742397 0.6595433443 -6.779907555e-20)
(99.14491345 1.095606871 -1.353900771e-19)
(98.9431138 1.611306313 3.159468613e-20)
(98.63191348 2.445495356 0)
(98.42990904 3.489638291 2.334983606e-19)
(98.46431104 4.692230039 -7.272490063e-19)
(98.9132121 5.842501939 -1.247326646e-19)
(99.83013776 6.479054008 -3.666175346e-20)
(100.8409758 6.193686986 1.509955598e-19)
(101.4301768 5.144214211 -2.711169445e-20)
(101.5187614 3.876322568 3.054277361e-19)
(101.3430609 2.777975159 8.943689217e-20)
(101.0853032 1.927003114 0)
(100.8453122 1.246923503 5.837042518e-20)
(100.5997772 0.8014197512 -4.475022972e-20)
(100.4224519 0.441597656 -3.84309196e-20)
(100.2931864 0.2612966511 1.940437712e-20)
(100.2130659 0.1350777335 -3.888376659e-21)
(100.1765068 0.04162704285 0)
(99.88484944 0.006177348297 0)
(99.83523139 0.02722184305 0)
(99.7298104 0.07896496479 8.978497129e-21)
(99.55671867 0.172710132 1.35206544e-20)
(99.39923397 0.3462633152 2.233544908e-20)
(99.07013471 0.645140459 0)
(98.61387345 1.12173159 0)
(98.19497714 1.769722486 6.78321403e-20)
(97.61919809 2.790999382 5.84918003e-19)
(97.11252826 4.183350027 -6.015098401e-19)
(96.89714327 6.029353737 2.037059349e-18)
(97.47866521 8.198661179 -7.155402559e-19)
(99.37279495 9.713946247 0)
(101.7087408 9.257229408 0)
(102.9347491 7.263953681 -6.324749314e-19)
(102.9465741 5.058876957 2.32161319e-20)
(102.4300029 3.377243008 4.240190869e-19)
(101.8812139 2.238737896 -3.696036513e-22)
(101.3960247 1.373544876 -9.507477749e-20)
(100.9778806 0.8561690952 7.883601903e-21)
(100.6483017 0.4246580725 0)
(100.4452347 0.2451055712 3.949015023e-21)
(100.3189973 0.1218749583 -2.966110436e-21)
(100.2603325 0.03679474633 -9.831156472e-22)
(99.88182388 -0.01161723332 0)
(99.81397841 -0.02723710512 0)
(99.67158655 -0.01321887341 -1.796097453e-20)
(99.43367885 0.04163262975 3.671272366e-20)
(99.19413024 0.2069759716 0)
(98.7214604 0.4709941573 0)
(98.05010401 0.9128600614 2.872216404e-20)
(97.38647405 1.583685544 -1.550539427e-19)
(96.42866121 2.629235686 7.000758967e-19)
(95.36892602 4.208847546 0)
(94.3483401 6.786678684 -1.682962176e-19)
(94.3943359 10.90645901 -6.277647903e-20)
(98.18380149 14.88083521 0)
(103.6725769 13.72237541 0)
(105.6978656 9.555172494 4.695522441e-19)
(105.1594967 5.989330982 2.47762196e-19)
(103.8988502 3.645974004 0)
(102.8179437 2.249692285 -9.521453986e-20)
(102.0113568 1.287289794 2.43760874e-20)
(101.3808004 0.7612904241 -1.622644333e-20)
(100.8699954 0.3160742245 0)
(100.5836224 0.170149926 0)
(100.4082319 0.07563544633 -9.934653077e-22)
(100.3259504 0.02153138691 -2.974550977e-21)
(99.92046998 -0.03721680748 4.404056902e-21)
(99.83627058 -0.1058587277 -4.43900652e-21)
(99.662236 -0.1505473994 9.066222169e-21)
(99.36771716 -0.1613554939 -3.312061779e-20)
(99.03741698 -0.03748049969 6.327314639e-23)
(98.43631056 0.1338926641 2.847737578e-20)
(97.57808599 0.4518482748 4.171772402e-20)
(96.65673419 1.011683737 3.50901041e-19)
(95.28596443 1.88218741 -8.209489494e-19)
(93.48092213 3.285327243 1.736272813e-18)
(90.82799357 5.913610274 4.40205946e-19)
(87.30549646 12.52383171 -7.47637386e-20)
(94.1827221 24.88058269 0)
(109.8259445 19.92515779 -7.9188285e-19)
(110.6164393 11.13993506 3.481282329e-19)
(108.1762659 6.030241644 0)
(105.6488168 3.301433178 5.70264096e-19)
(103.8174471 1.861937933 -4.142308354e-19)
(102.5891367 0.9371574285 0)
(101.7513007 0.49368891 8.735327586e-21)
(101.0462292 0.1159066249 2.594699088e-21)
(100.6783785 0.0333012204 -3.072292314e-21)
(100.4575505 -0.003451300691 -3.494862545e-21)
(100.3526704 -0.004047698522 8.434094349e-21)
(100.014591 -0.06897520054 -4.404523315e-21)
(99.91820376 -0.2033907107 4.440600368e-21)
(99.72161423 -0.3228554263 -5.643985831e-21)
(99.38683124 -0.4198719327 -3.806737336e-21)
(98.98047339 -0.3694342452 1.625589064e-20)
(98.28386841 -0.3369414993 9.720017953e-21)
(97.30849416 -0.2268651295 -9.664766352e-21)
(96.17586584 0.1062954983 7.418429214e-19)
(94.50831165 0.5831954695 1.323308701e-18)
(92.14666737 1.316678694 0)
(88.08453102 2.441750653 9.797387336e-19)
(79.78767514 4.607318356 0)
(125.2685157 22.59760579 -2.553386252e-20)
(117.4442467 9.208282231 1.11877939e-18)
(111.4850701 4.3785384 1.662401883e-18)
(107.31574 2.114377528 -1.25877573e-18)
(104.696171 1.021329668 -4.421178351e-19)
(103.0183972 0.327803357 -4.606379838e-21)
(102.0167361 0.06894143077 1.968114598e-20)
(101.133032 -0.1684830426 -3.149972448e-21)
(100.700792 -0.1563714518 2.580264026e-21)
(100.4446416 -0.1105333371 -4.801106183e-22)
(100.3210901 -0.03868391936 -7.903315621e-21)
(100.1742012 -0.1044282582 -2.127603167e-21)
(100.0712349 -0.3122330949 -1.599528453e-21)
(99.86377679 -0.5157113024 -5.486232132e-22)
(99.50986093 -0.7106058064 1.665838553e-21)
(99.0498038 -0.7558813788 -3.215252395e-23)
(98.31104471 -0.8896195826 0)
(97.30166566 -1.023685126 4.964659537e-20)
(96.06607297 -0.9807490254 9.591050407e-20)
(94.32105154 -0.9700003797 1.837873902e-18)
(91.94312798 -1.017638332 -9.981830099e-19)
(88.25868088 -1.554519271 2.011273774e-18)
(83.24442713 -3.692112134 0)
(137.9620775 6.356645034 2.398950847e-18)
(122.097812 2.442982063 -3.013790057e-18)
(113.6863996 0.8694309949 0)
(108.3826768 0.1277096303 0)
(105.2124526 -0.2025545655 -1.502756114e-19)
(103.204764 -0.4738881745 -4.676624001e-21)
(102.1044339 -0.477132126 1.101004038e-20)
(101.0978002 -0.5111337679 1.07642816e-21)
(100.6281074 -0.3818785131 0)
(100.3512077 -0.2368351615 3.978788945e-21)
(100.2157658 -0.07965380556 3.935325303e-21)
(100.4040277 -0.1406814956 4.192546105e-21)
(100.3006294 -0.4234373163 6.373653335e-23)
(100.0949515 -0.7122404004 0)
(99.74460118 -1.007164911 2.174177288e-22)
(99.25858808 -1.157968609 -2.236191433e-21)
(98.53381209 -1.460203895 2.393655751e-21)
(97.56838726 -1.827849978 1.225254838e-19)
(96.35074153 -2.059892884 1.053335075e-18)
(94.72530303 -2.432779511 -5.78851066e-21)
(92.62820266 -2.993417855 0)
(89.73945375 -4.146005222 3.022840768e-21)
(86.62792003 -6.094047317 -1.189865654e-18)
(134.8714451 -10.03775212 2.2650439e-18)
(121.7040862 -5.446132071 1.53067438e-18)
(113.7197302 -3.330583465 -2.316668873e-19)
(108.4136378 -2.206350347 -1.544521475e-18)
(105.1881924 -1.603880476 -1.302961368e-18)
(103.0834065 -1.359841712 3.947542055e-20)
(101.975662 -1.080881341 0)
(100.9223234 -0.8758224216 -1.050787693e-21)
(100.447045 -0.6209990588 -4.379708841e-21)
(100.1665142 -0.370761067 4.894085735e-22)
(100.0275043 -0.123185448 0)
(100.7030397 -0.1749539878 -2.064760361e-21)
(100.6049137 -0.5282511095 2.084028525e-21)
(100.4123645 -0.8961752164 2.033668656e-21)
(100.08808 -1.284664054 -1.90755396e-21)
(99.60041377 -1.538860752 -2.206928119e-21)
(98.93641398 -1.988988937 0)
(98.07212406 -2.553957959 2.560562106e-21)
(96.95049457 -3.009250634 0)
(95.52369204 -3.644298763 0)
(93.74276555 -4.486552447 -8.771592986e-19)
(91.37310779 -5.835505106 -8.440662406e-19)
(88.88575105 -7.495897581 -2.086150135e-19)
(125.7778849 -18.93674397 1.662909712e-18)
(117.7243811 -11.1641501 -1.1568569e-18)
(111.8145056 -6.798600682 -2.000359052e-19)
(107.4357174 -4.289938914 1.258331459e-18)
(104.6105941 -2.924865636 5.653699255e-19)
(102.6502772 -2.202290528 0)
(101.6294003 -1.664273407 -2.591633808e-20)
(100.6047174 -1.224287051 -1.31946393e-20)
(100.1566217 -0.8501608168 1.001278638e-21)
(99.88924786 -0.4998713483 -3.168935657e-21)
(99.75490912 -0.1652859786 4.640538652e-22)
(101.0648281 -0.2048553237 7.562126885e-21)
(100.9768519 -0.6190778799 0)
(100.8058377 -1.051817664 -2.029676563e-21)
(100.5225036 -1.529262891 0)
(100.0497206 -1.869548067 0)
(99.48558869 -2.432590796 -6.564116387e-21)
(98.75963007 -3.146932999 -6.989004046e-20)
(97.77926556 -3.76528712 1.063904207e-18)
(96.57526757 -4.569806757 4.189114354e-19)
(95.0800266 -5.587799169 -8.347003589e-19)
(93.04055248 -7.099652252 0)
(90.72413468 -8.794451601 5.53584396e-19)
(116.2362064 -22.04657566 1.051149694e-18)
(112.4440575 -13.93654516 4.758952375e-19)
(108.8876769 -8.873775463 4.992093127e-19)
(105.7964874 -5.747569122 2.860358837e-19)
(103.6142683 -3.961878041 0)
(101.9599711 -2.897220469 2.073600004e-21)
(101.0983626 -2.162494241 -3.166861714e-20)
(100.1650253 -1.530373679 7.812443759e-21)
(99.76829986 -1.047545434 0)
(99.52708401 -0.6132822576 3.64844427e-21)
(99.40429937 -0.2024362563 0)
(101.4791115 -0.229497832 7.552427391e-21)
(101.4041226 -0.6944619737 1.191866181e-19)
(101.2584448 -1.178874523 -2.401887772e-19)
(101.0198811 -1.721663538 -5.664878798e-22)
(100.6079184 -2.124415789 -1.905708424e-21)
(100.1440671 -2.765284226 0)
(99.57754904 -3.578710239 4.21442182e-19)
(98.7566831 -4.294866826 -6.622284822e-19)
(97.79075876 -5.196383074 -7.389109339e-19)
(96.58517368 -6.334722739 -4.485933493e-20)
(94.90602268 -8.067601225 -6.446070131e-19)
(92.86229295 -10.08528197 5.325775672e-19)
(103.4027434 -31.10818123 -4.087819731e-19)
(107.5780503 -20.34558542 -3.168202382e-19)
(107.4379179 -14.17203978 -2.930336056e-19)
(105.8193173 -9.569778843 7.277002921e-19)
(103.9124163 -6.496483619 0)
(102.3916623 -4.626814497 0)
(101.1046898 -3.382419634 -6.343259102e-20)
(100.4319073 -2.531887831 0)
(99.63651118 -1.763984521 0)
(99.30181473 -1.201174486 1.144246821e-20)
(99.09469476 -0.7037421886 2.108051487e-21)
(98.98822996 -0.232122484 -6.84697086e-21)
(101.9325456 -0.2465654758 0)
(101.8721681 -0.7473562482 0)
(101.7555344 -1.266591332 0)
(101.5640129 -1.84425674 0)
(101.2114895 -2.306206992 0)
(100.8499534 -3.00043013 0)
(100.4318895 -3.86358646 -1.11607481e-19)
(99.79275192 -4.618461253 -1.85989425e-20)
(99.06097942 -5.550020835 -2.408360124e-20)
(98.166228 -6.730061203 2.949273485e-19)
(96.97789278 -8.568876443 -4.931324859e-19)
(95.77041976 -11.20566696 9.587446486e-19)
(96.4807968 -20.38123737 -1.634585162e-19)
(102.3838862 -16.72233523 0)
(103.6463792 -12.80333418 -4.348424117e-20)
(103.1653152 -9.255383311 1.730935563e-19)
(102.1016077 -6.645581764 0)
(101.1132399 -4.934569464 -4.131024506e-20)
(100.1807985 -3.653753566 -8.896843991e-20)
(99.69524296 -2.767007037 -3.347638656e-20)
(99.0508048 -1.91353518 -1.864290565e-20)
(98.78028226 -1.307130473 1.839117064e-20)
(98.6110018 -0.7672603706 0)
(98.52313734 -0.252949107 1.837940075e-20)
(102.4116282 -0.2560993138 0)
(102.3665622 -0.7771348948 0)
(102.2810276 -1.315229926 0)
(102.1377737 -1.902606981 0)
(101.843409 -2.394861429 0)
(101.5892808 -3.10357009 0)
(101.3122587 -3.947071907 1.104798587e-19)
(100.8377403 -4.739035005 -4.878121687e-19)
(100.3072082 -5.659477833 -1.618362656e-18)
(99.70564868 -6.754841533 -9.852293533e-19)
(99.07624723 -8.311502515 0)
(98.85891496 -10.71988151 -2.357008846e-19)
(97.9603423 -13.31737246 6.107708053e-20)
(100.3037139 -12.87828745 3.735988515e-21)
(101.248354 -10.8271576 -1.953717192e-19)
(101.1295384 -8.409457193 -5.334789792e-19)
(100.5327134 -6.396952008 -3.289635259e-19)
(99.91190571 -4.966085699 -2.403938501e-20)
(99.25901419 -3.739975164 0)
(98.94279413 -2.876770757 0)
(98.43742036 -1.984959642 -3.480878196e-20)
(98.22797645 -1.36459261 1.717742369e-20)
(98.09620096 -0.802755142 7.189573506e-22)
(98.02686499 -0.2646549608 -1.266716001e-20)
(102.9024192 -0.2585777793 0)
(102.8715504 -0.7846999473 0)
(102.8147951 -1.326377674 0)
(102.7160324 -1.905789219 0)
(102.4751679 -2.407518713 0)
(102.3119824 -3.097831533 0)
(102.1453062 -3.888064956 0)
(101.8139543 -4.683945705 -1.170028601e-18)
(101.4344272 -5.567813877 4.290700048e-19)
(101.029028 -6.524903887 0)
(100.7011637 -7.677419728 0)
(97.50300929 -8.60947366 9.116289244e-19)
(98.92990417 -10.18223947 -1.08586602e-19)
(99.62177854 -10.09556962 0)
(99.83969977 -8.967596185 -4.82638145e-21)
(99.64670909 -7.390244509 2.118511051e-19)
(99.25048273 -5.933491482 1.444551099e-19)
(98.84720946 -4.786063412 0)
(98.40435386 -3.683022064 -2.972214726e-20)
(98.21183128 -2.877581894 4.494057928e-20)
(97.82386102 -1.989582791 1.085292564e-20)
(97.668039 -1.378759228 1.850813918e-20)
(97.56934701 -0.8128052414 -2.102851019e-20)
(97.51655182 -0.2679869166 0)
(103.3920837 -0.2550438171 0)
(103.3732847 -0.7733223825 0)
(103.3403318 -1.305491712 0)
(103.2786411 -1.862802338 0)
(103.085385 -2.357340035 0)
(102.9931681 -3.00695977 0)
(102.9064109 -3.723643287 0)
(102.6753269 -4.470357793 2.384973944e-21)
(102.392478 -5.292621447 0)
(102.0644169 -6.102752018 -7.469877662e-20)
(101.9378908 -6.962160152 -9.07259565e-19)
(93.77361788 -6.789908241 0)
(99.43119969 -8.229351442 -1.813318629e-19)
(99.21984304 -8.150266873 -2.099119182e-19)
(98.91489405 -7.435643272 0)
(98.57207177 -6.411226895 0)
(98.23544084 -5.398525994 -7.494164309e-21)
(97.94505603 -4.484458668 0)
(97.63946234 -3.525993167 0)
(97.52662972 -2.793900929 0)
(97.23158287 -1.941396855 3.7704679e-20)
(97.11893113 -1.356883534 -3.527795407e-20)
(97.04672799 -0.801125823 -2.378734625e-21)
(97.00732777 -0.2644905581 2.386744967e-21)
(103.8697533 -0.2467163986 0)
(103.8606283 -0.746938511 0)
(103.8459909 -1.259277294 0)
(103.8128734 -1.784019073 0)
(103.6584215 -2.258035161 0)
(103.6163194 -2.854076066 0)
(103.579375 -3.488494533 0)
(103.4043628 -4.142586278 0)
(103.1551919 -4.858500125 4.499554966e-20)
(102.8112005 -5.536638118 1.669344402e-18)
(102.1083527 -6.162508432 -6.320335174e-19)
(96.04279286 -6.460860784 0)
(99.4732836 -6.879075636 1.404099454e-19)
(98.81424244 -6.739565606 2.094652893e-19)
(98.23399566 -6.244108303 3.727405956e-19)
(97.79033 -5.576539434 0)
(97.44685608 -4.85068348 0)
(97.19791071 -4.121045281 0)
(96.965813 -3.299958205 0)
(96.90000038 -2.648877457 0)
(96.67332546 -1.852362305 0)
(96.59279091 -1.3050842 0)
(96.54094392 -0.7729115274 0)
(96.51167587 -0.2561646409 0)
(104.3271605 -0.2347841362 0)
(104.325327 -0.7093801391 0)
(104.3237248 -1.194385387 0)
(104.3108434 -1.680324381 0)
(104.1853806 -2.124764098 0)
(104.1739514 -2.661795262 0)
(104.1613715 -3.216662142 0)
(104.0082233 -3.77585537 0)
(103.7566715 -4.353747862 0)
(103.3791552 -4.904525237 1.268187027e-21)
(100.9070873 -5.257807439 -1.011405106e-19)
(98.73796243 -5.722707202 2.864507088e-21)
(99.35854368 -5.799391357 0)
(98.48125192 -5.665624729 0)
(97.76299201 -5.337417948 0)
(97.22402819 -4.869418311 0)
(96.83486007 -4.318013305 0)
(96.58517991 -3.734638352 0)
(96.38341409 -3.038217391 0)
(96.33945264 -2.468010486 0)
(96.1573448 -1.737474787 0)
(96.09816601 -1.233168389 0)
(96.05998806 -0.7321184058 0)
(96.03867051 -0.2431894624 0)
(104.7584869 -0.2203813679 0)
(104.7616767 -0.6642744236 0)
(104.7682325 -1.117034298 0)
(104.7679848 -1.56156538 0)
(104.6626801 -1.97133003 0)
(104.6659027 -2.449168839 0)
(104.6578018 -2.933067596 0)
(104.5058794 -3.404253695 0)
(104.2307308 -3.870592147 0)
(103.807553 -4.29693513 0)
(100.8145908 -4.516438859 0)
(99.34672663 -4.892717551 0)
(99.32974171 -4.937607238 0)
(98.28573201 -4.840273687 0)
(97.43496727 -4.601045616 0)
(96.79943039 -4.250931177 0)
(96.35484751 -3.823843363 0)
(96.08193816 -3.353013187 0)
(95.88450067 -2.764156504 0)
(95.84385359 -2.269638828 0)
(95.68735189 -1.608504554 0)
(95.64042265 -1.149118057 0)
(95.61014963 -0.6836854156 0)
(95.59384167 -0.2275211756 0)
(105.160072 -0.2045318231 0)
(105.1662746 -0.6148814962 0)
(105.1767813 -1.032736475 0)
(105.1826681 -1.435665889 0)
(105.0905611 -1.808812134 0)
(105.0962486 -2.230792411 0)
(105.0783885 -2.651507381 0)
(104.9162865 -3.046652739 0)
(104.6076876 -3.425503376 0)
(104.1247541 -3.759352312 0)
(100.8328855 -3.913611204 0)
(99.60464861 -4.221377893 0)
(99.31572208 -4.239811038 -2.284671854e-35)
(98.14425491 -4.163837771 0)
(97.18967473 -3.982620198 0)
(96.47318698 -3.713724089 0)
(95.97337961 -3.377040404 0)
(95.66685959 -2.99314021 0)
(95.45814548 -2.49434508 0)
(95.40848918 -2.067171977 0)
(95.26347038 -1.474294544 0)
(95.2215259 -1.059222686 0)
(95.19448523 -0.631396368 0)
(95.18092964 -0.2105258308 0)
(105.5300715 -0.1880836476 0)
(105.5376361 -0.5638856993 0)
(105.5487719 -0.9460260288 0)
(105.5556313 -1.308645872 0)
(105.4713763 -1.645411771 0)
(105.4710258 -2.016530791 0)
(105.4343203 -2.380130767 0)
(105.255921 -2.713277726 0)
(104.9110777 -3.023601631 0)
(104.3667054 -3.289774649 0)
(100.8691001 -3.405567513 0)
(99.75765915 -3.662657419 0)
(99.29832543 -3.664452403 0)
(98.03453943 -3.601895272 0)
(97.00058541 -3.460060552 0)
(96.21723073 -3.248700297 0)
(95.66618122 -2.97898644 0)
(95.32266445 -2.663532625 0)
(95.09313557 -2.239122718 0)
(95.02714664 -1.869826421 0)
(94.88369696 -1.341154715 0)
(94.84127147 -0.9682909045 0)
(94.81394256 -0.5781545117 0)
(94.80134674 -0.1931629438 0)
(105.8681318 -0.1716906295 0)
(105.8757733 -0.5133211577 0)
(105.885103 -0.8603299894 0)
(105.8891358 -1.184919976 0)
(105.8086393 -1.486876078 0)
(105.7967894 -1.812416019 0)
(105.7370419 -2.125496533 0)
(105.5382125 -2.408295955 0)
(105.1583418 -2.664859132 0)
(104.5552138 -2.880424507 0)
(100.9235259 -2.972519868 0)
(99.84970893 -3.19136675 0)
(99.27848724 -3.182928932 -3.130166156e-35)
(97.94659989 -3.129925683 0)
(96.85109419 -3.016084517 0)
(96.01272476 -2.846643378 0)
(95.41572993 -2.627443053 0)
(95.03566086 -2.365868229 0)
(94.77966109 -2.003414395 0)
(94.69334284 -1.683242382 0)
(94.54478837 -1.213418732 0)
(94.49804288 -0.8797585402 0)
(94.46795429 -0.5260484437 0)
(94.45497165 -0.1761133473 0)
(106.1750283 -0.1558340966 0)
(106.1817809 -0.4646476817 0)
(106.1876087 -0.7780719431 0)
(106.1861916 -1.067537075 0)
(106.1064576 -1.33699547 0)
(106.0797824 -1.622098706 0)
(105.9952257 -1.891802024 0)
(105.7744306 -2.132921532 0)
(105.3623806 -2.347011406 0)
(104.7045997 -2.523906048 0)
(100.9961206 -2.601450001 0)
(99.90329836 -2.79107643 0)
(99.257279 -2.775983645 0)
(97.87448301 -2.7302845 0)
(96.73046673 -2.637177413 0)
(95.84672326 -2.49911466 0)
(95.2091572 -2.31870001 0)
(94.79428292 -2.099785675 0)
(94.50978952 -1.788997651 0)
(94.40095494 -1.510615372 0)
(94.24298164 -1.093856776 0)
(94.18939845 -0.7959090628 0)
(94.15491307 -0.4764946124 0)
(94.1405711 -0.1598443997 0)
(106.4522974 -0.1408540586 0)
(106.4574619 -0.4188699839 0)
(106.4586683 -0.7008833725 0)
(106.4501028 -0.9584569479 0)
(106.3690116 -1.198122012 0)
(106.3257381 -1.447696414 0)
(106.2160325 -1.680453688 0)
(105.9734174 -1.886808728 0)
(105.5326772 -2.067032266 0)
(104.8248587 -2.21381507 0)
(101.0847639 -2.282329845 0)
(99.93171927 -2.449554602 0)
(99.23544898 -2.429973619 1.073357111e-35)
(97.81438929 -2.390092464 0)
(96.63156516 -2.312858954 0)
(95.71017492 -2.19886444 0)
(95.03702013 -2.048744976 0)
(94.58971577 -1.863978809 0)
(94.27654252 -1.596352152 0)
(94.14445051 -1.353515121 0)
(93.97442462 -0.9840694185 0)
(93.9124726 -0.7181608041 0)
(93.87257665 -0.4304008919 0)
(93.85620055 -0.1446620708 0)
(106.7019659 -0.1269765511 0)
(106.7050608 -0.3766375124 0)
(106.700969 -0.6297891217 0)
(106.6842511 -0.8588072622 0)
(106.6003727 -1.071512866 0)
(106.5397828 -1.290092429 0)
(106.4055291 -1.491471248 0)
(106.1421584 -1.668690088 0)
(105.676218 -1.821649537 0)
(104.9231764 -1.944658358 0)
(101.1865359 -2.007348038 0)
(99.9431811 -2.15748479 0)
(99.21348525 -2.134771194 0)
(97.76371973 -2.099642964 0)
(96.54944786 -2.034879883 0)
(95.59658153 -1.939735424 0)
(94.89226141 -1.813643021 0)
(94.41511092 -1.656504272 0)
(94.07404265 -1.425039078 0)
(93.91888567 -1.212421284 0)
(93.73536333 -0.8848206804 0)
(93.66421708 -0.6473048806 0)
(93.61835299 -0.3882976339 0)
(93.59950037 -0.130750404 0)
(106.9263726 -0.1143371218 0)
(106.9270869 -0.3383240162 0)
(106.9173486 -0.565358533 0)
(106.8919768 -0.7691254395 0)
(106.8043334 -0.9577087592 0)
(106.7264007 -1.149408761 0)
(106.5687489 -1.324187618 0)
(106.2861782 -1.476912757 0)
(105.7982145 -1.607731517 0)
(105.0047446 -1.711769789 0)
(101.2983316 -1.770455912 0)
(99.94293117 -1.907688082 0)
(99.19168401 -1.882710841 0)
(97.7206103 -1.851522769 0)
(96.48058222 -1.796743509 0)
(95.50118328 -1.716603678 0)
(94.76953761 -1.609799519 0)
(94.26510481 -1.475198451 0)
(93.89742194 -1.274124283 0)
(93.71993846 -1.087166403 0)
(93.52222334 -0.7963159421 0)
(93.44154388 -0.5836866053 0)
(93.38947682 -0.350437765 0)
(93.36787971 -0.1182023221 0)
(107.1280405 -0.1030039234 0)
(107.1261883 -0.3041006636 0)
(107.1106846 -0.5078317921 0)
(107.0765012 -0.6895394226 0)
(106.984443 -0.8567340653 0)
(106.8895717 -1.025260452 0)
(106.7099559 -1.177544154 0)
(106.4099291 -1.309652054 0)
(105.9026947 -1.422363753 0)
(105.0733908 -1.511149298 0)
(101.4171395 -1.566915865 0)
(99.93448108 -1.694409685 0)
(99.17019997 -1.66782332 0)
(97.6836496 -1.639916361 0)
(96.42233332 -1.593227194 0)
(95.42037658 -1.525167966 0)
(94.66468927 -1.433981739 0)
(94.13538502 -1.317868604 0)
(93.74256622 -1.142383646 0)
(93.5437758 -0.9771689538 0)
(93.33165143 -0.7183964581 0)
(93.24141848 -0.5273455247 0)
(93.18312767 -0.3168804505 0)
(93.1586416 -0.1070464028 0)
(107.309534 -0.09299999145 0)
(107.3050177 -0.2740043181 0)
(107.2837798 -0.4572345211 0)
(107.2408511 -0.6199321289 0)
(107.1439448 -0.7683253432 0)
(107.0327863 -0.9170083516 0)
(106.832746 -1.050336521 0)
(106.5170127 -1.165108967 0)
(105.9928316 -1.262957249 0)
(105.1319835 -1.339411834 0)
(101.5401958 -1.392876319 0)
(99.92037997 -1.513082983 0)
(99.1490921 -1.485437668 0)
(97.65172242 -1.460238852 0)
(96.37267735 -1.420139118 0)
(95.35137403 -1.361867761 0)
(94.57442802 -1.283384279 0)
(94.02244311 -1.182457298 0)
(93.60601157 -1.028517965 0)
(93.38703628 -0.8816562403 0)
(93.16056544 -0.6507059469 0)
(93.06095354 -0.4781350874 0)
(92.99655013 -0.2875643031 0)
(92.96911502 -0.09727083473 0)
(107.4734606 -0.08431736461 0)
(107.4662364 -0.2479830736 0)
(107.4393817 -0.4134545884 0)
(107.3879121 -0.5600293677 0)
(107.2858121 -0.6920589909 0)
(107.1591358 -0.8239038688 0)
(106.9401234 -0.9412630914 0)
(106.6104261 -1.041588148 0)
(106.0712009 -1.127244121 0)
(105.1827101 -1.19371785 0)
(101.6650635 -1.245221706 0)
(99.90257593 -1.36008799 0)
(99.12834849 -1.331800906 0)
(97.62390448 -1.308799663 0)
(96.32999888 -1.274061083 0)
(95.29194903 -1.223730066 0)
(94.49608146 -1.155588057 0)
(93.92330634 -1.067129333 0)
(93.48479706 -0.9312856022 0)
(93.24673954 -0.7997863122 0)
(93.0060829 -0.5927732111 0)
(92.89737816 -0.4357992068 0)
(92.82704195 -0.2623540198 0)
(92.79664645 -0.08883793577 0)
(107.6221939 -0.07693553722 0)
(107.612265 -0.2259446271 0)
(107.5799617 -0.3763032995 0)
(107.5202356 -0.5095392787 0)
(107.4127588 -0.6274349525 0)
(107.2713981 -0.7451909267 0)
(107.0346347 -0.8487473807 0)
(106.6926264 -0.9376658674 0)
(106.1399265 -1.013279468 0)
(105.2272897 -1.071701742 0)
(101.7897746 -1.121476268 0)
(99.8825194 -1.232502319 0)
(99.10791475 -1.20387945 -1.565142039e-36)
(97.59941222 -1.182623565 0)
(96.29297331 -1.152212012 0)
(95.24028541 -1.108290076 0)
(94.42746837 -1.048540378 0)
(93.83562135 -0.9705153415 0)
(93.37623225 -0.849688292 0)
(93.1202136 -0.7306978871 0)
(92.86569658 -0.5441424575 0)
(92.74823739 -0.4000312377 0)
(92.67218315 -0.2410879639 0)
(92.63885892 -0.08170250429 0)
(107.7587049 -0.07081063288 0)
(107.7460465 -0.2077505035 0)
(107.7084343 -0.345548008 0)
(107.6407424 -0.4680010259 0)
(107.5273167 -0.5739513901 0)
(107.372095 -0.6800397585 0)
(107.1190234 -0.7719253043 0)
(106.7655777 -0.851923291 0)
(106.2007838 -0.9193714691 0)
(105.2670795 -0.9713495215 0)
(101.9127666 -1.019591227 0)
(99.86135638 -1.127900406 0)
(99.08772704 -1.099222128 0)
(97.57757186 -1.079317325 0)
(96.26048407 -1.052340153 0)
(95.19485856 -1.013515031 0)
(94.36675559 -0.9604683431 0)
(93.75748005 -0.8910052021 0)
(93.27792233 -0.7826016189 0)
(93.00505254 -0.6735943332 0)
(92.73656279 -0.5042199617 0)
(92.61068397 -0.3705060935 0)
(92.52908626 -0.2235710096 0)
(92.49282873 -0.07579996576 0)
(107.8833772 -0.06595158896 0)
(107.8681105 -0.1933621574 0)
(107.8254069 -0.3210048012 0)
(107.7501001 -0.4355163325 0)
(107.6318095 -0.5310214503 0)
(107.4634779 -0.6276371787 0)
(107.1957898 -0.7109305977 0)
(106.8311057 -0.7829573113 0)
(106.2553422 -0.8440609494 0)
(105.3031936 -0.8910095586 0)
(102.0328032 -0.9379323844 0)
(99.84006294 -1.044312938 0)
(99.06772646 -1.015854658 0)
(97.55779042 -0.9969529156 0)
(96.23155654 -0.9726220144 0)
(95.15433178 -0.9377382967 0)
(94.31226842 -0.8898760219 0)
(93.68674147 -0.8266677403 0)
(93.18804557 -0.7286149386 0)
(92.8990065 -0.6275628023 0)
(92.61814514 -0.4730071515 0)
(92.48420296 -0.346956785 0)
(92.39730066 -0.2097202817 0)
(92.35826091 -0.07112570897 0)
(108.0059247 -0.06218714018 0)
(107.9876942 -0.1824274938 0)
(107.9397295 -0.3023262951 0)
(107.8562232 -0.4098648909 0)
(107.7289777 -0.4983610423 0)
(107.5474981 -0.5877180568 0)
(107.2660491 -0.6651199547 0)
(106.8911066 -0.7299371341 0)
(106.3050263 -0.7862123279 0)
(105.3366074 -0.829398874 0)
(102.148924 -0.8752494762 0)
(99.81950022 -0.980218745 0)
(99.04786033 -0.95225451 0)
(97.53953727 -0.9340340476 0)
(96.20532614 -0.9116335543 0)
(95.1175242 -0.8796569205 0)
(94.26252365 -0.8356514276 0)
(93.62159838 -0.7771816045 0)
(93.1048192 -0.6871720749 0)
(92.80023449 -0.5927531815 0)
(92.50246452 -0.4481056475 0)
(92.35989446 -0.3289950968 0)
(92.26753501 -0.1991408277 0)
(92.22532695 -0.0674852478 0)
(108.0997853 -0.05999453615 0)
(108.0796124 -0.1758034378 0)
(108.0275789 -0.2905535827 0)
(107.9386529 -0.396184664 0)
(107.8185904 -0.4752250136 0)
(107.62586 -0.5596034925 0)
(107.3313865 -0.6333171608 0)
(106.9469453 -0.6921585767 0)
(106.3510942 -0.7449444757 0)
(105.3682038 -0.7855231947 0)
(102.2605166 -0.8306148685 0)
(99.80045836 -0.934542112 0)
(99.02806027 -0.9072932631 0)
(97.52231243 -0.8894323219 0)
(96.18099888 -0.8682878896 0)
(95.08336977 -0.8382653606 0)
(94.21622394 -0.7969034554 0)
(93.56068008 -0.7417347312 0)
(93.02656785 -0.6577333405 0)
(92.70724328 -0.5682165841 0)
(92.41136512 -0.4347521163 0)
(92.26295684 -0.3176081354 0)
(92.16638514 -0.1927135031 0)
(92.12217329 -0.06539357264 0)
(108.2753121 -0.05765022393 0)
(108.2510651 -0.1698947223 0)
(108.1912809 -0.2805328037 0)
(108.0886034 -0.3800879143 0)
(107.9010802 -0.4622786486 0)
(107.6966569 -0.5434607936 0)
(107.3907097 -0.6156114022 0)
(106.9998754 -0.6689809519 0)
(106.3946627 -0.71952797 0)
(105.3987985 -0.7586357859 0)
(102.3670422 -0.803379669 0)
(99.78355215 -0.906670629 0)
(99.00826632 -0.8801808181 0)