/*--------------------------------*- C++ -*----------------------------------*\
| =========                 |                                                 |
| \\      /  F ield         | OpenFOAM: The Open Source CFD Toolbox           |
|  \\    /   O peration     | Version:  v1912                                 |
|   \\  /    A nd           | Website:  www.openfoam.com                      |
|    \\/     M anipulation  |                                                 |
\*---------------------------------------------------------------------------*/
FoamFile
{
    version     2.0;
    format      ascii;
    class       volVectorField;
    location    "1.3";
    object      U;
}
// * * * * * * * * * * * * * * * * * * * * * * * * * * * * * * * * * * * * * //

dimensions      [0 1 -1 0 0 0 0];


internalField   nonuniform List<vector> 
12556
(
(99.99913638 0.002098706131 -3.660024188e-21)
(99.99879184 0.007203525591 3.543142305e-26)
(99.99789362 0.01558597328 -3.656056266e-21)
(99.9963741 0.02943490126 -3.636993625e-21)
(99.9997404 0.02353828857 3.513581916e-21)
(99.99812762 0.03939227234 0)
(99.99708761 0.06435025367 0)
(99.99671631 0.09930139496 -6.254190319e-21)
(99.9956661 0.1466275197 7.341292557e-22)
(99.99480535 0.2063197664 -4.87305338e-21)
(99.99457849 0.2733113086 5.848397969e-22)
(99.99560523 0.3360670638 0)
(99.99802849 0.3782112337 0)
(100.0011363 0.3864427914 8.396082106e-22)
(100.0036127 0.359309674 -1.389330352e-21)
(100.0049577 0.3075334768 8.735373251e-22)
(100.0051036 0.2458909966 0)
(100.0047936 0.1864808964 1.480479149e-21)
(100.0045667 0.1340976336 6.09161926e-21)
(100.0024563 0.09523920282 -1.7238317e-21)
(100.0101536 0.1098777856 -1.502325493e-20)
(100.007042 0.06825431583 0)
(100.0052218 0.03654180772 -1.892203106e-21)
(100.0050846 0.01153893773 -1.332983406e-20)
(99.99232302 0.005375374661 1.465384227e-20)
(99.98855427 0.01883189743 3.662602792e-21)
(99.98022451 0.04147985427 2.559981858e-20)
(99.96592162 0.07942996518 -1.096479227e-20)
(99.96729285 0.1102187169 3.538788457e-21)
(99.94513303 0.1867397886 -3.655980739e-23)
(99.91528897 0.3053999698 0)
(99.89806148 0.4157256985 -6.254433541e-21)
(99.86150755 0.621136152 -5.838492869e-21)
(99.82829086 0.8866717022 -1.029689967e-20)
(99.8123965 1.194537498 -4.319067332e-21)
(99.83216999 1.495310652 -5.720742069e-21)
(99.89647594 1.710767253 -1.357567031e-21)
(99.98460644 1.76728661 1.256259189e-23)
(100.06752 1.657283907 -4.659499112e-22)
(100.1185904 1.422552521 4.476337789e-21)
(100.1339362 1.137437185 -8.89535102e-21)
(100.1215623 0.8649425779 0)
(100.1321868 0.6590742964 -2.594344473e-20)
(100.0956908 0.4537835534 5.010649798e-20)
(100.095499 0.3151867617 1.45475629e-20)
(100.0675593 0.1950705189 3.005875269e-20)
(100.0511267 0.1048238873 -3.014778031e-20)
(100.0450508 0.03319556974 1.522305048e-20)
(99.97999837 0.006198384108 -1.46212274e-20)
(99.96942324 0.02280183812 -2.934803806e-20)
(99.9466673 0.05306856913 -6.588183026e-20)
(99.90872511 0.1055141997 8.767684586e-20)
(99.88778799 0.1694301272 -7.238777857e-21)
(99.82169161 0.2976036586 -7.069391559e-21)
(99.73033277 0.4976887826 -1.228235151e-20)
(99.67426887 0.7220476192 0)
(99.55751855 1.105723588 2.415538498e-20)
(99.44788331 1.617675508 0)
(99.39455494 2.245905134 -2.947133478e-19)
(99.47664549 2.881351653 0)
(99.72250271 3.350347067 -2.285810334e-19)
(100.0566191 3.468791182 0)
(100.3508429 3.227908618 -1.976902689e-19)
(100.5191317 2.737838982 1.414853655e-20)
(100.5505817 2.15242252 -9.570062368e-21)
(100.4916012 1.59616682 -2.286315556e-20)
(100.4395562 1.13319693 -1.556209534e-19)
(100.3265244 0.7689990503 -3.471396393e-20)
(100.2654616 0.4803289684 -1.495384613e-20)
(100.190457 0.2955311854 3.400272366e-20)
(100.1448757 0.1588850456 -3.825301942e-21)
(100.125112 0.05008366218 0)
(99.96756943 0.003101739865 -7.363109005e-21)
(99.94741235 0.01447712482 5.156453847e-20)
(99.90460607 0.04297004372 -1.475044492e-20)
(99.83433691 0.09669229859 0)
(99.77716849 0.1843718224 0)
(99.64754972 0.3455874052 -5.701898025e-20)
(99.46463821 0.6058377942 -1.141641833e-19)
(99.30978618 0.9304367233 2.693372684e-20)
(99.04394268 1.476545276 -5.149771266e-20)
(98.76463434 2.26720275 3.540803347e-19)
(98.6075636 3.302927699 -6.609782782e-19)
(98.76338027 4.4554535 -4.453511956e-19)
(99.37356369 5.32284196 6.888559294e-21)
(100.2338059 5.48604273 1.235335394e-19)
(100.9140504 4.962644924 0)
(101.2354665 4.075788129 -2.790886071e-19)
(101.2578864 3.105842521 -8.758683836e-20)
(101.1061425 2.24144637 0)
(100.9186648 1.510976305 5.687453627e-20)
(100.6776066 1.00107137 -4.412885343e-20)
(100.5048592 0.5827117744 -3.834279422e-20)
(100.3639323 0.3535721188 1.943754261e-20)
(100.2759234 0.1880895193 -3.903656361e-21)
(100.2357846 0.05883194542 0)
(99.96429401 -0.00479674675 0)
(99.93307845 -0.009024213591 0)
(99.86749352 0.005604903252 7.427703727e-21)
(99.75902363 0.04682556183 1.12318758e-20)
(99.65700966 0.1439964612 1.856989062e-20)
(99.44623791 0.3107789685 0)
(99.14797902 0.5845381188 0)
(98.84827724 0.9787254696 2.244255911e-19)
(98.34649257 1.661302982 -1.885092077e-19)
(97.77191029 2.722110977 5.342778302e-20)
(97.29543537 4.319929504 7.661050682e-19)
(97.45635852 6.356239152 -6.701931839e-19)
(98.81340501 8.010798686 1.70611876e-20)
(100.7655994 8.130586324 1.306067742e-20)
(102.0601784 6.93508227 -6.155529012e-19)
(102.4828066 5.346931973 1.81643468e-19)
(102.3494193 3.895270483 0)
(101.9630893 2.696451338 -5.698683676e-22)
(101.5496743 1.727340957 -9.480337767e-20)
(101.1256291 1.111536278 7.9050512e-21)
(100.7855857 0.5944209589 0)
(100.5617972 0.3554848303 3.989596913e-21)
(100.4215017 0.1848832618 -2.99592199e-21)
(100.3562615 0.05707989635 -9.938521884e-22)
(99.98048793 -0.01777206893 0)
(99.93807004 -0.04849831311 0)
(99.85010405 -0.06118377256 -1.488785903e-20)
(99.70251339 -0.04805419927 3.026650903e-20)
(99.54725973 0.04031354168 0)
(99.25183118 0.1794937862 0)
(98.82287847 0.4245072507 2.362760206e-20)
(98.34882793 0.8293521565 8.961422086e-20)
(97.54726669 1.530041131 5.861889889e-19)
(96.45186882 2.749803313 -2.426257771e-19)
(95.21365495 4.929184442 -1.31110514e-19)
(94.79997971 8.51948168 2.730699554e-20)
(97.58314074 12.27942604 -2.429795856e-20)
(102.2466607 11.97871492 4.740825761e-20)
(104.3539014 9.025961195 0)
(104.4832717 6.32997314 -5.453402197e-19)
(103.8651736 4.321246153 5.690720441e-19)
(103.0547523 2.854225329 9.874071087e-20)
(102.2787019 1.706464108 2.443121306e-20)
(101.6208969 1.059271046 -1.641607858e-20)
(101.0745019 0.5005618429 0)
(100.7541142 0.2908164012 0)
(100.5559894 0.143824004 -1.010225603e-21)
(100.4633021 0.04335492452 -3.034823896e-21)
(100.0260284 -0.03547565779 3.63788964e-21)
(99.97360314 -0.1026233307 -3.66384669e-21)
(99.86634202 -0.1552827559 7.468403493e-21)
(99.68454135 -0.186115175 -2.732535574e-20)
(99.47464555 -0.1265644887 6.478287968e-23)
(99.10263565 -0.04757789674 2.326977157e-20)
(98.55542204 0.1221040561 -3.170807564e-20)
(97.89863524 0.4595577487 6.115391416e-20)
(96.7887712 1.022307356 -2.511885929e-19)
(95.03623219 2.07795403 2.91641705e-19)
(92.43361452 4.138091081 -3.482764514e-20)
(88.928462 9.17675592 -2.498478652e-19)
(93.17881251 20.21592385 -4.636780571e-20)
(106.9880737 17.79599329 -1.831347272e-19)
(108.5540858 10.59886421 0)
(107.3118495 6.49883701 0)
(105.7341027 4.084850754 -4.366078115e-20)
(104.2686879 2.54552838 3.97465577e-20)
(103.0026069 1.379051646 0)
(102.0996559 0.8016878248 9.043959521e-21)
(101.3241681 0.2986513369 2.665149562e-21)
(100.906034 0.1527762168 -3.150146861e-21)
(100.6526879 0.06368585089 -3.584539096e-21)
(100.5331476 0.01750751119 8.619266239e-21)
(100.109372 -0.05696036671 -3.638279983e-21)
(100.0493382 -0.1683901973 3.665171659e-21)
(99.92803942 -0.2707187644 -4.647247054e-21)
(99.72165457 -0.3579115888 -3.119169141e-21)
(99.46479025 -0.3454897892 1.328073689e-20)
(99.03536614 -0.3525341114 7.889011528e-21)
(98.40250803 -0.3034256679 -3.512227042e-20)
(97.61260711 -0.1106742015 6.304268872e-20)
(96.28245181 0.1555022452 -1.36694411e-21)
(94.09039017 0.6307193011 1.991397254e-20)
(90.56673187 1.286986598 -5.048582754e-20)
(83.99468729 2.081735369 0)
(120.16216 21.79274337 -4.529827939e-20)
(114.7056134 9.394802984 -1.36560332e-19)
(110.5180648 5.076980126 0)
(107.5898558 2.925652891 -1.052802202e-19)
(105.3926373 1.66256506 1.74246379e-19)
(103.5929798 0.7235373135 -4.835532286e-21)
(102.4676664 0.3461110071 2.046503944e-20)
(101.4800256 -0.007545471953 -3.259656422e-21)
(100.9818357 -0.04956282917 2.664551422e-21)
(100.6846772 -0.05060895618 -5.124502077e-22)
(100.542417 -0.0192598242 -8.11261805e-21)
(100.2366995 -0.08079799322 -1.755609069e-21)
(100.172337 -0.2413620529 -1.319211989e-21)
(100.0438569 -0.3990971802 -4.516343143e-22)
(99.82510068 -0.5499093723 1.366851728e-21)
(99.53400833 -0.5974595562 -2.43943658e-23)
(99.07495298 -0.7054117079 0)
(98.40219893 -0.7987202216 3.093076016e-21)
(97.55815661 -0.791766206 -6.319556754e-20)
(96.16868208 -0.8752990176 1.357666033e-19)
(93.98097121 -1.036843417 -9.788803919e-21)
(90.96438027 -1.611636919 -5.41651432e-20)
(87.66059805 -3.424289911 0)
(133.2440587 8.647181235 -5.697417543e-19)
(119.4198411 3.733628041 -1.738688189e-19)
(112.8332293 1.829742259 -3.981598282e-22)
(108.8592703 0.8427938939 5.821235446e-20)
(106.1193325 0.2816679524 2.352212951e-20)
(103.9099033 -0.1855020348 -4.968132351e-21)
(102.6345706 -0.2675084951 1.155467805e-20)
(101.5001967 -0.3871326587 1.124674599e-21)
(100.9526909 -0.297383214 0)
(100.6290463 -0.1888474155 4.098606471e-21)
(100.4718345 -0.0638952712 4.047603186e-21)
(100.4111102 -0.1052740824 3.461276333e-21)
(100.3460742 -0.3162617642 5.059205156e-23)
(100.2179103 -0.5306366568 0)
(99.99998528 -0.7470655653 1.8082223e-22)
(99.68998818 -0.8609495253 -1.826491206e-21)
(99.23051231 -1.071864472 1.9386873e-21)
(98.56500166 -1.307084806 -1.022021494e-20)
(97.73488054 -1.48363197 -3.073697076e-20)
(96.41554504 -1.865894278 0)
(94.44889493 -2.439705254 -9.770205154e-21)
(92.05876647 -3.364579304 1.911700078e-19)
(89.94244223 -4.651340313 -1.288072698e-19)
(131.9999773 -6.626578651 2.717610882e-19)
(119.709417 -3.42721877 1.720984626e-19)
(113.1706664 -2.232590486 0)
(109.0702964 -1.688925564 -1.20790745e-19)
(106.2146744 -1.36130913 -4.741891766e-22)
(103.8536746 -1.215496366 4.216102041e-20)
(102.5461536 -0.957485604 0)
(101.3587258 -0.7962137973 -1.10193186e-21)
(100.8014996 -0.5641997002 -4.544028311e-21)
(100.4720924 -0.3372764856 5.070146805e-22)
(100.3098439 -0.1119689302 0)
(100.6323263 -0.1287281842 -1.705519698e-21)
(100.5700812 -0.387868815 1.719967018e-21)
(100.4491182 -0.6557273278 1.679898346e-21)
(100.2456096 -0.9348510473 -1.566443813e-21)
(99.93021201 -1.114950472 -1.80359372e-21)
(99.49640706 -1.419428988 0)
(98.87635522 -1.781268176 5.763606748e-21)
(98.10545266 -2.117279331 -5.905107529e-20)
(96.91762006 -2.723853459 0)
(95.17921848 -3.541086254 0)
(93.11623447 -4.560571356 9.853120695e-22)
(91.27832431 -5.557948816 7.512144769e-20)
(124.3191988 -15.54178747 -2.995427586e-19)
(116.520161 -8.952864453 3.126899759e-19)
(111.6157858 -5.784579315 -5.870595005e-19)
(108.1854319 -4.036310646 0)
(105.6373859 -2.932173028 2.748493039e-19)
(103.4091481 -2.197109 0)
(102.2000144 -1.626661261 -2.746741251e-20)
(101.0518547 -1.187979687 -1.373986829e-20)
(100.5259516 -0.8205639471 1.03538706e-21)
(100.2114311 -0.4807325382 -3.271738552e-21)
(100.0541747 -0.1586389391 4.79469264e-22)
(100.8968066 -0.1496758023 6.279006987e-21)
(100.8404408 -0.4514393633 0)
(100.7320094 -0.7645134899 -1.676626566e-21)
(100.5526128 -1.104937189 0)
(100.2408262 -1.342148775 0)
(99.85750051 -1.722216246 -5.373214772e-21)
(99.31049491 -2.18718432 -2.410970374e-20)
(98.62591419 -2.651799895 2.858291995e-20)
(97.59883637 -3.423494295 -1.767077517e-19)
(96.06572453 -4.420588885 0)
(94.16303676 -5.574496942 0)
(92.3162015 -6.60566235 -3.968531681e-20)
(115.7203026 -19.07433268 2.738452782e-19)
(111.8749817 -11.91614422 8.311596446e-20)
(108.9387729 -8.090205128 5.715588753e-20)
(106.5238607 -5.748413086 -9.586301264e-20)
(104.5336499 -4.160464083 8.270881766e-20)
(102.649371 -2.99187496 2.188773715e-21)
(101.6349598 -2.190906253 -3.330412995e-20)
(100.6027734 -1.527012161 8.138862759e-21)
(100.1393786 -1.039825817 0)
(99.85579364 -0.6058378395 3.769653363e-21)
(99.71187005 -0.1995908009 0)
(101.1985881 -0.1676004286 6.271008541e-21)
(101.1500644 -0.5062129606 9.911122603e-20)
(101.0568566 -0.8568197324 -1.996872733e-19)
(100.9044387 -1.24581069 -5.879808625e-22)
(100.6252377 -1.525966212 -1.579644935e-21)
(100.2960023 -1.962799901 0)
(99.84025954 -2.504364907 -9.847404288e-20)
(99.25432567 -3.062793768 -1.03064721e-19)
(98.41260679 -3.950357086 5.30912431e-20)
(97.1112797 -5.100684998 1.312091497e-20)
(95.41499036 -6.498664637 7.042476683e-20)
(93.6139295 -7.835782392 -5.844580363e-20)
(104.1735252 -28.41691585 0)
(107.5677768 -17.99631178 -2.695766139e-19)
(107.2481451 -12.54251421 6.981208636e-19)
(105.9637269 -9.035945803 0)
(104.5324054 -6.657915676 -7.764766435e-20)
(103.1505277 -4.913371739 -3.480722202e-20)
(101.7005407 -3.520788512 -6.625745619e-20)
(100.9169503 -2.595503825 0)
(100.0540004 -1.782486471 0)
(99.66624163 -1.20623875 1.175339779e-20)
(99.42265907 -0.7037744302 2.169821837e-21)
(99.29762343 -0.231807631 -7.024315185e-21)
(101.5295483 -0.1807956783 0)
(101.490134 -0.547091615 0)
(101.4149032 -0.9247977292 0)
(101.2914749 -1.342989401 0)
(101.0473571 -1.666446267 0)
(100.7737133 -2.146996724 0)
(100.4083396 -2.741186832 6.161552869e-21)
(99.94056061 -3.353703385 0)
(99.29655536 -4.30270182 0)
(98.28130346 -5.548615635 0)
(97.00544426 -7.201527029 -1.534248155e-21)
(95.67523464 -9.541316993 1.443647734e-20)
(97.10121465 -18.42258999 -5.171286008e-21)
(102.5594873 -14.84959247 2.889956546e-20)
(103.5956635 -11.5188996 0)
(103.3221385 -8.896983831 -2.541070018e-21)
(102.600953 -6.854024823 -4.953964126e-19)
(101.7138049 -5.201876569 -5.69121175e-20)
(100.6867516 -3.788386709 -9.121667971e-20)
(100.1246379 -2.834667969 -3.438854393e-20)
(99.44674286 -1.93747063 -1.91139048e-20)
(99.13472136 -1.316711823 1.878409323e-20)
(98.93452837 -0.7705362705 0)
(98.83077815 -0.2537543373 1.87963539e-20)
(101.8813253 -0.1891585123 0)
(101.8518487 -0.5732575696 0)
(101.7967406 -0.967973065 0)
(101.7040803 -1.398732468 0)
(101.4951868 -1.747471294 0)
(101.287737 -2.247964857 0)
(101.0159969 -2.846536491 1.709753677e-20)
(100.6705116 -3.472814409 -8.247973847e-20)
(100.2438035 -4.38980275 -4.142228578e-20)
(99.54830714 -5.586971399 2.032431372e-21)
(98.83021764 -7.144350144 0)
(98.29702877 -9.272255481 -4.440278811e-20)
(98.43766326 -11.78702623 1.329290064e-20)
(100.4645258 -11.39017774 -1.727977741e-20)
(101.2658167 -9.815169918 -2.880013568e-19)
(101.308342 -8.120118095 2.018985489e-19)
(100.9581163 -6.552276807 -3.352536417e-21)
(100.4085763 -5.147177725 -2.393197394e-20)
(99.69906433 -3.836373475 0)
(99.33366837 -2.928525368 0)
(98.81506215 -2.001978909 -3.534372219e-20)
(98.57289691 -1.372147772 1.744108043e-20)
(98.41489183 -0.805473754 7.320889995e-22)
(98.33199573 -0.2653022121 -1.293163049e-20)
(102.2448931 -0.1928317009 0)
(102.2249841 -0.5847048502 0)
(102.1893386 -0.9864201018 0)
(102.126157 -1.417117797 0)
(101.9513824 -1.778152621 0)
(101.8037717 -2.277116317 0)
(101.6153835 -2.854805079 -8.081637638e-23)
(101.3753631 -3.456985914 3.757659084e-20)
(101.116404 -4.280027168 0)
(100.6776703 -5.296266372 4.371360034e-22)
(100.2758301 -6.51867015 -1.139398482e-20)
(98.08000667 -7.670628077 3.786857652e-19)
(99.18014862 -8.962424216 0)
(99.71211319 -8.92984993 -4.175490747e-21)
(99.95278204 -8.194942912 1.646137977e-19)
(99.91371979 -7.142245808 -3.159574169e-20)
(99.67190022 -5.987829722 2.722227456e-20)
(99.30123566 -4.862763469 0)
(98.80960457 -3.725745007 -2.927303703e-20)
(98.58248065 -2.903125712 4.490538255e-20)
(98.18972888 -1.993256624 1.09509891e-20)
(98.00701143 -1.379524441 1.872241842e-20)
(97.88549452 -0.8120910058 -2.125990813e-20)
(97.82062988 -0.2674986529 0)
(102.6116013 -0.1923457204 0)
(102.6001498 -0.5830187037 0)
(102.5813445 -0.9827000895 0)
(102.5437953 -1.403357295 0)
(102.3998531 -1.765401551 0)
(102.3028888 -2.2463225 0)
(102.1810713 -2.785456245 0)
(102.0190125 -3.343589603 3.294090674e-20)
(101.8678043 -4.04288422 1.058314914e-20)
(101.5769489 -4.847150037 -1.4252564e-20)
(101.2527716 -5.718267128 -3.59631858e-19)
(99.1511147 -6.378140305 -2.572093713e-19)
(99.60528226 -7.180213747 4.684641719e-20)
(99.44312725 -7.228019568 9.878097858e-22)
(99.23260048 -6.849328578 -1.252663547e-19)
(98.99322204 -6.175248491 0)
(98.70760902 -5.337087877 0)
(98.40323465 -4.468260495 0)
(98.03958082 -3.515456144 0)
(97.89292573 -2.787970388 0)
(97.59415499 -1.928692196 3.773010483e-20)
(97.4573643 -1.348207902 -3.52877375e-20)
(97.36406867 -0.7952812206 -2.393022821e-21)
(97.31318139 -0.2624130564 2.400912205e-21)
(102.9737839 -0.1883953419 0)
(102.9694039 -0.5704434378 0)
(102.9641795 -0.9605683682 0)
(102.9473118 -1.363164851 0)
(102.829989 -1.716590168 0)
(102.7717984 -2.168498685 0)
(102.6983744 -2.6595614 0)
(102.5864814 -3.165773358 0)
(102.4894313 -3.745435591 4.547915867e-20)
(102.2583814 -4.362568597 5.594834308e-21)
(101.9272039 -4.98267192 3.00542713e-22)
(100.2273558 -5.373310189 2.259267554e-19)
(99.82137184 -5.926996254 1.15370198e-19)
(99.36536665 -5.990988845 2.879108847e-20)
(98.82215076 -5.767990544 1.38311888e-21)
(98.37235536 -5.308719488 4.075786317e-24)
(97.99589865 -4.698217953 0)
(97.69083743 -4.032088253 0)
(97.38212112 -3.243445156 0)
(97.27606371 -2.613091609 0)
(97.04064204 -1.823558116 0)
(96.93627376 -1.286510377 0)
(96.86346857 -0.7615434905 0)
(96.82272945 -0.2523921244 0)
(103.3252974 -0.1816998991 0)
(103.3265236 -0.5493069404 0)
(103.3315549 -0.9240504802 0)
(103.3301453 -1.303091882 0)
(103.2339261 -1.640689127 0)
(103.2026784 -2.057561235 0)
(103.1599813 -2.497366167 0)
(103.0764352 -2.94650045 0)
(102.9938868 -3.430451717 0)
(102.7680773 -3.908257297 -2.370662363e-21)
(102.4018274 -4.354824382 9.092590404e-20)
(100.7216922 -4.622679809 -5.931910551e-21)
(99.90170135 -5.029950084 -1.635795957e-20)
(99.33652785 -5.04812037 -4.35908948e-23)
(98.55085322 -4.894528592 0)
(97.93231343 -4.56689561 0)
(97.46376585 -4.116510056 0)
(97.12454616 -3.59804818 0)
(96.82977063 -2.946848679 0)
(96.73529977 -2.408001786 0)
(96.53591921 -1.69519666 0)
(96.45154236 -1.205750342 0)
(96.39147522 -0.7157483989 0)
(96.35829103 -0.2378690692 0)
(103.6615235 -0.1729803367 0)
(103.6668795 -0.5219232001 0)
(103.6789423 -0.8771467124 0)
(103.6879734 -1.229533597 0)
(103.6073391 -1.54662702 0)
(103.5925046 -1.925983536 0)
(103.5662755 -2.316443042 0)
(103.4936091 -2.708748267 0)
(103.4035641 -3.11089481 0)
(103.15401 -3.489217875 0)
(102.7338665 -3.824291185 0)
(100.3752086 -3.968221497 0)
(99.99258827 -4.306237105 0)
(99.29404867 -4.304775279 0)
(98.35135514 -4.188342045 0)
(97.6093891 -3.945214837 0)
(97.05682467 -3.602464207 0)
(96.67056849 -3.192434646 0)
(96.36619504 -2.651776695 0)
(96.26504945 -2.19269324 0)
(96.08180712 -1.556319724 0)
(96.00734768 -1.11477464 0)
(95.95374301 -0.6633530201 0)
(95.92492812 -0.2209515941 0)
(103.9792627 -0.1629259896 0)
(103.9873594 -0.4904800339 0)
(104.0035112 -0.8235580382 0)
(104.0185171 -1.148134993 0)
(103.9485423 -1.44212146 0)
(103.9414541 -1.784066704 0)
(103.9203732 -2.130107655 0)
(103.8470935 -2.468689563 0)
(103.7367155 -2.80300976 0)
(103.4537776 -3.105198538 0)
(102.9830572 -3.363684436 0)
(100.0900465 -3.438962792 0)
(100.0390582 -3.718087909 -4.834034487e-35)
(99.2533675 -3.705678794 0)
(98.19957917 -3.611450059 0)
(97.36317067 -3.422974446 0)
(96.73827589 -3.154448957 0)
(96.30369247 -2.825042135 0)
(95.9751503 -2.372828714 0)
(95.85716415 -1.980374204 0)
(95.67649482 -1.41581728 0)
(95.60435045 -1.020245135 0)
(95.55242838 -0.6083521628 0)
(95.52563254 -0.2030806099 0)
(104.2765708 -0.1521432042 0)
(104.2861986 -0.4568985539 0)
(104.3039357 -0.7664897524 0)
(104.3211506 -1.063464048 0)
(104.25789 -1.333368393 0)
(104.2518183 -1.63985363 0)
(104.2273589 -1.946038465 0)
(104.1464336 -2.236821269 0)
(104.0090404 -2.515705751 0)
(103.6902774 -2.759607842 0)
(103.1738238 -2.962988555 0)
(99.9371298 -3.002202877 0)
(100.0568549 -3.232762014 0)
(99.21424697 -3.21273964 0)
(98.07863569 -3.133486345 0)
(97.16906652 -2.982168351 0)
(96.48324171 -2.766317924 0)
(96.0028821 -2.49703187 0)
(95.64394895 -2.11588276 0)
(95.5032784 -1.778920799 0)
(95.31628802 -1.279730538 0)
(95.24116137 -0.9268870662 0)
(95.18754836 -0.5536243843 0)
(95.16100326 -0.1852220645 0)
(104.552598 -0.1411270072 0)
(104.5627625 -0.4227475803 0)
(104.5800963 -0.708579075 0)
(104.596499 -0.9790061655 0)
(104.5369461 -1.225075737 0)
(104.5269488 -1.498941308 0)
(104.493381 -1.769484221 0)
(104.4004194 -2.019169666 0)
(104.2332185 -2.253023152 0)
(103.8797576 -2.452088479 0)
(103.3201355 -2.614564936 0)
(99.87073726 -2.634748947 0)
(100.0568764 -2.826986539 -6.025994787e-35)
(99.17644928 -2.801801372 0)
(97.97893017 -2.733320936 0)
(97.01171373 -2.608405373 0)
(96.27486627 -2.431014387 0)
(95.75279021 -2.20731799 0)
(95.36172709 -1.883471724 0)
(95.19559685 -1.592692568 0)
(94.99679571 -1.151872453 0)
(94.91524213 -0.8378190578 0)
(94.85771646 -0.5011134 0)
(94.83016769 -0.1680219348 0)
(104.807384 -0.1302623648 0)
(104.8172968 -0.3892288795 0)
(104.8327422 -0.6518529547 0)
(104.8460597 -0.8973533605 0)
(104.787844 -1.120611686 0)
(104.7705743 -1.365072739 0)
(104.7241156 -1.603572857 0)
(104.6167116 -1.818990072 0)
(104.4192547 -2.016219217 0)
(104.0339205 -2.18055662 0)
(103.4322083 -2.311842945 0)
(99.86018311 -2.322267625 0)
(100.0457628 -2.48468667 0)
(99.13995234 -2.456156411 0)
(97.89459505 -2.395787875 0)
(96.88113267 -2.290334599 0)
(96.10154342 -2.141770692 0)
(95.54217686 -1.953301621 0)
(95.1194977 -1.675986158 0)
(94.92720703 -1.423692779 0)
(94.71351946 -1.034384112 0)
(94.62346267 -0.7549536521 0)
(94.56066375 -0.4520488595 0)
(94.53126432 -0.1518925052 0)
(105.0416182 -0.1198381051 0)
(105.0506719 -0.3572202289 0)
(105.0631728 -0.5977778519 0)
(105.0717998 -0.8203334188 0)
(105.0131362 -1.022281526 0)
(104.9864475 -1.240534059 0)
(104.9252055 -1.450579601 0)
(104.8016267 -1.637577808 0)
(104.5749466 -1.805057477 0)
(104.1611634 -1.942306399 0)
(103.5179546 -2.049288155 0)
(99.88659664 -2.054972662 0)
(100.0277398 -2.194381492 1.929959728e-35)
(99.10475932 -2.163839904 0)
(97.82179893 -2.109760967 0)
(96.77063706 -2.019069332 0)
(95.95514294 -1.892616931 0)
(95.36279986 -1.731842324 0)
(94.91010742 -1.492609713 0)
(94.6921683 -1.272461767 0)
(94.46211405 -0.9282546331 0)
(94.36244859 -0.6793422034 0)
(94.29363997 -0.4071388146 0)
(94.26185235 -0.1370766822 0)
(105.2564421 -0.1100627906 0)
(105.2641833 -0.3273368583 0)
(105.2730228 -0.5473622515 0)
(105.2758905 -0.7491611425 0)
(105.215477 -0.9315399062 0)
(105.1780737 -1.12662926 0)
(105.1011791 -1.3120877 0)
(104.9606731 -1.475148686 0)
(104.7064689 -1.618487213 0)
(104.2675068 -1.734447041 0)
(103.5833485 -1.822152635 0)
(99.9381972 -1.825617885 0)
(100.0055838 -1.947569876 0)
(99.070808 -1.915921568 0)
(97.75787823 -1.86679739 0)
(96.67557076 -1.787553846 0)
(95.82979499 -1.678397687 0)
(95.20844977 -1.539715552 0)
(94.72781669 -1.331894011 0)
(94.48540168 -1.138655236 0)
(94.2385216 -0.8337205641 0)
(94.12880371 -0.6114351533 0)
(94.05368573 -0.366718098 0)
(94.0192005 -0.1236957785 0)
(105.4533128 -0.1010785441 0)
(105.4594151 -0.2999858253 0)
(105.4641365 -0.5012595085 0)
(105.4605844 -0.6845803907 0)
(105.397463 -0.8492558948 0)
(105.3486643 -1.024089487 0)
(105.2558298 -1.188530814 0)
(105.0983984 -1.331369397 0)
(104.818702 -1.455119863 0)
(104.3573167 -1.554215777 0)
(103.6329238 -1.626485191 0)
(100.0068632 -1.629169025 0)
(99.9810609 -1.737709414 0)
(99.03800402 -1.705572502 0)
(97.70091039 -1.660396661 0)
(96.5926003 -1.590180151 0)
(95.72117758 -1.494766892 0)
(95.07438124 -1.373908354 0)
(94.56801926 -1.19215843 0)
(94.3026108 -1.021467586 0)
(94.03902256 -0.7505571864 0)
(93.91923476 -0.5512829462 0)
(93.83779412 -0.3308652831 0)
(93.80046172 -0.1117865716 0)
(105.633905 -0.09297446342 0)
(105.6381423 -0.2754125478 0)
(105.6384832 -0.4598526193 0)
(105.6281504 -0.6269794305 0)
(105.5616345 -0.7758380001 0)
(105.5011789 -0.9331336284 0)
(105.3925251 -1.079730073 0)
(105.218598 -1.205514347 0)
(104.9155326 -1.313393049 0)
(104.4338801 -1.399029541 0)
(103.6701871 -1.4588467 0)
(100.0869381 -1.461547037 0)
(99.95519633 -1.559684987 0)
(99.00623464 -1.52741637 0)
(97.64945312 -1.485402129 0)
(96.51925164 -1.42239966 0)
(95.62600542 -1.338041516 0)
(94.95685863 -1.231677633 0)
(94.42691307 -1.071649312 0)
(94.14008792 -0.9198383877 0)
(93.86023159 -0.6782668298 0)
(93.73061278 -0.4986835129 0)
(93.64300835 -0.299494384 0)
(93.6027846 -0.1013307346 0)
(105.799988 -0.08580093378 0)
(105.802211 -0.2537455789 0)
(105.7980496 -0.423332351 0)
(105.7807882 -0.5765121706 0)
(105.7103819 -0.7114030766 0)
(105.6382818 -0.8536793286 0)
(105.5141036 -0.9851197116 0)
(105.3244383 -1.096694621 0)
(105.000041 -1.191742344 0)
(104.4997357 -1.266588177 0)
(103.6978792 -1.316375565 0)
(100.1738341 -1.319435936 0)
(99.92861027 -1.409476564 0)
(98.97532906 -1.377207858 0)
(97.60240988 -1.337711217 0)
(96.45366141 -1.280541931 0)
(95.54173848 -1.205155294 0)
(94.85289766 -1.110619677 0)
(94.3013446 -0.9686985948 0)
(93.99464541 -0.832639806 0)
(93.69910816 -0.6162329357 0)
(93.5600349 -0.4532988714 0)
(93.46651804 -0.272427875 0)
(93.42342539 -0.09227876152 0)
(105.9534389 -0.07957916028 0)
(105.9535485 -0.2350282404 0)
(105.9448538 -0.391752649 0)
(105.9206641 -0.5331621498 0)
(105.8459483 -0.6558780773 0)
(105.7623994 -0.7854518996 0)
(105.6230796 -0.9038080132 0)
(105.4185312 -1.003981303 0)
(105.0746924 -1.088650022 0)
(104.5569459 -1.15485281 0)
(103.7183451 -1.196726936 0)
(100.2634305 -1.200420047 0)
(99.90166936 -1.283805572 0)
(98.94507212 -1.251516144 0)
(97.55893505 -1.214026509 0)
(96.39438607 -1.161627934 0)
(95.4663415 -1.093553873 0)
(94.76002238 -1.0086368 0)
(94.18864909 -0.8817807094 0)
(93.8635015 -0.7587721308 0)
(93.5528597 -0.5637902698 0)
(93.40477146 -0.4147259206 0)
(93.3056281 -0.2494403592 0)
(93.25972179 -0.0845635076 0)
(106.0959439 -0.07431720231 0)
(106.0938898 -0.2192595317 0)
(106.0806933 -0.3650791669 0)
(106.0496772 -0.4968760077 0)
(105.9704048 -0.6090628967 0)
(105.8757226 -0.7280076905 0)
(105.7218649 -0.8352608895 0)
(105.5030393 -0.9263440945 0)
(105.1414769 -1.002687623 0)
(104.6072485 -1.062017677 0)
(103.7337433 -1.09788721 0)
(100.3520507 -1.102634485 0)
(99.87442358 -1.179994375 -2.592251457e-36)
(98.9152901 -1.147561117 0)
(97.51838994 -1.111720577 0)
(96.34028315 -1.06326301 0)
(95.39814784 -1.00114616 0)
(94.67609763 -0.9240834018 0)
(94.08652559 -0.8096240015 0)
(93.74419612 -0.697204002 0)
(93.41910581 -0.520339839 0)
(93.26245103 -0.3825487236 0)
(93.15797342 -0.2303022932 0)
(93.10933729 -0.07811732748 0)
(106.2299018 -0.06999701112 0)
(106.2256079 -0.2063848333 0)
(106.2079254 -0.3432168902 0)
(106.1701964 -0.4673825153 0)
(106.0857205 -0.5707134285 0)
(105.980219 -0.6808846143 0)
(105.8126274 -0.7792582568 0)
(105.5797966 -0.8628074555 0)
(105.2020301 -0.932569836 0)
(104.652134 -0.9865211006 0)
(103.7461012 -1.018121242 0)
(100.4362976 -1.024475906 0)
(99.84674887 -1.095842609 0)
(98.8858638 -1.063154343 0)
(97.48030278 -1.028712879 0)
(96.29041763 -0.9835099978 0)
(95.33578677 -0.9261952505 0)
(94.59957987 -0.855647065 0)
(93.99277866 -0.7512271152 0)
(93.63452748 -0.6470559214 0)
(93.29513267 -0.4851879745 0)
(93.13033006 -0.3563691681 0)
(93.02075096 -0.2147701571 0)
(92.96942156 -0.07285957462 0)
(106.3549474 -0.06665075025 0)
(106.3484943 -0.196437896 0)
(106.326439 -0.3261114026 0)
(106.2822102 -0.444971076 0)
(106.1937206 -0.5404823368 0)
(106.0776686 -0.6436671626 0)
(105.8970076 -0.7359216949 0)
(105.6505591 -0.8124348144 0)
(105.257754 -0.8772199472 0)
(104.6929189 -0.9270922402 0)
(103.7572458 -0.9559810041 0)
(100.5133725 -0.9643854987 0)
(99.818568 -1.029602203 0)
(98.85677785 -0.9966070128 0)
(97.44428487 -0.9634014084 0)
(96.24394181 -0.9208253256 0)
(95.27801531 -0.8672112352 0)
(94.52898119 -0.8015040903 0)
(93.90561531 -0.7052914284 0)
(93.53241304 -0.6072917007 0)
(93.1805422 -0.4582733405 0)
(93.00803279 -0.3358539161 0)
(92.89362946 -0.2027197296 0)
(92.83978445 -0.06877222301 0)
(106.48091 -0.0641334235 0)
(106.4718999 -0.1891564034 0)
(106.445239 -0.3135621663 0)
(106.3937314 -0.4274757607 0)
(106.2966962 -0.5183027618 0)
(106.1696452 -0.6163674929 0)
(105.9761019 -0.7042332176 0)
(105.7167907 -0.7748121422 0)
(105.3098478 -0.8358652152 0)
(104.7307882 -0.8828196698 0)
(103.7686616 -0.9103682266 0)
(100.5816462 -0.9209453133 0)
(99.78998376 -0.9800691769 0)
(98.82798823 -0.9467161299 0)
(97.4099639 -0.9144880193 0)
(96.20007398 -0.8739144551 0)
(95.22364503 -0.8230156729 0)
(94.46241912 -0.7606586717 0)
(93.82371511 -0.6707893078 0)
(93.43620115 -0.5779918238 0)
(93.06751557 -0.4371985608 0)
(92.88678184 -0.3205941534 0)
(92.76743756 -0.1937557876 0)
(92.71072547 -0.06566221996 0)
(106.5783447 -0.06287903976 0)
(106.5677467 -0.1852359614 0)
(106.5375645 -0.3063813821 0)
(106.4817557 -0.4200962711 0)
(106.3938857 -0.5035275671 0)
(106.2574563 -0.5983744561 0)
(106.0513811 -0.6836916504 0)
(105.7797013 -0.7494491736 0)
(105.3593806 -0.8079561869 0)
(104.7668447 -0.8530747607 0)
(103.7814191 -0.8804246495 0)
(100.6409582 -0.8929753118 0)
(99.76130992 -0.9465374366 0)
(98.7992994 -0.9127636076 0)
(97.37688324 -0.8811053556 0)
(96.15805558 -0.841856942 0)
(95.17165698 -0.7927413974 0)
(94.39884901 -0.732586411 0)
(93.74562271 -0.6472739109 0)
(93.3446264 -0.5581816344 0)
(92.97800347 -0.4269129339 0)
(92.79194372 -0.3113707825 0)
(92.66884036 -0.1886096956 0)
(92.61037585 -0.06399049879 0)
(106.7660254 -0.0615898077 0)
(106.7518718 -0.1823666622 0)
(106.7147202 -0.301381825 0)
(106.645853 -0.4105046153 0)
(106.4848996 -0.4970825682 0)
(106.3382648 -0.589937656 0)
(106.1210387 -0.674629609 0)
(105.8404166 -0.7360341705 0)
(105.4073047 -0.7931182386 0)