/*--------------------------------*- C++ -*----------------------------------*\
| =========                 |                                                 |
| \\      /  F ield         | OpenFOAM: The Open Source CFD Toolbox           |
|  \\    /   O peration     | Version:  v1912                                 |
|   \\  /    A nd           | Website:  www.openfoam.com                      |
|    \\/     M anipulation  |                                                 |
\*---------------------------------------------------------------------------*/
FoamFile
{
    version     2.0;
    format      ascii;
    class       surfaceVectorField;
    location    "1.3";
    object      Uf;
}
// * * * * * * * * * * * * * * * * * * * * * * * * * * * * * * * * * * * * * //

dimensions      [0 1 -1 0 0 0 0];


internalField   nonuniform List<vector> 
25162
(
(99.99896393 0.004226782168 -1.851074513e-21)
(99.99604157 0.003734995667 5.48510557e-21)
(99.99834223 0.01049987063 -1.828124147e-21)
(99.99412796 0.01301392056 1.850944834e-21)
(99.9971332 0.0213019215 -3.646524677e-21)
(99.98989066 0.02852861563 1.100504915e-20)
(99.99861806 0.02490873399 1.130130697e-21)
(99.9823069 0.05442381012 -7.246289423e-21)
(99.99217952 0.05551665607 -1.212265166e-21)
(99.99761715 0.045606026 1.756928687e-21)
(99.99924471 0.02745245015 8.704183981e-22)
(99.99081896 0.07756168105 1.746995698e-21)
(99.9978871 0.04429709179 8.547462767e-22)
(99.99843783 0.03447800617 -8.808991578e-22)
(99.99736696 0.05665616442 8.547113664e-22)
(99.9856337 0.1276792681 1.701728865e-21)
(99.99709498 0.07201937227 0)
(99.99690909 0.08905812254 -3.127191331e-21)
(99.9809704 0.1970868913 -3.127175056e-21)
(99.9964555 0.1094133155 -8.123379105e-22)
(99.99593036 0.1330686671 2.725553075e-21)
(99.97481113 0.2915850791 2.976175158e-21)
(99.99542521 0.1600366938 3.670548965e-22)
(99.99499491 0.1900297346 -2.436621638e-21)
(99.96968669 0.4112829428 3.487978283e-22)
(99.99468748 0.2224697737 -2.492671679e-21)
(99.99457435 0.2564065542 2.58052255e-22)
(99.96832827 0.546236029 -1.657440946e-21)
(99.99474597 0.2902984591 2.209305187e-21)
(99.99525978 0.3222723521 1.889148842e-21)
(99.97398531 0.6733652376 -8.324250928e-22)
(99.99613523 0.3501691721 0)
(99.99734721 0.3717204861 0)
(99.98758748 0.7592276659 1.782044381e-22)
(99.99877652 0.3850303487 0)
(100.0003305 0.3893244051 4.197982874e-22)
(100.0050905 0.7761170243 -6.684610423e-24)
(100.001804 0.3839102967 9.364707286e-22)
(100.0030419 0.3700200857 -1.940308488e-22)
(100.0197422 0.7210935094 -5.861854421e-22)
(100.0040294 0.3488991269 -1.045161843e-21)
(100.0047016 0.3224904469 8.625232344e-23)
(100.0278445 0.6162867704 1.707215119e-21)
(100.0050614 0.2927266217 4.367814177e-22)
(100.005134 0.2614316254 0)
(100.029166 0.4918836868 0)
(100.0049911 0.230248436 0)
(100.0048359 0.2002717393 7.402127718e-22)
(100.0258447 0.3729685181 1.534626751e-21)
(100.0049725 0.1726442502 -3.750212688e-21)
(100.0048587 0.1457828725 -1.396278059e-21)
(100.0220165 0.2671308498 3.046042703e-21)
(100.0042156 0.122253164 3.045815403e-21)
(100.0031604 0.1023153194 -8.618436809e-22)
(100.0133667 0.1855346402 -5.053035107e-23)
(100.0008381 0.08803657401 1.676981415e-21)
(100.008606 0.08661605267 -7.51753151e-21)
(100.0487602 0.2123573594 4.726313748e-22)
(100.0172483 0.1895334382 -2.683375631e-21)
(100.0028589 0.08777596929 -1.572266608e-21)
(100.0061338 0.05059755896 -9.473569841e-22)
(100.0336853 0.1315928369 1.501256043e-20)
(100.0051532 0.02391530629 -7.61482892e-21)
(100.0250705 0.0706566639 -1.600776291e-20)
(100.0225377 0.02236606703 1.407818653e-21)
(99.99043813 0.01156026422 9.158727395e-21)
(99.9851773 0.005784596488 2.234604359e-22)
(99.98438716 0.02904768769 1.463147358e-20)
(99.97773826 0.02081001399 -1.280650095e-20)
(99.97307236 0.05905546169 7.597814301e-21)
(99.9618099 0.04725955757 -1.987768938e-20)
(99.96683493 0.09746781887 -1.292313513e-21)
(99.93480416 0.09243718015 3.823257928e-20)
(99.94359896 0.1222602231 -8.422343904e-21)
(99.95036703 0.1257113503 -1.805769531e-21)
(99.96199619 0.1257772925 3.557493642e-21)
(99.97685832 0.08894592048 1.76932263e-21)
(99.96292867 0.1512353154 1.729064822e-21)
(99.95091677 0.1644942979 1.758569106e-21)
(99.91746094 0.2175812457 -3.552662526e-21)
(99.93837707 0.2131007066 -1.83376646e-23)
(99.94219009 0.2482039792 1.701995931e-21)
(99.92345572 0.27328408 -1.548952683e-23)
(99.87432582 0.3575474872 0)
(99.91549213 0.3225138201 0)
(99.89253389 0.3691815891 -2.11916993e-21)
(99.91974067 0.3754266782 -4.16865052e-21)
(99.90967025 0.394755642 -4.887541648e-23)
(99.88378784 0.4566260896 -9.376387224e-21)
(99.90195354 0.4331466368 -3.223306388e-21)
(99.87634754 0.5916443813 2.852610409e-23)
(99.892588 0.5595764471 -2.121809913e-21)
(99.84273884 0.6845389629 -1.16203431e-20)
(99.86931993 0.6448828879 -2.830910467e-21)
(99.84655158 0.8493542459 -5.31562842e-21)
(99.86949243 0.7964745792 -5.004873447e-21)
(99.80704466 0.9800199565 4.917209781e-22)
(99.84212043 0.9160411514 -6.377696902e-21)
(99.83253552 1.152196203 -5.510555232e-23)
(99.86277448 1.069356698 -4.179110757e-21)
(99.79285367 1.324389907 -6.440224166e-21)
(99.8347642 1.226854754 -3.139426816e-21)
(99.85186159 1.455198378 -3.689413785e-21)
(99.88630921 1.333660276 -5.263223656e-21)
(99.82122563 1.663409905 -1.349314808e-21)
(99.86435646 1.52462822 -1.553333558e-21)
(99.91427445 1.683417406 -1.096640148e-21)
(99.94584465 1.520490391 -1.362209644e-21)
(99.90317644 1.90653401 -6.787554475e-22)
(99.93615106 1.728913634 -6.787839504e-22)
(100.0029022 1.760696984 1.766808057e-22)
(100.0218855 1.566694224 -2.760585355e-22)
(100.0128568 1.971090131 6.279587525e-24)
(100.0245844 1.770140044 -6.445028562e-22)
(100.0863989 1.677414525 -2.329933137e-22)
(100.0738205 1.465728599 -2.148710918e-22)
(100.1092892 1.849086296 -8.320239577e-23)
(100.1025918 1.639264768 1.911547391e-21)
(100.1391404 1.45966956 2.238269166e-21)
(100.1032928 1.256616942 3.888632651e-21)
(100.1659298 1.586044989 3.892909066e-21)
(100.145187 1.392517279 5.153023601e-22)
(100.1543879 1.179946943 -6.354043898e-21)
(100.1081142 1.004201553 -5.929083892e-21)
(100.1787075 1.2659344 -2.139473144e-21)
(100.1522036 1.104324773 -2.111269293e-21)
(100.1407083 0.903956504 -5.076152324e-21)
(100.0926299 0.7630760698 4.667920594e-22)
(100.1565504 0.9577420271 -1.363736174e-21)
(100.1337555 0.8355238292 5.56094412e-21)
(100.0887766 0.5295909244 -1.29679339e-20)
(100.1411689 0.7205415557 -1.296692631e-20)
(100.1991035 0.7819009788 1.311982763e-20)
(100.1229847 0.6024712876 -2.659328524e-20)
(100.1047454 0.5002207785 1.148830435e-20)
(100.1458291 0.5353938753 -1.636649495e-20)
(100.085995 0.4132479993 2.330286468e-20)
(100.0644589 0.3647120708 2.589729201e-20)
(100.0815436 0.252779443 2.230100634e-20)
(100.1847034 0.3977785143 -2.073910764e-22)
(100.1404278 0.4441361182 4.664814181e-20)
(100.0827308 0.3508385324 2.542083087e-21)
(100.0593339 0.1482938405 -7.14992043e-22)
(100.1317305 0.2453079222 3.20311144e-20)
(100.0480872 0.06836898968 -7.44918226e-21)
(100.100423 0.1318552311 -1.698455999e-20)
(100.0870268 0.04163831845 7.610816859e-21)
(99.97471102 0.01398811169 -2.198318751e-20)
(99.97197475 0.004643868056 -1.098686208e-20)
(99.95804245 0.03690400918 -4.76122878e-20)
(99.95616767 0.01863057514 1.031795222e-20)
(99.92771324 0.07852323902 1.022760502e-20)
(99.92276351 0.04801214384 -4.030661179e-20)
(99.89472654 0.1427196747 2.434261675e-20)
(99.86833533 0.1011007103 4.383135844e-20)
(99.85924562 0.1565710707 -3.945399671e-20)
(99.90963764 0.1553100406 -7.218286687e-21)
(99.86042172 0.1740456732 -5.361581932e-20)
(99.87258819 0.1953729772 -3.619075764e-21)
(99.85603489 0.2730034774 -7.086755223e-21)
(99.83955705 0.2609351494 -3.533119866e-21)
(99.78035912 0.3142324021 2.476664498e-20)
(99.80057127 0.3419910805 6.98366688e-21)
(99.78209069 0.4536891242 -6.140035739e-21)
(99.7549008 0.441922133 4.515344022e-21)
(99.66737193 0.5315673988 -3.493233062e-20)
(99.72645024 0.5453390026 2.4535084e-21)
(99.68221332 0.5838852754 -1.520447595e-20)
(99.70987571 0.6871040592 -6.301350319e-21)
(99.68808792 0.6834156756 0)
(99.63450906 0.7538152857 6.509784852e-21)
(99.66095185 0.7639770771 -6.283478495e-21)
(99.60633215 1.048914072 3.079818562e-21)
(99.57332832 1.052200905 1.207832941e-20)
(99.50255899 1.158894747 5.988097672e-21)
(99.54384401 1.163150959 1.501126927e-20)
(99.51003238 1.529131564 0)
(99.46148567 1.547895621 0)
(99.37681611 1.703642505 -1.116534609e-20)
(99.43862891 1.690898018 -5.277312609e-21)
(99.46457434 2.112939688 -1.47200427e-19)
(99.39800901 2.164261139 -2.629723717e-21)
(99.31518076 2.377961205 -1.428703383e-19)
(99.39909835 2.327350997 -1.473877736e-19)
(99.53728313 2.702317087 -2.011382732e-19)
(99.46059026 2.806869662 1.189678548e-19)
(99.40719185 3.066106551 -2.237209234e-19)
(99.50219856 2.951311246 -6.996845433e-22)
(99.75401805 3.134770097 -1.144915506e-19)
(99.68680642 3.306935613 -1.468538125e-19)
(99.68929221 3.575653525 -1.12659875e-19)
(99.76458156 3.382507843 -1.709161307e-19)
(100.0465001 3.245818381 1.601377684e-20)
(100.0159493 3.471938829 1.438294611e-22)
(100.0693511 3.701533486 0)
(100.1001133 3.453672966 -3.313638603e-20)
(100.3068261 3.026066031 -1.168819638e-19)
(100.3213527 3.273731793 -8.198779123e-20)
(100.4029744 3.435401525 4.697566159e-20)
(100.3805147 3.174814196 -6.136120057e-20)
(100.4567652 2.572596374 8.001700846e-21)
(100.5066069 2.807294923 8.46571505e-21)
(100.5891304 2.90430709 5.186416249e-21)
(100.5308315 2.665880118 1.108704135e-20)
(100.4855807 2.026794251 -5.899779381e-21)
(100.5539088 2.227009063 -1.370169276e-20)
(100.6242657 2.276955642 -4.785326072e-21)
(100.5474865 2.078734017 5.352323054e-21)
(100.5022763 1.661640849 -1.693935701e-20)
(100.4343321 1.506157142 -1.143002e-20)
(100.5555048 1.680624359 -1.144543384e-20)
(100.4841513 1.531919285 6.117436992e-21)
(100.352129 1.018919104 -5.125933014e-20)
(100.4687474 1.243236797 -2.681299291e-20)
(100.549311 1.235767248 -7.770210101e-20)
(100.4104766 1.033383635 -3.64439984e-20)
(100.2616258 0.6932404622 -5.904017067e-20)
(100.3539926 0.8518960648 2.337641383e-20)
(100.4072556 0.8326543017 -2.801811442e-20)
(100.3006537 0.6968581972 -2.451269093e-20)
(100.2279476 0.387017583 9.878756561e-21)
(100.3919243 0.5314879318 -2.538281032e-20)
(100.3640364 0.6412759114 -1.693506711e-22)
(100.271701 0.5743867463 -1.453233303e-20)
(100.1676421 0.225747741 1.500002272e-20)
(100.2834628 0.3245479586 2.671869154e-20)
(100.1349929 0.1036679243 -1.912436921e-21)
(100.2156003 0.1734834477 -3.86448313e-21)
(100.1847951 0.0544539339 0)
(99.95749199 0.008517872566 2.207046485e-20)
(99.96395569 -0.0008509214395 -3.680999996e-21)
(99.92601333 0.02799997335 1.855610116e-20)
(99.93783238 0.002718775304 2.577335156e-20)
(99.86949076 0.07028372556 -7.37906761e-21)
(99.88297038 0.02427257092 -3.655177786e-21)
(99.79624328 0.1544528892 0)
(99.79266793 0.07173124011 5.621312317e-21)
(99.75611133 0.147315498 1.710513046e-20)
(99.80573713 0.1815404206 -5.005047033e-20)
(99.74579282 0.1757341016 1.286031146e-20)
(99.74780905 0.2182767216 0)
(99.69314116 0.3382528176 2.521711001e-22)
(99.6830541 0.299643224 -2.845034673e-20)
(99.59712479 0.3426702302 -2.843120738e-20)
(99.60562586 0.402400187 5.768926304e-20)
(99.53458537 0.5855967122 -8.579065846e-20)
(99.51428559 0.530792137 3.081346726e-20)
(99.38729664 0.6088674298 -5.734887403e-20)
(99.43723554 0.6845963699 -2.854864874e-20)
(99.37726667 0.6955466269 -4.688751463e-20)
(99.36081504 0.9104722415 6.775712732e-21)
(99.33908099 0.8767214298 1.347156781e-20)
(99.2554768 0.9455993319 3.403140154e-20)
(99.27875926 0.9893520344 6.719549875e-21)
(99.11727634 1.437388857 -1.443870935e-20)
(99.07931467 1.397930101 -5.961045149e-21)
(98.96484093 1.510122509 5.297953137e-20)
(99.00832191 1.562008722 7.360072425e-20)
(98.86431764 2.192147912 1.770826161e-19)
(98.79721944 2.155559902 -1.397186511e-20)
(98.65686187 2.335402809 3.699725722e-19)
(98.73679453 2.384632949 5.214614944e-19)
(98.72705498 3.170348992 -3.253885127e-19)
(98.617422 3.162700943 9.957597801e-21)
(98.47372805 3.434794267 -6.796241888e-19)
(98.60794694 3.446991608 -3.299078458e-19)
(98.87397591 4.245514494 -2.243954093e-19)
(98.72345267 4.315685 -4.955123726e-19)
(98.63744231 4.675725715 2.796969937e-19)
(98.81946571 4.587721577 8.778868615e-21)
(99.44353963 5.051981729 1.288685565e-19)
(99.27946621 5.241357012 -1.51395866e-19)
(99.33572462 5.615054991 3.444126392e-21)
(99.47943007 5.380871432 -5.136448759e-20)
(100.2000901 5.212159201 6.180114194e-20)
(100.1281526 5.502518984 6.198025008e-20)
(100.2761544 5.779158506 6.173949109e-20)
(100.33419 5.447448267 2.284570846e-21)
(100.8230485 4.735838006 1.544173694e-19)
(100.8455015 5.051910372 2.511714228e-21)
(101.021712 5.197633777 1.911904963e-19)
(100.97144 4.861742082 0)
(101.1255245 3.908453514 6.094459719e-20)
(101.2117365 4.194794643 1.498758904e-21)
(101.3613997 4.242745308 -1.393427758e-19)
(101.249984 3.954774781 -2.196896094e-19)
(101.1531715 2.992532139 -4.215509822e-22)
(101.2660707 3.227003285 -5.422422576e-20)
(101.37434 3.213639911 -4.318363876e-22)
(101.2445336 2.989798036 1.593042636e-19)
(101.1305165 2.340732343 0)
(101.0173475 2.165469829 4.550781343e-20)
(101.202768 2.30951391 0)
(101.079574 2.143607387 0)
(100.7890782 1.424630544 2.847537766e-20)
(100.984806 1.669769697 1.834187893e-20)
(101.0688783 1.577139309 -1.646870033e-20)
(100.8558518 1.371447062 3.5749377e-20)
(100.5833094 0.9486114146 -3.272712295e-20)
(100.7353218 1.117174875 -1.461640549e-20)
(100.7857142 1.036973113 -1.475635963e-20)
(100.6256808 0.9014583687 -7.104760854e-21)
(100.4343362 0.4659335401 -9.012848148e-21)
(100.651847 0.5885628248 -1.916094106e-20)
(100.6724337 0.7586252091 -2.535071957e-21)
(100.5507658 0.7259123786 5.167009166e-21)
(100.3199172 0.2694479056 7.69703139e-21)
(100.4687178 0.3545218715 1.171311692e-20)
(100.2558528 0.122706552 -1.951700865e-21)
(100.3539981 0.1864819299 -3.449822199e-21)
(100.3005179 0.05795229907 -4.96913524e-22)
(99.94868732 -0.006925764785 0)
(99.97050358 -0.0112862735 0)
(99.90028819 -0.002042176492 3.71358636e-21)
(99.93328295 -0.02876073291 0)
(99.81325898 0.026770181 9.384333969e-21)
(99.85589507 -0.02778122197 -3.186809959e-21)
(99.69105968 0.1110815617 1.616785607e-20)
(99.72673949 -0.0005944446454 2.074359698e-20)
(99.65246975 0.08282098344 -6.237612739e-21)
(99.68810938 0.1555600796 2.214582769e-20)
(99.62502125 0.120316272 1.796696829e-21)
(99.60917032 0.1784235645 -8.907747059e-21)
(99.49646226 0.325251635 0)
(99.50378404 0.2631137348 -1.85448459e-20)
(99.39509398 0.2842805339 -1.520705199e-20)
(99.37771178 0.3714170852 3.781090402e-21)
(99.22822292 0.5981427324 0)
(99.22857241 0.5101010315 3.780685586e-21)
(99.06456204 0.5532041688 -3.894761473e-21)
(99.08168171 0.6924016615 1.891446417e-20)
(99.01571394 0.6770717131 4.873080054e-21)
(98.90914724 0.9817789393 3.303121001e-19)
(98.90026334 0.9160619044 1.119461062e-19)
(98.7853909 0.9698320737 1.114271348e-19)
(98.79300586 1.047711725 4.803711128e-21)
(98.44115522 1.650481966 -1.210170241e-19)
(98.41572631 1.559018447 -2.762593095e-20)
(98.25040805 1.660336519 -2.023053672e-19)
(98.27639496 1.77305315 1.171670036e-20)
(97.91251517 2.678050588 3.326873117e-20)
(97.84523753 2.566165013 5.359285787e-20)
(97.62075331 2.754085454 2.448953174e-19)
(97.70055967 2.893799517 4.639878536e-19)
(97.49209607 4.200018405 3.989363624e-19)
(97.33882939 4.092247956 -2.098927755e-20)
(97.07702355 4.42930436 -3.882828171e-20)
(97.27162979 4.560646013 3.697333979e-19)
(97.66409464 6.101207427 -5.993855505e-19)
(97.3868045 6.095797164 -1.317363353e-20)
(97.21595706 6.621898365 -3.24571896e-19)
(97.56771362 6.608266649 -3.336644546e-19)
(98.89999693 7.625346971 1.088394154e-19)
(98.59082621 7.862901066 8.565274205e-21)
(98.70667759 8.441894412 1.089276149e-19)
(99.05664924 8.112579685 8.4955347e-21)
(100.6697901 7.757943876 -4.233085405e-20)
(100.535152 8.197451232 8.599208775e-21)
(100.8812497 8.539462158 -7.323403856e-22)
(100.9733116 8.022920104 6.501178153e-21)
(101.8760039 6.677153671 -3.079810589e-19)
(101.9446524 7.116117396 -3.089058613e-19)
(102.2741539 7.194606278 -3.195580317e-19)
(102.148153 6.741706969 -1.064114973e-20)
(102.2947225 5.196988958 -1.890318641e-21)
(102.4618251 5.547354421 9.081259448e-20)
(102.699556 5.492802017 -3.22536342e-19)
(102.4868646 5.154944764 9.002423323e-20)
(102.1939367 3.809152847 -2.522085483e-20)
(102.384178 4.066244802 7.484442317e-22)
(102.5192872 3.970687494 -1.341734421e-19)
(102.3077654 3.732691372 -1.116600729e-19)
(102.0159732 2.8325344 -1.791981582e-20)
(101.8445179 2.650774387 -3.748115002e-21)
(102.0899458 2.731550583 1.052921679e-20)
(101.9086291 2.570848329 2.196270855e-20)
(101.384355 1.685311934 -9.252610111e-20)
(101.6695592 1.92716452 -5.861707112e-20)
(101.7300326 1.739413192 -3.286219804e-20)
(101.4381057 1.559010727 -1.68283613e-20)
(101.0096054 1.092259362 1.139313665e-20)
(101.2260553 1.250314764 3.431751898e-20)
(101.250484 1.110028975 -3.863643786e-21)
(101.0386453 0.9937435518 -3.764464057e-21)
(100.6736806 0.4770472898 1.994976345e-21)
(100.9373933 0.547496833 0)
(101.032266 0.7780758759 -1.105624887e-22)
(100.8962436 0.7822063047 -1.027488299e-20)
(100.4916454 0.2690354087 4.404172643e-22)
(100.6648843 0.3231429201 1.99479649e-21)
(100.3888798 0.1204907476 -2.000819062e-21)
(100.4941105 0.1643479203 -2.002967811e-21)
(100.4141643 0.05021466007 -2.014401108e-21)
(99.95928193 -0.03296768648 0)
(100.0016203 -0.02662559753 1.819147944e-21)
(99.89409301 -0.05467260581 -7.442929975e-21)
(99.95382884 -0.07557030462 -1.832485394e-21)
(99.77631911 -0.05443460719 7.686179121e-21)
(99.85581436 -0.1082513482 -3.705986634e-21)
(99.59900188 0.008657727985 1.008726755e-20)
(99.69014035 -0.1170672617 2.738856325e-21)
(99.57023599 -0.03914564718 6.343588926e-24)
(99.57620848 0.06848306118 -7.490161054e-21)
(99.52053893 0.001696252842 -7.551022581e-21)
(99.48027571 0.06786745474 0)
(99.29802157 0.2186508679 -1.520667659e-20)
(99.33259135 0.1394037871 0)
(99.2097094 0.1285687532 -8.77048926e-23)
(99.1542172 0.2338122107 -5.906088935e-23)
(98.90109004 0.4732301869 7.827829382e-21)
(98.93973437 0.3579122771 1.175518196e-20)
(98.74872335 0.3578820868 1.582408349e-20)
(98.71450443 0.543089179 -2.242944654e-20)
(98.65240365 0.498253632 -1.773192097e-20)
(98.41093826 0.8583105188 9.671365235e-20)
(98.43089157 0.7669004835 4.423804746e-20)
(98.28789622 0.793670016 -7.342269832e-21)
(98.26013187 0.9004123881 4.520130377e-20)
(97.64796632 1.56239881 -2.233831895e-20)
(97.65865674 1.424755166 1.718333188e-19)
(97.44624058 1.485662221 1.444588799e-19)
(97.42621312 1.650063948 2.360098312e-19)
(96.62927339 2.77506951 -2.363040485e-19)
(96.60317646 2.56040091 5.362296878e-19)
(96.26700591 2.703318889 1.676042551e-19)
(96.29591522 2.96388519 -6.47026411e-21)
(95.51573769 4.894055681 1.742764464e-19)
(95.35883057 4.596542374 -6.611089184e-20)
(94.88562229 4.920551737 -1.718035258e-21)
(95.08813185 5.302722835 -6.514512774e-20)
(95.24361881 8.25288199 2.153216685e-19)
(94.75672969 7.994203245 5.745544421e-21)
(94.27643441 8.755549165 1.366821647e-20)
(94.95244961 9.054286814 -3.517034204e-20)
(97.80188645 11.62506121 -2.203199159e-20)
(97.04417248 11.94896066 -3.085255249e-20)
(97.30470106 13.05973968 2.417113523e-23)
(98.19670378 12.49926196 -1.216197557e-20)
(101.974416 11.41498916 2.851963347e-21)
(101.7504139 12.23360687 1.064242965e-20)
(102.5757636 12.60755857 2.378939534e-20)
(102.64565 11.64825624 2.353546177e-20)
(103.9878295 8.766594036 0)
(104.2109985 9.409084462 0)
(104.7821313 9.277144168 0)
(104.437372 8.652834438 1.152555837e-19)
(104.1958071 6.232917879 -2.81254855e-19)
(104.5208914 6.631512497 -2.732942185e-19)
(104.799277 6.40319839 -5.77016602e-19)
(104.425589 6.047199973 1.058490534e-20)
(103.6568738 4.292464499 1.931662352e-20)
(103.9593844 4.543798714 2.64423116e-19)
(104.0860006 4.328638607 2.897331071e-19)
(103.7678841 4.116778136 8.255155694e-21)
(103.1589744 3.016686601 -6.177224426e-20)
(102.9075684 2.852174894 6.521956346e-20)
(103.2075186 2.840532375 -8.890758852e-20)
(102.9542321 2.701924485 1.73477373e-20)
(102.0956432 1.72895903 2.687060996e-20)
(102.465977 1.92328976 -2.454136113e-22)
(102.4661495 1.645698644 1.641468412e-20)
(102.1054148 1.528483834 1.221179152e-20)
(101.496461 1.083898562 -1.608917419e-20)
(101.776489 1.203074977 -8.212307523e-21)
(101.7462371 1.008941666 -8.213898542e-21)
(101.488088 0.9375192316 1.254040765e-20)
(100.9142857 0.3995897471 0)
(101.2121403 0.3995583551 1.333101734e-21)
(101.3903561 0.6560919802 -1.107240766e-20)
(101.2617197 0.7257088527 2.742673904e-20)
(100.6550434 0.216448499 -5.051559261e-22)
(100.8375695 0.2217780814 -1.575378132e-21)
(100.5096438 0.09384934193 -2.025787757e-21)
(100.6097205 0.1037489477 -2.297495914e-21)
(100.5026757 0.03042892369 2.585987679e-21)
(99.99981739 -0.06871750148 -1.275801868e-23)
(100.0664532 -0.04621885989 5.757114437e-23)
(99.91997877 -0.1281599153 1.9016505e-21)
(100.0099522 -0.1355128282 -6.945204837e-23)
(99.77546333 -0.1698990112 -9.963493465e-21)
(99.89531191 -0.2130241893 1.495907099e-21)
(99.54465892 -0.1470101747 -9.014697783e-21)
(99.70072621 -0.2721087431 -1.515340787e-20)
(99.53506628 -0.2146638463 -1.289276641e-20)
(99.49410623 -0.08170184714 -7.102363227e-21)
(99.46140752 -0.1778516469 -2.80807359e-21)
(99.39036259 -0.1121909156 3.239605511e-23)
(99.13527973 0.01512333534 1.145313106e-20)
(99.20436245 -0.07111049779 1.163326572e-20)
(99.07901778 -0.1198770818 5.743516603e-21)
(98.97934625 -0.01133714067 1.977598317e-20)
(98.61582995 0.2068139517 -1.172969468e-20)
(98.70573702 0.07311687567 -7.739595246e-21)
(98.50777259 0.02185309378 -1.170902203e-20)
(98.39680015 0.2238229476 -6.211964726e-20)
(98.35093682 0.15478863 -1.078961346e-20)
(97.94933965 0.5160690286 3.011032703e-20)
(98.00956891 0.4096359939 1.478338828e-20)
(97.85272021 0.3970208268 -3.152020604e-20)
(97.780197 0.5159847008 3.083313785e-20)
(96.8754779 1.104791114 5.959016057e-20)
(96.95276548 0.9351681163 1.903960564e-19)
(96.70878645 0.928513596 -1.582523963e-19)
(96.60450862 1.124817082 -1.25621106e-19)
(95.20191045 2.201509194 5.06845872e-21)
(95.29003597 1.914017662 1.457084259e-19)
(94.88248169 1.927459413 1.835090062e-19)
(94.75309155 2.272811314 1.492593756e-20)
(92.77795032 4.334056654 2.197707068e-19)
(92.80158941 3.807771233 1.408165552e-19)
(92.09482198 3.8662845 6.495303929e-21)
(92.0270087 4.551691482 1.041792735e-19)
(89.89722428 9.351575305 -4.264828072e-19)
(89.39790673 8.252386183 -2.172446083e-20)
(87.70712222 9.175999547 -8.273328415e-20)
(88.0075871 8.552188468 3.271524525e-19)
(88.96239222 10.53027943 -8.100406146e-20)
(88.13903379 10.47197002 4.814621224e-19)
(92.41200944 19.57707626 -2.301419673e-20)
(93.62149694 19.41395066 -1.151402815e-20)
(92.60476998 21.18565907 -9.999365378e-22)
(94.15402186 20.69361467 -2.356245667e-20)
(105.7711428 18.50306472 -1.306708693e-21)
(106.0222488 17.01320547 -9.106881668e-20)
(107.5204704 16.79575553 -9.09717901e-20)
(106.4523291 19.35011991 2.986739312e-19)
(108.3333744 18.35606698 -6.013184383e-20)
(107.9297178 19.01119067 -6.031976218e-20)
(108.5974059 11.31249043 4.151676767e-20)
(107.9241016 10.47226972 0)
(109.2597567 10.64187664 -1.039292399e-19)
(108.4443988 9.958070708 0)
(106.9229142 6.536392139 3.537846579e-19)
(107.4990179 6.901733181 -9.919039786e-20)
(107.7198948 6.406888108 -4.134277089e-19)
(107.115019 6.135203622 -3.76247404e-19)
(105.494664 4.15484362 -2.989466943e-22)
(105.9304748 4.334795791 -2.1768272e-20)
(105.9768258 3.985259389 -1.605230418e-19)
(105.5434298 3.861351183 2.038524995e-20)
(104.445099 2.707053015 -2.21022736e-20)
(104.1157006 2.610480742 2.08343215e-20)
(104.4212729 2.463086135 8.225567544e-20)
(104.1021001 2.390845375 1.062308198e-20)
(102.8288618 1.482088006 4.330744721e-21)
(103.2843092 1.575794863 -3.893688668e-20)
(103.1673341 1.234009373 -2.534327532e-21)
(102.7617335 1.216371388 -4.543388417e-21)
(101.9836332 0.8801178323 4.521927265e-21)
(102.3103263 0.9304388682 -1.809427026e-23)
(102.2061747 0.7008068085 -7.33265023e-21)
(101.9158086 0.6943792704 9.163886988e-21)
(101.1150978 0.2282256574 -1.807645695e-22)
(101.4100261 0.1455471389 -2.973010273e-22)
(101.7054472 0.3872198018 8.273819872e-22)
(101.596026 0.4891165992 6.666376549e-21)
(100.7793576 0.1089388825 -3.376065399e-21)
(100.9499785 0.05161181193 -2.430182058e-22)
(100.5929155 0.04124627965 2.513584096e-21)
(100.6735181 0.006540688616 -2.27299292e-21)
(100.5415677 -0.0008771562717 4.291615814e-22)
(100.0793553 -0.1122478894 1.341857532e-23)
(100.1723406 -0.06887940414 -2.696938555e-21)
(99.98868965 -0.2183089518 -4.9097887e-22)
(100.1100192 -0.2048772508 1.172914912e-21)
(99.82484557 -0.3133105866 -3.870839185e-21)
(99.98498206 -0.3349120182 -2.549315227e-21)
(99.55042197 -0.3470453201 7.940620508e-21)
(99.77220781 -0.4539182134 -8.759831364e-22)
(99.56629932 -0.4309700767 8.299691857e-22)
(99.46806494 -0.2872855639 3.878069709e-21)
(99.47051819 -0.4042389346 8.056207096e-21)
(99.36763336 -0.349556996 5.682162979e-21)
(99.04562574 -0.2722871677 -1.935665173e-21)
(99.15292035 -0.3524670494 2.994148197e-21)
(99.03775139 -0.4386893116 1.977710802e-21)
(98.89284936 -0.3439886057 5.993174594e-21)
(98.43149038 -0.1910408225 -1.343831645e-20)
(98.57658919 -0.3200523349 -1.550138181e-20)
(98.39169584 -0.4247316004 -1.05848841e-21)
(98.20215852 -0.2307957141 -1.450717978e-20)
(98.18363987 -0.3232808885 -1.704217658e-20)
(97.63754432 -0.03193697333 3.153070273e-20)
(97.74066038 -0.133384992 3.318713801e-20)
(97.59474089 -0.1923022212 -3.126082425e-20)
(97.47710258 -0.0843507238 4.779452957e-22)
(96.32718042 0.2762935872 -3.413365856e-20)
(96.48348639 0.1141272601 -8.7877569e-21)
(96.24987793 0.02996505145 3.19717107e-20)
(96.05509359 0.2048783767 3.360421628e-20)
(94.16951487 0.8358629123 8.619887092e-20)
(94.41220923 0.5624864627 2.798882301e-20)
(94.03942212 0.4189127766 -4.583010285e-20)
(93.72462364 0.7098941689 -9.703317189e-21)
(90.68658132 1.704615222 -2.534183163e-20)
(91.0891791 1.20726816 1.329066707e-21)
(90.54007318 0.8698936993 -2.522092749e-20)
(89.9530002 1.365784603 -2.511235767e-20)
(84.0479759 2.720771218 0)
(84.65224737 2.101369101 -1.559905067e-19)
(84.08710777 1.475520818 -1.746302559e-19)
(83.22622796 2.07622535 0)
(120.5518121 23.11304754 -4.802871127e-22)
(118.9895408 21.9734558 -1.017484612e-19)
(121.3604502 21.40318087 -2.26511356e-19)
(119.7958765 20.62923788 -2.265007605e-20)
(115.3739085 10.27392896 -6.897803501e-20)
(113.9273509 9.759914433 -1.192478069e-19)
(115.4731051 8.869433554 -2.692309908e-19)
(114.093313 8.67535279 -1.398482849e-19)
(110.1323324 5.343422787 4.527302127e-21)
(110.9642737 5.470440721 0)
(110.8860391 4.746751383 8.258894371e-21)
(110.1043097 4.743117938 0)
(107.3717611 3.11619532 1.000669667e-19)
(107.9152295 3.140105202 -1.095671247e-19)
(107.792342 2.701680968 1.633666365e-19)
(107.2892754 2.739944348 -1.337549924e-21)
(105.6433377 1.795962642 3.881098141e-20)
(105.2617835 1.801676763 8.688955344e-20)
(105.5121171 1.511475766 4.037708319e-20)
(105.159589 1.542736271 4.061276979e-20)
(103.4614674 0.9063430969 -4.949700469e-21)
(103.9685983 0.8664276529 3.050769569e-20)
(103.6955235 0.5087806658 7.94048489e-21)
(103.2866013 0.6177457054 1.184942284e-21)
(102.386099 0.4730656388 -1.97854454e-21)
(102.723977 0.4299783345 1.384167611e-20)
(102.526669 0.2023493467 5.095504115e-21)
(102.2456787 0.2807371795 1.010576592e-20)
(101.2309344 -0.02691523113 -3.378750108e-22)
(101.4950439 -0.1972176205 -1.068919255e-21)
(101.8999406 -0.0143018104 -1.086652286e-21)
(101.8424563 0.1411547979 -1.253039288e-21)
(100.8332524 -0.04884549664 1.08363083e-21)
(100.9705634 -0.1734319917 1.332726177e-21)
(100.6135443 -0.03417404534 -4.312684296e-21)
(100.6596287 -0.1197153771 1.664509396e-21)
(100.5093159 -0.04157662142 -2.134411121e-21)
(100.2045179 -0.1606169183 -1.537408069e-21)
(100.3238518 -0.09303622879 8.516117765e-22)
(100.1080973 -0.3187411738 -8.945734274e-22)
(100.2592 -0.2788129975 -6.344788789e-22)
(99.93447725 -0.4734676095 4.576216627e-22)
(100.1309696 -0.4648700534 -2.258063397e-22)
(99.63105141 -0.5757234491 5.117414531e-22)
(99.91269388 -0.648496199 7.70463835e-22)
(99.67573248 -0.6689657794 4.55665059e-22)
(99.51712306 -0.5302114679 1.336794558e-21)
(99.56164069 -0.6583389311 -1.219555451e-23)
(99.43008145 -0.6228352393 -1.21972891e-23)
(99.0577742 -0.6151094108 -1.974110821e-21)
(99.20055351 -0.6777060312 0)
(99.10667755 -0.7972047607 -9.694150642e-22)
(98.92299067 -0.729431488 -1.023781978e-21)
(98.39195105 -0.6723664262 1.811989317e-20)
(98.58687789 -0.776764117 5.230755383e-22)
(98.43319124 -0.9266844555 5.634026852e-21)
(98.17635121 -0.7686396811 -2.253647465e-20)
(98.19007214 -0.8723772324 -9.452325349e-21)
(97.5537378 -0.7041827414 -1.565759335e-20)
(97.68899521 -0.7826121594 -3.128912178e-20)
(97.56992782 -0.8792715713 -3.158546274e-20)
(97.41835158 -0.8009123079 -3.183543037e-20)
(96.1642496 -0.7452647792 6.78976725e-20)
(96.37808191 -0.8634657132 3.404211568e-20)
(96.1848809 -1.003848469 6.775133689e-20)
(95.93447002 -0.8880733676 8.521586681e-20)
(93.9605366 -0.8362454377 -4.897557494e-21)
(94.29231362 -1.007054567 4.739778875e-21)
(94.02154383 -1.228100247 2.507443182e-21)
(93.63822103 -1.077635216 1.668429732e-20)
(90.85614839 -1.310932795 4.903956941e-20)
(91.37122055 -1.500773111 -5.139753336e-20)
(91.09902159 -1.873965502 -5.303678675e-20)
(90.53861088 -1.758652818 5.371865857e-20)
(87.42965937 -3.293127207 5.881538136e-20)
(87.84660531 -3.221101729 -8.246188443e-20)
(87.86629494 -3.531229557 2.785437343e-20)
(87.51664787 -3.68081495 -5.771235504e-20)
(134.5491232 8.992448442 -2.892745381e-19)
(132.8685721 9.709195856 -1.459647606e-19)
(133.4856867 7.576962178 -1.42657183e-19)
(132.0810239 8.345042459 -1.61560022e-19)
(120.6135768 4.112258427 -9.533986833e-20)
(119.0231045 4.59262313 -1.792442737e-19)
(119.6703084 2.829495383 -9.144886251e-20)
(118.3928293 3.442769901 -8.470157133e-20)
(112.6283615 2.302075892 -9.253945112e-21)
(113.4850966 2.014773171 -1.970883331e-20)