/*--------------------------------*- C++ -*----------------------------------*\
| =========                 |                                                 |
| \\      /  F ield         | OpenFOAM: The Open Source CFD Toolbox           |
|  \\    /   O peration     | Version:  v1912                                 |
|   \\  /    A nd           | Website:  www.openfoam.com                      |
|    \\/     M anipulation  |                                                 |
\*---------------------------------------------------------------------------*/
FoamFile
{
    version     2.0;
    format      ascii;
    class       volScalarField;
    location    "2.42";
    object      nut;
}
// * * * * * * * * * * * * * * * * * * * * * * * * * * * * * * * * * * * * * //

dimensions      [0 2 -1 0 0 0 0];


internalField   nonuniform List<scalar> 
12556
(
1.155880128
1.155849021
1.155818759
1.15579515
1.156029255
1.156030136
1.156054278
1.156105069
1.156200737
1.156354498
1.156537044
1.098252842
1.03839082
1.082769021
1.156577551
1.156397025
1.156241537
1.156144082
1.156073558
1.156048314
1.155827263
1.155843444
1.155867287
1.155892997
1.155113562
1.155026702
1.154947202
1.154901654
1.155125652
1.155174195
1.155316927
1.155628081
1.156086865
1.156827064
1.157876603
1.018073403
0.9541569256
0.9770058771
1.09074858
1.157249653
1.156432216
1.155862333
1.155427293
1.155246317
1.15496494
1.155008868
1.155083684
1.155164
1.154315113
1.154167094
1.154043431
1.153987802
1.154258184
1.154415184
1.154766599
1.155421087
1.15655099
1.110213454
0.9015720256
0.7875625657
0.7468537626
0.7714870557
0.8665040222
1.03959649
1.157248111
1.155949083
1.154996593
1.154557123
1.154161722
1.154181331
1.154287621
1.154419296
1.153493269
1.153303369
1.153160987
1.153139973
1.153461633
1.15382072
1.154630515
1.155877238
1.078087265
0.8061140542
0.6401212849
0.5451927068
0.5094206196
0.5318656587
0.6137970778
0.7605049971
0.9928413424
1.156778239
1.154982932
1.154083265
1.153402342
1.153382296
1.15350039
1.153676037
1.152652752
1.152417294
1.152271901
1.152317796
1.152788729
1.153477342
1.155007499
1.157257391
0.8135899232
0.5871008486
0.4380636902
0.3430400021
0.303991262
0.3261254831
0.4046287504
0.5376120522
0.7398956934
1.04542239
1.15559929
1.153910463
1.152792192
1.152614101
1.152706927
1.152909776
1.151805257
1.151550674
1.151435539
1.151593839
1.152298752
1.153483014
1.156093688
0.9476851957
0.6459668089
0.445448912
0.29742237
0.1940296175
0.1520201157
0.1785463822
0.2561444195
0.3783284149
0.5615714143
0.8318265501
1.156953024
1.154109534
1.152334992
1.151891631
1.151919846
1.152133086
1.150948715
1.150684554
1.150630041
1.151016949
1.151974989
1.153896229
1.132652645
0.8091579725
0.5472602489
0.3614271421
0.2135090329
0.0983157332
0.05583836654
0.08837560962
0.165299982
0.2778943564
0.4434183767
0.6798011835
1.053372885
1.154756397
1.15201147
1.151222918
1.151129809
1.151326744
1.150140973
1.149890697
1.149938757
1.150594997
1.151825305
1.154721145
1.027054979
0.7365303137
0.5057534045
0.3355239679
0.1959889855
0.0808719701
0.05087443556
0.12498219
0.2248973921
0.3746329088
0.5918875552
0.9355079462
1.155796284
1.151883094
1.150642999
1.15036866
1.150531032
1.14940341
1.149177347
1.149361302
1.150349308
1.152011026
1.155905732
0.9661435502
0.7041717289
0.5085643395
0.3626631112
0.2521218905
0.1791676408
0.06262100908
0.1226029101
0.2092464309
0.344436366
0.5430368034
0.8624935002
1.157115074
1.151960222
1.150179477
1.149679272
1.149778891
1.148804231
1.148624758
1.148974629
1.150342354
1.15249601
1.157402298
0.9380386473
0.7083746198
0.536216924
0.4154562389
0.3388238706
0.3366603708
0.08836145301
0.1398764149
0.2188780737
0.3455175539
0.5320006698
0.8246876698
1.158643626
1.152276455
1.149905097
1.149136912
1.14916388
1.148345275
1.148230737
1.148788527
1.150606809
1.153266348
1.158912793
0.9309790908
0.7257188907
0.5745483225
0.470451108
0.4147531927
0.466884877
0.1205610984
0.1698429486
0.2471433932
0.3677811966
0.5422633536
0.8168522595
1.13324874
1.152814274
1.149838048
1.148795656
1.148728924
1.148099358
1.148054681
1.148811196
1.151061332
1.154256671
1.160511442
0.9379677768
0.7539443953
0.6155215627
0.5160492993
0.4533166007
0.444840077
0.157905719
0.2123806535
0.293121368
0.4144578423
0.5793591685
0.8354626173
1.121967329
1.153597306
1.15001959
1.148697697
1.148546742
1.148002026
1.148044009
1.149072223
1.151810695
1.155389272
1.161954419
0.9571609288
0.7977053058
0.6624129257
0.5598414424
0.4744229762
0.401892931
0.05005054821
0.2069127591
0.2764220693
0.364753893
0.4833316068
0.6448867397
0.8765530911
1.129920165
1.154494066
1.150416924
1.148839438
1.148596774
1.148109754
1.148235779
1.149500027
1.152628992
1.156744078
1.16373249
1.017846073
0.850306145
0.7282000233
0.6213022025
0.5200514616
0.276255181
0.1011829932
0.3083172406
0.3890192599
0.4725904797
0.5838820288
0.7296884824
0.9354670553
1.162759337
1.155473385
1.150993389
1.149197371
1.148897629
1.148289624
1.14849079
1.149975554
1.153490903
1.158004182
1.165031795
1.089477347
0.9379295289
0.8221686507
0.7244522739
0.6266659512
0.0989768262
0.1443214575
0.4010800005
0.5900991829
0.6332619222
0.7173287692
0.8475342771
1.029373661
1.165974516
1.156451893
1.151664929
1.149691736
1.149327176
1.148597784
1.148869682
1.150545789
1.154390066
1.159209452
1.166116151
1.164325991
1.068244234
0.9684571849
0.8976201451
0.7561471509
0.04571303869
0.1713779341
0.4443719782
0.7522745404
0.8541129628
0.8952766056
0.9973062445
1.163729515
1.167123455
1.157358545
1.152365376
1.150291095
1.149906517
1.14886972
1.149193584
1.151032955
1.155192266
1.16027476
1.166906194
1.164129194
1.143298872
1.08563775
0.94658041
0.4835798861
0.02748296008
0.2427963766
0.5209099667
0.813251377
1.01696927
1.115854317
1.15677289
1.171040017
1.168018844
1.158133154
1.153027472
1.150873004
1.150464247
1.149197282
1.149565834
1.151536926
1.155938369
1.161172204
1.167426667
1.163525029
1.140156515
1.061966391
0.8094229418
0.1457861983
0.05441661714
0.3258725395
0.6086715336
0.8654830296
1.032670842
1.119825073
1.158957564
1.171982456
1.168580714
1.158738424
1.153613712
1.151454562
1.1510381
1.149415783
1.149810836
1.151886771
1.156516676
1.161895537
1.167718555
1.162543269
1.136573455
1.045821099
0.6587394315
0.05766343864
0.1392371009
0.3942409979
0.6641263336
0.8872331888
1.038338566
1.122417239
1.160167668
1.172393408
1.168836475
1.159138877
1.15405353
1.151920061
1.151501952
1.149669556
1.150092305
1.152251577
1.157035787
1.162445317
1.167823749
1.161592941
1.132609902
1.027653252
0.5690819994
0.05130292681
0.1706512094
0.4157175045
0.6754569839
0.8958008461
1.042527223
1.123928257
1.160587558
1.172354517
1.168819076
1.159408018
1.154425158
1.15233391
1.151913192
1.149788185
1.150231601
1.152461407
1.157397607
1.162856327
1.167813967
1.160367465
1.128264905
1.005613129
0.4989847005
0.04884021707
0.1876852107
0.4289811401
0.6844941904
0.9023857723
1.04545731
1.124535226
1.16036979
1.1719477
1.168575122
1.159494362
1.154634172
1.152593496
1.152173321
1.149962876
1.150440902
1.152740385
1.157769393
1.163170457
1.167740812
1.159122064
1.12337892
0.9773042535
0.4463649236
0.04784591543
0.2020826294
0.441005668
0.6925293252
0.9069397604
1.047155872
1.124357361
1.159645366
1.171250022
1.168153395
1.159501733
1.154800088
1.152811756
1.152388341
1.149998709
1.150513219
1.152886686
1.158032334
1.163435127
1.167648105
1.15778462
1.117630929
0.940850385
0.405267412
0.04777013696
0.2150271066
0.4522144252
0.6997075267
0.9097910865
1.047636392
1.123490169
1.158526278
1.170334117
1.167598511
1.159358536
1.154806158
1.152867775
1.15244208
1.150128361
1.15069784
1.1531573
1.158378077
1.163681845
1.167572838
1.156401647
1.110613049
0.899546664
0.3710972951
0.04829860101
0.2269752406
0.4628193007
0.7059788858
0.9112973697
1.046980002
1.122020432
1.157105752
1.169262302
1.166946399
1.159190124
1.154809443
1.152916287
1.152482011
1.150115945
1.150741663
1.153294384
1.158629625
1.163935929
1.167534639
1.155040926
1.102088925
0.8588911116
0.3420642636
0.04898231105
0.2379492816
0.4722124569
0.7106991981
0.9113320175
1.045210353
1.120026123
1.155458873
1.168082769
1.166225003
1.158890402
1.15465591
1.152801516
1.152358659
1.150237478
1.150936047
1.153595086
1.159005893
1.164201341
1.167530252
1.153684614
1.092535207
0.8249173074
0.3213184783
0.04999243056
0.2467270937
0.4789818385
0.7127618832
0.9094733875
1.042371079
1.117609387
1.153646616
1.166831051
1.165455224
1.158614739
1.154546671
1.152725216
1.152267819
1.150205705
1.150973185
1.153738759
1.159265604
1.164485322
1.167543845
1.152242903
1.08294059
0.8009504204
0.3115353819
0.05137685495
0.2516859744
0.4819233492
0.7116610391
0.9058232438
1.038737317
1.114899571
1.151717222
1.165532893
1.164653151
1.15821306
1.154279429
1.152485977
1.152015904
1.150343308
1.151194767
1.154080039
1.159683773
1.164779623
1.167558414
1.150605436
1.073752615
0.784957745
0.3092697158
0.05306941493
0.2532412969
0.4817199568
0.7083645629
0.9011312115
1.03466541
1.111999375
1.149704203
1.164205743
1.163830132
1.157880538
1.154102492
1.152332216
1.151844671
1.150310606
1.151235768
1.15423045
1.159944389
1.16508974
1.16755833
1.14870925
1.064928628
0.7733050491
0.3108224863
0.05500361939
0.2532562363
0.4800614813
0.7041940438
0.8960523565
1.030376856
1.108966863
1.147629112
1.162860983
1.162994058
1.157416236
1.153762906
1.152014358
1.151512899
1.150470461
1.151486272
1.154608857
1.160402533
1.165402325
1.16752939
1.146552428
1.056477222
0.7640513817
0.3137007346
0.05714147892
0.2528430899
0.4779185117
0.699785483
0.8908529181
1.025963904
1.10583385
1.145505865
1.161505744
1.162150937
1.1570565
1.153545511
1.15181407
1.15129408
1.150450511
1.15153879
1.15476567
1.160653715
1.16572448
1.16745841
1.144168654
1.048478379
0.7564637988
0.3173564718
0.05946809868
0.2523179234
0.475554537
0.6952991597
0.8856022689
1.021466752
1.102621898
1.143344319
1.160144346
1.161303334
1.156563241
1.153174386
1.151461715
1.150928365
1.150620393
1.151804568
1.155166188
1.161143722
1.166039141
1.167335399
1.141607315
1.040984213
0.7502371509
0.3216464389
0.06196865411
0.2517021251
0.4730481259
0.6907815032
0.8803280096
1.016910425
1.09934711
1.141151182
1.158779169
1.160455779
1.156178402
1.152916891
1.151219147
1.150667296
1.150632573
1.151882854
1.155338004
1.161384021
1.166356729
1.167153485
1.13892756
1.034030933
0.7451972103
0.3264765531
0.06464021254
0.2510071839
0.4704551346
0.6862687951
0.8750547197
1.012314528
1.096021631
1.138931004
1.157411805
1.159605087
1.155706618
1.152570012
1.150889184
1.15032614
1.15078357
1.152135948
1.155733958
1.161884759
1.166657378
1.166911268
1.136178916
1.027629689
0.7411901167
0.3317159362
0.06747304607
0.2502811331
0.4678237321
0.6817969683
0.8698103334
1.007699264
1.092657275
1.136689102
1.156046285
1.158761552
1.155246569
1.152232628
1.150569733
1.14998858
1.150851839
1.152259448
1.155934839
1.162131201
1.166955794
1.1666124
1.133423357
1.021732011
0.7380181156
0.3372120305
0.07046305066
0.2495819541
0.4652077264
0.6774053294
0.8646264875
1.003086656
1.089266168
1.134429355
1.154699315
1.157925691
1.154906704
1.151992928
1.150343464
1.149754094
1.151064004
1.152599053
1.156452177
1.162773157
1.16724487
1.166280321
1.130787508
1.016298959
0.7355016574
0.3427845389
0.07362108185
0.2489645838
0.4626984435
0.6731723395
0.8595584975
0.9985106009
1.08586431
1.132155174
1.153442539
1.157168888
1.154282719
1.151539117
1.149918652
1.149310015
0.1596821248
0.05591983206
0.04385546031
0.3198583355
0.08128167311
0.05893831421
0.4536217563
0.1140875446
0.08513384883
0.4512752419
0.1447828634
0.1189324798
0.4060628143
0.03770697742
0.04699758047
0.1821478389
0.1487611898
0.3190742591
0.07339759709
0.03870834212
0.09596563494
0.2494872321
0.1853888323
0.07862713268
0.05612805399
0.04525623638
0.08399453416
0.02841637969
0.01895717765
0.06005530172
0.1037557011
0.1054962908
0.3168462418
0.3113870103
0.1842639863
0.02799431398
0.04171619671
0.08493991955
0.1199119071
0.1062761598
0.3984943024
0.4341180424
0.3270826535
0.3847946923
0.2004845076
0.2263285588
0.04908367201
0.03481003954
0.1164308502
0.1480186132
0.1259759777
0.4478098732
0.474705892
0.4469860846
0.4818369703
0.1304164789
0.1691087161
0.09230699912
0.06736178257
0.465986522
0.4297543436
0.4716044329
0.4342670783
0.07729653737
0.1017512502
0.01625694743
0.135952702
0.1252229657
0.5055033898
0.3895850698
0.4230974422
0.3718504518
0.03046595342
0.04999960537
0.2756727324
0.1020864112
0.07513021775
0.06474539396
0.1499576844
0.03095931338
0.05884607854
0.04284951162
0.02967630352
0.04763662886
0.03146757937
0.04864700045
0.229851435
0.2554070733
0.2636376405
0.1992104933
0.1845942883
0.1699542087
0.202116177
0.03446007209
0.02784092192
0.07052900306
0.04138257554
0.04693966857
0.04989909609
0.04160103283
0.06899294629
0.1718400632
0.1966594985
0.4019230911
0.1534953934
0.1294781959
0.1828381602
0.1554927299
0.06406533134
0.05031115528
0.1016274113
0.06962937392
0.08966069018
0.0474144902
0.0669792661
0.09729050204
0.1031308265
0.1287950259
0.4745662587
0.1035772912
0.07880624168
0.1280947495
0.1049019729
0.1214132352
0.09620434346
0.05095935791
0.07556444711
0.4327182899
0.01273269983
0.05318986853
0.03208791047
0.07776967549
0.05473238437
0.01195572527
0.1428785745
0.1379271851
0.0181874236
0.004728856203
0.03016763092
0.3673718205
0.0594632235
0.0189505596
0.0112911088
0.03173993752
0.01927826908
0.05702594064
0.2330528892
0.1667466172
0.09408852328
0.1008248379
0.06379531399
0.03633581876
0.01602564406
0.008288933222
0.242972463
0.2586099069
0.1644550332
0.009619057098
0.150920199
0.1854537761
0.1564691749
0.01162467872
0.0526838422
0.04561922052
0.07145198065
0.159884519
0.1468563495
0.1490514218
0.07107797857
0.1126966363
0.04127810216
0.01285589272
0.02246335197
0.02173182279
0.02977636295
0.04603339625
0.0442004774
0.03192161117
0.1334299243
0.1184866083
0.1325092104
0.09288864064
0.1152119071
0.1302659802
0.0260784772
0.01323075029
0.04520753857
0.02222390034
0.03777901976
0.03018019461
0.01912561654
0.0292970999
0.02120272221
0.01491441121
0.02261392312
0.01913781333
0.009860674498
0.01615113681
0.02142589703
0.03579974663
0.03640813834
0.04196584679
0.04096331753
0.01654979857
0.01008209492
0.08112601048
0.01394606953
0.02519977505
0.009529380081
0.01221631475
0.07745670868
0.09118045219
0.2516963597
0.2394566396
0.06740048957
0.05646297456
0.01126919614
0.04515460526
0.1859833018
0.1739360875
0.2026054939
0.1908647814
0.04549739703
0.04966750383
0.0416342484
0.09462937833
0.06509088491
0.05695837161
0.03982891934
0.06462789087
0.106612413
0.03754809703
0.02327821488
0.01466806443
0.05237286875
0.02594986635
0.0414737733
0.02500503862
0.05822483961
0.03985743933
0.03897755388
0.1963063612
0.03112384255
0.1956660294
0.217202342
0.03475548475
0.03882264785
0.03153126212
0.0342688778
0.2133233653
0.0330031993
0.03274479754
0.04459171192
0.0683915
0.06370830571
0.07477247671
0.07007777307
0.04485745525
0.04982285784
0.0558372305
0.050655101
0.06205069601
0.05728871913
0.04889519455
0.1417544458
0.1402001613
0.170344778
0.1686401912
0.06046094615
0.009384436969
0.05923015969
0.09442398683
0.09265197708
0.1159668741
0.1144031819
0.02674904623
0.03898551366
0.1074028365
0.02985346619
0.01779917895
0.06676585604
0.2190791898
0.2068806538
0.2353237053
0.2231213628
0.06804945924
0.02358612777
0.04878228808
0.04778791191
0.07086770468
0.07003382499
0.0076719453
0.03151100722
0.08282229941
0.07131229684
0.1692213685
0.1605104192
0.0242600445
0.01216878574
0.01821963814
0.01366039897
0.03031863556
0.01266866412
0.01348857355
0.01312362213
0.03035438999
0.04835410433
0.01340283633
0.01550661255
0.00363215459
0.01717567763
0.01337585256
0.5890608081
0.3711705651
0.3799614696
0.2515691821
0.008809619751
0.005331515104
0.1390860606
0.3289268306
0.2807417272
0.005852689303
0.01218802846
0.01079624724
0.09824703952
0.08702390964
0.03368035374
0.1978538385
0.1664241174
0.07445022823
0.009253148348
0.0157004084
0.01255232522
0.008419603188
0.01234386375
0.008737458563
0.03028197464
0.0128034286
0.01202301594
0.03902460802
0.04561297472
0.01300135464
0.01794147057
0.008857554857
0.008969032541
0.03641775004
0.1442127132
0.3142062284
0.3025969466
0.3295763746
0.3180615463
0.1473820068
0.2675427614
0.2555533161
0.09243754188
0.03349312592
0.09571084834
0.09064145221
0.01219756291
0.01729675007
0.08108682134
0.04607762319
0.01453579215
0.01291443972
0.03787307196
0.04233821548
0.03795992714
0.04899007061
0.04390257128
0.03956098485
0.03371462405
0.009008445553
0.008875631714
0.02907876362
0.182463485
0.3446504764
0.3333435646
0.0595243809
0.06142554804
0.1340602449
0.01903005976
0.0207785415
0.0538003457
0.07762584597
0.1018205019
0.09421200078
0.05337684966
0.08235448059
0.07670894639
0.09145039778
0.08456726186
0.05447261502
0.1161175904
0.2832192529
0.2714369311
0.2987324937
0.2871270992
0.1178679591
0.09974029413
0.03690862345
0.03762523034
0.02141140814
0.02223232423
0.0830691644
0.1231170692
0.05543402204
0.05912640382
0.03792375783
0.03859476791
0.1088725852
0.1112139774
0.04109701832
0.05639602007
0.008333596946
0.01609035071
0.05090373646
0.03910351925
0.07477979921
0.02080347004
0.02127192837
0.02041160263
0.06380828018
0.01163811554
0.004384678618
0.1239977031
0.1077078007
0.08891616235
0.08481801509
0.02983153892
0.01638856057
0.02696554713
0.06718567193
0.01871617048
0.01195872791
0.01765800763
0.02072514895
0.002825369899
0.03127925883
0.02032437898
0.01204985977
0.006339492389
0.01161957051
0.009625790044
0.009439473423
0.02517533542
0.01925732199
0.007508420565
0.03835133859
0.03996146838
0.01494938941
0.01099396193
0.007090861656
0.01154065738
0.01626595864
0.01061346108
0.01250051778
0.03720446797
0.01060226163
0.01060701443
0.01216559693
0.01264687211
0.03111664877
0.01235249618
0.01224324775
0.01289253871
0.01224673071
0.01273899598
0.01641398744
0.01354744655
0.02215716848
0.0179276283
0.01278822656
0.01457870905
0.02173544815
0.0180454815
0.0266085346
0.02284015673
0.01758417319
0.01570881975
0.01237318523
0.01104745067
0.008621934686
0.03206727383
0.03838170847
0.01179944795
0.01116139796
0.01221666552
0.01268255118
0.04445755035
0.008889656143
0.008860436474
0.01067281692
0.009017725378
0.008839720097
0.03748793505
0.008780475574
0.01202648128
0.01199621887
0.01102657628
0.01833646025
0.04716218242
0.04247365735
0.01035866632
0.03439183305
0.02938449007
0.04078208364
0.03628649317
0.01061667485
0.01153210535
0.03269972523
0.02741957795
0.1038561134
0.09751119707
0.03730910101
0.04762693634
0.1108254019
0.1055819993
0.04479962239
0.04395370516
0.06710602309
0.07772954649
0.094444649
0.05847680315
0.07295744988
0.06798072492
0.0596370891
0.1365260366
0.1256047629
0.1024601953
0.1357949549
0.05955548753
0.03864077708
0.04293857063
0.05349984106
0.03340075082
0.03737889309
0.02050970623
0.01942299293
0.04485171662
0.0139793963
0.01404349496
0.01094955761
0.02052388061
0.02437750258
0.01456935906
0.02071034133
0.03447787852
0.02833338185
0.02152883042
0.02932645355
0.09388968218
0.08240441047
0.1000981955
0.09627923302
0.03044070265
0.07422456278
0.07206932641
0.07912826323
0.07500348889
0.03623834097
0.1160049079
0.1116925351
0.1229736195
0.1175336979
0.03681729219
0.03262966563
0.1050741725
0.1014096592
0.1103106156
0.1063462064
0.03296949603
0.009322222623
0.009098393569
0.03350550161
0.03032602535
0.009123295379
0.009409069738
0.04322120091
0.0424634939
0.04536450104
0.04348195775
0.04106739868
0.04003426303
0.04221194592
0.04133551188
0.06878929652
0.06688017999
0.07139924019
0.06945316834
0.06153874642
0.04803330957
0.06608382923
0.06404046532
0.02167019506
0.0184421945
0.027935659
0.02340486599
0.006532679901
0.01185757095
0.01110672649
0.01721989115
0.01212180436
0.03596152269
0.03655825686
0.09842880478
0.02143238392
0.0212193692
0.02208529728
0.021615413
0.02055946574
0.08535073402
0.02288918699
0.03382206481
0.04071758537
0.05360102579
0.1213819225
0.03728690361
0.02421255625
0.03989772314
0.03697259334
0.02285469416
0.02231886311
0.02377555104
0.02307480377
0.1102170742
0.03882188399
0.03970049148
0.007010769839
0.02486773455
0.01039404607
0.01040874597
0.01025091877
0.02317514335
0.008680233931
0.01783771208
0.01194927789
0.01228285398
0.05026522679
0.04392584025
0.02021505759
0.02069716023
0.07385908584
0.06594757022
0.01933983578
0.02015399614
0.01171212839
0.02874466697
0.08229834358
0.07416676631
0.01356960283
0.01288933778
0.01793979235
0.01236069631
0.01393827938
0.01510806783
0.03116992495
0.009152050193
0.01357032282
0.01223057627
0.01365755794
0.02115859777
0.05217723767
0.1106017193
0.1431001708
0.01122359907
0.01086298522
0.1888415466
0.2399200394
0.1968316882
0.007420584046
0.03287080079
0.01326615046
0.01615066408
0.1368198206
0.1426834109
0.1603232938
0.004737784401
0.007238888511
0.005341859236
0.004870087584
0.005678235317
0.004442891984
0.05558387859
0.03471029085
0.02200846462
0.02520517084
0.02312750197
0.02703496096
0.2118229911
0.3740069821
0.3629491878
0.3550422569
0.3690730601
0.2154779284
0.03949066959
0.0344763081
0.01206666257
0.06007936091
0.07116517977
0.1342210339
0.1177873056
0.1124904193
0.04810684838
0.02790354208
0.02936760919
0.03289085411
0.3593808787
0.348351151
0.185872944
0.1482133302
0.06693836571
0.0706329125
0.07361099976
0.08404144258
0.1614911323
0.05849235728
0.1257124055
0.1196290727
0.01162841892
0.01154311088
0.013564005
0.02006613861
0.02036077996
0.03292982571
0.01152922593
0.01197519152
0.01169222516
0.02424010479
0.04748702969
0.04092509557
0.01889795093
0.03153415847
0.0196222551
0.01980003037
0.01930519557
0.01484890793
0.009801775485
0.0113053534
0.01106457712
0.0115527391
0.02114536413
0.02621624572
0.05258382908
0.04017890665
0.03658476122
0.03339089361
0.02463774723
0.03900282071
0.01400682949
0.0191360815
0.01257053878
0.009081021026
0.009165378913
0.01281589912
0.01263133524
0.02261228334
0.01435215732
0.009939340405
0.01738157509
0.0192565581
0.01779335863
0.01365346267
0.01705078829
0.01517796962
0.01036733676
0.01081623845
0.006621562964
0.009801136777
0.01031864274
0.05358278719
0.04866204833
0.01994583986
0.009438743151
0.01237046672
0.01140812881
0.01135559449
0.01323894481
0.01212041905
0.04763951846
0.03695806799
0.04238849417
0.0658312253
0.09244183987
0.09112326299
0.04136495747
0.06653834281
0.06298835002
0.09011403685
0.08843064234
0.06331001573
0.03232782379
0.0390452493
0.03496223517
0.02689461164
0.02757912466
0.02277275468
0.04649574011
0.04517719761
0.04957371606
0.02363013765
0.0339018919
0.03228104689
0.05198239591
0.05161462189
0.03087074597
0.02865614023
0.02824957591
0.03124634114
0.03055099687
0.03527767398
0.0578919719
0.05729558023
0.06140854823
0.06066544622
0.038078692
0.03185658413
0.05317782716
0.05267295363
0.0566821084
0.0560769491
0.03381956411
0.0643959383
0.06625416243
0.1465527829
0.1355271446
0.0619969005
0.06380533712
0.0906893479
0.09374752989
0.1756962857
0.02667238153
0.02652811648
0.02801530644
0.02779890789
0.02038603299
0.02626293825
0.02615721978
0.1633020079
0.08619476329
0.08954820778
0.009221912263
0.009201993593
0.01110996812
0.01071821297
0.009361513408
0.009064428605
0.006602886093
0.054997838
0.02160946421
0.02650523203
0.1335685127
0.1277405344
0.06165392999
0.07092894652
0.1405166547
0.1353027765
0.03224477924
0.03230284299
0.04913115778
0.04747564766
0.03185245024
0.03180232353
0.01135770854
0.02295020006
0.0364729734
0.03586903915
0.008892621586
0.01462907498
0.01629622854
0.01408559992
0.01362826882
0.0187010541
0.01894279223
0.0307672172
0.01284089892
0.009378803033
0.01269818174
0.0131021718
0.02878748734
0.01819813509
0.01878578721
0.01337648844
0.02947396261
0.02445136902
0.0113421622
0.01132051007
0.0108315549
0.01100338971
0.0144779426
0.006421589392
0.004107594342
0.007542582409
0.01133618024
0.01094234563
0.01094539962
0.0107677801
0.01100442206
0.01079639922
0.01001957815
0.006594620965
0.005232973788
0.01102171986
0.01133052477
0.01066116355
0.0107539961
0.01246063967
0.0191296391
0.01938450074
0.01874661104
0.01895498346
0.01234050276
0.008824935151
0.0143750998
0.01436670689
0.01484182064
0.0144792361
0.008741308183
0.01378203812
0.02155718116
0.02398254257
0.01966612434
0.02029865994
0.01334663755
0.008992287346
0.01440699424
0.01442141172
0.01434069885
0.01438996314
0.008931380419
0.01031778094
0.0104917791
0.009964975629
0.01044409387
0.03706946505
0.05595653187
0.05549857408
0.02164681785
0.03591621955
0.03566372577
0.0372284714
0.03627893464
0.02185303365
0.01215757479
0.0116889226
0.01194119142
0.012238935
0.02032098956
0.02012556838
0.02075785703
0.02053592576
0.01585552655
0.03500562179
0.02095566185
0.02187507633
0.02097709859
0.03517015875
0.03494974711
0.0355049659
0.03532087388
0.02110275857
0.02165738834
0.02106112228
0.03155539931
0.02263156379
0.01627545661
0.008144060121
0.01169666958
0.01139732653
0.008029191932
0.04273416168
0.02976097527
0.002981272495
0.02983417258
0.04551306738
0.04517532511
0.01868589265
0.01189402178
0.008747530274
0.003446304551
0.01355411326
0.01390873088
0.01938201827
0.01955035885
0.03146598266
0.01972686835
0.01083008012
0.01138688934
0.01479398658
0.004619062846
0.009127072235
0.006981983192
0.006847182033
0.007494497464
0.009667925253
0.006532446263
0.0111630854
0.01103915931
0.01107712729
0.03992734478
0.03098250027
0.008293889376
0.01033606173
0.01143170922
0.01866098997
0.02091786591
0.01219319769
0.01506467553
0.01469025554
0.01082581614
0.007145675709
0.0107688516
0.01235426866
0.00866083136
0.01226099466
0.01248064666
0.01239546675
0.01274489425
0.01247361213
0.01261346508
0.012534345
0.01234722539
0.01283128591
0.01286597104
0.01269733279
0.01300480193
0.01313201531
0.01306161161
0.01804495372
0.01966817679
0.01828844387
0.02616938901
0.02224977239
0.0172453337
0.016201526
0.01749898391
0.0105900018
0.01688683259
0.01787222698
0.01215833623
0.01682893418
0.01135651599
0.01158360697
0.01837228069
0.01855683685
0.01795172993
0.01821272218
0.01142356761
0.01239268628
0.02152593076
0.02114342474
0.008910917768
0.008882099696
0.009627684589
0.006966776092
0.008897207814
0.008868746511
0.008735361573
0.007985636153
0.009995831768
0.01780391629
0.01589833694
0.02057057833
0.01950992183
0.01130536644
0.009847627538
0.01025958735
0.01341505853
0.006715724403
0.0101238503
0.01007402875
0.01085975151
0.009848593752
0.01001137977
0.01592872375
0.01415997389
0.00977240445
0.04595696025
0.04297178136
0.08156246692
0.07324433021
0.04329320866
0.0630490542
0.0876019463
0.08422757304
0.03511896101
0.03237062766
0.0302787548
0.02292639384
0.02977603773
0.0429738506
0.04364566376
0.03822292594
0.02044195335
0.02943852074
0.02988595915
0.02673741378
0.02765809905
0.01925721537
0.01320832973
0.01420186505
0.02192835087
0.01548065619
0.01469327887
0.0165889927
0.01570697894
0.02224842761
0.01500458102
0.01566879507
0.01229603028
0.01605474099
0.04765043637
0.04783747488
0.03073771018
0.03041994309
0.05066331738
0.0506533441
0.0293365651
0.02894973293
0.03009759815
0.0296820309
0.05898487838
0.05841495876
0.03567346755
0.03743132172
0.06009646758
0.05954605444
0.05434773136
0.05381111423
0.03228697587
0.03335233155
0.05546107693
0.0548997751
0.009217669447
0.01451228645
0.01455057643
0.0144665535
0.01450579873
0.009175670277
0.009455615011
0.01354553954
0.01180223083
0.0144913002
0.01425768942
0.009448777761
0.04295671655
0.02539827126
0.02566415505
0.02498002696
0.02518329218
0.0427155915
0.04426472817
0.02659425619
0.02707389475
0.02592660382
0.02623288423
0.04379544613
0.04069308845
0.02377515102
0.02401115595
0.02341212314
0.02363914523
0.0404639992
0.04193799405
0.02459101939
0.02477888733
0.02417412123
0.02440485141
0.0416688777
0.02710436154
0.02692201101
0.06816167624
0.04596781699
0.04628083702
0.04528639205
0.04556006575
0.06746453909
0.02754336888
0.02734034353
0.02502926841
0.02627038677
0.0595160676
0.0416258878
0.04132872705
0.02796582058
0.02936050124
0.05324273522
0.06561351573
0.04460275729
0.04479800104
0.04390208269
0.04385431699
0.06441589897
0.02583481974
0.02587861599
0.009224479571
0.009351330305
0.009189084792
0.01037496009
0.009669017189
0.01150940897
0.009101758232
0.009112947435
0.008982838512
0.009043921218
0.0114546347
0.01541742278
0.009598009974
0.01045957297
0.009206614882
0.009052536916
0.01336206111
0.03588498193
0.05346303007
0.05315934187
0.05482799288
0.05447422604
0.03646160797
0.02138767952
0.02115004519
0.02196130361
0.02169028314
0.0216440364
0.01695816777
0.02407684534
0.04404959835
0.03951359849
0.05104066734
0.04927051341
0.03409650395
0.02627719355
0.01829757576
0.02350396984
0.02498414138
0.0392338451
0.02306222752
0.0233473473
0.02238272892
0.02311480859
0.0392992108
0.02269004882
0.02246647419
0.02350969555
0.0232662875
0.01053375289
0.01102320078
0.01083231426
0.01307470218
0.01172624323
0.01056745549
0.0101310565
0.01027443926
0.01049151685
0.010424828
0.006857526279
0.01235252267
0.01176959303
0.01194249595
0.01215711088
0.01193567541
0.01231768199
0.01966627012
0.01962120022
0.01992012968
0.01985483957
0.0301775114
0.0301534099
0.04550253957
0.01885736166
0.01989236813
0.01938701977
0.01945386683
0.02042773148
0.03436882372
0.03401091221
0.0347913373
0.03451337511
0.02050606843
0.01988545417
0.03332820687
0.03148721695
0.03388997832
0.03330771734
0.01987096715
0.01176782693
0.04359112229
0.04304658773
0.02853502079
0.01376468333
0.01122889454
0.01094604583
0.008350527879
0.01144873257
0.01307725884
0.01850537949
0.01304957154
0.01419755664
0.0138851748
0.03088497595
0.01905758654
0.0192602453
0.01257656038
0.01249400835
0.01256832361
0.01337469737
0.01315746062
0.008925742775
0.009198373428
0.01353621861
0.01264578821
0.01315459161
0.01546728929
0.01906695958
0.02880544245
1.15542048
1.156070926
1.155952783
1.156344234
1.157400685
1.156621313
1.157810443
1.01104115
1.157571386
0.9734125193
0.8689231248
1.032246444
0.8502255344
0.8076638737
0.9561539015
0.8052804413
0.8190245577
0.9691244033
0.8293242447
0.9010530139
1.070938138
0.9283905185
1.062656038
1.157488431
1.108836309
1.15728887
1.156606109
1.156951678
1.156080307
1.15598024
1.155682028
1.157083429
1.15621052
1.153705081
0.9340986077
1.157821502
0.874598377