/*--------------------------------*- C++ -*----------------------------------*\
| =========                 |                                                 |
| \\      /  F ield         | OpenFOAM: The Open Source CFD Toolbox           |
|  \\    /   O peration     | Version:  v1912                                 |
|   \\  /    A nd           | Website:  www.openfoam.com                      |
|    \\/     M anipulation  |                                                 |
\*---------------------------------------------------------------------------*/
FoamFile
{
    version     2.0;
    format      ascii;
    class       pointVectorField;
    location    "2.42";
    object      pointDisplacement;
}
// * * * * * * * * * * * * * * * * * * * * * * * * * * * * * * * * * * * * * //

dimensions      [0 1 0 0 0 0 0];


internalField   nonuniform List<vector> 
26316
(
(0 0 0)
(0 0 0)
(0 0 0)
(0 0 0)
(0 0 0)
(0 0 0)
(0 0 0)
(0 0 0)
(0 0 0)
(0 0 0)
(0 0 0)
(0 0 0)
(0 0 0)
(0 0 0)
(0 0 0)
(0 0 0)
(0 0 0)
(0 0 0)
(0 0 0)
(0 0 0)
(0 0 0)
(0 0 0)
(0 0 0)
(0 0 0)
(0 0 0)
(0 0 0)
(0 0 0)
(0 0 0)
(0 0 0)
(0 0 0)
(0 0 0)
(0 0 0)
(0 0 0)
(0 0 0)
(0 0 0)
(0 0 0)
(0 0 0)
(0 0 0)
(0 0 0)
(0 0 0)
(0 0 0)
(0 0 0)
(0 0 0)
(0 0 0)
(0 0 0)
(0 0 0)
(0 0 0)
(0 0 0)
(0 0 0)
(0 0 0)
(0 0 0)
(0 0 0)
(0 0 0)
(0 0 0)
(0 0 0)
(0 0 0)
(0 0 0)
(0 0 0)
(0 0 0)
(0 0 0)
(0 0 0)
(0 0 0)
(0 0 0)
(0 0 0)
(0 0 0)
(0 0 0)
(0 0 0)
(0 0 0)
(0 0 0)
(0 0 0)
(0 0 0)
(0 0 0)
(0 0 0)
(0 0 0)
(0 0 0)
(0 0 0)
(0 0 0)
(0 0 0)
(0 0 0)
(0 0 0)
(0 0 0)
(0 0 0)
(0 0 0)
(0 0 0)
(0 0 0)
(0 0 0)
(0 0 0)
(0 0 0)
(0 0 0)
(0 0 0)
(0 0 0)
(0 0 0)
(0 0 0)
(0 0 0)
(0 0 0)
(0 0 0)
(0 0 0)
(0 0 0)
(0 0 0)
(0 0 0)
(0 0 0)
(0 0 0)
(0 0 0)
(0 0 0)
(0 0 0)
(0 0 0)
(0 0 0)
(0 0 0)
(0 0 0)
(0 0 0)
(0 0 0)
(0 0 0)
(0 0 0)
(0 0 0)
(0 0 0)
(0 0 0)
(0 0 0)
(0 0 0)
(0 0 0)
(-8.513401475e-07 2.079347169e-06 2.775557562e-17)
(0 0 0)
(0 0 0)
(-4.690112487e-07 2.329090247e-05 3.330669074e-16)
(2.16935124e-06 1.980007996e-05 2.91433544e-16)
(0 0 0)
(0 0 0)
(0 0 0)
(0 0 0)
(0 0 0)
(0 0 0)
(0 0 0)
(0 0 0)
(0 0 0)
(0 0 0)
(0 0 0)
(0 0 0)
(0 0 0)
(0 0 0)
(0 0 0)
(0 0 0)
(0 0 0)
(0 0 0)
(0 0 0)
(0 0 0)
(0 0 0)
(0 0 0)
(0 0 0)
(0 0 0)
(0 0 0)
(0 0 0)
(0 0 0)
(0 0 0)
(0 0 0)
(0 0 0)
(0 0 0)
(0 0 0)
(0 0 0)
(0 0 0)
(0 0 0)
(0 0 0)
(0 0 0)
(0 0 0)
(0 0 0)
(0 0 0)
(0 0 0)
(0 0 0)
(0 0 0)
(0 0 0)
(0 0 0)
(0 0 0)
(0 0 0)
(0 0 0)
(0 0 0)
(0 0 0)
(0 0 0)
(0 0 0)
(0 0 0)
(0 0 0)
(0 0 0)
(0 0 0)
(0 0 0)
(0 0 0)
(0 0 0)
(0 0 0)
(0 0 0)
(-5.303642234e-05 1.732479638e-05 4.996003611e-16)
(-0.0003051456072 0.0001087787501 3.080868893e-15)
(-3.991365867e-06 1.754808405e-06 2.775557562e-17)
(-0.0005789004544 0.0003494993409 8.007483565e-15)
(-0.001435203729 0.0007058108021 1.992850329e-14)
(-0.00170055707 0.0009569613392 2.699229729e-14)
(-0.0007948736731 0.0005482996383 1.255939797e-14)
(-0.0009624078437 0.00115609997 2.646494135e-14)
(-0.001677920843 0.00165391559 4.662936703e-14)
(-0.001391691159 0.001826476161 5.152822613e-14)
(-0.0008255852346 0.001315466381 3.011479954e-14)
(-2.365982411e-05 0.001535922501 3.523570324e-14)
(-1.432105858e-05 0.00205728456 5.824507543e-14)
(0.0004954041094 0.002028092167 5.749567489e-14)
(0.0002839290879 0.001509850938 3.463895837e-14)
(0.0009207073498 0.001155536574 2.656208586e-14)
(0.001638437177 0.001643848355 4.676814491e-14)
(0.001789526259 0.00143560723 4.085620731e-14)
(0.0009661561881 0.0009671886961 2.223221607e-14)
(0.0005662703307 0.000353061031 8.118505868e-15)
(0.00140725462 0.0007064368814 2.009503675e-14)
(0.001057632434 0.0004723579789 1.34336986e-14)
(0.0003306226059 0.0001831424152 4.204969706e-15)
(0 0 0)
(5.564226048e-05 1.865222133e-05 5.273559367e-16)
(0 0 0)
(0 0 0)
(0 0 0)
(0 0 0)
(0 0 0)
(0 0 0)
(0 0 0)
(0 0 0)
(0 0 0)
(0 0 0)
(0 0 0)
(0 0 0)
(0 0 0)
(0 0 0)
(0 0 0)
(0 0 0)
(0 0 0)
(0 0 0)
(0 0 0)
(0 0 0)
(0 0 0)
(0 0 0)
(0 0 0)
(0 0 0)
(0 0 0)
(0 0 0)
(0 0 0)
(0 0 0)
(0 0 0)
(0 0 0)
(0 0 0)
(0 0 0)
(0 0 0)
(0 0 0)
(0 0 0)
(0 0 0)
(0 0 0)
(0 0 0)
(0 0 0)
(0 0 0)
(0 0 0)
(0 0 0)
(0 0 0)
(0 0 0)
(0 0 0)
(0 0 0)
(-0.0001481205225 2.112679366e-06 1.026956298e-15)
(-0.0008088621252 1.278383816e-05 6.009082121e-15)
(-0.000191659907 1.475914461e-05 1.429412144e-15)
(-0.002728635184 0.0002702007708 2.536859611e-14)
(-0.00435868642 0.0001020820089 4.06341627e-14)
(-0.005550493491 0.0001495829747 5.65658631e-14)
(-0.00374586465 0.0004095597928 3.806677196e-14)
(-0.005781496492 0.0008951621075 8.142098107e-14)
(-0.007624930732 0.0003119876503 1.079414336e-13)
(-0.007635222031 0.0003610085594 1.241784453e-13)
(-0.00591815319 0.00105407397 9.563183578e-14)
(-0.004532454654 0.001428809387 1.30867539e-13)
(-0.005590252599 0.0004487027787 1.634664626e-13)
(-0.0043388583 0.0004539967278 1.723898801e-13)
(-0.00356039806 0.001505793317 1.389999227e-13)
(0.0001807853908 0.001570272152 1.498523527e-13)
(0.0003049863023 0.000404133976 1.841582442e-13)
(0.001922310242 0.0003727149651 1.828814877e-13)
(0.001495934657 0.001539052542 1.48658863e-13)
(0.00477168272 0.001313613444 1.31131217e-13)
(0.006030975227 0.0002652304116 1.637856517e-13)
(0.006948725456 0.0002322180738 1.526695437e-13)
(0.005458154106 0.001203654308 1.21055943e-13)
(0.005813152857 0.0008078709412 8.18373147e-14)
(0.007744180124 0.0001520310442 1.084549117e-13)
(0.007311270762 0.0001306804778 9.138523271e-14)
(0.005346650804 0.0006648956926 6.712685963e-14)
(0.002713996981 0.0002601389305 2.570166302e-14)
(0.004344907345 6.856952072e-05 4.106437412e-14)
(0.003067746212 4.770684209e-05 2.681188604e-14)
(0.001701969268 0.0001520119814 1.489086632e-14)
(0 0 0)
(0.0001470648125 2.086479294e-06 1.040834086e-15)
(0 0 0)
(0 0 0)
(0 0 0)
(0 0 0)
(0 0 0)
(0 0 0)
(0 0 0)
(0 0 0)
(0 0 0)
(0 0 0)
(0 0 0)
(0 0 0)
(0 0 0)
(0 0 0)
(0 0 0)
(0 0 0)
(0 0 0)
(0 0 0)
(0 0 0)
(0 0 0)
(0 0 0)
(0 0 0)
(0 0 0)
(0 0 0)
(0 0 0)
(0 0 0)
(0 0 0)
(0 0 0)
(0 0 0)
(0 0 0)
(0 0 0)
(0 0 0)
(0 0 0)
(0 0 0)
(0 0 0)
(0 0 0)
(0 0 0)
(0 0 0)
(0 0 0)
(-6.372978172e-05 -1.181281767e-05 3.747002708e-16)
(0 0 0)
(-0.002709827149 -0.0004277268135 1.892930257e-14)
(-0.00402587893 -0.0008665937668 2.807476474e-14)
(-0.006292767 -0.001434376647 4.690692279e-14)
(-0.004623253062 -0.0007722214233 3.447242491e-14)
(-0.01050990598 -0.002147499427 9.862943795e-14)
(-0.01274034666 -0.003576172056 1.198069421e-13)
(-0.01420588362 -0.004342621348 1.462857613e-13)
(-0.01196657139 -0.002656860922 1.229572e-13)
(-0.01345784195 -0.00413278747 1.931510507e-13)
(-0.01531424546 -0.006504689488 2.204764149e-13)
(-0.01454652531 -0.007128954423 2.412237077e-13)
(-0.01291259179 -0.004572692184 2.134126209e-13)
(-0.008607825706 -0.005645653363 2.590844206e-13)
(-0.009475499427 -0.008593791286 2.866040738e-13)
(-0.007119464038 -0.008934960908 2.959021916e-13)
(-0.006506829041 -0.00590737298 2.687572387e-13)
(0.000727904667 -0.006371897862 2.811501032e-13)
(0.0008351655019 -0.009517625152 3.075317778e-13)
(0.003544888945 -0.009561066493 3.063382881e-13)
(0.003202572189 -0.00640973603 2.798455911e-13)
(0.009802035768 -0.006116693354 2.594729986e-13)
(0.01088703349 -0.009171264058 2.869926519e-13)
(0.01282485415 -0.008840717453 2.748912209e-13)
(0.01148230241 -0.005868035329 2.470662563e-13)
(0.01402540267 -0.004663368412 1.938449401e-13)
(0.016052526 -0.007192636161 2.21059282e-13)
(0.01607391032 -0.00644668807 1.979805209e-13)
(0.01389156847 -0.004131534176 1.716682352e-13)
(0.01053760316 -0.002351536432 9.867107131e-14)
(0.01314389032 -0.003985490558 1.223882107e-13)
(0.01131124399 -0.003174646462 9.744982599e-14)
(0.008959295485 -0.001847291538 7.745193376e-14)
(0.003096012985 -0.0005147669235 2.184363801e-14)
(0.004628742258 -0.001045319862 3.262667914e-14)
(0.002610271727 -0.0005523308979 1.734723476e-14)
(0.001491289626 -0.0002322004989 9.922618283e-15)
(0 0 0)
(0 0 0)
(0 0 0)
(0 0 0)
(0 0 0)
(0 0 0)
(0 0 0)
(0 0 0)
(0 0 0)
(0 0 0)
(0 0 0)
(0 0 0)
(0 0 0)
(0 0 0)
(0 0 0)
(0 0 0)
(0 0 0)
(0 0 0)
(0 0 0)
(0 0 0)
(0 0 0)
(0 0 0)
(0 0 0)
(0 0 0)
(0 0 0)
(0 0 0)
(0 0 0)
(0 0 0)
(0 0 0)
(0 0 0)
(0 0 0)
(0 0 0)
(0 0 0)
(0 0 0)
(0 0 0)
(-0.0002945432674 -9.288995545e-05 1.637578961e-15)
(-0.0006697965718 -0.00024216178 3.73312492e-15)
(-0.002378272941 -0.0009025507127 1.393329896e-14)
(-0.001599090818 -0.0005294774995 9.353628982e-15)
(-0.009377418802 -0.003642669534 6.5336625e-14)
(-0.01109077297 -0.004940546249 7.729927809e-14)
(-0.01427865707 -0.006760425831 1.063038546e-13)
(-0.01238270844 -0.005109988305 9.216238883e-14)
(-0.01944228843 -0.009941116576 1.822431095e-13)
(-0.0214657937 -0.01263504143 2.010891453e-13)
(-0.02257029527 -0.01449646192 2.313843561e-13)
(-0.02063514874 -0.01150370594 2.118583087e-13)
(-0.0201817388 -0.01567239611 2.904065877e-13)
(-0.02143755365 -0.01912461158 3.071987109e-13)
(-0.01969989502 -0.02026167924 3.251565683e-13)
(-0.01860894699 -0.01666964048 3.083089339e-13)
(-0.01141328752 -0.01882134462 3.444466934e-13)
(-0.01182736166 -0.02226678913 3.539807336e-13)
(-0.008726384909 -0.02257295793 3.573391583e-13)
(-0.008464185157 -0.01921771525 3.500116863e-13)
(0.0008868846884 -0.01983515603 3.555628014e-13)
(0.0008053293464 -0.02301217333 3.592404152e-13)
(0.003994834391 -0.0231209258 3.591987818e-13)
(0.004034342558 -0.01991731611 3.550909566e-13)
(0.01315647887 -0.01968186156 3.451683384e-13)
(0.01348583897 -0.02316639422 3.544664562e-13)
(0.01635736079 -0.02289595976 3.486100297e-13)
(0.01583516146 -0.01931806553 3.370359547e-13)
(0.02135604218 -0.01689255004 2.910310881e-13)
(0.02269659893 -0.02055986572 3.082534228e-13)
(0.02372602625 -0.01928884374 2.879085859e-13)
(0.02208953266 -0.01566754548 2.685074385e-13)
(0.02026344159 -0.01095702692 1.874334021e-13)
(0.02233340649 -0.01382754512 2.064459714e-13)
(0.02042229776 -0.01168979173 1.749711487e-13)
(0.01831500825 -0.009152294171 1.57027169e-13)
(0.009936541508 -0.00401734095 6.984690604e-14)
(0.01171445195 -0.00543245694 8.22952817e-14)
(0.008438097605 -0.003673648806 5.589972929e-14)
(0.006912310849 -0.002622507151 4.582445534e-14)
(0.0004557039876 -0.0001459330498 2.581268532e-15)
(0.0007828972227 -0.0002879610894 4.427014311e-15)
(1.987260687e-05 -6.958206821e-06 1.110223025e-16)
(0 0 0)
(0 0 0)
(0 0 0)
(0 0 0)
(0 0 0)
(0 0 0)
(0 0 0)
(0 0 0)
(0 0 0)
(0 0 0)
(0 0 0)
(0 0 0)
(0 0 0)
(0 0 0)
(0 0 0)
(0 0 0)
(0 0 0)
(0 0 0)
(0 0 0)
(0 0 0)
(0 0 0)
(0 0 0)
(0 0 0)
(0 0 0)
(0 0 0)
(0 0 0)
(0 0 0)
(0 0 0)
(0 0 0)
(-2.803619549e-05 -1.515284553e-05 1.387778781e-16)
(-7.650322223e-07 -3.81125173e-07 0)
(0 0 0)
(-0.002102470902 -0.001051190546 1.169897512e-14)
(-0.002653570766 -0.001448985554 1.476596623e-14)
(-0.005503184558 -0.003153974192 3.223810108e-14)
(-0.004695299651 -0.002463954515 2.750577544e-14)
(-0.01521454724 -0.009385349982 1.060124211e-13)
(-0.01656102964 -0.01116073384 1.1536605e-13)
(-0.02009498625 -0.0144055609 1.494498969e-13)
(-0.01903611345 -0.01248595109 1.416644579e-13)
(-0.02619121468 -0.02139609956 2.448319325e-13)
(-0.02728383444 -0.0243556581 2.546851618e-13)
(-0.02795286156 -0.02723669387 2.850636394e-13)
(-0.02696136807 -0.02404726453 2.754602102e-13)
(-0.02414358556 -0.02982862404 3.411299021e-13)
(-0.02467918406 -0.03326479487 3.472777621e-13)
(-0.02214130248 -0.03419598573 3.562844464e-13)
(-0.02179634489 -0.03088478669 3.527733661e-13)
(-0.01249390508 -0.03159359402 0)
(-0.0127286163 -0.03468249019 0)
(-0.01112081304 -0.03471074798 0)
(-0.009424217232 -0.0346721311 0)
(-0.009293804015 -0.03314355777 0)
(-0.009227123974 -0.03164994163 0)
(0.0004918787423 -0.03192761045 0)
(0.0004400533903 -0.03341331997 0)
(0.002067749921 -0.03346879442 0)
(0.002110755237 -0.03198291712 0)
(0.01357603296 -0.03250592698 0)
(0.01357138286 -0.03403351743 0)
(0.01357745232 -0.03558515089 0)
(0.01519497074 -0.03568830702 0)
(0.01679001079 -0.03576123256 0)
(0.01682644495 -0.03269453467 0)
(0.02522179219 -0.03165672919 3.435030038e-13)
(0.02557961526 -0.03512022777 3.493455525e-13)
(0.02748824227 -0.03378404879 3.353428646e-13)
(0.02692149819 -0.03026272005 3.277100813e-13)
(0.02710334863 -0.02317866956 2.506606034e-13)
(0.02806426371 -0.02623561381 2.597366766e-13)
(0.02661747821 -0.02301941625 2.280953204e-13)
(0.02541961044 -0.02011050502 2.177424907e-13)
(0.01636141021 -0.01051989186 1.147693052e-13)
(0.01789275071 -0.0125702594 1.254968351e-13)
(0.01408991995 -0.009299907466 9.318934513e-14)
(0.01269027973 -0.00766578397 8.393286066e-14)
(0.002822325392 -0.001439499629 1.591782262e-14)
(0.003527901986 -0.001966231729 1.990074772e-14)
(0.001263680533 -0.0006696514554 6.800116026e-15)
(0.0008597744387 -0.0004169854778 4.62130334e-15)
(0 0 0)
(0 0 0)
(0 0 0)
(0 0 0)
(0 0 0)
(0 0 0)
(0 0 0)
(0 0 0)
(0 0 0)
(0 0 0)
(0 0 0)
(0 0 0)
(0 0 0)
(0 0 0)
(0 0 0)
(0 0 0)
(0 0 0)
(0 0 0)
(0 0 0)
(0 0 0)
(0 0 0)
(0 0 0)
(0 0 0)
(0 0 0)
(0 0 0)
(0 0 0)
(0 0 0)
(0 0 0)
(-0.0002526192301 -0.0001792957771 1.276756478e-15)
(-0.0001439608232 -9.60791832e-05 7.355227538e-16)
(-0.0001177725075 -7.362434471e-05 5.828670879e-16)
(-0.003812814179 -0.002611669684 2.120525977e-14)
(-0.003954392505 -0.002891656335 2.198241589e-14)
(-0.007320097731 -0.005618623918 4.282685317e-14)
(-0.007126302846 -0.005123521101 4.171663015e-14)
(-0.01914172555 -0.01618814313 1.330602295e-13)
(-0.0194524287 -0.01756396308 1.351280199e-13)
(-0.02314632136 -0.02223200989 1.715155795e-13)
(-0.02281241512 -0.02052281797 1.692118667e-13)
(-0.02952912585 -0.03305544328 2.740585536e-13)
(-0.02985627472 -0.03566352592 2.765565554e-13)
(-0.03022149233 -0.03935707322 3.05297454e-13)
(-0.02991988704 -0.03652668086 3.029521078e-13)
(-0.0255778683 -0.04297737516 3.554101458e-13)
(-0.02574509655 -0.04607633309 3.562844464e-13)
(-0.02278230702 -0.04655973262 0)
(-0.02267275404 -0.04353533953 3.59254293e-13)
(-0.01315436036 -0.04383146937 0)
(-0.01321662334 -0.04536419016 0)
(-0.0116310882 -0.04541017711 0)
(-0.01156904834 -0.04387986637 0)
(0.0133654747 -0.04470894553 0)
(0.01332166887 -0.04622742043 0)
(0.01490624877 -0.04628885006 0)
(0.01495164517 -0.04477268056 0)
(0.02593020249 -0.04499504973 3.574918139e-13)
(0.02589172549 -0.04810581313 3.583522368e-13)
(0.02845773898 -0.04722461819 3.51080276e-13)
(0.02839119013 -0.04402705321 3.490818745e-13)
(0.03072200674 -0.03609205607 2.855632397e-13)
(0.03105919331 -0.03899614581 2.892963646e-13)
(0.02997254893 -0.03477401748 2.581546088e-13)
(0.02957271052 -0.03211264183 2.54282706e-13)
(0.02099010806 -0.01849635086 1.474098621e-13)
(0.02145598295 -0.02019151407 1.507960423e-13)
(0.01741717445 -0.01540002011 1.153244167e-13)
(0.01697361401 -0.01405276699 1.123268145e-13)
(0.005118536659 -0.003579271481 2.886579864e-14)
(0.005779899929 -0.004318389506 3.259892356e-14)
(0.00275623056 -0.001957682485 1.480759959e-14)
(0.002268976474 -0.001508449305 1.219857548e-14)
(0 0 0)
(0 0 0)
(0 0 0)
(0 0 0)
(0 0 0)
(0 0 0)
(0 0 0)
(0 0 0)
(0 0 0)
(0 0 0)
(0 0 0)
(0 0 0)
(0 0 0)
(0 0 0)
(0 0 0)
(0 0 0)
(0 0 0)
(0 0 0)
(0 0 0)
(0 0 0)
(0 0 0)
(0 0 0)
(0 0 0)
(0 0 0)
(0 0 0)
(0 0 0)
(0 0 0)
(0 0 0)
(-0.0004146932963 -0.0003643926455 2.095545959e-15)
(-0.0003745496988 -0.0003133157462 1.887379142e-15)
(-0.000328585617 -0.0002609915753 1.665334537e-15)
(-0.004699035027 -0.004088966101 2.611799665e-14)
(-0.004859217455 -0.004453257075 2.700617507e-14)
(-0.008473531994 -0.008151514476 4.954370247e-14)
(-0.008272644657 -0.007556469447 4.83779683e-14)
(-0.02068469933 -0.02222316109 1.433853036e-13)
(-0.02094117412 -0.02369067057 1.450506382e-13)
(-0.02461852731 -0.02961377547 1.817157536e-13)
(-0.024363082 -0.02783588993 1.800226634e-13)
(-0.03080705518 -0.04368615637 2.836758606e-13)
(-0.03101997261 -0.04627692967 2.850636394e-13)
(-0.03122988855 -0.05071953124 3.124722703e-13)
(-0.03103953577 -0.04793498371 3.113204139e-13)
(-0.02614888972 -0.05523893303 3.576722252e-13)
(-0.02626439743 -0.05826088613 3.57880392e-13)
(-0.02319299772 -0.05859025152 0)
(-0.02309246299 -0.05559004168 0)
(-0.0135902656 -0.05591836388 0)
(-0.0136414732 -0.05741948033 0)
(-0.01206019963 -0.0574738958 0)
(-0.01200878343 -0.05597278661 0)
(0.01297982034 -0.05682220868 0)
(0.01292761002 -0.05833213163 0)
(0.01450855221 -0.05838806714 0)
(0.01456101403 -0.05687891874 0)
(0.02563927138 -0.05726510827 3.591987818e-13)
(0.02553384909 -0.06028437717 3.592404152e-13)
(0.02837365524 -0.05969025935 3.551187122e-13)
(0.02843640579 -0.05662572306 3.545774785e-13)
(0.03189665264 -0.04786668991 2.99080205e-13)
(0.03201546806 -0.05068730433 3.00912073e-13)
(0.03127419824 -0.04569597146 2.713940184e-13)
(0.03109048282 -0.04307396809 2.69256839e-13)
(0.02312678431 -0.02594654683 1.6298074e-13)
(0.0234519445 -0.02772955425 1.654371085e-13)
(0.01946575747 -0.02161510012 1.292577156e-13)
(0.01912320512 -0.02015098084 1.268707361e-13)
(0.006626582188 -0.005894721424 3.740063814e-14)
(0.006895469217 -0.006462521008 3.89271948e-14)
(0.003555909219 -0.003167896438 1.91235916e-14)
(0.003352396095 -0.002834838207 1.801336857e-14)
(0 0 0)
(0 0 0)
(0 0 0)
(0 0 0)
(0 0 0)
(0 0 0)
(0 0 0)
(0 0 0)
(0 0 0)
(0 0 0)
(0 0 0)
(0 0 0)
(0 0 0)
(0 0 0)
(0 0 0)
(0 0 0)
(0 0 0)
(0 0 0)
(0 0 0)
(0 0 0)
(0 0 0)
(0 0 0)
(0 0 0)
(0 0 0)
(0 0 0)
(0 0 0)
(0 0 0)
(0 0 0)
(-0.0006117439067 -0.0006406951579 3.094746681e-15)
(-0.000551523596 -0.0005543700931 2.789435349e-15)
(-0.0004979072533 -0.0004794995875 2.525757381e-15)
(-0.00525829909 -0.005547867413 2.922662112e-14)
(-0.005419965176 -0.005968462837 3.011479954e-14)
(-0.009170501808 -0.01059878644 5.358213873e-14)
(-0.008970920158 -0.009934327352 5.243028234e-14)
(-0.02157821031 -0.02807922862 1.491307078e-13)
(-0.02182884161 -0.0296362026 1.507405312e-13)
(-0.02550693711 -0.03679697812 1.875166689e-13)
(-0.02525759942 -0.03493029101 1.858790899e-13)
(-0.03157393724 -0.05402446557 2.88422064e-13)
(-0.03178140386 -0.05667919951 2.897265761e-13)
(-0.03191985723 -0.06187988075 3.163302953e-13)
(-0.03173467457 -0.05904607747 3.152478278e-13)
(-0.02659463733 -0.06729666057 3.583522368e-13)
(-0.02670464722 -0.07031226401 3.585187702e-13)
(-0.02358966887 -0.07056601011 0)
(-0.02349100932 -0.06757367137 0)
(-0.01399499069 -0.06790150003 0)
(-0.01404509105 -0.06939680717 0)
(-0.01246596091 -0.06945079994 0)
(-0.01244076924 -0.06870308168 0)
(-0.01241559936 -0.06795598921 0)
(0.0125452144 -0.06888777589 0)
(0.01248861337 -0.07039183739 0)
(0.01406783484 -0.07044520678 0)
(0.01412462752 -0.06894163928 0)
(0.02519499915 -0.06931051781 3.592265374e-13)
(0.02507585485 -0.07229842784 3.591571485e-13)
(0.02786675619 -0.07141189248 3.542860449e-13)
(0.02801525277 -0.06854498689 3.547578897e-13)
(0.03164683205 -0.05800598964 2.996769499e-13)
(0.03145249307 -0.06028637936 2.985944825e-13)
(0.03071883816 -0.0542561592 2.688405054e-13)
(0.03091504176 -0.0522360119 2.69978484e-13)
(0.02314215313 -0.03156430126 1.637856517e-13)
(0.02297151152 -0.03272180835 1.627448176e-13)
(0.01902386048 -0.02543190367 1.267319583e-13)
(0.01917817182 -0.02455312755 1.276478923e-13)
(0.006707331424 -0.007242997557 3.79002385e-14)
(0.006619131226 -0.007461828688 3.741451593e-14)
(0.003353712241 -0.003593589239 1.804112415e-14)
(0.003415771292 -0.003506097869 1.837419106e-14)
(0 0 0)
(0 0 0)
(0 0 0)
(0 0 0)
(0 0 0)
(0 0 0)
(0 0 0)
(0 0 0)
(0 0 0)
(0 0 0)
(0 0 0)
(0 0 0)
(0 0 0)
(0 0 0)
(0 0 0)
(0 0 0)
(0 0 0)
(0 0 0)
(0 0 0)
(0 0 0)
(0 0 0)
(0 0 0)
(0 0 0)
(0 0 0)
(0 0 0)
(0 0 0)
(0 0 0)
(0 0 0)
(-0.0008761069455 -0.001065354088 4.440892099e-15)
(-0.0008044899724 -0.0009443525723 4.066191828e-15)
(-0.0007352244701 -0.0008320418952 3.719247132e-15)
(-0.005925716687 -0.007344953155 3.291811268e-14)
(-0.006103993933 -0.007846989107 3.390343561e-14)
(-0.01000635431 -0.01349699817 5.83977311e-14)
(-0.009789843778 -0.01273303407 5.714873019e-14)
(-0.02259785322 -0.03448808899 1.556671458e-13)
(-0.02286359057 -0.03617197523 1.573741137e-13)
(-0.02653314679 -0.04456928912 1.942057626e-13)
(-0.02627018944 -0.04257688547 1.924849169e-13)
(-0.03241153889 -0.06477839807 2.9365399e-13)
(-0.03262616757 -0.06752598887 2.949723799e-13)
(-0.03266923728 -0.0733953119 3.206046539e-13)
(-0.03247972496 -0.07048841209 3.195360643e-13)
(-0.02702794112 -0.07936097428 3.589073483e-13)
(-0.02713326938 -0.08237508232 3.58990615e-13)
(-0.02398135057 -0.08254242969 0)
(-0.02388395165 -0.07954830664 0)
(-0.01439375928 -0.0798755148 0)
(-0.01444300412 -0.08137224406 0)
(-0.01286658818 -0.08142621197 0)
(-0.01284179193 -0.08067785339 0)
(-0.01281693098 -0.07992963629 0)
(0.01208125532 -0.08090261459 0)
(0.01202041585 -0.08240444003 0)
(0.01359816325 -0.08245615691 0)
(0.01365933587 -0.08095476078 0)
(0.02466487033 -0.0811060399 3.583106034e-13)
(0.02449689458 -0.08392619474 3.576028362e-13)
(0.0270065137 -0.08198752932 3.4898473e-13)
(0.02727449874 -0.07953800461 3.510247648e-13)
(0.03025593054 -0.06564678713 2.893796314e-13)
(0.02959770614 -0.06672095778 2.837313717e-13)
(0.02879509185 -0.05971553798 2.540329058e-13)
(0.02933703439 -0.05857458939 2.583072645e-13)
(0.02126031081 -0.03413779443 1.510874759e-13)
(0.02071742633 -0.03451971896 1.473682287e-13)
(0.01681412722 -0.02627376828 1.123406923e-13)
(0.01731827898 -0.02608291007 1.15629728e-13)
(0.005409404802 -0.006866122534 3.060052212e-14)
(0.005118806273 -0.006739561473 2.896294315e-14)
(0.002276443291 -0.002849101747 1.225408663e-14)
(0.002471295705 -0.002981763162 1.330879851e-14)
(0 0 0)
(0 0 0)
(0 0 0)
(0 0 0)
(0 0 0)
(0 0 0)
(0 0 0)
(0 0 0)
(0 0 0)
(0 0 0)
(0 0 0)
(0 0 0)
(0 0 0)
(0 0 0)
(0 0 0)
(0 0 0)
(0 0 0)
(0 0 0)
(0 0 0)
(0 0 0)
(0 0 0)
(0 0 0)
(0 0 0)
(0 0 0)
(0 0 0)
(0 0 0)
(0 0 0)
(0 0 0)
(-0.001107363323 -0.001533229354 5.606626274e-15)
(-0.00114518733 -0.00153726742 5.800915304e-15)
(-0.00104536706 -0.001359253875 5.287437155e-15)
(-0.006687068652 -0.009518558474 3.712308239e-14)
(-0.006915141166 -0.01016035031 3.838596108e-14)
(-0.01098031625 -0.01692087717 6.400435737e-14)
(-0.01070825313 -0.01598829497 6.245004514e-14)
(-0.02371232552 -0.04147004946 1.627586954e-13)
(-0.02403498125 -0.04336248104 1.64812608e-13)
(-0.02768536093 -0.05298624032 2.016581346e-13)
(-0.02736955138 -0.05078872318 1.996180998e-13)
(-0.03329687789 -0.07593973792 2.991218384e-13)
(-0.03354210745 -0.07883242629 3.006622729e-13)
(-0.0334668294 -0.0852657928 3.251843239e-13)
(-0.03325591613 -0.08224721442 3.239492008e-13)
(-0.02744155445 -0.09140096918 3.592126596e-13)
(-0.02754187991 -0.0944032197 3.592404152e-13)
(-0.02436852826 -0.09451545558 0)
(-0.02427177933 -0.09152200607 0)
(-0.0147831475 -0.09184804603 0)
(-0.01483106637 -0.09334468221 0)
(-0.01325762825 -0.09339819838 0)
(-0.01323352007 -0.092649607 0)
(-0.01320936172 -0.0919015743 0)
(0.01158401119 -0.09288768196 0)
(0.01151896298 -0.09438441807 0)
(0.01309619768 -0.09443486399 0)
(0.01316173263 -0.09293814483 0)
(0.02389058808 -0.09190091741 3.539113447e-13)
(0.0236337063 -0.0942883095 3.518296765e-13)
(0.02573820487 -0.09064723817 3.380073998e-13)
(0.02611407012 -0.08877139331 3.415878691e-13)
(0.02774777951 -0.06961264991 2.67758038e-13)
(0.02725570053 -0.07071585506 2.635808238e-13)
(0.02589173693 -0.06166600751 2.299688218e-13)
(0.02672780332 -0.06160097508 2.370326158e-13)
(0.01829231987 -0.03378414723 1.304234498e-13)
(0.01714344878 -0.03268524535 1.222771884e-13)
(0.01330553464 -0.02377735441 8.908151994e-14)
(0.01445763558 -0.02503057838 9.676981438e-14)
(0.003631634818 -0.005296054597 2.056688153e-14)
(0.003171688863 -0.004775059149 1.795785742e-14)
(0.001030401147 -0.001475056385 5.551115123e-15)
(0.001296912834 -0.001798200854 6.994405055e-15)
(0 0 0)
(0 0 0)
(0 0 0)
(0 0 0)
(0 0 0)
(0 0 0)
(0 0 0)
(0 0 0)
(0 0 0)
(0 0 0)
(0 0 0)
(0 0 0)
(0 0 0)
(0 0 0)
(0 0 0)
(0 0 0)
(0 0 0)
(0 0 0)
(0 0 0)
(0 0 0)
(0 0 0)
(0 0 0)
(0 0 0)
(0 0 0)
(0 0 0)
(0 0 0)
(0 0 0)
(0 0 0)
(-0.001969111177 -0.003057097455 9.964251646e-15)
(-0.001795140103 -0.002711371847 9.089951014e-15)
(-0.001536263178 -0.002256019312 7.771561172e-15)
(-0.007648581071 -0.01228772242 4.241051954e-14)
(-0.008219117344 -0.01357643967 4.557465516e-14)
(-0.01247548498 -0.02160184667 7.260858581e-14)
(-0.01177576731 -0.01983547768 6.855627177e-14)
(-0.02512512674 -0.04946355765 1.717515019e-13)
(-0.02560358093 -0.05179533597 1.748046152e-13)
(-0.02914662534 -0.06249408078 2.111644193e-13)
(-0.02874472125 -0.05998963183 2.085415174e-13)
(-0.03434010954 -0.08778703094 3.057276654e-13)
(-0.03449147181 -0.09052869835 3.063937992e-13)
(-0.03437912634 -0.09767860275 3.305689056e-13)
(-0.03414222727 -0.09452692182 3.291811268e-13)
(-0.02783885113 -0.1033845529 0)
(-0.02793969282 -0.1063775815 0)
(-0.02476156059 -0.1064866765 0)
(-0.02471143603 -0.104990674 0)
(-0.02466172382 -0.1034945179 0)
(-0.01516313666 -0.1038205563 0)
(-0.01518685361 -0.1045679082 0)
(-0.01439991627 -0.1045943954 0)
(-0.01437627611 -0.1038472497 0)
(-0.001516871964 -0.104473228 0)
(-0.001538517226 -0.1048456235 0)
(-0.001557658936 -0.1052181757 0)
(-0.0007869100545 -0.1052362326 0)
(-0.0007449534298 -0.1044918826 0)
(0.01102934436 -0.1048424163 0)
(0.01095297149 -0.1063324926 0)
(0.01087598734 -0.10782213 0)
(0.01403973788 -0.1079243892 0)
(0.0141897386 -0.1049430966 0)
(0.01261012767 -0.1048929161 0)
(0.02271701592 -0.1005149574 3.431838147e-13)
(0.02229127896 -0.1018891727 3.382988334e-13)
(0.02385842353 -0.09583572089 3.18051141e-13)
(0.02451514557 -0.095444519 3.256839243e-13)
(0.02489689465 -0.07093827194 2.420563749e-13)
(0.02399141352 -0.07038570388 2.335909244e-13)
(0.02230039678 -0.05995902565 1.991046217e-13)
(0.02324647951 -0.06072354459 2.073202721e-13)
(0.01420525297 -0.02963056232 1.014743845e-13)
(0.01334976068 -0.02864474117 9.540979118e-14)
(0.009776120384 -0.01965447508 6.553091403e-14)
(0.01052992586 -0.02058082857 7.0568551e-14)
(0.001499996698 -0.00247020634 8.493206138e-15)
(0.001219392922 -0.002065829188 6.911138328e-15)
(9.669753329e-05 -0.0001558593068 5.273559367e-16)
(0.0001847444398 -0.0002894254328 9.992007222e-16)
(0 0 0)
(0 0 0)
(0 0 0)
(0 0 0)
(0 0 0)
(0 0 0)
(0 0 0)
(0 0 0)
(0 0 0)
(0 0 0)
(0 0 0)
(0 0 0)
(0 0 0)
(0 0 0)
(0 0 0)
(0 0 0)
(0 0 0)
(0 0 0)
(0 0 0)
(0 0 0)
(0 0 0)
(0 0 0)
(0 0 0)
(0 0 0)
(0 0 0)
(0 0 0)
(0 0 0)
(0 0 0)
(-0.001867474718 -0.003229216663 9.492406861e-15)
(-0.002110462613 -0.003559493671 1.071365219e-14)
(-0.002255169711 -0.003707815871 1.144917494e-14)
(-0.009106890231 -0.01637098015 5.068168107e-14)
(-0.008814540752 -0.01625452745 4.90579799e-14)
(-0.01316177154 -0.02543626363 7.686906667e-14)
(-0.01351160218 -0.02545641274 7.892297926e-14)
(-0.02679816878 -0.05893365487 1.834365992e-13)
(-0.02637461357 -0.05947364967 1.804112415e-13)
(-0.02989073205 -0.07139784104 2.167988011e-13)
(-0.03030047712 -0.0706012095 2.199768145e-13)
(-0.03527703673 -0.1005246342 3.1366576e-13)
(-0.03502293818 -0.1022145431 3.108208135e-13)
(-0.03465964186 -0.1094620186 3.328171072e-13)
(-0.03482943733 -0.1074449514 3.352040867e-13)
(-0.02789161052 -0.1153982499 0)
(-0.02799580675 -0.118391649 0)
(-0.02480882753 -0.1185025835 0)
(-0.02475674152 -0.1170062316 0)
(-0.0247046313 -0.1155091844 0)
(-0.01514383271 -0.115841983 0)
(-0.01519594292 -0.1173390303 0)
(-0.01360252285 -0.1173944951 0)
(-0.01357645564 -0.1166456238 0)
(-0.01355041263 -0.1158974479 0)
(-0.01434712267 -0.1158697154 0)
(-0.002396126712 -0.1162857137 0)
(-0.002422168386 -0.1170338897 0)
(-0.002448234929 -0.117782761 0)
(-0.000854765892 -0.1178382275 0)
(-0.000802655676 -0.1163411803 0)
(0.01035158385 -0.1167294445 0)
(0.01024738763 -0.1197228436 0)
(0.0133907509 -0.1193738195 3.57880392e-13)
(0.01352938434 -0.1167476301 3.589767372e-13)
(0.02105221441 -0.1056324725 3.240324675e-13)
(0.02050970619 -0.1059877506 3.171074514e-13)
(0.02163417172 -0.09782373812 2.925992781e-13)
(0.0222809593 -0.09793767902 3.003153282e-13)
(0.02087489717 -0.06649260403 2.03989603e-13)
(0.02002792464 -0.06549064308 1.959682416e-13)
(0.01789870494 -0.05352844264 1.602745714e-13)
(0.01912203474 -0.05576396589 1.711686348e-13)
(0.010078202 -0.02341365697 7.20534743e-14)
(0.008784922607 -0.02092161632 6.281086762e-14)
(0.005974943367 -0.01333629222 4.00651734e-14)
(0.006807708022 -0.01481768017 4.565792189e-14)
(0.0002510867861 -0.0004610255373 1.415534356e-15)
(0.0001134163442 -0.0002136453319 6.383782392e-16)
(0 0 0)
(0 0 0)
(0 0 0)
(0 0 0)
(0 0 0)
(0 0 0)
(0 0 0)
(0 0 0)
(0 0 0)
(0 0 0)
(0 0 0)
(0 0 0)
(0 0 0)
(0 0 0)
(0 0 0)
(0 0 0)
(0 0 0)
(0 0 0)
(0 0 0)
(0 0 0)
(0 0 0)
(0 0 0)
(0 0 0)
(0 0 0)
(0 0 0)
(0 0 0)
(0 0 0)
(0 0 0)
(0 0 0)
(0 0 0)
(-0.000436096973 -0.0008287852572 2.220446049e-15)
(-0.0007913473231 -0.001469999927 4.024558464e-15)
(-0.001175758595 -0.002133665633 5.967448757e-15)
(-0.006753208562 -0.01340764764 3.759492717e-14)
(-0.005769012674 -0.01172935079 3.212707878e-14)
(-0.009405782538 -0.02004878329 5.498379529e-14)
(-0.01064163075 -0.02214584691 6.217248938e-14)
(-0.02311576732 -0.05611513217 1.580680031e-13)
(-0.02142643753 -0.05329109097 1.466049504e-13)
(-0.0249180835 -0.06562056318 1.806887973e-13)
(-0.02663800237 -0.06847059031 1.93067784e-13)
(-0.03257557477 -0.1020529208 2.882000194e-13)
(-0.031143958 -0.09990448159 2.755295991e-13)
(-0.03149161867 -0.1091261911 3.00981462e-13)
(-0.03271442512 -0.1107562227 3.127775816e-13)
(-0.02797826557 -0.1260081561 3.553685124e-13)
(-0.02757871024 -0.1268567839 3.495120859e-13)
(-0.02499191078 -0.1293805977 3.562150575e-13)
(-0.02510515944 -0.1274088651 3.590461262e-13)
(-0.01556066603 -0.1278169702 0)
(-0.01566488646 -0.1308110646 0)
(-0.01247797677 -0.1309219967 0)
(-0.01237375634 -0.1279279023 0)
(-0.01396724595 -0.127872435 0)
(-0.002812957747 -0.1282607009 0)
(-0.002917178179 -0.1312547954 0)
(0.0002697523677 -0.1313657282 0)
(0.0003739727997 -0.1283716337 0)
(0.009866887107 -0.1275541057 3.56048524e-13)
(0.009649449317 -0.1284865146 3.505251644e-13)
(0.01243733091 -0.1246389335 3.397698789e-13)
(0.01277898247 -0.124731809 3.479022626e-13)
(0.01875361938 -0.1045971608 2.912947661e-13)
(0.01794445892 -0.1023787216 2.787076125e-13)
(0.01844514067 -0.0918094614 2.499112028e-13)
(0.01939559557 -0.09441903365 2.629008122e-13)
(0.01657728272 -0.05818166101 1.621480727e-13)
(0.01540594225 -0.05526161257 1.505462421e-13)
(0.01310705366 -0.04299031086 1.17197918e-13)
(0.01425965202 -0.04576051619 1.276062589e-13)