/*--------------------------------*- C++ -*----------------------------------*\
| =========                 |                                                 |
| \\      /  F ield         | OpenFOAM: The Open Source CFD Toolbox           |
|  \\    /   O peration     | Version:  v1912                                 |
|   \\  /    A nd           | Website:  www.openfoam.com                      |
|    \\/     M anipulation  |                                                 |
\*---------------------------------------------------------------------------*/
FoamFile
{
    version     2.0;
    format      ascii;
    class       volVectorField;
    location    "2.42";
    object      U;
}
// * * * * * * * * * * * * * * * * * * * * * * * * * * * * * * * * * * * * * //

dimensions      [0 1 -1 0 0 0 0];


internalField   nonuniform List<vector> 
12556
(
(99.99830882 0.004092183815 -4.516525966e-21)
(99.99780595 0.01363907291 3.242986325e-25)
(99.99640154 0.02837536 -4.506236854e-21)
(99.9940656 0.05168547111 -4.474455408e-21)
(99.99976744 0.04021579722 4.313091353e-21)
(99.99707688 0.06537753602 0)
(99.99558741 0.1039727747 0)
(99.99520761 0.1562076225 -7.485480355e-21)
(99.99402989 0.2235869645 8.67862047e-22)
(99.99342134 0.3025616113 -5.582981887e-21)
(99.99411557 0.3820866528 7.491482802e-22)
(99.99510796 0.4439370958 0)
(99.99989661 0.4698793533 0)
(100.0046629 0.4506975971 1.171004769e-21)
(100.0057383 0.395449382 -1.704587535e-21)
(100.0063367 0.3219825112 9.610679171e-22)
(100.0058577 0.2471942926 0)
(100.0050995 0.1813959092 1.517760155e-21)
(100.0046238 0.1267968548 6.220621392e-21)
(100.0024598 0.08789554 -1.727180718e-21)
(100.0095014 0.09881236327 -1.494062057e-20)
(100.0064127 0.06037672654 0)
(100.0046442 0.03189950113 -1.868305304e-21)
(100.0044161 0.009996559595 -1.314733529e-20)
(99.9847505 0.01098748295 1.809978305e-20)
(99.9788918 0.03711622541 4.518731535e-21)
(99.96571264 0.07797392816 3.154838854e-20)
(99.94324868 0.1429429792 -1.351156035e-20)
(99.94729589 0.1913877114 4.346545553e-21)
(99.91334792 0.3144399701 -5.627806922e-23)
(99.87005355 0.5003476427 0)
(99.84841102 0.6641712397 -7.577016697e-21)
(99.80474979 0.9617821046 -6.96918581e-21)
(99.77676177 1.321741761 -1.197779253e-20)
(99.78485113 1.694904476 -4.869719263e-21)
(99.84069559 1.995297606 -2.90406744e-21)
(99.94073606 2.135870362 -1.491472242e-21)
(100.0478992 2.066170345 3.27684633e-22)
(100.1273108 1.822870725 -5.696851525e-22)
(100.1616849 1.48843614 4.959892726e-21)
(100.1580474 1.140607156 -9.493359808e-21)
(100.1317572 0.838318589 0)
(100.1334979 0.6179780153 -2.627199629e-20)
(100.0931383 0.4153992993 5.046934774e-20)
(100.0891822 0.2801771162 1.44648828e-20)
(100.0611616 0.1705871652 2.970648761e-20)
(100.0450832 0.09045034778 -2.979450109e-20)
(100.0389521 0.02839786674 1.501588566e-20)
(99.95902687 0.01418971334 -1.805945335e-20)
(99.94241143 0.04911399874 -3.627488109e-20)
(99.90629191 0.1061788996 -8.127573257e-20)
(99.84613872 0.1994180508 1.081251584e-19)
(99.81730074 0.3030866531 -8.936812983e-21)
(99.71517944 0.5132468268 -8.667643686e-21)
(99.58057292 0.8343299328 -1.503031367e-20)
(99.51071874 1.178198048 0)
(99.36966602 1.751867375 2.890761584e-20)
(99.28174507 2.460694924 -3.911407748e-20)
(99.32296472 3.217247435 1.209358095e-19)
(99.53690559 3.875585834 -5.089860064e-20)
(99.92035085 4.210137565 3.610811517e-20)
(100.3258851 4.069164763 1.46238363e-21)
(100.5875331 3.527692056 -2.293579793e-21)
(100.6702124 2.819199546 1.927123001e-21)
(100.6313771 2.125786446 -1.02058853e-20)
(100.5222631 1.523907422 -2.363023294e-20)
(100.4397051 1.045832624 -1.578236399e-19)
(100.3150701 0.6933715397 -3.483199664e-20)
(100.24489 0.4200583243 -1.479694645e-20)
(100.1710347 0.2534327833 3.360835197e-20)
(100.1266833 0.1344258585 -3.771648359e-21)
(100.1073188 0.04199188828 0)
(99.92916629 0.01134060126 -9.108394941e-21)
(99.89718647 0.04223003823 6.375249988e-20)
(99.82872984 0.100974553 -1.824274433e-20)
(99.7169694 0.2014730729 0)
(99.62972976 0.347739428 0)
(99.42845828 0.6196288537 -7.026287759e-20)
(99.15184178 1.050330399 -1.405035171e-19)
(98.94209966 1.566154583 3.299499293e-20)
(98.61657597 2.404111751 7.071046798e-20)
(98.39382604 3.485782014 -5.867804889e-20)
(98.41183517 4.770467196 -3.429524424e-20)
(98.8657042 6.015837252 0)
(99.81384584 6.72041242 3.419077788e-20)
(100.8582772 6.462233517 7.142654405e-20)
(101.4754748 5.418628301 -5.613280037e-20)
(101.5777237 4.132288455 -1.481429395e-19)
(101.4072544 2.986286258 -9.23519837e-20)
(101.1516103 2.087712899 0)
(100.9046968 1.361470926 5.711350832e-20)
(100.6461403 0.881599846 -4.39349046e-20)
(100.4604926 0.493409712 -3.783280743e-20)
(100.3234015 0.2942658657 1.912627683e-20)
(100.2384099 0.1538274147 -3.835311133e-21)
(100.1996449 0.0475897281 0)
(99.90977523 0.0009072973275 0)
(99.85979162 0.01135825013 0)
(99.75376431 0.05339844327 9.22071413e-21)
(99.57952428 0.1376747775 1.392201399e-20)
(99.41937623 0.3060966823 2.304546832e-20)
(99.08622278 0.5991440266 0)
(98.62393157 1.070229553 0)
(98.19542166 1.718177178 0)
(97.59936857 2.761449639 5.750763743e-19)
(97.06396403 4.253055528 -2.78840663e-19)
(96.84302201 6.2619036 7.723300958e-21)
(97.48878494 8.584678616 -3.299779499e-19)
(99.50527224 10.14434901 2.772576335e-19)
(101.9066922 9.627920978 -1.271698482e-19)
(103.1196482 7.584598439 -3.188400223e-19)
(103.1066319 5.357075114 0)
(102.5688059 3.635051707 0)
(101.9962421 2.426555824 -4.148204651e-22)
(101.4965398 1.505110885 -9.37376805e-20)
(101.0549539 0.9463711902 7.781669222e-21)
(100.707207 0.4797981765 0)
(100.4919962 0.2802947063 3.903181013e-21)
(100.3579859 0.1417552146 -2.931474984e-21)
(100.2958227 0.04309629151 -9.719386203e-22)
(99.91735526 -0.01767059445 0)
(99.84882013 -0.04534512625 0)
(99.70522745 -0.04221409168 -1.846699202e-20)
(99.46496076 0.002447518965 3.767222992e-20)
(99.22036719 0.1624619933 0)
(98.74209105 0.4212663884 0)
(98.06169772 0.8610405915 2.956697298e-20)
(97.38779978 1.533955302 6.389284826e-19)
(96.39378872 2.647338643 1.362716718e-18)
(95.27183476 4.406679096 6.70740237e-19)
(94.23313852 7.259310169 1.29879037e-18)
(94.43063165 11.66218727 -1.06491405e-18)
(98.5931498 15.64237452 0)
(104.2420354 14.17661379 -6.266010406e-19)
(106.1404792 9.826806754 6.095431476e-20)
(105.4817561 6.250230932 -4.986920953e-19)
(104.1431709 3.900595454 -2.491693112e-19)
(103.0052242 2.450110273 -9.54117945e-20)
(102.1564157 1.417036734 2.407497853e-20)
(101.4914998 0.8512096024 -1.606027886e-20)
(100.9507809 0.3671798733 0)
(100.6472081 0.2033260912 0)
(100.460802 0.09414004482 -9.840204838e-22)
(100.3737451 0.02741223662 -2.94977107e-21)
(99.96794165 -0.04398341652 4.514109617e-21)
(99.88257986 -0.1260487779 -4.549167004e-21)
(99.70628373 -0.182768499 9.291444635e-21)
(99.4074601 -0.204445547 -3.399301388e-20)
(99.07026864 -0.08568879787 7.861047681e-23)
(98.45989265 0.0822465856 2.919748135e-20)
(97.59108046 0.4002818409 -6.067005722e-20)
(96.64975833 0.9760282008 0)
(95.20643993 1.953110067 7.906367094e-19)
(93.26898525 3.590132019 -1.689920217e-18)
(90.48060025 6.586682626 -1.739334801e-18)
(87.04583016 13.77144329 -5.752798824e-20)
(94.9100174 26.3415911 0)
(110.9851461 20.35386844 4.047419454e-19)
(111.3717741 11.2044264 -7.28242e-19)
(108.6710814 6.151593567 6.357001447e-19)
(106.0102786 3.48645352 5.537793508e-19)
(104.0837586 2.037745362 5.714149754e-19)
(102.7753017 1.046975337 0)
(101.8936614 0.5692941227 8.703215978e-21)
(101.1468465 0.1565058172 2.577775202e-21)
(100.7567348 0.05960347936 -3.050789858e-21)
(100.5221384 0.01116519641 -3.471506811e-21)
(100.4110904 0.0007579736201 8.368466106e-21)
(100.0754038 -0.07650977613 -4.514582034e-21)
(99.97713011 -0.2258411416 4.550795055e-21)
(99.77682176 -0.3586750906 -5.780917105e-21)
(99.43511084 -0.4672534784 -3.895669704e-21)
(99.01902444 -0.4217414555 1.663136651e-20)
(98.30812221 -0.3914384883 9.933293164e-21)
(97.31722122 -0.2791988376 -8.97390274e-20)
(96.14843402 0.08231859085 -1.294645309e-18)
(94.3634965 0.6774814324 1.686894764e-18)
(91.77994842 1.627375462 1.183688184e-18)
(87.38889343 3.057771379 -2.433255935e-20)
(78.61191119 5.802133945 2.577546717e-18)
(127.1265598 22.35001329 1.742445657e-18)
(118.3746768 8.873086966 2.516690743e-18)
(112.0855161 4.265673153 0)
(107.7633408 2.173197223 0)
(105.0279446 1.128529547 0)
(103.2390154 0.3952982144 -4.607019326e-21)
(102.1817624 0.1176858084 1.962953594e-20)
(101.2476865 -0.144718301 -3.136375401e-21)
(100.7895547 -0.1406857991 2.567830914e-21)
(100.5179679 -0.101923451 -4.836994286e-22)
(100.3870067 -0.03579580972 -7.853978885e-21)
(100.2499097 -0.1128681068 -2.175338313e-21)
(100.1441803 -0.3373287072 -1.634761554e-21)
(99.9312833 -0.5558107788 -5.609173194e-22)
(99.56736567 -0.7634573445 1.699883353e-21)
(99.09362187 -0.8136396611 -3.355229411e-23)
(98.33568508 -0.9502233549 0)
(97.30172718 -1.081965551 -8.189952617e-20)
(96.00986681 -1.007277264 1.926767289e-19)
(94.11047869 -0.8937855378 8.767125939e-19)
(91.46335086 -0.7956439759 -1.820554019e-18)
(87.3977771 -1.211702186 -4.111347089e-18)
(81.83325079 -3.326039646 2.033806161e-21)
(139.356132 5.008135121 -5.05658245e-18)
(122.8767697 1.708096597 6.01489166e-18)
(114.2578243 0.5119423178 0)
(108.8504075 0.02919225518 -2.868948172e-18)
(105.5742698 -0.1879563038 1.605462862e-19)
(103.4425234 -0.4594350151 -4.690622091e-21)
(102.2772912 -0.4643971697 1.100872508e-20)
(101.2185321 -0.5079163887 1.0746458e-21)
(100.7213705 -0.3793373108 0)
(100.428395 -0.2355560346 3.958209547e-21)
(100.2850571 -0.07916928517 3.91359287e-21)
(100.4964629 -0.150191134 4.28457258e-21)
(100.3893584 -0.4516723218 6.72722235e-23)
(100.1763518 -0.7575175047 0)
(99.81267771 -1.067033729 2.190701381e-22)
(99.30866229 -1.223443685 -2.280065607e-21)
(98.56078971 -1.530642643 2.436905137e-21)
(97.55895196 -1.898627901 -8.385216353e-20)
(96.26636978 -2.100324932 -1.887757696e-19)
(94.46905611 -2.399327712 0)
(92.11118051 -2.883754595 -5.968237642e-20)
(88.91146135 -4.023215655 4.524704887e-21)
(85.47634626 -6.07187563 -5.285559932e-19)
(135.4384141 -11.52397825 -4.451126828e-18)
(122.1627589 -6.344542061 0)
(114.1522059 -3.851645258 0)
(108.8185947 -2.430989399 -1.053884825e-18)
(105.5361996 -1.676552324 8.024346391e-20)
(103.3152261 -1.400737156 3.965105885e-20)
(102.1417747 -1.105519983 0)
(101.0399473 -0.893942936 -1.050664201e-21)
(100.5381529 -0.632505295 -4.369108891e-21)
(100.2421039 -0.3772484918 4.879194685e-22)
(100.0953779 -0.1252305794 0)
(100.8143707 -0.1857044126 -2.109047468e-21)
(100.7115706 -0.56016251 2.128005647e-21)
(100.5097204 -0.9475876633 2.073595953e-21)
(100.1686671 -1.353316314 -1.944871955e-21)
(99.65876941 -1.614545261 -2.246114451e-21)
(98.9687088 -2.072921651 0)
(98.05629625 -2.643085061 -2.451840741e-21)
(96.84577094 -3.074124084 1.83821269e-19)
(95.24595279 -3.659738669 0)
(93.23673633 -4.464653245 0)
(90.63029133 -5.829942327 -1.719052905e-18)
(87.93305973 -7.573050509 -1.682091282e-18)
(125.8573858 -20.16318464 1.420561321e-20)
(117.9127849 -12.00873952 -1.226222382e-18)
(112.0991743 -7.354091352 1.691561485e-20)
(107.7746794 -4.592026845 0)
(104.918295 -3.071224503 -2.404689846e-18)
(102.8558124 -2.291251268 0)
(101.7773035 -1.721978367 -2.600371754e-20)
(100.7106707 -1.261972747 -1.31861591e-20)
(100.2390789 -0.8748734183 9.971801132e-22)
(99.95786693 -0.5137166996 -3.159659293e-21)
(99.81648552 -0.1697364559 4.626239212e-22)
(101.1975555 -0.2169994258 7.714756915e-21)
(101.103999 -0.6551429295 0)
(100.9218338 -1.110290937 -2.06952086e-21)
(100.6185747 -1.607788532 0)
(100.1202166 -1.957391294 0)
(99.52727502 -2.532965274 -6.666470553e-21)
(98.74275431 -3.25786526 1.499120076e-19)
(97.66360739 -3.858178211 -3.561895597e-19)
(96.29289557 -4.628043912 -8.474166432e-19)
(94.60129354 -5.621898401 -2.472538316e-18)
(92.37399845 -7.140453199 -1.522477446e-18)
(89.89655931 -8.88046355 1.868127132e-18)
(116.1111055 -22.91660714 2.051578469e-18)
(112.4863228 -14.63375873 5.485268099e-20)
(109.0597963 -9.394072471 0)
(106.0484078 -6.076412361 -8.796426849e-19)
(103.8598923 -4.153482675 1.215513405e-18)
(102.125351 -3.021426214 2.082045958e-21)
(101.2184818 -2.247332713 -3.175751064e-20)
(100.2518687 -1.583795401 7.803078272e-21)
(99.83657428 -1.083562214 0)
(99.58396121 -0.6334432467 3.638271802e-21)
(99.45515089 -0.2089811088 0)
(101.636004 -0.2432031788 7.704847375e-21)
(101.5545322 -0.7352087654 1.214846078e-19)
(101.395808 -1.245297003 -2.447166898e-19)
(101.1343702 -1.811343327 -4.172861278e-22)
(100.6943889 -2.225927769 -1.938848098e-21)
(100.1994865 -2.884067479 0)
(99.5653528 -3.712997383 -8.204268036e-19)
(98.6371774 -4.415811047 1.983527938e-18)
(97.51081667 -5.289823819 3.015673547e-18)
(96.13053771 -6.403265266 -8.015882566e-19)
(94.28573903 -8.121180664 -5.691016436e-20)
(92.11846642 -10.14815405 0)
(103.0196557 -31.39276731 3.290151351e-19)
(107.5005966 -20.88784535 3.030600775e-19)
(107.4491407 -14.71580303 -5.74796827e-19)
(105.9257482 -10.0251345 0)
(104.0896578 -6.818321401 0)
(102.5718044 -4.839017601 0)
(101.224997 -3.527931271 -6.364622885e-20)
(100.5188905 -2.63511838 0)
(99.69983014 -1.830804383 0)
(99.35198753 -1.245412579 1.141441356e-20)
(99.13601681 -0.728836261 2.102594008e-21)
(99.02471027 -0.240347833 -6.824966663e-21)
(102.1165482 -0.2618719104 0)
(102.0488934 -0.7929366172 0)
(101.9175921 -1.341268217 0)
(101.7007606 -1.945609566 0)
(101.3173492 -2.42290616 0)
(100.9217194 -3.139074518 0)
(100.4261337 -4.021681454 0)
(99.67256541 -4.767960706 1.208482351e-18)
(98.78352818 -5.67619885 -6.507254662e-19)
(97.7215934 -6.828053554 7.365030162e-20)
(96.35903344 -8.622306178 3.138167222e-20)
(94.97790604 -11.13312693 0)
(96.6068438 -20.56812715 3.085544805e-19)
(102.4460331 -17.11242923 1.250658526e-19)
(103.6888759 -13.23811506 -3.470173304e-19)
(103.2427248 -9.647051047 3.670892441e-19)
(102.2214843 -6.944984041 -8.180370843e-19)
(101.2306489 -5.150034763 -5.544174572e-20)
(100.2569408 -3.80897615 -8.908573536e-20)
(99.74499404 -2.879820808 -3.348368577e-20)
(99.08905665 -1.988854706 -1.859454088e-20)
(98.8098111 -1.357176885 1.834358758e-20)
(98.6340034 -0.7960507707 0)
(98.54250349 -0.262423025 1.831486948e-20)
(102.6257785 -0.2730106578 0)
(102.572772 -0.8275751241 0)
(102.4712404 -1.39827156 0)
(102.3008564 -2.015900213 0)
(101.973566 -2.526896196 0)
(101.6828758 -3.262394886 0)
(101.3221083 -4.13084098 6.305680896e-22)
(100.7286799 -4.922146157 -9.765282238e-19)
(100.0420177 -5.825835846 -5.605570621e-19)
(99.27101471 -6.898029767 4.445961704e-19)
(98.44390429 -8.422379467 -4.084259225e-19)
(97.98455726 -10.83162741 0)
(98.23449297 -13.61649333 -5.817906629e-19)
(100.4879688 -13.22397792 0)
(101.3340263 -11.20362652 2.319132901e-19)
(101.1924385 -8.751470362 5.172627105e-19)
(100.6066039 -6.67028831 3.390682124e-19)
(99.97515816 -5.177528175 -2.407287883e-20)
(99.29306611 -3.8978139 0)
(98.95978502 -2.993365046 0)
(98.44967785 -2.064927816 -3.469634215e-20)
(98.23513673 -1.418541743 1.712098099e-20)
(98.09904697 -0.8340991025 7.161695659e-22)
(98.02720725 -0.2749738857 -1.262064771e-20)
(103.1497341 -0.277052268 0)
(103.1103632 -0.8398683114 0)
(103.0365158 -1.417573242 0)
(102.9093822 -2.030809777 0)
(102.6341887 -2.554809759 0)
(102.4319329 -3.277388562 0)
(102.1782887 -4.094970592 7.402572929e-22)
(101.7202273 -4.904090119 -4.032110007e-19)
(101.1799289 -5.784933097 1.288199816e-18)
(100.6033916 -6.730050616 1.621181981e-18)
(100.0612662 -7.857968992 -1.597211289e-19)
(96.44431145 -8.670730242 -5.197470008e-19)
(99.3070778 -10.48985317 0)
(99.86005683 -10.42522896 0)
(99.95492089 -9.305213155 5.289884881e-19)
(99.69490739 -7.694723721 -6.315966058e-19)
(99.28454699 -6.183993136 5.003335926e-21)
(98.86555482 -4.98911762 0)
(98.39696265 -3.835610738 -2.961911576e-20)
(98.19903258 -2.996625568 4.480087269e-20)
(97.80985445 -2.072021121 1.081305614e-20)
(97.65198384 -1.435025606 1.842566836e-20)
(97.55095508 -0.8457000606 -2.093363164e-20)
(97.49663458 -0.278813051 0)
(103.6754672 -0.2750012611 0)
(103.647691 -0.8329604058 0)
(103.5967487 -1.404371755 0)
(103.5059077 -1.998833715 0)
(103.2774084 -2.519028439 0)
(103.1435836 -3.205000506 0)
(102.9659082 -3.95277112 0)
(102.6012764 -4.720871064 -7.872414014e-20)
(102.1428407 -5.554220995 -9.367109855e-19)
(101.6228424 -6.361027932 1.541452288e-19)
(101.3471372 -7.250005742 6.397771489e-20)
(92.67763549 -6.803050351 -1.281733176e-18)
(99.8298672 -8.554836346 5.176147927e-19)
(99.47324808 -8.485065618 6.133444871e-21)
(99.01774516 -7.747151451 1.612685972e-20)
(98.59741268 -6.685378812 -3.864738309e-19)
(98.23084894 -5.630617323 0)
(97.92320618 -4.675696032 0)
(97.59926061 -3.675287676 0)
(97.48578815 -2.912937325 0)
(97.1917661 -2.024782569 3.749658251e-20)
(97.07951657 -1.414257088 -3.50817922e-20)
(97.00658523 -0.8348166221 -2.365367834e-21)
(96.96645372 -0.2755822779 2.373371754e-21)
(104.1919058 -0.2680424813 0)
(104.1734028 -0.8106806619 0)
(104.1400428 -1.365173105 0)
(104.0773217 -1.93008018 0)
(103.8868518 -2.432683469 0)
(103.8005604 -3.06818585 0)
(103.6682802 -3.736970074 0)
(103.3533728 -4.415042903 0)
(102.9068391 -5.151786267 -1.426234643e-19)
(102.3748382 -5.847270177 0)
(100.7304048 -6.402205993 1.327486097e-18)
(96.90935642 -6.863864802 0)
(99.82980243 -7.229472461 0)
(99.01339127 -7.059171679 0)
(98.30033626 -6.528112911 0)
(97.78478849 -5.828980158 -2.073551684e-20)
(97.40733201 -5.068774082 0)
(97.14172718 -4.304284605 0)
(96.89613993 -3.445999717 0)
(96.83238534 -2.766452013 0)
(96.60844917 -1.935556367 0)
(96.53018891 -1.362687213 0)
(96.47891438 -0.8069081477 0)
(96.44955298 -0.2673835765 0)
(104.6905258 -0.2573403577 0)
(104.6789675 -0.7767915927 0)
(104.658021 -1.306509455 0)
(104.6152686 -1.835307336 0)
(104.4530279 -2.310778125 0)
(104.3946197 -2.889712087 0)
(104.2820112 -3.481684356 0)
(103.9830681 -4.067026017 0)
(103.5264894 -4.670002906 0)
(102.9666267 -5.248529874 0)
(98.39252322 -5.402041176 -2.581579738e-19)
(99.99821305 -6.109614137 2.761450648e-19)
(99.64286467 -6.141589088 1.682862983e-21)
(98.61937275 -5.973843825 5.977292895e-22)
(97.79411699 -5.610172172 0)
(97.18803283 -5.109777285 0)
(96.76407626 -4.526216887 0)
(96.49860906 -3.911250955 0)
(96.28650619 -3.180761187 0)
(96.24632523 -2.583531546 0)
(96.06814885 -1.819858378 0)
(96.01266817 -1.290509284 0)
(95.976117 -0.7660776492 0)
(95.95527083 -0.2544071443 0)
(105.1652239 -0.2440177786 0)
(105.1583761 -0.734894791 0)
(105.1450245 -1.234559274 0)
(105.1146948 -1.72430388 0)
(104.9718147 -2.16709249 0)
(104.9250319 -2.688728415 0)
(104.8120464 -3.211829794 0)
(104.5087275 -3.710865815 0)
(104.0244893 -4.205138909 0)
(103.4049044 -4.657865263 0)
(98.02137353 -4.690979465 0)
(100.4776788 -5.267543042 0)
(99.57434997 -5.275219762 0)
(98.38909374 -5.141388216 0)
(97.43442949 -4.866836768 0)
(96.73324788 -4.483699026 0)
(96.25465158 -4.025231407 0)
(95.96725919 -3.524452224 0)
(95.7618835 -2.903567956 0)
(95.7262666 -2.383027479 0)
(95.57451596 -1.689825121 0)
(95.53239731 -1.205950898 0)
(95.50462666 -0.7174221186 0)
(95.48926045 -0.2386688878 0)
(105.612049 -0.229096329 0)
(105.6079204 -0.688257164 0)
(105.5979843 -1.154862203 0)
(105.5735374 -1.604989447 0)
(105.4429647 -2.012760351 0)
(105.3953748 -2.479983819 0)
(105.2676039 -2.941379496 0)
(104.9487305 -3.365686714 0)
(104.4281621 -3.77457483 0)
(103.7181949 -4.132334638 0)
(97.86731966 -4.106033951 0)
(100.650242 -4.584051911 0)
(99.5267553 -4.573650942 -3.03710101e-35)
(98.2133774 -4.460334747 0)
(97.15691307 -4.243497881 0)
(96.37689832 -3.941443118 0)
(95.84465271 -3.573746302 0)
(95.52527091 -3.160710446 0)
(95.31083374 -2.631110908 0)
(95.26721238 -2.178615636 0)
(95.12758232 -1.554530748 0)
(95.0913517 -1.115463905 0)
(95.06755514 -0.6648303563 0)
(95.05534612 -0.2215745064 0)
(106.0288724 -0.2134287965 0)
(106.0258198 -0.63958375 0)
(106.01599 -1.072003091 0)
(105.9921714 -1.483454024 0)
(105.8683588 -1.856095086 0)
(105.8112662 -2.273525976 0)
(105.6594823 -2.678719063 0)
(105.3192096 -3.042186634 0)
(104.7599946 -3.384247027 0)
(103.9471689 -3.671913923 0)
(97.79601326 -3.614908421 0)
(100.7332024 -4.018129759 0)
(99.47605538 -3.994967287 0)
(98.0691755 -3.894977969 0)
(96.93549971 -3.717552233 0)
(96.09091585 -3.473066984 0)
(95.50934752 -3.172523999 0)
(95.15476851 -2.828297323 0)
(94.92175683 -2.373773718 0)
(94.86271345 -1.979641808 0)
(94.72523365 -1.420411764 0)
(94.68929166 -1.023960069 0)
(94.66585538 -0.6112770926 0)
(94.65496329 -0.204109116 0)
(106.4150749 -0.197678807 0)
(106.4118122 -0.5909388132 0)
(106.3996506 -0.9894701975 0)
(106.3725353 -1.364210809 0)
(106.2511818 -1.702993306 0)
(106.1789147 -2.075574473 0)
(105.9988837 -2.43083823 0)
(105.6334483 -2.744912619 0)
(105.0370526 -3.034743118 0)
(104.1153627 -3.269413481 0)
(97.79658326 -3.200792866 0)
(100.7700524 -3.542550544 0)
(99.42325615 -3.510702627 -4.469988122e-35)
(97.94681005 -3.420559366 0)
(96.7537879 -3.27133887 0)
(95.85644972 -3.068868224 0)
(95.23098915 -2.818918805 0)
(94.84181985 -2.528761469 0)
(94.58450678 -2.136529137 0)
(94.50609346 -1.791780354 0)
(94.36411106 -1.291863847 0)
(94.32453968 -0.9349341117 0)
(94.29893275 -0.5588933388 0)
(94.28798062 -0.1869682334 0)
(106.771192 -0.1823414266 0)
(106.7667456 -0.5438217929 0)
(106.7505376 -0.9097595415 0)
(106.7173523 -1.25042389 0)
(106.59525 -1.557408392 0)
(106.5042752 -1.890014841 0)
(106.294209 -2.202238653 0)
(105.902638 -2.475412823 0)
(105.2718893 -2.724132983 0)
(104.2391886 -2.917915818 0)
(97.85754808 -2.849307983 0)
(100.7801777 -3.13942352 0)
(99.36967052 -3.101525006 0)
(97.84051426 -3.019273308 0)
(96.60111857 -2.891074063 0)
(95.66052558 -2.72008228 0)
(94.99657216 -2.508923766 0)
(94.57465128 -2.261478696 0)
(94.29097741 -1.921061833 0)
(94.19108018 -1.61821023 0)
(94.04034679 -1.171678933 0)
(93.99458697 -0.8506974396 0)
(93.96513654 -0.5091169391 0)
(93.95313339 -0.170626407 0)
(107.0985477 -0.1677723325 0)
(107.0922069 -0.4992829903 0)
(107.0708028 -0.8345833764 0)
(107.0296866 -1.144175854 0)
(106.9045135 -1.421860557 0)
(106.7928641 -1.719204228 0)
(106.5524524 -1.99465572 0)
(106.1355162 -2.233686717 0)
(105.4733513 -2.449568014 0)
(104.3304911 -2.611237203 0)
(97.96652049 -2.549489619 0)
(100.7737504 -2.795715576 0)
(99.31636398 -2.753779225 1.649032254e-35)
(97.74659598 -2.678094361 0)
(96.47035558 -2.566043771 0)
(95.49406462 -2.419196299 0)
(94.79657467 -2.238299531 0)
(94.34433148 -2.024979783 0)
(94.03410384 -1.727761156 0)
(93.9120431 -1.460469562 0)
(93.75000316 -1.061458332 0)
(93.6965062 -0.7726771182 0)
(93.66217722 -0.4628644653 0)
(93.64843661 -0.1553925932 0)
(107.3989818 -0.1542134347 0)
(107.390253 -0.4580181628 0)
(107.3629407 -0.7650476365 0)
(107.3127296 -1.046716606 0)
(107.1828759 -1.297777564 0)
(107.0496815 -1.564276819 0)
(106.7796172 -1.808487466 0)
(106.3390089 -2.01898089 0)
(105.6479501 -2.208352044 0)
(104.3972705 -2.344281216 0)
(98.11147715 -2.294453918 0)
(100.756919 -2.501951947 0)
(99.2639363 -2.457394621 0)
(97.66244588 -2.38714675 0)
(96.3565122 -2.287762596 0)
(95.35055718 -2.159823325 0)
(94.62391238 -2.002929962 0)
(94.14394674 -1.817195247 0)
(93.80794264 -1.556114551 0)
(93.66396897 -1.318999814 0)
(93.48925959 -0.9619551984 0)
(93.42719595 -0.701662709 0)
(93.38741751 -0.4206681183 0)
(93.37148902 -0.141451596 0)
(107.6746751 -0.1418150979 0)
(107.6632364 -0.420444144 0)
(107.6296332 -0.7017974194 0)
(107.569679 -0.9586982938 0)
(107.4340176 -1.185860687 0)
(107.2791738 -1.425582232 0)
(106.9808239 -1.643399138 0)
(106.5186908 -1.830119108 0)
(105.800652 -1.997897052 0)
(104.4439459 -2.112141553 0)
(98.28072976 -2.078093987 0)
(100.7338486 -2.250904713 0)
(99.21251565 -2.204700714 0)
(97.58609463 -2.138861898 0)
(96.25601095 -2.049561719 0)
(95.22526788 -1.936688 0)
(94.47326162 -1.799098638 0)
(93.96811491 -1.635871065 0)
(93.60759392 -1.405129921 0)
(93.44249162 -1.19359723 0)
(93.25448832 -0.8733602421 0)
(93.18352159 -0.6379933183 0)
(93.13804946 -0.3827791749 0)
(93.11965903 -0.1288958751 0)
(107.9280233 -0.1306586575 0)
(107.9136791 -0.3867699521 0)
(107.8736348 -0.6451375941 0)
(107.8036558 -0.880343769 0)
(107.6614293 -1.086264513 0)
(107.485345 -1.302894666 0)
(107.1604947 -1.498504974 0)
(106.6790307 -1.665409185 0)
(105.9350501 -1.815269261 0)
(104.4734996 -1.910654125 0)
(98.46299347 -1.894588349 0)
(100.7072767 -2.036672678 0)
(99.16200192 -1.989652852 0)
(97.51599629 -1.927371248 0)
(96.16617682 -1.846174768 0)
(95.11462109 -1.745438231 0)
(94.34049089 -1.62351169 0)
(93.8125213 -1.478756194 0)
(93.42892254 -1.273539507 0)
(93.24374369 -1.083649188 0)
(93.04229104 -0.7954999089 0)
(92.96240581 -0.5817007789 0)
(92.91121135 -0.3492535554 0)
(92.8902091 -0.1177529251 0)
(108.161478 -0.1207785418 0)
(108.1441236 -0.3570645909 0)
(108.0976418 -0.5951467741 0)
(108.0176022 -0.8116150161 0)
(107.8683119 -0.9988183836 0)
(107.6717036 -1.195663835 0)
(107.3222856 -1.37260756 0)
(106.8234491 -1.522910657 0)
(106.0536616 -1.657567793 0)
(104.4890892 -1.736422097 0)
(98.64921817 -1.738347055 0)
(100.6787877 -1.854495577 0)
(99.11235544 -1.807402882 0)
(97.45094696 -1.74806091 0)
(96.08494932 -1.673420114 0)
(95.01583955 -1.582510725 0)
(94.22232982 -1.473337629 0)
(93.67366176 -1.343758643 0)
(93.26845235 -1.16001314 0)
(93.06433956 -0.9883582051 0)
(92.84955116 -0.7280061685 0)
(92.76092587 -0.5326312775 0)
(92.70411233 -0.3200265227 0)
(92.68043276 -0.1080097882 0)
(108.3775776 -0.1121761426 0)
(108.357161 -0.3313028371 0)
(108.3043324 -0.5517551767 0)
(108.2143525 -0.7522928701 0)
(108.0575974 -0.9231646692 0)
(107.8413389 -1.103205965 0)
(107.4690426 -1.264183163 0)
(106.9545986 -1.400846517 0)
(106.1584021 -1.522400522 0)
(104.4946515 -1.587320384 0)
(98.83353587 -1.605649444 0)
(100.6492179 -1.700601309 0)
(99.06364776 -1.653959676 0)
(97.39002444 -1.597146378 0)
(96.01069432 -1.52785716 0)
(94.92669056 -1.444923513 0)
(94.11610707 -1.346139997 0)
(93.54856128 -1.229002065 0)
(93.12321625 -1.063281772 0)
(92.90127954 -0.9068666503 0)
(92.67334984 -0.6703956903 0)
(92.57627082 -0.4905235671 0)
(92.51400894 -0.294959837 0)
(92.48763394 -0.09962764442 0)
(108.5785501 -0.1048413253 0)
(108.555071 -0.3094193405 0)
(108.4960385 -0.5148105935 0)
(108.39633 -0.7021539816 0)
(108.2319484 -0.8588476025 0)
(107.9970108 -1.024756522 0)
(107.6034847 -1.171793015 0)
(107.0744547 -1.297700865 0)
(106.2510243 -1.40793695 0)
(104.4939304 -1.461594257 0)
(99.01269957 -1.494121066 0)
(100.6189983 -1.572029479 0)
(99.01598156 -1.526126984 -2.931972131e-36)
(97.33253425 -1.471544992 0)
(95.94210839 -1.406653555 0)
(94.84535913 -1.330186734 0)
(94.01964112 -1.239851277 0)
(93.43484909 -1.133143712 0)
(92.99052379 -0.9823483312 0)
(92.75187717 -0.8383079435 0)
(92.51117813 -0.6222093185 0)
(92.40597863 -0.4550689239 0)
(92.33847375 -0.2738909633 0)
(92.30942893 -0.09256124736 0)
(108.7675745 -0.09873419075 0)
(108.7409819 -0.291293135 0)
(108.6758399 -0.4841139877 0)
(108.566612 -0.660715688 0)
(108.3938476 -0.8054091689 0)
(108.1411583 -0.9594841818 0)
(107.7283472 -1.095116266 0)
(107.1846983 -1.212027608 0)
(106.3332746 -1.312699223 0)
(104.4900166 -1.357649246 0)
(99.18518015 -1.40218021 0)
(100.5883878 -1.466467467 0)
(98.96941395 -1.421419463 0)
(97.27792559 -1.368800099 0)
(95.87812852 -1.307509745 0)
(94.7703396 -1.236237943 0)
(93.9311129 -1.152679348 0)
(93.33066547 -1.054558325 0)
(92.86795496 -0.9160940477 0)
(92.61371861 -0.7818932518 0)
(92.36006277 -0.5828301091 0)
(92.24707954 -0.4259441228 0)
(92.17449416 -0.256621879 0)
(92.1427607 -0.08674429955 0)
(108.9439839 -0.09389136701 0)
(108.9144285 -0.2769449653 0)
(108.843372 -0.4595364025 0)
(108.7249437 -0.628379688 0)
(108.5455246 -0.7622851393 0)
(108.2759394 -0.9066900343 0)
(107.8454458 -1.034419887 0)
(107.2871615 -1.14253368 0)
(106.4069405 -1.235481797 0)
(104.4853229 -1.274042865 0)
(99.35047932 -1.328651609 0)
(100.5575794 -1.382070966 0)
(98.92392255 -1.337892829 0)
(97.22571099 -1.286960761 0)
(95.81784057 -1.228571568 0)
(94.700322 -1.16138892 0)
(93.84885828 -1.083114145 0)
(93.23382926 -0.9912333508 0)
(92.75371914 -0.8630613982 0)
(92.48452272 -0.7366540562 0)
(92.21979943 -0.5523648395 0)
(92.0993985 -0.4028713775 0)
(92.02195643 -0.2430773235 0)
(91.98768927 -0.08217864461 0)
(109.1212143 -0.09009886087 0)
(109.0881765 -0.2659761271 0)
(109.010894 -0.4407398953 0)
(108.8821702 -0.6019639434 0)
(108.6900436 -0.7293287047 0)
(108.4032461 -0.8663829841 0)
(107.9558215 -0.9882088084 0)
(107.3834215 -1.088668885 0)
(106.4737169 -1.175363516 0)
(104.4817135 -1.209569632 0)
(99.50864934 -1.272600496 0)
(100.5267279 -1.317405537 0)
(98.87942759 -1.274054712 0)
(97.17544554 -1.224521731 0)
(95.76044668 -1.168398709 0)
(94.63416603 -1.104329283 0)
(93.77142031 -1.030050919 0)
(93.14256953 -0.9429463993 0)
(92.64602823 -0.8227634644 0)
(92.36245614 -0.702918655 0)
(92.08110609 -0.5280488289 0)
(91.95259811 -0.3854832086 0)
(91.87012644 -0.2328543096 0)
(91.83288061 -0.07865522484 0)
(109.2582378 -0.08801449797 0)
(109.2230635 -0.2595355615 0)
(109.1410479 -0.4291712448 0)
(109.0060378 -0.5892727251 0)
(108.8257849 -0.7057045584 0)
(108.5245566 -0.8376754427 0)
(108.0610471 -0.9556511837 0)
(107.474774 -1.049632389 0)
(106.5351975 -1.131553585 0)
(104.4806587 -1.163268357 0)
(99.66013758 -1.23329698 0)
(100.4959456 -1.271385425 0)
(98.83579675 -1.228776277 0)
(97.12669982 -1.180340521 0)
(95.70522235 -1.12589454 0)
(94.57085559 -1.064058501 0)
(93.69753447 -0.9926177624 0)
(93.05551393 -0.9088630731 0)
(92.54327251 -0.7946652364 0)
(92.24610323 -0.6796533168 0)
(91.97102499 -0.5160024554 0)
(91.83752854 -0.3747612722 0)
(91.75123915 -0.226857907 0)
(91.71224715 -0.07673470408 0)
(109.5194874 -0.08550642541 0)
(109.4794833 -0.253360248 0)
(109.3880676 -0.4187300892 0)
(109.2347044 -0.5705782129 0)
(108.9521105 -0.6925667312 0)
(108.6357083 -0.8209731248 0)
(108.1579721 -0.9367696703 0)
(107.562346 -1.024764496 0)
(106.5929531 -1.103318538 0)
(104.4833664 -1.134572458 0)
(99.80523575 -1.210480802 0)
(100.465337 -1.243287429 0)
(98.79292737 -1.201249479 0)
(97.07911215 -1.1535949 0)