/*--------------------------------*- C++ -*----------------------------------*\
| =========                 |                                                 |
| \\      /  F ield         | OpenFOAM: The Open Source CFD Toolbox           |
|  \\    /   O peration     | Version:  v1912                                 |
|   \\  /    A nd           | Website:  www.openfoam.com                      |
|    \\/     M anipulation  |                                                 |
\*---------------------------------------------------------------------------*/
FoamFile
{
    version     2.0;
    format      ascii;
    class       surfaceVectorField;
    location    "2.42";
    object      Uf;
}
// * * * * * * * * * * * * * * * * * * * * * * * * * * * * * * * * * * * * * //

dimensions      [0 1 -1 0 0 0 0];


internalField   nonuniform List<vector> 
25162
(
(99.99805714 0.008299971687 -2.286181983e-21)
(99.9922269 0.007535539582 6.777052106e-21)
(99.99710305 0.01976013487 -2.253096463e-21)
(99.98927214 0.02536999688 2.300370165e-21)
(99.99523266 0.03836492966 -4.490345684e-21)
(99.98258755 0.05316639429 1.358524003e-20)
(99.99786655 0.04331920613 1.383999992e-21)
(99.97078142 0.09729848774 -8.893675196e-21)
(99.98760574 0.09586669843 -1.491403887e-21)
(99.99684235 0.0783658443 2.156714745e-21)
(99.99891589 0.0466881503 1.061238536e-21)
(99.98560276 0.1293376386 2.139594403e-21)
(99.9967224 0.07311052817 1.042279218e-21)
(99.99756981 0.05771321137 -1.082481288e-21)
(99.99597748 0.09226559167 1.042236648e-21)
(99.9780957 0.2072155927 2.070924992e-21)
(99.99564874 0.1156882749 0)
(99.99545848 0.1411740126 -3.742855283e-21)
(99.97205543 0.311392836 -3.742835803e-21)
(99.99490071 0.1710624162 -9.68772173e-22)
(99.99431189 0.2048455442 3.259950397e-21)
(99.96515458 0.4465381138 3.525832159e-21)
(99.99382104 0.2421494368 4.339195194e-22)
(99.99351701 0.2820311928 -2.791599724e-21)
(99.96161686 0.6055932358 4.003450936e-22)
(99.99348948 0.3230968365 -2.774426659e-21)
(99.99383697 0.3633868025 4.176918653e-22)
(99.96518394 0.7660381222 -1.824333287e-21)
(99.99422765 0.4006236595 2.528290064e-21)
(99.99472455 0.4324838977 2.082195503e-21)
(99.97792579 0.8900309623 -9.042529661e-22)
(99.99618971 0.4561546226 0)
(99.99858409 0.4691815011 0)
(99.99831419 0.9420013035 1.594828935e-22)
(100.001167 0.4709874492 0)
(100.0035498 0.4610501795 5.854942701e-22)
(100.0189076 0.9031934312 -1.293319276e-23)
(100.0051112 0.4408268876 1.126110479e-21)
(100.0056483 0.4123021405 -3.562945154e-22)
(100.031866 0.7922643177 -6.994640473e-22)
(100.0059351 0.3781896314 -1.249272231e-21)
(100.0062341 0.3411497111 8.353586027e-23)
(100.0358594 0.6441355645 1.836329565e-21)
(100.0062756 0.3028012063 4.805479918e-22)
(100.0060358 0.2649983751 0)
(100.0334967 0.4934247708 0)
(100.0056253 0.2291766838 0)
(100.0052462 0.1961088075 7.588525996e-22)
(100.0275776 0.3620416304 1.580872044e-21)
(100.00523 0.1666247075 -3.843234442e-21)
(100.0049917 0.1386654632 -1.429709434e-21)
(100.0223272 0.2519536381 3.110548705e-21)
(100.0042357 0.1148014568 3.110316591e-21)
(100.0031537 0.09494079855 -8.635180498e-22)
(100.0132341 0.1708576622 -4.569925479e-23)
(100.0009437 0.08080215726 1.687170144e-21)
(100.0079653 0.07715074457 -7.476181853e-21)
(100.0457674 0.1893401983 3.829496094e-22)
(100.0166928 0.172234336 -2.653457563e-21)
(100.0027805 0.07977459844 -1.533905033e-21)
(100.0055303 0.04439731665 -9.353922275e-22)
(100.0306302 0.1154214817 1.483662496e-20)
(100.0045301 0.02073535989 -7.509338744e-21)
(100.0222314 0.06115244011 -1.581931695e-20)
(100.0195406 0.01919619576 1.324115246e-21)
(99.98182044 0.02328795639 1.130988112e-20)
(99.97033843 0.01258347523 3.397043534e-22)
(99.97229893 0.05591458176 1.803388396e-20)
(99.95868553 0.04309800736 -1.583331923e-20)
(99.95447997 0.1084703256 9.415370041e-21)
(99.93340037 0.09204151523 -2.448296289e-20)
(99.94594598 0.1714051726 -1.601939326e-21)
(99.8906407 0.1711061987 4.715457373e-20)
(99.90804289 0.2169505355 -1.037393681e-20)
(99.92001726 0.2200159252 -2.228804614e-21)
(99.93908762 0.216737231 4.37313005e-21)
(99.96244113 0.1539511257 2.173184835e-21)
(99.94156245 0.2538685678 2.111883419e-21)
(99.92211434 0.2788969021 2.156091398e-21)
(99.86927699 0.3685838418 -4.364542283e-21)
(99.90335227 0.3561672097 -2.674576884e-23)
(99.91157551 0.4054027648 2.071249998e-21)
(99.88170622 0.4506361068 -2.31397434e-23)
(99.80644731 0.5893432883 0)
(99.870897 0.5242798904 0)
(99.83634183 0.6017907297 -2.575665967e-21)
(99.88166511 0.5982833705 -5.050167116e-21)
(99.8654357 0.6326475368 -7.519603807e-23)
(99.82788592 0.7313461378 -1.135828994e-20)
(99.85571073 0.6900594182 -3.904394858e-21)
(99.82548234 0.9192928629 3.100816526e-23)
(99.85075854 0.8643070466 -2.54207483e-21)
(99.77934803 1.062919148 -1.385213019e-20)
(99.81862248 0.9955339022 -3.379888323e-21)
(99.80037744 1.271592033 -6.184695396e-21)
(99.83474229 1.18395424 -5.854011127e-21)
(99.7514263 1.465164781 7.264949769e-22)
(99.80005108 1.360517749 -7.409045571e-21)
(99.809084 1.644224 -1.42158281e-23)
(99.85035512 1.513189394 -4.712218666e-21)
(99.76805428 1.882667994 -4.716695701e-21)
(99.8203554 1.732017058 -3.524004695e-21)
(99.86568241 1.953811614 -2.34202864e-21)
(99.9075352 1.775444579 -3.98605425e-21)
(99.84215644 2.222463369 -3.574975941e-21)
(99.88839996 2.023422934 -1.452176601e-21)
(99.96535648 2.11728639 -7.458079117e-22)
(99.99581673 1.89515699 -1.728218591e-21)
(99.96782788 2.382868502 -9.163413323e-23)
(99.99315127 2.146975651 -1.403677882e-22)
(100.0729022 2.08046951 2.350023636e-22)
(100.0709465 1.829226005 -1.80702258e-22)
(100.096128 2.305687368 1.639723848e-22)
(100.095999 2.053193772 -8.608757943e-22)
(100.1528559 1.862390951 -2.848650214e-22)
(100.1179914 1.611508567 -2.418844619e-22)
(100.1841979 2.031936135 -8.301942268e-23)
(100.1638174 1.791284855 2.252487115e-21)
(100.1864752 1.539597733 2.480057466e-21)
(100.1332788 1.314282686 4.316216277e-21)
(100.2186435 1.657338349 4.31070824e-21)
(100.1869522 1.448098756 5.314925795e-22)
(100.1812885 1.191006333 -6.791776169e-21)
(100.1246212 1.006906825 -6.327679098e-21)
(100.2077606 1.267587592 -2.292417246e-21)
(100.1744499 1.101952046 -2.241093075e-21)
(100.1522247 0.8804980876 -5.311813422e-21)
(100.0996669 0.7397379872 4.825962561e-22)
(100.1688434 0.9268266112 -1.414114848e-21)
(100.1422656 0.8064418777 5.749470354e-21)
(100.0898521 0.497517934 -1.31321617e-20)
(100.1446253 0.6804527011 -1.313114136e-20)
(100.2007145 0.7301755007 1.328388197e-20)
(100.1231056 0.5617924985 -2.681029063e-20)
(100.1029337 0.4611661072 1.148472539e-20)
(100.1419185 0.4883205518 -1.624405943e-20)
(100.0831903 0.376402663 2.348239065e-20)
(100.0626445 0.3345237512 2.607831997e-20)
(100.0751865 0.2230061978 2.208357114e-20)
(100.1718828 0.3501342632 -1.702467742e-22)
(100.1333983 0.3989485928 4.665249319e-20)
(100.0785871 0.3156137888 2.512141546e-21)
(100.0531135 0.128904681 -7.016782812e-22)
(100.1189192 0.2120152713 3.165779199e-20)
(100.042016 0.05885799186 -7.376287899e-21)
(100.0882654 0.1124381617 -1.678111614e-20)
(100.0750577 0.03519345096 7.507244089e-21)
(99.95071958 0.03091018665 -2.716537964e-20)
(99.94115298 0.0127566953 -1.357738038e-20)
(99.92434734 0.07604377053 -5.877204715e-20)
(99.91616577 0.04566088987 1.244938788e-20)
(99.8762382 0.1510026175 1.194478564e-20)
(99.86302196 0.1035675096 -4.974749537e-20)
(99.82685344 0.260278487 3.001336367e-20)
(99.77631086 0.2004427286 5.405386708e-20)
(99.76751833 0.2862186406 -4.759950894e-20)
(99.85273421 0.2758514007 -8.925447737e-21)
(99.77262571 0.3152686015 -6.611595453e-20)
(99.79352029 0.3459604821 -4.468019867e-21)
(99.77065745 0.4679690935 -8.694243557e-21)
(99.74248634 0.4534021577 -4.331889646e-21)
(99.64776591 0.5467434689 3.041500557e-20)
(99.68360506 0.5850034122 8.52374109e-21)
(99.66207818 0.7563291734 -7.513761762e-21)
(99.61631548 0.7454486969 5.564310838e-21)
(99.48041634 0.8978172861 -4.282603341e-20)
(99.5785687 0.9056288686 2.996877695e-21)
(99.50932367 0.9737886906 -1.863232819e-20)
(99.5650597 1.117902828 -7.641302781e-21)
(99.52913624 1.118692143 0)
(99.44962477 1.234374698 7.931370122e-21)
(99.49370836 1.242061854 -7.602268549e-21)
(99.44045538 1.656720875 3.690657785e-21)
(99.38765537 1.673283682 1.445457015e-20)
(99.2893056 1.843064778 7.156074049e-21)
(99.35600159 1.834844785 1.794325132e-20)
(99.36287009 2.3217389 -2.586987252e-20)
(99.28942207 2.369029534 -1.956122912e-20)
(99.18975467 2.596813436 6.927914136e-21)
(99.28223762 2.554242051 -8.155953686e-20)
(99.40111985 3.025745718 2.965966772e-20)
(99.31312796 3.124612497 3.75877212e-20)
(99.23246598 3.411186175 3.82135335e-20)
(99.34365791 3.307665547 -1.591373967e-20)
(99.59078757 3.631805077 -5.369001584e-20)
(99.50458639 3.805650183 -5.666984667e-20)
(99.47385177 4.128141835 -2.541312295e-20)
(99.58261954 3.93640722 1.124444563e-20)
(99.92752999 3.936448303 1.275109626e-20)
(99.87164286 4.191289992 -9.024838952e-21)
(99.91136614 4.496689109 -9.960736532e-21)
(99.97762177 4.215034149 1.499628475e-20)
(100.2830248 3.805410183 3.602009997e-21)
(100.283027 4.110818923 7.310994679e-22)
(100.376106 4.34352999 8.809948695e-21)
(100.3712553 4.015474788 2.041880935e-21)
(100.5143968 3.307753077 7.978301297e-21)
(100.5671719 3.60901 -1.983945512e-20)
(100.6724896 3.751919211 -1.295219014e-20)
(100.6075335 3.44088886 -1.146685564e-21)
(100.5912199 2.65486529 1.985083031e-21)
(100.6685928 2.909686481 9.637194485e-22)
(100.7598707 2.982718035 1.006749824e-20)
(100.6725838 2.729214762 5.396562234e-21)
(100.5580441 2.006242272 -6.303467069e-21)
(100.6429566 2.210373829 -1.473466562e-20)
(100.7137646 2.242172169 -5.10325713e-21)
(100.6208608 2.043859618 5.612207141e-21)
(100.5380602 1.592725724 -1.755244296e-20)
(100.4622363 1.441087324 -1.181350642e-20)
(100.5888429 1.600314411 -1.182943741e-20)
(100.5103705 1.457157297 6.297299735e-21)
(100.3532351 0.9440685866 -5.193985966e-20)
(100.4746501 1.155547554 -2.725974336e-20)
(100.547372 1.133841082 -7.880191031e-20)
(100.4069552 0.9487207991 -3.736442726e-20)
(100.2529857 0.6275189244 -5.915787667e-20)
(100.3446757 0.7730642821 2.35553348e-20)
(100.3916996 0.7462590835 -2.808436378e-20)
(100.2876653 0.6253340414 -2.455016319e-20)
(100.2079524 0.3354315023 9.919349254e-21)
(100.3586953 0.4567091074 -2.519091129e-20)
(100.3419855 0.5587768415 -1.369462519e-22)
(100.2551596 0.510331801 -1.445136405e-20)
(100.1488354 0.1926864798 1.484012923e-20)
(100.2531967 0.273844362 2.636588104e-20)
(100.1170001 0.08749210837 -1.885613132e-21)
(100.1875063 0.14412255 -3.803482978e-21)
(100.1575694 0.04478712374 0)
(99.91317813 0.0263750603 2.727743053e-20)
(99.91629809 0.006118632288 -4.553511529e-21)
(99.86296479 0.07049440364 2.298052814e-20)
(99.87459763 0.02678297753 3.186522445e-20)
(99.77288042 0.1520156967 -9.126127691e-21)
(99.78624183 0.07716595539 -4.503346474e-21)
(99.65882513 0.2956812044 0)
(99.64272994 0.1695381487 6.967668634e-21)
(99.58850872 0.2927941854 2.118043672e-20)
(99.67800862 0.3376589886 -6.17779717e-20)
(99.57533691 0.339353426 1.592428737e-20)
(99.58384039 0.404944269 0)
(99.50409846 0.5999808774 2.57069744e-22)
(99.48329081 0.5424434817 -3.505855806e-20)
(99.34357702 0.6237029657 -3.503497319e-20)
(99.3646118 0.7140164383 7.104531417e-20)
(99.26522347 1.00570772 -1.054604836e-19)
(99.22645918 0.925571369 3.936254572e-20)
(99.0241192 1.06832311 -7.058009147e-20)
(99.11884016 1.17398066 -3.513412026e-20)
(99.021463 1.197822016 -5.770637047e-20)
(99.02281295 1.526032022 8.311906191e-21)
(98.98276642 1.480448206 1.650325955e-20)
(98.85532583 1.599283518 4.179450971e-20)
(98.900331 1.659492257 8.242890223e-21)
(98.72317619 2.33440895 2.488759665e-21)
(98.6543404 2.288637958 7.565361796e-20)
(98.50086279 2.465523035 4.353185411e-20)
(98.58211345 2.527269341 1.562191094e-19)
(98.52386307 3.366394772 -3.295094809e-20)
(98.41400212 3.338858915 -4.48778149e-20)
(98.24939485 3.598424617 -2.848759492e-19)
(98.38152574 3.639116382 -6.074539737e-20)
(98.55087995 4.576299292 -1.110793665e-19)
(98.39348937 4.604573636 -1.93375389e-20)
(98.25361573 4.964030294 -2.319212661e-19)
(98.44480007 4.935419078 -4.520208796e-20)
(98.97333545 5.731634732 3.314544632e-20)
(98.78437251 5.874672463 0)
(98.73966611 6.313528927 -1.278009642e-19)
(98.96513854 6.141333625 1.036808469e-19)
(99.83250066 6.375870459 -2.686440747e-20)
(99.67981127 6.675217403 8.598708584e-20)
(99.7899871 7.09182122 -8.85035912e-20)
(99.95236466 6.737449894 2.15565726e-20)
(100.7730358 6.13565557 3.840102542e-20)
(100.7403905 6.54198877 8.912619429e-21)
(100.9564455 6.811532828 1.385455964e-20)
(100.9624047 6.359472347 1.926389549e-20)
(101.335455 5.169591894 -1.653924881e-20)
(101.4257079 5.571196374 -7.506276224e-20)
(101.6354728 5.675416934 -9.601809336e-20)
(101.5089759 5.258642394 6.17650153e-20)
(101.4385228 3.96766712 1.97689139e-21)
(101.5833681 4.290545331 -6.993769581e-20)
(101.73374 4.294153829 -7.435164032e-20)
(101.5641916 3.977653981 1.138242332e-20)
(101.2943876 2.888124629 -2.13705767e-22)
(101.4347309 3.119065344 -4.603281416e-20)
(101.5317092 3.077019501 -7.518982545e-21)
(101.3779906 2.862860526 1.6648006e-19)
(101.1864775 2.188660252 0)
(101.0618007 2.023903912 4.73004449e-20)
(101.2485872 2.142666524 0)
(101.1160005 1.989905566 0)
(100.7801642 1.291632487 2.859502381e-20)
(100.9808743 1.514485057 1.857049267e-20)
(101.0470132 1.409638729 -1.618407701e-20)
(100.8361315 1.229853098 3.58570064e-20)
(100.5580863 0.8403084519 -3.2636567e-20)
(100.7068529 0.990366871 -1.457681401e-20)
(100.7458543 0.9065794161 -1.471812345e-20)
(100.5934873 0.7901828347 -7.151928206e-21)
(100.3918877 0.3928837718 -9.157857212e-21)
(100.5908641 0.4865930869 -1.890608674e-20)
(100.6244556 0.6518584298 -2.499452567e-21)
(100.5140253 0.627744889 5.481002275e-21)
(100.2808954 0.2227894182 7.581643813e-21)
(100.413543 0.2872732265 1.151428267e-20)
(100.2190262 0.1000913997 -1.91753048e-21)
(100.3032194 0.1477874058 -3.38342594e-21)
(100.2519619 0.04533963915 -4.859570171e-22)
(99.88478518 0.006147077668 0)
(99.91052268 -0.008384666374 0)
(99.80678146 0.0316618363 4.610027471e-21)
(99.85060918 -0.01699319299 0)
(99.6666453 0.09710009037 1.172503692e-20)
(99.72465821 0.00560301386 -3.719104868e-21)
(99.47284145 0.25521547 1.947500074e-20)
(99.51454381 0.07008557718 2.579014033e-20)
(99.40468511 0.2116731211 -7.775247913e-21)
(99.47206389 0.3185446895 2.742198399e-20)
(99.36548575 0.2734563851 2.208224129e-21)
(99.34374874 0.3689495465 -1.115397491e-20)
(99.17231109 0.6134282766 0)
(99.17716657 0.5159595049 -2.302764268e-20)
(98.99697664 0.5651474038 -1.893641224e-20)
(98.97916917 0.7032021011 4.700305866e-21)
(98.75916795 1.078311719 0)
(98.74800504 0.9407485943 4.699802636e-21)
(98.48063903 1.033230845 -4.863412451e-21)
(98.52935865 1.242718849 2.346061076e-20)
(98.41792171 1.232923844 6.077860581e-21)
(98.29396621 1.713921243 2.690601667e-19)
(98.26817257 1.616177863 0)
(98.09415425 1.712595201 0)
(98.12323245 1.828307723 1.362946743e-19)
(97.73801464 2.735523661 3.506844967e-19)
(97.67388877 2.611479639 5.685871186e-19)
(97.45579714 2.769035104 8.805814652e-19)
(97.52582535 2.925331352 5.768377347e-19)
(97.25250783 4.175920305 -1.395905133e-19)
(97.12289237 4.042801232 -2.961353143e-19)
(96.85996231 4.313089787 -1.394313883e-19)
(97.01402485 4.478669186 1.44068234e-19)
(97.08046873 6.085005979 6.396498833e-20)
(96.84395565 5.985387742 1.184402976e-20)
(96.57435724 6.425838696 -6.070663563e-20)
(96.86848474 6.546749295 -2.211122832e-19)
(97.7152729 8.238719818 -3.560568825e-21)
(97.34684074 8.298429966 -3.529349859e-19)
(97.2195773 8.947073856 -1.651656946e-19)
(97.67785485 8.848287422 -1.652970979e-19)
(99.56179923 9.652266695 1.386583143e-19)
(99.19898178 10.03668886 1.589617806e-20)
(99.43236537 10.69637316 2.941046645e-20)
(99.8258055 10.19170687 1.491464057e-19)
(101.7357321 9.181584001 -5.650347299e-21)
(101.6417937 9.796033147 -1.204844801e-20)
(102.1038085 10.11843305 2.379486862e-20)
(102.1285893 9.416479324 3.581747106e-20)
(102.8623375 7.301355013 -1.551476627e-19)
(103.0373468 7.868431812 -1.980957126e-19)
(103.4099712 7.869700497 -1.599176806e-19)
(103.1618319 7.29558524 -3.301767392e-21)
(102.8770645 5.213577402 8.3324589e-20)
(103.1446147 5.618999317 0)
(103.3645414 5.494017322 0)
(103.0522701 5.113540662 0)
(102.4033101 3.566700407 -7.915129834e-22)
(102.644766 3.822219314 -2.013165024e-19)
(102.7467076 3.691493955 0)
(102.4924231 3.460494357 0)
(102.0625841 2.557990873 -1.449601723e-20)
(101.8818612 2.396732908 -3.728871225e-21)
(102.1166741 2.446138816 1.095105968e-20)
(101.931645 2.307498495 2.212475576e-20)
(101.342713 1.481458074 -9.181217748e-20)
(101.628211 1.692428401 -5.810321515e-20)
(101.661975 1.499781626 -3.253591324e-20)
(101.3789829 1.352142948 -1.66935547e-20)
(100.9497769 0.9389994244 1.127989233e-20)
(101.1581627 1.071688326 3.40713951e-20)
(101.1663377 0.9336006935 -3.798447078e-21)
(100.967348 0.8409082219 -3.725084654e-21)
(100.5995911 0.3822622267 1.951764541e-21)
(100.8359944 0.4234980546 0)
(100.9415977 0.6341521806 -7.854107131e-23)
(100.8221685 0.6508972033 -1.014031652e-20)
(100.4249872 0.2099501283 4.330164944e-22)
(100.5760126 0.2418032701 1.951588582e-21)
(100.3269026 0.0921206196 -1.955367539e-21)
(100.4143476 0.1179418364 -1.957643789e-21)
(100.3388463 0.03525162269 -1.96091596e-21)
(99.88309245 -0.03125598941 0)
(99.94003147 -0.03082966556 2.257306856e-21)
(99.77703347 -0.04367106689 -9.232256177e-21)
(99.8624137 -0.08571126108 -2.275281363e-21)
(99.58511126 -0.01918040122 9.598707759e-21)
(99.7017475 -0.1125187011 -4.583128552e-21)
(99.30188353 0.1044400407 1.255545732e-20)
(99.4308224 -0.100973639 3.855480784e-21)
(99.24470367 0.03583749907 -3.914339743e-23)
(99.27284759 0.2016491415 -9.316887186e-21)
(99.16916992 0.1051783549 -9.433870791e-21)
(99.11157847 0.2146489912 0)
(98.82501734 0.4762260073 -1.893594478e-20)
(98.87248827 0.347341347 0)
(98.66402828 0.3464332916 -1.29602386e-22)
(98.58562884 0.5193193161 -9.164573872e-23)
(98.19869939 0.9286898164 9.793000576e-21)
(98.24542451 0.742645928 1.469239308e-20)
(97.93066001 0.7616556639 1.983595854e-20)
(97.90371548 1.063845494 -2.884176034e-20)
(97.79990566 0.9936846204 6.078873072e-20)
(97.48773733 1.574569524 3.200875793e-19)
(97.49889977 1.432467021 4.756167137e-19)
(97.28834511 1.481865605 -7.675740039e-22)
(97.27037217 1.650493959 4.839385132e-19)
(96.54787205 2.683644018 -1.598883825e-19)
(96.52423435 2.484291566 8.524997289e-19)
(96.23620194 2.590551408 6.811537809e-19)
(96.25934106 2.835400854 -3.01318403e-20)
(95.51230357 4.429062124 9.167133561e-21)
(95.41898727 4.170162316 3.340049822e-19)
(95.02463076 4.35689706 -4.070887339e-19)
(95.13123043 4.711698568 3.379618536e-19)
(94.61950355 7.183268837 2.840919001e-20)
(94.34135511 6.831181267 -1.134909418e-20)
(93.80830054 7.284811028 -2.777997503e-20)
(94.15624637 7.726830833 1.561766401e-18)
(94.95165015 11.25920493 -5.309079952e-19)
(94.27588009 11.0333006 -5.433890252e-19)
(93.80737788 12.0535382 -5.345729142e-19)
(94.72234447 12.28125531 -1.305947759e-19)
(98.75560605 14.79527047 1.797638993e-19)
(97.86394167 15.35498169 -2.430931895e-19)
(98.38875169 16.66205208 0)
(99.38645325 15.77360493 0)
(103.8297956 13.52376001 -3.143304626e-19)
(103.6808976 14.61217766 -3.133131633e-19)
(104.7385963 14.8961811 -6.999091187e-19)
(104.6599431 13.66254186 5.680473937e-21)
(105.6682322 9.557940089 6.289021035e-19)
(106.065404 10.36982176 4.350509127e-20)
(106.6857645 10.08121621 3.022708538e-20)
(106.1357628 9.312964511 -1.048450164e-18)
(105.1367151 6.167279417 -2.495942246e-19)
(105.6222593 6.619654127 -2.491586301e-19)
(105.8573529 6.302758961 -7.862727092e-19)
(105.3191358 5.868153507 5.526523253e-20)
(103.9283418 3.893985766 -1.24402841e-19)
(104.310397 4.141353696 -1.249163709e-19)
(104.3679939 3.886783513 2.762205735e-19)
(103.9838002 3.684080916 1.969024075e-21)
(103.1295736 2.597983334 -3.244681621e-20)
(102.871845 2.464951631 -5.522265972e-20)
(103.1416154 2.421417841 8.495631145e-20)
(102.8913797 2.312751719 -4.65162036e-20)
(101.9924883 1.455705114 2.665725487e-20)
(102.351651 1.608868483 -2.273295937e-22)
(102.3197221 1.343123858 1.614311752e-20)
(101.97871 1.259934067 1.203372988e-20)
(101.3830799 0.8860294551 -1.577908483e-20)
(101.6462292 0.9758293519 -8.034315152e-21)
(101.598315 0.7933579875 -8.035871687e-21)
(101.3613086 0.746902258 1.221282213e-20)
(100.7989735 0.2885129737 0)
(101.0598643 0.2617940144 1.289397278e-21)
(101.2458239 0.4876293497 -1.079084736e-20)
(101.1377048 0.5642809279 2.678605051e-20)
(100.5539972 0.1479730149 -4.920522476e-22)
(100.7084894 0.1314466425 -1.52569002e-21)
(100.4172717 0.06113619471 -1.971380481e-21)
(100.4962174 0.05264680351 -2.227873382e-21)
(100.3964998 0.01408295048 2.520196153e-21)
(99.92526336 -0.08445535561 -1.72549903e-23)
(100.019715 -0.06024789689 9.048703095e-23)
(99.79444193 -0.1533228967 2.370358153e-21)
(99.92744884 -0.1759541877 -1.104071941e-22)
(99.55690753 -0.1921708811 -1.241610505e-20)
(99.73856788 -0.2707575352 1.891398918e-21)
(99.18274398 -0.1255175445 -1.126542553e-20)
(99.4172999 -0.3359954665 -1.883492158e-20)
(99.15576185 -0.2294172818 -1.608158948e-20)
(99.10935043 -0.01883500328 -8.782789281e-21)
(99.04103801 -0.1644345808 -3.514406366e-21)
(98.93186119 -0.05294466039 3.931083878e-23)
(98.52327721 0.1770627011 1.431545248e-20)
(98.62668079 0.03348440423 1.459670792e-20)
(98.41056475 -0.02919967672 7.210462543e-21)
(98.25991059 0.1530107513 2.488923181e-20)
(97.69731188 0.5314696054 -2.507189847e-20)
(97.82548196 0.3119351613 -2.020809647e-20)
(97.50644639 0.241555987 -3.563496287e-20)
(97.35763412 0.5711216444 -1.277818762e-19)
(97.27766452 0.4627417878 2.004321248e-19)
(96.73348337 1.063128307 4.249864035e-19)
(96.80118693 0.8911950168 3.307102565e-19)
(96.57248735 0.8788890619 0)
(96.48551329 1.076071304 9.149454546e-19)
(95.34510359 2.069298882 1.872072944e-20)
(95.4044849 1.806959015 1.152678624e-18)
(95.07786912 1.817727732 3.954846313e-19)
(94.99355892 2.12030042 1.578919943e-21)
(93.51086145 3.748495902 -6.445916064e-19)
(93.5439715 3.340748938 -8.412537368e-19)
(93.03972901 3.394933949 -1.694471858e-18)
(92.96931555 3.87259508 -8.841290432e-19)
(90.97043054 6.788388615 -1.670256451e-18)
(90.87946905 6.0999554 -1.306246975e-18)
(89.98276674 6.284627183 -3.939700377e-19)
(90.05208034 7.175809197 3.484779123e-19)
(88.29352844 13.76398817 -2.840782961e-20)
(87.44408065 12.49177495 -2.851919232e-20)
(85.50350963 14.08874954 2.522762824e-18)
(85.73747993 13.19094997 -1.893113179e-20)
(87.40320917 15.40825168 1.019100928e-18)
(86.3268831 15.47484893 -1.883978635e-20)
(93.81715629 25.76565585 -8.627975131e-19)
(95.25728594 25.27124258 0)
(94.42877402 27.64685797 0)
(96.1601383 26.69431154 0)
(109.6345866 21.46932344 1.351695082e-19)
(109.6918231 19.58414 -8.910694854e-20)
(111.3778851 18.9643422 -1.885232126e-19)
(110.6112182 22.15973764 1.353075549e-19)
(112.6920084 20.71670075 -9.260055691e-19)
(112.3352204 21.60889725 1.33311351e-19)
(111.5837334 12.11152752 4.330633846e-19)
(110.6119956 11.1365002 -6.716783503e-19)
(112.2137875 11.1540907 -3.645905315e-19)
(111.0826552 10.4176185 -5.424597868e-19)
(108.2449903 6.235870591 3.15966984e-19)
(109.0366373 6.641147675 9.679943751e-19)
(109.1170016 6.011396499 -3.748040346e-19)
(108.3137491 5.735660988 3.385913153e-19)
(105.7733901 3.577264835 -2.93292484e-20)
(106.3119629 3.745656906 2.940693103e-19)
(106.2490361 3.366725959 2.764215448e-19)
(105.7313482 3.264606056 -3.152693274e-19)
(104.2873345 2.180017265 3.046641431e-19)
(103.9487363 2.113663181 3.202210248e-19)
(104.2167894 1.948339317 -2.852439212e-19)
(103.8979194 1.902141234 2.868128607e-19)
(102.6294687 1.158197531 4.224415695e-21)
(103.0512851 1.208036552 1.824799541e-20)
(102.9072523 0.8995585124 -2.416609889e-21)
(102.5393072 0.9128345639 -4.37625626e-21)
(101.7976812 0.6523623152 4.351557471e-21)
(102.0985551 0.67582416 -2.145641917e-23)
(101.9793351 0.4675152515 -7.114588e-21)
(101.7180664 0.4830247656 8.796398307e-21)
(100.9517878 0.1097213847 -1.955559712e-22)
(101.203925 0.005888538659 -2.793460047e-22)
(101.4955378 0.2092013699 8.21172542e-22)
(101.4105913 0.3160441314 6.452427437e-21)
(100.6394335 0.0358166869 -3.266476992e-21)
(100.7780835 -0.04053565204 -2.416925231e-22)
(100.4666124 0.00601881111 2.448339259e-21)
(100.5242692 -0.04537668773 -2.173297671e-21)
(100.4021612 -0.01751966144 4.018421585e-22)
(100.0262673 -0.1504595381 1.807267036e-23)
(100.1616497 -0.09468927201 -3.344952754e-21)
(99.87697735 -0.2903878923 -6.149879067e-22)
(100.0594724 -0.2815866296 1.457936182e-21)
(99.60596395 -0.4112469469 -4.817158003e-21)
(99.8526572 -0.4572491285 -3.170761123e-21)
(99.15773635 -0.4333407 9.963943489e-21)
(99.49952636 -0.6153673237 -1.097674182e-21)
(99.17095554 -0.5632484588 1.040784069e-21)
(99.03288378 -0.3324168611 4.87769536e-21)
(99.0192892 -0.5133906302 1.008890742e-20)
(98.85772553 -0.4187907769 7.120205517e-21)
(98.3351828 -0.2659394173 -2.431742557e-21)
(98.50227286 -0.4025937071 3.776422624e-21)
(98.30217262 -0.5274996124 2.493938817e-21)
(98.07975924 -0.3673972937 7.561149773e-21)
(97.36980682 -0.09841845474 -5.023494237e-20)
(97.58420427 -0.3123746205 -4.231683074e-20)
(97.2952395 -0.475711396 -5.448755424e-21)
(97.01126103 -0.1557148555 4.270040061e-19)
(96.97622795 -0.305580559 -2.784385145e-20)
(96.19603939 0.206901253 3.52018726e-19)
(96.33112928 0.03374036884 -7.416165803e-19)
(96.11199235 -0.04815794367 1.001710766e-19)
(95.94846062 0.1423398561 1.338709879e-19)
(94.44505568 0.8582034912 -2.220795276e-21)
(94.61315378 0.5878328098 -1.81623291e-19)
(94.30054082 0.4861165976 8.398402138e-19)
(94.08950822 0.7784923732 -3.381868992e-20)
(91.91753216 1.91430761 5.913959054e-19)
(92.16144681 1.490274792 3.601466871e-19)
(91.67983333 1.325235015 4.745274371e-19)
(91.35281896 1.78047315 1.131159198e-20)
(87.64008888 3.614592076 2.034706212e-18)
(88.08462826 2.854478352 -1.025805674e-18)
(87.25553703 2.477528 -2.110720945e-18)
(86.569568 3.288580931 -1.222463659e-20)
(78.88015506 6.634168732 -7.151469709e-21)
(79.50150464 5.623408817 2.528137759e-18)
(78.52124316 4.960472317 1.281733458e-18)
(77.58094212 6.028062172 1.963379406e-18)
(127.8587452 23.82395028 -3.542359604e-18)
(125.8084697 22.80704775 2.298038612e-18)
(128.4208113 21.66126261 8.72620938e-19)
(126.4608586 21.09652865 8.712588463e-19)
(119.3494341 9.838180916 -1.075749675e-19)
(117.5320301 9.417687655 6.549376189e-19)
(119.1729505 8.1533173 2.622193021e-18)
(117.497246 8.128561385 1.791091635e-18)
(111.6942549 4.599386123 0)
(112.7778915 4.688377565 0)
(112.4465133 3.870027713 -6.80241771e-19)
(111.4623239 3.932120975 -4.017668308e-19)
(107.5689647 2.381738468 -6.441312228e-19)
(108.2202299 2.36934743 7.157284249e-19)
(107.9409041 1.939226464 -1.023174268e-18)
(107.3546279 2.011664692 1.595528381e-19)
(105.3071467 1.232272739 -5.979810289e-19)
(104.9199003 1.266882705 7.642581418e-20)
(105.1253714 0.9809845186 -7.844222436e-20)
(104.7752979 1.034640498 3.04433854e-19)
(103.1387026 0.5738130385 -4.717837013e-21)
(103.5899991 0.500667483 7.583463195e-20)
(103.3111888 0.1912993102 7.465770814e-21)
(102.9531733 0.3172349329 1.125463785e-21)
(102.1198618 0.2417591141 -1.955826794e-21)
(102.4245769 0.1793523205 1.324920495e-20)
(102.221398 -0.01971945531 4.90238458e-21)
(101.9718501 0.07149590014 9.718634385e-21)
(101.0186239 -0.1404616975 -3.393848842e-22)
(101.2369064 -0.3262007221 -1.032236682e-21)
(101.6259012 -0.1797764015 -1.045554825e-21)
(101.5905084 -0.03075990746 -1.158504215e-21)
(100.6537575 -0.1196402083 1.052250337e-21)
(100.7583293 -0.2599719595 1.284349571e-21)
(100.4524847 -0.06802541086 -4.168984782e-21)
(100.4755245 -0.1687272801 1.628521318e-21)
(100.3379744 -0.05748160232 -2.060545154e-21)
(100.1970444 -0.224334322 -1.905046886e-21)
(100.3732666 -0.1315298798 1.056486083e-21)
(100.0377322 -0.4442703057 -1.111975179e-21)
(100.2669719 -0.394502134 -7.791034286e-22)
(99.74932189 -0.6579248327 5.694991238e-22)
(100.0542494 -0.6566688913 -2.804452247e-22)
(99.25155633 -0.7879866089 6.540235738e-22)
(99.69075508 -0.9152589107 9.426508407e-22)
(99.31144207 -0.933147772 5.66687251e-22)
(99.07520516 -0.7093205207 1.653195201e-21)
(99.12958355 -0.908826704 -1.677390735e-23)
(98.92072546 -0.8455056289 -1.677629312e-23)
(98.31651398 -0.8068624074 -2.486697602e-21)
(98.54175677 -0.914631587 0)
(98.38003166 -1.095938758 -1.218550089e-21)
(98.09822013 -0.9817847662 -1.297719862e-21)
(97.28789815 -0.8771067273 -1.33749219e-21)
(97.5807488 -1.049011216 -4.23065756e-20)
(97.35029817 -1.288455144 4.625156331e-20)
(96.94771528 -1.026689364 4.401038326e-19)
(96.9676623 -1.198277516 -5.547832087e-19)
(96.01212334 -0.8654498945 9.438009034e-20)
(96.20608164 -1.00963498 4.569324147e-19)
(96.02799935 -1.146432534 9.623773806e-20)
(95.79479907 -0.9973912342 1.005380938e-18)
(94.12160366 -0.6939723197 4.386979185e-19)
(94.37390377 -0.9099935717 2.267500984e-19)
(94.13968335 -1.089505535 -1.595314305e-18)
(93.82431531 -0.8725120822 8.871479839e-19)
(91.45086878 -0.4993109895 -1.462498451e-18)
(91.84810145 -0.796543337 -4.152854288e-19)
(91.51365205 -1.080325452 -1.880049112e-18)
(91.04287613 -0.8044681773 -1.967392005e-19)
(87.28893921 -0.7423214853 -2.115830207e-18)
(88.0025931 -1.100948365 -9.865248885e-19)
(87.56419463 -1.630670608 -3.063781837e-18)
(86.74422263 -1.367150593 -9.943314969e-19)
(81.53219291 -3.029371872 -2.832058345e-20)
(82.20752079 -3.054747293 -2.317617646e-18)
(82.12014187 -3.576277274 2.587724452e-20)
(81.49669005 -3.664962947 2.738489804e-19)
(140.8608621 5.152987601 1.930194043e-18)
(139.1390314 6.25347364 -7.423272531e-18)
(139.4240154 3.783669464 -9.92535615e-20)
(137.9906903 4.871725582 -4.681044922e-18)
(124.3377081 1.965548066 2.975890126e-18)
(122.5575481 2.739582905 4.395864728e-18)
(123.0178051 0.6548182051 3.006929628e-18)
(121.6257099 1.530622629 2.388400907e-18)
(114.083983 1.041958545 0)
(115.1653013 0.6267598909 -1.160561554e-21)
(114.3581859 -0.03751603175 5.051343331e-19)
(113.4621846 0.4361957575 -4.218448346e-19)