/*--------------------------------*- C++ -*----------------------------------*\
| =========                 |                                                 |
| \\      /  F ield         | OpenFOAM: The Open Source CFD Toolbox           |
|  \\    /   O peration     | Version:  v1912                                 |
|   \\  /    A nd           | Website:  www.openfoam.com                      |
|    \\/     M anipulation  |                                                 |
\*---------------------------------------------------------------------------*/
FoamFile
{
    version     2.0;
    format      ascii;
    class       volScalarField;
    location    "1.51";
    object      p;
}
// * * * * * * * * * * * * * * * * * * * * * * * * * * * * * * * * * * * * * //

dimensions      [0 2 -2 0 0 0 0];


internalField   nonuniform List<scalar> 
12556
(
999.3789797
997.8234548
994.1314182
986.6989696
976.4176256
954.8462076
920.1823838
865.8290334
785.7888918
673.3614168
524.9818509
342.8039296
138.5780199
-68.7355041
-260.1815413
-422.126982
-550.4865694
-646.9465785
-716.3336152
-763.9055741
-802.9120295
-820.1652925
-830.0180799
-834.4972781
1000.355202
999.2818587
996.5500649
990.8377792
980.5737811
961.9960717
931.0126313
886.6707824
813.9067866
708.2878073
563.5710904
379.3613109
168.3111459
-49.05668594
-251.2914471
-421.6158921
-553.7988036
-651.5588187
-728.0213818
-772.1465947
-810.1113498
-824.95523
-833.5129458
-837.3912429
1002.658794
1002.647381
1002.160112
1000.21083
992.7397185
980.982125
958.9763387
920.0318359
857.5105075
758.9813683
610.4367139
408.918301
169.1677419
-76.54964387
-294.455913
-469.3033086
-598.8634244
-688.3389283
-759.9032475
-795.2953707
-826.5903926
-836.3448716
-842.0077447
-844.4558715
1005.446115
1006.937941
1009.666914
1012.80034
1010.812538
1008.746583
1000.810926
974.9026284
931.8554362
846.4873651
697.248762
468.1125685
169.267836
-140.7651651
-392.2046206
-565.5548681
-680.4383402
-754.2948371
-808.745462
-829.9951272
-849.754098
-852.9445152
-854.2353865
-854.59298
1007.149576
1010.364234
1016.836285
1025.957899
1030.852387
1041.55291
1051.814546
1048.22449
1033.87237
979.2743685
852.1878458
596.9141185
181.9642871
-264.6634978
-572.559149
-733.8805095
-808.289923
-845.2517936
-871.4776114
-873.3543856
-876.5071047
-871.5006163
-867.5360613
-865.4386787
1006.065283
1010.999142
1021.194581
1036.815847
1048.889556
1074.105237
1105.467142
1129.437445
1157.554
1166.823574
1119.306027
887.0648516
224.1746504
-544.3899723
-905.4593032
-990.4173397
-980.7463499
-957.5479313
-942.7961363
-920.0091781
-903.0012092
-888.8926895
-879.2200716
-874.5438573
1000.554334
1006.992833
1020.327629
1041.560429
1062.084593
1099.994034
1151.699337
1203.938
1280.426437
1377.675868
1511.227322
1587.763032
399.0639333
-1353.543811
-1480.70697
-1334.910417
-1184.763239
-1078.409692
-1013.087232
-963.3224899
-925.2937868
-901.657892
-886.6278747
-879.5573311
989.2051133
996.7128347
1012.246385
1037.336377
1065.134992
1112.543861
1178.851606
1254.631264
1369.030969
1538.409807
1841.978782
2465.483426
-3340.990269
-2258.432726
-1702.939298
-1376.86568
-1185.810747
-1068.54565
-995.3886742
-937.2616338
-906.2641915
-887.1886239
-878.1328704
970.9629031
978.9546875
995.4549257
1022.21029
1055.28261
1107.018579
1179.99377
1268.75217
1397.873119
1577.92973
1854.836505
2229.53781
-4702.684959
-2756.958713
-1938.135708
-1497.593292
-1250.831891
-1096.345361
-1007.945309
-935.2442314
-900.0165227
-878.6438871
-868.4379293
945.2849441
953.1221252
969.24044
995.2812051
1031.125273
1081.804552
1152.726232
1241.367882
1361.087829
1514.502449
1707.312747
1897.603888
-4180.626262
-2672.744013
-1928.180356
-1496.735784
-1252.820045
-1088.161723
-996.6085836
-917.081371
-881.3757607
-859.7403967
-849.3711345
912.2140853
919.313146
933.8084159
956.8849139
993.2281721
1038.26055
1100.14057
1180.458636
1280.678982
1399.056035
1531.948026
1656.043873
-3060.123904
-2207.096951
-1713.441725
-1394.421938
-1193.926303
-1043.759543
-960.9819698
-882.7740911
-850.2862365
-830.3889183
-820.7888218
872.3289743
878.2193024
890.2146813
908.28687
943.9222565
979.3862607
1027.623641
1094.623718
1171.589979
1257.035214
1348.602326
1456.268644
-1952.306827
-1619.359604
-1397.02707
-1220.027183
-1088.186786
-969.9805794
-904.6904833
-834.2933955
-808.2110973
-791.5757382
-783.4879423
826.6789128
831.0600203
840.1259872
852.9332025
883.6669005
908.9623811
940.9306737
992.7901807
1045.193171
1098.016345
1146.073781
1226.03537
-700.9294625
-976.2988586
-1076.647064
-1073.248788
-1022.120465
-958.3919756
-877.9598842
-833.3437035
-776.3821676
-757.7173647
-745.1146312
-739.0052407
776.5391669
779.3160372
785.2610756
793.1818768
817.7344666
832.605244
848.7241585
883.3478131
911.9685782
932.1269683
929.3504812
922.5679214
309.6662205
-380.6090792
-672.510952
-800.9902702
-835.6971242
-822.5128743
-779.2500716
-754.3129657
-713.1956083
-701.5670058
-693.2561834
-689.3036211
723.334765
724.4500495
726.9485566
729.8119724
748.6144567
752.5726311
754.051818
769.6395299
775.4678621
767.6345357
722.8242312
592.1496713
290.196189
-133.2638929
-429.3179419
-599.7775405
-676.2193283
-695.6130407
-681.3677854
-674.1069267
-647.6141878
-642.4377717
-638.3311398
-636.4452591
668.47688
668.0880232
667.3658219
665.595274
679.0229703
673.9435158
663.8595571
660.7757045
644.9031215
615.3243912
551.1403043
436.1738979
218.6131393
-66.83044031
-304.5866448
-463.0936824
-548.2256966
-584.20996
-590.7182366
-596.8175794
-582.5159934
-582.8486871
-582.4566706
-582.353929
613.3177921
611.6987673
608.3386785
602.8064777
611.2251058
599.1359768
580.2469968
563.6821033
527.4293969
479.6397926
407.9907461
302.0867624
132.343729
-63.79471403
-241.4263559
-370.0040547
-446.4512735
-490.4156732
-509.7195082
-524.9079172
-520.1674342
-524.8429798
-527.4039571
-528.6683874
559.0410701
556.4758331
551.0867644
542.7219371
546.986945
529.8979649
505.2188139
481.7496658
432.7108529
372.0628356
294.2748614
203.2872916
69.32809275
-72.69659326
-200.4260405
-297.2275631
-364.3250755
-411.6567819
-438.7134787
-459.5184793
-461.9404932
-469.699797
-474.448723
-476.6987997
506.5634926
503.3187681
496.4726056
486.1428768
487.2910242
467.1015872
439.2014126
412.7304163
363.0567499
300.3073589
222.463996
140.4194078
35.29961917
-69.47923801
-162.1071428
-239.4346876
-300.7094802
-347.293109
-377.6390322
-401.2663006
-408.4803236
-418.1982843
-424.4026855
-427.3650573
456.5500701
452.8759731
445.1094474
433.587459
432.5817635
410.8379046
381.6014726
354.6008194
307.0882066
249.8004039
182.4886014
112.8686819
27.79769496
-54.70014847
-130.4725404
-196.3427326
-250.9523789
-294.655153
-325.5196141
-349.938566
-360.0327284
-370.7920205
-377.8351826
-381.1973078
409.4447991
405.5593158
397.3452348
385.2910649
382.8746548
360.7726205
331.7067454
305.4841704
261.4090942
210.3758028
153.107566
92.76351354
23.69274675
-44.06464904
-107.1469269
-163.3151562
-211.3709872
-251.2305167
-281.0786906
-304.9491827
-316.5011654
-327.6011633
-334.9865101
-338.5166117
365.5000989
361.5761928
353.2904444
341.2301259
337.9669552
316.3654153
288.5875334
263.742282
223.6814629
178.589369
129.1722125
77.59415072
20.10646169
-36.31758494
-89.32477465
-137.3283963
-179.3304334
-215.0459141
-243.0399835
-265.5853459
-277.5945877
-288.5238256
-295.8839275
-299.4074559
324.8034083
320.9700432
312.8878343
301.2048201
297.5387282
277.0030683
251.1068493
228.0775129
192.1522834
152.4775376
109.6648572
65.40998016
17.03990104
-30.42091988
-75.27936434
-116.3995831
-152.9735324
-184.6696007
-210.2770605
-231.1201533
-242.9071602
-253.322572
-260.4060684
-263.8017568
287.3144247
283.6641829
275.9781019
264.9338474
261.1975009
242.0833838
218.3427116
197.3830712
165.4752814
130.6509607
93.51554516
55.40221454
14.42509153
-25.76161215
-63.91292735
-99.19608297
-130.9623287
-158.8887888
-181.9348076
-200.8776678
-212.0012098
-221.6918788
-228.3366156
-231.524844
252.9043657
249.5005601
242.3397956
232.1018281
228.5348007
211.0368759
189.5670346
170.7595328
142.617282
112.1235806
79.92404186
47.06503444
12.19742924
-21.96806837
-54.50994685
-84.80352186
-112.3275114
-136.7883017
-157.2705209
-174.2578243
-184.4489168
-193.2980148
-199.4063513
-202.3384005
221.3858573
218.2681941
211.7126372
202.3781699
199.1437572
183.3454749
164.1520597
147.4804676
122.8062272
96.19413736
68.32849156
40.02375066
10.29588456
-18.80213645
-46.58406632
-72.57430595
-96.35253391
-117.6603377
-135.6699068
-150.7333411
-159.8451225
-167.800681
-173.3216281
-175.9716684
192.5306242
189.7207247
183.8130538
175.4284155
172.6410262
158.5529584
141.5765827
126.9668921
105.4662594
82.3508506
58.31124782
33.99572542
8.664913383
-16.10388514
-39.79393918
-62.03969907
-82.50098868
-100.9546536
-116.6294537
-129.8500694
-137.8112673
-144.864562
-149.7798939
-152.1383533
166.0847381
163.5913927
158.3479774
150.924847
148.6620128
136.2501678
121.3961678
108.7476087
90.14985672
70.20132554
49.56076245
28.77040466
7.256738303
-13.76177102
-33.89139375
-52.84936817
-70.35971244
-86.23260907
-99.7272868
-111.2102552
-117.9987284
-124.1680169
-128.4810113
-130.5490113
141.7828986
139.6065176
135.0264437
128.5540671
126.8706401
116.0763401
103.2354486
92.43472839
76.49948628
59.4335592
41.83838848
24.18985624
6.031920854
-11.69621625
-28.6922167
-44.73668061
-59.60559496
-73.14078506
-84.6115188
-94.46947127
-100.0905077
-105.4095513
-109.1363826
-110.9214137
119.3573415
117.4930107
113.5646553
108.0192059
106.9542437
97.70836027
86.79541825
77.69515665
64.22069463
49.79602307
34.95188525
20.13029248
4.95768457
-9.848233992
-24.05489848
-37.49229987
-49.97807132
-61.37991486
-70.98559139
-79.32567208
-83.79900072
-88.30871175
-91.47247846
-92.98556178
98.5363156
96.97721921
93.68389663
89.03176458
88.6307038
80.85081166
71.80699765
64.26220143
53.07004529
41.07985153
28.74551181
16.49206231
4.006504187
-8.172724817
-19.86806387
-30.94924094
-41.26757595
-50.70074173
-58.58635349
-65.51187566
-68.85751326
-72.60257486
-75.22881909
-76.48171254
79.07812692
77.81439688
75.13754315
71.34649959
71.61722836
65.23420577
57.94308062
51.92140397
42.841563
33.10861023
23.08847276
13.19271457
3.15484029
-6.633968535
-16.04144725
-24.97092571
-33.30502756
-40.94036991
-47.16215561
-52.78561431
-55.03997079
-58.06142875
-60.17582445
-61.18183878
60.64696657
59.67876773
57.60860592
54.6347607
55.7232168
50.61674424
44.87465025
40.45342935
33.34580238
25.72708498
17.86526778
10.16108434
2.382328259
-5.202179819
-12.49841157
-19.43882479
-25.93605128
-31.92198269
-36.53058243
-40.92955665
-42.06855804
-44.41676908
-46.03784616
-46.80174204
43.29057997
42.58985131
41.10743008
38.9882395
40.45179513
36.77384252
32.5500132
29.63810914
24.40674994
18.79483926
12.9750125
7.335896017
1.671553667
-3.852098586
-9.172987885
-14.24859437
-19.01831077
-23.43512716
-26.53460279
-29.72558158
-29.98079019
-31.640371
-32.78986254
-33.33786178
25.7011339
25.35172536
24.47422221
23.20163633
25.90056777
23.50983171
20.73205842
19.29780803
15.86086514
12.17799773
8.32591578
4.664783729
1.007755382
-2.561781474
-6.007294517
-9.30754968
-12.42669003
-15.34263671
-16.98608566
-19.07654674
-17.87275638
-18.86759386
-19.54383684
-19.81118307
12.28629369
11.9921141
11.55623727
10.90813626
11.70422176
10.49672573
9.157639628
9.269231497
7.543005391
5.737085733
3.827185389
2.110395201
0.37995093
-1.311439893
-2.950572504
-4.533371397
-6.046293849
-7.491747284
-7.651187809
-8.608381041
-8.455791391
-8.924515974
-9.243627224
-9.475274098
2281.954773
-5075.644862
-3575.297898
1932.44924
-4567.070723
-5100.12386
1682.680258
-3333.580769
-4431.002604
1481.769826
-2128.709618
-3175.028444
1244.076091
-749.1681028
-796.5352866
-1088.340239
-1988.195043
951.4713882
394.0171049
-700.6373577
255.6151871
-387.8115204
-973.8492471
2401.350479
672.3846994
-3182.775932
-1149.389619
-7067.7184
-4863.582613
-4667.076881
-2984.826606
-2455.641097
1749.055463
1911.251277
2180.959489
-6547.516399
-7104.009776
-4296.792707
-3021.394774
-3064.721534
1576.385711
1670.626013
1878.101739
1799.38111
1837.821398
1965.828307
-4663.070016
-5609.1121
-3204.796307
-2526.561999
-2932.167352
1395.71635
1467.936569
1644.129972
1580.402437
1620.898374
1704.627027
-2998.217831
-3696.297895
1198.459728
1241.447435
1442.309931
1365.635757
1426.915929
1523.01865
-1581.451035
-1571.595267
-2172.465876
983.68661
960.0721201
1208.761428
1100.907522
1132.1667
1290.947237
663.8842617
409.214671
409.0453117
2859.1412
2409.727779
3251.661797
2941.317881
-7133.73787
-7107.47949
-4747.941409
-6772.678073
-6952.969198
1983.816264
2118.363997
2046.047769
2124.767475
1987.622829
2365.281834
2147.261659
-5667.874302
-6502.936421
-4845.822403
-6366.44685
-5574.661191
-6927.194984
-6410.050012
-4894.9831
1717.778167
1820.838329
1768.65642
1829.937923
1719.378403
1978.138033
1839.265743
-3800.892101
-4597.977278
-3812.549353
-4488.394978
-3728.633433
-5517.060615
-4608.036795
-3972.027128
1529.467966
1615.748487
1555.954965
1619.513303
1534.129559
1712.354091
1624.457319
-2261.205706
-2902.852704
1299.855219
1420.065958
1350.513486
-1530.872379
1425.712408
1305.455714
1527.54
1432.629927
-1573.306318
-977.3717414
-1490.587671
-1528.905428
1025.426511
1119.212587
1081.130732
18.58458222
1124.618266
952.3482412
1296.57968
1136.841453
-54.2586204
1875.902665
2224.35636
2337.324106
2472.984118
2876.991101
3096.477746
-9456.82259
-6422.772083
2087.848214
2141.423169
2360.387589
-3591.920025
-2084.854503
-1851.150869
-2364.017556
-2008.862351
-1972.070621
-2288.559631
-112.6542215
-445.6031
-831.3182722
2402.948712
2807.579672
2434.998639
2580.120806
4116.673899
3814.794645
-4585.867028
-6656.962589
-4533.701628
-2341.057136
-2684.140401
-2564.845159
-2859.5599
-2236.478411
-3628.006868
-2952.121776
-2714.320212
-1107.39087
-208.6806463
-386.6319055
974.4089096
2177.396671
3175.927333
-4325.555589
-1527.251213
593.9155107
-9521.936326
-6553.658676
-9070.930566
-6071.013485
-8930.693647
-6214.739269
-6802.459411
-6841.634323
-5106.898088
-5171.213731
-3156.584169
-3505.841259
-3289.976497
-3490.588992
-3128.289806
-3953.054611
-3545.915931
-3389.93018
1472.352739
1439.875585
1398.781973
-1589.646096
-1876.258975
-1920.321367
1214.777173
1180.423751
1115.587475
1255.642055
1200.173829
1224.485271
2966.479085
2621.447699
2633.930067
2626.048014
2981.654482
2383.85896
2586.931336
2569.993816
3242.976263
3736.190728
3972.377881
3047.759385
3646.156296
3181.622446
3707.143334
3049.43387
-7232.89871
-7239.669984
2058.915558
2144.873298
2049.209185
2255.204677
2244.455198
2365.981009
2153.021807
2230.949457
2224.758484
-6054.831024
-6108.215599
-6004.535867
-5383.928071
-5596.689745
-5051.464173
-5305.514608
-5952.613721
-6702.476865
-5860.545617
-5940.79418
-5658.942755
-5818.718424
-6665.238314
1774.78233
1766.842407
1913.214914
1903.08706
-4129.78802
-4000.020429
-4187.073423
1580.606544
1574.655155
1667.883682
1662.128211
-3072.089089
-2714.210028
-2622.679793
-2732.200045
-3092.612865
1355.004121
1322.71371
1272.943113
1384.340652
1338.743681
1364.221078
-1158.619353
1368.677803
1358.964395
1482.555147
1476.802318
-1925.62382
-1164.060541
-1217.508782
-1495.719545
1092.258321
1021.373103
938.7384128
963.0937799
518.9697469
243.7395379
1230.582111
-195.824589
204.761643
-110.8931761
1221.508291
-297.5421522
-146.6652278
173.1819496
-8349.46448
-2177.008726
-2344.304348
770.9646553
707.1385114
923.609174
809.6176258
833.8053217
990.1899
300.7354182
-70.39161715
-269.7055468
4877.117817
-2376.689944
-2563.292202
-866.1840063
-1126.774361
-1114.192068
-87.49480425
-338.9486081
-42.44510239
1436.196469
2810.524124
4022.861919
-5708.90446
-2072.298604
381.1239716
-6667.423747
-7670.428319
-7501.371713
-6999.053566
-4850.027275
-5046.304337
-4831.461106
-5886.126413
-5693.708569
-5426.424902
1659.310481
1635.824777
1600.133896
1686.267767
1648.08441
1665.383835
1491.655421
1453.02532
1478.344447
1169.50579
1155.927313
1119.314189
908.7346815
722.3210042
458.5050017
-7185.976194
-7753.393808
-7736.236019
-7032.769464
-5864.729698
-5629.274996
-5949.458948
-5906.313585
-7022.067239
-5839.354224
-6132.967599
-5953.407824
-6346.292196
1758.952335
1740.69995
1699.492195
1727.036553
1745.601596
1738.762037
-4764.877901
-4556.840768
-4417.296739
-4148.740282
-3895.920152
-4185.772891
-5097.284371
-4677.360313
-4960.884709
-4284.007004
-4579.900911
-5035.777602
1570.744878
1541.032669
1504.245201
1588.430001
1553.06018
1576.638884
1604.121396
1618.864398
1630.813244
1547.821965
1571.408158
1552.915749
1693.143578
1699.627304
1720.387813
1634.429659
1647.308671
1639.75174
-2531.410205
-2665.599286
-2337.707162
-1349.532129
-1368.865066
1403.967789
1321.817223
1507.293813
1516.394438
1541.744495
1471.753147
1451.945407
-1712.738038
775.2758125
997.841107
953.2415248
1106.091925
1061.63687
1068.511166
212.6644251
433.1071873
206.3256277
1075.631668
463.642072
748.2520916
557.3750614
570.1011288
1264.348769
1173.786265
-8715.222397
-8070.063968
-8317.543509
-3748.273742
-3818.625034
-1979.921591
-2126.727813
-2127.100958
2487.903939
2459.721416
4157.92857
4701.859835
4665.337434
4558.696455
4101.914387
-2757.437557
-2567.448493
-2533.120089
-2565.535281
-2773.357979
-1106.371398
-925.7402944
-951.1960562
-927.2585349
-1103.882353
-700.0816262
-877.2365952
-451.9644121
-489.5057252
-651.6564161
-284.9422613
-437.2531365
-351.7492111
-9325.714184
-8054.766684
-7624.049746
-8292.238775
-8146.982159
-7439.022014
-6693.847413
-8092.443015
-7205.018975
-7074.273881
-6699.830718
-6961.045551
-7439.050264
-7262.052398
-5329.670546
-5119.102244
-4914.439487
-5179.245351
-5394.776574
-4897.904862
-5114.057633
-5470.789541
-5363.341755
-5633.640392
-5407.002794
-3302.188785
-3372.404905
-3342.141056
-3261.947198
-3413.607619
-3793.514017
-3681.23296
-3844.463649
-3464.256278
-3627.604923
-3734.61965
-1789.390241
-1776.025236
-1926.240121
1199.692649
1168.125917
1178.206339
1250.609449
1238.450775
1210.278515
2798.729135
2749.822727
2755.52752
2758.820721
2635.611829
2956.613627
2804.35083
2805.857576
2461.63248
2472.822849
2397.584838
2598.684241
2501.272314
2491.195137
3283.376406
3189.210921
3014.627589
3404.657871
3304.905789
-7914.530632
-7773.976803
-7199.746954
-7974.479153
-8177.157218
-7918.441218
-8259.980454
-8349.203236
-8258.489647
-8224.392339
-7222.520076
-7968.462393
-7970.401872
2100.963277
2098.277393
2072.11444
2139.748529
2108.405228
2112.925384
2033.426117
2010.24159
2064.760699
2041.038573
2290.401531
2299.141321
2251.195458
2376.003046
2316.890082
2306.871002
2186.682961
2185.202274
2150.40835
2236.759919
2197.574867
2199.516882
-6353.979048
-6191.087629
-5894.714703
-6285.190276
-6599.276143
-6402.127229
1805.236413
1782.819146
1839.353842
1812.062774
1747.355648
1729.842142
1774.590131
1753.053012
1960.871071
1929.279321
2001.704617
1971.424225
1877.113807
1847.786154
1918.801938
1887.624383
-4117.484786
-4304.737359
-3902.417615
-4065.354268
-4152.253337
-4608.24044
-4822.82987
-4360.922146
-4544.939205
1591.648088
1612.941208
1598.536097
1618.760837
1594.462051
1634.150095
1625.185957
1588.876977
1558.059068
1574.178601
1585.646754
1676.444123
1692.869658
1686.263383
1696.046048
1679.01534
1723.080159
1702.168772
1648.647545
1636.9455
1670.715979
1653.382306
1645.121824
1652.24814
1669.882314
-2772.312581
-2890.619983
-2953.83385
-2761.519197
-3008.636162
-2937.997559
-1113.464163
-1321.00638
-1338.240761
-1115.585689
1396.492929
1331.834669
1492.966383
1509.299199
1500.737456
1458.615882
1478.904528
1489.056083
-1804.196933
1045.637392
1045.311447
994.670867
628.1209064
552.0935019
1054.517849
312.5671231
449.0251378
362.6546801
1253.06408
-343.2055966
66.66760328
264.0404745
26.31557538
1177.263368
-3018.076202
-2211.153136
-1496.697505
-2324.064189
-2380.620485
-1114.579482
-1204.581297
-1681.037732
-2383.235718
-900.5722962
-877.4910452
-710.9348751
-2150.344903
-1606.008581
-1581.418998
1429.769778
3277.545877
4484.911967
-6968.690135
-2790.319141
185.6190886
-2102.794486
-1813.798707
-4137.044828
-6846.651291
-7763.761116
-7948.079841
1891.796897
1866.403452
1816.314416
1936.970902
1883.711132
1910.347738
-1575.348085
-1724.926879
-1724.01948
-2242.181121
-1957.103405
-1909.852687
1275.263751
1248.479965
1260.980752
-7985.515586
-7984.294679
-7219.888575
1800.358816
1755.086796
1773.611422
1805.589093
1811.084634
1837.390864
1846.116764
1874.619153
1865.572633
1320.480857
1308.67898
1284.371585
-1541.443869
-1493.553353
-1484.985381
1310.455015
1319.659335
1313.367015
-1648.479445
-1656.493451
-1551.79534
-1371.910728
-1373.876721
-1525.457034
1110.588716
1287.532823
1294.478735
1302.191421
1145.972804
-9361.921157
-3630.557432
-1992.348622
-2067.13338
-2069.980078
-2327.829711
-2170.480272
-2142.984964
2543.291585
-5505.490653
-4990.284589
-6056.134558
-2485.263547
-2535.454867
-2373.214715
-693.4361396
-707.4420125
-526.1817869
-533.4208268
-635.9379071
-2837.771873
-2411.980894
-5482.139942
-9251.412486
-8722.398708
-8562.145629
-8953.751062
-9010.539366
-3205.968877
-3239.948748
-3187.943842
-3520.468498
-3523.66693
-3498.552863
-3057.284381
-3207.844402
-3279.711952
-3914.539508
-3856.524295
-3914.641013
-1917.815858
-1897.481288
-1929.953484
2903.56824
2986.283937
2662.889623
2667.072451
2671.342344
2630.898605
2402.303264
2413.96838
2391.721797
2592.785703
2557.602159
2551.359292
3433.661153
3254.616181
3373.148974
3601.587616
3623.04444
3765.962332
3053.297957
3124.791031
3125.488157
2082.338875
2079.374103
2077.479958
2142.913195
2132.95661
2135.303938
2030.380732
2024.294044
2072.21874
2063.632077
2260.319653
2262.714885
2247.564326
2370.768579
2350.221933
2346.384711
2161.66823
2162.219429
2152.298635
2233.700822
2221.628747
2220.57808
1780.908428
1803.537203
1797.05271
1746.05473
1751.839301
1773.166596
1925.33094
1955.969569
1941.07504
1947.410062
1936.341449
2017.135494
2006.710341
1858.990277
1925.385508
1914.536338
1875.514772
1884.709969
1915.122357
-4302.920607
-4379.433211
-3974.853862
-4045.949778
-4067.925252
-4449.996415
-4459.339273
-4356.201697
-4494.33807
-4316.100152
1342.005498
1317.479945
1328.675322
1390.463709
1374.492308
1350.816882
1372.864686
1384.081324
1378.612945
1349.703476
1353.345384
1362.544492
-1927.719134
970.9492921
986.3830402
953.6663761
661.8204897
978.1074664
401.9245363
510.2391377
615.1671581
1236.854415
1242.284301
1237.944823
-258.9575416
-103.8131619
-85.3529089
-101.2125293
1210.21362
1217.145627
1228.580398
-9.280107492
-94.62039575
-234.7840877
-2209.272153
-2257.532194
-2368.022136
-2318.369936
-2298.936649
5052.334692
5070.347181
5031.462599
-2438.712311
-2463.262614
-2372.823905
-2578.941152
-2520.926559
-2512.49068
-3850.91578
-3172.929306
-6592.555881
-6930.656214
-6948.763754
-6837.6589
-6887.505141
-7611.082149
-7422.688655
-7473.000331
-7326.077312
-7374.952216
-7556.668825
-5826.231873
-5738.313886
-5800.752513
-5603.623218
-5674.259268
-5763.623691
-7795.739085
-7577.589002
-7582.087725
-7524.140047
-7563.455664
-7787.326822
-6069.618779
-5980.72154
-6039.550513
-5863.55603
-5922.611717
-6014.000828
-6746.94724
-6792.241257
-6623.363232
-6686.15917
1623.386855
1618.376265
1613.421628
1554.317964
1550.491507
1543.640093
1564.359721
1557.960092
1562.694092
-1490.02109
-1546.595614
-1346.477155
-1432.968819
1420.876426
1416.453797
1433.673464
1426.010219
1325.638559
1317.917212
1323.778489
1319.897102
1524.837627
1521.8733
1514.194855
1537.056252
1529.802819
1533.95854
1448.087497
1443.025799
1464.094689
1446.582278
1454.554704
-1716.937046
-1712.306096
-1705.626306
-1551.300062
976.5192423
991.9897794
1059.127906
1087.75391
1082.347076
1063.878703
1094.965287
415.9476431
406.5888695
1026.961495
919.6640439
717.0656448
1266.073929
1282.281309
1276.828019
1159.698785
-9324.221544
-9602.350196
-9061.05082
-8980.607589
-8441.339343
-7501.660995
-9314.375917
-8977.341372
-3681.673382
-3833.189739
-2128.305587
-2120.260409
-2123.970132
2514.118279
2428.446554
4759.173167
4567.773734
4515.86053
4092.005783
3958.061013
4393.851837
4225.167337
4366.094829
-2655.57436
-2576.352848
-2713.583852
-940.4331552
-935.0627036
-923.3544752
-1045.20584
-737.3871071
-711.2445918
-700.7664211
-863.1549414
-800.7549715
-802.7678261
-461.6183363
-516.6733126
-510.1141979
-335.760013
-344.1064925
-389.3997583
-8923.978417
-8841.746844
-9309.38353
-8252.673686
-8636.49208
-8634.467717
-9067.273528
-9051.156845
-7145.493595
-7027.681602
-7071.946141
-6970.473267
-6984.762679
-7090.176926
-7375.11021
-7220.761254
-7274.299265
-7120.13645
-7169.229422
-7317.841265
-5259.230645
-5183.722592
-5253.059895
-5246.623071
-5322.189646
-4940.297948
-4970.360727
-4947.296169
-5050.049825
-5552.465981
-5584.741486
-5538.287172
-5454.428599
-5529.084844
-5325.347566
-5393.748025
-5484.084466
-3341.961281
-3245.314757
-3242.8223
-3259.50853
-3198.590851
-3258.895942
-3446.614314
-3468.787329
-3397.998531
-3751.100462
-3793.990014
-3815.464712
2850.366132
2704.808015
2466.750861
2438.498055
2426.837795
2520.08491
2525.518796
2495.670164
3406.878377
3508.970095
3503.287534
3818.047211
3686.059191
3210.366849
3207.515264
3304.000294
-7857.364927
-7645.387146
-7678.548965
-7592.500048
-7615.467676
-7811.246486
-8038.666147
-8101.216832
-8316.129466
-8667.292807
-8572.833554
-8756.901735
-8759.633844
-8359.183605
-8285.265475
-8510.759133
-8466.97388
-8212.846648
2100.583125
2091.118067
2091.643519
2124.574635
2122.36182
2111.430988
2042.260898
2036.197694
2055.496065
2048.609065
2294.004986
2278.123493
2275.532657
2325.887703
2330.090576
2311.19394
2186.057362
2173.668387
2173.153734
2210.660399
2210.218877
2198.421358
-6304.609612
-6207.758664
-6257.943831
-6096.259877
-6152.555758
-6245.63567
-6545.368802
-6448.479538
-6531.798279
-6309.151576
-6372.34331
-6468.934197
1798.304349
1800.29861
1806.314683
1784.719694
1793.134326
1790.825886
1829.34122
1828.23864
1839.939864
1811.711632
1818.433438
1819.872252
1741.844346
1744.137956
1748.826272
1732.985716
1738.939253
1736.063869
1766.692557
1767.195001
1775.708831
1753.639718
1759.66065
1759.486158
1969.912187
1958.680568
1950.361718
1954.776424
1965.589795
1933.06616
1943.893079
1939.814554
1993.664854
1981.22296
1882.769009
1873.022713
1866.837831
1869.794442
1879.949135
1848.768898
1853.236848
1855.853465
1908.377553
1911.682119
1922.334728
1890.642024
1901.132057
1897.997894
1903.918195
1893.397236
-4209.323675
-4246.196668
-4138.532662
-4106.900907
-4128.140324
-4668.398412
-4698.978402
-4648.036718
-4860.052309
-4767.807595
-4738.576001
-4406.592968
-4437.953273
-4414.467525
-4592.522339
-4537.770503
-4475.051888
1598.169999
1594.538836
1588.09998
1607.71418
1601.249842
1605.613381
1609.788348
1601.181885
1631.593151
1628.783787
1584.780648
1574.775044
1569.205347
1569.360214
1567.310858
1581.840253
1576.186604
1581.014695
1682.755137
1687.680613
1699.176871
1683.612607
1715.985431
1718.405361
1725.946049
1704.912381
1711.42462
1709.056154
1644.173821
1640.235515
1663.579881
1658.19169
-2890.629466
-2875.974012
-2944.958558
-2760.043634
-2813.454617
-2848.149205
-3082.034841
-3130.203991
-2993.275365
-2994.407594
-3004.720333
-1272.570391
-1280.946552
-1335.873298
-1136.058162
-1202.776651
-1207.401589
1389.39002
1376.236621
1410.968876
1402.031831
1336.511494
1344.289646
1340.489721
1347.219391
1339.856541
1365.140433
1355.953456
1497.774139
1495.476179
1490.245143
1507.315859
1501.144083
1503.204265
1483.10549
1476.565725
1470.834021
1485.488102
1481.086645
1486.05047
-1867.924454
1042.60016
1018.859474
1019.673575
594.3250487
599.510204
644.7041997
552.5149864
556.2080641
545.736156
1030.969291
401.3653323
356.7141023
295.313766
1244.689529
1246.561392
1253.143626
-323.6229583
148.5759941
95.68336111
250.4822877
243.2271935
251.8367746
81.09957187
-45.21381512
-26.60477494
71.06035399
1190.480033
1206.474516
1198.95825
909.4123379
863.110946
835.5934372
843.532718
772.0174912
738.8674079
742.5905325
637.2769882
603.8843958
595.3038892
452.961717
427.9163351
399.4107119
228.924455
221.0432376
169.1727451
-8.382794241
3.007716921
-66.72729882
-229.0487427
-203.9545074
-279.4267293
-413.7368074
-382.5885284
-453.7146615
-555.2341332
-523.6588563
-584.1965991
-656.0533006
-629.2691825
959.3250436
925.6179179
876.1412391
910.509252
848.3150797
787.9352836
820.8328294
714.7059859
652.908846
670.5967243
511.0214178
464.0443559
448.9273257
242.2799539
231.4126719
168.5227332
-50.97284957
-16.41121422
-120.5399511
-307.4929805
-243.5725752
-361.4811363
-497.8814581
-429.6005565
-535.6625023
-629.9915929
-570.529759
-655.9826395
-718.8981581
-668.9703081
1028.597105
1014.515597
945.5807593
1005.842943
962.736198
873.0425226
941.2167169
847.8342218
741.6463021
804.8434763
630.014916
533.1517255
554.5600269
279.5650285
247.9923572
176.3790209
-131.4406625
-66.64145395
-225.2290137
-457.3111341
-336.832514
-517.090775
-650.5794685
-528.7546754
-683.2377777
-755.0442953
-655.6318901
-772.1712403
-810.6719371
-739.4059802
1109.201823
1123.120851
1040.43813
1125.260389
1121.955987
998.1083294
1115.17871
1068.070671
893.4160944
1039.369375
879.3944648
676.1958494
790.3478941
383.9145347
297.0295628
210.7760194
-305.5303053
-161.7031962
-447.8928733
-741.9384204
-511.6493064
-802.2195953
-903.9434138
-703.2993195
-918.148603
-933.7980062
-794.8565677
-934.2428379
-929.6705708
-837.9796472
1186.919099
1234.566124
1151.934464
1251.394551
1306.10833
1167.132808
1326.184993
1388.65353
1140.37412
1406.682525
1404.069856
977.1050035
1349.070203
608.2265693
429.6209189
385.392276
-850.9378076
-385.5877496
-1055.786456
-1300.251901
-848.6228763
-1311.766338
-1268.05506
-984.0260358
-1241.802569
-1158.476913
-986.594796
-1132.559435
-1066.65384
-962.804342
1245.124107
1322.104969
1259.924637
1351.976051
1461.857404
1350.447218
1508.229167
1697.020564
1475.052443
1785.252941
2284.017768
1598.691348
1930.083221
1939.769461
1378.155569
408.7493622
-1105.53668
-432.8079195
-1858.501662
-1769.10169
-1448.34665
-2064.909424
-1710.889486
-1375.715479
-1616.713112
-1391.72109
-1218.689516
-1333.207275
-1196.778959
-1101.008847
1269.087031
1361.271547
1336.894372
1396.963534
1526.803785
1487.988909
1580.553539
1787.299791