/*--------------------------------*- C++ -*----------------------------------*\
| =========                 |                                                 |
| \\      /  F ield         | OpenFOAM: The Open Source CFD Toolbox           |
|  \\    /   O peration     | Version:  v1912                                 |
|   \\  /    A nd           | Website:  www.openfoam.com                      |
|    \\/     M anipulation  |                                                 |
\*---------------------------------------------------------------------------*/
FoamFile
{
    version     2.0;
    format      ascii;
    class       pointVectorField;
    location    "1.51";
    object      pointDisplacement;
}
// * * * * * * * * * * * * * * * * * * * * * * * * * * * * * * * * * * * * * //

dimensions      [0 1 0 0 0 0 0];


internalField   nonuniform List<vector> 
26316
(
(0 0 0)
(0 0 0)
(0 0 0)
(0 0 0)
(0 0 0)
(0 0 0)
(0 0 0)
(0 0 0)
(0 0 0)
(0 0 0)
(0 0 0)
(0 0 0)
(0 0 0)
(0 0 0)
(0 0 0)
(0 0 0)
(0 0 0)
(0 0 0)
(0 0 0)
(0 0 0)
(0 0 0)
(0 0 0)
(0 0 0)
(0 0 0)
(0 0 0)
(0 0 0)
(0 0 0)
(0 0 0)
(0 0 0)
(0 0 0)
(0 0 0)
(0 0 0)
(0 0 0)
(0 0 0)
(0 0 0)
(0 0 0)
(0 0 0)
(0 0 0)
(0 0 0)
(0 0 0)
(0 0 0)
(0 0 0)
(0 0 0)
(0 0 0)
(0 0 0)
(0 0 0)
(0 0 0)
(0 0 0)
(0 0 0)
(0 0 0)
(0 0 0)
(0 0 0)
(0 0 0)
(0 0 0)
(0 0 0)
(0 0 0)
(0 0 0)
(0 0 0)
(0 0 0)
(0 0 0)
(0 0 0)
(0 0 0)
(0 0 0)
(0 0 0)
(0 0 0)
(0 0 0)
(0 0 0)
(0 0 0)
(0 0 0)
(0 0 0)
(0 0 0)
(0 0 0)
(0 0 0)
(0 0 0)
(0 0 0)
(0 0 0)
(0 0 0)
(0 0 0)
(0 0 0)
(0 0 0)
(0 0 0)
(0 0 0)
(0 0 0)
(0 0 0)
(0 0 0)
(0 0 0)
(0 0 0)
(0 0 0)
(0 0 0)
(0 0 0)
(0 0 0)
(0 0 0)
(0 0 0)
(0 0 0)
(0 0 0)
(0 0 0)
(0 0 0)
(0 0 0)
(0 0 0)
(0 0 0)
(0 0 0)
(0 0 0)
(0 0 0)
(0 0 0)
(0 0 0)
(0 0 0)
(0 0 0)
(0 0 0)
(0 0 0)
(0 0 0)
(0 0 0)
(0 0 0)
(0 0 0)
(0 0 0)
(0 0 0)
(0 0 0)
(0 0 0)
(0 0 0)
(0 0 0)
(-9.434570827e-07 4.454638465e-06 2.775557562e-17)
(0 0 0)
(0 0 0)
(-5.194385824e-07 4.989786475e-05 3.330669074e-16)
(2.404319304e-06 4.241765608e-05 2.775557562e-16)
(0 0 0)
(0 0 0)
(0 0 0)
(0 0 0)
(0 0 0)
(0 0 0)
(0 0 0)
(0 0 0)
(0 0 0)
(0 0 0)
(0 0 0)
(0 0 0)
(0 0 0)
(0 0 0)
(0 0 0)
(0 0 0)
(0 0 0)
(0 0 0)
(0 0 0)
(0 0 0)
(0 0 0)
(0 0 0)
(0 0 0)
(0 0 0)
(0 0 0)
(0 0 0)
(0 0 0)
(0 0 0)
(0 0 0)
(0 0 0)
(0 0 0)
(0 0 0)
(0 0 0)
(0 0 0)
(0 0 0)
(0 0 0)
(0 0 0)
(0 0 0)
(0 0 0)
(0 0 0)
(0 0 0)
(0 0 0)
(0 0 0)
(0 0 0)
(0 0 0)
(0 0 0)
(0 0 0)
(0 0 0)
(0 0 0)
(0 0 0)
(0 0 0)
(0 0 0)
(0 0 0)
(0 0 0)
(0 0 0)
(0 0 0)
(0 0 0)
(0 0 0)
(0 0 0)
(0 0 0)
(0 0 0)
(-5.877466492e-05 5.397663903e-05 4.857225733e-16)
(-0.0003381412071 0.0003386951579 3.080868893e-15)
(-4.423248696e-06 4.796335211e-06 4.163336342e-17)
(-0.0006413805079 0.0009543559732 8.021361353e-15)
(-0.001589548184 0.002192595241 1.994238108e-14)
(-0.001882819112 0.002970944362 2.702005286e-14)
(-0.0008804898063 0.001496621905 1.257327575e-14)
(-0.001064798472 0.003154477956 2.649269693e-14)
(-0.001854265519 0.005133373292 4.668487819e-14)
(-0.001535912759 0.005670929043 5.156985949e-14)
(-0.0009126555304 0.00358959687 3.015643291e-14)
(-2.312651667e-05 0.004195172854 3.527733661e-14)
(-7.740761531e-06 0.006401760375 5.831446437e-14)
(0.0005569289715 0.006316051001 5.756506383e-14)
(0.000317644211 0.004125373531 3.469446952e-14)
(0.001022090597 0.003160209647 2.658984144e-14)
(0.001820959774 0.005130298399 4.682365606e-14)
(0.001987158645 0.004481749412 4.091171846e-14)
(0.001071931178 0.00264530311 2.225997164e-14)
(0.0006277077983 0.0009654312129 8.118505868e-15)
(0.001560494042 0.002204925106 2.012279232e-14)
(0.001172505597 0.001473609953 1.344757639e-14)
(0.000366441822 0.000500677695 4.218847494e-15)
(0 0 0)
(6.166371801e-05 5.812263392e-05 5.273559367e-16)
(0 0 0)
(0 0 0)
(0 0 0)
(0 0 0)
(0 0 0)
(0 0 0)
(0 0 0)
(0 0 0)
(0 0 0)
(0 0 0)
(0 0 0)
(0 0 0)
(0 0 0)
(0 0 0)
(0 0 0)
(0 0 0)
(0 0 0)
(0 0 0)
(0 0 0)
(0 0 0)
(0 0 0)
(0 0 0)
(0 0 0)
(0 0 0)
(0 0 0)
(0 0 0)
(0 0 0)
(0 0 0)
(0 0 0)
(0 0 0)
(0 0 0)
(0 0 0)
(0 0 0)
(0 0 0)
(0 0 0)
(0 0 0)
(0 0 0)
(0 0 0)
(0 0 0)
(0 0 0)
(0 0 0)
(0 0 0)
(0 0 0)
(0 0 0)
(0 0 0)
(0 0 0)
(-0.0001641458023 7.541970122e-05 1.040834086e-15)
(-0.0008963125189 0.0004398702967 6.022959909e-15)
(-0.0002123942472 0.0001171626871 1.429412144e-15)
(-0.003022527833 0.002096478641 2.539635169e-14)
(-0.004826988567 0.002990654039 4.067579606e-14)
(-0.006144624775 0.004172344027 5.663525204e-14)
(-0.004148125245 0.003149423789 3.810840532e-14)
(-0.006393054234 0.006759271339 8.15042478e-14)
(-0.008426410013 0.007994719611 1.080802114e-13)
(-0.008430188167 0.009199129307 1.24331101e-13)
(-0.006539166845 0.007942534301 9.57289803e-14)
(-0.004986663387 0.01085172144 1.310201947e-13)
(-0.006141139728 0.01207710886 1.636746294e-13)
(-0.004748349949 0.01271113533 1.725841692e-13)
(-0.003904810265 0.01151141904 1.391664561e-13)
(0.0002476806308 0.01234433235 1.500188862e-13)
(0.0004062170026 0.01348002223 1.843802888e-13)
(0.002197518616 0.01335170538 1.831035323e-13)
(0.00170434752 0.01222394796 1.488392742e-13)
(0.005324127597 0.01072901994 1.312977504e-13)
(0.006737278497 0.01187363001 1.639660629e-13)
(0.00774725473 0.01104970642 1.528499549e-13)
(0.006079521034 0.00989332883 1.212085987e-13)
(0.006456219339 0.006681167784 8.192058143e-14)
(0.00860565331 0.007833568651 1.085798118e-13)
(0.008119089562 0.006604558476 9.149625502e-14)
(0.005934643195 0.005482843634 6.719624857e-14)
(0.003009055508 0.002106876681 2.57294186e-14)
(0.004818428755 0.002980267502 4.111988527e-14)
(0.003401133797 0.001949011768 2.683964162e-14)
(0.001886598219 0.001222356754 1.490474411e-14)
(0 0 0)
(0.0001629801923 7.619165852e-05 1.040834086e-15)
(0 0 0)
(0 0 0)
(0 0 0)
(0 0 0)
(0 0 0)
(0 0 0)
(0 0 0)
(0 0 0)
(0 0 0)
(0 0 0)
(0 0 0)
(0 0 0)
(0 0 0)
(0 0 0)
(0 0 0)
(0 0 0)
(0 0 0)
(0 0 0)
(0 0 0)
(0 0 0)
(0 0 0)
(0 0 0)
(0 0 0)
(0 0 0)
(0 0 0)
(0 0 0)
(0 0 0)
(0 0 0)
(0 0 0)
(0 0 0)
(0 0 0)
(0 0 0)
(0 0 0)
(0 0 0)
(0 0 0)
(0 0 0)
(0 0 0)
(0 0 0)
(0 0 0)
(-7.062545517e-05 1.333086127e-05 3.747002708e-16)
(0 0 0)
(-0.003002427506 0.0008652969061 1.894318036e-14)
(-0.004460215414 0.00102804003 2.81163981e-14)
(-0.006970080891 0.001733975337 4.696243394e-14)
(-0.005121459893 0.001585530141 3.451405828e-14)
(-0.01163021941 0.004612917875 9.875433804e-14)
(-0.0140953021 0.004532913563 1.199318422e-13)
(-0.01570776112 0.005564860845 1.464661725e-13)
(-0.01323509599 0.005774644879 1.230959779e-13)
(-0.01484898695 0.009119094963 1.933730953e-13)
(-0.01689108712 0.008433153901 2.207400929e-13)
(-0.01602453093 0.009211543105 2.415012634e-13)
(-0.01423040257 0.01006680555 2.136485433e-13)
(-0.009422618615 0.01210438693 2.593897319e-13)
(-0.01036586909 0.01079056252 2.869510185e-13)
(-0.007746330346 0.01106198336 2.962352585e-13)
(-0.007085638442 0.01249338045 2.690764278e-13)
(0.0009428540078 0.01283228414 2.814692923e-13)
(0.001079379748 0.01121272087 3.078926003e-13)
(0.00408069823 0.01106937754 3.066852328e-13)
(0.003683725482 0.0126900285 2.801647803e-13)
(0.01097767363 0.01155413191 2.5977831e-13)
(0.0121977063 0.01010985767 2.873257188e-13)
(0.01433401446 0.009615302456 2.7521041e-13)
(0.01282884152 0.01094800217 2.473438121e-13)
(0.01560692389 0.008518215528 1.940669847e-13)
(0.01786774124 0.007631847609 2.2132296e-13)
(0.01787593947 0.006829328794 1.982025655e-13)
(0.0154448287 0.007542888136 1.71876402e-13)
(0.0116944224 0.004364268471 9.878209362e-14)
(0.01459012668 0.004225724943 1.225269886e-13)
(0.01255040033 0.00336516881 9.756084829e-14)
(0.009938969227 0.003426234095 7.754907827e-14)
(0.003431835349 0.0009753859512 2.188527137e-14)
(0.00513131389 0.001149467201 3.26683125e-14)
(0.002893202942 0.0006149303822 1.736111255e-14)
(0.001652823626 0.0004444040768 9.93649607e-15)
(0 0 0)
(0 0 0)
(0 0 0)
(0 0 0)
(0 0 0)
(0 0 0)
(0 0 0)
(0 0 0)
(0 0 0)
(0 0 0)
(0 0 0)
(0 0 0)
(0 0 0)
(0 0 0)
(0 0 0)
(0 0 0)
(0 0 0)
(0 0 0)
(0 0 0)
(0 0 0)
(0 0 0)
(0 0 0)
(0 0 0)
(0 0 0)
(0 0 0)
(0 0 0)
(0 0 0)
(0 0 0)
(0 0 0)
(0 0 0)
(0 0 0)
(0 0 0)
(0 0 0)
(0 0 0)
(0 0 0)
(-0.0003264108343 1.309180717e-05 1.637578961e-15)
(-0.0007422549724 -4.499151213e-06 3.73312492e-15)
(-0.002635374873 -1.380881341e-05 1.394717675e-14)
(-0.001772004132 7.633070598e-05 9.381384558e-15)
(-0.01038636971 0.0005946498478 6.541989173e-14)
(-0.01228338776 5.694207726e-06 7.73964226e-14)
(-0.01580950613 4.930631889e-05 1.064287547e-13)
(-0.01371113096 0.0008729379305 9.227341113e-14)
(-0.02150081265 0.001922289551 1.824651541e-13)
(-0.02373728847 0.000279351466 2.013250677e-13)
(-0.02494457872 0.0003699437145 2.316480341e-13)
(-0.02280670403 0.002295323919 2.121081089e-13)
(-0.02225007152 0.003250605124 2.907396546e-13)
(-0.02363706156 0.0006217950408 3.075456556e-13)
(-0.02169706474 0.0006311139628 3.255451464e-13)
(-0.02049258973 0.003411700665 3.086697564e-13)
(-0.01248727309 0.003562160467 3.448352714e-13)
(-0.01294911769 0.000421427121 3.543831895e-13)
(-0.009510144902 0.000308301382 3.577554919e-13)
(-0.009214351904 0.003505772088 3.504141421e-13)
(0.001152032832 0.003176969249 3.559791351e-13)
(0.001052772858 -8.335761773e-05 3.596567488e-13)
(0.004586700642 -0.0002206662298 3.596151155e-13)
(0.004638969505 0.00303862469 3.554934125e-13)
(0.01473712924 0.002561768749 3.455707942e-13)
(0.01509851394 -0.0006450554695 3.54868912e-13)
(0.01827512257 -0.0007694801344 3.490263634e-13)
(0.01769781721 0.002380331847 3.374245328e-13)
(0.0237772039 0.001802754146 2.91364155e-13)
(0.02526666093 -0.001051042123 3.086142453e-13)
(0.02639256148 -0.001081510906 2.88227775e-13)
(0.02457336896 0.001570130793 2.688266276e-13)
(0.02250166164 0.001077682537 1.876415689e-13)
(0.02480107 -0.0007676258711 2.066818938e-13)
(0.02266887074 -0.0006138045938 1.751654377e-13)
(0.02032887233 0.0009367429732 1.572075803e-13)
(0.01101813869 0.0004832707541 6.993017276e-14)
(0.01299024111 -0.0002077221408 8.237854843e-14)
(0.009354954628 -0.0001205263143 5.596911823e-14)
(0.007663028062 0.0003329373961 4.587996649e-14)
(0.0005050223728 2.049964922e-05 2.581268532e-15)
(0.0008676348859 -6.211764263e-06 4.427014311e-15)
(2.202294199e-05 -1.446401739e-07 1.110223025e-16)
(0 0 0)
(0 0 0)
(0 0 0)
(0 0 0)
(0 0 0)
(0 0 0)
(0 0 0)
(0 0 0)
(0 0 0)
(0 0 0)
(0 0 0)
(0 0 0)
(0 0 0)
(0 0 0)
(0 0 0)
(0 0 0)
(0 0 0)
(0 0 0)
(0 0 0)
(0 0 0)
(0 0 0)
(0 0 0)
(0 0 0)
(0 0 0)
(0 0 0)
(0 0 0)
(0 0 0)
(0 0 0)
(0 0 0)
(-3.106984494e-05 -6.748877142e-06 1.387778781e-16)
(-8.478127383e-07 -1.482619385e-07 0)
(0 0 0)
(-0.002329840128 -0.0003365941797 1.171285291e-14)
(-0.002940516225 -0.0005602674727 1.477984402e-14)
(-0.006097772229 -0.001211869874 3.227973444e-14)
(-0.005202638574 -0.0007825319849 2.753353101e-14)
(-0.01684999307 -0.00287935657 1.061373212e-13)
(-0.01834143675 -0.004181945869 1.154909501e-13)
(-0.02224979906 -0.005352481557 1.496303081e-13)
(-0.02107642096 -0.003779434547 1.418309914e-13)
(-0.02896628789 -0.006309801851 2.45123366e-13)
(-0.03017847535 -0.008886654305 2.549765954e-13)
(-0.03090522166 -0.009917475185 2.853967063e-13)
(-0.02980399961 -0.007069007028 2.757793993e-13)
(-0.02664177984 -0.00881950196 3.41532358e-13)
(-0.02724284116 -0.0121886439 3.476802179e-13)
(-0.02442516507 -0.01259097973 3.566869022e-13)
(-0.02403291948 -0.00917298107 3.531758219e-13)
(-0.0137205162 -0.009536556647 0)
(-0.01399349793 -0.01295852662 0)
(-0.0122119344 -0.01299654838 0)
(-0.01033169672 -0.01296083368 0)
(-0.01018080235 -0.01126749472 0)
(-0.01010067951 -0.009612627545 0)
(0.0006682400411 -0.009960874371 0)
(0.0006046113628 -0.01160704183 0)
(0.002408105992 -0.01167530663 0)
(0.002461961479 -0.01002891645 0)
(0.01516498583 -0.01065632279 0)
(0.0151534595 -0.01234909727 0)
(0.01515371171 -0.01406855966 0)
(0.01694572857 -0.01418962027 0)
(0.01871296222 -0.0142770872 0)
(0.01876613132 -0.01087888893 0)
(0.02805765719 -0.01087431785 3.438915819e-13)
(0.02844598326 -0.01430145758 3.497480083e-13)
(0.03055301373 -0.01381515288 3.357314426e-13)
(0.02993138478 -0.01044805167 3.280986594e-13)
(0.03009263441 -0.008026218514 2.509520369e-13)
(0.03115496849 -0.01077812044 2.600281102e-13)
(0.02953936397 -0.009438970295 2.283451206e-13)
(0.0282129221 -0.006941239849 2.179922909e-13)
(0.01814384633 -0.003557697736 1.148942053e-13)
(0.01984167894 -0.005074548761 1.256494908e-13)
(0.01562165292 -0.0037265427 9.328648964e-14)
(0.01406991792 -0.002567006554 8.404388296e-14)
(0.003127953135 -0.0004687346424 1.59317004e-14)
(0.003909971344 -0.000771291086 1.992850329e-14)
(0.001400456251 -0.000261462013 6.800116026e-15)
(0.0009528266284 -0.0001350042148 4.635181128e-15)
(0 0 0)
(0 0 0)
(0 0 0)
(0 0 0)
(0 0 0)
(0 0 0)
(0 0 0)
(0 0 0)
(0 0 0)
(0 0 0)
(0 0 0)
(0 0 0)
(0 0 0)
(0 0 0)
(0 0 0)
(0 0 0)
(0 0 0)
(0 0 0)
(0 0 0)
(0 0 0)
(0 0 0)
(0 0 0)
(0 0 0)
(0 0 0)
(0 0 0)
(0 0 0)
(0 0 0)
(0 0 0)
(-0.0002799533811 -0.0001082228296 1.276756478e-15)
(-0.0001595379035 -5.491613181e-05 7.21644966e-16)
(-0.0001305159191 -3.941022101e-05 5.967448757e-16)
(-0.004225129934 -0.001392533179 2.123301535e-14)
(-0.004382055739 -0.001647304014 2.202404925e-14)
(-0.008111315257 -0.003191515157 4.288236433e-14)
(-0.007896426605 -0.002722444963 4.175826351e-14)
(-0.02120264976 -0.008492784347 1.33226763e-13)
(-0.02154841601 -0.009871124852 1.352806756e-13)
(-0.0256364145 -0.01245339649 1.717237463e-13)
(-0.02526399855 -0.01072398894 1.69392278e-13)
(-0.03267934257 -0.0171439619 2.74363865e-13)
(-0.03304845837 -0.01985492367 2.768618668e-13)
(-0.03344473194 -0.02190291624 3.056443987e-13)
(-0.03310231937 -0.01893351125 3.033129303e-13)
(-0.02827052886 -0.02237003255 3.558264794e-13)
(-0.02846785854 -0.02574136738 3.5670078e-13)
(-0.02518401289 -0.02607830476 0)
(-0.02504999782 -0.02272758954 3.596706266e-13)
(-0.01450345558 -0.02309515884 0)
(-0.01457884682 -0.02479337813 0)
(-0.01282203359 -0.02485095349 0)
(-0.01274689966 -0.02315540396 0)
(0.01488074364 -0.02417817558 0)
(0.01482586507 -0.02586068534 0)
(0.01658155531 -0.02593536947 0)
(0.01663818685 -0.02425542107 0)
(0.02880153335 -0.02467192339 3.579081476e-13)
(0.02874672059 -0.02805793253 3.587685704e-13)
(0.03158770706 -0.02760490251 3.514827318e-13)
(0.03152525517 -0.02420227639 3.494843304e-13)
(0.03408743886 -0.01988979364 2.858963066e-13)
(0.03445400774 -0.02284643443 2.896294315e-13)
(0.03324295737 -0.02035636987 2.584599201e-13)
(0.03280537301 -0.01767879994 2.545741395e-13)
(0.02327263952 -0.01010145108 1.475763955e-13)
(0.02378722174 -0.01174164744 1.509764536e-13)
(0.01930749486 -0.008927417595 1.154631946e-13)
(0.01881688421 -0.007645531257 1.124655924e-13)
(0.005672842856 -0.001925248028 2.889355422e-14)
(0.006405788953 -0.00248072747 3.264055692e-14)
(0.003054568012 -0.001121786086 1.482147738e-14)
(0.002514573275 -0.0008090915997 1.221245327e-14)
(0 0 0)
(0 0 0)
(0 0 0)
(0 0 0)
(0 0 0)
(0 0 0)
(0 0 0)
(0 0 0)
(0 0 0)
(0 0 0)
(0 0 0)
(0 0 0)
(0 0 0)
(0 0 0)
(0 0 0)
(0 0 0)
(0 0 0)
(0 0 0)
(0 0 0)
(0 0 0)
(0 0 0)
(0 0 0)
(0 0 0)
(0 0 0)
(0 0 0)
(0 0 0)
(0 0 0)
(0 0 0)
(-0.0004595654349 -0.0002553076739 2.095545959e-15)
(-0.0004150777156 -0.000213079112 1.90125693e-15)
(-0.0003641398646 -0.0001715535089 1.665334537e-15)
(-0.005207379064 -0.002681379138 2.614575223e-14)
(-0.005384956614 -0.003022109906 2.703393065e-14)
(-0.009390217704 -0.005522312263 4.959921363e-14)
(-0.009167376049 -0.00494563042 4.843347945e-14)
(-0.0229188657 -0.0144457603 1.435518371e-13)
(-0.02320503108 -0.01595286404 1.452310494e-13)
(-0.02727891166 -0.0199054082 1.819377982e-13)
(-0.02699275929 -0.01805702356 1.802169525e-13)
(-0.03412348293 -0.02823572934 2.840089275e-13)
(-0.03436713137 -0.03100710282 2.853967063e-13)
(-0.03459783972 -0.033980077 3.128330928e-13)
(-0.03437759502 -0.03097752004 3.116673586e-13)
(-0.0289521483 -0.03579508 3.58074681e-13)
(-0.02909253488 -0.03912778721 3.582967256e-13)
(-0.02568931142 -0.03940816771 0)
(-0.0255653869 -0.03608391537 0)
(-0.01503693073 -0.03648738902 0)
(-0.01509993912 -0.03815063219 0)
(-0.01334788351 -0.0382175298 0)
(-0.01328464399 -0.03655429555 0)
(0.01440284381 -0.03759983572 0)
(0.01433868752 -0.0392728336 0)
(0.01609036957 -0.03934141426 0)
(0.01615480134 -0.03766927575 0)
(0.02842948185 -0.03814713719 3.596289933e-13)
(0.02830009407 -0.04148949243 3.596567488e-13)
(0.03144653601 -0.04113369482 3.555211681e-13)
(0.03152830817 -0.03777621774 3.549938121e-13)
(0.03535816258 -0.03199053725 2.994271497e-13)
(0.03548112329 -0.03498749105 3.012590177e-13)
(0.03465946589 -0.0315318281 2.716993297e-13)
(0.03446293288 -0.02877599018 2.695760282e-13)
(0.0256325955 -0.01726399412 1.63175029e-13)
(0.02599036462 -0.01906718648 1.656175197e-13)
(0.02157264609 -0.01483590743 1.293964935e-13)
(0.02119458156 -0.01338023787 1.270233918e-13)
(0.007343827268 -0.003888649587 3.744227151e-14)
(0.007641679065 -0.004410041574 3.896882816e-14)
(0.003940699488 -0.002158412811 1.915134717e-14)
(0.003715194402 -0.001866861387 1.804112415e-14)
(0 0 0)
(0 0 0)
(0 0 0)
(0 0 0)
(0 0 0)
(0 0 0)
(0 0 0)
(0 0 0)
(0 0 0)
(0 0 0)
(0 0 0)
(0 0 0)
(0 0 0)
(0 0 0)
(0 0 0)
(0 0 0)
(0 0 0)
(0 0 0)
(0 0 0)
(0 0 0)
(0 0 0)
(0 0 0)
(0 0 0)
(0 0 0)
(0 0 0)
(0 0 0)
(0 0 0)
(0 0 0)
(-0.0006779418267 -0.0004909399382 3.094746681e-15)
(-0.0006112038585 -0.0004168430574 2.803313137e-15)
(-0.0005517848688 -0.0003530696987 2.525757381e-15)
(-0.005827459407 -0.00407842081 2.92543767e-14)
(-0.006006717681 -0.004481044384 3.014255512e-14)
(-0.01016367925 -0.007948135886 5.363764988e-14)
(-0.009942199053 -0.007293753586 5.248579349e-14)
(-0.02391732051 -0.02052570426 1.49311119e-13)
(-0.02419735487 -0.02213608271 1.509209424e-13)
(-0.02827680172 -0.02745250424 1.877248357e-13)
(-0.02799698087 -0.02550082408 1.860872567e-13)
(-0.03500492429 -0.03935253884 2.887551309e-13)
(-0.03524307272 -0.042200795 2.90059643e-13)
(-0.03540085639 -0.04607091274 3.166911178e-13)
(-0.0351858564 -0.04300787768 3.156086503e-13)
(-0.02949573996 -0.04910613539 3.587685704e-13)
(-0.02963009945 -0.05243615799 3.589351039e-13)
(-0.02617884577 -0.0526774067 0)
(-0.02605703206 -0.04936186887 0)
(-0.0155354208 -0.04976476982 0)
(-0.01559717798 -0.05142158004 0)
(-0.01384749583 -0.0514880003 0)
(-0.01381646019 -0.0506595241 0)
(-0.01378545129 -0.04983174127 0)
(0.01387089747 -0.05096843755 0)
(0.01380190008 -0.05263492176 0)
(0.01555168602 -0.05270065161 0)
(0.01562089374 -0.05103471562 0)
(0.02788692598 -0.05149212842 3.59642871e-13)
(0.02774239538 -0.05480711317 3.595734821e-13)
(0.0308360011 -0.0541794804 3.547023786e-13)
(0.03101263722 -0.050969956 3.551742234e-13)
(0.03504640823 -0.04318328282 3.000377724e-13)
(0.03482259076 -0.04578617013 2.989414272e-13)
(0.03401593309 -0.04119698351 2.691458167e-13)
(0.03424019042 -0.03887819765 2.702837953e-13)
(0.02563922015 -0.02343251115 1.639799407e-13)
(0.02544764132 -0.02478757214 1.629391067e-13)
(0.02107667724 -0.01924238431 1.268846139e-13)
(0.02124917921 -0.01820369995 1.278144257e-13)
(0.007432760835 -0.005347618209 3.794187187e-14)
(0.007334890099 -0.00562453438 3.745614929e-14)
(0.003716494862 -0.002706038931 1.806887973e-14)
(0.003785297786 -0.00258572935 1.840194663e-14)
(0 0 0)
(0 0 0)
(0 0 0)
(0 0 0)
(0 0 0)
(0 0 0)
(0 0 0)
(0 0 0)
(0 0 0)
(0 0 0)
(0 0 0)
(0 0 0)
(0 0 0)
(0 0 0)
(0 0 0)
(0 0 0)
(0 0 0)
(0 0 0)
(0 0 0)
(0 0 0)
(0 0 0)
(0 0 0)
(0 0 0)
(0 0 0)
(0 0 0)
(0 0 0)
(0 0 0)
(0 0 0)
(-0.0009709221497 -0.0008668533574 4.440892099e-15)
(-0.0008915517608 -0.0007584119764 4.080069615e-15)
(-0.0008147880945 -0.0006587598012 3.719247132e-15)
(-0.006567563263 -0.005808060478 3.294586826e-14)
(-0.006765281702 -0.006294541209 3.394506898e-14)
(-0.01109145822 -0.01081734742 5.846712003e-14)
(-0.01085110485 -0.01005935509 5.721811913e-14)
(-0.02505702326 -0.0271617205 1.558475571e-13)
(-0.02535420882 -0.02890694301 1.57554525e-13)
(-0.02942932178 -0.03558811473 1.944278072e-13)
(-0.02913389703 -0.03350206843 1.927069615e-13)
(-0.03596698917 -0.05089466242 2.939870569e-13)
(-0.03621368061 -0.05384426865 2.953193246e-13)
(-0.03627178067 -0.05852386304 3.20993232e-13)
(-0.03605144596 -0.05537997444 3.199107645e-13)
(-0.0300258313 -0.0624344287 3.593236819e-13)
(-0.03015506492 -0.06576686969 3.594208264e-13)
(-0.02666285384 -0.06594739899 0)
(-0.02654242965 -0.06262987863 0)
(-0.01602727215 -0.06303206765 0)
(-0.01608808721 -0.06469045737 0)
(-0.0143414127 -0.06475683875 0)
(-0.01431081256 -0.06392765133 0)
(-0.01428014132 -0.06309862096 0)
(0.01330663519 -0.06428070229 0)
(0.01323295031 -0.06594469094 0)
(0.01498110967 -0.06600858342 0)
(0.01505516193 -0.06434507189 0)
(0.02724982894 -0.06462466158 3.587408148e-13)
(0.02705163344 -0.06780015853 3.580052921e-13)
(0.02983690093 -0.06626863301 3.493871858e-13)
(0.03014472508 -0.06341242423 3.514272207e-13)
(0.03347434787 -0.0523717695 2.897126983e-13)
(0.03273930887 -0.05395703639 2.840644386e-13)
(0.03186204164 -0.04828296915 2.543243394e-13)
(0.03246738771 -0.04671934248 2.58598698e-13)
(0.0235460109 -0.02717652563 1.512540093e-13)
(0.02294301573 -0.02786106999 1.4754864e-13)
(0.01862419926 -0.02118769694 1.124794702e-13)
(0.01918363578 -0.0207449788 1.157685059e-13)
(0.005994148503 -0.00544558123 3.062827769e-14)
(0.005672085484 -0.005420939062 2.899069873e-14)
(0.0025226592 -0.002290227505 1.226796442e-14)
(0.002738593653 -0.002363205231 1.33226763e-14)
(0 0 0)
(0 0 0)
(0 0 0)
(0 0 0)
(0 0 0)
(0 0 0)
(0 0 0)
(0 0 0)
(0 0 0)
(0 0 0)
(0 0 0)
(0 0 0)
(0 0 0)
(0 0 0)
(0 0 0)
(0 0 0)
(0 0 0)
(0 0 0)
(0 0 0)
(0 0 0)
(0 0 0)
(0 0 0)
(0 0 0)
(0 0 0)
(0 0 0)
(0 0 0)
(0 0 0)
(0 0 0)
(-0.001227223278 -0.001302532755 5.606626274e-15)
(-0.001269139388 -0.001293460894 5.800915304e-15)
(-0.001158509209 -0.001131932462 5.301314943e-15)
(-0.007412006996 -0.007918655254 3.716471575e-14)
(-0.007664994168 -0.008540652121 3.841371665e-14)
(-0.01217286395 -0.01421369206 6.40876241e-14)
(-0.01187077285 -0.0132913057 6.251943407e-14)
(-0.02630360354 -0.03439340512 1.629529844e-13)
(-0.02666443619 -0.03634409635 1.65006897e-13)
(-0.03072386147 -0.04438248493 2.01894057e-13)
(-0.03036917425 -0.04209377294 1.998401444e-13)
(-0.03698448765 -0.06287075478 2.994687831e-13)
(-0.03726585097 -0.06596563179 3.010230953e-13)
(-0.03719845562 -0.07134998515 3.25572902e-13)
(-0.03695375456 -0.06809333679 3.243377789e-13)
(-0.03053424218 -0.07575268533 3.596289933e-13)
(-0.03065793002 -0.07907674209 3.596706266e-13)
(-0.02714185665 -0.07921364935 0)
(-0.02702215556 -0.07589687266 0)
(-0.01650872248 -0.07629776065 0)
(-0.01656806779 -0.07795605275 0)
(-0.01482469126 -0.07802192111 0)
(-0.01479485263 -0.07719247284 0)
(-0.01476496074 -0.07636364388 0)
(0.01270561241 -0.07755983717 0)
(0.01262728487 -0.07921816853 0)
(0.01437488139 -0.07928065046 0)
(0.01445374823 -0.07762233991 0)
(0.02634539133 -0.07689474092 3.543138005e-13)
(0.0260502956 -0.07968539272 3.522460101e-13)
(0.02839299002 -0.07663378346 3.383959779e-13)
(0.02881798334 -0.07430414635 3.419764472e-13)
(0.03067527225 -0.05828176818 2.680633493e-13)
(0.03012558511 -0.05979636288 2.638722574e-13)
(0.02863309348 -0.0521319446 2.302324997e-13)
(0.02956123904 -0.05156449073 2.373101715e-13)
(0.02025412 -0.02823755815 1.305622277e-13)
(0.01898162947 -0.02759169855 1.22429844e-13)
(0.01473638022 -0.02005912506 8.919254224e-14)
(0.01601243716 -0.02090690497 9.688083669e-14)
(0.004024171281 -0.004415011417 2.058075932e-14)
(0.003514526613 -0.004021498486 1.7985613e-14)
(0.001141862101 -0.00124182353 5.551115123e-15)
(0.001437196683 -0.001498426165 6.994405055e-15)
(0 0 0)
(0 0 0)
(0 0 0)
(0 0 0)
(0 0 0)
(0 0 0)
(0 0 0)
(0 0 0)
(0 0 0)
(0 0 0)
(0 0 0)
(0 0 0)
(0 0 0)
(0 0 0)
(0 0 0)
(0 0 0)
(0 0 0)
(0 0 0)
(0 0 0)
(0 0 0)
(0 0 0)
(0 0 0)
(0 0 0)
(0 0 0)
(0 0 0)
(0 0 0)
(0 0 0)
(0 0 0)
(-0.002182335889 -0.002682820582 9.964251646e-15)
(-0.001989505824 -0.002361929192 9.103828802e-15)
(-0.001702578572 -0.001949968102 7.771561172e-15)
(-0.008478670837 -0.0106116301 4.246603069e-14)
(-0.009111521714 -0.01181656503 4.561628852e-14)
(-0.01383311218 -0.0187909606 7.267797475e-14)
(-0.01305639855 -0.01711985605 6.86395385e-14)
(-0.0278835269 -0.04261069551 1.719457909e-13)
(-0.02841811835 -0.04497609346 1.749989043e-13)
(-0.03236453574 -0.0542402888 2.114003417e-13)
(-0.03191338252 -0.05165173023 2.087774398e-13)
(-0.03818044916 -0.07552521675 3.060884879e-13)
(-0.03835780205 -0.07851561091 3.067546217e-13)
(-0.03825533867 -0.08471815396 3.309574836e-13)
(-0.0379810302 -0.08132614064 3.295697049e-13)
(-0.03102448568 -0.08902742911 0)
(-0.03114872041 -0.09234372226 0)
(-0.02762733972 -0.09247787509 0)
(-0.02756555282 -0.09082029445 0)
(-0.02750422223 -0.08916254188 0)
(-0.01697975719 -0.08956346968 0)
(-0.01700915711 -0.09039154604 0)
(-0.01613722582 -0.09042418097 0)
(-0.01610791187 -0.08959633276 0)
(-0.001860420917 -0.09034365971 0)
(-0.001885960725 -0.09075623808 0)
(-0.001908726886 -0.09116900061 0)
(-0.001054699611 -0.09119222604 0)
(-0.001005099989 -0.0903675523 0)
(0.01204108343 -0.090805119 0)
(0.01195023429 -0.09245602313 0)
(0.0118587096 -0.09410643825 0)
(0.01536418178 -0.09423295603 0)
(0.01554284293 -0.09092987324 0)
(0.0137926121 -0.09086767547 0)
(0.02500724082 -0.08719186461 3.435862705e-13)
(0.02452918481 -0.08905711338 3.387012892e-13)
(0.02628588398 -0.08378266565 3.184258413e-13)
(0.02701632623 -0.08281368832 3.260586245e-13)
(0.02750717503 -0.06155258935 2.423339307e-13)
(0.0265042603 -0.06153356796 2.338684801e-13)
(0.02465311794 -0.05240631274 1.993405441e-13)
(0.02570058996 -0.05267699843 2.075561945e-13)
(0.0157278048 -0.02567186693 1.015854068e-13)
(0.01478056219 -0.02500700842 9.552081348e-14)
(0.01082750155 -0.01715033882 6.561418076e-14)
(0.01166232066 -0.01782202072 7.065181773e-14)
(0.001662203866 -0.002136382226 8.493206138e-15)
(0.001351266709 -0.001800586965 6.911138328e-15)
(0.0001071603135 -0.0001358271507 5.273559367e-16)
(0.0002047333869 -0.0002502653587 9.992007222e-16)
(0 0 0)
(0 0 0)
(0 0 0)
(0 0 0)
(0 0 0)
(0 0 0)
(0 0 0)
(0 0 0)
(0 0 0)
(0 0 0)
(0 0 0)
(0 0 0)
(0 0 0)
(0 0 0)
(0 0 0)
(0 0 0)
(0 0 0)
(0 0 0)
(0 0 0)
(0 0 0)
(0 0 0)
(0 0 0)
(0 0 0)
(0 0 0)
(0 0 0)
(0 0 0)
(0 0 0)
(0 0 0)
(-0.002069722281 -0.00290695797 9.492406861e-15)
(-0.002339040581 -0.003185591247 1.074140776e-14)
(-0.002499423465 -0.003297906488 1.146305273e-14)
(-0.01009682669 -0.01454973511 5.075107001e-14)
(-0.009772791178 -0.01453648326 4.911349105e-14)
(-0.0145968796 -0.02273694938 7.695233339e-14)
(-0.01498455039 -0.02261301205 7.902012378e-14)
(-0.02975616971 -0.05227091355 1.836447661e-13)
(-0.02928805074 -0.05308526151 1.806194083e-13)
(-0.03321082713 -0.0637039462 2.170486013e-13)
(-0.03366272333 -0.0625940501 2.202404925e-13)
(-0.03926336481 -0.08907266451 3.140265825e-13)
(-0.03898811892 -0.09114845442 3.11181636e-13)
(-0.03861130376 -0.09761539833 3.332056853e-13)
(-0.03879145285 -0.09520974358 3.355926648e-13)
(-0.03113307374 -0.1023401442 0)
(-0.03126102732 -0.105656834 0)
(-0.02772985055 -0.1057930622 0)
(-0.02766588862 -0.1041351025 0)
(-0.02760189697 -0.1024763724 0)
(-0.01700852076 -0.1028850511 0)
(-0.01707251241 -0.1045437812 0)
(-0.01530700107 -0.1046118924 0)
(-0.01527499038 -0.1037821421 0)
(-0.01524300942 -0.1029531623 0)
(-0.01612576509 -0.1029191067 0)
(-0.002884047354 -0.103429955 0)
(-0.002916026843 -0.1042589348 0)
(-0.002948036792 -0.1050886851 0)
(-0.001182471203 -0.1051567984 0)
(-0.001118479551 -0.1034980683 0)
(0.01124043112 -0.103974859 0)
(0.01111247753 -0.1072915488 0)
(0.01459719391 -0.1070149232 3.582967256e-13)
(0.01476180457 -0.1040283329 3.593930709e-13)
(0.0231402259 -0.09420726981 3.244071678e-13)
(0.0225374504 -0.09508695215 3.174821517e-13)
(0.02381190995 -0.08777300684 2.92932345e-13)
(0.02452853689 -0.08735623504 3.006761506e-13)
(0.02305840931 -0.05929966178 2.042255254e-13)
(0.02212193692 -0.05875312791 1.961902862e-13)
(0.0197866206 -0.04801088926 1.604549826e-13)
(0.02113823157 -0.04972176674 1.713629239e-13)
(0.01115941324 -0.02085550737 7.215061881e-14)
(0.009728057101 -0.01874672231 6.289413435e-14)
(0.006618442668 -0.01194631805 4.012068455e-14)
(0.007540615289 -0.01319383385 4.569955525e-14)
(0.0002782521062 -0.0004101977795 1.429412144e-15)
(0.0001256878178 -0.0001912576053 6.383782392e-16)
(0 0 0)
(0 0 0)
(0 0 0)
(0 0 0)
(0 0 0)
(0 0 0)
(0 0 0)
(0 0 0)
(0 0 0)
(0 0 0)
(0 0 0)
(0 0 0)
(0 0 0)
(0 0 0)
(0 0 0)
(0 0 0)
(0 0 0)
(0 0 0)
(0 0 0)
(0 0 0)
(0 0 0)
(0 0 0)
(0 0 0)
(0 0 0)
(0 0 0)
(0 0 0)
(0 0 0)
(0 0 0)
(0 0 0)
(0 0 0)
(-0.0004832965443 -0.000761560144 2.220446049e-15)
(-0.0008770118097 -0.001344371518 4.024558464e-15)
(-0.001303059011 -0.001941597931 5.981326545e-15)
(-0.007486983524 -0.0121942613 3.765043832e-14)
(-0.00639557378 -0.01072208564 3.216871214e-14)
(-0.01043032195 -0.01832100419 5.503930645e-14)
(-0.01180140477 -0.02013420148 6.224187832e-14)
(-0.02567013342 -0.0509570338 1.582622922e-13)
(-0.02379272147 -0.04864496484 1.467714839e-13)
(-0.02768682876 -0.05988029878 1.808969641e-13)
(-0.02959940333 -0.06215577541 1.932898286e-13)
(-0.03627577136 -0.09258824089 2.885192085e-13)
(-0.03468169939 -0.09111309887 2.758487883e-13)
(-0.03509937207 -0.09952024747 3.013422845e-13)
(-0.03646082218 -0.1004831705 3.131384041e-13)
(-0.03127323189 -0.1143730597 3.55784846e-13)
(-0.03083359176 -0.1157322977 3.499145418e-13)
(-0.02797789582 -0.1180630266 3.566175133e-13)
(-0.02809537851 -0.1156764805 3.594624598e-13)
(-0.01752039453 -0.1161533511 0)
(-0.01764837783 -0.1194708113 0)
(-0.01411727811 -0.1196070366 0)
(-0.01398929481 -0.1162895764 0)
(-0.01575488319 -0.1162214623 0)
(-0.003395918592 -0.1166982551 0)
(-0.003523901896 -0.1200157153 0)
(7.220940302e-06 -0.1201519414 0)
(0.0001352042441 -0.1168344812 0)
(0.01065835774 -0.1161945041 3.564648576e-13)
(0.01041405685 -0.1176182669 3.509137425e-13)
(0.01351996875 -0.1141247571 3.401723347e-13)
(0.01389750095 -0.1136546168 3.483047184e-13)
(0.02059684075 -0.09536119432 2.91627833e-13)
(0.01970843336 -0.09378850273 2.790268017e-13)
(0.02029807713 -0.08410974353 2.501887586e-13)
(0.02134270412 -0.08608684907 2.632061236e-13)
(0.01831349733 -0.05303310352 1.62328484e-13)
(0.01702118891 -0.05061303156 1.507127756e-13)
(0.01449399443 -0.03936580894 1.173228181e-13)
(0.01576704551 -0.04170201221 1.277589146e-13)
(0.006230894484 -0.01309342226 4.024558464e-14)