/*--------------------------------*- C++ -*----------------------------------*\
| =========                 |                                                 |
| \\      /  F ield         | OpenFOAM: The Open Source CFD Toolbox           |
|  \\    /   O peration     | Version:  v1912                                 |
|   \\  /    A nd           | Website:  www.openfoam.com                      |
|    \\/     M anipulation  |                                                 |
\*---------------------------------------------------------------------------*/
FoamFile
{
    version     2.0;
    format      ascii;
    class       volScalarField;
    location    "1.35";
    object      k;
}
// * * * * * * * * * * * * * * * * * * * * * * * * * * * * * * * * * * * * * //

dimensions      [0 2 -2 0 0 0 0];


internalField   nonuniform List<scalar> 
12556
(
36.90869691
36.90875009
36.90883108
36.90897904
36.95446399
36.9551344
36.95631692
36.95887414
36.96378629
36.97191096
36.98303721
36.99371417
37.00119387
36.99965442
36.9895964
36.97884678
36.96915511
36.9621662
36.95831635
36.95601553
36.90990288
36.90908721
36.90868337
36.90842496
36.72748318
36.72771078
36.72802961
36.72870209
36.77446119
36.777811
36.784555
36.81674482
36.83928954
36.8768917
36.9291388
36.98629454
37.01336011
37.01071336
36.97628958
36.9227323
36.87447161
36.8395582
36.79655002
36.78329227
36.73195213
36.72926949
36.7279626
36.7272542
36.54746326
36.54801283
36.5488084
36.55034919
36.59750967
36.60577568
36.62163605
36.66893269
36.72279846
36.81057672
36.92133419
37.01334965
37.06098912
37.05774139
37.00472813
36.91162922
36.80467512
36.72482008
36.64950806
36.61932799
36.55929357
36.5529789
36.5499965
36.54877832
36.36883901
36.36949579
36.37092087
36.37441561
36.42403708
36.44093068
36.47510003
36.55065661
36.66184815
36.81919689
36.98123252
37.11863665
37.19310373
37.1873724
37.10650771
36.96785287
36.80800449
36.65800849
36.53023167
36.47116917
36.39330352
36.38128773
36.37543071
36.37313236
36.19205701
36.19306416
36.1956873
36.20239814
36.25677967
36.28676466
36.35123678
36.47340481
36.66703657
36.89450265
37.14318047
37.37233915
37.50582613
37.48856074
37.34465119
37.11986347
36.87959118
36.66233563
36.45367507
36.34425733
36.23691419
36.21418568
36.20367499
36.19956702
36.01670052
36.01822046
36.02265352
36.03409923
36.09700234
36.14745183
36.25865146
36.44944615
36.71668551
37.05105865
37.4676842
37.93895017
38.25928345
38.17745961
37.81923581
37.42043575
37.04066522
36.7205826
36.42828762
36.24393874
36.09236365
36.05166405
36.03403551
36.02710983
35.84370596
35.84626644
35.85378658
35.87179794
35.94609015
36.02380498
36.19820895
36.45938465
36.81976146
37.31078855
38.04149983
39.26087122
40.031627
39.86095779
38.7022459
37.91822113
37.30604143
36.83800288
36.44385254
36.17533164
35.95877386
35.894197
35.86623608
35.8553166
35.6738833
35.67776957
35.68913288
35.71640088
35.80586305
35.91763495
36.16588385
36.49166926
36.96335199
37.65180909
38.84852334
41.56234596
42.60807503
40.14117909
38.6347893
37.67349138
37.01040339
36.48839844
36.13484363
35.83880861
35.7430565
35.70116818
35.68500383
35.5094902
35.51549963
35.53245592
35.57242583
35.67566745
35.82930475
36.15110796
36.54121862
37.12634885
38.00207423
39.58923459
43.56266088
47.14500444
41.91644647
39.49901537
38.11641635
37.22351608
36.55441689
36.11690134
35.73280497
35.60021576
35.54134194
35.51877649
35.35181957
35.36009851
35.38296789
35.43642916
35.55697044
35.75643164
36.14676055
36.60014264
37.28788053
38.30932511
40.12179307
44.45819187
50.3584133
43.53507286
40.36237637
38.57287987
37.4528692
36.63463075
36.11677837
35.64223866
35.46900787
35.39050889
35.36039034
35.20314326
35.21456796
35.24505489
35.31491608
35.45067901
35.69588186
36.14879752
36.66168798
37.43847354
38.57505303
40.54963005
44.62275045
51.95852994
44.73917737
41.0929786
38.98620587
37.67325583
36.71800769
36.12560438
35.5660103
35.35144427
35.25234373
35.21385679
35.06322824
35.07741534
35.11466641
35.19997956
35.35477574
35.64367304
36.15443163
36.72205366
37.5785989
38.81830771
40.95266377
44.23545493
52.6491016
45.52188485
41.64028154
39.32235793
37.86584814
36.79519571
36.13659721
35.50448728
35.24840869
35.12872686
35.08151282
34.93285544
34.95062093
34.99731715
35.09981384
35.26624441
35.59459744
36.15396161
36.77949193
37.70806698
39.05081975
41.38989084
43.67605455
47.06621236
52.46320405
45.96457264
42.00297002
39.56196389
38.01667628
36.85890237
36.14532846
35.45030855
35.15889647
35.01929415
34.9637718
34.80979005
34.83078296
34.88572848
35.00181553
35.19319392
35.56940201
36.18014368
36.85220476
37.85477962
39.3207767
41.88912051
42.29019271
56.10319253
52.43979697
46.14299529
42.17777087
39.7118647
38.1243512
36.90630236
36.14643236
35.39865669
35.07882214
34.9213466
34.85822207
34.69290903
34.71689743
34.77921641
34.90763806
35.11514604
35.52348916
36.17543512
36.90664123
37.98350709
39.55487911
42.20358269
38.52945304
55.80632019
51.88382501
45.99957158
42.1944332
39.77486551
38.18883026
36.93106434
36.13300251
35.34672027
35.00381103
34.83096881
34.76141384
34.57881134
34.60552508
34.67415875
34.81377981
35.03638916
35.46955192
36.15430006
36.95245239
38.11978767
39.81174169
42.36198983
33.3686063
53.86016758
50.73357215
45.58314475
42.07069267
39.76526563
38.20461466
36.92812286
36.10067444
35.28704352
34.9272962
34.74326181
34.66836836
34.46662023
34.49567495
34.56923204
34.71800116
34.95345343
35.40467
36.11283645
36.96040708
38.23776391
40.0626674
42.07190039
26.75622552
52.21914836
49.36900488
44.92958266
41.83491901
39.71144468
38.18198873
36.8910196
36.0487504
35.21919232
34.84829692
34.6547526
34.57543614
34.35262784
34.38364193
34.46105054
34.61750631
34.86403318
35.32719605
36.05014345
36.92047244
38.26907561
40.16416799
41.2994705
24.59513106
50.72551697
48.08875644
44.27506715
41.55345706
39.58523575
38.1001196
36.81440381
35.97196663
35.13681904
34.75945811
34.56124741
34.47857847
34.2378191
34.27036737
34.3503891
34.5122325
34.7668579
35.23698933
35.9673443
36.84876415
38.20230286
40.04822094
40.1238698
24.20101792
49.33731047
47.08678074
43.76696086
41.27792135
39.40801466
37.97397536
36.71006429
35.87545902
35.04238552
34.66246127
34.46143888
34.37681588
34.11844547
34.1521672
34.23412566
34.40035859
34.66169453
35.13499677
35.86710403
36.75203814
38.0946734
39.80480333
39.09741557
23.28358059
48.03559383
46.34199115
43.33102031
40.99001657
39.20509009
37.81980048
36.58493537
35.76231993
34.93584078
34.55575466
34.35332338
34.26738796
33.99800032
34.03252511
34.11549819
34.2839416
34.54893621
35.02270859
35.75261475
36.63599517
37.95817713
39.51192534
38.13391561
22.43066306
46.80842736
45.6480111
42.91908933
40.70352465
38.99088616
37.6491336
36.44451361
35.6358902
34.8198682
34.44187933
34.23912498
34.15239887
33.87171431
33.9067907
33.9905903
34.16113765
34.42955728
34.90188213
35.62697978
36.50543176
37.79998233
39.18205208
37.23416585
21.76543923
45.65080723
44.99268556
42.52905709
40.42514468
38.77363438
37.46970578
36.29336879
35.49939836
34.69464427
34.3192912
34.11658074
34.02936823
33.74611013
33.78147626
33.86542509
34.03603328
34.30463531
34.77428906
35.49288871
36.36414013
37.62537745
38.82592134
36.40322653
21.2102438
44.55029601
44.36943915
42.15639846
40.15728779
38.55810105
37.28652964
36.13537005
35.3556546
34.56413058
34.19266444
33.99042708
33.90294633
33.61370427
33.64924496
33.73356052
33.90523268
34.17549627
34.64161433
35.35263246
36.21507873
37.43819901
38.45618296
35.64381252
20.71646948
43.49344251
43.7723835
41.79766992
39.89963812
38.34684459
37.10281645
35.97353628
35.20705282
34.42702194
34.05862487
33.85661632
33.7689005
33.48516864
33.520714
33.60478354
33.77523318
34.04312493
34.50531983
35.2081544
36.06058279
37.24092813
38.08354725
34.95363441
20.26338883
42.47786813
43.19655499
41.45053552
39.6509041
38.14098452
36.92062191
35.81007416
35.05542997
34.28865583
33.92446401
33.72291849
33.63502558
33.34795935
33.38349656
33.46782902
33.63923369
33.90865804
34.366594
35.06101298
35.90232784
37.03516698
37.71168663
34.32849034
19.83735729
41.49777201
42.63808065
41.11315035
39.4097695
37.94074129
36.74113346
35.64650588
34.9022663
34.14476837
33.78290137
33.581244
33.49305686
33.2193052
33.25471915
33.33863177
33.50790402
33.77263881
34.22638148
34.91238376
35.7414445
36.82245466
37.34405432
33.76364976
19.43642993
40.54557932
42.09395917
40.78401575
39.17517139
37.74593021
36.5649864
35.48387984
34.74856454
34.00370225
33.64593904
33.44449275
33.35602547
33.07806737
33.11340497
33.19761545
33.36829531
33.63602491
34.08540136
34.7630747
35.5786285
36.60445737
36.98288891
33.25142486
19.06831153
39.62080335
41.56233462
40.46179263
38.94618445
37.55615936
36.39243532
35.32286131
34.59520797
33.85592352
33.4991997
33.29717391
33.20823197
32.95231451
32.98749474
33.07122303
33.23893144
33.49887576
33.94421564
34.61365929
35.41436561
36.38297914
36.62988964
32.78487875
18.73528564
38.72491417
41.04110914
40.14531843
38.7220091
37.37098921
36.22353919
35.16388404
34.44260936
33.7162686
33.36365018
33.16157898
33.07220121
32.80666084
32.84175513
32.92583128
33.09571762
33.36220909
33.80328246
34.46453268
35.24904204
36.15958846
36.28596824
32.35940496
18.44152292
37.85600629
40.52955864
39.83354157
38.50191011
37.18995178
36.0582171
35.00721123
34.29139574
33.56523216
33.21208354
33.00900751
32.91894936
32.68728468
32.72224064
32.80588005
32.97204313
33.22554696
33.66296081
34.31599715
35.08301287
35.93554588
35.95165544
31.97092719
18.19210635
37.01278302
40.0271814
39.52559876
38.28524398
37.01259795
35.89633101
34.85301327
34.14156517
33.4312175
33.0823893
32.87904115
32.78841205
32.53523845
32.57012788
32.65409421
32.82311992
33.09030317
33.52359352
34.16831484
34.91663529
35.71196768
35.62716156
31.61435556
17.9849853
36.19470005
39.53400438
39.2208631
38.07148177
36.83851844
35.73768964
34.70139581
33.99379371
33.27482463
32.92392339
32.7192728
32.62776378
32.42681405
32.46160857
32.54532875
32.71051415
32.95527707
33.38549719
34.02177394
34.75023593
35.48964805
35.31241111
31.2848436
17.82259142
35.40184145
39.04815058
38.91889898
37.86016867
36.66732027
35.58205712
34.55247903
33.84768851
33.15261681
32.80597433
32.60080184
32.5086541
32.26423147
32.298992
32.38290699
32.55036651
32.82305311
33.24926977
33.8768205
34.58416565
35.26916814
35.00709263
30.97749572
17.70585029
34.63563493
38.5687253
38.61949461
37.65096231
36.49868412
35.42929197
34.40663596
33.70461206
32.98421184
32.63524323
32.42863752
32.33540746
32.17307316
32.20781023
32.29176935
32.45785514
32.6919534
33.11606047
33.73476202
34.41871894
35.05088042
34.71074209
30.6879031
17.63704036
33.89900497
38.09675699
38.3225631
37.44356166
36.3323081
35.27915291
34.26506862
33.56456151
32.88509271
32.53766805
32.33027796
32.23641584
31.96556776
32.0003315
32.08459004
32.25224032
32.56881886
32.98893211
33.60016814
34.25458524
34.83590816
34.42515878
30.41534702
17.61662311
33.19782624
37.63694863
38.03001752
37.23843151
36.1682634
35.13155304
34.1317039
33.43309584
32.66851169
32.31887816
32.10948005
32.01411031
43.40507916
47.65491535
42.97589592
44.38344037
51.21820088
48.1033692
44.64591768
52.90680622
51.51843454
44.299064
53.59251702
53.02047311
43.71479018
42.62513914
46.06798878
53.89743485
53.63259125
42.7620502
52.85568425
43.02089934
55.72036359
54.38599663
53.92156504
41.21067477
39.98979524
42.50384646
39.78215389
51.12903588
44.54268678
46.63454301
42.33805444
40.69034395
40.00306891
43.45107623
42.66333678
55.52949948
56.97992267
50.06113714
44.36191752
42.88115604
40.44935636
43.97448037
43.5416448
44.61885711
46.34866894
47.29079705
54.61389687
54.05923959
51.828565
45.83158829
44.78420186
40.86451873
44.0019895
44.00010019
44.5091954
42.85362883
44.76216212
55.9693569
55.20582459
41.29035089
43.79372215
43.98874351
44.00878979
38.26802224
40.61014221
39.60641015
56.7285662
56.49739611
41.79754884
43.2844468
43.75233998
43.36052624
32.52182632
35.11170327
41.30890337
54.38513944
53.21343523
47.59276915
49.35202097
43.62917296
47.19458164
56.86539134
51.45716374
45.60825525
50.51024093
55.51638411
47.40867912
48.11371492
44.06506772
48.74111185
47.47730247
49.46058255
48.88685593
54.13206538
55.34241802
49.85014794
56.26585808
55.5216014
55.7314076
56.34692909
49.60825202
44.94603234
46.18898291
44.64841779
45.85397697
44.08982806
47.39520593
45.96326391
55.06070453
54.69691452
52.44210341
56.03650835
56.27401219
55.48581394
55.99166616
52.25516945
40.74016949
42.73478485
44.46225852
41.81292034
39.3788129
43.97122741
41.94728662
56.45838286
56.05211954
35.26204362
38.09856516
43.97546863
40.4327199
36.2304478
33.18607279
39.23874973
36.43146696
41.22836407
56.99947109
56.75691069
39.51481029
40.08940587
32.46311139
43.31317831
49.61505371
32.0243377
76.28382209
33.10192682
32.03381842
48.91003779
39.42631892
42.51469816
40.89817748
42.5258859
46.21570192
43.22520773
61.86594067
47.17595896
43.96433019
48.19293886
48.17188135
46.77779615
52.6093011
46.7597539
46.10720283
53.71461427
49.75063692
48.27137948
52.39275101
57.3038347
57.08804577
48.01710173
46.52326671
42.7880853
54.84975249
45.63842302
52.883396
44.15583328
49.57850916
44.99175172
47.84767606
44.0242082
53.38639752
56.44858349
56.57251492
56.29694789
56.43776296
53.31692008
39.6636089
47.43790166
45.3069428
41.57720556
41.17218997
43.18246289
43.99723278
41.657363
41.61856255
66.32303909
48.20037826
61.46643453
46.29241967
58.07132083
47.36336892
56.84072486
56.9493995
54.26680163
54.23113735
40.93226615
44.46049161
55.68874366
41.33201104
42.69479212
45.95033842
41.46898051
55.59401917
39.54020063
43.5357475
43.19268717
52.53258235
50.55700875
48.64279442
34.1656353
41.3969977
40.90937756
42.0158481
41.57155337
34.30994406
59.02701786
55.3024479
48.48638122
55.60971422
56.59699057
51.35883982
55.28221352
48.72543736
45.2680203
50.56209261
45.03601849
55.84806435
51.31143717
45.8297782
53.56697779
58.84855614
54.85852683
54.46869899
48.14656141
44.28284916
48.06552763
49.36260193
47.62032082
50.82098165
44.67053857
47.20026875
49.26318948
54.82769453
54.9367796
55.89756233
53.79157279
53.18394216
54.39815555
53.9609383
55.840286
56.61288555
51.83881174
50.81202729
52.95229971
52.14225788
56.64864424
45.05151041
44.93745904
46.77376163
46.68332136
55.2077889
46.52972276
55.14480768
40.85150729
40.68556995
43.02119273
42.88379377
43.17017811
47.06353348
56.25661913
43.34370753
40.95257094
37.0061584
42.57500789
42.16152493
43.0743582
42.70442323
37.15072496
39.45387751
35.37098922
35.24232315
38.25849168
38.11936466
54.9805745
40.69081823
54.43276657
53.08133481
40.72232011
40.26162522
32.10460502
33.12555643
41.47942422
41.60009473
32.6884815
68.90045632
41.98904005
60.36772784
32.61254914
46.28610739
44.89319699
40.57504218
60.85903616
39.80259491
40.26720339
42.13757504
42.82461673
43.18928639
41.79050708
34.03696652
41.67262998
56.30593404
53.81472526
54.31952481
53.73142861
40.58969683
43.61870337
55.65449425
54.79593588
41.40872961
57.43596988
57.36116597
52.9053623
43.29308965
42.80048855
45.21564535
46.29920449
43.01735867
43.3163699
56.16625077
59.10293822
58.013676
57.13580631
54.39376816
45.27034776
45.63013448
48.31932216
47.60223472
53.96116204
43.70537079
45.05973672
44.80555151
45.37611205
45.14132651
43.84411514
43.96133214
43.64418653
39.67623576
32.90730288
38.00997592
37.59261513
68.51819348
50.5927176
53.63563936
56.20710403
60.24114668
59.37807873
52.9670042
48.71805346
47.27228113
50.4292785
49.17236635
53.33020552
54.3930824
49.50044969
48.65584872
55.04153407
45.50356265
45.65432391
45.44991094
40.53297625
41.03285907
44.45993901
45.86576941
46.19625762
54.88750216
56.15221694
55.20185516
55.10434875
55.5325476
54.8066188
54.51399496
55.06333268
54.87979898
55.54794355
41.75076303
44.35354514
44.06225384
44.71785641
44.4471146
41.88450026
41.41054825
36.13267822
36.45768419
33.66673599
33.89016201
39.85667813
43.57517778
39.73816043
40.39100463
36.58855991
36.95655694
42.34887779
56.30695246
47.6497278
51.4253028
59.00242908
39.54060832
35.82138369
34.04851983
38.82194078
33.35234008
33.59265652
32.84010233
37.37283517
49.36090544
38.87103661
38.96780331
38.17311189
37.45714464
37.05918647
32.33089691
40.59169961
41.62792806
51.5219
32.00686036
87.50735379
43.18832682
41.58610771
46.38049137
32.93111997
32.12218983
55.50008941
54.65456329
54.41086231
46.95411377
46.91849548
40.19385004
39.80744378
53.99332932
52.88027492
52.77676136
48.43565263
58.03432045
48.55860169
58.50866455
49.32458877
43.29968332
40.64659199
45.79135168
46.33245606
50.36978805
47.06677747
41.05657594
40.53996901
48.73247701
59.25080312
41.09797936
46.25798146
65.70830967
39.60675033
40.3922393
39.67063012
39.57858498
57.96899906
66.80009297
55.09597344
51.50512274
58.89559314
55.88962627
50.81372195
47.81714665
52.96407467
56.00005499
55.31331888
56.41091349
57.12353608
57.660498
56.45137819
46.18170675
45.45183896
54.33210046
46.82910028
47.12787313
45.18724336
46.56972082
47.25155879
54.01010968
47.4840903
46.46085907
41.30378355
41.61996368
41.42492471
51.20070634
50.3417583
43.06141137
48.51825147
47.09939095
49.99763085
48.97848404
42.43999668
41.77763806
41.92513521
40.61361346
38.59747925
38.13460288
33.25987265
34.64980155
39.11291916
38.72825966
57.6659132
57.11412532
56.68316865
51.44064999
52.00586242
50.4274555
51.2136566
56.98406849
53.74876373
52.2322566
52.04834929
52.13290991
52.24951389
54.02592097
54.23364226
49.2139236
50.16213329
57.24287366
57.68219708
59.8711548
59.41548464
55.88626774
61.09215394
61.8861272
62.12961575
60.74719128
59.812029
62.11245621
60.60861261
53.1930778
58.75123809
59.92660186
42.9026786
48.22591772
47.36220522
49.04017376
48.45973041
43.47561162
46.16453464
45.57069547
47.06169689
46.36899791
48.9025584
51.27013912
50.73434556
51.91713788
51.44182965
49.36091546
45.68592267
49.80717576
49.2356993
50.55120601
49.99509189
46.05472306
50.64634446
49.6813497
54.49692508
55.05437437
52.14245634
51.01833091
40.05851411
39.56940891
40.90884641
40.23031516
38.79214039
38.31671099
39.41486347
38.93384269
44.62153082
44.06093975
45.37902447
44.8135371
42.94315417
41.34873276
43.8565152
43.29417314
44.79813268
44.10388544
46.68538604
45.27353186
47.01750159
43.95062761
44.80777828
43.91176696
43.70749349
35.69209065
36.00491245
41.27529199
34.05534509
33.84195353
34.3529929
34.14366718
33.73340221
40.06083577
33.97774701
35.4001634
37.78098995
39.44568253
43.44114316
37.41180339
35.2893817
38.21931309
37.48893087
34.71925681
34.45064699
35.14187882
34.82489838
42.48210051
37.08821818
37.53173086
50.35041916
41.90875715
49.53163768
45.74124589
49.2762061
41.5046312
61.24726662
39.43589597
59.05475456
52.27169943
35.7042815
34.63193137
33.06598221
33.28196928
38.68290148
37.61217372
32.86143433
33.01040485
54.72356878
32.27723105
36.87190149
36.19802743
69.80724432
77.19174024
31.9390489
81.16731422
60.51492851
41.12187046
32.86603141
68.59312352
44.858349
79.0271282
46.83807395
32.23760922
42.18323975
40.18393544
38.93562942
52.85190413
52.45657255
53.08245971
47.28066009
46.92163005
52.78773125
41.02401395
40.41196057
39.52580152
56.58216197
56.5329235
53.77141911
45.18481912
44.62875068
47.58715002
52.86056616
45.11924942
45.25248106
41.12651616
41.46298583
43.80468617
49.77515442
53.29908264
56.00379953
46.78590433
46.03600874
45.92436118
46.12497411
46.06514681
46.91956605
44.3180721
42.54538431
40.66304899
52.05794081
53.55719984
56.63533963
39.60226754
39.23416046
34.76602224
56.78867866
58.47746085
52.79831454
45.87773727
45.71555906
45.68098455
45.51153991
42.54908407
43.1774073
43.48233584
44.4185046
46.29032032
36.07628225
40.10826068
39.72321983
46.27204004
44.2124562
39.97063955
32.40398003
32.43806665
33.31824583
42.76976695
55.92367078
50.35073586
39.5803746
47.04140199
44.86848171
32.0079937
33.04270892
32.3629206
32.38595066
32.05052959
62.40615594
46.65174041
41.52645863
42.79561201
53.03723176
40.16474589
40.74964192
50.00439375
54.11704764
46.77058984
45.21964005
47.16406182
46.35077944
40.40522172
40.11173073
62.62359972
64.94568554
66.60997591
56.1656183
63.64739681
42.75344515
43.01319725
45.68636845
63.47982979
58.90023511
56.44824766
66.4418217
63.74080422
40.97887543
42.88179528
42.11167312
47.94774048
47.33027086
42.81955662
52.25380891
51.4987523
41.5689814
46.14164549
42.07313358
42.29931949
45.01674593
40.07071712
40.56747468
58.72769033
59.49616337
55.94720238
55.98788346
54.88147598
54.72263284
51.92307414
52.9169177
52.53922449
54.54443666
54.32633467
54.85195524
47.76026151
48.90490894
53.7136295
55.04961543
60.4184306
56.81206355
60.59441133
60.95129323
58.23728371
41.28538458
43.4402465
42.9188182
47.06196817
46.82799586
44.04597861
40.83799587
40.60058588
42.48660753
42.14166683
48.04196756
50.19865556
49.87218422
52.18832519
51.85203158
50.31520388
44.96596744
47.66862501
47.39267853
49.54370648
49.22356582
46.80984205
41.86440454
42.37337465
45.40045238
44.57685854
41.19413212
41.69813759
45.34506022
45.84228624
47.04650001
39.21369064
39.06800716
40.39234881
40.20461405
36.95993721
38.84819162
38.72702729
46.38859774
44.64996461
45.17244801
46.56653721
46.4107867
42.65351235
43.00231138
46.42286382
46.4515682
46.92492979
54.94953599
46.3749628
47.73372546
40.58947563
40.23169838
36.40877023
37.54685074
41.01928713
40.69657312
33.47042081
33.5364365
35.4815402
35.10663596
33.30270033
33.39388001
55.1574647
32.20618494
33.06699538
32.42639001
109.5741362
32.38040847
41.1753027
55.44199659
49.64739567
32.13657468
32.16810737
32.73791864
67.52006998
73.07729304
70.66700213
53.95781062
32.56137775
32.09115424
32.11536807
41.49189334
40.62282244
39.80801538
52.7423723
52.1180654
44.04798066
42.8202732
40.0480516
55.11241237
54.83854979
58.9895125
41.29478065
51.14065557
47.03620072
51.39823973
50.50268787
42.25680238
44.20408018
44.92290289
49.08180985
53.98291434
54.34577642
53.42273724
53.70617729
58.78972854
57.93740107
58.19761922
57.3912614
57.66294387
58.37388557
48.05405192
48.16496263
48.39828923
47.79240505
47.93467163
47.95899746
59.9019536
58.76817462
58.76849833
58.44510294
58.65154654
59.64368932
49.07894295
49.19342216
49.46087803
48.66068241
48.91563329
48.84332362
52.71686717
52.8982326
52.02010288
52.21456432
36.22043057
38.46485985
38.33757885
33.75514915
35.20658344
35.11100753
35.51177259
35.32102281
33.82710796
56.34541628
57.62872523
51.17662744
57.2163047
32.78973546
32.74914639
32.89077684
32.84676148
32.5421969
33.57009229
32.48435748
32.61160201
33.43713613
34.86878675
34.77983713
35.03114159
34.94854783
33.51082371
33.01198751
32.94417481
33.69267912
33.16812678
32.94836874
56.95934867
55.15634188
45.07037765
57.52257178
34.41295692
33.59316748
39.54726941
32.37180786
33.92231339
33.78084844
31.98392489
85.73425942
87.3560955
62.78360931
76.8623961
66.39832237
32.29255064
32.33226772
32.99131368
32.08222785
59.52221877
65.08345232
59.82446299
61.72478783
57.78347392
50.04108917
63.74888258
58.54181746
47.26237593
47.30361298
54.07280061
44.46770894
47.92995029
53.75651027
51.01697818
54.9990613
50.25961968
53.35030343
59.91189865
61.46394788
54.25882174
58.76094681
62.43698935
50.15036956
51.36446789
49.56172078
53.55489715
62.18239829
62.2813895
60.23416595
42.25537246
54.75460923
48.92790603
60.88326162
61.91576599
44.17236835
46.84939
50.33129224
64.43012711
52.73310715
42.78331129
44.2926014
62.7509592
59.35514814
63.13165388
57.75191724
60.40214002
62.91666412
64.23658069
63.57974993
55.47209102
55.6367706
55.912667
54.99324115
55.16363657
55.19147363
57.23494366
56.82564723
57.10554325
56.23827431
56.51846719
56.84307637
45.93194777
48.56634705
48.54956416
46.90337227
47.12899291
45.66571397
46.94591542
46.68203385
46.38932703
47.63128242
48.00999236
46.984884
47.91633898
47.74618677
48.47359683
48.24759289
46.68803221
47.36403532
44.75326059
41.08874556
48.65725054
48.55760625
48.32364829
42.14467551
47.53844922
47.10647318
42.01842752
41.98308185
44.27958394
58.24762021
56.47693833
53.6890314
53.31236307
52.46513486
54.54355926
54.14093507
53.87735944
61.63732655
61.30958156
56.34960016
61.91658383
64.08317604
58.09200016
61.43861009
61.61303384
59.73808038
58.49035171
58.39489403
58.61561494
58.61349008
59.58121225
61.47916755
61.62848775
60.55108927
63.50670586
63.45769638
63.32212058
63.46240796
60.38416769
62.24308267
62.9540422
64.81219294
62.25482163
45.69674226
45.53859592
42.85000242
43.63214018
46.4520917
46.28663707
41.32420474
41.07156838
41.85189727
41.57924542
50.85499623
50.52413934
48.45557908
49.8333844
51.51998694
51.18738213
48.28365213
47.98981821
45.35830857
46.40930314
48.90186683
48.59585826
50.40001576
50.32028603
50.6104433
49.74438006
50.02953409
49.99818764
51.70603719
51.39485775
51.59845674
50.90275781
51.16854308
51.42337675
39.88965672
37.11030164
37.26076412
36.83812678
36.97850299
39.73066882
40.62786364
37.75668923
37.98074897
37.40846767
37.57597868
40.41701594
38.62173245
36.04175755
36.18593448
35.80813782
35.94918405
38.49728581
39.25261405
36.5671154
36.70991223
36.29528012
36.44377826
39.10135541
39.59557169
39.42851398
44.43622516
42.39654149
42.58373755
42.00934103
42.17999476
44.24064941
39.99018938
39.8071518
38.07980178
37.95576792
42.67570904
40.68321634
40.75058251
38.31105335
38.77842533
41.98365668
43.68784596
41.63536925
41.77661085
41.25524492
41.35717492
43.45496894
38.49143143
38.39573607
45.93003949
46.012256
46.55320437
43.49248811
44.46319168
44.18797679
46.51322875
46.63839269
46.61458317
46.65759447
44.51935041
43.72825478
44.88636108
44.16211439
46.16928872
46.09956154
43.64949752
35.7645035
37.90060734
37.76834314
38.19090165
38.07155635
35.93161552
33.99952183
33.89881011
34.28669844
34.19580596
33.7085731
33.69030455
34.15224387
36.57330501
35.88471627
37.49671414
37.22812114
35.11731947
35.85942669
34.76887722
35.21869351
35.50577974
37.9994161
35.5784527
35.73107604
35.32609422
35.50827329
37.92107017
34.63173308
34.52910111
35.03120477
34.91996677
48.83983341
41.50351782
42.17990395
40.65045595
40.94560336
49.30048235
48.35839784
48.04643378
43.11413773
45.27588873
49.6088654
57.86245443
44.66936008
46.86091314
41.29786756
42.88014507
58.77650476
32.62626848
32.57500817
32.7068885
32.67268222
32.91283373
33.18247079
34.90571202
32.40252501
32.35480168
32.52385527
32.46158524
33.13842733
34.52007483
34.42497129
34.69642804
34.60311741
33.20188458
32.90969063
34.14046003
33.99759831
34.34112461
34.24248391
32.95488754
54.0800299
33.69648964
33.42026184
32.18716179
68.07560051
93.70126342
99.31136029
93.08223512
94.14428477
73.36436411
32.13873428
71.37814104
52.01292338
55.83355874
32.80170871
32.19254099
32.24732859
68.68785048
76.30325254
74.28849293
60.17783895
66.77092619
81.40158968
76.56472592
50.08590941
72.25417549
63.23408903
32.34590291
32.03078159
32.34846059
36.70366906
36.73477648
36.83207587
36.74774206
36.80022908
36.86542208
36.82021688
36.89385404
36.91439242
36.91738579
36.98361096
36.97101992
37.0008086
37.03743957
37.00893461
37.04352253
37.04540131
37.01430257
37.0406219
37.00832158
36.99088227
36.99272996
36.93066641
36.93691614
36.90860767
36.83633882
36.88594115
36.81633841
36.76286387
36.84732254
36.57687939
36.64176047
36.70672298
36.67020628
36.775322
36.78608792
36.81180595
36.92286005
36.89554793
36.95857961
37.05576598
36.9941937
37.08226385
37.13910971
37.05404404
37.14917947
37.15257211
37.0631816
37.14472253
37.09455991
37.02210118
37.07086489
36.98028638
36.93641659
36.94612023
36.83794952
36.82902516
36.80221057
36.69751947
36.74070019
36.48872862
36.61442712
36.62807824
36.66230516
36.8143208
36.77899776
36.86823857
37.03469527
36.94167856
37.09007262
37.24588156
37.08892361
37.29018947
37.39043691
37.18160848
37.4056877
37.41224772
37.19625329
37.39531249
37.30505441
37.13361401
37.26683869
37.12437188
37.00569264
37.07073341
36.90720666
36.84846981
36.85389031
36.70410556
36.69253095
36.45112388
36.63245849
36.61492422
36.69869564
36.92074731
36.83482118
37.00301209
37.27195336
37.08062981
37.36793172
37.66553847
37.32001121
37.75530437
37.98078683
37.48179199
38.00522157
38.00735951
37.50014121
37.93832625
37.74649613
37.39196552
37.66952766
37.41626734
37.18018963
37.32850635
37.07213663
36.9385893
36.99122504
36.76952988
36.71452488
36.4547712
36.69716034
36.64455729
36.78945661
37.11136671
36.96037456
37.23686647
37.68753025
37.35580654
37.86907197
38.55542577
37.81714183
38.81455278
39.67770475
38.19624833
39.71617615
39.49285599
38.18954962
39.15474944
38.62112585
37.91543369
38.43474799
37.92668161
37.5212103
37.77270219
37.35447193
37.13095318
37.22962647
36.89940854
36.79524212
36.48128566
36.79930661
36.71964996
36.92366957
37.37495166
37.17187647
37.5609206
38.29722389
37.82527465
38.63763973
40.60251505
38.87602998
39.91718047
40.53190622
39.55309382
41.14406104
41.21953341
40.04906614
40.64033226
39.97877988
39.515736
39.73211047
38.70627037
38.09662896
38.43573149
37.76234702
37.44518109
37.57382843
37.09578104
36.94254904
36.52739169
36.92699246
36.83023275
37.08516723
37.6704336
37.44962572
37.91762298
38.93547861
38.46622721
39.05439955
39.58477137
39.3293422
41.90515662
42.54933772
42.1115168
44.32808023
43.02786909
41.76282116
41.47236166
39.70061113
38.94200626
39.27273014
38.26880317
37.88103685
38.00139457
37.34537808
37.1544065
36.58509981
37.06051216
36.96039759
37.24846642
37.94394669
37.74174323
38.23711465
39.43524325
39.07391874
39.73857282
40.41687267
40.24157034
43.70872872
44.78616426
44.62215553
48.57081894
46.00614096
44.92028167
43.16763585
40.72744759
39.96601444
40.14594275
38.80856752
38.40515187
38.45991359
37.6193242
37.41311336
36.64659558
37.18904106
37.09324608
37.40212509
38.18469346
38.00687485
38.51161415
39.82992687
39.54050685
40.23537198
40.98443384
40.85569814
44.52217905
45.66371786
45.66915877
51.11500603
48.13968987
47.46152899
44.4842898
41.61646471
40.97366127
40.91961039
39.30655162
38.94183031
38.88854404
37.88570924
37.68754035
36.70849145
37.31008902
37.21969508
37.5451039
38.40301943
38.2405877
38.75928264
40.18834849
39.91959289
40.65622672
41.46727779
41.34311733
44.59074306
45.06543931
45.23155236
52.30691245
49.3442337
49.01044178
45.36887199