/*--------------------------------*- C++ -*----------------------------------*\
| =========                 |                                                 |
| \\      /  F ield         | OpenFOAM: The Open Source CFD Toolbox           |
|  \\    /   O peration     | Version:  v1912                                 |
|   \\  /    A nd           | Website:  www.openfoam.com                      |
|    \\/     M anipulation  |                                                 |
\*---------------------------------------------------------------------------*/
FoamFile
{
    version     2.0;
    format      ascii;
    class       pointVectorField;
    location    "1.35";
    object      pointDisplacement;
}
// * * * * * * * * * * * * * * * * * * * * * * * * * * * * * * * * * * * * * //

dimensions      [0 1 0 0 0 0 0];


internalField   nonuniform List<vector> 
26316
(
(0 0 0)
(0 0 0)
(0 0 0)
(0 0 0)
(0 0 0)
(0 0 0)
(0 0 0)
(0 0 0)
(0 0 0)
(0 0 0)
(0 0 0)
(0 0 0)
(0 0 0)
(0 0 0)
(0 0 0)
(0 0 0)
(0 0 0)
(0 0 0)
(0 0 0)
(0 0 0)
(0 0 0)
(0 0 0)
(0 0 0)
(0 0 0)
(0 0 0)
(0 0 0)
(0 0 0)
(0 0 0)
(0 0 0)
(0 0 0)
(0 0 0)
(0 0 0)
(0 0 0)
(0 0 0)
(0 0 0)
(0 0 0)
(0 0 0)
(0 0 0)
(0 0 0)
(0 0 0)
(0 0 0)
(0 0 0)
(0 0 0)
(0 0 0)
(0 0 0)
(0 0 0)
(0 0 0)
(0 0 0)
(0 0 0)
(0 0 0)
(0 0 0)
(0 0 0)
(0 0 0)
(0 0 0)
(0 0 0)
(0 0 0)
(0 0 0)
(0 0 0)
(0 0 0)
(0 0 0)
(0 0 0)
(0 0 0)
(0 0 0)
(0 0 0)
(0 0 0)
(0 0 0)
(0 0 0)
(0 0 0)
(0 0 0)
(0 0 0)
(0 0 0)
(0 0 0)
(0 0 0)
(0 0 0)
(0 0 0)
(0 0 0)
(0 0 0)
(0 0 0)
(0 0 0)
(0 0 0)
(0 0 0)
(0 0 0)
(0 0 0)
(0 0 0)
(0 0 0)
(0 0 0)
(0 0 0)
(0 0 0)
(0 0 0)
(0 0 0)
(0 0 0)
(0 0 0)
(0 0 0)
(0 0 0)
(0 0 0)
(0 0 0)
(0 0 0)
(0 0 0)
(0 0 0)
(0 0 0)
(0 0 0)
(0 0 0)
(0 0 0)
(0 0 0)
(0 0 0)
(0 0 0)
(0 0 0)
(0 0 0)
(0 0 0)
(0 0 0)
(0 0 0)
(0 0 0)
(0 0 0)
(0 0 0)
(0 0 0)
(0 0 0)
(0 0 0)
(0 0 0)
(0 0 0)
(-2.176310729e-07 -2.451313481e-07 2.775557562e-17)
(0 0 0)
(0 0 0)
(-1.204039555e-07 -2.746153042e-06 3.330669074e-16)
(5.541790969e-07 -2.333989162e-06 2.91433544e-16)
(0 0 0)
(0 0 0)
(0 0 0)
(0 0 0)
(0 0 0)
(0 0 0)
(0 0 0)
(0 0 0)
(0 0 0)
(0 0 0)
(0 0 0)
(0 0 0)
(0 0 0)
(0 0 0)
(0 0 0)
(0 0 0)
(0 0 0)
(0 0 0)
(0 0 0)
(0 0 0)
(0 0 0)
(0 0 0)
(0 0 0)
(0 0 0)
(0 0 0)
(0 0 0)
(0 0 0)
(0 0 0)
(0 0 0)
(0 0 0)
(0 0 0)
(0 0 0)
(0 0 0)
(0 0 0)
(0 0 0)
(0 0 0)
(0 0 0)
(0 0 0)
(0 0 0)
(0 0 0)
(0 0 0)
(0 0 0)
(0 0 0)
(0 0 0)
(0 0 0)
(0 0 0)
(0 0 0)
(0 0 0)
(0 0 0)
(0 0 0)
(0 0 0)
(0 0 0)
(0 0 0)
(0 0 0)
(0 0 0)
(0 0 0)
(0 0 0)
(0 0 0)
(0 0 0)
(0 0 0)
(0 0 0)
(-1.355855123e-05 -8.132945446e-06 4.857225733e-16)
(-7.804010792e-05 -5.099925273e-05 3.080868893e-15)
(-1.0203142e-06 -5.814183694e-07 4.163336342e-17)
(-0.0001482374966 -0.0001155345944 8.007483565e-15)
(-0.0003683896608 -0.0003294134415 1.99146255e-14)
(-0.000437482526 -0.0004460642774 2.69784195e-14)
(-0.000203816675 -0.0001810794898 1.254552018e-14)
(-0.0002487905811 -0.0003814486188 2.645106356e-14)
(-0.0004371967643 -0.000770451113 4.660161146e-14)
(-0.0003658554509 -0.000851339588 5.148659277e-14)
(-0.0002146325741 -0.0004340736313 3.011479954e-14)
(-1.095684823e-05 -0.000507864819 3.520794767e-14)
(-1.656165805e-05 -0.0009629195379 5.821731985e-14)
(0.0001140708853 -0.0009506913218 5.745404152e-14)
(6.783149746e-05 -0.0004996021348 3.463895837e-14)
(0.0002325691821 -0.0003831777384 2.654820808e-14)
(0.0004105208417 -0.0007737395465 4.674038934e-14)
(0.0004511100051 -0.0006761210736 4.084232952e-14)
(0.0002450221578 -0.0003207768733 2.223221607e-14)
(0.0001444946457 -0.0001170673506 8.10462808e-15)
(0.0003581996095 -0.0003326466454 2.009503675e-14)
(0.0002696759333 -0.0002222340126 1.341982081e-14)
(8.444664621e-05 -6.069756406e-05 4.191091918e-15)
(0 0 0)
(1.422269561e-05 -8.758995851e-06 5.273559367e-16)
(0 0 0)
(0 0 0)
(0 0 0)
(0 0 0)
(0 0 0)
(0 0 0)
(0 0 0)
(0 0 0)
(0 0 0)
(0 0 0)
(0 0 0)
(0 0 0)
(0 0 0)
(0 0 0)
(0 0 0)
(0 0 0)
(0 0 0)
(0 0 0)
(0 0 0)
(0 0 0)
(0 0 0)
(0 0 0)
(0 0 0)
(0 0 0)
(0 0 0)
(0 0 0)
(0 0 0)
(0 0 0)
(0 0 0)
(0 0 0)
(0 0 0)
(0 0 0)
(0 0 0)
(0 0 0)
(0 0 0)
(0 0 0)
(0 0 0)
(0 0 0)
(0 0 0)
(0 0 0)
(0 0 0)
(0 0 0)
(0 0 0)
(0 0 0)
(0 0 0)
(0 0 0)
(-3.786726181e-05 -2.585754151e-05 1.040834086e-15)
(-0.0002068838276 -0.0001505624298 6.009082121e-15)
(-4.900056062e-05 -3.264165324e-05 1.415534356e-15)
(-0.0006996739998 -0.0005809949072 2.536859611e-14)
(-0.001119483517 -0.001015773859 4.060640713e-14)
(-0.001429100817 -0.00141339307 5.653810753e-14)
(-0.0009624035983 -0.0008709522587 3.803901638e-14)
(-0.001500142246 -0.001861006268 8.136546992e-14)
(-0.001986476733 -0.002694819673 1.078859224e-13)
(-0.002001180807 -0.003099523125 1.241229342e-13)
(-0.001543519219 -0.00218554543 9.559020242e-14)
(-0.001216033632 -0.0029910335 1.308120279e-13)
(-0.001514580945 -0.004081217561 1.633970736e-13)
(-0.00120421185 -0.004304448553 1.722927356e-13)
(-0.0009748802749 -0.003177455776 1.389305337e-13)
(-2.890175106e-05 -0.003428631939 1.49769086e-13)
(-3.031956541e-05 -0.004603511906 1.840749775e-13)
(0.0003846872742 -0.004573557098 1.82798221e-13)
(0.0003085099912 -0.003402840257 1.486033518e-13)
(0.001162372955 -0.00300492212 1.310757058e-13)
(0.001456279813 -0.004100992772 1.63702385e-13)
(0.00170211734 -0.003823943973 1.526001547e-13)
(0.001346359017 -0.002774661058 1.209865541e-13)
(0.001463670094 -0.001876579423 8.179568134e-14)
(0.001942232565 -0.002717859266 1.083855228e-13)
(0.001842407549 -0.002290356697 9.134359935e-14)
(0.001351727143 -0.001539174009 6.708522626e-14)
(0.0006915685359 -0.0005893713215 2.570166302e-14)
(0.001105313038 -0.001028942792 4.103661855e-14)
(0.0007819148275 -0.0006715095659 2.679800826e-14)
(0.0004343309909 -0.0003414409139 1.489086632e-14)
(0 0 0)
(3.759051557e-05 -2.61491896e-05 1.040834086e-15)
(0 0 0)
(0 0 0)
(0 0 0)
(0 0 0)
(0 0 0)
(0 0 0)
(0 0 0)
(0 0 0)
(0 0 0)
(0 0 0)
(0 0 0)
(0 0 0)
(0 0 0)
(0 0 0)
(0 0 0)
(0 0 0)
(0 0 0)
(0 0 0)
(0 0 0)
(0 0 0)
(0 0 0)
(0 0 0)
(0 0 0)
(0 0 0)
(0 0 0)
(0 0 0)
(0 0 0)
(0 0 0)
(0 0 0)
(0 0 0)
(0 0 0)
(0 0 0)
(0 0 0)
(0 0 0)
(0 0 0)
(0 0 0)
(0 0 0)
(0 0 0)
(0 0 0)
(-1.629152113e-05 -1.256343985e-05 3.747002708e-16)
(0 0 0)
(-0.0006936881692 -0.0005938175446 1.890154699e-14)
(-0.001031165991 -0.000941334561 2.806088695e-14)
(-0.001614305417 -0.001571323536 4.6893045e-14)
(-0.001185089411 -0.001081457656 3.444466934e-14)
(-0.00271336994 -0.003089531703 9.858780459e-14)
(-0.003294090423 -0.004004722813 1.197375532e-13)
(-0.003687098813 -0.004888120767 1.462163723e-13)
(-0.003100584491 -0.003849481639 1.229016888e-13)
(-0.003542951917 -0.006041962815 1.930539062e-13)
(-0.00404134012 -0.00736120862 2.203653926e-13)
(-0.003870003663 -0.008053918454 2.411126854e-13)
(-0.003426232527 -0.00667520069 2.132877208e-13)
(-0.002384888433 -0.008107963426 2.589595205e-13)
(-0.002635547326 -0.009574361041 2.864652959e-13)
(-0.002047032369 -0.009887648318 2.95749536e-13)
(-0.00186164204 -0.00841341169 2.686323386e-13)
(-3.010604959e-05 -0.00881288143 2.810252031e-13)
(-3.073608466e-05 -0.01029081532 3.073929999e-13)
(0.000664247065 -0.01025570675 3.061717546e-13)
(0.0006047827001 -0.008776449867 2.797068133e-13)
(0.002322505722 -0.008150211023 2.593480986e-13)
(0.002571637427 -0.009624107412 2.86853874e-13)
(0.003084693731 -0.009222779302 2.74752443e-13)
(0.002769307024 -0.007763846103 2.469413563e-13)
(0.00348336134 -0.006097235656 1.937339178e-13)
(0.003978520157 -0.007424424926 2.209482597e-13)
(0.004008741245 -0.006650312268 1.978694986e-13)
(0.003471135806 -0.005400725198 1.715849685e-13)
(0.002667276495 -0.003103993845 9.861556016e-14)
(0.003321674972 -0.004117623943 1.223188217e-13)
(0.002867218225 -0.003282111374 9.739431484e-14)
(0.002273964411 -0.00243933347 7.741030039e-14)
(0.0007901312868 -0.0006889785048 2.184363801e-14)
(0.001180509488 -0.001098662094 3.261280135e-14)
(0.0006664884112 -0.0005837410641 1.733335697e-14)
(0.0003809488093 -0.0003126067007 9.908740495e-15)
(0 0 0)
(0 0 0)
(0 0 0)
(0 0 0)
(0 0 0)
(0 0 0)
(0 0 0)
(0 0 0)
(0 0 0)
(0 0 0)
(0 0 0)
(0 0 0)
(0 0 0)
(0 0 0)
(0 0 0)
(0 0 0)
(0 0 0)
(0 0 0)
(0 0 0)
(0 0 0)
(0 0 0)
(0 0 0)
(0 0 0)
(0 0 0)
(0 0 0)
(0 0 0)
(0 0 0)
(0 0 0)
(0 0 0)
(0 0 0)
(0 0 0)
(0 0 0)
(0 0 0)
(0 0 0)
(0 0 0)
(-7.529938664e-05 -6.56625231e-05 1.637578961e-15)
(-0.0001712464148 -0.0001572455835 3.719247132e-15)
(-0.0006083348877 -0.0005874715803 1.393329896e-14)
(-0.0004089586908 -0.0003750702784 9.36750677e-15)
(-0.002406198093 -0.002612764933 6.530886942e-14)
(-0.002846899418 -0.003254811738 7.727152251e-14)
(-0.003672368105 -0.00447367164 1.062622212e-13)
(-0.003183441783 -0.003683251864 9.212075547e-14)
(-0.005041133481 -0.007265505519 1.821598428e-13)
(-0.005567669572 -0.008450133438 2.009920008e-13)
(-0.005876207605 -0.009716872077 2.31259456e-13)
(-0.005371237342 -0.008437129105 2.117472864e-13)
(-0.005340501011 -0.0115384344 2.902678098e-13)
(-0.005668674968 -0.0128636997 3.070460552e-13)
(-0.005247137599 -0.01361058168 3.250039127e-13)
(-0.004961404221 -0.01224921909 3.081562783e-13)
(-0.003171687403 -0.01368977099 3.442801599e-13)
(-0.003272702323 -0.01481889712 3.538003224e-13)
(-0.00248427167 -0.01496370489 3.57158747e-13)
(-0.002425610301 -0.01391569782 3.498451528e-13)
(-4.189751966e-05 -0.01415534705 3.55396268e-13)
(-4.864509448e-05 -0.01506183038 3.590738817e-13)
(0.0007673751397 -0.01506725022 3.590183706e-13)
(0.0007640151101 -0.014143347 3.549105454e-13)
(0.003112343217 -0.01377221135 3.450018049e-13)
(0.003202142105 -0.01489605601 3.542860449e-13)
(0.003944818874 -0.01466049596 3.484434963e-13)
(0.003809303757 -0.01345658047 3.368694212e-13)
(0.00528230099 -0.01164384169 2.908923102e-13)
(0.005618529176 -0.0130074816 3.081146449e-13)
(0.005905546988 -0.0121649072 2.877559302e-13)
(0.005496514544 -0.01076010169 2.683686606e-13)
(0.005106819995 -0.007522293605 1.873362576e-13)
(0.005627050399 -0.008727080695 2.063349491e-13)
(0.005161538327 -0.007395080524 1.74887882e-13)
(0.004630471953 -0.006300641 1.569439023e-13)
(0.002529843248 -0.002799685784 6.981915046e-14)
(0.002981420493 -0.003474452364 8.225364834e-14)
(0.002150947128 -0.002359325223 5.587197371e-14)
(0.001762577111 -0.001835866496 4.579669977e-14)
(0.0001164770543 -0.0001031058352 2.581268532e-15)
(0.0002000928472 -0.0001865821718 4.413136523e-15)
(5.079986903e-06 -4.511648739e-06 1.110223025e-16)
(0 0 0)
(0 0 0)
(0 0 0)
(0 0 0)
(0 0 0)
(0 0 0)
(0 0 0)
(0 0 0)
(0 0 0)
(0 0 0)
(0 0 0)
(0 0 0)
(0 0 0)
(0 0 0)
(0 0 0)
(0 0 0)
(0 0 0)
(0 0 0)
(0 0 0)
(0 0 0)
(0 0 0)
(0 0 0)
(0 0 0)
(0 0 0)
(0 0 0)
(0 0 0)
(0 0 0)
(0 0 0)
(0 0 0)
(-7.166880854e-06 -7.501234078e-06 1.387778781e-16)
(-1.955642341e-07 -1.964307148e-07 0)
(0 0 0)
(-0.0005376567439 -0.0005682557406 1.169897512e-14)
(-0.000678621768 -0.0007485898186 1.476596623e-14)
(-0.001408172164 -0.001633514251 3.222422329e-14)
(-0.001201388123 -0.001335313672 2.747801986e-14)
(-0.003906316916 -0.005138897727 1.059707877e-13)
(-0.004251633128 -0.005837136779 1.152966611e-13)
(-0.005167456759 -0.007558262148 1.49380508e-13)
(-0.004896734511 -0.006862987009 1.416089468e-13)
(-0.006787190378 -0.01184659241 2.447209102e-13)
(-0.007064165999 -0.01286468015 2.545602618e-13)
(-0.007257966344 -0.01439678687 2.849248615e-13)
(-0.007008618648 -0.01332596186 2.753353101e-13)
(-0.00635028967 -0.01649795766 3.409633687e-13)
(-0.006475119906 -0.01753953218 3.471112286e-13)
(-0.005834758089 -0.01799538839 3.561040351e-13)
(-0.005762485751 -0.01705539583 3.526068326e-13)
(-0.003391012381 -0.01734350816 0)
(-0.003430549927 -0.01813455692 0)
(-0.003019422469 -0.01813113358 0)
(-0.002586043217 -0.01811002974 0)
(-0.002562831923 -0.01771847635 0)
(-0.002555678803 -0.01733627971 0)
(-6.974876677e-05 -0.01734289678 0)
(-7.315751053e-05 -0.0177229742 0)
(0.0003432347022 -0.01772637548 0)
(0.0003443880115 -0.01734631357 0)
(0.003278275044 -0.017404075 0)
(0.003287201185 -0.01779454446 0)
(0.00329902635 -0.01819108812 0)
(0.003713132843 -0.01820674381 0)
(0.004121293895 -0.01821482166 0)
(0.004110300554 -0.01743075945 0)
(0.006275007232 -0.01671419755 3.433364704e-13)
(0.006379366227 -0.01774409551 3.49179019e-13)
(0.00688018535 -0.01703916755 3.351763311e-13)
(0.006725292817 -0.01595136807 3.275574256e-13)
(0.006836909722 -0.01220784031 2.505357033e-13)
(0.007086411746 -0.01321188132 2.595978987e-13)
(0.006736559084 -0.01160321329 2.279704203e-13)
(0.006428879341 -0.01060503144 2.176314684e-13)
(0.004163114087 -0.005588358084 1.14713794e-13)
(0.004553243047 -0.006380101508 1.25441324e-13)
(0.003590351284 -0.004735189859 9.314771177e-14)
(0.003233622075 -0.004085698589 8.390510509e-14)
(0.0007210902909 -0.0007742314968 1.591782262e-14)
(0.000901305293 -0.001010076796 1.988686993e-14)
(0.0003229714081 -0.0003446672052 6.786238238e-15)
(0.0002197512076 -0.0002246836531 4.62130334e-15)
(0 0 0)
(0 0 0)
(0 0 0)
(0 0 0)
(0 0 0)
(0 0 0)
(0 0 0)
(0 0 0)
(0 0 0)
(0 0 0)
(0 0 0)
(0 0 0)
(0 0 0)
(0 0 0)
(0 0 0)
(0 0 0)
(0 0 0)
(0 0 0)
(0 0 0)
(0 0 0)
(0 0 0)
(0 0 0)
(0 0 0)
(0 0 0)
(0 0 0)
(0 0 0)
(0 0 0)
(0 0 0)
(-6.457765959e-05 -7.851623019e-05 1.276756478e-15)
(-3.680090516e-05 -4.318496903e-05 7.21644966e-16)
(-3.010634736e-05 -3.40568656e-05 5.967448757e-16)
(-0.0009750612121 -0.001211184619 2.120525977e-14)
(-0.001011208139 -0.001302894566 2.198241589e-14)
(-0.001872571542 -0.002536994125 4.281297539e-14)
(-0.001823230032 -0.002381446886 4.168887457e-14)
(-0.004909194187 -0.007586657498 1.330047184e-13)
(-0.004986311951 -0.00799236793 1.350586309e-13)
(-0.005939121928 -0.01014060792 1.714323128e-13)
(-0.005857569692 -0.009642640183 1.691147222e-13)
(-0.007617640693 -0.01560461523 2.73905898e-13)
(-0.007690780109 -0.01633836277 2.764177776e-13)
(-0.007797029802 -0.01803520296 3.051447983e-13)
(-0.007732971117 -0.01724905121 3.0281333e-13)
(-0.006654186381 -0.02023960794 3.552436123e-13)
(-0.006677842574 -0.02105552741 3.561179129e-13)
(-0.0059215417 -0.0212368442 0)
(-0.005913560284 -0.0204630015 3.590738817e-13)
(-0.00347878803 -0.02047577442 0)
(-0.003484553264 -0.02086793662 0)
(-0.00307899995 -0.02086919214 0)
(-0.003073275788 -0.0204776474 0)
(0.00330525831 -0.02052445325 0)
(0.003304116235 -0.02091285211 0)
(0.003709527648 -0.02091806098 0)
(0.003711091523 -0.02053024082 0)
(0.006521118945 -0.02047011883 3.573114027e-13)
(0.006530589618 -0.02128718822 3.581857033e-13)
(0.007190609974 -0.02086264764 3.508998647e-13)
(0.007155717037 -0.01999564678 3.489014633e-13)
(0.007785584492 -0.01636448396 2.854244618e-13)
(0.00788295568 -0.01719827755 2.891575868e-13)
(0.007616621056 -0.01534600363 2.580297087e-13)
(0.00750573983 -0.0145706656 2.541578059e-13)
(0.005347294835 -0.00843929531 1.473404732e-13)
(0.005469055651 -0.008956711579 1.507266534e-13)
(0.004443065756 -0.006847858818 1.152689055e-13)
(0.004328196554 -0.006428654019 1.122713034e-13)
(0.001307721084 -0.001650172522 2.885192085e-14)
(0.001476751169 -0.001933749605 3.258504577e-14)
(0.0007044144106 -0.000878291055 1.480759959e-14)
(0.0005798858103 -0.0006967671905 1.21846977e-14)
(0 0 0)
(0 0 0)
(0 0 0)
(0 0 0)
(0 0 0)
(0 0 0)
(0 0 0)
(0 0 0)
(0 0 0)
(0 0 0)
(0 0 0)
(0 0 0)
(0 0 0)
(0 0 0)
(0 0 0)
(0 0 0)
(0 0 0)
(0 0 0)
(0 0 0)
(0 0 0)
(0 0 0)
(0 0 0)
(0 0 0)
(0 0 0)
(0 0 0)
(0 0 0)
(0 0 0)
(0 0 0)
(-0.0001060073075 -0.0001468039231 2.095545959e-15)
(-9.574604202e-05 -0.0001285527204 1.887379142e-15)
(-8.399664032e-05 -0.0001092294765 1.665334537e-15)
(-0.001201389774 -0.001715224379 2.611799665e-14)
(-0.001242237425 -0.00183121594 2.699229729e-14)
(-0.002166366893 -0.003357973097 4.95159469e-14)
(-0.002115360511 -0.003175695109 4.835021272e-14)
(-0.005293562852 -0.009400810228 1.433159147e-13)
(-0.005356033204 -0.009820012496 1.449812492e-13)
(-0.006297885101 -0.01229782779 1.816324868e-13)
(-0.006237475994 -0.01179809643 1.799255189e-13)
(-0.007899723941 -0.01857999453 2.835370827e-13)
(-0.007941902257 -0.01927968307 2.849248615e-13)
(-0.00799807628 -0.02113285745 3.123196146e-13)
(-0.007964208847 -0.02038971617 3.111538804e-13)
(-0.006722576629 -0.02343603801 3.574918139e-13)
(-0.006732436618 -0.02421489721 3.577138585e-13)
(-0.005946852697 -0.0243144582 0)
(-0.005941022258 -0.02354696531 0)
(-0.003510170362 -0.02356796448 0)
(-0.0035133192 -0.02395197568 0)
(-0.003108799299 -0.02395541368 0)
(-0.003105597097 -0.02357140294 0)
(0.003286894256 -0.02362305018 0)
(0.003283547444 -0.02400931888 0)
(0.003687992712 -0.02401314758 0)
(0.003691408936 -0.02362707518 0)
(0.0065255346 -0.02365111598 3.590183706e-13)
(0.006518528926 -0.02442457999 3.59060004e-13)
(0.007245203601 -0.02415054312 3.54938301e-13)
(0.007241835573 -0.02335326905 3.543970672e-13)
(0.008134740084 -0.01970556548 2.989414272e-13)
(0.008178890489 -0.02047169706 3.007594174e-13)
(0.007990287801 -0.01846233013 2.712552405e-13)
(0.007932169013 -0.0177396644 2.69131939e-13)
(0.005905898046 -0.01072920287 1.628974733e-13)
(0.005993076748 -0.01124579395 1.653538417e-13)
(0.004974739391 -0.008783012054 1.291883267e-13)
(0.004884725116 -0.008349750645 1.26815225e-13)
(0.001693595993 -0.002458295706 3.738676035e-14)
(0.001762536696 -0.002642101786 3.891331701e-14)
(0.0009089561579 -0.001297267169 1.909583602e-14)
(0.0008568861835 -0.001184226773 1.801336857e-14)
(0 0 0)
(0 0 0)
(0 0 0)
(0 0 0)
(0 0 0)
(0 0 0)
(0 0 0)
(0 0 0)
(0 0 0)
(0 0 0)
(0 0 0)
(0 0 0)
(0 0 0)
(0 0 0)
(0 0 0)
(0 0 0)
(0 0 0)
(0 0 0)
(0 0 0)
(0 0 0)
(0 0 0)
(0 0 0)
(0 0 0)
(0 0 0)
(0 0 0)
(0 0 0)
(0 0 0)
(0 0 0)
(-0.0001563729684 -0.000242937899 3.094746681e-15)
(-0.0001409813114 -0.0002130751073 2.775557562e-15)
(-0.0001272771416 -0.000186997625 2.525757381e-15)
(-0.001343874869 -0.002167962606 2.919886555e-14)
(-0.001385043736 -0.002298544525 3.010092176e-14)
(-0.00234281949 -0.004087975613 5.354050536e-14)
(-0.002292282814 -0.003888213042 5.240252676e-14)
(-0.005508805046 -0.01104934116 1.490613188e-13)
(-0.00556923375 -0.01148993003 1.5068502e-13)
(-0.006503718796 -0.0142876684 1.874195243e-13)
(-0.006445565151 -0.01376700441 1.857819454e-13)
(-0.008045497611 -0.02135049968 2.882694083e-13)
(-0.008085424997 -0.02206433041 2.895877982e-13)
(-0.008113381381 -0.02409020294 3.161637618e-13)
(-0.008081604148 -0.02333664677 3.150951722e-13)
(-0.006757716063 -0.02653873097 3.581718255e-13)
(-0.006766068268 -0.02731434476 3.583244812e-13)
(-0.005968943006 -0.02737798311 0)
(-0.005963539729 -0.02661251443 0)
(-0.003534270339 -0.02663342836 0)
(-0.003537174641 -0.02701594743 0)
(-0.003133205379 -0.02701929157 0)
(-0.003131717494 -0.02682801457 0)
(-0.003130231032 -0.02663689766 0)
(0.003255702803 -0.02670978056 0)
(0.003251194952 -0.02709458021 0)
(0.003655183426 -0.02709776442 0)
(0.003659743533 -0.02671308977 0)
(0.006491710064 -0.02673319719 3.590461262e-13)
(0.00648109888 -0.02749608792 3.589767372e-13)
(0.00719313287 -0.02712898504 3.541195115e-13)
(0.007211906822 -0.02640705637 3.545774785e-13)
(0.008126277988 -0.02231362086 2.99538172e-13)
(0.008090047665 -0.02287041216 2.984557046e-13)
(0.007892967584 -0.02058898269 2.687017275e-13)
(0.007932260672 -0.02010030355 2.698397061e-13)
(0.00592633495 -0.0121855203 1.63702385e-13)
(0.005886650694 -0.01245601533 1.626615509e-13)
(0.004871725513 -0.009696345492 1.266764471e-13)
(0.004908795167 -0.009494594796 1.276062589e-13)
(0.001715115222 -0.00281557575 3.788636072e-14)
(0.001692770321 -0.002859181239 3.738676035e-14)
(0.0008574735029 -0.001378788522 1.804112415e-14)
(0.000873291886 -0.00136482552 1.837419106e-14)
(0 0 0)
(0 0 0)
(0 0 0)
(0 0 0)
(0 0 0)
(0 0 0)
(0 0 0)
(0 0 0)
(0 0 0)
(0 0 0)
(0 0 0)
(0 0 0)
(0 0 0)
(0 0 0)
(0 0 0)
(0 0 0)
(0 0 0)
(0 0 0)
(0 0 0)
(0 0 0)
(0 0 0)
(0 0 0)
(0 0 0)
(0 0 0)
(0 0 0)
(0 0 0)
(0 0 0)
(0 0 0)
(-0.0002239330092 -0.0003857247443 4.440892099e-15)
(-0.0002056321331 -0.0003455188741 4.066191828e-15)
(-0.0001879310741 -0.000307839754 3.719247132e-15)
(-0.001513741149 -0.002722534468 3.28903571e-14)
(-0.00155907427 -0.002876277715 3.388955783e-14)
(-0.002554126513 -0.004953908526 5.836997552e-14)
(-0.002499441313 -0.00472624947 5.712097462e-14)
(-0.005753947588 -0.0128602677 1.555977569e-13)
(-0.005817583763 -0.01333549723 1.57290847e-13)
(-0.006741711786 -0.01645218418 1.940947403e-13)
(-0.00668088982 -0.01589748938 1.924016502e-13)
(-0.008205754295 -0.02424058006 2.935152121e-13)
(-0.008246547975 -0.02497876948 2.94833602e-13)
(-0.008240572298 -0.02715016566 3.204658761e-13)
(-0.008208541707 -0.02637783576 3.193834086e-13)
(-0.006789218115 -0.02963940281 3.587130593e-13)
(-0.006796276271 -0.03041311684 3.588240816e-13)
(-0.005989753681 -0.03044164394 0)
(-0.005984684423 -0.02967572755 0)
(-0.003556908281 -0.02969652146 0)
(-0.003559584502 -0.03007939834 0)
(-0.003156309133 -0.03008275411 0)
(-0.003154926552 -0.02989131606 0)
(-0.003153526499 -0.02969991375 0)
(0.003216673051 -0.02978373955 0)
(0.003211067087 -0.03016799574 0)
(0.003614667863 -0.03017076735 0)
(0.003620361818 -0.02978661867 0)
(0.006435004809 -0.02972888793 3.5814407e-13)
(0.006411214037 -0.03043261618 3.57422425e-13)
(0.007046087174 -0.02970483539 3.488181965e-13)
(0.007097313632 -0.02912784689 3.508443536e-13)
(0.007819686356 -0.02401647414 2.892269757e-13)
(0.007660451032 -0.02415347699 2.836064716e-13)
(0.007436459169 -0.02162362766 2.539080057e-13)
(0.007567337041 -0.02143634188 2.581823644e-13)
(0.005457704374 -0.01252936274 1.510042091e-13)
(0.005321133758 -0.01253487439 1.472988398e-13)
(0.004312724879 -0.009553312598 1.122851812e-13)
(0.004440417973 -0.009586420492 1.155742169e-13)
(0.00138371843 -0.00253426007 3.058664433e-14)
(0.001309465925 -0.002460394446 2.894906537e-14)
(0.0005820941976 -0.001041128048 1.225408663e-14)
(0.0006319071837 -0.001101711433 1.329492072e-14)
(0 0 0)
(0 0 0)
(0 0 0)
(0 0 0)
(0 0 0)
(0 0 0)
(0 0 0)
(0 0 0)
(0 0 0)
(0 0 0)
(0 0 0)
(0 0 0)
(0 0 0)
(0 0 0)
(0 0 0)
(0 0 0)
(0 0 0)
(0 0 0)
(0 0 0)
(0 0 0)
(0 0 0)
(0 0 0)
(0 0 0)
(0 0 0)
(0 0 0)
(0 0 0)
(0 0 0)
(0 0 0)
(-0.000283014507 -0.0005352750321 5.606626274e-15)
(-0.0002926844452 -0.0005412064492 5.787037516e-15)
(-0.0002671815356 -0.0004827737144 5.287437155e-15)
(-0.00170723595 -0.003386636254 3.709532681e-14)
(-0.001765162349 -0.003583173572 3.83582055e-14)
(-0.002799825665 -0.005974591042 6.397660179e-14)
(-0.002731216937 -0.005695580852 6.240841177e-14)
(-0.006020482251 -0.01483251962 1.626754287e-13)
(-0.006097757878 -0.01537062522 1.647293413e-13)
(-0.007008115148 -0.0188024164 2.015609901e-13)
(-0.006934888058 -0.018186056 1.995070775e-13)
(-0.008374181096 -0.02724153246 2.989830605e-13)
(-0.008421582199 -0.0280226752 3.005096172e-13)
(-0.008376385799 -0.03030862401 3.250316682e-13)
(-0.008339922756 -0.02950358843 3.237965451e-13)
(-0.006815470507 -0.03272755951 3.590322484e-13)
(-0.006821254361 -0.03349647385 3.590738817e-13)
(-0.006009435639 -0.03350440754 0)
(-0.006004528055 -0.0327386676 0)
(-0.003577158507 -0.03275917327 0)
(-0.003579496439 -0.03314201758 0)
(-0.003176985166 -0.0331452776 0)
(-0.003175779991 -0.03295378461 0)
(-0.003174558294 -0.03276243408 0)
(0.003168938811 -0.03285030963 0)
(0.003162223431 -0.0332332929 0)
(0.003565684751 -0.03323574306 0)
(0.003572524646 -0.03285276089 0)
(0.006310849165 -0.03238225195 3.537309334e-13)
(0.006261783804 -0.03294204778 3.516631431e-13)
(0.006783108245 -0.03165081389 3.378408664e-13)
(0.006865660533 -0.03125884261 3.414213356e-13)
(0.007210074197 -0.02450176582 2.676192601e-13)
(0.007091304639 -0.02468176122 2.634559237e-13)
(0.006712919681 -0.02153203751 2.298577995e-13)
(0.00692394957 -0.02168891773 2.369215935e-13)
(0.004703537332 -0.0119259276 1.303540609e-13)
(0.004408806314 -0.01144255784 1.22235555e-13)
(0.003415266613 -0.008333560953 8.903988657e-14)
(0.003710869045 -0.00884629759 9.672818102e-14)
(0.000929024007 -0.001877973137 2.053912596e-14)
(0.0008113382575 -0.001678635957 1.794397964e-14)
(0.000263453888 -0.0005188771102 5.551115123e-15)
(0.0003316058246 -0.0006380984793 6.980527267e-15)
(0 0 0)
(0 0 0)
(0 0 0)
(0 0 0)
(0 0 0)
(0 0 0)
(0 0 0)
(0 0 0)
(0 0 0)
(0 0 0)
(0 0 0)
(0 0 0)
(0 0 0)
(0 0 0)
(0 0 0)
(0 0 0)
(0 0 0)
(0 0 0)
(0 0 0)
(0 0 0)
(0 0 0)
(0 0 0)
(0 0 0)
(0 0 0)
(0 0 0)
(0 0 0)
(0 0 0)
(0 0 0)
(-0.0005031128844 -0.001036427846 9.950373858e-15)
(-0.0004586955168 -0.0009255213956 9.076073226e-15)
(-0.0003925802465 -0.0007755889062 7.771561172e-15)
(-0.00195125904 -0.004231343048 4.239664175e-14)
(-0.00209618148 -0.004642115937 4.554689959e-14)
(-0.003176785098 -0.007394460346 7.255307466e-14)
(-0.002999963295 -0.006838087818 6.852851619e-14)
(-0.006358907806 -0.01711385256 1.716682352e-13)
(-0.006474244208 -0.01779116313 1.747213485e-13)
(-0.007347689472 -0.02148602571 2.11053397e-13)
(-0.007254143611 -0.02077609139 2.084304951e-13)
(-0.008577390807 -0.03044869885 3.055888875e-13)
(-0.008600800007 -0.03116772804 3.062550213e-13)
(-0.008536576412 -0.03362799826 3.304301277e-13)
(-0.008494764657 -0.03278433301 3.290284711e-13)
(-0.006837694459 -0.03579424884 0)
(-0.006843650906 -0.03655990829 0)
(-0.006030625943 -0.03656674857 0)
(-0.006027720059 -0.03618405162 0)
(-0.006024920586 -0.03580131815 0)
(-0.003595006554 -0.03582175749 0)
(-0.00359611994 -0.03601293109 0)
(-0.003394810306 -0.03601449043 0)
(-0.003393715183 -0.03582337003 0)
(-0.0001028199273 -0.03589821833 0)
(-0.0001058865158 -0.03599354265 0)
(-0.0001083121805 -0.03608889045 0)
(8.880400683e-05 -0.03608840228 0)
(9.459917022e-05 -0.03589787516 0)
(0.003106326988 -0.03590950706 0)
(0.003096673029 -0.03629086315 0)
(0.003086859927 -0.03667211108 0)
(0.003896163793 -0.03667729941 0)
(0.003914762561 -0.0359143141 0)
(0.003510695657 -0.0359119475 0)
(0.006070828805 -0.03432192076 3.430172812e-13)
(0.005972045518 -0.03455313717 3.381322999e-13)
(0.006341078901 -0.03248746031 3.178846075e-13)
(0.006504547033 -0.03257520939 3.255173908e-13)
(0.006495699107 -0.02420981045 2.419314749e-13)
(0.006263519636 -0.02386028767 2.334937799e-13)
(0.005795413982 -0.02033494174 1.99021355e-13)
(0.006038701586 -0.02073319876 2.072231275e-13)
(0.003654181777 -0.01014175203 1.014188733e-13)
(0.003434219676 -0.009737685083 9.535428003e-14)
(0.002509244501 -0.006687744752 6.550315845e-14)
(0.002702804334 -0.007051277454 7.052691764e-14)
(0.0003836014576 -0.0008483923639 8.493206138e-15)
(0.0003118244202 -0.000704507872 6.911138328e-15)
(2.471930817e-05 -5.316832757e-05 5.273559367e-16)
(4.722817179e-05 -9.943880483e-05 9.992007222e-16)
(0 0 0)
(0 0 0)
(0 0 0)
(0 0 0)
(0 0 0)
(0 0 0)
(0 0 0)
(0 0 0)
(0 0 0)
(0 0 0)
(0 0 0)
(0 0 0)
(0 0 0)
(0 0 0)
(0 0 0)
(0 0 0)
(0 0 0)
(0 0 0)
(0 0 0)
(0 0 0)
(0 0 0)
(0 0 0)
(0 0 0)
(0 0 0)
(0 0 0)
(0 0 0)
(0 0 0)
(0 0 0)
(-0.0004770992584 -0.001068337838 9.478529073e-15)
(-0.0005391538363 -0.00118439757 1.071365219e-14)
(-0.0005761169653 -0.001241160997 1.144917494e-14)
(-0.002320782059 -0.005489103042 5.066780329e-14)
(-0.002246134312 -0.005417092378 4.903022433e-14)
(-0.003347096186 -0.008485706929 7.68274333e-14)
(-0.003436537673 -0.008544465821 7.88813459e-14)
(-0.006756955712 -0.01984452902 1.833533325e-13)
(-0.006646716042 -0.01990233368 1.803279748e-13)
(-0.007503411692 -0.02391227736 2.166877788e-13)
(-0.00761156 -0.02379329303 2.1987967e-13)
(-0.008745838591 -0.03391758136 3.135131044e-13)
(-0.00867089926 -0.03427363103 3.106681579e-13)
(-0.008536632601 -0.03670022499 3.326505738e-13)
(-0.008592687716 -0.03624820008 3.350375533e-13)
(-0.00677163275 -0.03886519332 0)
(-0.006778444132 -0.03963096969 0)
(-0.005963145777 -0.03963822156 0)
(-0.005959740877 -0.03925542231 0)
(-0.005956334395 -0.03887244519 0)
(-0.003510474907 -0.03889420047 0)
(-0.003513881389 -0.0392771776 0)
(-0.00310625 -0.03928080337 0)
(-0.003104545968 -0.03908922587 0)
(-0.003102843518 -0.03889782625 0)
(-0.003306659212 -0.03889601336 0)
(-0.0002493354369 -0.03892320746 0)
(-0.0002510375459 -0.03911460708 0)
(-0.0002527414075 -0.03930618459 0)
(0.000154902507 -0.03930981047 0)
(0.0001583089888 -0.03892683335 0)
(0.003011805203 -0.03895221446 0)
(0.003004993821 -0.03971799083 0)
(0.003806185682 -0.03957319792 3.577138585e-13)
(0.003824176146 -0.03892863161 3.58796326e-13)
(0.005680756207 -0.03515832469 3.238659341e-13)
(0.005544707998 -0.03507817182 3.169547957e-13)
(0.005787418481 -0.03236808537 2.924605003e-13)
(0.005952829728 -0.03258815803 3.001765503e-13)
(0.005454775036 -0.02213297798 2.038924585e-13)
(0.005234958002 -0.02167797725 1.958710971e-13)
(0.004652425816 -0.01772722338 1.601913047e-13)
(0.004971532031 -0.01856975174 1.710853681e-13)
(0.00259098797 -0.007813901497 7.202571872e-14)
(0.002257450371 -0.006943530331 6.278311204e-14)
(0.001532151489 -0.004428998385 4.005129561e-14)
(0.001746138673 -0.004949036091 4.563016631e-14)
(6.41907029e-05 -0.00015422319 1.429412144e-15)
(2.899370424e-05 -7.104904301e-05 6.383782392e-16)
(0 0 0)
(0 0 0)
(0 0 0)
(0 0 0)
(0 0 0)
(0 0 0)
(0 0 0)
(0 0 0)
(0 0 0)
(0 0 0)
(0 0 0)
(0 0 0)
(0 0 0)
(0 0 0)
(0 0 0)
(0 0 0)
(0 0 0)
(0 0 0)
(0 0 0)
(0 0 0)
(0 0 0)
(0 0 0)
(0 0 0)
(0 0 0)
(0 0 0)
(0 0 0)
(0 0 0)
(0 0 0)
(0 0 0)
(0 0 0)
(-0.0001114605455 -0.0002685477559 2.220446049e-15)
(-0.000202233138 -0.0004786476576 4.024558464e-15)
(-0.0003004352508 -0.0006982898299 5.967448757e-15)
(-0.001721477104 -0.004393268164 3.758104938e-14)
(-0.0014710324 -0.003823230628 3.212707878e-14)
(-0.002393594217 -0.006540020359 5.495603972e-14)
(-0.002707104621 -0.007262631455 6.21447338e-14)
(-0.005824176963 -0.01845254102 1.579986142e-13)
(-0.005400845752 -0.01742809799 1.465355615e-13)
(-0.006253940282 -0.02147607045 1.806055305e-13)
(-0.006683022198 -0.02253255954 1.929706395e-13)
(-0.008046238695 -0.03362642025 2.880612415e-13)
(-0.00769260071 -0.03273874214 2.753908213e-13)
(-0.007729566095 -0.03576292451 3.008426841e-13)
(-0.008031750786 -0.03649482822 3.126249259e-13)
(-0.006723822652 -0.04147639266 3.552019789e-13)
(-0.006616855645 -0.04153775873 3.493455525e-13)
(-0.005938322648 -0.0423405882 3.56048524e-13)
(-0.005979933319 -0.04191099013 3.588657149e-13)
(-0.003537723598 -0.04195766171 0)
(-0.003544536562 -0.04272361597 0)
(-0.002729255995 -0.04273086767 0)
(-0.002722443031 -0.04196491342 0)
(-0.003130092208 -0.04196128749 0)
(-0.0002765835427 -0.04198666871 0)
(-0.0002833965065 -0.04275262296 0)
(0.0005318893967 -0.04275987471 0)
(0.0005387023604 -0.04199392046 0)