/*--------------------------------*- C++ -*----------------------------------*\
| =========                 |                                                 |
| \\      /  F ield         | OpenFOAM: The Open Source CFD Toolbox           |
|  \\    /   O peration     | Version:  v1912                                 |
|   \\  /    A nd           | Website:  www.openfoam.com                      |
|    \\/     M anipulation  |                                                 |
\*---------------------------------------------------------------------------*/
FoamFile
{
    version     2.0;
    format      ascii;
    class       volVectorField;
    location    "2.97";
    object      U;
}
// * * * * * * * * * * * * * * * * * * * * * * * * * * * * * * * * * * * * * //

dimensions      [0 1 -1 0 0 0 0];


internalField   nonuniform List<vector> 
12556
(
(99.999486 0.001315175735 -3.84025222e-21)
(99.99912017 0.004867933706 -2.598064035e-25)
(99.99826999 0.01155580661 -3.840229498e-21)
(99.99667971 0.02379643176 -3.826908125e-21)
(99.99967804 0.01991222719 3.708772499e-21)
(99.99823223 0.0347049414 0)
(99.99719915 0.05857754152 0)
(99.99679158 0.09255401556 -6.723656391e-21)
(99.99567702 0.13923537 7.962425235e-22)
(99.99468791 0.1993116541 -5.419954563e-21)
(99.99430587 0.2685145019 5.683654742e-22)
(99.99529415 0.3355484025 0)
(99.99760317 0.3835256262 0)
(100.0004905 0.3987425819 2.649642323e-22)
(100.0032658 0.3771719625 -9.076312288e-22)
(100.0048755 0.327815055 7.576656692e-22)
(100.0052381 0.2656461382 0)
(100.0050612 0.2038332074 1.410083509e-21)
(100.0048977 0.1482321323 5.825690122e-21)
(100.0026375 0.1064396043 -1.678483824e-21)
(100.0112257 0.1242924 -1.470052788e-20)
(100.0079628 0.07778223193 0)
(100.0060306 0.04203105811 -1.863091082e-21)
(100.0058649 0.01340227818 -1.313832402e-20)
(99.99528406 0.003169355735 1.53603128e-20)
(99.99152715 0.01226977526 3.843196188e-21)
(99.98351553 0.03003751525 2.689296937e-20)
(99.9696964 0.06426505938 -1.151997896e-20)
(99.97017268 0.0934119972 3.733093481e-21)
(99.94790949 0.1652575061 -3.123025917e-23)
(99.91818102 0.2794485211 0)
(99.90093595 0.3878719871 -6.684865166e-21)
(99.86325059 0.5907800859 -6.303359855e-21)
(99.82702678 0.857266546 -1.131638518e-20)
(99.80541518 1.173587567 -4.864877228e-21)
(99.81950492 1.4932294 -6.880757686e-21)
(99.88096981 1.733547853 -1.948813295e-21)
(99.96662545 1.820645032 -5.722635536e-22)
(100.0547518 1.73774317 -3.331093409e-22)
(100.1146073 1.515665729 3.891599263e-21)
(100.1363062 1.227668948 -8.147497167e-21)
(100.12715 0.9440839002 0)
(100.1417199 0.727777218 -2.50162639e-20)
(100.1040032 0.5061177827 4.855306522e-20)
(100.1052191 0.3561376295 1.4236491e-20)
(100.0760593 0.2221029275 2.957164898e-20)
(100.0584744 0.1202628874 -2.965917e-20)
(100.0518503 0.03834297226 1.500231928e-20)
(99.98817597 0.002763481593 -1.532611239e-20)
(99.97767126 0.01265037186 -3.074202461e-20)
(99.95541849 0.03577478691 -6.915308907e-20)
(99.91870486 0.08114695348 9.207295607e-20)
(99.89463339 0.1414405421 -7.610651598e-21)
(99.83016357 0.2626955708 -7.471582951e-21)
(99.73896489 0.455298066 -1.299873921e-20)
(99.68112578 0.6751574201 0)
(99.56058462 1.053368484 2.600376425e-20)
(99.44158294 1.56522371 -2.401756664e-20)
(99.37083117 2.213346707 -3.909263981e-20)
(99.4352031 2.897731257 9.984868933e-19)
(99.66519732 3.404805947 -4.684132793e-19)
(100.0054656 3.592107201 -5.436919429e-21)
(100.3174588 3.395984076 -1.766529255e-19)
(100.5117261 2.921293456 2.70914217e-21)
(100.5672594 2.328017933 -8.840171314e-21)
(100.5184508 1.744529404 -2.176298954e-20)
(100.4720146 1.252478551 -1.500074196e-19)
(100.3551881 0.8580247588 -3.377381025e-20)
(100.293627 0.5428369472 -1.469680553e-20)
(100.2138912 0.3373502554 3.344892075e-20)
(100.1651878 0.1824364441 -3.771029895e-21)
(100.1439492 0.05785651677 0)
(99.9832646 -0.00136975094 -7.706748503e-21)
(99.96321873 0.001234678594 5.40018495e-20)
(99.92089026 0.02085504344 -1.544534182e-20)
(99.85150603 0.06541332826 0)
(99.79309689 0.1476943014 0)
(99.66400889 0.3005625224 -6.005318115e-20)
(99.48170852 0.5508443349 -1.203949318e-19)
(99.32391829 0.8692995355 2.857465424e-20)
(99.05215028 1.407824937 0)
(98.75634219 2.217693601 0)
(98.57429685 3.316905783 0)
(98.69696877 4.564462662 0)
(99.32202837 5.504091916 8.054743956e-23)
(100.2035021 5.724190845 -1.392581032e-19)
(100.9033353 5.237677708 1.921508411e-20)
(101.2504712 4.366927366 5.636194447e-19)
(101.3034689 3.369490971 -8.257310089e-20)
(101.1713309 2.456797378 0)
(100.9896227 1.674544681 5.535855814e-20)
(100.7376055 1.119884154 -4.323090487e-20)
(100.5593112 0.6623935462 -3.77749881e-20)
(100.4084084 0.4053872608 1.919386049e-20)
(100.3145317 0.2173709476 -3.859721485e-21)
(100.2715634 0.06842766426 0)
(99.98926699 -0.01014637184 0)
(99.95812913 -0.02493064653 0)
(99.89307035 -0.02102884335 7.747140398e-21)
(99.78492797 0.0109114336 1.174962568e-20)
(99.68241517 0.1009615365 1.946273101e-20)
(99.47145988 0.2581849258 0)
(99.17313709 0.5223923979 0)
(98.87223438 0.9091794082 0)
(98.35949318 1.600760821 2.198049949e-19)
(97.75555061 2.736275349 2.147612619e-19)
(97.25257052 4.484179932 3.174458126e-18)
(97.45747643 6.675817846 1.348340115e-18)
(98.88908507 8.419350213 3.194784676e-19)
(100.9111657 8.492293811 -5.017134149e-20)
(102.1924037 7.281897186 -1.19708894e-18)
(102.6021151 5.709877464 -1.462482097e-18)
(102.4732691 4.242111043 1.076413479e-18)
(102.0886055 2.966239051 -6.593634955e-22)
(101.6742401 1.920358662 -9.346014684e-20)
(101.2286408 1.248507448 7.814837897e-21)
(100.8708709 0.6819435464 0)
(100.6313274 0.4120645899 3.958667831e-21)
(100.481564 0.2169427007 -2.972193554e-21)
(100.4117058 0.06749591919 -9.866753873e-22)
(100.0162022 -0.02388424956 0)
(99.9737259 -0.06654664718 0)
(99.88616712 -0.09135938599 -1.554894945e-20)
(99.73875192 -0.08855211323 3.154298046e-20)
(99.5803931 -0.007346130351 0)
(99.28538407 0.1228485393 0)
(98.85566058 0.361502103 2.469575083e-20)
(98.37899102 0.7622311321 0)
(97.55080083 1.510708471 -3.098221618e-21)
(96.3905673 2.880168243 -9.448709346e-19)
(95.10993788 5.332087624 0)
(94.8345832 9.208895956 -6.215223706e-19)
(97.97075653 12.98986216 0)
(102.7708735 12.40678786 0)
(104.7622235 9.321065048 -1.456895617e-18)
(104.7924903 6.662301958 -1.202580166e-18)
(104.1262661 4.687068236 -1.782000807e-18)
(103.279829 3.158779225 6.52075456e-20)
(102.462553 1.90661025 2.415867172e-20)
(101.7727924 1.201315497 -1.630421314e-20)
(101.1928021 0.5856885595 0)
(100.850154 0.3461966415 0)
(100.6382598 0.1751183193 -1.00627707e-21)
(100.5389606 0.05344565275 -3.029491092e-21)
(100.0737854 -0.04228682625 3.786347681e-21)
(100.0210276 -0.1226203706 -3.812791727e-21)
(99.91352761 -0.188415474 7.772352318e-21)
(99.73112608 -0.2303731911 -2.84842046e-20)
(99.51765016 -0.1780528953 7.984322908e-23)
(99.14332129 -0.1063345943 2.422443755e-20)
(98.59326804 0.05918373255 -5.004160188e-20)
(97.92635011 0.4052409234 -4.936968535e-19)
(96.75874605 1.048073198 2.506756629e-19)
(94.86756671 2.31618463 -1.390755059e-19)
(92.11167521 4.743940169 -3.614423001e-19)
(88.68054026 10.31739665 0)
(93.86046534 21.58263187 4.336054485e-20)
(108.0655342 18.17347402 0)
(109.2694306 10.65913579 -3.66482489e-19)
(107.8245156 6.677002674 -1.026186078e-18)
(106.156234 4.375225656 -7.538677995e-19)
(104.6137393 2.832226652 4.848688606e-19)
(103.2582257 1.558520572 0)
(102.2978665 0.9272054527 9.084701415e-21)
(101.4738346 0.3706551816 2.667280585e-21)
(101.0267709 0.2004124754 -3.150688262e-21)
(100.7554141 0.0904573509 -3.588952461e-21)
(100.627461 0.02613187682 8.612800138e-21)
(100.1704177 -0.06447366429 -3.786748472e-21)
(100.1096232 -0.1904119152 3.814165008e-21)
(99.98708139 -0.3068744056 -4.833334283e-21)
(99.77846946 -0.4061211461 -3.241142415e-21)
(99.51591083 -0.4006949486 1.379459813e-20)
(99.08080168 -0.4135910281 8.184152288e-21)
(98.439386 -0.3654107017 -4.226692902e-21)
(97.63021836 -0.1547339972 5.122806012e-19)
(96.20098522 0.2045731754 0)
(93.78377792 0.886224699 0)
(89.92435028 1.845723707 -2.558392765e-18)
(82.91164173 3.160706714 1.124519936e-18)
(121.9055135 21.52518479 2.906756764e-18)
(115.5740133 9.056026216 -3.065201314e-18)
(111.1478414 4.985143031 1.474461294e-19)
(108.138419 3.053227176 3.00970682e-20)
(105.8454842 1.858369582 0)
(103.9108332 0.850870828 -4.886182246e-21)
(102.7010141 0.4338306103 2.060687815e-20)
(101.6542833 0.04307354957 -3.27517015e-21)
(101.121546 -0.01567339712 2.675653185e-21)
(100.8035804 -0.03163066514 -5.260090147e-22)
(100.6515832 -0.01303131751 -8.129908152e-21)
(100.3123591 -0.08907619125 -1.822032626e-21)
(100.2466744 -0.2656530521 -1.368547313e-21)
(100.1157336 -0.4387520612 -4.687552379e-22)
(99.89257385 -0.6027912654 1.41571993e-21)
(99.593135 -0.6572056252 -2.598410774e-23)
(99.12338912 -0.7704674792 0)
(98.43455998 -0.8630613945 7.0342712e-20)
(97.56050471 -0.8351094494 1.596349201e-20)
(96.03156572 -0.8343344082 6.621463978e-20)
(93.57029435 -0.8493887096 8.085295269e-20)
(90.17557428 -1.300047212 0)
(86.38335028 -3.099231 0)
(134.5543368 7.320942294 6.437219273e-20)
(120.1311458 2.997058585 -4.49295355e-18)
(113.4236935 1.459211797 5.973940096e-19)
(109.4412428 0.7577948288 9.694254197e-19)
(106.6270672 0.3398500074 -8.146855106e-19)
(104.2606556 -0.1349742272 -5.04734343e-21)
(102.8849096 -0.2283591632 1.169285118e-20)
(101.6873895 -0.364660166 1.135263623e-21)
(101.10298 -0.2815643244 0)
(100.7578428 -0.1795964264 4.114995437e-21)
(100.5902427 -0.06073529441 4.061774472e-21)
(100.502905 -0.1144234374 3.590180393e-21)
(100.4358902 -0.3431724374 5.461621134e-23)
(100.3039162 -0.5744812163 0)
(100.0791841 -0.8057995738 1.846184931e-22)
(99.75745577 -0.9269578079 -1.890072155e-21)
(99.28158383 -1.143873317 2.003112551e-21)
(98.59204859 -1.37925807 4.236623127e-21)
(97.72280127 -1.537243092 4.926627903e-19)
(96.24004804 -1.855722676 6.565100207e-20)
(93.99645809 -2.345287957 -2.511453798e-19)
(91.29402972 -3.247038973 -7.827674831e-19)
(88.89475468 -4.617703535 -7.911558014e-19)
(132.4953199 -8.140235834 -2.222705639e-18)
(120.0934852 -4.333822574 -1.421451019e-18)
(113.595851 -2.791522525 1.217762785e-18)
(109.5683364 -1.950134521 -1.05169513e-18)
(106.7053851 -1.438069705 7.200064964e-19)
(104.1995254 -1.248098657 4.296107002e-20)
(102.7930013 -0.9722652782 0)
(101.5447337 -0.804146517 -1.116164859e-21)
(100.953171 -0.5677536683 -4.586447667e-21)
(100.6034359 -0.3384188667 5.1112983e-22)
(100.4310555 -0.1121696535 0)
(100.7420341 -0.1388808685 -1.767994457e-21)
(100.6771039 -0.4178094297 1.782382459e-21)
(100.550888 -0.7044890467 1.738023886e-21)
(100.3382274 -1.00092254 -1.620820583e-21)
(100.0071393 -1.189277379 -1.862767438e-21)
(99.55152037 -1.501654144 0)
(98.90081105 -1.8669142 1.258666254e-19)
(98.08284231 -2.189451159 -1.486346724e-20)
(96.71730768 -2.753254638 1.213967338e-19)
(94.72427478 -3.524432626 2.297943975e-21)
(92.4177935 -4.546206555 -1.649739227e-20)
(90.39027783 -5.60187279 7.033055132e-19)
(124.3028406 -16.81397094 -3.253362101e-18)
(116.6192132 -9.820208061 0)
(111.8689696 -6.39511082 -2.872288659e-19)
(108.5894046 -4.407271832 0)
(106.0658267 -3.120197127 1.954771718e-19)
(103.71663 -2.30084459 0)
(102.4233688 -1.688285103 -2.796814327e-20)
(101.2245255 -1.223838377 -1.391587958e-20)
(100.6699475 -0.8418319538 1.04141828e-21)
(100.3379269 -0.4916691866 -3.301937575e-21)
(100.1717065 -0.1620412069 4.836107153e-22)
(101.0264656 -0.1609586006 6.498156166e-21)
(100.9667518 -0.4848100312 0)
(100.8516284 -0.8187894747 -1.734634519e-21)
(100.660567 -1.179837868 0)
(100.3295289 -1.426558423 0)
(99.91965663 -1.817419037 -5.536612535e-21)
(99.33731491 -2.290582968 -1.858529679e-21)
(98.59945689 -2.747321062 -1.761755218e-20)
(97.38772383 -3.492300043 0)
(95.62361814 -4.45962708 -2.710027133e-19)
(93.5191903 -5.608194773 -1.317067273e-18)
(91.51799252 -6.660214875 1.472726134e-18)
(115.4648198 -20.00756236 0)
(111.8017272 -12.64455703 0)
(109.0495082 -8.668547949 -1.382687286e-18)
(106.8049942 -6.157237787 0)
(104.8658413 -4.411653673 1.616207388e-19)
(102.8975198 -3.143766817 2.232123533e-21)
(101.8208493 -2.28776237 -3.390170638e-20)
(100.7514113 -1.58256593 8.233107308e-21)
(100.2679336 -1.075751102 0)
(99.97101074 -0.624898002 3.805102268e-21)
(99.81991933 -0.2056740706 0)
(101.350463 -0.1801524704 6.489863926e-21)
(101.2979681 -0.5435232534 1.024707368e-19)
(101.1966994 -0.9176777196 -2.063718305e-19)
(101.0299871 -1.329513425 -4.597483007e-22)
(100.730496 -1.621373324 -1.63007029e-21)
(100.3694394 -2.073099244 0)
(99.87490098 -2.627531467 2.163608677e-19)
(99.23003103 -3.183558319 0)
(98.19928046 -4.05537353 -1.109757786e-19)
(96.68277505 -5.181027338 4.909023836e-19)
(94.79976372 -6.559818649 0)
(92.85504329 -7.880582859 -4.780974794e-19)
(103.5486707 -28.88696777 -1.910896767e-19)
(107.3021006 -18.59740686 7.832289069e-20)
(107.1131026 -13.1108746 0)
(105.9865251 -9.538957419 -3.382100228e-19)
(104.7084729 -7.051957866 6.648000905e-19)
(103.3846899 -5.185603913 0)
(101.8832044 -3.696355789 -6.752972233e-20)
(101.0603117 -2.713864748 0)
(100.1732106 -1.854615241 0)
(99.77437261 -1.251677795 1.188572094e-20)
(99.52181129 -0.7286281523 2.192932213e-21)
(99.39163422 -0.2398766495 -7.094342455e-21)
(101.7060501 -0.1946272785 0)
(101.6621292 -0.5883810787 0)
(101.5778075 -0.9924766324 0)
(101.4379995 -1.436017909 0)
(101.1697891 -1.774023527 0)
(100.8613075 -2.273948508 0)
(100.4552389 -2.886104689 0)
(99.92034607 -3.499803747 -3.7343423e-19)
(99.08493356 -4.442068755 -3.829811997e-19)
(97.86070621 -5.667753873 -2.282917061e-21)
(96.38539033 -7.291349063 0)
(94.85710671 -9.555481897 -1.205790889e-19)
(96.89466788 -18.63888784 -4.662332142e-20)
(102.3921779 -15.26145234 -2.179756843e-19)
(103.4704535 -11.95907176 0)
(103.3053457 -9.31806001 -4.943471734e-19)
(102.7054328 -7.212242517 4.933186008e-19)
(101.85922 -5.464112486 -5.805031841e-20)
(100.8085022 -3.967864571 -9.275070575e-20)
(100.2229239 -2.959231823 -3.492912661e-20)
(99.53617253 -2.018443164 -1.932787781e-20)
(99.22001065 -1.367657329 1.900385734e-20)
(99.01459478 -0.7991958637 0)
(98.90767147 -0.2631268115 1.898426313e-20)
(102.0849335 -0.2042613166 0)
(102.0505054 -0.6184617626 0)
(101.9854913 -1.042446441 0)
(101.8748633 -1.501157858 0)
(101.6392222 -1.867287098 0)
(101.3950794 -2.391469986 0)
(101.0824745 -3.01355894 2.246082592e-22)
(100.6707957 -3.648104308 -1.698174452e-19)
(100.060859 -4.567841351 -3.287694315e-19)
(99.16101626 -5.753741719 -1.818801094e-20)
(98.22271011 -7.296144485 -3.606557572e-19)
(97.45598349 -9.414691686 8.367022909e-20)
(98.44688782 -12.07042354 7.981499448e-21)
(100.4117936 -11.72734231 0)
(101.1870185 -10.17637888 2.39915629e-19)
(101.2818991 -8.474450918 3.436025584e-19)
(101.0061907 -6.863241774 -1.000666885e-19)
(100.4827311 -5.390355244 -2.4338639e-20)
(99.7671043 -4.010812255 0)
(99.38841253 -3.053226195 0)
(98.87552311 -2.085651641 -3.574232529e-20)
(98.63411729 -1.425792963 1.763687444e-20)
(98.47433812 -0.8362898831 7.394873584e-22)
(98.39000876 -0.2753834759 -1.306124893e-20)
(102.4780301 -0.2091655121 0)
(102.4527986 -0.6336509628 0)
(102.4065501 -1.067395953 0)
(102.3241722 -1.52866736 0)
(102.1205329 -1.909778723 0)
(101.9352795 -2.436488129 0)
(101.7058172 -3.041679657 1.625610407e-22)
(101.4056597 -3.66031068 0)
(100.9818932 -4.492927317 -5.235055759e-21)
(100.3411956 -5.512467669 1.377793234e-19)
(99.71822903 -6.729197509 -3.638809997e-19)
(97.13467926 -7.792339254 -4.092874205e-19)
(99.29625243 -9.265569683 -3.370656967e-19)
(99.74266225 -9.24228294 2.296417101e-20)
(99.92233866 -8.510860514 1.811014774e-19)
(99.8854609 -7.449753578 0)
(99.67735705 -6.258784988 1.417606126e-19)
(99.32126976 -5.082176454 0)
(98.82939908 -3.886341209 -2.962852209e-20)
(98.60364947 -3.024440339 4.545173973e-20)
(98.22228583 -2.076133919 1.107327251e-20)
(98.0440641 -1.433824047 1.89108374e-20)
(97.92370303 -0.8436197529 -2.147343372e-20)
(97.85893813 -0.2778494781 0)
(102.8765596 -0.209838617 0)
(102.8594793 -0.6354533077 0)
(102.8294531 -1.069706403 0)
(102.7717221 -1.523364897 0)
(102.5973239 -1.907961477 0)
(102.4621923 -2.419981807 0)
(102.2987631 -2.989862703 0)
(102.0765277 -3.570624224 -3.466926319e-20)
(101.7780107 -4.288070805 1.271457093e-19)
(101.2934769 -5.102014689 -2.283575967e-19)
(100.7632999 -5.978466971 3.781121748e-19)
(97.61799096 -6.55513979 2.366040596e-19)
(99.78314283 -7.514469566 0)
(99.51504051 -7.533891485 3.208237811e-21)
(99.2224045 -7.142326898 1.173589445e-19)
(98.95555292 -6.448805971 -1.819086481e-19)
(98.67346956 -5.575693727 -1.798722228e-21)
(98.37944578 -4.664366452 0)
(98.0220906 -3.664326226 0)
(97.88484773 -2.904306342 0)
(97.60032915 -2.008863047 3.809197474e-20)
(97.47104408 -1.40174238 -3.562547001e-20)
(97.38118313 -0.8265562712 -2.414895657e-21)
(97.33169542 -0.2726554011 2.422882468e-21)
(103.2726644 -0.2069475989 0)
(103.2624012 -0.6260407747 0)
(103.2454012 -1.053002268 0)
(103.2075224 -1.490754365 0)
(103.0584492 -1.868903661 0)
(102.961845 -2.354668022 0)
(102.8459449 -2.879193172 0)
(102.6687128 -3.410432587 0)
(102.4311835 -4.014310084 6.209980388e-20)
(102.0103257 -4.64743108 9.27008397e-20)
(101.4833668 -5.278648675 0)
(97.78813348 -5.526584825 -2.796519834e-20)
(100.0826946 -6.27279772 -7.899095395e-20)
(99.42504591 -6.294640327 1.182582049e-20)
(98.79491659 -6.045633366 2.492119958e-20)
(98.30849814 -5.556760564 -8.206099357e-21)
(97.92594602 -4.911662015 0)
(97.63059743 -4.20996482 0)
(97.33317758 -3.381850169 0)
(97.24162665 -2.722868885 0)
(97.02239265 -1.899902085 0)
(96.92774792 -1.338232498 0)
(96.86028403 -0.7919225389 0)
(96.82192278 -0.2623297663 0)
(103.6599744 -0.2011917432 0)
(103.6550952 -0.607689554 0)
(103.6478309 -1.021228042 0)
(103.6246663 -1.437289926 0)
(103.4956029 -1.80145295 0)
(103.4257986 -2.254383381 0)
(103.3391488 -2.729575567 0)
(103.1848657 -3.205206992 0)
(102.9572207 -3.71468138 0)
(102.5388972 -4.212026819 0)
(101.9782831 -4.675271326 -2.086321399e-20)
(97.28360783 -4.657126399 2.076479748e-20)
(100.2565657 -5.349197285 1.31725868e-20)
(99.35210653 -5.347245703 0)
(98.49043036 -5.157524083 0)
(97.83703743 -4.795655656 0)
(97.36185208 -4.311883085 0)
(97.03327368 -3.761334605 0)
(96.75356571 -3.075510709 0)
(96.67701392 -2.510972478 0)
(96.49520594 -1.767302822 0)
(96.422152 -1.255134884 0)
(96.36893947 -0.7448416212 0)
(96.33892769 -0.2473804499 0)
(104.0336254 -0.1932832194 0)
(104.0326656 -0.582691822 0)
(104.0319117 -0.9783544718 0)
(104.0184724 -1.369345567 0)
(103.9040409 -1.714517629 0)
(103.8504091 -2.131600008 0)
(103.7781893 -2.558898945 0)
(103.6291612 -2.978386278 0)
(103.3884221 -3.406566857 0)
(102.9411172 -3.805020924 0)
(102.3281904 -4.158927966 0)
(96.70287481 -3.989755901 0)
(100.3473763 -4.624850896 0)
(99.27127603 -4.595148745 0)
(98.25678643 -4.43903744 0)
(97.48212586 -4.16013333 0)
(96.92465712 -3.784423484 0)
(96.55112942 -3.34404574 0)
(96.26554371 -2.771907407 0)
(96.18491802 -2.289278188 0)
(96.02033774 -1.624252545 0)
(95.95841605 -1.161667493 0)
(95.9128559 -0.6910201721 0)
(95.887865 -0.2299983298 0)
(104.3901684 -0.1839107711 0)
(104.3917357 -0.5532412896 0)
(104.3945202 -0.928096164 0)
(104.3863202 -1.292592858 0)
(104.2816908 -1.615862871 0)
(104.2353276 -1.996771822 0)
(104.165478 -2.380597796 0)
(104.0102285 -2.746625315 0)
(103.7431999 -3.107074329 0)
(103.2583933 -3.429830539 0)
(102.5824436 -3.705592522 0)
(96.47169638 -3.491125137 0)
(100.3862485 -4.033684781 -5.431853498e-35)
(99.19065806 -3.987585452 0)
(98.06922039 -3.852402701 0)
(97.20354703 -3.62741371 0)
(96.57674555 -3.326194149 0)
(96.15772243 -2.967573431 0)
(95.85186431 -2.485793805 0)
(95.75664604 -2.071293662 0)
(95.59569118 -1.47989407 0)
(95.53707718 -1.06471582 0)
(95.49417303 -0.6346034049 0)
(95.47176346 -0.2116694269 0)
(104.7274143 -0.1736853814 0)
(104.7302865 -0.5212820167 0)
(104.7340643 -0.8737091491 0)
(104.7272848 -1.211647804 0)
(104.6285843 -1.511783649 0)
(104.5824425 -1.858124219 0)
(104.5058296 -2.202536652 0)
(104.3372288 -2.52084377 0)
(104.0371411 -2.825778153 0)
(103.5134384 -3.090810606 0)
(102.7597272 -3.307652208 0)
(96.50981693 -3.096998228 0)
(100.3930831 -3.542317322 0)
(99.11085844 -3.487263757 0)
(97.91174335 -3.366382777 0)
(96.97698112 -3.178319848 0)
(96.29295228 -2.930078881 0)
(95.83155343 -2.632380955 0)
(95.49912921 -2.222992464 0)
(95.38343586 -1.864977624 0)
(95.21731875 -1.340387346 0)
(95.15660037 -0.9691300342 0)
(95.11284674 -0.5785555394 0)
(95.09118789 -0.1933852951 0)
(105.0442853 -0.1631102254 0)
(105.0474483 -0.4884117853 0)
(105.0501892 -0.8178920519 0)
(105.041749 -1.13008551 0)
(104.9459581 -1.40710526 0)
(104.8947775 -1.721420616 0)
(104.8051437 -2.030250149 0)
(104.618754 -2.307470724 0)
(104.283007 -2.56726755 0)
(103.7223887 -2.78816288 0)
(102.8752816 -2.959128674 0)
(96.72446599 -2.775478119 0)
(100.3787908 -3.129681798 -7.091609776e-35)
(99.03222798 -3.069654249 0)
(97.77523614 -2.959326434 0)
(96.78731398 -2.797768134 0)
(96.05632921 -2.588394518 0)
(95.55691114 -2.336932912 0)
(95.19616511 -1.985805858 0)
(95.0572001 -1.674657994 0)
(94.88060048 -1.209576951 0)
(94.81429426 -0.878086218 0)
(94.76739366 -0.5248627306 0)
(94.74519049 -0.1758048887 0)
(105.3406171 -0.1525809958 0)
(105.3432579 -0.455864911 0)
(105.3434351 -0.7627337727 0)
(105.3310014 -1.050593883 0)
(105.23572 -1.305323936 0)
(105.1758209 -1.590579499 0)
(105.0689873 -1.867128987 0)
(104.8623497 -2.1100891 0)
(104.490956 -2.333199535 0)
(103.8964581 -2.520076985 0)
(102.9420544 -2.654405243 0)
(97.04402506 -2.50643042 0)
(100.3504227 -2.780528816 0)
(98.95509105 -2.717761247 0)
(97.65415456 -2.615708388 0)
(96.62477778 -2.473980781 0)
(95.85526689 -2.293964159 0)
(95.32235965 -2.078304156 0)
(94.93375473 -1.774435008 0)
(94.77082423 -1.502258498 0)
(94.58084338 -1.089587223 0)
(94.50688179 -0.7935098991 0)
(94.45543358 -0.474768581 0)
(94.43181415 -0.1593446303 0)
(105.6169177 -0.1423988513 0)
(105.6184016 -0.4245552506 0)
(105.6149161 -0.7097650963 0)
(105.5968234 -0.9750983613 0)
(105.5002158 -1.208868746 0)
(105.4291236 -1.468036851 0)
(105.3029109 -1.715819987 0)
(105.0743195 -1.930224912 0)
(104.668948 -2.123617032 0)
(104.0432332 -2.283932783 0)
(102.9710977 -2.388666698 0)
(97.41631364 -2.277009192 0)
(100.3125891 -2.483616881 2.39718286e-35)
(98.87972786 -2.419424747 0)
(97.54495751 -2.324164306 0)
(96.48287052 -2.197803006 0)
(95.68166651 -2.040537621 0)
(95.11954407 -1.853112102 0)
(94.7045914 -1.58789623 0)
(94.51822324 -1.348220404 0)
(94.31354871 -0.9813641235 0)
(94.23085994 -0.7164398542 0)
(94.17410919 -0.4289780435 0)
(94.14852065 -0.144246202 0)
(105.8741677 -0.1327853262 0)
(105.8740132 -0.3951360443 0)
(105.8661059 -0.6600598132 0)
(105.8412248 -0.9049082061 0)
(105.7419273 -1.119312093 0)
(105.6580361 -1.355271018 0)
(105.5113161 -1.578067124 0)
(105.2601747 -1.768321655 0)
(104.8232722 -1.937675219 0)
(104.1680687 -2.076906075 0)
(102.9717135 -2.157737961 0)
(97.80320642 -2.079176261 0)
(100.2684034 -2.230426286 0)
(98.80633154 -2.165623633 0)
(97.4452385 -2.076117517 0)
(96.35707884 -1.961998418 0)
(95.52968957 -1.822748627 0)
(94.9421846 -1.657937582 0)
(94.50283428 -1.424596641 0)
(94.2942173 -1.212100046 0)
(94.0745408 -0.8850896505 0)
(93.98272522 -0.6473015531 0)
(93.92036611 -0.3878140129 0)
(93.89248909 -0.1306269667 0)
(106.1136868 -0.1238953457 0)
(106.1115401 -0.3680522016 0)
(106.0987147 -0.6143360814 0)
(106.0663247 -0.8408588451 0)
(105.9633036 -1.037636039 0)
(105.8656465 -1.253159162 0)
(105.6979452 -1.454463022 0)
(105.4244776 -1.624238771 0)
(104.9588006 -1.774150172 0)
(104.2749522 -1.896377801 0)
(102.9510863 -1.957797926 0)
(98.1782915 -1.907360787 0)
(100.2200601 -2.014460757 0)
(98.73501447 -1.949553654 0)
(97.35328576 -1.865008978 0)
(96.24416919 -1.760839816 0)
(95.39503508 -1.636092265 0)
(94.78549297 -1.489610319 0)
(94.32381534 -1.282734025 0)
(94.09444312 -1.093001208 0)
(93.86000882 -0.8004841939 0)
(93.75909551 -0.5861161762 0)
(93.69111498 -0.351339371 0)
(93.66079252 -0.1185186256 0)
(106.3370395 -0.1158303062 0)
(106.3326481 -0.3435855543 0)
(106.3146056 -0.5730389526 0)
(106.2742867 -0.7834253806 0)
(106.1667701 -0.9643579588 0)
(106.0548235 -1.162058739 0)
(105.8661253 -1.34497888 0)
(105.571064 -1.497440419 0)
(105.0793069 -1.631640448 0)
(104.3670216 -1.740014757 0)
(102.9145764 -1.785570142 0)
(98.52510121 -1.757939766 0)
(100.1691057 -1.830668534 0)
(98.66577924 -1.76593596 0)
(97.26779079 -1.685687582 0)
(96.1417084 -1.58970905 0)
(95.27441243 -1.476768423 0)
(94.64570196 -1.345263116 0)
(94.16369328 -1.160455865 0)
(93.9151458 -0.989786291 0)
(93.66649642 -0.7270015173 0)
(93.55676808 -0.5326538609 0)
(93.48332743 -0.319452443 0)
(93.4505085 -0.107897824 0)
(106.5459009 -0.1086523538 0)
(106.5390913 -0.3218992159 0)
(106.515677 -0.5364178881 0)
(106.4672241 -0.7328464841 0)
(106.3546256 -0.8996982871 0)
(106.228171 -1.082024972 0)
(106.0186442 -1.249114708 0)
(105.7031525 -1.387245213 0)
(105.1877138 -1.508739339 0)
(104.4468062 -1.605760409 0)
(102.8662607 -1.638303795 0)
(98.83474067 -1.628720277 0)
(100.1165139 -1.675076536 0)
(98.59853025 -1.610632134 0)
(97.18771644 -1.534089784 0)
(96.04781554 -1.444897361 0)
(95.16525252 -1.341625905 0)
(94.51980556 -1.222398899 0)
(94.0192941 -1.056018394 0)
(93.75310787 -0.901266678 0)
(93.49091024 -0.6639875624 0)
(93.37278114 -0.4865537118 0)
(93.29413333 -0.2919623421 0)
(93.25883289 -0.09871080176 0)
(106.7420958 -0.1023934093 0)
(106.7327443 -0.3030682282 0)
(106.7038964 -0.5045801667 0)
(106.6472536 -0.6891772154 0)
(106.5290489 -0.8436778495 0)
(106.3880866 -1.012885046 0)
(106.1581543 -1.16619369 0)
(105.8233747 -1.292856439 0)
(105.2863287 -1.404071622 0)
(104.516372 -1.491750016 0)
(102.8095092 -1.513610026 0)
(99.10356898 -1.517985034 0)
(100.0628837 -1.544349008 0)
(98.5331078 -1.48030153 0)
(97.11219799 -1.406949267 0)
(95.96097074 -1.323388293 0)
(95.06546919 -1.228041828 0)
(94.40531111 -1.11885184 0)
(93.88794384 -0.9678421469 0)
(93.60552929 -0.826299544 0)
(93.33041256 -0.6107490349 0)
(93.20435139 -0.4473962436 0)
(93.12078137 -0.2686336097 0)
(93.08304557 -0.09088715714 0)
(106.9272031 -0.09707325747 0)
(106.9152411 -0.2871238452 0)
(106.8809646 -0.4775417816 0)
(106.8161814 -0.6524473816 0)
(106.6920589 -0.7961771379 0)
(106.5367382 -0.9542914015 0)
(106.2870851 -1.095911627 0)
(105.9339675 -1.213394967 0)
(105.3770161 -1.316356647 0)
(104.5774115 -1.396355999 0)
(102.7472035 -1.409535448 0)
(99.33168538 -1.424383568 0)
(100.0087233 -1.435773739 -3.808855043e-36)
(98.46935442 -1.372264277 0)
(97.04050287 -1.301646195 0)
(95.87991861 -1.222740063 0)
(94.97334078 -1.133870351 0)
(94.30007474 -1.032912348 0)
(93.76734598 -0.894615587 0)
(93.46994005 -0.7638270933 0)
(93.18260389 -0.5666729358 0)
(93.04907655 -0.4147549338 0)
(92.96087234 -0.2492303052 0)
(92.9207754 -0.08435735532 0)
(107.1038032 -0.0926799017 0)
(107.0891199 -0.2740338737 0)
(107.0493915 -0.45524955 0)
(106.9765201 -0.62240056 0)
(106.8455947 -0.7570328239 0)
(106.6760856 -0.9058670686 0)
(106.4077589 -1.038387481 0)
(106.0368322 -1.147935844 0)
(105.4613378 -1.244451586 0)
(104.6313303 -1.318199314 0)
(102.6818619 -1.324492449 0)
(99.52202785 -1.347172295 0)
(99.95440643 -1.347316838 0)
(98.4071043 -1.284407397 0)
(96.97199338 -1.216092081 0)
(95.80359933 -1.140983527 0)
(94.88745104 -1.057350175 0)
(94.20253651 -0.9632783836 0)
(93.65531978 -0.8353330197 0)
(93.34413557 -0.712969803 0)
(93.04468381 -0.5310429834 0)
(92.90412143 -0.3882291718 0)
(92.81150934 -0.2335044758 0)
(92.76907411 -0.07903884357 0)
(107.2707137 -0.0892704692 0)
(107.2534054 -0.2638874033 0)
(107.2083246 -0.4377056208 0)
(107.1275697 -0.5995708931 0)
(106.9914462 -0.7259444698 0)
(106.80792 -0.8673274609 0)
(106.521538 -0.9934641232 0)
(106.1338654 -1.095772391 0)
(105.5406637 -1.187377143 0)
(104.67937 -1.256115332 0)
(102.615337 -1.257087365 0)
(99.6791698 -1.285440301 0)
(99.90014817 -1.277332 0)
(98.34615536 -1.215046062 0)
(96.90607956 -1.148619032 0)
(95.73106402 -1.076526547 0)
(94.80652781 -0.9969866571 0)
(94.11123936 -0.9081377557 0)
(93.55005972 -0.7887191175 0)
(93.22601256 -0.6726688791 0)
(92.91642675 -0.5038529786 0)
(92.76927076 -0.367477939 0)
(92.67251419 -0.2213325131 0)
(92.6279113 -0.07491580958 0)
(107.4407574 -0.08666447077 0)
(107.4202813 -0.2563817793 0)
(107.3694916 -0.4247059366 0)
(107.2796555 -0.5810962514 0)
(107.1321334 -0.7029605654 0)
(106.9338296 -0.8388075359 0)
(106.6298418 -0.9601501926 0)
(106.2264644 -1.056421605 0)
(105.6161419 -1.14434235 0)
(104.7226577 -1.20918102 0)
(102.5489294 -1.206217369 0)
(99.80823545 -1.238572485 0)
(99.84614591 -1.224528146 0)
(98.2863065 -1.162879758 0)
(96.84221804 -1.097940606 0)
(95.6614515 -1.028140567 0)
(94.7293679 -0.9516558374 0)
(94.02428955 -0.86650816 0)
(93.45025573 -0.7537643024 0)
(93.11391423 -0.6431039916 0)
(92.78922757 -0.4824935862 0)
(92.63492469 -0.3521117173 0)
(92.5339169 -0.2123176104 0)
(92.48676717 -0.07178865984 0)
(107.5729592 -0.08545128936 0)
(107.5505755 -0.2524792757 0)
(107.4954526 -0.4174403443 0)
(107.4005055 -0.5741920488 0)
(107.266038 -0.6873309943 0)
(107.0550085 -0.8196228051 0)
(106.7339957 -0.9379988224 0)
(106.315832 -1.0293253 0)
(105.6887779 -1.11464091 0)
(104.7622906 -1.176623598 0)
(102.4836544 -1.171041269 0)
(99.91428185 -1.206261834 0)
(99.79252622 -1.188011265 0)
(98.22733502 -1.126947023 0)
(96.77988403 -1.063090776 0)
(95.59396747 -0.994904717 0)
(94.6549267 -0.9205449143 0)
(93.94061019 -0.8379248555 0)
(93.35448313 -0.7300543298 0)
(93.00660788 -0.6232660766 0)
(92.68805978 -0.4724544087 0)
(92.52957512 -0.3428880293 0)
(92.42539214 -0.207192508 0)
(92.37680142 -0.07013953934 0)
(107.8293446 -0.08395621607 0)
(107.8025086 -0.2492065433 0)
(107.7386583 -0.411791037 0)
(107.6267586 -0.5621948935 0)
(107.3917252 -0.6803859196 0)
(107.1669713 -0.8102498464 0)
(106.8308501 -0.927037438 0)
(106.4029017 -1.014136273 0)
(105.7593427 -1.097566046 0)
(104.7993411 -1.157643022 0)
(102.4206403 -1.150921706 0)
(100.0017878 -1.188537969 0)
(99.7394024 -1.167207066 0)
(98.16905983 -1.10658869 0)