/*--------------------------------*- C++ -*----------------------------------*\
| =========                 |                                                 |
| \\      /  F ield         | OpenFOAM: The Open Source CFD Toolbox           |
|  \\    /   O peration     | Version:  v1912                                 |
|   \\  /    A nd           | Website:  www.openfoam.com                      |
|    \\/     M anipulation  |                                                 |
\*---------------------------------------------------------------------------*/
FoamFile
{
    version     2.0;
    format      ascii;
    class       pointVectorField;
    location    "1.15";
    object      pointDisplacement;
}
// * * * * * * * * * * * * * * * * * * * * * * * * * * * * * * * * * * * * * //

dimensions      [0 1 0 0 0 0 0];


internalField   nonuniform List<vector> 
26316
(
(0 0 0)
(0 0 0)
(0 0 0)
(0 0 0)
(0 0 0)
(0 0 0)
(0 0 0)
(0 0 0)
(0 0 0)
(0 0 0)
(0 0 0)
(0 0 0)
(0 0 0)
(0 0 0)
(0 0 0)
(0 0 0)
(0 0 0)
(0 0 0)
(0 0 0)
(0 0 0)
(0 0 0)
(0 0 0)
(0 0 0)
(0 0 0)
(0 0 0)
(0 0 0)
(0 0 0)
(0 0 0)
(0 0 0)
(0 0 0)
(0 0 0)
(0 0 0)
(0 0 0)
(0 0 0)
(0 0 0)
(0 0 0)
(0 0 0)
(0 0 0)
(0 0 0)
(0 0 0)
(0 0 0)
(0 0 0)
(0 0 0)
(0 0 0)
(0 0 0)
(0 0 0)
(0 0 0)
(0 0 0)
(0 0 0)
(0 0 0)
(0 0 0)
(0 0 0)
(0 0 0)
(0 0 0)
(0 0 0)
(0 0 0)
(0 0 0)
(0 0 0)
(0 0 0)
(0 0 0)
(0 0 0)
(0 0 0)
(0 0 0)
(0 0 0)
(0 0 0)
(0 0 0)
(0 0 0)
(0 0 0)
(0 0 0)
(0 0 0)
(0 0 0)
(0 0 0)
(0 0 0)
(0 0 0)
(0 0 0)
(0 0 0)
(0 0 0)
(0 0 0)
(0 0 0)
(0 0 0)
(0 0 0)
(0 0 0)
(0 0 0)
(0 0 0)
(0 0 0)
(0 0 0)
(0 0 0)
(0 0 0)
(0 0 0)
(0 0 0)
(0 0 0)
(0 0 0)
(0 0 0)
(0 0 0)
(0 0 0)
(0 0 0)
(0 0 0)
(0 0 0)
(0 0 0)
(0 0 0)
(0 0 0)
(0 0 0)
(0 0 0)
(0 0 0)
(0 0 0)
(0 0 0)
(0 0 0)
(0 0 0)
(0 0 0)
(0 0 0)
(0 0 0)
(0 0 0)
(0 0 0)
(0 0 0)
(0 0 0)
(0 0 0)
(0 0 0)
(0 0 0)
(0 0 0)
(-6.937634027e-07 1.40228241e-05 2.775557562e-17)
(0 0 0)
(0 0 0)
(-3.826042037e-07 0.0001570772832 3.330669074e-16)
(1.767519363e-06 0.0001335258068 2.91433544e-16)
(0 0 0)
(0 0 0)
(0 0 0)
(0 0 0)
(0 0 0)
(0 0 0)
(0 0 0)
(0 0 0)
(0 0 0)
(0 0 0)
(0 0 0)
(0 0 0)
(0 0 0)
(0 0 0)
(0 0 0)
(0 0 0)
(0 0 0)
(0 0 0)
(0 0 0)
(0 0 0)
(0 0 0)
(0 0 0)
(0 0 0)
(0 0 0)
(0 0 0)
(0 0 0)
(0 0 0)
(0 0 0)
(0 0 0)
(0 0 0)
(0 0 0)
(0 0 0)
(0 0 0)
(0 0 0)
(0 0 0)
(0 0 0)
(0 0 0)
(0 0 0)
(0 0 0)
(0 0 0)
(0 0 0)
(0 0 0)
(0 0 0)
(0 0 0)
(0 0 0)
(0 0 0)
(0 0 0)
(0 0 0)
(0 0 0)
(0 0 0)
(0 0 0)
(0 0 0)
(0 0 0)
(0 0 0)
(0 0 0)
(0 0 0)
(0 0 0)
(0 0 0)
(0 0 0)
(0 0 0)
(0 0 0)
(-4.322030059e-05 0.0002135052657 4.996003611e-16)
(-0.0002486928987 0.001339271522 3.080868893e-15)
(-3.252583606e-06 1.777943227e-05 4.163336342e-17)
(-0.0004719493711 0.003535455642 8.007483565e-15)
(-0.001170750272 0.008659213393 1.992850329e-14)
(-0.001387987553 0.01172927694 2.699229729e-14)
(-0.0006482402468 0.005542897599 1.255939797e-14)
(-0.0007864669354 0.01168020377 2.646494135e-14)
(-0.00137390285 0.0202643321 4.662936703e-14)
(-0.001142101688 0.02239109065 5.152822613e-14)
(-0.0006756179849 0.01329224057 3.012867733e-14)
(-2.317159684e-05 0.01554510734 3.523570324e-14)
(-2.18966632e-05 0.02530857756 5.825895322e-14)
(0.0003937444039 0.02498124391 5.750955268e-14)
(0.0002276105771 0.01529019505 3.465283616e-14)
(0.000748076434 0.01172023995 2.656208586e-14)
(0.001328582399 0.02031503642 4.676814491e-14)
(0.001453263918 0.01774979144 4.085620731e-14)
(0.0007857746228 0.009811085247 2.223221607e-14)
(0.0004612494122 0.003579975805 8.118505868e-15)
(0.001145560329 0.008731055249 2.009503675e-14)
(0.0008613253723 0.005833552514 1.34336986e-14)
(0.0002693700826 0.001856274803 4.218847494e-15)
(0 0 0)
(4.534223584e-05 0.0002299277944 5.273559367e-16)
(0 0 0)
(0 0 0)
(0 0 0)
(0 0 0)
(0 0 0)
(0 0 0)
(0 0 0)
(0 0 0)
(0 0 0)
(0 0 0)
(0 0 0)
(0 0 0)
(0 0 0)
(0 0 0)
(0 0 0)
(0 0 0)
(0 0 0)
(0 0 0)
(0 0 0)
(0 0 0)
(0 0 0)
(0 0 0)
(0 0 0)
(0 0 0)
(0 0 0)
(0 0 0)
(0 0 0)
(0 0 0)
(0 0 0)
(0 0 0)
(0 0 0)
(0 0 0)
(0 0 0)
(0 0 0)
(0 0 0)
(0 0 0)
(0 0 0)
(0 0 0)
(0 0 0)
(0 0 0)
(0 0 0)
(0 0 0)
(0 0 0)
(0 0 0)
(0 0 0)
(0 0 0)
(-0.0001207066469 0.0004206921796 1.026956298e-15)
(-0.0006592361953 0.002450721133 6.022959909e-15)
(-0.0001561897296 0.0005899625721 1.429412144e-15)
(-0.00222528504 0.01051760739 2.53824739e-14)
(-0.003556097034 0.01656666005 4.06341627e-14)
(-0.004531240023 0.02306753075 5.65658631e-14)
(-0.00305636847 0.01577667718 3.808064974e-14)
(-0.004729000767 0.03375709656 8.143485886e-14)
(-0.006243218092 0.04404216423 1.079691891e-13)
(-0.006261190151 0.05066611027 1.242062009e-13)
(-0.004847064305 0.03965339918 9.564571357e-14)
(-0.003739061502 0.05425566912 1.308952946e-13)
(-0.004623411984 0.06668482729 1.63508096e-13)
(-0.003611184384 0.07030444366 1.724176357e-13)
(-0.002952736582 0.05761974892 1.390138005e-13)
(8.778130933e-05 0.06208072094 1.498801083e-13)
(0.0001627052429 0.07505475777 1.841859998e-13)
(0.001481943251 0.07451701525 1.829231211e-13)
(0.001160485028 0.06157925099 1.486866186e-13)
(0.003842999427 0.05428919633 1.311589726e-13)
(0.004847044695 0.06668883643 1.638134073e-13)
(0.005603827995 0.06215336993 1.526972992e-13)
(0.00440914759 0.05010953016 1.210698208e-13)
(0.004719472101 0.03386963705 8.185119249e-14)
(0.006281159974 0.04413922293 1.084687895e-13)
(0.005936956748 0.03719695754 9.13991105e-14)
(0.004345103345 0.02778154096 6.712685963e-14)
(0.002209897404 0.0106442419 2.570166302e-14)
(0.003536427773 0.01672159743 4.107825191e-14)
(0.002498104012 0.01091678263 2.681188604e-14)
(0.001386353544 0.006168274407 1.490474411e-14)
(0 0 0)
(0.000119840894 0.0004252880693 1.040834086e-15)
(0 0 0)
(0 0 0)
(0 0 0)
(0 0 0)
(0 0 0)
(0 0 0)
(0 0 0)
(0 0 0)
(0 0 0)
(0 0 0)
(0 0 0)
(0 0 0)
(0 0 0)
(0 0 0)
(0 0 0)
(0 0 0)
(0 0 0)
(0 0 0)
(0 0 0)
(0 0 0)
(0 0 0)
(0 0 0)
(0 0 0)
(0 0 0)
(0 0 0)
(0 0 0)
(0 0 0)
(0 0 0)
(0 0 0)
(0 0 0)
(0 0 0)
(0 0 0)
(0 0 0)
(0 0 0)
(0 0 0)
(0 0 0)
(0 0 0)
(0 0 0)
(0 0 0)
(-5.193391402e-05 0.0001418572646 3.60822483e-16)
(0 0 0)
(-0.002209024131 0.00732597331 1.892930257e-14)
(-0.003282318679 0.01068482348 2.808864252e-14)
(-0.005132519059 0.01786226744 4.692080058e-14)
(-0.003770087296 0.01335463756 3.447242491e-14)
(-0.008585807872 0.03825822758 9.865719353e-14)
(-0.01041181204 0.04567321473 1.198208199e-13)
(-0.01162071305 0.05579069564 1.463273946e-13)
(-0.009784661972 0.04770514659 1.229710778e-13)
(-0.01104855065 0.07496561682 1.931788063e-13)
(-0.01258036454 0.08410858485 2.205180483e-13)
(-0.01197455003 0.09201962952 2.412792188e-13)
(-0.01062223368 0.08282411365 2.134403765e-13)
(-0.007161088679 0.1004951575 2.591399317e-13)
(-0.007891138847 0.1092544151 2.86659585e-13)
(-0.005982018817 0.112750652 2.95943825e-13)
(-0.005459883738 0.1042149556 2.688127498e-13)
(0.0004218403315 0.1088907004 2.812056143e-13)
(0.000487025252 0.1170352821 3.07587289e-13)
(0.00269714568 0.1165212122 3.063937992e-13)
(0.002440375154 0.1083406827 2.799011023e-13)
(0.007842861386 0.1003368864 2.59514632e-13)
(0.008704781734 0.1090243177 2.87048163e-13)
(0.01029798239 0.104389416 2.74946732e-13)
(0.009225833397 0.09550726715 2.471078897e-13)
(0.01134882712 0.0748911267 1.938726957e-13)
(0.0129826159 0.08388703032 2.211009154e-13)
(0.0130195832 0.07512329022 1.980082764e-13)
(0.01125713138 0.06632546262 1.716959908e-13)
(0.008566228262 0.03813133995 9.867107131e-14)
(0.01068076272 0.04643370272 1.224020885e-13)
(0.009198399144 0.03696725595 9.744982599e-14)
(0.007288078641 0.02993207746 7.746581154e-14)
(0.002521923615 0.008448906058 2.18575158e-14)
(0.00376981739 0.01239238361 3.264055692e-14)
(0.002126508325 0.006588533731 1.734723476e-14)
(0.001215045227 0.003835232009 9.922618283e-15)
(0 0 0)
(0 0 0)
(0 0 0)
(0 0 0)
(0 0 0)
(0 0 0)
(0 0 0)
(0 0 0)
(0 0 0)
(0 0 0)
(0 0 0)
(0 0 0)
(0 0 0)
(0 0 0)
(0 0 0)
(0 0 0)
(0 0 0)
(0 0 0)
(0 0 0)
(0 0 0)
(0 0 0)
(0 0 0)
(0 0 0)
(0 0 0)
(0 0 0)
(0 0 0)
(0 0 0)
(0 0 0)
(0 0 0)
(0 0 0)
(0 0 0)
(0 0 0)
(0 0 0)
(0 0 0)
(0 0 0)
(-0.0002400288681 0.0005895200444 1.637578961e-15)
(-0.0005458411963 0.00131528954 3.719247132e-15)
(-0.001938364709 0.004917194274 1.393329896e-14)
(-0.001303251737 0.003369087255 9.381384558e-15)
(-0.007648895851 0.0235357127 6.535050279e-14)
(-0.009047283369 0.02732791138 7.731315588e-14)
(-0.01165351785 0.0376045115 1.063177324e-13)
(-0.01010509008 0.03321568507 9.217626662e-14)
(-0.01590031286 0.06579740723 1.822847429e-13)
(-0.01755674009 0.07123674916 2.011307787e-13)
(-0.01847774683 0.08199401417 2.314259895e-13)
(-0.01689248243 0.07652494385 2.11899942e-13)
(-0.01659091753 0.1049756795 2.90448221e-13)
(-0.01762012378 0.1089669808 3.072542221e-13)
(-0.01622209154 0.115334709 3.252259573e-13)
(-0.01532747418 0.1114344882 3.083644451e-13)
(-0.009502882468 0.124365522 3.445022045e-13)
(-0.009836548208 0.1254216844 3.540501226e-13)
(-0.007312740237 0.1265560071 3.574085472e-13)
(-0.00710566232 0.1263169456 3.500810752e-13)
(0.0005098622439 0.1281184225 3.556321904e-13)
(0.000454575284 0.127020008 3.593098041e-13)
(0.003054479441 0.1269280983 3.592681708e-13)
(0.003076002111 0.1278709212 3.551603456e-13)
(0.01052326052 0.1240838773 3.452377273e-13)
(0.01079616733 0.1250176926 3.545358451e-13)
(0.01314317912 0.122880615 3.486794187e-13)
(0.01271593104 0.1210922831 3.370914659e-13)
(0.01726383118 0.1044131125 2.910865993e-13)
(0.01835132142 0.1084281208 3.083228117e-13)
(0.01920902359 0.1011983536 2.879502192e-13)
(0.01788261541 0.09626952703 2.685490719e-13)
(0.0164551837 0.06717810469 1.874611577e-13)
(0.01813506772 0.07256406083 2.06473727e-13)
(0.01659577537 0.06152010416 1.749989043e-13)
(0.01488448411 0.05629823196 1.570549246e-13)
(0.008089246198 0.02507849629 6.986078382e-14)
(0.009535783195 0.0289768311 8.230915949e-14)
(0.006871436193 0.01969496671 5.591360708e-14)
(0.005629380542 0.01646015169 4.582445534e-14)
(0.0003713437542 0.0009259216357 2.581268532e-15)
(0.0006379555328 0.001559627943 4.427014311e-15)
(1.619424169e-05 3.771106791e-05 1.110223025e-16)
(0 0 0)
(0 0 0)
(0 0 0)
(0 0 0)
(0 0 0)
(0 0 0)
(0 0 0)
(0 0 0)
(0 0 0)
(0 0 0)
(0 0 0)
(0 0 0)
(0 0 0)
(0 0 0)
(0 0 0)
(0 0 0)
(0 0 0)
(0 0 0)
(0 0 0)
(0 0 0)
(0 0 0)
(0 0 0)
(0 0 0)
(0 0 0)
(0 0 0)
(0 0 0)
(0 0 0)
(0 0 0)
(0 0 0)
(-2.284681626e-05 4.523480104e-05 1.387778781e-16)
(-6.234275475e-07 1.260943419e-06 1.387778781e-17)
(0 0 0)
(-0.001713473641 0.003890537967 1.169897512e-14)
(-0.002162636881 0.0048102703 1.476596623e-14)
(-0.00448567791 0.01050680402 3.223810108e-14)
(-0.003827118007 0.009150371201 2.750577544e-14)
(-0.01241198861 0.03534465388 1.060262989e-13)
(-0.0135101532 0.03768587157 1.153799278e-13)
(-0.01639997105 0.04885893886 1.494776525e-13)
(-0.01553702171 0.04727023122 1.416922135e-13)
(-0.02141704234 0.08181558454 2.448874437e-13)
(-0.02230568098 0.08339057723 2.547267952e-13)
(-0.02286919383 0.09335671205 2.851191505e-13)
(-0.02206435833 0.09206627551 2.755157213e-13)
(-0.01981766788 0.1139907968 3.41199291e-13)
(-0.02024463808 0.1136790359 3.47347151e-13)
(-0.01818307511 0.1165860676 3.563538353e-13)
(-0.0179145267 0.1178594955 3.528288772e-13)
(-0.01033850481 0.1199613499 0)
(-0.01051356848 0.1174428469 0)
(-0.009203153817 0.1174282571 0)
(-0.00782072938 0.1174686324 0)
(-0.007722473032 0.1187150154 0)
(-0.007675972046 0.1199325759 0)
(0.000245908512 0.119757303 0)
(0.0002114717378 0.1185462639 0)
(0.001538241112 0.1185095986 0)
(0.001565489188 0.1197207281 0)
(0.01091177023 0.1193546819 0)
(0.01091599836 0.11810976 0)
(0.01092908851 0.1168453006 0)
(0.01224781358 0.116769724 0)
(0.01354806141 0.1167186656 0)
(0.01356165729 0.1192180377 0)
(0.02041823583 0.1137071552 3.43558515e-13)
(0.0207201212 0.113263449 3.494149414e-13)
(0.02228569275 0.1086725996 3.353983757e-13)
(0.02181580553 0.1084415981 3.277655924e-13)
(0.0220149967 0.08292041117 2.507161145e-13)
(0.02280121364 0.08411484579 2.5977831e-13)
(0.02163779816 0.07387869936 2.28123076e-13)
(0.0206603911 0.07204353027 2.177702463e-13)
(0.01331776156 0.03802299786 1.147970607e-13)
(0.01456464063 0.04071289757 1.255384685e-13)
(0.01147292535 0.03025165581 9.320322292e-14)
(0.01033317558 0.02782842221 8.396061624e-14)
(0.0022996246 0.005289349009 1.59317004e-14)
(0.002874482469 0.00647421172 1.990074772e-14)
(0.001029729017 0.002210718337 6.800116026e-15)
(0.0007006080785 0.001535900647 4.62130334e-15)
(0 0 0)
(0 0 0)
(0 0 0)
(0 0 0)
(0 0 0)
(0 0 0)
(0 0 0)
(0 0 0)
(0 0 0)
(0 0 0)
(0 0 0)
(0 0 0)
(0 0 0)
(0 0 0)
(0 0 0)
(0 0 0)
(0 0 0)
(0 0 0)
(0 0 0)
(0 0 0)
(0 0 0)
(0 0 0)
(0 0 0)
(0 0 0)
(0 0 0)
(0 0 0)
(0 0 0)
(0 0 0)
(-0.0002058610616 0.0003725809098 1.276756478e-15)
(-0.0001173145004 0.0002173030392 7.21644966e-16)
(-9.597348995e-05 0.0001818333973 5.967448757e-16)
(-0.003107391204 0.006475113582 2.120525977e-14)
(-0.003222728676 0.006564724011 2.199629368e-14)
(-0.005966246856 0.01279700342 4.284073096e-14)
(-0.005808479135 0.01274538473 4.171663015e-14)
(-0.01561153866 0.04076456014 1.331018629e-13)
(-0.01586291169 0.0404758296 1.351418977e-13)
(-0.01888002348 0.05141761484 1.715433351e-13)
(-0.01861092265 0.05187502167 1.692396223e-13)
(-0.02411937416 0.08414164783 2.740863092e-13)
(-0.02437768898 0.08303068221 2.765981888e-13)
(-0.02468580479 0.09166887855 3.053529651e-13)
(-0.02445032513 0.0930302166 3.03007619e-13)
(-0.02093695376 0.109056988 3.554795347e-13)
(-0.02105811428 0.1068848207 3.563538353e-13)
(-0.0186444042 0.1077108159 0)
(-0.01857099379 0.1101743942 3.593236819e-13)
(-0.01081250594 0.1099847253 0)
(-0.01085520204 0.10873532 0)
(-0.009562841544 0.1087061651 0)
(-0.009520314634 0.1099536052 0)
(0.01080422611 0.1094088249 0)
(0.01077649675 0.108171126 0)
(0.01206815983 0.1081293812 0)
(0.01209719751 0.1093652097 0)
(0.02104724186 0.1085251853 3.575473251e-13)
(0.02103119658 0.1063416081 3.584216257e-13)
(0.02312557558 0.1041157209 3.511357871e-13)
(0.02305714531 0.1059078646 3.491373857e-13)
(0.02498301828 0.08658746039 2.856187509e-13)
(0.02526670203 0.08573799977 2.893518758e-13)
(0.02438994459 0.07652678946 2.5821012e-13)
(0.02405719635 0.07711998144 2.543382172e-13)
(0.01709058628 0.04478437824 1.474376177e-13)
(0.01747236254 0.04478119744 1.508237979e-13)
(0.01418609701 0.03427714568 1.153521723e-13)
(0.01382345368 0.03415618637 1.123545701e-13)
(0.004170542475 0.008798805712 2.886579864e-14)
(0.004709464342 0.009711190855 3.261280135e-14)
(0.002245937902 0.004414966653 1.482147738e-14)
(0.001848894473 0.003718464115 1.219857548e-14)
(0 0 0)
(0 0 0)
(0 0 0)
(0 0 0)
(0 0 0)
(0 0 0)
(0 0 0)
(0 0 0)
(0 0 0)
(0 0 0)
(0 0 0)
(0 0 0)
(0 0 0)
(0 0 0)
(0 0 0)
(0 0 0)
(0 0 0)
(0 0 0)
(0 0 0)
(0 0 0)
(0 0 0)
(0 0 0)
(0 0 0)
(0 0 0)
(0 0 0)
(0 0 0)
(0 0 0)
(0 0 0)
(-0.0003379349032 0.0005544658309 2.109423747e-15)
(-0.0003052222085 0.0005136841909 1.887379142e-15)
(-0.0002677661794 0.0004619641195 1.665334537e-15)
(-0.003829406187 0.007264787891 2.613187444e-14)
(-0.00395986067 0.007328311459 2.700617507e-14)
(-0.006905351754 0.01345432266 4.955758026e-14)
(-0.006741921601 0.01346638641 4.839184609e-14)
(-0.01686098484 0.04002676336 1.434130592e-13)
(-0.01706754421 0.0395083881 1.450783937e-13)
(-0.02006586763 0.04953754336 1.817573869e-13)
(-0.01986156823 0.0502948683 1.80050419e-13)
(-0.02512555372 0.07937590523 2.837313717e-13)
(-0.02528937289 0.07782753665 2.851191505e-13)
(-0.02546270539 0.08531503128 3.125277814e-13)
(-0.02531929011 0.08711509667 3.11375925e-13)
(-0.02134084588 0.09997550978 3.577416141e-13)
(-0.02141939378 0.09760107017 3.579497809e-13)
(-0.01891595002 0.09790448562 0)
(-0.01884976692 0.1003500102 0)
(-0.01110430427 0.1001323198 0)
(-0.01113815675 0.09890872823 0)
(-0.009849224947 0.09887268223 0)
(-0.009815202435 0.100096269 0)
(0.01055351773 0.09953519422 0)
(0.01051889432 0.09830442061 0)
(0.01180756404 0.09826713413 0)
(0.01184239649 0.09949727785 0)
(0.02087261015 0.09921945081 3.592681708e-13)
(0.02080250302 0.09677564279 3.593098041e-13)
(0.02311740607 0.09559811731 3.551881012e-13)
(0.02315315508 0.09787542168 3.546468674e-13)
(0.02597917331 0.0824873499 2.991357162e-13)
(0.02608694205 0.08093465699 3.009675842e-13)
(0.02548326765 0.07300798194 2.714495295e-13)
(0.02532468813 0.07427638393 2.693123502e-13)
(0.01884169015 0.04503885246 1.630084956e-13)
(0.01910989598 0.04458516361 1.65464864e-13)
(0.0158618832 0.03486696764 1.292715934e-13)
(0.01558078635 0.03509610283 1.268984917e-13)
(0.005399754261 0.01037492349 3.741451593e-14)
(0.00561903476 0.01053221198 3.894107259e-14)
(0.002897695151 0.005176986445 1.91235916e-14)
(0.002731814856 0.005003188375 1.802724636e-14)
(0 0 0)
(0 0 0)
(0 0 0)
(0 0 0)
(0 0 0)
(0 0 0)
(0 0 0)
(0 0 0)
(0 0 0)
(0 0 0)
(0 0 0)
(0 0 0)
(0 0 0)
(0 0 0)
(0 0 0)
(0 0 0)
(0 0 0)
(0 0 0)
(0 0 0)
(0 0 0)
(0 0 0)
(0 0 0)
(0 0 0)
(0 0 0)
(0 0 0)
(0 0 0)
(0 0 0)
(0 0 0)
(-0.0004985072981 0.0007338106507 3.094746681e-15)
(-0.0004494354378 0.0006805236941 2.789435349e-15)
(-0.0004057446389 0.000631487468 2.525757381e-15)
(-0.004284773582 0.007333143134 2.922662112e-14)
(-0.004416391135 0.007353586345 3.011479954e-14)
(-0.007471960085 0.01309541261 5.359601651e-14)
(-0.007309701572 0.01316860766 5.243028234e-14)
(-0.01757870333 0.03758326664 1.491584634e-13)
(-0.01778006692 0.03696822467 1.507682867e-13)
(-0.02077302024 0.04602817541 1.875444244e-13)
(-0.02057424783 0.04688591299 1.859068455e-13)
(-0.02571072338 0.07286934012 2.884775752e-13)
(-0.0258694207 0.07123456211 2.897682094e-13)
(-0.02597663 0.07777872604 3.163858064e-13)
(-0.02583803757 0.07965255108 3.15303339e-13)
(-0.02164165589 0.09042532945 3.584216257e-13)
(-0.02171564152 0.08803137979 3.585742814e-13)
(-0.01917635814 0.08814285539 0)
(-0.01911166189 0.09058195563 0)
(-0.01137123716 0.09036463501 0)
(-0.01140421779 0.08914578351 0)
(-0.01011703498 0.08911007075 0)
(-0.0101004297 0.08971954996 0)
(-0.01008383889 0.09032851906 0)
(0.01026266634 0.08970017607 0)
(0.01022443398 0.08847415616 0)
(0.01151168794 0.08843895189 0)
(0.01155007908 0.08966457023 0)
(0.02057375267 0.08940791609 3.592959263e-13)
(0.02049238399 0.08694673092 3.592126596e-13)
(0.02276572827 0.08570530467 3.543554339e-13)
(0.02287154504 0.08823375479 3.548272787e-13)
(0.02581950192 0.07446808916 2.997324611e-13)
(0.02567177464 0.07216737467 2.986499936e-13)
(0.02506604872 0.06498711219 2.68868261e-13)
(0.025217343 0.06709989509 2.700339952e-13)
(0.01886730359 0.04078964168 1.638134073e-13)
(0.01873136116 0.0394275429 1.62786451e-13)
(0.01550965483 0.03073498342 1.267597138e-13)
(0.01563352335 0.03182580653 1.276756478e-13)
(0.00546625281 0.0094785223 3.79002385e-14)
(0.005394537763 0.009102398491 3.741451593e-14)
(0.002733086256 0.004394486721 1.804112415e-14)
(0.002783622214 0.004599846542 1.837419106e-14)
(0 0 0)
(0 0 0)
(0 0 0)
(0 0 0)
(0 0 0)
(0 0 0)
(0 0 0)
(0 0 0)
(0 0 0)
(0 0 0)
(0 0 0)
(0 0 0)
(0 0 0)
(0 0 0)
(0 0 0)
(0 0 0)
(0 0 0)
(0 0 0)
(0 0 0)
(0 0 0)
(0 0 0)
(0 0 0)
(0 0 0)
(0 0 0)
(0 0 0)
(0 0 0)
(0 0 0)
(0 0 0)
(-0.0007139228426 0.000930515859 4.440892099e-15)
(-0.0006555670459 0.0008820918811 4.066191828e-15)
(-0.0005991264519 0.000831407701 3.719247132e-15)
(-0.004828065197 0.007366888234 3.291811268e-14)
(-0.004973154305 0.007357445887 3.390343561e-14)
(-0.008151231978 0.0126903215 5.842548667e-14)
(-0.007975319686 0.01280672035 5.716260798e-14)
(-0.01839735713 0.03500947979 1.557087792e-13)
(-0.0186105135 0.03432364067 1.574018693e-13)
(-0.02159004636 0.04240254301 1.942335182e-13)
(-0.0213808183 0.04333499537 1.925265503e-13)
(-0.02635068417 0.06622255199 2.937095012e-13)
(-0.02651445476 0.06452054521 2.950417688e-13)
(-0.0265363625 0.07012964307 3.206879207e-13)
(-0.02639491736 0.0720624717 3.196054532e-13)
(-0.02193196159 0.08081337619 3.589767372e-13)
(-0.02200205417 0.07839752218 3.590738817e-13)
(-0.01943269669 0.07838071268 0)
(-0.01936903714 0.08082126042 0)
(-0.01163336372 0.08060441489 0)
(-0.01166563969 0.07938440894 0)
(-0.01038066893 0.07934870218 0)
(-0.01036438925 0.07995870114 0)
(-0.01034805611 0.08056858514 0)
(0.00994762757 0.07990634466 0)
(0.009905929398 0.07868212476 0)
(0.01119197341 0.07864825945 0)
(0.01123394533 0.07987213124 0)
(0.0202041761 0.07942612115 3.583799923e-13)
(0.02008245274 0.07683283727 3.576583474e-13)
(0.02212235585 0.07493025262 3.490541189e-13)
(0.02232707935 0.07775140052 3.51080276e-13)
(0.02472470042 0.06404698602 2.894212647e-13)
(0.02419538602 0.06087840478 2.837868829e-13)
(0.02352613732 0.05452134443 2.54088417e-13)
(0.02396175002 0.05718825674 2.583488978e-13)
(0.01734355908 0.03353081724 1.511152314e-13)
(0.01690289076 0.03170855055 1.473821065e-13)
(0.01371353958 0.02420231426 1.123684479e-13)
(0.01412344746 0.02569267103 1.156574836e-13)
(0.004408874867 0.006822228112 3.060052212e-14)
(0.004172090688 0.006261110581 2.896294315e-14)
(0.001855216746 0.00265225173 1.226796442e-14)
(0.002014005201 0.002969036038 1.330879851e-14)
(0 0 0)
(0 0 0)
(0 0 0)
(0 0 0)
(0 0 0)
(0 0 0)
(0 0 0)
(0 0 0)
(0 0 0)
(0 0 0)
(0 0 0)
(0 0 0)
(0 0 0)
(0 0 0)
(0 0 0)
(0 0 0)
(0 0 0)
(0 0 0)
(0 0 0)
(0 0 0)
(0 0 0)
(0 0 0)
(0 0 0)
(0 0 0)
(0 0 0)
(0 0 0)
(0 0 0)
(0 0 0)
(-0.0009023473418 0.001023902861 5.606626274e-15)
(-0.0009331710851 0.001098245938 5.800915304e-15)
(-0.0008518382933 0.001038449494 5.287437155e-15)
(-0.005447600488 0.007300999579 3.712308239e-14)
(-0.005633160473 0.007288248649 3.838596108e-14)
(-0.008942327941 0.01217249808 6.401823516e-14)
(-0.008721364892 0.01229823896 6.246392292e-14)
(-0.01929103614 0.03219131861 1.62786451e-13)
(-0.01954985699 0.03148074907 1.648403636e-13)
(-0.0225067531 0.0385654653 2.01699768e-13)
(-0.02225532755 0.03952577884 1.996458554e-13)
(-0.02702635794 0.05934141856 2.991773496e-13)
(-0.02721410691 0.05760858041 3.00717784e-13)
(-0.0271324576 0.06230475136 3.252537129e-13)
(-0.02697439205 0.06426670018 3.240185897e-13)
(-0.02220604646 0.07112531451 3.592820486e-13)
(-0.02227206485 0.06869214266 3.593098041e-13)
(-0.01968538253 0.06862135929 0)
(-0.01962224916 0.07106135471 0)
(-0.01188785362 0.070845453 0)
(-0.01191904949 0.06962552986 0)
(-0.01063650785 0.06959017562 0)
(-0.01062079013 0.07020036069 0)
(-0.01060502859 0.07081009073 0)
(0.009605307166 0.07013660046 0)
(0.009560152404 0.06891650598 0)
(0.01084577193 0.06888367374 0)
(0.01089132344 0.07010375696 0)
(0.0196315972 0.06883329156 3.539668558e-13)
(0.01943538742 0.06604464443 3.519129432e-13)
(0.02113716415 0.06340593751 3.38062911e-13)
(0.02143278954 0.06639110306 3.416433803e-13)
(0.02270551588 0.05202045559 2.677996713e-13)
(0.02231003314 0.04942708695 2.636224572e-13)
(0.02117470182 0.04314629573 2.300104551e-13)
(0.02185395069 0.04607042656 2.370742491e-13)
(0.01492843685 0.02542166146 1.304373276e-13)
(0.01399135915 0.02301455997 1.223188217e-13)
(0.01085387366 0.01678856749 8.909539773e-14)
(0.01179360648 0.01888664321 9.678369217e-14)
(0.002959967319 0.004027150958 2.055300374e-14)
(0.002585067949 0.003396161681 1.795785742e-14)
(0.0008397202572 0.001050728506 5.551115123e-15)
(0.001056920553 0.001369646045 6.994405055e-15)
(0 0 0)
(0 0 0)
(0 0 0)
(0 0 0)
(0 0 0)
(0 0 0)
(0 0 0)
(0 0 0)
(0 0 0)
(0 0 0)
(0 0 0)
(0 0 0)
(0 0 0)
(0 0 0)
(0 0 0)
(0 0 0)
(0 0 0)
(0 0 0)
(0 0 0)
(0 0 0)
(0 0 0)
(0 0 0)
(0 0 0)
(0 0 0)
(0 0 0)
(0 0 0)
(0 0 0)
(0 0 0)
(-0.001604438955 0.001549574704 9.964251646e-15)
(-0.001462712581 0.001474713578 9.076073226e-15)
(-0.001251801247 0.001314868344 7.771561172e-15)
(-0.006229742071 0.007192939429 4.243827512e-14)
(-0.006693944217 0.007418528576 4.557465516e-14)
(-0.01015659675 0.01183993703 7.260858581e-14)
(-0.00958801076 0.01164536811 6.858402735e-14)
(-0.02042437708 0.02931568032 1.717792575e-13)
(-0.0208087677 0.02865607205 1.748323708e-13)
(-0.0236707093 0.03466184861 2.111921749e-13)
(-0.02335045678 0.0356445943 2.085831508e-13)
(-0.02782630112 0.0523620564 3.057831766e-13)
(-0.0279375468 0.05039631754 3.064493104e-13)
(-0.02781812615 0.0543696406 3.306521723e-13)
(-0.02763990591 0.05637190075 3.29236638e-13)
(-0.02246694401 0.06137534534 0)
(-0.02253341496 0.05893567147 0)
(-0.01994284904 0.05886344612 0)
(-0.01990985233 0.0600828644 0)
(-0.01987719248 0.06130240568 0)
(-0.01213468393 0.06108655749 0)
(-0.01215008932 0.06047738459 0)
(-0.01150864204 0.06045992936 0)
(-0.01149329815 0.06106893384 0)
(-0.001010344536 0.06062629159 0)
(-0.001026029617 0.06032269731 0)
(-0.001039673626 0.06001898841 0)
(-0.0004114632433 0.06000831839 0)
(-0.000381177817 0.06061514065 0)
(0.009216031385 0.06039127455 0)
(0.009161612729 0.05917654795 0)
(0.009106693614 0.05796217588 0)
(0.01168550342 0.05789544582 0)
(0.01179209772 0.0603258135 0)
(0.0105045431 0.060358417 0)
(0.01872262572 0.05745154517 3.432532036e-13)
(0.01838358997 0.05434793993 3.383682223e-13)
(0.01963556142 0.05106549594 3.181066521e-13)
(0.02016733022 0.05448625247 3.257394354e-13)
(0.0203934489 0.04049613934 2.420980083e-13)
(0.01965492544 0.0375105706 2.336464355e-13)
(0.01824828111 0.0319961355 1.99146255e-13)
(0.01902045084 0.03470934387 2.073619054e-13)
(0.01159415069 0.01704926086 1.014882622e-13)
(0.01089598422 0.01538725684 9.542366897e-14)
(0.007974693476 0.01058564722 6.55586696e-14)
(0.008589663874 0.01187385937 7.058242879e-14)
(0.001222479009 0.001434438686 8.493206138e-15)
(0.0009937769679 0.001119547234 6.911138328e-15)
(7.879967836e-05 8.453634642e-05 5.134781489e-16)
(0.0001505506464 0.000168231763 9.992007222e-16)
(0 0 0)
(0 0 0)
(0 0 0)
(0 0 0)
(0 0 0)
(0 0 0)
(0 0 0)
(0 0 0)
(0 0 0)
(0 0 0)
(0 0 0)
(0 0 0)
(0 0 0)
(0 0 0)
(0 0 0)
(0 0 0)
(0 0 0)
(0 0 0)
(0 0 0)
(0 0 0)
(0 0 0)
(0 0 0)
(0 0 0)
(0 0 0)
(0 0 0)
(0 0 0)
(0 0 0)
(0 0 0)
(-0.001521589317 0.001218009009 9.492406861e-15)
(-0.001719553425 0.0014494533 1.072752998e-14)
(-0.001837453467 0.001626779946 1.146305273e-14)
(-0.007415542261 0.007219676227 5.069555886e-14)
(-0.007177371978 0.006653017793 4.907185769e-14)
(-0.01071179916 0.01044568504 7.688294446e-14)
(-0.01099689246 0.0112634149 7.893685705e-14)
(-0.02176434272 0.02633372356 1.834643548e-13)
(-0.02141760415 0.02466849665 1.804389971e-13)
(-0.02424979812 0.0296920221 2.168404345e-13)
(-0.02458643289 0.0316280571 2.200184479e-13)
(-0.02853361796 0.04519140433 3.137212712e-13)
(-0.02831859161 0.04266446457 3.108902025e-13)
(-0.02798996571 0.04567381039 3.328864961e-13)
(-0.02813839974 0.04828330293 3.352734756e-13)
(-0.02244688489 0.05158460259 0)
(-0.02251608764 0.04914460914 0)
(-0.01991830228 0.04907093111 0)
(-0.01988370894 0.05029064445 0)
(-0.01984909952 0.05151092457 0)
(-0.01205585679 0.0512898937 0)
(-0.0120904662 0.05006961358 0)
(-0.0107916302 0.05003277618 0)
(-0.01077431746 0.05064319963 0)
(-0.01075702079 0.05125305629 0)
(-0.01140643879 0.051271475 0)
(-0.001664887235 0.05099518647 0)
(-0.001682182819 0.05038532977 0)
(-0.001699495021 0.04977490631 0)
(-0.0004006191087 0.04973806777 0)
(-0.0003660096939 0.05095834788 0)
(0.008726086046 0.05070047913 0)
(0.008656883291 0.04826048568 0)
(0.011216772 0.0480036998 3.579497809e-13)
(0.01131592895 0.05058701095 3.590322484e-13)
(0.01739386689 0.04549467779 3.240879787e-13)
(0.01695378378 0.04239338758 3.171629626e-13)
(0.01783454339 0.03909692063 2.926547893e-13)
(0.0183617544 0.04214654085 3.003847171e-13)
(0.01710546217 0.02864687163 2.040173586e-13)
(0.01641258769 0.02620384653 1.96009875e-13)
(0.01464700133 0.02145223128 1.60302327e-13)
(0.01564901389 0.0240578629 1.711963904e-13)
(0.008224451471 0.0101709473 7.206735209e-14)
(0.007168214964 0.008444266135 6.282474541e-14)
(0.004872800564 0.005394330885 4.007905119e-14)
(0.005552304714 0.006452810743 4.565792189e-14)
(0.0002046160566 0.0002017597743 1.429412144e-15)
(9.242436387e-05 8.680252636e-05 6.383782392e-16)
(0 0 0)
(0 0 0)
(0 0 0)
(0 0 0)
(0 0 0)
(0 0 0)
(0 0 0)
(0 0 0)
(0 0 0)
(0 0 0)
(0 0 0)
(0 0 0)
(0 0 0)
(0 0 0)
(0 0 0)
(0 0 0)
(0 0 0)
(0 0 0)
(0 0 0)
(0 0 0)
(0 0 0)
(0 0 0)
(0 0 0)
(0 0 0)
(0 0 0)
(0 0 0)
(0 0 0)
(0 0 0)
(0 0 0)
(0 0 0)
(-0.0003553624444 0.0002241247168 2.220446049e-15)
(-0.0006448258554 0.0004340570162 4.024558464e-15)
(-0.0009580329197 0.0006855629703 5.981326545e-15)
(-0.005499384913 0.004327957344 3.760880496e-14)
(-0.004698265093 0.003478244938 3.214095656e-14)
(-0.007656264958 0.005963829253 5.498379529e-14)
(-0.008661460122 0.007171626563 6.218636717e-14)
(-0.01877014594 0.01835841052 1.581096365e-13)
(-0.01740018899 0.01601443497 1.46632706e-13)
(-0.02021444243 0.0197770276 1.807304306e-13)
(-0.02160771954 0.02246417792 1.930955396e-13)
(-0.02632462589 0.03363713916 2.882555306e-13)
(-0.02516758532 0.03026144387 2.755851103e-13)
(-0.02541000782 0.03306132743 3.010369731e-13)
(-0.02639841711 0.03650669014 3.128469706e-13)
(-0.02246200806 0.04136468271 3.554379013e-13)
(-0.02213249399 0.03829689605 3.495814749e-13)
(-0.02001070586 0.03897133723 3.562844464e-13)
(-0.02011306325 0.04172463181 3.591155151e-13)
(-0.01233269996 0.04152878633 0)
(-0.01240191879 0.0390882261 0)
(-0.009804190103 0.03901454968 0)
(-0.009734971274 0.04145510991 0)
(-0.01103386396 0.04149194892 0)
(-0.001941728541 0.04123407904 0)
(-0.00201094737 0.03879351881 0)
(0.0005867983183 0.03871984191 0)
(0.0006560171479 0.04116040214 0)
(0.008387649895 0.04057635282 3.561317907e-13)
(0.008214671636 0.03756734066 3.505806756e-13)
(0.0104658657 0.03635643781 3.398392678e-13)
(0.01074561819 0.03958356498 3.479716515e-13)
(0.01551595693 0.03303595316 2.913502772e-13)
(0.01484617064 0.02972889202 2.787492459e-13)
(0.01521048403 0.02665100777 2.499528362e-13)
(0.01599587103 0.02980825314 2.629563234e-13)
(0.0135811403 0.01841642357 1.621758283e-13)
(0.01261936724 0.01608838534 1.505739977e-13)
(0.01072032222 0.01254152123 1.172117958e-13)
(0.01166492872 0.01451372867 1.276340145e-13)
(0.004588791382 0.004594075006 4.020395128e-14)
(0.003943009962 0.003712956872 3.452793607e-14)
(0.002018234434 0.00178649457 1.659783422e-14)
(0.002741209796 0.002579618512 2.25375274e-14)
(0 0 0)
(0 0 0)
(0 0 0)
(0 0 0)
(0 0 0)
(0 0 0)
(0 0 0)
(0 0 0)
(0 0 0)
(0 0 0)
(0 0 0)
(0 0 0)
(0 0 0)
(0 0 0)
(0 0 0)
(0 0 0)
(0 0 0)
(0 0 0)
(0 0 0)
(0 0 0)
(0 0 0)
(0 0 0)
(0 0 0)
(0 0 0)
(0 0 0)
(0 0 0)
(0 0 0)
(0 0 0)
(0 0 0)
(0 0 0)
(0 0 0)
(0 0 0)
(0 0 0)
(0 0 0)
(-8.728347341e-06 4.764140951e-06 5.551115123e-17)
(-0.002089650044 0.001254391435 1.432187702e-14)