/*--------------------------------*- C++ -*----------------------------------*\
| =========                 |                                                 |
| \\      /  F ield         | OpenFOAM: The Open Source CFD Toolbox           |
|  \\    /   O peration     | Version:  v1912                                 |
|   \\  /    A nd           | Website:  www.openfoam.com                      |
|    \\/     M anipulation  |                                                 |
\*---------------------------------------------------------------------------*/
FoamFile
{
    version     2.0;
    format      ascii;
    class       pointVectorField;
    location    "1.39";
    object      pointDisplacement;
}
// * * * * * * * * * * * * * * * * * * * * * * * * * * * * * * * * * * * * * //

dimensions      [0 1 0 0 0 0 0];


internalField   nonuniform List<vector> 
26316
(
(0 0 0)
(0 0 0)
(0 0 0)
(0 0 0)
(0 0 0)
(0 0 0)
(0 0 0)
(0 0 0)
(0 0 0)
(0 0 0)
(0 0 0)
(0 0 0)
(0 0 0)
(0 0 0)
(0 0 0)
(0 0 0)
(0 0 0)
(0 0 0)
(0 0 0)
(0 0 0)
(0 0 0)
(0 0 0)
(0 0 0)
(0 0 0)
(0 0 0)
(0 0 0)
(0 0 0)
(0 0 0)
(0 0 0)
(0 0 0)
(0 0 0)
(0 0 0)
(0 0 0)
(0 0 0)
(0 0 0)
(0 0 0)
(0 0 0)
(0 0 0)
(0 0 0)
(0 0 0)
(0 0 0)
(0 0 0)
(0 0 0)
(0 0 0)
(0 0 0)
(0 0 0)
(0 0 0)
(0 0 0)
(0 0 0)
(0 0 0)
(0 0 0)
(0 0 0)
(0 0 0)
(0 0 0)
(0 0 0)
(0 0 0)
(0 0 0)
(0 0 0)
(0 0 0)
(0 0 0)
(0 0 0)
(0 0 0)
(0 0 0)
(0 0 0)
(0 0 0)
(0 0 0)
(0 0 0)
(0 0 0)
(0 0 0)
(0 0 0)
(0 0 0)
(0 0 0)
(0 0 0)
(0 0 0)
(0 0 0)
(0 0 0)
(0 0 0)
(0 0 0)
(0 0 0)
(0 0 0)
(0 0 0)
(0 0 0)
(0 0 0)
(0 0 0)
(0 0 0)
(0 0 0)
(0 0 0)
(0 0 0)
(0 0 0)
(0 0 0)
(0 0 0)
(0 0 0)
(0 0 0)
(0 0 0)
(0 0 0)
(0 0 0)
(0 0 0)
(0 0 0)
(0 0 0)
(0 0 0)
(0 0 0)
(0 0 0)
(0 0 0)
(0 0 0)
(0 0 0)
(0 0 0)
(0 0 0)
(0 0 0)
(0 0 0)
(0 0 0)
(0 0 0)
(0 0 0)
(0 0 0)
(0 0 0)
(0 0 0)
(0 0 0)
(0 0 0)
(0 0 0)
(0 0 0)
(-4.472781039e-07 -2.304070637e-06 2.775557562e-17)
(0 0 0)
(0 0 0)
(-2.47076668e-07 -2.580989267e-05 3.330669074e-16)
(1.139238652e-06 -2.193906496e-05 2.775557562e-16)
(0 0 0)
(0 0 0)
(0 0 0)
(0 0 0)
(0 0 0)
(0 0 0)
(0 0 0)
(0 0 0)
(0 0 0)
(0 0 0)
(0 0 0)
(0 0 0)
(0 0 0)
(0 0 0)
(0 0 0)
(0 0 0)
(0 0 0)
(0 0 0)
(0 0 0)
(0 0 0)
(0 0 0)
(0 0 0)
(0 0 0)
(0 0 0)
(0 0 0)
(0 0 0)
(0 0 0)
(0 0 0)
(0 0 0)
(0 0 0)
(0 0 0)
(0 0 0)
(0 0 0)
(0 0 0)
(0 0 0)
(0 0 0)
(0 0 0)
(0 0 0)
(0 0 0)
(0 0 0)
(0 0 0)
(0 0 0)
(0 0 0)
(0 0 0)
(0 0 0)
(0 0 0)
(0 0 0)
(0 0 0)
(0 0 0)
(0 0 0)
(0 0 0)
(0 0 0)
(0 0 0)
(0 0 0)
(0 0 0)
(0 0 0)
(0 0 0)
(0 0 0)
(0 0 0)
(0 0 0)
(0 0 0)
(-2.786520939e-05 -4.58306219e-05 4.996003611e-16)
(-0.0001603631906 -0.0002874292174 3.080868893e-15)
(-2.096971951e-06 -3.58239993e-06 2.775557562e-17)
(-0.0003044725339 -0.0007120775613 8.007483565e-15)
(-0.000755999538 -0.001857173963 1.992850329e-14)
(-0.0008970621954 -0.002515140895 2.69784195e-14)
(-0.0004184246385 -0.001116208523 1.255939797e-14)
(-0.0005092571308 -0.002351714828 2.646494135e-14)
(-0.0008923791148 -0.004344853778 4.661548925e-14)
(-0.0007443957161 -0.004801198103 5.151434834e-14)
(-0.0004384456588 -0.002676313213 3.011479954e-14)
(-1.886292617e-05 -0.00313099215 3.522182546e-14)
(-2.442980153e-05 -0.005429898704 5.823119764e-14)
(0.0002438029916 -0.005360782201 5.74817971e-14)
(0.000142946119 -0.003080012912 3.463895837e-14)
(0.0004800605801 -0.002361760705 2.656208586e-14)
(0.0008499044518 -0.00436200936 4.675426712e-14)
(0.000931859559 -0.003811531208 4.085620731e-14)
(0.0005050323451 -0.00197710468 2.223221607e-14)
(0.0002971631122 -0.0007214120481 8.10462808e-15)
(0.0007373248546 -0.001874894591 2.009503675e-14)
(0.000554755586 -0.001252550994 1.34336986e-14)
(0.0001736091101 -0.0003740356897 4.204969706e-15)
(0 0 0)
(2.923165314e-05 -4.935810945e-05 5.273559367e-16)
(0 0 0)
(0 0 0)
(0 0 0)
(0 0 0)
(0 0 0)
(0 0 0)
(0 0 0)
(0 0 0)
(0 0 0)
(0 0 0)
(0 0 0)
(0 0 0)
(0 0 0)
(0 0 0)
(0 0 0)
(0 0 0)
(0 0 0)
(0 0 0)
(0 0 0)
(0 0 0)
(0 0 0)
(0 0 0)
(0 0 0)
(0 0 0)
(0 0 0)
(0 0 0)
(0 0 0)
(0 0 0)
(0 0 0)
(0 0 0)
(0 0 0)
(0 0 0)
(0 0 0)
(0 0 0)
(0 0 0)
(0 0 0)
(0 0 0)
(0 0 0)
(0 0 0)
(0 0 0)
(0 0 0)
(0 0 0)
(0 0 0)
(0 0 0)
(0 0 0)
(0 0 0)
(-7.782326514e-05 -0.0001143222605 1.026956298e-15)
(-0.0004251071565 -0.0006657331947 6.022959909e-15)
(-0.0001007021971 -0.0001514768678 1.429412144e-15)
(-0.001436383173 -0.002696970559 2.536859611e-14)
(-0.0022968642 -0.004492613328 4.062028491e-14)
(-0.002929510331 -0.006251859846 5.655198532e-14)
(-0.001974345233 -0.004043425449 3.805289417e-14)
(-0.003066595057 -0.008642184602 8.139322549e-14)
(-0.004054897967 -0.01192298499 1.079275558e-13)
(-0.004076138483 -0.01371465524 1.241506897e-13)
(-0.003149462655 -0.01015014837 9.5617958e-14)
(-0.002456501291 -0.01389285449 1.308397835e-13)
(-0.003049153343 -0.01806109303 1.634525848e-13)
(-0.002404173415 -0.01904964924 1.723482468e-13)
(-0.001955412014 -0.01475916351 1.389721671e-13)
(-3.454017822e-06 -0.01592510381 1.498107194e-13)
(1.833628612e-05 -0.02037308949 1.841304886e-13)
(0.0008701209712 -0.02024017976 1.828537322e-13)
(0.0006891057591 -0.01580485712 1.486311074e-13)
(0.002431728672 -0.0139541321 1.311173392e-13)
(0.003056664098 -0.01814619926 1.637578961e-13)
(0.003553549137 -0.01691937559 1.526417881e-13)
(0.002803527126 -0.01288410014 1.210420653e-13)
(0.003024827203 -0.008711982762 8.182343691e-14)
(0.004019622297 -0.01202282047 1.084271561e-13)
(0.003806374048 -0.01013105964 9.137135493e-14)
(0.002789309766 -0.007145202536 6.709910405e-14)
(0.001422974465 -0.002735486922 2.570166302e-14)
(0.002275671189 -0.004550412539 4.105049634e-14)
(0.001608717927 -0.002969521106 2.681188604e-14)
(0.0008932007626 -0.001584676189 1.489086632e-14)
(0 0 0)
(7.72596103e-05 -0.0001155994569 1.040834086e-15)
(0 0 0)
(0 0 0)
(0 0 0)
(0 0 0)
(0 0 0)
(0 0 0)
(0 0 0)
(0 0 0)
(0 0 0)
(0 0 0)
(0 0 0)
(0 0 0)
(0 0 0)
(0 0 0)
(0 0 0)
(0 0 0)
(0 0 0)
(0 0 0)
(0 0 0)
(0 0 0)
(0 0 0)
(0 0 0)
(0 0 0)
(0 0 0)
(0 0 0)
(0 0 0)
(0 0 0)
(0 0 0)
(0 0 0)
(0 0 0)
(0 0 0)
(0 0 0)
(0 0 0)
(0 0 0)
(0 0 0)
(0 0 0)
(0 0 0)
(0 0 0)
(0 0 0)
(-3.348249844e-05 -4.794110004e-05 3.747002708e-16)
(0 0 0)
(-0.001424957917 -0.002340521638 1.891542478e-14)
(-0.00211776483 -0.003596736571 2.806088695e-14)
(-0.003313528721 -0.006005051048 4.690692279e-14)
(-0.002433206577 -0.004262816542 3.445854713e-14)
(-0.005556720396 -0.01217984655 9.861556016e-14)
(-0.006742404782 -0.0153078238 1.197791866e-13)
(-0.007536491872 -0.01868550148 1.462718835e-13)
(-0.006341507971 -0.01517670103 1.229294444e-13)
(-0.007205261703 -0.02382551708 1.930955396e-13)
(-0.008211910761 -0.02814492937 2.204347815e-13)
(-0.007841263145 -0.03079625836 2.411820743e-13)
(-0.006948535293 -0.02632479606 2.133709875e-13)
(-0.004764334996 -0.03198288738 2.590427872e-13)
(-0.005258089744 -0.03662045134 2.865624404e-13)
(-0.004038248916 -0.03782230961 2.958328027e-13)
(-0.003678601006 -0.03319036457 2.687156053e-13)
(9.915043883e-05 -0.03477179766 2.810807143e-13)
(0.0001187533422 -0.03937302417 3.074762667e-13)
(0.001545494917 -0.03924061823 3.062688991e-13)
(0.001402364472 -0.03462915971 2.798039578e-13)
(0.004909974974 -0.03215800763 2.594174875e-13)
(0.005443116634 -0.03682553643 2.869371407e-13)
(0.006484416835 -0.03528948435 2.748357097e-13)
(0.005815403182 -0.03063274015 2.470107452e-13)
(0.007235235429 -0.02405302958 1.937894289e-13)
(0.008270160451 -0.02840465511 2.210037708e-13)
(0.008313770543 -0.02544121168 1.979388875e-13)
(0.007193685202 -0.02130379135 1.716404796e-13)
(0.00550159036 -0.01223939131 9.864331574e-14)
(0.006855387674 -0.01573595397 1.223604551e-13)
(0.005910896622 -0.01253415809 9.742207041e-14)
(0.004685665959 -0.00961208955 7.743805597e-14)
(0.001624866488 -0.002711813002 2.184363801e-14)
(0.00242824964 -0.004193758154 3.262667914e-14)
(0.001370359931 -0.002228073102 1.734723476e-14)
(0.0007831354779 -0.001230326931 9.922618283e-15)
(0 0 0)
(0 0 0)
(0 0 0)
(0 0 0)
(0 0 0)
(0 0 0)
(0 0 0)
(0 0 0)
(0 0 0)
(0 0 0)
(0 0 0)
(0 0 0)
(0 0 0)
(0 0 0)
(0 0 0)
(0 0 0)
(0 0 0)
(0 0 0)
(0 0 0)
(0 0 0)
(0 0 0)
(0 0 0)
(0 0 0)
(0 0 0)
(0 0 0)
(0 0 0)
(0 0 0)
(0 0 0)
(0 0 0)
(0 0 0)
(0 0 0)
(0 0 0)
(0 0 0)
(0 0 0)
(0 0 0)
(-0.0001547530717 -0.0002320851819 1.637578961e-15)
(-0.0003519299302 -0.0005440305728 3.719247132e-15)
(-0.001249983131 -0.002032446512 1.391942117e-14)
(-0.0008403648904 -0.00132566434 9.36750677e-15)
(-0.004938550813 -0.009233013073 6.5336625e-14)
(-0.005842277997 -0.01125792429 7.72854003e-14)
(-0.007530982813 -0.01547246603 1.062899768e-13)
(-0.006529283089 -0.01301508289 9.214851104e-14)
(-0.01030797017 -0.02568185851 1.822153539e-13)
(-0.01138331071 -0.02922231473 2.010613898e-13)
(-0.01199806004 -0.03360729038 2.31328845e-13)
(-0.01096777743 -0.02983238482 2.118166753e-13)
(-0.01084150509 -0.04083844597 2.903371987e-13)
(-0.01151078622 -0.04454721223 3.07129322e-13)
(-0.01062758258 -0.04714907753 3.251010572e-13)
(-0.01004530896 -0.04336214622 3.082534228e-13)
(-0.006329848008 -0.04848716675 3.443634267e-13)
(-0.006541111087 -0.0513690176 3.538974669e-13)
(-0.004917374417 -0.05188100294 3.572697693e-13)
(-0.004790549774 -0.04929470201 3.499422974e-13)
(0.0001139847535 -0.05016163572 3.554934125e-13)
(8.961221289e-05 -0.05224217299 3.59184904e-13)
(0.001766376988 -0.05226612406 3.591293929e-13)
(0.001769492567 -0.05012358296 3.550215677e-13)
(0.006584034881 -0.04881613578 3.450989494e-13)
(0.00676447064 -0.05167966318 3.543831895e-13)
(0.008284533714 -0.0508621387 3.485545186e-13)
(0.008007449151 -0.04769675269 3.369665658e-13)
(0.01098884537 -0.04125817495 2.90975577e-13)
(0.01168482496 -0.04509233724 3.081979116e-13)
(0.01225685727 -0.04215213545 2.878253191e-13)
(0.0114091181 -0.03810405323 2.684519274e-13)
(0.0105504118 -0.02661720581 1.874056466e-13)
(0.0116263413 -0.03023069592 2.063904603e-13)
(0.01065232521 -0.02561425057 1.749295153e-13)
(0.009555117434 -0.02229243925 1.569855357e-13)
(0.005207034395 -0.009902195068 6.983302825e-14)
(0.006137306473 -0.01202976564 8.226752612e-14)
(0.004425217559 -0.008167552103 5.58858515e-14)
(0.003625784259 -0.006492481484 4.582445534e-14)
(0.0002393971334 -0.0003644945261 2.567390744e-15)
(0.0004112645495 -0.000645522952 4.413136523e-15)
(1.044054007e-05 -1.560732228e-05 9.714451465e-17)
(0 0 0)
(0 0 0)
(0 0 0)
(0 0 0)
(0 0 0)
(0 0 0)
(0 0 0)
(0 0 0)
(0 0 0)
(0 0 0)
(0 0 0)
(0 0 0)
(0 0 0)
(0 0 0)
(0 0 0)
(0 0 0)
(0 0 0)
(0 0 0)
(0 0 0)
(0 0 0)
(0 0 0)
(0 0 0)
(0 0 0)
(0 0 0)
(0 0 0)
(0 0 0)
(0 0 0)
(0 0 0)
(0 0 0)
(-1.472954532e-05 -2.382533685e-05 1.387778781e-16)
(-4.019287717e-07 -6.331941502e-07 0)
(0 0 0)
(-0.001104853966 -0.001860821131 1.169897512e-14)
(-0.001394503544 -0.002412921653 1.476596623e-14)
(-0.002893072327 -0.005264774519 3.222422329e-14)
(-0.002468281085 -0.004372278332 2.750577544e-14)
(-0.008015745687 -0.0168209361 1.059985433e-13)
(-0.008724637854 -0.01880566291 1.153382945e-13)
(-0.01059769191 -0.0243479 1.494221413e-13)
(-0.01004130101 -0.02246208987 1.416367024e-13)
(-0.01388138282 -0.03876561306 2.447902991e-13)
(-0.01445244937 -0.04143395868 2.546296507e-13)
(-0.01483400054 -0.04636878067 2.85022006e-13)
(-0.01431838109 -0.04360629728 2.75404699e-13)
(-0.01291953114 -0.05400455228 3.410605132e-13)
(-0.01318515548 -0.05650483246 3.472083732e-13)
(-0.01186274637 -0.05798477336 3.562150575e-13)
(-0.01170232099 -0.05584693505 3.526900993e-13)
(-0.006823104718 -0.05686731972 0)
(-0.00691961457 -0.0584922007 0)
(-0.006074661646 -0.05849309568 0)
(-0.005183639172 -0.05845808557 0)
(-0.005128386292 -0.05765387205 0)
(-0.005106314221 -0.05686857737 0)
(2.265096907e-06 -0.05693012603 0)
(-1.20712234e-05 -0.05771113784 0)
(0.0008435693894 -0.05772615928 0)
(0.000853270383 -0.05694513586 0)
(0.006881436576 -0.05712042917 0)
(0.006892248594 -0.05792303503 0)
(0.006908901085 -0.05873817961 0)
(0.007759608061 -0.05877834037 0)
(0.008598243035 -0.05880281364 0)
(0.008590774698 -0.05719131566 0)
(0.01302621267 -0.05482109185 3.434336149e-13)
(0.01323115614 -0.05728841124 3.492761635e-13)
(0.01425081871 -0.05501374302 3.352873534e-13)
(0.01393985532 -0.05232064145 3.276545701e-13)
(0.01412024833 -0.04003460443 2.5061897e-13)
(0.01463023327 -0.04264207384 2.596811655e-13)
(0.01389610747 -0.03744457343 2.280398093e-13)
(0.01326477551 -0.03477274335 2.177008573e-13)
(0.008570631067 -0.01831124808 1.147415496e-13)
(0.009373449625 -0.02057949683 1.254829574e-13)
(0.007387554384 -0.01527128967 9.317546734e-14)
(0.006653592485 -0.01338525906 8.391898287e-14)
(0.001482285038 -0.002535425836 1.59317004e-14)
(0.001852780161 -0.003256135733 1.990074772e-14)
(0.0006638253123 -0.001110979815 6.786238238e-15)
(0.0004516622146 -0.0007357248588 4.62130334e-15)
(0 0 0)
(0 0 0)
(0 0 0)
(0 0 0)
(0 0 0)
(0 0 0)
(0 0 0)
(0 0 0)
(0 0 0)
(0 0 0)
(0 0 0)
(0 0 0)
(0 0 0)
(0 0 0)
(0 0 0)
(0 0 0)
(0 0 0)
(0 0 0)
(0 0 0)
(0 0 0)
(0 0 0)
(0 0 0)
(0 0 0)
(0 0 0)
(0 0 0)
(0 0 0)
(0 0 0)
(0 0 0)
(-0.0001327210237 -0.000237107487 1.276756478e-15)
(-7.563390842e-05 -0.0001319189519 7.21644966e-16)
(-6.187512975e-05 -0.0001053074402 5.967448757e-16)
(-0.002003677106 -0.003744644071 2.119138198e-14)
(-0.002078000496 -0.003979461403 2.198241589e-14)
(-0.003847563033 -0.007747769772 4.282685317e-14)
(-0.003746007135 -0.007361819806 4.170275236e-14)
(-0.01007771765 -0.02344176374 1.330324739e-13)
(-0.01023793705 -0.02439621535 1.350863865e-13)
(-0.01218995039 -0.03094899251 1.714739462e-13)
(-0.01201949745 -0.02979021247 1.691702334e-13)
(-0.0156054112 -0.04819696071 2.739891647e-13)
(-0.01576356888 -0.04985129712 2.765010443e-13)
(-0.01597256112 -0.05502816925 3.05228065e-13)
(-0.01583116448 -0.0532761689 3.028965967e-13)
(-0.01359101601 -0.06252951572 3.553546346e-13)
(-0.01365386926 -0.06425728698 3.562150575e-13)
(-0.01209856262 -0.06481950381 0)
(-0.01206724066 -0.06322912603 3.59184904e-13)
(-0.007063905177 -0.06330258591 0)
(-0.007083317298 -0.06410838707 0)
(-0.00624990976 -0.06411878981 0)
(-0.006230593952 -0.06331425677 0)
(0.006876700565 -0.06353347848 0)
(0.00686686185 -0.06433163498 0)
(0.007699901521 -0.06435015928 0)
(0.007710595893 -0.06355320019 0)
(0.01348374521 -0.06337868393 3.574085472e-13)
(0.01348883585 -0.06510961231 3.582828478e-13)
(0.01484237025 -0.0638155207 3.51010887e-13)
(0.0147839541 -0.06191368102 3.489986078e-13)
(0.01605271955 -0.05067268007 2.855216064e-13)
(0.01624455511 -0.05261042113 2.892408535e-13)
(0.01568840199 -0.04694178007 2.581129754e-13)
(0.01546693791 -0.04511560854 2.542410726e-13)
(0.01100378235 -0.02612117585 1.473682287e-13)
(0.01125205339 -0.02738749192 1.507682867e-13)
(0.009138503575 -0.02093509799 1.153105389e-13)
(0.008903518055 -0.01989436526 1.122990589e-13)
(0.002688203922 -0.005103977155 2.886579864e-14)
(0.003035624663 -0.005908449568 3.258504577e-14)
(0.001447848537 -0.002683223474 1.480759959e-14)
(0.001191893439 -0.00215483254 1.21846977e-14)
(0 0 0)
(0 0 0)
(0 0 0)
(0 0 0)
(0 0 0)
(0 0 0)
(0 0 0)
(0 0 0)
(0 0 0)
(0 0 0)
(0 0 0)
(0 0 0)
(0 0 0)
(0 0 0)
(0 0 0)
(0 0 0)
(0 0 0)
(0 0 0)
(0 0 0)
(0 0 0)
(0 0 0)
(0 0 0)
(0 0 0)
(0 0 0)
(0 0 0)
(0 0 0)
(0 0 0)
(0 0 0)
(-0.0002178691812 -0.0004260340046 2.095545959e-15)
(-0.0001967795164 -0.0003764922586 1.887379142e-15)
(-0.0001726315833 -0.0003230015357 1.665334537e-15)
(-0.002468994267 -0.005071183079 2.611799665e-14)
(-0.002553019745 -0.005362099504 2.700617507e-14)
(-0.004452168281 -0.009831231708 4.952982469e-14)
(-0.004347080176 -0.009387788358 4.836409051e-14)
(-0.01087521083 -0.02777586689 1.433575481e-13)
(-0.01100591083 -0.02873554004 1.450228826e-13)
(-0.0129404348 -0.03598070894 1.81687998e-13)
(-0.01281262858 -0.03485366136 1.799810301e-13)
(-0.01621847652 -0.05487408682 2.836203494e-13)
(-0.01631430293 -0.05639322526 2.850081282e-13)
(-0.01642810376 -0.06181329199 3.124167591e-13)
(-0.01634746472 -0.06021840879 3.11251025e-13)
(-0.01378939824 -0.06922984059 3.576028362e-13)
(-0.01382431767 -0.07084316034 3.57811003e-13)
(-0.01220994101 -0.07114366183 0)
(-0.01218315527 -0.06956653913 0)
(-0.007188041613 -0.06965658133 0)
(-0.007201919691 -0.07044568227 0)
(-0.006370677963 -0.07046055016 0)
(-0.006356690229 -0.06967145122 0)
(0.006779193742 -0.06990089142 0)
(0.006764865272 -0.07069462782 0)
(0.007595946089 -0.07071029719 0)
(0.007610413417 -0.06991696554 0)
(0.01343414252 -0.07001791786 3.591293929e-13)
(0.01340488622 -0.07160982443 3.591710263e-13)
(0.01489793613 -0.07081444854 3.550493233e-13)
(0.01490546745 -0.06914356967 3.545080896e-13)
(0.01673405424 -0.05835118228 2.990246939e-13)
(0.01681455157 -0.06003591322 3.008565619e-13)
(0.01642601912 -0.05414146839 2.713385072e-13)
(0.01631485946 -0.05252797621 2.692013279e-13)
(0.01214266432 -0.03175905993 1.629391067e-13)
(0.01231882531 -0.03296800186 1.654093529e-13)
(0.01022529671 -0.02574389964 1.292299601e-13)
(0.01004211294 -0.02471163168 1.268568584e-13)
(0.003480986944 -0.007271702411 3.738676035e-14)
(0.00362252318 -0.007740239678 3.891331701e-14)
(0.001868138389 -0.003799917269 1.910971381e-14)
(0.0017611571 -0.003502493529 1.801336857e-14)
(0 0 0)
(0 0 0)
(0 0 0)
(0 0 0)
(0 0 0)
(0 0 0)
(0 0 0)
(0 0 0)
(0 0 0)
(0 0 0)
(0 0 0)
(0 0 0)
(0 0 0)
(0 0 0)
(0 0 0)
(0 0 0)
(0 0 0)
(0 0 0)
(0 0 0)
(0 0 0)
(0 0 0)
(0 0 0)
(0 0 0)
(0 0 0)
(0 0 0)
(0 0 0)
(0 0 0)
(0 0 0)
(-0.0003213865913 -0.0006826677664 3.094746681e-15)
(-0.0002897514741 -0.0006032432614 2.789435349e-15)
(-0.0002615850296 -0.0005335814029 2.525757381e-15)
(-0.00276219059 -0.006184892576 2.921274334e-14)
(-0.002846919512 -0.006506192328 3.011479954e-14)
(-0.004816096381 -0.01156953591 5.356826094e-14)
(-0.004711872289 -0.01109084094 5.241640455e-14)
(-0.01132741008 -0.03150116231 1.491029522e-13)
(-0.0114543224 -0.03250131503 1.507127756e-13)
(-0.01337934566 -0.04040916818 1.874611577e-13)
(-0.01325565762 -0.03924318925 1.858374565e-13)
(-0.01655557038 -0.06084447828 2.883526751e-13)
(-0.01664740909 -0.06238771439 2.896571871e-13)
(-0.01671062524 -0.06811564623 3.162747841e-13)
(-0.01663371005 -0.06650422244 3.151923167e-13)
(-0.01392033791 -0.07564581927 3.582828478e-13)
(-0.01395223401 -0.07724890642 3.584355035e-13)
(-0.01231442898 -0.07743892821 0)
(-0.01228856012 -0.07586595711 0)
(-0.007296696944 -0.07595579362 0)
(-0.007310043709 -0.07674183286 0)
(-0.006479931761 -0.07675649727 0)
(-0.006473184605 -0.07636344244 0)
(-0.006466443465 -0.07597071658 0)
(0.006655554879 -0.07624367063 0)
(0.006638868755 -0.07703436564 0)
(0.00746902327 -0.07704870175 0)
(0.007485814373 -0.07625826462 0)
(0.01330521241 -0.07635213529 3.591432707e-13)
(0.01326861724 -0.07791595271 3.590877595e-13)
(0.01473316204 -0.07688471215 3.54216656e-13)
(0.01478604726 -0.07542956422 3.546885008e-13)
(0.01667539934 -0.06374682123 2.996214388e-13)
(0.01659090619 -0.06482562397 2.985389713e-13)
(0.01619271861 -0.05835738419 2.687711165e-13)
(0.01628157851 -0.0574220837 2.699229729e-13)
(0.01217237474 -0.03480046951 1.637578961e-13)
(0.01208787754 -0.03529466074 1.62717062e-13)
(0.01000616285 -0.02747064745 1.267180805e-13)
(0.01008412246 -0.02711114192 1.276340145e-13)
(0.003524560517 -0.008035612042 3.788636072e-14)
(0.00347848638 -0.008096271591 3.740063814e-14)
(0.001762177331 -0.003903766268 1.804112415e-14)
(0.001794721747 -0.003894671931 1.837419106e-14)
(0 0 0)
(0 0 0)
(0 0 0)
(0 0 0)
(0 0 0)
(0 0 0)
(0 0 0)
(0 0 0)
(0 0 0)
(0 0 0)
(0 0 0)
(0 0 0)
(0 0 0)
(0 0 0)
(0 0 0)
(0 0 0)
(0 0 0)
(0 0 0)
(0 0 0)
(0 0 0)
(0 0 0)
(0 0 0)
(0 0 0)
(0 0 0)
(0 0 0)
(0 0 0)
(0 0 0)
(0 0 0)
(-0.0004602517408 -0.001055361699 4.440892099e-15)
(-0.0004226344687 -0.0009512664797 4.066191828e-15)
(-0.0003862509149 -0.000853067641 3.719247132e-15)
(-0.003111859805 -0.007542961353 3.290423489e-14)
(-0.003205208382 -0.007917163451 3.388955783e-14)
(-0.005252141777 -0.01363387716 5.83977311e-14)
(-0.005139258025 -0.01309236026 5.714873019e-14)
(-0.0118428115 -0.03560643966 1.556393903e-13)
(-0.01197680404 -0.03668246944 1.573324804e-13)
(-0.01388664321 -0.04524907707 1.941641292e-13)
(-0.0137568642 -0.04400918892 1.924571613e-13)
(-0.01692511624 -0.06708915467 2.935846011e-13)
(-0.01701945485 -0.06868364393 2.949168687e-13)
(-0.01702004165 -0.07465429802 3.205491428e-13)
(-0.01694196943 -0.07300422783 3.194666753e-13)
(-0.01404414019 -0.08204950513 3.588240816e-13)
(-0.0140734485 -0.0836453491 3.589351039e-13)
(-0.01241628986 -0.08373449858 0)
(-0.01239109878 -0.08216060098 0)
(-0.007402301993 -0.08225016204 0)
(-0.007415186943 -0.08303694101 0)
(-0.006586501202 -0.08305161591 0)
(-0.006579967346 -0.0826582281 0)
(-0.006573398275 -0.08226491406 0)
(0.006516054278 -0.08256005279 0)
(0.006497121959 -0.0833496098 0)
(0.007326487694 -0.08336309051 0)
(0.007345598764 -0.08257375616 0)
(0.01312994079 -0.08245356462 3.582412145e-13)
(0.01306677007 -0.08385613452 3.575195695e-13)
(0.01437660205 -0.08185943102 3.489153411e-13)
(0.01449478196 -0.08079557659 3.509553759e-13)
(0.01600868892 -0.06662610714 2.893102424e-13)
(0.0156746388 -0.06656873844 2.836758606e-13)
(0.01522808061 -0.05959455867 2.539912725e-13)
(0.01550280956 -0.05946630235 2.582517533e-13)
(0.01119992396 -0.03474676164 1.510458425e-13)
(0.01091758238 -0.03453560267 1.473265954e-13)
(0.008852878383 -0.02631688585 1.123268145e-13)
(0.009116205495 -0.02658116336 1.156158502e-13)
(0.002843172278 -0.007023679492 3.058664433e-14)
(0.002690541793 -0.006774670024 2.896294315e-14)
(0.001196209002 -0.002866414049 1.225408663e-14)
(0.001298583691 -0.003053029726 1.329492072e-14)
(0 0 0)
(0 0 0)
(0 0 0)
(0 0 0)
(0 0 0)
(0 0 0)
(0 0 0)
(0 0 0)
(0 0 0)
(0 0 0)
(0 0 0)
(0 0 0)
(0 0 0)
(0 0 0)
(0 0 0)
(0 0 0)
(0 0 0)
(0 0 0)
(0 0 0)
(0 0 0)
(0 0 0)
(0 0 0)
(0 0 0)
(0 0 0)
(0 0 0)
(0 0 0)
(0 0 0)
(0 0 0)
(-0.0005817031329 -0.001432007631 5.606626274e-15)
(-0.0006015762761 -0.001455529643 5.800915304e-15)
(-0.0005491515769 -0.001305534862 5.287437155e-15)
(-0.003510377191 -0.009156258844 3.71092046e-14)
(-0.003629709121 -0.009634498997 3.837208329e-14)
(-0.005759551758 -0.01606206447 6.399047958e-14)
(-0.005617845013 -0.01539641517 6.243616735e-14)
(-0.01240430579 -0.04007533081 1.627309398e-13)
(-0.0125670112 -0.04130154649 1.647848524e-13)
(-0.01445516958 -0.05051584996 2.016165013e-13)
(-0.01429906856 -0.04912915025 1.995625887e-13)
(-0.01731446371 -0.07357566413 2.990663273e-13)
(-0.01742329074 -0.07527099876 3.006067617e-13)
(-0.0173499432 -0.08141165942 3.25114935e-13)
(-0.01726198515 -0.07968547512 3.238798119e-13)
(-0.01415731136 -0.08841361807 3.591432707e-13)
(-0.01418399649 -0.08999569887 3.591710263e-13)
(-0.01251581386 -0.09002824688 0)
(-0.01249095844 -0.08845470879 0)
(-0.007502991659 -0.08854366964 0)
(-0.007515180779 -0.0893303882 0)
(-0.006688063446 -0.08934485161 0)
(-0.006681893108 -0.08895134746 0)
(-0.006675691564 -0.08855813639 0)
(0.00635880805 -0.08886108251 0)
(0.006337620383 -0.0896480022 0)
(0.007166705728 -0.08966081963 0)
(0.00718814926 -0.08887390461 0)
(0.01281975712 -0.08764106191 3.538419557e-13)
(0.01270652502 -0.08866702418 3.517602876e-13)
(0.01379036753 -0.08519878107 3.379380109e-13)
(0.01397015229 -0.08460829801 3.41532358e-13)
(0.01473207651 -0.06632409533 2.67688649e-13)
(0.0144827097 -0.06644381027 2.635253127e-13)
(0.01372695376 -0.05796167485 2.299133106e-13)
(0.01416272915 -0.05870778055 2.369771046e-13)
(0.009646487811 -0.03227075203 1.303818165e-13)
(0.00904150523 -0.030791684 1.222633106e-13)
(0.007008771523 -0.02242217498 8.906764215e-14)
(0.007615500448 -0.02393395589 9.67559366e-14)
(0.001908853515 -0.005078816756 2.055300374e-14)
(0.00166706462 -0.004514789688 1.795785742e-14)
(0.0005414173783 -0.001395439235 5.551115123e-15)
(0.0006814672592 -0.00172552886 6.980527267e-15)
(0 0 0)
(0 0 0)
(0 0 0)
(0 0 0)
(0 0 0)
(0 0 0)
(0 0 0)
(0 0 0)
(0 0 0)
(0 0 0)
(0 0 0)
(0 0 0)
(0 0 0)
(0 0 0)
(0 0 0)
(0 0 0)
(0 0 0)
(0 0 0)
(0 0 0)
(0 0 0)
(0 0 0)
(0 0 0)
(0 0 0)
(0 0 0)
(0 0 0)
(0 0 0)
(0 0 0)
(0 0 0)
(-0.001034196067 -0.002719933902 9.964251646e-15)
(-0.0009428676063 -0.002439962074 9.076073226e-15)
(-0.0008069402183 -0.002054339759 7.771561172e-15)
(-0.00401321791 -0.01120518697 4.241051954e-14)
(-0.004311755174 -0.01223513654 4.554689959e-14)
(-0.006538206544 -0.0194863443 7.258083023e-14)
(-0.00617326942 -0.01810539857 6.855627177e-14)
(-0.01311682078 -0.04529015133 1.717098685e-13)
(-0.01335907177 -0.0468615242 1.747768597e-13)
(-0.01517844201 -0.05658631808 2.111089081e-13)
(-0.01497931716 -0.05497449981 2.08499884e-13)
(-0.01777947227 -0.08055224392 3.056721543e-13)
(-0.01783897763 -0.08206858915 3.063382881e-13)
(-0.01773364336 -0.08854742112 3.305133944e-13)
(-0.01763372523 -0.08673205994 3.291117379e-13)
(-0.01426209394 -0.09471800595 0)
(-0.01428910328 -0.09629135841 0)
(-0.01261842944 -0.09632109768 0)
(-0.01260507599 -0.09553469292 0)
(-0.01259194052 -0.09474821105 0)
(-0.007598743424 -0.0948370847 0)
(-0.007604718972 -0.09522993425 0)
(-0.007191047975 -0.09523702175 0)
(-0.007185110985 -0.09484428119 0)
(-0.0004236051396 -0.09506157505 0)
(-0.0004317458067 -0.095257412 0)
(-0.0004385697974 -0.09545330958 0)
(-3.347704336e-05 -0.09545610846 0)
(-1.789268735e-05 -0.09506467777 0)
(0.006171129876 -0.09514667411 0)
(0.006143934672 -0.09593019316 0)
(0.006116414506 -0.09671348689 0)
(0.007779473179 -0.09673975957 0)
(0.007832411519 -0.09517214644 0)
(0.007002080056 -0.09515948906 0)
(0.01228165852 -0.09098357024 3.431144258e-13)
(0.01207110129 -0.09116621393 3.382294445e-13)
(0.01285300423 -0.08572107667 3.17981752e-13)
(0.01319233068 -0.08635899704 3.256145353e-13)
(0.01325293108 -0.06418270045 2.420008638e-13)
(0.0127762173 -0.06295768517 2.335631688e-13)
(0.01184066222 -0.05365236727 1.990768661e-13)
(0.01233964811 -0.05496248882 2.072786387e-13)
(0.007493169053 -0.02687601314 1.014466289e-13)
(0.007042035317 -0.02568360105 9.53820356e-14)
(0.005149496103 -0.01763690893 6.553091403e-14)
(0.005546665187 -0.01868358951 7.055467321e-14)
(0.0007882693322 -0.002247201752 8.493206138e-15)
(0.0006407859899 -0.001857333861 6.911138328e-15)
(5.080329879e-05 -0.0001401650202 5.134781489e-16)
(9.706296014e-05 -0.0002633787229 9.853229344e-16)
(0 0 0)
(0 0 0)
(0 0 0)
(0 0 0)
(0 0 0)
(0 0 0)
(0 0 0)
(0 0 0)
(0 0 0)
(0 0 0)
(0 0 0)
(0 0 0)
(0 0 0)
(0 0 0)
(0 0 0)
(0 0 0)
(0 0 0)
(0 0 0)
(0 0 0)
(0 0 0)
(0 0 0)
(0 0 0)
(0 0 0)
(0 0 0)
(0 0 0)
(0 0 0)
(0 0 0)
(0 0 0)
(-0.0009807563143 -0.002757602434 9.492406861e-15)
(-0.001108337323 -0.003069173888 1.071365219e-14)
(-0.00118432592 -0.003229342858 1.144917494e-14)
(-0.00477510542 -0.01427838845 5.068168107e-14)
(-0.004621623038 -0.0140341232 4.90579799e-14)
(-0.006892055277 -0.02198057969 7.684131109e-14)
(-0.00707586951 -0.02222251795 7.890910148e-14)
(-0.01395703411 -0.05158704935 1.833949659e-13)
(-0.01373191325 -0.05152876983 1.803834859e-13)
(-0.01552421974 -0.06190313397 2.167571678e-13)
(-0.01574397831 -0.06184435196 2.199351812e-13)
(-0.01817870048 -0.08814453873 3.136102489e-13)
(-0.01803208259 -0.08871055948 3.107653024e-13)
(-0.01778715579 -0.09499284425 3.327615961e-13)
(-0.01789297143 -0.09420311339 3.351346978e-13)
(-0.01418556835 -0.1010302202 0)
(-0.01421433687 -0.1026037965 0)
(-0.01253899904 -0.1026344254 0)
(-0.01252461811 -0.1018478201 0)
(-0.01251023051 -0.1010608492 0)
(-0.007484290111 -0.1011527347 0)
(-0.007498677715 -0.1019397056 0)
(-0.00666104535 -0.1019550194 0)
(-0.006653848207 -0.1015613512 0)
(-0.006646657746 -0.1011680485 0)
(-0.007065473929 -0.1011603916 0)
(-0.0007830496313 -0.1012752485 0)
(-0.0007902393915 -0.1016685512 0)
(-0.0007974361842 -0.1020622194 0)
(4.022191845e-05 -0.1020775337 0)
(5.460952191e-05 -0.1012905628 0)
(0.005918193252 -0.1013977624 0)
(0.005889424728 -0.1029713386 0)
(0.007537964718 -0.1026075547 3.57811003e-13)
(0.007587945653 -0.1013480773 3.588934705e-13)
(0.011453337 -0.09155445732 3.239630786e-13)
(0.01117170402 -0.09097540172 3.170519403e-13)
(0.01170375622 -0.08394991581 2.925298892e-13)
(0.01204372541 -0.08486536586 3.00259817e-13)
(0.01112287017 -0.05763422307 2.039479696e-13)
(0.01067351703 -0.05621919074 1.959266083e-13)
(0.009504632786 -0.04596953547 1.60232938e-13)
(0.01015575309 -0.04835239638 1.711408792e-13)
(0.005314133385 -0.0203391993 7.20534743e-14)
(0.004630818969 -0.01799966579 6.279698983e-14)
(0.003145359061 -0.01148008304 4.00651734e-14)
(0.003584327446 -0.01288055672 4.563016631e-14)
(0.0001319221801 -0.0004012910684 1.415534356e-15)
(5.958771296e-05 -0.0001841215318 6.383782392e-16)
(0 0 0)
(0 0 0)
(0 0 0)
(0 0 0)
(0 0 0)
(0 0 0)
(0 0 0)
(0 0 0)
(0 0 0)
(0 0 0)
(0 0 0)
(0 0 0)
(0 0 0)
(0 0 0)
(0 0 0)
(0 0 0)
(0 0 0)
(0 0 0)
(0 0 0)
(0 0 0)
(0 0 0)
(0 0 0)
(0 0 0)
(0 0 0)
(0 0 0)
(0 0 0)
(0 0 0)
(0 0 0)
(0 0 0)
(0 0 0)
(-0.0002290903429 -0.0006832670604 2.220446049e-15)
(-0.0004156780754 -0.001222003112 4.024558464e-15)
(-0.0006175536695 -0.001789074343 5.967448757e-15)
(-0.003541631779 -0.01125370187 3.759492717e-14)
(-0.003026057637 -0.009759143586 3.212707878e-14)
(-0.00492742921 -0.01669188927 5.496991751e-14)
(-0.005573562771 -0.01860126868 6.215861159e-14)
(-0.01203345948 -0.04724068149 1.580402476e-13)
(-0.0111570308 -0.04446274334 1.465771948e-13)
(-0.01293987788 -0.05478344124 1.806610417e-13)
(-0.01382969239 -0.05767901382 1.930261506e-13)
(-0.01674726751 -0.08606005126 2.881445083e-13)
(-0.01601113962 -0.08349616999 2.75474088e-13)
(-0.01612597411 -0.09120819456 3.009259508e-13)
(-0.01675492299 -0.09340102707 3.127220705e-13)
(-0.01413938363 -0.1061687642 3.552991235e-13)
(-0.01392306994 -0.1059513835 3.49442697e-13)
(-0.01254131109 -0.108009068 3.561317907e-13)
(-0.01261742839 -0.1072921574 3.589628594e-13)
(-0.007599377574 -0.1074477708 0)
(-0.007628152781 -0.1090217125 0)
(-0.005952851498 -0.1090523408 0)
(-0.005924076292 -0.1074783991 0)
(-0.006761745209 -0.1074630846 0)
(-0.0008981358922 -0.1075702846 0)
(-0.0009269110991 -0.1091442264 0)
(0.0007484011489 -0.1091748548 0)
(0.0007771763558 -0.1076009131 0)
(0.005757065624 -0.1067317243 3.559791351e-13)
(0.005649822424 -0.106605613 3.504418977e-13)
(0.007080234336 -0.1033629064 3.3970049e-13)
(0.00726189469 -0.1043154638 3.478328736e-13)
(0.01023809332 -0.08738388196 2.912392549e-13)
(0.009795878156 -0.08482216223 2.786382236e-13)
(0.009986796598 -0.07605937016 2.498556917e-13)
(0.01050400737 -0.0788723213 2.628591789e-13)