/*--------------------------------*- C++ -*----------------------------------*\
| =========                 |                                                 |
| \\      /  F ield         | OpenFOAM: The Open Source CFD Toolbox           |
|  \\    /   O peration     | Version:  v1912                                 |
|   \\  /    A nd           | Website:  www.openfoam.com                      |
|    \\/     M anipulation  |                                                 |
\*---------------------------------------------------------------------------*/
FoamFile
{
    version     2.0;
    format      ascii;
    class       surfaceVectorField;
    location    "1.39";
    object      Uf;
}
// * * * * * * * * * * * * * * * * * * * * * * * * * * * * * * * * * * * * * //

dimensions      [0 1 -1 0 0 0 0];


internalField   nonuniform List<vector> 
25162
(
(99.99780942 0.009420884844 -2.184443967e-21)
(99.99117712 0.008603102132 6.480631794e-21)
(99.9968844 0.02187435855 -2.150247437e-21)
(99.98834212 0.02845445017 2.205917425e-21)
(99.99504802 0.04130073945 -4.282756174e-21)
(99.98181823 0.05795596437 1.297294471e-20)
(99.99787312 0.04565695073 1.311090748e-21)
(99.97026225 0.103246591 -8.474683825e-21)
(99.98768097 0.1005088737 -1.421490683e-21)
(99.99717416 0.08186122414 2.049589944e-21)
(99.99897626 0.04867067546 1.005414129e-21)
(99.98576623 0.1324475007 2.0307374e-21)
(99.99675396 0.07476602257 9.865244738e-22)
(99.99759558 0.05954377062 -1.029328208e-21)
(99.99603456 0.09362680052 9.864841812e-22)
(99.97853843 0.2089256151 1.958294683e-21)
(99.99572847 0.1165754361 0)
(99.99556478 0.14144212 -3.50530538e-21)
(99.97284953 0.3103286502 -3.505287136e-21)
(99.99504822 0.1704803588 -9.058812569e-22)
(99.99450585 0.2031511316 3.05182283e-21)
(99.96647562 0.4407457145 3.285569221e-21)
(99.99406464 0.2390401674 4.03453219e-22)
(99.99381058 0.277196172 -2.54071873e-21)
(99.96351187 0.592691924 3.677562156e-22)
(99.99382767 0.316232491 -2.4870217e-21)
(99.99418895 0.3542226618 4.605584301e-22)
(99.96768853 0.7436485669 -1.603344768e-21)
(99.99487302 0.3887768721 2.273730582e-21)
(99.99574162 0.4178036577 1.830469607e-21)
(99.98042688 0.8567575168 -7.794040465e-22)
(99.99693719 0.4387924806 0)
(99.99896341 0.449706047 0)
(100.0001297 0.9002050823 9.981708249e-23)
(100.001464 0.4495651044 0)
(100.0033852 0.4383395178 7.916302891e-22)
(100.0195198 0.8563983247 -1.486811397e-23)
(100.004488 0.4174572212 1.297369397e-21)
(100.0052171 0.389227369 -5.559178588e-22)
(100.0309442 0.7466904338 -7.915995873e-22)
(100.0057684 0.3561001159 -1.462331184e-21)
(100.0060394 0.3201168457 8.0305608e-23)
(100.0344519 0.6035201952 1.985365904e-21)
(100.0060102 0.2832717733 5.206600519e-22)
(100.0057398 0.2472231759 0)
(100.031775 0.4598741331 0)
(100.0053245 0.2132417552 0)
(100.0049443 0.1819981856 7.860664975e-22)
(100.0259572 0.3357677572 1.631648479e-21)
(100.0049133 0.1542459616 -3.977027758e-21)
(100.004679 0.1279863017 -1.488286686e-21)
(100.0209032 0.2323799026 3.215367927e-21)
(100.003957 0.105643941 3.215127991e-21)
(100.0029499 0.08711246986 -8.845784218e-22)
(100.012401 0.1566452642 -4.184066092e-23)
(100.0009348 0.07386344214 1.733406416e-21)
(100.0073043 0.06988864779 -7.642416962e-21)
(100.0422333 0.1723384698 3.16286467e-22)
(100.015594 0.15735682 -2.708013519e-21)
(100.0026161 0.07258677101 -1.560091763e-21)
(100.0050114 0.03991485367 -9.533160365e-22)
(100.0280305 0.1044948575 1.51272727e-20)
(100.0040498 0.01853975252 -7.648358277e-21)
(100.0200827 0.05499721203 -1.612883704e-20)
(100.0174716 0.01721231002 1.301738914e-21)
(99.97979718 0.02634522304 1.081051868e-20)
(99.96641406 0.01459981829 3.306281617e-22)
(99.97056682 0.0616833674 1.721234218e-20)
(99.95520964 0.04891412618 -1.514812282e-20)
(99.95315513 0.1162460633 9.010266464e-21)
(99.93074961 0.1008899679 -2.33823269e-20)
(99.94572358 0.1794940358 -1.538731445e-21)
(99.88897641 0.182329526 4.501112534e-20)
(99.90802083 0.2268524015 -9.886536155e-21)
(99.9205009 0.2290064188 -2.124780332e-21)
(99.9394902 0.2243312329 4.158078045e-21)
(99.96246319 0.160447713 2.066216801e-21)
(99.94231573 0.259312151 2.001190362e-21)
(99.92298182 0.2857966348 2.045056129e-21)
(99.87117074 0.3756942567 -4.148767988e-21)
(99.90488299 0.3618460329 -3.014265842e-23)
(99.91357775 0.4077765148 1.958602013e-21)
(99.88415097 0.4543695708 -2.418490452e-23)
(99.81107006 0.5915537987 0)
(99.8737659 0.5252938778 0)
(99.84035224 0.6026354542 -2.425618468e-21)
(99.88523925 0.5955432897 -4.747461415e-21)
(99.86913104 0.6304316971 -7.179462474e-23)
(99.8330271 0.7275119402 -1.067564856e-20)
(99.85994104 0.6861673297 -3.670105361e-21)
(99.83173317 0.9072005951 2.882714062e-23)
(99.85660223 0.8521679573 -2.369530884e-21)
(99.78779542 1.047331034 -1.290652699e-20)
(99.82556884 0.9806571052 -3.152009174e-21)
(99.80969318 1.244215378 -5.681962159e-21)
(99.84323551 1.157614107 -5.39319514e-21)
(99.76355617 1.431729002 7.169036576e-22)
(99.8099666 1.329253165 -6.799432753e-21)
(99.8208404 1.596956453 -4.016586637e-24)
(99.86079999 1.468686209 -4.23488411e-21)
(99.78278039 1.827293396 2.107668802e-21)
(99.83246155 1.680172468 -3.152944222e-21)
(99.87861702 1.883473755 -3.301585399e-21)
(99.91916046 1.709226521 -5.324551808e-21)
(99.85938511 2.139328631 1.878646394e-20)
(99.90085646 1.947092803 -2.535259611e-21)
(99.9739306 2.023912692 4.010770422e-23)
(100.0028605 1.810039463 -7.00533085e-22)
(99.97892252 2.274746331 -8.733235818e-22)
(99.99982542 2.04924089 4.011079758e-23)
(100.0767774 1.97643581 2.930589332e-22)
(100.0719512 1.735105228 -3.587175724e-23)
(100.1002401 2.187027948 3.768393329e-22)
(100.0981458 1.945842976 -1.054388031e-21)
(100.1503586 1.759383981 -3.303577159e-22)
(100.1139122 1.520253528 -2.502914762e-22)
(100.1803799 1.916741312 -7.41250308e-23)
(100.1603482 1.688006073 2.557439305e-21)
(100.1798093 1.444307941 2.678661307e-21)
(100.1276105 1.231595519 4.654849766e-21)
(100.2100163 1.553020236 4.647855702e-21)
(100.1793992 1.355982391 5.741831924e-22)
(100.1723619 1.111585965 -7.189806267e-21)
(100.1179117 0.9388066071 -6.672855212e-21)
(100.1970975 1.181952432 -2.426321811e-21)
(100.1654775 1.026767392 -2.372760679e-21)
(100.1435755 0.8178723235 -5.541977364e-21)
(100.0937294 0.6864395105 5.021049827e-22)
(100.1591227 0.8602110636 -1.466961134e-21)
(100.1339567 0.7478665879 5.959496564e-21)
(100.0841277 0.4590730861 -1.351710007e-20)
(100.1356105 0.6289033018 -1.351604982e-20)
(100.1879264 0.6739825015 1.365456418e-20)
(100.1150979 0.5178013229 -2.753469675e-20)
(100.0960076 0.4236406739 1.194026914e-20)
(100.1321756 0.4483369701 -1.656364156e-20)
(100.0774838 0.3447668856 2.411716623e-20)
(100.0584126 0.3069541283 2.677568521e-20)
(100.0690847 0.2025282748 2.253504774e-20)
(100.1585344 0.318699057 -1.581828993e-22)
(100.1238229 0.3648148095 4.775674494e-20)
(100.0728875 0.287906799 2.563401118e-21)
(100.0483116 0.1163023123 -7.122039179e-22)
(100.108928 0.1919576256 3.22767642e-20)
(100.0377818 0.05291421331 -7.527426786e-21)
(100.0798383 0.1010624282 -1.710790782e-20)
(100.0673822 0.03154797934 7.647698072e-21)
(99.9452397 0.0357080822 -2.597987208e-20)
(99.93269418 0.01568661402 -1.298519306e-20)
(99.9198274 0.08506173805 -5.615125092e-20)
(99.90869819 0.05415407104 1.187948234e-20)
(99.87324227 0.1628509975 1.098994043e-20)
(99.85768988 0.1162688383 -4.752125748e-20)
(99.82701549 0.2731785821 2.865513161e-20)
(99.77407022 0.2166470342 5.159483439e-20)
(99.76804175 0.2981803819 -4.36977543e-20)
(99.85349151 0.2871256888 -8.512541122e-21)
(99.7747596 0.3286386791 -6.298749503e-20)
(99.79546254 0.3573795545 -4.259407019e-21)
(99.7743014 0.4762909635 -8.254665283e-21)
(99.74610329 0.4632702946 -4.111882051e-21)
(99.65381359 0.5560376897 2.888031679e-20)
(99.68957536 0.5922906571 8.081958879e-21)
(99.67051066 0.7577930951 -7.124385852e-21)
(99.62531248 0.7488879134 5.280556053e-21)
(99.49411896 0.8980301913 -4.06399776e-20)
(99.58989727 0.9038401435 2.808387235e-21)
(99.52274078 0.9711765683 -1.762974048e-20)
(99.57868567 1.10855861 -7.185785145e-21)
(99.54355905 1.110231413 0)
(99.46711971 1.222884099 7.476755898e-21)
(99.51017732 1.229463485 -7.141071576e-21)
(99.46240927 1.627639426 3.451563312e-21)
(99.41114307 1.644853835 1.350427435e-20)
(99.31729375 1.809109066 6.680917272e-21)
(99.38206755 1.799960802 1.675320946e-20)
(99.39237986 2.265694088 2.39936196e-20)
(99.32141078 2.313177652 2.977573153e-20)
(99.22656548 2.532448385 5.191047308e-21)
(99.31572655 2.489893809 2.967159906e-20)
(99.43767533 2.929084089 3.751222798e-20)
(99.35264083 3.026200649 -6.314343758e-20)
(99.276595 3.29629311 2.022225687e-20)
(99.38432209 3.196125674 -1.231099492e-19)
(99.62763028 3.485325055 1.019611859e-19)
(99.54414734 3.652969554 -1.959624295e-21)
(99.51478498 3.954468843 2.101033391e-19)
(99.61928982 3.771021842 4.678736802e-20)
(99.95059276 3.748006516 3.875871427e-20)
(99.89541381 3.992618093 3.681638597e-21)
(99.93235208 4.277283707 -7.145767389e-23)
(99.99688766 4.009228298 5.195132751e-21)
(100.2857263 3.603741554 -2.350617783e-20)
(100.2857046 3.895082337 8.86638898e-22)
(100.3726195 4.111596522 -1.562657557e-20)
(100.3682577 3.798851154 -5.300034936e-22)
(100.4990259 3.114416328 -2.992057764e-20)
(100.5497691 3.399357369 -5.062627993e-20)
(100.6484848 3.53137394 -4.993807525e-20)
(100.5872849 3.236829694 2.285936186e-20)
(100.568628 2.489028355 -4.144457112e-22)
(100.6428496 2.728668953 -1.239873661e-21)
(100.7288803 2.795053577 -2.055417941e-21)
(100.6449851 2.557089248 3.213037373e-21)
(100.5285422 1.870023107 -6.614825798e-21)
(100.6096349 2.06146981 -1.550161528e-20)
(100.6758525 2.089816666 -5.349586387e-21)
(100.5873285 1.903946947 5.832913295e-21)
(100.506648 1.479147874 -1.816745285e-20)
(100.4350269 1.337612441 -1.22160772e-20)
(100.5539956 1.485295544 -1.223255107e-20)
(100.4798968 1.35175551 6.475815578e-21)
(100.3306499 0.8716000853 -5.346074856e-20)
(100.4447101 1.068352861 -2.800827821e-20)
(100.51208 1.046817203 -8.108891123e-20)
(100.3804154 0.8750434292 -3.861303367e-20)
(100.2355891 0.5763241544 -6.057616655e-20)
(100.3213983 0.7110846747 2.418647782e-20)
(100.364715 0.6853629171 -2.875590193e-20)
(100.2675707 0.5735590123 -2.513380484e-20)
(100.1912084 0.3043344183 1.017789175e-20)
(100.3313303 0.414960893 -2.574370276e-20)
(100.3171343 0.5101877128 -1.32303495e-22)
(100.2365284 0.4668666097 -1.476102474e-20)
(100.135481 0.1738286282 1.513192635e-20)
(100.2316875 0.2473946071 2.686204878e-20)
(100.1053978 0.07855428066 -1.920582397e-21)
(100.1697196 0.1291182576 -3.871044932e-21)
(100.1414647 0.04001957441 0)
(99.90263281 0.03297087392 2.608939333e-20)
(99.90161723 0.01003684743 -4.358312133e-21)
(99.8544505 0.08284102778 2.197897697e-20)
(99.86169612 0.03824347437 3.048536241e-20)
(99.76789326 0.1684181055 -8.731765436e-21)
(99.77706859 0.0943039629 -4.29493884e-21)
(99.65911414 0.3113019809 0)
(99.63976893 0.1909011816 6.670982295e-21)
(99.58922755 0.3114639158 2.022037203e-20)
(99.67946394 0.3531254832 -5.890133823e-20)
(99.57749865 0.3570204088 1.520247289e-20)
(99.58770361 0.4197943055 0)
(99.51318723 0.6102979 1.702019499e-22)
(99.49160222 0.5549670724 -3.336936657e-20)
(99.35650411 0.6353673554 -3.334691807e-20)
(99.37808603 0.722401867 6.755209483e-20)
(99.28472106 1.005103238 -1.002025757e-19)
(99.24619087 0.9281117729 3.778377686e-20)
(99.05195408 1.067953396 -6.709777765e-20)
(99.14523067 1.168758192 -3.343677033e-20)
(99.05095711 1.190017029 -5.482337867e-20)
(99.05521293 1.508010183 7.8607503e-21)
(99.01604752 1.46438656 1.559742133e-20)
(98.89371603 1.579093903 3.954659249e-20)
(98.93780235 1.637025512 7.795400955e-21)
(98.77093626 2.288363848 -6.222178706e-20)
(98.70361786 2.245191775 -2.385306358e-20)
(98.55609118 2.414784875 3.085679024e-20)
(98.63523652 2.474002515 -2.085203309e-19)
(98.5855509 3.263122524 1.147736057e-19)
(98.47858618 3.237267694 6.009679057e-20)
(98.31974927 3.47623264 -3.012848624e-19)
(98.44806606 3.516155034 3.699292404e-21)
(98.6127743 4.382158586 3.865226306e-19)
(98.45891523 4.406484442 -1.37256354e-21)
(98.31991018 4.733001907 7.95794218e-19)
(98.50686498 4.710800085 3.754019251e-19)
(99.00995458 5.446372905 4.454635924e-19)
(98.82308611 5.57602647 1.897276164e-19)
(98.768101 5.977886127 4.323058139e-19)
(98.99133824 5.822895952 -2.085744743e-19)
(99.81893764 6.040551151 1.355568819e-19)
(99.66147412 6.31922605 3.037382859e-20)
(99.75090784 6.707851254 1.226278029e-19)
(99.92013712 6.377285038 0)
(100.7168156 5.80572326 -2.985303442e-20)
(100.6742985 6.191683719 -4.802644632e-21)
(100.8664933 6.446348342 1.248235158e-19)
(100.8872191 6.016439854 -6.083225157e-20)
(101.2588183 4.87195352 -2.00134189e-20)
(101.3367784 5.256593661 1.737109605e-19)
(101.5291927 5.355378191 2.122321252e-19)
(101.4195142 4.954910732 -1.521604778e-19)
(101.3646954 3.716558968 -2.347068692e-19)
(101.4985871 4.023020706 -1.260719438e-19)
(101.6381561 4.025309946 -1.619929944e-19)
(101.4816483 3.723641418 8.880167629e-20)
(101.2266485 2.694392649 1.864710392e-19)
(101.3590524 2.909885491 4.449416381e-20)
(101.4491758 2.869549051 1.185605342e-21)
(101.3043721 2.66928865 3.592459966e-19)
(101.1156231 2.031795853 0)
(100.9975799 1.877639773 4.888969934e-20)
(101.1730165 1.987730141 0)
(101.0477225 1.845104696 0)
(100.7295772 1.192274213 2.926957057e-20)
(100.9180095 1.399624641 1.898994728e-20)
(100.9787332 1.300827661 -1.641352185e-20)
(100.7810793 1.133855987 3.669643293e-20)
(100.519681 0.7715066847 -3.333734215e-20)
(100.6589654 0.9105030364 -1.489511441e-20)
(100.6944691 0.8319475818 -1.502148524e-20)
(100.5520365 0.7241500305 -7.3256899e-21)
(100.3604928 0.3558878585 -9.400713714e-21)
(100.5457939 0.4401154668 -1.925897306e-20)
(100.5792452 0.5948778497 -2.559212294e-21)
(100.4766811 0.5730998295 5.844718357e-21)
(100.2557317 0.2002093269 7.718496336e-21)
(100.3784394 0.2578806839 1.171215707e-20)
(100.197319 0.08939268467 -1.950117371e-21)
(100.2742262 0.1312222719 -3.438393377e-21)
(100.2257671 0.04010470777 -4.932396778e-22)
(99.86755007 0.0148384599 0)
(99.88764271 -0.00329157858 0)
(99.79293062 0.04797023743 4.424615277e-21)
(99.83051546 -0.002029524454 0)
(99.6588901 0.1190561489 1.125203726e-20)
(99.71014571 0.02824306321 -3.542913232e-21)
(99.47426326 0.2784525777 1.854061487e-20)
(99.50949941 0.09818107579 2.474677679e-20)
(99.4074339 0.2367270644 -7.438574611e-21)
(99.47526016 0.338883302 2.618509284e-20)
(99.37106023 0.2969150381 2.09500354e-21)
(99.35147885 0.3896392663 -1.065290468e-20)
(99.18981276 0.6271334926 0)
(99.19276152 0.5331567486 -2.20129555e-20)
(99.0195064 0.5818094066 -1.810629415e-20)
(99.00412397 0.7150161497 4.489413231e-21)
(98.79529131 1.078535751 0)
(98.78360961 0.9448106074 4.488932579e-21)
(98.52744143 1.034401644 -4.651040221e-21)
(98.57503618 1.234070608 2.23014278e-20)
(98.46739052 1.226906938 5.791450737e-21)
(98.35081666 1.691172146 2.553350158e-19)
(98.32499685 1.595658947 0)
(98.15625031 1.690022825 -3.519862795e-20)
(98.18516254 1.802101746 1.297502834e-19)
(97.82084878 2.660427512 1.452909093e-19)
(97.75763431 2.542522538 -1.228681299e-19)
(97.54961527 2.683140236 1.450492564e-19)
(97.6170669 2.832245338 2.872855669e-19)
(97.35466342 3.976297419 -5.571744687e-19)
(97.23021709 3.848103205 -4.267361261e-19)
(96.97682639 4.08145939 -1.172101385e-18)
(97.12306056 4.241288791 6.791333362e-19)
(97.1645214 5.706056793 9.345300648e-19)
(96.93860364 5.602069966 4.584227669e-19)
(96.67037476 5.985474837 4.604223692e-19)
(96.94935552 6.112955911 -1.597453785e-21)
(97.70495251 7.698329301 -1.453823106e-21)
(97.34819932 7.732308356 -7.979714375e-20)
(97.19678921 8.317478234 -4.709199073e-19)
(97.63959533 8.251873591 -8.053839571e-20)
(99.3950973 9.075634436 -2.26565949e-20)
(99.02453541 9.415915999 8.884469564e-20)
(99.20658629 10.03544976 1.506872163e-19)
(99.6097818 9.585783672 0)
(101.4775114 8.703157396 1.429096565e-19)
(101.3502129 9.281087112 0)
(101.7641119 9.600954749 4.119653196e-20)
(101.8301957 8.937847933 0)
(102.6196758 6.932246928 2.763092052e-19)
(102.7585026 7.482106828 -5.172909013e-21)
(103.1045532 7.493987609 -3.260793925e-19)
(102.8977582 6.932093693 5.105134202e-21)
(102.6889392 4.913877534 -3.579488677e-19)
(102.9297399 5.308912483 -1.381935072e-19)
(103.1351147 5.193540093 -2.52606817e-19)
(102.8522407 4.819295054 -6.082676694e-20)
(102.2607764 3.328318148 -7.579537923e-22)
(102.4840625 3.572461116 1.059147414e-19)
(102.5791881 3.448734967 -5.542913523e-21)
(102.343178 3.227192535 2.149903759e-19)
(101.9411639 2.378102616 -3.853324661e-21)
(101.7712635 2.227648747 -3.7802897e-21)
(101.9910281 2.273900799 3.347020157e-20)
(101.8164663 2.143655678 2.247967709e-20)
(101.2550501 1.366542639 -9.350069572e-20)
(101.5238944 1.563791357 -5.91307305e-20)
(101.5539947 1.383075603 -3.30243955e-20)
(101.2878308 1.245147236 -1.68653995e-20)
(100.8843203 0.8609509496 1.148810867e-20)
(101.0794397 0.9834977744 3.47128777e-20)
(101.0856486 0.8545845604 -3.871229029e-21)
(100.8994254 0.7689385414 -3.794865077e-21)
(100.5515727 0.3435939709 1.981442187e-21)
(100.7724356 0.3790158983 0)
(100.8728003 0.5753132709 -6.961201913e-23)
(100.7621943 0.5931562593 -1.031646473e-20)
(100.3866174 0.1866339425 4.419737344e-22)
(100.5264284 0.2134190847 1.981263552e-21)
(100.2939558 0.08111725458 -1.984507047e-21)
(100.3737391 0.1021103597 -1.986600361e-21)
(100.3022729 0.03025524783 -1.986392048e-21)
(99.85715399 -0.02007316668 0)
(99.9066001 -0.02432196141 2.170710309e-21)
(99.7560444 -0.02238627027 -8.851353287e-21)
(99.83277899 -0.06653276367 -2.188242639e-21)
(99.57316047 0.009770114434 9.232593104e-21)
(99.67998324 -0.08300324495 -4.380940839e-21)
(99.3047674 0.134539699 1.205738418e-20)
(99.42269238 -0.0636366927 3.739288743e-21)
(99.24832293 0.07010580709 -3.213663106e-23)
(99.27937346 0.2290842964 -8.915968735e-21)
(99.1773402 0.1373307813 -9.055545071e-21)
(99.12427256 0.2429918551 0)
(98.8529187 0.4968170992 -1.810584717e-20)
(98.8967623 0.3723355978 0)
(98.69739712 0.3721009655 -1.308853491e-22)
(98.62390401 0.5384615893 -9.579154322e-23)
(98.25648275 0.9324530007 9.387969627e-21)
(98.29965713 0.753461917 1.405072171e-20)
(97.99712006 0.7710052314 1.899914296e-20)
(97.97086298 1.065878245 -1.567856177e-20)
(97.87125983 0.9947465046 -2.806359278e-20)
(97.5728782 1.552440403 -1.478347621e-19)
(97.58229374 1.416778638 -3.607486558e-20)
(97.38288284 1.459556404 -7.820925083e-20)
(97.36582278 1.619712853 0)
(96.68073038 2.56088675 6.688226852e-19)
(96.66010559 2.37219803 6.822260973e-19)
(96.39045138 2.454641412 1.034097129e-18)
(96.40841088 2.678860197 6.834686322e-19)
(95.70199145 4.092882411 -5.748517231e-19)
(95.61418651 3.8537429 3.380871893e-19)
(95.24048415 3.988732503 1.411276351e-18)
(95.34004195 4.333151699 7.631996446e-19)
(94.79751226 6.53672803 1.1904668e-18)
(94.54742542 6.194426316 -5.79663722e-20)
(94.03816339 6.569211159 1.317802079e-18)
(94.34499694 6.997230767 6.033724124e-19)
(94.93586751 10.29131765 0)
(94.31358127 10.03742153 1.313869474e-19)
(93.82613441 10.95047373 3.018402739e-19)
(94.66628285 11.21809126 2.087643867e-19)
(98.30230801 13.80526356 0)
(97.43213399 14.26841439 -1.581587918e-19)
(97.85086889 15.52008546 0)
(98.83221065 14.75104463 0)
(103.1548002 12.89213475 3.63194833e-19)
(102.9415505 13.90697569 2.526121822e-20)
(103.9191471 14.23308357 -1.466901312e-19)
(103.9231578 13.066591 2.541860289e-20)
(105.1202571 9.204779215 0)
(105.444806 10.00287112 2.14235005e-19)
(106.0408573 9.756039583 1.315811753e-19)
(105.5673013 8.989629767 -4.130333886e-19)
(104.7629909 5.898959939 -2.508545492e-20)
(105.1970671 6.3684063 4.961012102e-20)
(105.419531 6.059544596 -4.787934623e-19)
(104.9367541 5.636409391 -4.789978098e-19)
(103.6801721 3.661379038 4.848376473e-21)
(104.0306326 3.90429645 2.433843338e-19)
(104.0850888 3.665953016 2.540369252e-19)
(103.7301575 3.460465925 -2.441465022e-19)
(102.9356753 2.414331269 7.328948793e-20)
(102.6958474 2.289679528 8.659191591e-22)
(102.9471473 2.248933296 7.903543728e-21)
(102.7132363 2.14656278 -2.469567529e-20)
(101.8643766 1.342302778 2.715650192e-20)
(102.2045891 1.486901374 -2.156945244e-22)
(102.1728344 1.237331931 1.638668816e-20)
(101.8496827 1.157977791 1.221935668e-20)
(101.2876663 0.8087153363 -1.601281774e-20)
(101.5346979 0.8917725164 -8.144789774e-21)
(101.4884232 0.7208464232 -8.146367713e-21)
(101.2657493 0.6782381457 1.236276291e-20)
(100.7343782 0.2538484139 0)
(100.9780644 0.2258047986 1.303374451e-21)
(101.1553134 0.4361167573 -1.092617906e-20)
(101.0545617 0.5077888546 2.714196949e-20)
(100.5028121 0.1272036122 -4.9863339e-22)
(100.6457999 0.1083353303 -1.542830428e-21)
(100.3735456 0.05131280262 -1.995645956e-21)
(100.4452849 0.03989151206 -2.253405803e-21)
(100.3506608 0.01000121188 2.564954773e-21)
(99.8880505 -0.07013224208 -1.6840326e-23)
(99.9727712 -0.05205727781 9.054659808e-23)
(99.76393288 -0.1259950936 2.278821077e-21)
(99.88554025 -0.1517046934 -1.090385305e-22)
(99.53876996 -0.1543806639 -1.190891452e-20)
(99.70691919 -0.2326951919 1.818952849e-21)
(99.18528127 -0.08504941416 -1.068570822e-20)
(99.40366157 -0.2867678407 -1.809023877e-20)
(99.15818264 -0.1826876627 -1.546621179e-20)
(99.11798892 0.01909676273 -8.421424674e-21)
(99.05001409 -0.1198105489 -3.385907747e-21)
(98.94820614 -0.01285873747 3.13839208e-23)
(98.56203059 0.2091117528 1.374050674e-20)
(98.65922465 0.07105008003 1.401880322e-20)
(98.45421429 0.01084499837 6.916724794e-21)
(98.31091681 0.1853808265 2.391725914e-20)
(97.77245959 0.5488825731 -7.363262801e-20)
(97.89535516 0.3376019805 -6.901877251e-20)
(97.58984779 0.2691894603 -2.432690398e-20)
(97.44734876 0.5861053943 -1.045353725e-19)
(97.37187475 0.4813555735 1.083894974e-19)
(96.85873948 1.042944637 0)
(96.92179493 0.8812603297 -1.1944912e-19)
(96.70883124 0.8609237471 -4.337682735e-19)
(96.62612716 1.04457959 1.806289206e-19)
(95.56287205 1.907506277 -2.313089068e-21)
(95.61901181 1.667324659 -7.554508395e-19)
(95.31953615 1.652964318 0)
(95.23843018 1.927952238 4.02684301e-19)
(93.85676297 3.310484385 4.551304814e-19)
(93.89637407 2.937944611 6.136944792e-19)
(93.43635359 2.94851652 1.263504601e-18)
(93.36135644 3.381381191 4.456805171e-19)
(91.44148116 5.913558651 0)
(91.3859599 5.275803691 8.43551704e-19)
(90.5613969 5.389241165 0)
(90.58628159 6.21260959 0)
(88.62376307 12.19450151 7.771875539e-19)
(87.91959985 10.99719436 2.036142848e-20)
(86.03450226 12.3143631 -3.471828386e-19)
(86.3065894 11.50170893 -1.052367134e-19)
(87.70463648 13.66990085 1.473290351e-18)
(86.71344737 13.72573545 -5.694980291e-19)
(93.05503841 23.72483614 2.16194899e-19)
(94.42842781 23.36875648 7.262055812e-21)
(93.50257432 25.53144255 -2.083270285e-19)
(95.18796067 24.75028015 -1.755802408e-19)
(108.1585283 20.66153067 0)
(108.2974623 18.90878949 0)
(109.9353924 18.44574445 1.850244287e-19)
(109.0323771 21.4354976 8.389623674e-19)
(111.0565886 20.14563355 -2.713977391e-19)
(110.6814679 20.95228419 0)
(110.5180978 11.94678298 6.167704995e-19)
(109.6616835 10.97459748 -9.657380546e-19)
(111.1627928 11.08203512 -1.740092647e-19)
(110.1408523 10.30399364 -1.755247166e-19)
(107.6600448 6.111832071 -6.286422421e-19)
(108.3878413 6.549847293 -3.070626946e-19)
(108.4863493 5.942845141 6.241426817e-20)
(107.7391801 5.631647007 -9.266045187e-19)
(105.4008047 3.418236934 -8.486699165e-19)
(105.9032101 3.604154575 -2.871785125e-19)
(105.8492758 3.23752553 -2.786163441e-19)
(105.3640762 3.116014095 -2.822108772e-19)
(104.0166809 2.034087612 -2.479188284e-19)
(103.7005495 1.965201559 -2.427333017e-19)
(103.9522813 1.813099926 3.133759362e-20)
(103.6526822 1.764442139 -1.480765656e-19)
(102.4651726 1.064123973 4.274833846e-21)
(102.8620262 1.111875172 -8.243607278e-21)
(102.7266812 0.8224278694 -2.427669053e-21)
(102.3779747 0.833969566 -4.41336391e-21)
(101.6743335 0.5880505363 4.387346288e-21)
(101.9586953 0.6101747954 -2.274794059e-23)
(101.844258 0.4143609126 -7.210807512e-21)
(101.5982569 0.4298203011 8.845801132e-21)
(100.8731862 0.08464531398 -2.053087041e-22)
(101.1095076 -0.01586773616 -2.794564885e-22)
(101.3862913 0.1735200794 8.402943401e-22)
(101.3075751 0.2748055516 6.518980885e-21)
(100.5776335 0.0207019445 -3.301177066e-21)
(100.706003 -0.05447217304 -2.4679451e-22)
(100.4140632 -0.0007919833023 2.477493817e-21)
(100.4655066 -0.05295939346 -2.175666355e-21)
(100.3498984 -0.02000693565 4.037693302e-22)
(99.97459945 -0.1324489561 1.76267749e-23)
(100.0977163 -0.08452925357 -3.219334367e-21)
(99.83382554 -0.2555907675 -5.925007982e-22)
(100.0017271 -0.2513943485 1.39992059e-21)
(99.57856263 -0.3620376603 -4.635906356e-21)
(99.80740809 -0.4090102296 -3.051127501e-21)
(99.1571754 -0.3775711427 9.551070366e-21)
(99.4762799 -0.5517259007 -1.054006743e-21)
(99.16907019 -0.5002436405 1.010514271e-21)
(99.04096441 -0.2799720958 4.699637506e-21)
(99.02650399 -0.4523385554 9.713505724e-21)
(98.87508268 -0.3621116873 6.866437768e-21)
(98.38284785 -0.2160704695 -2.329198258e-21)
(98.54028353 -0.3463392873 3.638748584e-21)
(98.35193729 -0.4658573344 2.401264172e-21)
(98.13929648 -0.3133781562 7.284332439e-21)
(97.46108038 -0.05755806096 5.757737339e-20)
(97.66674381 -0.2616822771 5.166167239e-21)
(97.39382669 -0.4187589426 2.687649882e-21)
(97.12492755 -0.1156570796 -2.199005337e-19)
(97.09425951 -0.2606063866 8.411603068e-20)
(96.36620189 0.2042301636 -1.707954714e-21)
(96.49212512 0.04502022045 -3.656475294e-19)
(96.29274306 -0.04259378661 -1.776249781e-19)
(96.13884334 0.1302808261 -4.532041281e-19)
(94.7604753 0.7059851419 2.085151731e-19)
(94.91720258 0.4651682909 -2.292877891e-19)
(94.63847964 0.3467804421 -2.09668392e-19)
(94.44207975 0.6051892555 -4.212928441e-19)
(92.46930102 1.499803579 -2.8537626e-19)
(92.70086827 1.125235769 -3.823405413e-19)
(92.27676169 0.9401105277 5.119132399e-20)
(91.97078272 1.33860949 -4.020141816e-19)
(88.56523386 2.808387233 4.811690007e-19)
(89.00363125 2.13500146 2.473025133e-20)
(88.27524638 1.751798321 -1.000488923e-18)
(87.6166835 2.454312652 2.29388269e-20)
(80.45092287 5.058187497 1.244871312e-18)
(81.07838658 4.17905137 6.733967406e-20)
(80.24129735 3.510707873 6.408068355e-19)
(79.3151802 4.420217767 -3.288285047e-20)
(125.2622903 23.97790442 2.900905051e-21)
(123.3797411 22.89463659 4.154848549e-19)
(125.9326721 21.96470622 4.148930933e-19)
(124.1050262 21.30680469 4.142454783e-19)
(118.0007932 10.22192969 6.85456401e-19)
(116.2915241 9.722739792 0)
(117.9195844 8.603370974 6.618565657e-19)
(116.3267928 8.484757696 -2.335932897e-19)
(110.9655445 4.738238644 3.058174619e-19)
(111.992009 4.891642454 -9.879713869e-20)
(111.7049986 4.082475618 7.44135576e-19)
(110.7669754 4.080052771 8.474068933e-20)
(107.1073065 2.357665437 -3.293578001e-19)
(107.7245189 2.38078382 -6.745906758e-19)
(107.466561 1.953887719 8.488636252e-21)
(106.9087072 1.991685202 -1.719052116e-19)
(104.9784738 1.163672865 -2.112790759e-19)
(104.6138889 1.185247604 7.716608944e-20)
(104.8088515 0.920988293 3.832313441e-19)
(104.4782981 0.9629450713 3.428483187e-19)
(102.9447782 0.5181257189 -4.740535766e-21)
(103.3680931 0.4501690914 2.691682026e-20)
(103.1078263 0.1595600823 7.477405894e-21)
(102.7692076 0.2767784424 1.12648449e-21)
(101.9767563 0.2024078748 -2.000857524e-21)
(102.2669243 0.1449001955 1.333877112e-20)
(102.0728841 -0.04307324618 4.940278673e-21)
(101.8353878 0.04278927519 9.803314751e-21)
(100.9312825 -0.1514642849 -3.385295039e-22)
(101.1362802 -0.3294066756 -1.042690615e-21)
(101.5062169 -0.1932922266 -1.054943478e-21)
(101.4733644 -0.05243397114 -1.154987848e-21)
(100.5853438 -0.1261567833 1.06459149e-21)
(100.6820211 -0.2620026987 1.29639096e-21)
(100.3944978 -0.0710556887 -4.209937904e-21)
(100.413475 -0.1696295568 1.652976418e-21)
(100.2828535 -0.05780189048 -2.076136526e-21)
(100.1271102 -0.2020785419 -1.836999734e-21)
(100.2883394 -0.1191705667 1.017813573e-21)
(99.97797355 -0.4008423683 -1.072195243e-21)
(100.1892528 -0.3576822397 -7.549987079e-22)
(99.70835442 -0.5954223169 5.504381274e-22)
(99.99100406 -0.59702345 -2.703360835e-22)
(99.24342459 -0.7143713269 6.219051194e-22)
(99.65304323 -0.8351671264 9.156657163e-22)
(99.2998913 -0.8510979698 5.47238502e-22)
(99.07890547 -0.6386438676 1.594358833e-21)
(99.12964589 -0.827910921 -1.570650321e-23)
(98.93420055 -0.7680414976 -1.570873716e-23)
(98.36619433 -0.7316066884 -2.396615781e-21)
(98.57866453 -0.8339654969 0)
(98.42701666 -1.005721053 -1.178311678e-21)
(98.15895261 -0.8982707465 -1.253695437e-21)
(97.39206404 -0.8017459172 1.908341374e-20)
(97.66994877 -0.9644032141 1.787131925e-20)
(97.45747567 -1.193008453 -6.736972604e-21)
(97.08045078 -0.950401972 2.683095822e-19)
(97.10292578 -1.113467127 2.532636309e-19)
(96.22159227 -0.8268816588 5.528579836e-20)
(96.40170426 -0.9568889866 3.571879346e-19)
(96.24447493 -1.095341174 4.194301199e-19)
(96.02800879 -0.9641979735 4.691355221e-19)
(94.51713692 -0.7802812394 -4.421035142e-19)
(94.75095184 -0.9676876448 -1.77276718e-20)
(94.54978996 -1.15376686 1.21801019e-20)
(94.26151973 -0.9687391279 -6.722050441e-19)
(92.14501142 -0.7643123725 9.527126409e-19)
(92.51136425 -1.018177488 2.946399133e-20)
(92.2266085 -1.29953522 5.932111738e-20)
(91.7998977 -1.068197818 1.482505219e-19)
(88.45630091 -1.167323701 -4.963123486e-19)
(89.11063182 -1.465123618 -5.086472968e-19)
(88.73767314 -1.958006482 -4.042784273e-21)
(87.99772759 -1.750372149 -1.384396576e-19)
(83.47531551 -3.454474084 1.131134173e-18)
(84.06680187 -3.43884502 -1.635897037e-18)
(84.02255587 -3.89946234 1.092237293e-18)
(83.49061649 -4.011597228 1.113490527e-18)
(138.866578 6.899900753 -2.67780557e-18)
(137.1375079 7.856553915 1.187844887e-18)
(137.5656182 5.488937635 1.407955179e-20)
(136.1215883 6.458783599 -1.10100683e-19)
(123.1797737 2.936195924 -7.744602931e-20)
(121.4334662 3.591083981 1.461974647e-18)
(121.9814548 1.606882034 6.236296181e-20)
(120.6015004 2.379707579 1.402095331e-18)
(113.3711637 1.473621332 4.85590322e-19)
(114.4284129 1.143019172 -1.482438176e-19)
(113.6750903 0.4569085986 1.319615217e-18)
(112.7948751 0.8558837809 1.59937542e-19)
(108.2799359 0.4654119411 7.04660338e-19)
(108.9069073 0.26385151 1.098650796e-18)