/*--------------------------------*- C++ -*----------------------------------*\
| =========                 |                                                 |
| \\      /  F ield         | OpenFOAM: The Open Source CFD Toolbox           |
|  \\    /   O peration     | Version:  v1912                                 |
|   \\  /    A nd           | Website:  www.openfoam.com                      |
|    \\/     M anipulation  |                                                 |
\*---------------------------------------------------------------------------*/
FoamFile
{
    version     2.0;
    format      ascii;
    class       surfaceScalarField;
    location    "2.88";
    object      meshPhi;
}
// * * * * * * * * * * * * * * * * * * * * * * * * * * * * * * * * * * * * * //

dimensions      [0 3 -1 0 0 0 0];
oriented        oriented;


internalField   nonuniform List<scalar> 
25162
(
0
0
0
0
0
0
0
0
0
0
0
0
0
0
0
0
0
0
0
0
0
0
0
0
0
0
0
0
0
0
0
0
0
0
0
0
0
0
0
0
0
0
0
0
0
0
0
0
0
0
0
0
0
0
0
0
0
0
0
0
0
0
0
0
0
0
0
0
0
0
0
0
0
0
0
0
0
0
0
0
0
0
0
0
0
0
0
0
0
0
0
0
0
0
0
0
0
0
0
0
0
0
0
0
2.211814353e-09
9.202754761e-08
-1.030540311e-06
0
-3.118321892e-09
8.761047962e-07
0
0
0
0
0
0
0
0
0
0
0
0
0
0
0
0
0
0
0
0
0
0
0
0
0
0
0
0
0
0
0
0
0
0
0
0
0
0
0
0
0
0
0
0
0
0
0
0
0
0
0
0
0
0
0
0
0
0
0
0
0
0
0
0
0
0
-1.013888144e-08
-1.525880271e-06
9.729420316e-07
9.639322994e-06
-3.809563496e-06
-8.495112302e-05
8.852820509e-06
0.0001200875355
-4.015722478e-06
-0.0002227660532
5.803749473e-06
0.0002496583318
2.159692306e-06
-0.0002895798554
-5.454503617e-06
0.0002868085714
4.920853185e-06
-0.0002309022797
-9.678182679e-06
0.0001991981593
2.055741368e-06
-8.916802854e-05
-5.415406984e-06
5.562308065e-05
0
-1.647155136e-06
-1.382648891e-07
0
0
0
0
0
0
0
0
0
0
0
0
0
0
0
0
0
0
0
0
0
0
0
0
0
0
0
0
0
0
0
0
0
0
0
0
0
0
0
0
0
0
0
0
0
0
0
0
0
0
0
-5.056827627e-07
-3.282903025e-06
2.758639157e-06
2.337287034e-05
-2.100905296e-05
-0.0002023257827
3.334593237e-05
0.0002887838175
-3.129296813e-05
-0.0005768785463
3.864770749e-05
0.000671427873
-1.396040346e-06
-0.0009121816798
-5.607321693e-06
0.0009710043674
3.323108227e-05
-0.001062561381
-4.96940277e-05
0.001061873691
3.943689261e-05
-0.0009621520994
-5.562425021e-05
0.0008976494618
2.394039207e-05
-0.0006302973636
-3.317416235e-05
0.0005255816471
8.344824893e-06
-0.0002200183347
-1.283893845e-05
0.0001366757027
0
-3.356914833e-06
-4.164811853e-07
0
0
0
0
0
0
0
0
0
0
0
0
0
0
0
0
0
0
0
0
0
0
0
0
0
0
0
0
0
0
0
0
0
0
0
0
0
0
0
0
0
0
0
0
0
1.658971358e-07
1.251963232e-06
-2.600192102e-05
-0.0001507843537
4.000967473e-05
0.0002572725135
-7.969851573e-05
-0.0006773804385
9.568829183e-05
0.0008345103962
-5.004075852e-05
-0.0012919095
4.907742964e-05
0.001426664305
4.346640578e-05
-0.001740454882
-5.930532271e-05
0.001810709853
0.0001142581521
-0.001916989498
-0.0001365254087
0.001918606429
0.0001209914695
-0.001818062355
-0.0001459911775
0.001746370491
7.170856932e-05
-0.00140938636
-8.815287905e-05
0.001260184803
4.291130256e-05
-0.0007792140487
-5.112742609e-05
0.0006142859699
8.029910564e-06
-0.0001842695848
-1.115379716e-05
9.137105921e-05
0
0
0
0
0
0
0
0
0
0
0
0
0
0
0
0
0
0
0
0
0
0
0
0
0
0
0
0
0
0
0
0
0
0
0
0
0
0
0
0
0
0
-5.761512218e-06
-1.787558383e-05
9.797058574e-06
7.684898773e-05
-8.770489222e-05
-0.0004608246225
0.000104275098
0.0006387837875
-0.0001504471729
-0.001254043534
0.0001508475097
0.001463867469
-3.474232804e-05
-0.001969242464
4.449189883e-05
0.002078796942
0.0001002115573
-0.002309685144
-0.0001060238583
0.002342147019
0.0001829681348
-0.002373490473
-0.0001873337581
0.002373851468
0.0002230913445
-0.002351300043
-0.000241517781
0.002315112345
0.0002005015912
-0.002113739894
-0.0002181175307
0.001965902106
5.342075446e-05
-0.001375925014
-6.086171187e-05
0.001160807658
1.815907003e-05
-0.0005289722391
-1.985667608e-05
0.0003522375719
-2.388005635e-05
1.090219237e-06
-1.824126216e-06
3.634032669e-07
0
0
0
0
0
0
0
0
0
0
0
0
0
0
0
0
0
0
0
0
0
0
0
0
0
0
0
0
0
0
0
0
0
0
0
1.456338621e-07
1.333774082e-08
5.065097064e-07
-2.418255357e-05
-8.983348236e-05
2.984113147e-05
0.0002016694501
-0.0001527991491
-0.0007397436832
0.000156779846
0.0009798599421
-0.0001558165862
-0.001677708189
0.0001587583015
0.001885133852
-1.959628511e-05
-0.00235286408
-8.074927986e-06
0.002451294782
7.77926881e-05
-0.002536331771
1.383365163e-05
-3.617277868e-05
0.001224667179
0.00125621103
-0.001218208402
9.186087935e-05
-9.226010019e-05
0.001218607623
-0.001255221425
0.0003190018586
0.002523025706
-0.001279238118
-0.0001427642361
-0.0001648037859
-0.002393090495
0.0002280145073
-0.000246103138
0.002302980062
9.147290652e-05
-0.001809919381
-0.0001037189182
0.001588402147
2.339535028e-05
-0.0008518632289
-2.307135399e-05
0.0006256970531
-0.0001247459041
6.383005862e-06
-7.751342039e-06
3.951483113e-05
0
0
0
0
0
0
0
0
0
0
0
0
0
0
0
0
0
0
0
0
0
0
0
0
0
0
0
0
0
0
0
0
0
-6.095942827e-07
0
1.299607026e-06
4.657521132e-06
7.112672032e-06
-4.193415776e-05
-0.0001516016897
4.343136098e-05
0.0002964250791
-0.0001804179641
-0.0009382261459
0.0001833316124
0.001191520764
-0.000156591324
-0.001926338286
0.0001547124907
0.002131210726
3.652733284e-05
-0.002511974826
-4.24896634e-05
0.002541922802
5.219797411e-05
-0.00128648819
-5.013490541e-05
0.001284425122
-0.001274888753
0.0001310593817
-0.0001290808234
0.001272910195
-0.002521694199
0.0002807481532
-0.0002878498634
0.002472225693
0.0001174840961
-0.002039554253
-0.0001215340043
0.001820265035
2.433788431e-05
-0.001060752562
-2.576311959e-05
0.0008105002653
-0.0002206619116
1.030418394e-05
-1.127934207e-05
9.658342276e-05
0
0
0
0
0
0
0
0
0
0
0
0
0
0
0
0
0
0
0
0
0
0
0
0
0
0
0
0
0
0
0
0
0
-1.679315796e-06
0
2.124653677e-06
1.277870956e-05
1.441106666e-05
-5.095783674e-05
-0.0001903846569
5.258195817e-05
0.0003506102709
-0.0001925694983
-0.001031665692
0.0001944549256
0.001293885519
-0.0001514040575
-0.002036127797
0.0001509097997
0.002234273347
4.99315128e-05
-0.002567125478
-5.085062271e-05
0.002578642976
5.716811034e-05
-0.001288444538
-5.716135377e-05
0.001288437782
-0.001295974811
0.0001250308077
-0.0001243561513
0.001295300155
-0.002588871538
0.0002956853828
-0.0002968049015
0.002558191317
0.0001369263721
-0.002169263308
-0.0001402452149
0.001956943594
2.671858283e-05
-0.001191573601
-2.746165722e-05
0.0009295610154
-0.0002765364965
1.221989512e-05
-1.251492391e-05
0.0001343803574
0
0
0
0
0
0
0
0
0
0
0
0
0
0
0
0
0
0
0
0
0
0
0
0
0
0
0
0
0
0
0
0
0
-2.568176074e-06
0
3.182553727e-06
1.944804883e-05
2.16734893e-05
-5.663588895e-05
-0.0002168175517
5.828007576e-05
0.0003870449107
-0.0001993006226
-0.001093853889
0.0002011577334
0.001361979663
-0.0001501101547
-0.002110432353
0.0001496629934
0.002306473383
5.266606662e-05
-0.002621586251
-5.315960038e-05
0.002628088064
5.723012662e-05
-0.001311562016
-5.679582102e-05
0.0006548513036
0.000656276407
-0.001319192428
0.0001224405979
-0.0001219833645
0.001318735195
-0.00263464217
0.0002936720546
-0.0002915313087
0.002598530663
0.0001387771575
-0.002190100531
-0.0001377562348
0.001972052716
2.715544838e-05
-0.001194445711
-2.723264579e-05
0.0009308324715
-0.0002758738306
1.225852087e-05
-1.217197633e-05
0.0001334835027
0
0
0
0
0
0
0
0
0
0
0
0
0
0
0
0
0
0
0
0
0
0
0
0
0
0
0
0
0
0
0
0
0
-3.855739947e-06
0
4.637980139e-06
2.914287058e-05
3.196903767e-05
-6.343668977e-05
-0.0002493996854
6.525681899e-05
0.0004310342659
-0.0002067295147
-0.001166510331
0.0002086286779
0.00144101735
-0.0001481282826
-0.002195530037
0.0001475366236
0.002388846741
5.479655844e-05
-0.002683181705
-5.522771406e-05
0.002685879701
5.691957732e-05
-0.00134092533
-5.678432244e-05
0.0006698923055
0.00067089777
-0.001345343767
0.000120702779
-0.0001202731607
0.001344914149
-0.002678114391
0.0002788379851
-0.0002727426165
0.002613736489
0.0001249888869
-0.002123486628
-0.0001266651761
0.001902352015
2.482990668e-05
-0.001106751845
-2.468930036e-05
0.0008459576242
-0.0002217263379
1.058296182e-05
-1.022162036e-05
9.534456795e-05
0
0
0
0
0
0
0
0
0
0
0
0
0
0
0
0
0
0
0
0
0
0
0
0
0
0
0
0
0
0
0
0
0
-5.604943999e-06
0
5.969757249e-06
4.229793021e-05
4.380998657e-05
-7.12141887e-05
-0.0002874151909
7.354659971e-05
0.0004810018526
-0.0002145302326
-0.001244837334
0.0002167230176
0.001525058942
-0.0001454005843
-0.002282435771
0.0001444537632
0.00247179047
5.62546661e-05
-0.002741281997
-5.625139948e-05
0.002741482753
5.641249969e-05
-0.00136895049
-5.640671448e-05
0.0006837775113
0.0006851671936
-0.001368733726
0.0001188947538
-0.0001188137674
0.00136865274
-0.002684002153
0.0002540885799
-0.0002460632068
0.002578874671
0.0001102182577
-0.002012972967
-9.595415287e-05
0.001758374928
2.220132049e-05
-0.0009460003607
-2.026219894e-05
0.0006955264506
-0.0001459711006
7.747438466e-06
-6.89604773e-06
4.767091984e-05
0
0
0
0
0
0
0
0
0
0
0
0
0
0
0
0
0
0
0
0
0
0
0
0
0
0
0
0
0
0
0
0
0
-8.598474961e-06
0
1.195057379e-05
6.545085786e-05
7.478778492e-05
-8.018296817e-05
-0.0003396813292
8.641981059e-05
0.0005437201102
-0.0002238464826
-0.001340144031
0.0002250182205
0.001625242314
-0.0001407442291
-0.002381114905
0.0001449506844
0.002562381015
5.661768483e-05
-0.002797334755
-5.580437289e-05
0.00139657463
0.001399946813
2.768808638e-05
-0.0006971860801
-2.749793354e-05
0.0006969959273
3.665341991e-05
-0.0003471783749
-3.603751143e-05
0.0006941660818
-0.0003476036155
-0.001390091967
0.0001186456033
-0.0002422110054
0.002784589287
-0.001393141041
0.0001222091232
0.000225420698
-0.002632936743
-0.0002090815126
0.002475593256
7.672063662e-05
-0.001821650373
-7.234923609e-05
0.001555427624
1.818293574e-05
-0.0007548040586
-1.813598793e-05
0.0005228377165
-5.968541247e-05
3.303982447e-06
-2.683860953e-06
5.897083899e-06
0
0
0
0
0
0
0
0
0
0
0
0
0
0
0
0
0
0
0
0
0
0
0
0
0
0
0
0
0
0
0
0
0
-1.309463519e-05
0
1.058385243e-05
8.848896605e-05
8.118185712e-05
-9.582255033e-05
-0.0003990218278
9.260065435e-05
0.0006238479019
-0.0002327821709
-0.001458882986
0.0002296718552
0.001750873124
-0.0001303856868
-0.002496355405
0.000133250026
0.00266640535
5.922819121e-05
-0.002854091169
-5.92281912e-05
0.001425620086
0.001428471083
2.924450832e-05
-0.001425620086
-5.948471817e-05
3.024020984e-05
0.0007120395154
0.0007135805706
9.135101536e-05
-0.0007120395901
-9.13509033e-05
0.001425620086
-0.000713580608
-0.002854091169
0.000249833222
-0.0002476348445
0.002845721059
0.0001819662202
-0.002508122767
-0.0001744554266
0.002316765721
6.129294083e-05
-0.00156139389
-5.023789626e-05
0.001286813853
1.573605817e-05
-0.0005227734972
-1.71732794e-05
0.0003351515178
-8.176610584e-06
6.004137258e-07
-2.781964585e-07
0
0
0
0
0
0
0
0
0
0
0
0
0
0
0
0
0
0
0
0
0
0
0
0
0
0
0
0
0
0
0
0
0
0
-6.371301096e-06
0
2.247034497e-06
4.083161189e-05
2.557981657e-05
-7.022906294e-05
-0.0002878609876
5.980286546e-05
0.0004856846961
-0.0002037888308
-0.001272833171
0.0001895509591
0.001562160311
-0.0001465371744
-0.002344623827
0.0001495639858
0.002543684002
4.314252531e-05
-0.002880559158
-2.828545844e-05
0.002908638901
5.948471817e-05
-0.00291099886
-0.0001229550989
0.00291099886
6.347038074e-05
0.0001866843991
-0.00291099886
-0.0001866843991
0.00291099886
0.0002309159012
-0.00285671585
-0.0002198874495
0.002774216462
0.000138327022
-0.002280621197
-0.0001261197627
0.002046748277
3.443787919e-05
-0.001243237886
-3.194297265e-05
0.0009736445776
1.263855499e-05
-0.0002990563151
-9.881720751e-06
0.0001563200117
0
0
0
0
0
0
0
0
0
0
0
0
0
0
0
0
0
0
0
0
0
0
0
0
0
0
0
0
0
0
0
0
0
0
0
0
0
-5.354620725e-08
0
0
2.248353714e-07
0
-2.725937475e-05
-9.791855448e-05
1.799699179e-05
0.0002207734732
-0.0001329764832
-0.000820146603
0.0001113368788
0.001068428729
-0.0001428456977
-0.001820066603
0.00013402973
0.002042637955
-1.477822701e-05
-0.002544586243
2.619007246e-05
0.002651270952
0.0001060354969
-0.002817878865
-9.220553754e-05
0.00283439356
0.0001723591366
-0.002794280294
-0.000156834655
0.002747089189
0.0001684434796
-0.002464145141
-0.000146536647
0.002316327129
8.457254762e-05
-0.001727512932
-7.086919785e-05
0.001496871115
2.36887102e-05
-0.0007918010489
-2.080179524e-05
0.0005777824402
5.255659315e-06
-0.0001064760348
-3.420570375e-06
2.92638339e-05
0
0
0
0
0
0
0
0
0
0
0
0
0
0
0
0
0
0
0
0
0
0
0
0
0
0
0
0
0
0
0
0
0
0
0
0
0
0
0
0
0
0
-1.589193301e-06
-2.21034405e-07
2.45764888e-07
1.668462029e-05
-4.957416872e-05
-0.0002909213563
3.294191537e-05
0.0004440691793
-9.104728292e-05
-0.0009926813945
7.372914927e-05
0.001180371181
-4.391031029e-05
-0.001669627958
4.369190155e-05
0.001794118082
4.197861437e-05
-0.002024299384
-2.671948439e-05
0.00205205245
9.193394734e-05
-0.001991642353
-6.977452367e-05
0.001924922841
7.943339751e-05
-0.00159616383
-6.006260541e-05
0.001449527102
3.621871327e-05
-0.0009424166599
-2.747776113e-05
0.0007659561945
1.145434609e-05
-0.0002905603285
-8.147278229e-06
0.000169939699
6.101222527e-08
-7.334540822e-07
0
0
0
0
0
0
0
0
0
0
0
0
0
0
0
0
0
0
0
0
0
0
0
0
0
0
0
0
0
0
0
0
0
0
0
0
0
0
0
0
0
0
0
0
0
0
0
0
-3.238763566e-06
-7.449787727e-06
4.683495315e-07
3.466262501e-05
-2.631013838e-05
-0.0002419825701
1.489942894e-05
0.0003369854706
-2.867086425e-05
-0.0006290591556
2.119052661e-05
0.0007139720293
-1.668299164e-06
-0.0008865440811
4.756770309e-06
0.0009106263664
2.034680678e-05
-0.0008749877915
-1.119544008e-05
0.0008290916143
1.955791563e-05
-0.0006115436555
-1.193017235e-05
0.0005208344769
9.034117174e-06
-0.0002413364005
-5.037273521e-06
0.0001592791875
5.364849864e-07
-9.198994792e-06
-1.584530815e-09
9.922369368e-08
0
0
0
0
0
0
0
0
0
0
0
0
0
0
0
0
0
0
0
0
0
0
0
0
0
0
0
0
0
0
0
0
0
0
0
0
0
0
0
0
0
0
0
0
0
0
0
0
0
0
0
0
0
0
-7.032442048e-08
0
0
1.231132313e-06
-2.974482559e-06
-3.375526125e-05
4.605595584e-07
5.230031357e-05
-2.56749136e-06
-0.0001017933266
9.403554585e-07
0.0001104568867
6.162450733e-07
-0.0001023956122
-1.060586522e-07
8.924562144e-05
1.042319347e-06
-3.543119377e-05
-8.851157494e-08
1.953146924e-05
0
0
0
0
0
0
0
0
0
0
0
0
0
0
0
0
0
0
0
0
0
0
0
0
0
0
0
0
0
0
0
0
0
0
0
0
0
0
0
0
0
0
0
0
0
0
0
0
0
0
0
0
0
0
0
0
0
0
0
0
0
0
0
0
0
0
0
0
0
0
0
0
0
0
0
0
0
0
0
0
0
0
0
0
0
0
0
0
0
0
0
0
0
0
0
0
0
0
0
0
0
0
0
0
0
0
0
0
0
0
0
0
0
0
0
0
0
0
0
0
0
0
0
0
0
0
0
0
0
0
0
0
0
0
0
0
0
0
0
0
0
0
0
0
0
0
0
0
0
0
0
0
0
0
0
0
0
0
0
0
0
0
0
0
0
0
0
0
0
0
0
0
0
0
0
0
0
0
0
0
0
0
0
0
0
0
0
0
0
0
0
0
0
0
0
0
0
0
0
0
0
0
0
0
0
0
0
0
0
0
0
0
0
0
0
0
0
0
0
0
0
0
0
0
0
0
0
0
0
0
0
0
0
0
0
0
0
0
0
0
0
0
0
0
0
0
0
0
0
0
0
0
0
0
0
0
0
0
0
0
0
0
0
0
0
0
0
0
0
0
0
0
0
0
0
0
0
0
0
0
0
0
0
0
0
0
0
0
0
0
0
0
0
0
0
0
0
0
0
0
0
0
0
0
0
0
0
0
0
0
0
0
0
0
0
0
0
0
0
0
0
0
0
0
0
0
0
0
0
0
0
0
0
0
0
0
0
0
0
0
0
0
0
0
0
0
0
0
0
0
0
0
0
0
0
0
0
0
0
0
0
0
0
0
0
0
0
0
0
0
0
0
0
0
0
0
0
0
0
0
0
0
0
0
0
0
0
0
0
0
0
0
0
0
0
0
0
0
0
0
0
0
0
0
0
0
0
0
0
0
0
0
0
0
0
0
0
0
0
0
0
0
0
0
0
0
0
0
0
0
0
0
0
0
0
0
0
0
0
0
0
0
0
0
0
0
0
0
0
0
0
0
0
0
0
0
0
0
0
0
0
0
0
0
0
0
0
0
0
0
0
0
0
0
0
0
0
0
0
0
0
0
0
0
0
0
0
0
0
0
0
0
0
0
0
0
0
0
0
0
0
0
0
0
0
0
0
0
0
0
0
0
0
0
0
0
0
0
0
0
0
0
0
0
0
0
0
0
0
0
0
0
0
0
0
0
0
0
0
0
0
0
0
0
0
0
0
0
0
0
0
0
0
0
0
0
0
0
0
0
0
0
0
0
0
0
0
0
0
0
0
0
0
0
0
0
0
0
0
0
0
0
0
0
0
0
0
0
0
0
0
0
0
0
0
0
0
0
0
0
0
0
0
0
0
0
0
0
0
0
0
0
0
0
0
0
0
0
0
0
0
0
0
0
0
0
0
0
0
0
0
0
0
0
0
0
0
0
0
0
0
0
0
0
0
0
0
0
0
0
0
0
0
0
0
0
0
0
0
0
0
0
0
0
0
0
0
0
0
0
0
0
0
0
0
0
0
0
0
0
0
0
0
0
0
0
0
0
0
0
0
0
0
0
0
0
0
0
0
0
0
0
0
0
0
0
0
0
0
0
0
0
0
0
0
0
0
0
0
0
0
0
0
0
0
0
0
0
0
0
0
0
0
0
0
0
0
0
0
0
0
0
0
0
0
0
0
0
0
0
0
0
0
0
0
0
0
0
0
0
0
0
0
0
0
0
0
0
0
0
0
0
0
0
0
0
0
0
0
0
0
0
0
0
0
0
0
0
0
0
0
0
0
0
0
0
0
0
0
0
0
0
0
0
0
0
0
0
0
0
0
0
0
0
0
0
0
0
0
0
0
0
0
0
0
0
0
0
0
0
0
0
0
0
0
0
0
0
0
0
0
0
0
0
0
0
0
0
0
0
0
0
0
0
0
0
0
0
0
0
0
0
0
0
0
0
0
0
0
0
0
0
0
0
0
0
0
0
0
0
0
0
0
0
0
0
0
0
0
0
0
0
0
0
0
0
0
0
0
0
0
0
0
0
0
0
0
0
0
0
0
0
0
0
0
0
0
0
0
0
0
0
0
0
0
0
0
0
0
0
0
0
0
0
0
0
0
0
0
0
0
0
0
0
0
0
0
0
0
0
0
0
0
0
0
0
0
0
0
0
0
0
0
0
0
0
0
0
0
0
0
0
0
0
0
0
0
0
0
0
0
0
0
0
0
0
0
0
0
0
0
0
0
0
0
0
0
0
0
0
0
0
0
0
0
0
0
0
0
0
0
0
0
0
0
0
0
0
0
0
0
0
0
0
0
0
0
0
0
0
0
0
0
0
0
0
0
0
0
0
0
0
0
0
0
0
0
0
0
0
0
0
0
0
0
0
0
0
0
0
0
0
0
0
0
0
0
0
0
0
0
0
0
0
0
0
0
0
0
0
0
0
0
0
0
0
0
0
0
0
0
0
0
0
0
0
0
0
0
0
0
0
0
0
0
0
0
0
0
0
0
0
0
0
0
0
0
0
0
0
0
0
0
0
0
0
0
0
0
0
0
0
0
0
0
0
0
0
0
0
0
0
0
0
0
0
0
0
0
0
0
0
0
0
0
0
0
0
0
0
0
0
0
0
0
0
0
0
0
0
0
0
0
0
0
0
0
0
0
0
0
0
0
0
0
0
0
0
0
0
0
0
0
0
0
0
0
0
0
0
0
0
0
0
0
0
0
0
0
0
0
0
0
0
0
0
0
0
0
0
0
0
0
0
0
0
0
0
0
0
0
0
0
0
0
0
0
0
0
0
0
0
0
0
0
0
0
0
0
0
0
0
0
0
0
0
0
0
0
0
0
0
0
0
0
0
0
0
0
0
0
0
0
0
0
0
0
0
0
0
0
0
0
0
0
0
0
0
0
0
0
0
0
0
0
0
0
0
0
0
0
0
0
0
0
0
0
0
0
0
0
0
0
0
0
0
0
0
0
0
0
0
0
0
0
0
0
0
0
0
0
0
0
0
0
0
0
0
0
0
0
0
0
0
0
0
0
0
0
0
0
0
0
0
0
0
0
0
0
0
0
0
0
0
0
0
0
0
0
0
0
0
0
0
0
0
0
0
0
0
0
0
0
0
0
0
0
0
0
0
0
0
0
0
0
0
0
0
0
0
0
0
0
0
0
0
0
0
0
0
0
0
0
0
0
0
0
0
0
-0.001286859101
0.001286910916
5.711629538e-05
-0.000122741082
0.001290399209
0.0001234700533
-0.0006471267722
-0.0006440014077
0.0001348103581
-0.001280374182
-0.0001293249298
-0.001308115639
5.754066035e-05
0.0006538292771
0.000653975828
-0.0001178357565
0.001317243957
0.000118478037
-0.0006592892539
-0.0006585969841
-0.0001205524891
-0.0006496145631
-0.0006485488408
-0.001337282669
5.71139433e-05
0.0006682604768
0.000668827826
-0.0001166776569
0.00134069654
0.0001157858262
-0.0006700818679
-0.0006697228412
-0.000117383095
-0.000659415145
-0.0006602299449
-0.001365052428
5.667204415e-05
0.0006820198461
0.0006827730376
-0.0001137046426
0.001364646893
0.0001145704048
-0.001365512655
-0.001345948649
-0.000116072775
-0.0006969599969
0.0006969646458
2.768343749e-05
0.0003476635878
-1.816334107e-05
1.827834208e-05
-0.0003477785888
-0.0003474284567
0.0006942995839
3.744588053e-05
-0.0001134996777
0.001388298296
0.000113388602
-0.00138818722
-0.001369008269
-0.0001134300998
-0.0007118219536
0.0007118219536
2.924450833e-05
0.0007118221614
-4.418224374e-05
4.41827985e-05
-0.0007118227161
-0.0003476043868
-1.773732912e-05
0.001422104485
-0.0006481239587
8.744763916e-06
2.044788666e-05
-0.0002079200269
0.0028054311
-0.001417711452
-0.001405891643
0.0001119276176
0.0001141644047
-0.001389954905
-0.0001136367399
-0.001282595835
0.001282034452
5.275935792e-05
8.659732823e-05
-0.001218485709
-8.632002106e-05
0.001277589142
0.0001327770775
-0.001275555861
0.000144178637
-0.001245520837
-0.0001538792249
-2.664905231e-05
0.0003233265361
2.679371751e-05
-0.0003234712013
0.0006467716321
6.22088876e-05
-0.0006485860501
-6.039446962e-05
0.00128988507
0.000125544946
-0.0003006971436
0.002570368323
0.0003039789926
-0.002574348775
0.0003067893411
-0.002536448701
-0.0003018094958
-0.002606729856
0.00261428197
5.218372117e-05
-5.329279758e-05
5.335685808e-05
-0.001308179699
5.326537171e-05
-0.001288328453
-5.338145691e-05
-2.969738599e-05
0.0003264765273
2.946665131e-05
-0.0003262457926
2.624396325e-05
0.0003242412855
-0.0003241247586
-2.636049005e-05
0.001316916724
0.0001227678317
-0.0002967453965
0.002626263558
0.0002978394541
-0.002627498058
-0.002590388679
-0.000299422732
-0.002668484382
0.00267199775
5.433080358e-05
-5.313639731e-05
5.320020975e-05
-0.001337346481
-0.001311628684
-5.322612952e-05
-5.689065875e-05
-0.001323758229
5.69644287e-05
0.0006612811354
0.0006624033232
-3.481109761e-05
0.0003313894591
3.469175274e-05
-0.0006624335268
0.0003311634126
3.484516077e-05
0.0003268117108
-0.0006545830654
-3.457593398e-05
0.0003275021278
-2.562342371e-05
0.0003331493348
2.577018282e-05
-0.0003332960939
2.759459215e-05
0.0003296354949
-0.0003289092451
-2.8320842e-05
0.001340815184
0.0001205841349
-0.0002892949544
0.002666741242
0.0002924159942
-0.002674993727
-0.002636320317
-0.0002955258606
-0.002726270068
0.002727051018
5.608896713e-05
-5.28752295e-05
5.293774987e-05
-0.001365114949
-0.001340929033
-5.313269441e-05
-5.713632301e-05
-0.001351547983
5.689154333e-05
0.0006755498328
0.0006762429297
-1.761810519e-05
0.0003380885555
1.773386899e-05
-0.0003382043193
3.421610901e-05
0.0003347185336
-0.000669863134
-3.424975266e-05
0.000335178244
-4.927359921e-05
0.0006767457865
4.952589004e-05
-0.0006769980774
5.051725313e-05
0.00067244407
-4.907642831e-05
-0.0003373961958
-0.0003364886991
-0.002783558679
5.625315936e-05
0.001390201599
0.001393721606
-5.257253502e-05
0.000696669265
5.273027841e-05
-0.001393787005
-0.001369010711
-5.281500895e-05
-2.773281196e-05
-0.0006905777029
0.0006906414307
2.766908415e-05
-1.990717009e-05
0.0003462748205
1.941875573e-05
-0.0003457864061
1.880853137e-05
0.000340995946
-0.0003412446861
-1.855979123e-05
-0.000347908953
-2.062241476e-05
0.0003467952556
2.173611213e-05
-4.804125338e-05
0.0006896810356
4.784074598e-05
-0.0006894805282
4.88272108e-05
0.0006840977378
-0.0006840869578
-4.883799082e-05
-0.002806915882
6.172846179e-05
0.001382311126
0.001422104485
-5.550424713e-05
0.0007102825313
5.550424713e-05
-0.001422104485
0.0006994169408
-0.001396586461
-5.258909468e-05
-2.771621915e-05
-0.0007040010432
0.0007039361199
2.778114238e-05
-1.78901624e-05
0.0003487839408
1.913698106e-05
-0.0003500307595
2.069252113e-05
0.0003461295968
-0.0003468003795
-2.002173844e-05
-0.001450226028
0.001450226028
5.948471816e-05
0.001450226028
-8.736783776e-05
8.736783776e-05
-0.001450226028
-0.0007120398966
-4.41819372e-05
3.583770686e-05
-0.00063958115
-3.534346468e-05
0.0003190594104
0.0003200274975
-3.642796817e-05
-0.0006433866557
3.627641287e-05
0.0003221535615
0.0003213846494
-0.0006468279919
2.390912551e-05
-2.257270475e-05
0.0006454915711
-0.0006404742564
0.0006409652393
3.53467239e-05
0.0003242038654
2.610762018e-05
-0.0003240675223
0.0003226075533
-0.0003228930184
-2.63635872e-05
0.0001257598153
0.001285383345
-0.0001243543722
-0.0006450174843
-0.0006417713039
5.681280858e-05
-0.0003219558955
-5.564803093e-05
0.0006433986712
-2.665362799e-05
0.000324276112
2.658138137e-05
0.000326456058
3.516827974e-05
-0.0006537082425
0.0003269290655
0.000648647586
3.485456087e-05
-0.0006487174106
-3.478473619e-05
5.731673647e-05
-0.001299139977
-5.725143237e-05
0.001299074673
3.587881246e-05
-3.541597792e-05
0.0003240479163
0.0003241368351
-1.797277972e-05
0.0003264459306
1.798290715e-05
-0.0006434046622
-3.612392068e-05
0.0003214080624
0.0003216925523
-0.000648416019
3.58058398e-05
0.0003243315443
0.0003241574474
0.0003288468474
2.680243181e-05
-0.0003280546871
0.0003277029883
-0.0003272572353
-3.014313896e-05
6.032094773e-05
0.0006545655323
-0.0006546979434
-6.018853659e-05
2.939858918e-05
-2.951296805e-05
0.0003278173671
-2.724630731e-05
0.0003293118379
2.678131681e-05
-2.669002972e-05
0.0003242776872
0.0003266967738
2.917834264e-05
0.0006527849849
6.032716179e-05
-0.000652791199
0.0003343220007
3.452520174e-05
-0.0006685939339
0.0003339628405
0.0003319537528
-0.0006638400288
-3.510210616e-05
0.0003321772846
-0.001327770401
-5.719231929e-05
0.0006637192904
0.0006643527706
1.838823657e-05
-1.848317879e-05
0.000332048695
-1.733415645e-05
0.0003342070832
1.74490739e-05
-1.78856834e-05
0.0003267246145
0.0003316504244
1.812727128e-05
0.000670710335
5.037517447e-05
-0.0003353925931
-0.0003351756632
0.0003332158346
-0.0003331365335
-2.570272478e-05
0.0001157792229
0.001330663669
-0.0001159761686
-0.0006651459331
-0.0006653207899
5.205051151e-05
-0.0003324655941
-5.152994246e-05
0.0006651608596
-5.13765813e-05
0.0006706269718
5.145994451e-05
-2.770281079e-05
0.0003300919984
-0.0003324414296
0.0006649339699
2.605108395e-05
2.665622206e-05
0.001327811617
0.0001169212721
-0.000664778888
-0.000664174778
0.0003408133787
1.897299022e-05
-0.0003409778375
0.000338245571
-0.0003383043887
-1.755928753e-05
-0.001354060872
-5.668960316e-05
0.0006766808754
0.0006769332768
1.821982674e-05
-1.792174604e-05
0.0003379474903
-2.005532934e-05
0.000340444357
2.042435096e-05
-1.730675019e-05
0.0003346911274
0.0003379169798
1.83914025e-05
0.0006836809891
4.887884521e-05
-0.0006837326235
0.0006780887906
-0.0006780794353
-4.928295451e-05
0.0003477133527
2.111881059e-05
-0.0003481396422
0.0003455167156
-0.000345688834
-1.973505162e-05
-0.0006912641793
-2.773499496e-05
0.0006912663623
1.811708201e-05
0.0003454800395
-0.00034421555
-1.93815715e-05
2.113755904e-05
-2.080281161e-05
0.0003451819681
-2.033570013e-05
0.000346836286
2.121276685e-05
-1.960004625e-05
0.0003405406629
0.0003466414817
2.077089775e-05
2.022097744e-05
-0.0003500128484
-9.571022403e-05
0.001387322245
9.532176037e-05
-0.0006934593571
-0.0006934744246
0.0006899234655
-0.0006896850943
-4.827962455e-05
-2.061216665e-05
0.0003454697914
0.0007178292797
-3.415563975e-05
-0.0007143898776
1.463338941e-05
1.608284829e-05
0.0003489360265
-0.0003497191185
-1.710707043e-05
-0.0007046067166
-2.758777959e-05
0.0007044782771
3.059544369e-05
0.0006948866278
-0.0006953231323
-3.015893919e-05
1.450596779e-05
-1.410233417e-05
0.0003485323929
-3.71174464e-05
0.0007180650421
1.62321188e-05
2.064956516e-05
-1.946244692e-05
0.0003452563436
1.538908849e-05
0.0003479008201
0.0006945132173
3.148131133e-05
-0.0006953990849
-0.002553625112
0.002567825204
4.819269047e-05
5.315308477e-05
-0.001286746814
4.870944735e-05
-0.001284725677
-5.047196077e-05
-5.567118575e-05
-0.001281007552
0.001280898306
5.578043155e-05
-3.459615039e-05
3.451005025e-05
-0.0006403881562
3.118632752e-05
-0.0006486836806
-2.933063875e-05
-5.882629387e-05
0.000318191026
5.973603892e-06
-0.000265338336
0.0003324096458
3.28765721e-05
-0.0003370109767
-2.827524116e-05
-0.00129634268
0.001296455179
5.720423833e-05
3.48766977e-05
-0.0006484381558
3.494491995e-05
-0.000643404985
-3.494459715e-05
-0.0001130992999
0.0003405616668
5.119626056e-05
-0.0002786586274
0.001364273795
0.0001192678514
-0.0002750248382
0.002688356122
0.0002801835106
-0.002726691528
-0.002689097914
-0.0002877158267
-0.0001117319409
0.0003448343349
4.801921928e-05
-0.0002811216133
-4.387067828e-05
0.0006864941211
4.432201267e-05
-0.0003435479345
-0.000343397521
2.240742265e-05
0.0003419952403
-0.0003419329739
-2.246968908e-05
-3.439346289e-05
0.0006941456195
3.476106065e-05
-0.0001029521071
0.001396006261
9.980299383e-05
-0.001392857148
0.00138936009
-9.621556481e-05
-0.0006945593615
-0.0006942953881
3.491994625e-05
-0.000643361682
-0.0006396154427
-3.45618577e-05
-0.001276705352
-5.648917092e-05
0.001277523337
1.675393098e-05
-0.0003196259221
-1.727574806e-05
0.0003201477391
-0.0003337293026
7.057397581e-06
-1.151647606e-05
0.0003381883811
-0.0003237062738
-1.568681192e-05
0.0003239797527
1.541333303e-05
6.709318011e-05
-6.171140551e-05
0.0006413898575
-0.0003220047472
0.0006439563685
5.818772336e-05
0.00128120585
0.0001233855966
-0.0006401945674
-0.000638637064
0.0003423903232
2.268317407e-05
-0.0003426660746
2.645790129e-05
0.0003412193568
-0.0003422777202
-2.539953785e-05
0.0001154803693
0.001355065235
-0.00135549891
-0.0001150466946
5.076694136e-05
-5.052611469e-05
0.000677847964
-5.010193336e-05
0.0006835192831
5.026363933e-05
-5.09358797e-05
0.0006720033684
0.0006767642959
5.074843199e-05
0.001353581421
0.0001155976676
-0.001353698719
2.201127695e-05
0.000347502028
-0.0003488008312
-2.071247372e-05
-0.0003461870148
-2.26404958e-05
0.0003462805646
2.254694604e-05
-3.270419081e-05
0.0006947691583
3.293854092e-05
-0.0003472288289
-0.0003477746795
0.0006161000959
4.196100936e-05
-0.000616100473
-4.19606322e-05
-0.001320572852
4.380888438e-05
-2.940740381e-06
-1.880989651e-05
0.0006437356972
0.0006547789074
-0.0006403216799
0.000653259327
1.097147842e-05
0.0006445259625
6.316504956e-05
-0.0006454821244
0.00129612352
0.0001496549454
-0.0006502606569
-0.0006242200825
-7.455326838e-05
-9.674445815e-05
5.562468647e-05
-5.656900991e-05
0.0006170444193
0.0004033316187
-0.0004621579126
5.697314527e-05
0.000645673323
-5.564929728e-05
-0.000323345483
-0.000323651688
3.170791191e-05
4.515030114e-05
0.0003264734057
2.939028983e-05
-2.709492999e-05
0.0003301142859
0.0003257352871
2.416365075e-05
0.000642632477
5.503315418e-05
-0.0003209119826
-0.0003197805033
2.598534646e-05
0.0003253855836
-0.0003254276511
-2.594327898e-05
0.0003256817897
2.60861852e-05
-0.0003257826284
2.521002417e-05
0.0003323464704
-0.0003322075068
-2.534898768e-05
0.0003331469914
2.569142611e-05
-0.0003336283933
0.0003379544828
-2.650943835e-05
2.394908898e-05
-0.0003353941335
0.0003462108909
-0.0004414792664
-1.783092442e-05
4.989958947e-05
0.0006740134717
-0.0006739935696
-4.991949153e-05
2.988733937e-05
-2.487169674e-05
0.0003411952483
-2.653993128e-05
0.0003386650968
2.582931736e-05
2.675573753e-05
-5.04654264e-05
0.0003323807392
-0.0003086710504
0.0003385445911
3.190441504e-05
0.0006736905316
4.99673771e-05
-0.0003368789649
-0.0003368793543
0.0003433496575
1.657698643e-05
-0.0003435887104
-1.633793346e-05
3.123736785e-05
-0.0006872292589
-3.116322192e-05
0.000687155113
-3.115557541e-05
-0.0006905077412
0.0006905674693
3.109584732e-05
-4.270839979e-05
0.0006892797976
4.291530556e-05
-0.0006894867034
0.0006870959115
-4.338751538e-05
-0.0003440045394
-0.000343574535
-0.0004471618206
-1.575487158e-05
0.0003511847512
1.435631802e-05
0.0003492428906
-0.000349999823
-1.359938558e-05
3.06290004e-05
-0.0007010785451
-3.057904359e-05
0.0007010285883
-3.058476808e-05
-0.0007038653718
3.092671954e-05
0.0003516367548
0.0003518866656
3.09332433e-05
-0.0006968604449
-3.07137796e-05
0.0006966409812
-0.0007001337243
0.0007000491752
3.071354952e-05
0.0003477621687
1.527151607e-05
-0.0003486773667
-0.0003300627475
1.4106341e-05
-0.0001030907192
0.0004190471257
-0.0003179858702
1.711359765e-05
0.0003176262036
-3.550073412e-05
-0.0006415447224
3.577459941e-05
0.0003200544678
0.0003212163893
-1.884213396e-05
1.9694512e-05
-0.0003188382483
1.910505094e-05
-0.0003259773193
-2.31904791e-05
-2.27489743e-05
4.311572454e-05
-0.0003227560507
0.0003023893005
-0.0003202925542
-1.817550183e-05
-0.0006429813417
-3.618589362e-05
0.000322096629
0.0003215698722
-3.384653242e-05
-0.0006492436767
0.0006496856254
3.340458372e-05
-1.806550092e-05
1.841145402e-05
-0.0003240522269
-7.606604758e-08
-0.000323703829
-9.949407518e-06
0.0003253959849
1.759127102e-05
-0.0003238822049
0.0003237150762
-0.0003236000377
-1.818053937e-05
-0.0006449402685
-3.4277174e-05
0.00064537091
-1.781574915e-05
0.0003258440134
0.0003247528139
1.474951201e-05
2.717493484e-05
0.0003237820824
-0.0003230662175
-2.789079971e-05
0.0003227755574
2.724964728e-05
-0.0003228502699