/*--------------------------------*- C++ -*----------------------------------*\
| =========                 |                                                 |
| \\      /  F ield         | OpenFOAM: The Open Source CFD Toolbox           |
|  \\    /   O peration     | Version:  v1912                                 |
|   \\  /    A nd           | Website:  www.openfoam.com                      |
|    \\/     M anipulation  |                                                 |
\*---------------------------------------------------------------------------*/
FoamFile
{
    version     2.0;
    format      ascii;
    class       volScalarField;
    location    "2.88";
    object      nut;
}
// * * * * * * * * * * * * * * * * * * * * * * * * * * * * * * * * * * * * * //

dimensions      [0 2 -1 0 0 0 0];


internalField   nonuniform List<scalar> 
12556
(
1.155881073
1.155849675
1.155819326
1.155796436
1.156028889
1.156029228
1.156051568
1.156099785
1.156190694
1.156338475
1.156502757
1.120322072
1.055424749
1.097438192
1.156569593
1.156392097
1.15623879
1.156142951
1.156073282
1.156048189
1.155827052
1.155842824
1.155866779
1.15589246
1.15511548
1.155028829
1.154948336
1.154898891
1.155123528
1.1551679
1.155300623
1.155603437
1.156039641
1.156745551
1.157755792
1.037788994
0.9696735315
0.9902707214
1.102412064
1.157215812
1.156416149
1.155855977
1.155425224
1.155245398
1.154963577
1.155007197
1.155081565
1.155162061
1.154317842
1.154169483
1.154044454
1.153988334
1.154251885
1.154398057
1.154723843
1.155356945
1.156433178
1.135102153
0.9205126259
0.8023678587
0.7587729668
0.7822886589
0.8762642947
1.049070066
1.157207635
1.155931981
1.154990698
1.154554831
1.154159095
1.154177961
1.154283813
1.154415632
1.153498254
1.153307327
1.15316134
1.153130577
1.15344613
1.153782864
1.154544448
1.155739993
1.1040458
0.825620434
0.6531772542
0.5550397787
0.5175312292
0.5394426723
0.6210348284
0.7674848622
0.9996901688
1.156742737
1.154970313
1.154078587
1.153399456
1.153378296
1.153495928
1.153671719
1.152657585
1.152419701
1.152268397
1.152306653
1.152756847
1.153405085
1.154837358
1.157024648
0.8360082521
0.6010383821
0.4468490287
0.3490969443
0.3088577302
0.330910757
0.4096165465
0.5425255239
0.7447972671
1.049836553
1.155576715
1.153902238
1.152788623
1.152609908
1.152701353
1.15290413
1.15181274
1.151553717
1.151428698
1.151563223
1.152237868
1.153358228
1.155807728
0.9772536329
0.6636582583
0.4561221688
0.3036734096
0.1974520556
0.154426762
0.1811826289
0.259386916
0.3817978273
0.5647731501
0.8348018163
1.156921096
1.154096474
1.152331175
1.151888144
1.151914934
1.152127735
1.150954608
1.150684889
1.150615355
1.150964449
1.151891514
1.153698021
1.157428159
0.8348529123
0.5623372629
0.3700205938
0.2180411438
0.1000824534
0.05670823239
0.08959660041
0.1673221944
0.2803947432
0.4459202212
0.681842003
1.055718208
1.154738694
1.152005884
1.151217648
1.151122717
1.151319162
1.150154285
1.149892308
1.149915222
1.150522287
1.151696204
1.154435957
1.058686286
0.7597174306
0.5198365172
0.3438917429
0.2006305732
0.08269792534
0.05143546951
0.1262945421
0.2268671702
0.3765663767
0.5932228734
0.9372397474
1.155772794
1.1518735
1.150634435
1.150358815
1.150520594
1.149404915
1.14916766
1.149320277
1.150239403
1.151812264
1.155543668
0.9968805594
0.7259065723
0.5227098316
0.3720522802
0.2590460956
0.1849190389
0.06300081532
0.1235904947
0.2108736039
0.3460167376
0.5442296841
0.8638824189
1.157083164
1.151943259
1.150164569
1.149662569
1.149761557
1.148798965
1.148603351
1.148911196
1.150189491
1.152227294
1.15694276
0.9674658331
0.7296779039
0.5508266364
0.426319089
0.3486925712
0.3490652513
0.08866266148
0.1407795904
0.220282289
0.3468362501
0.5325842291
0.8259771578
1.158597592
1.152248568
1.149880797
1.149110951
1.149137358
1.148326726
1.148189077
1.148691585
1.150397222
1.152921523
1.158457058
0.9592102849
0.746635844
0.5894367949
0.4821949378
0.4261708758
0.4834019587
0.1210241609
0.1707434404
0.2484775819
0.3690722482
0.5429906622
0.8182784839
1.136380118
1.152769639
1.149800166
1.148756883
1.148689034
1.1480575
1.147983715
1.148674242
1.150796809
1.153831173
1.160028386
0.9652174207
0.7743244875
0.6302124282
0.527639813
0.4647526309
0.4484268211
0.1584567958
0.2133160759
0.2944808181
0.4156419387
0.5802177217
0.8371966013
1.125460918
1.153531731
1.149963305
1.148639001
1.148487615
1.147924657
1.147931612
1.148882172
1.151474515
1.154862341
1.161463871
0.9826100692
0.8174616703
0.6765408106
0.5701857329
0.4825677791
0.4041677326
0.05186018216
0.2074032138
0.2774107337
0.3661932453
0.4847551835
0.6462109988
0.8789147556
1.134438219
1.154404407
1.150342215
1.14877027
1.148528064
1.147988402
1.148074753
1.149252662
1.152225449
1.156189903
1.163238923
1.04245873
0.8692398004
0.7415527024
0.6299247692
0.5248265243
0.2759437963
0.1043113261
0.3092238097
0.3904151775
0.4745701794
0.5857502198
0.7317539412
0.9387072243
1.164450726
1.155358196
1.150897285
1.149102611
1.148802705
1.148120739
1.148277607
1.149667665
1.153016846
1.157387582
1.164585671
1.114168816
0.9563280373
0.8354962898
0.7330881458
0.6301735044
0.09550564933
0.1481126219
0.406858275
0.5930825414
0.6367729853
0.7207078834
0.8508638477
1.034101997
1.165780155
1.156310521
1.151551545
1.149591118
1.14922959
1.14838323
1.14860592
1.150177926
1.153843814
1.158524945
1.165673972
1.165318453
1.086948431
0.9824197159
0.9082021415
0.7615471822
0.04466496344
0.1750558713
0.4488902826
0.7544275523
0.8606362439
0.9010177601
1.002491523
1.169062071
1.166878445
1.157195442
1.152235466
1.150166612
1.149781095
1.148614779
1.148884246
1.150608295
1.154572615
1.159520292
1.166423459
1.165044399
1.146147838
1.09127826
0.9549254271
0.4969007289
0.02729507471
0.2436204468
0.5217818249
0.8119496672
1.014398531
1.113925051
1.155667353
1.170525846
1.167729676
1.157952497
1.152884066
1.150749443
1.150339373
1.148908281
1.149216843
1.151058791
1.155242976
1.160339123
1.166889604
1.164201865
1.142586931
1.068289075
0.8291091971
0.1608945225
0.05059208267
0.3230369369
0.6046433037
0.8609056539
1.02887614
1.117426757
1.157612739
1.171374656
1.168258654
1.158545868
1.153459393
1.151320376
1.150908661
1.149096587
1.149425549
1.15135571
1.155739801
1.16096499
1.167018777
1.162861172
1.138255744
1.051376902
0.6907964533
0.06648173145
0.1251177127
0.386650375
0.6562932831
0.8807586739
1.03372809
1.119611488
1.158656309
1.17173273
1.168495064
1.158938235
1.153889923
1.151776483
1.15136575
1.149320407
1.149669917
1.151663338
1.156166356
1.161395579
1.166887387
1.161237749
1.133376051
1.032419009
0.6008710265
0.05633518369
0.1571167891
0.4062058189
0.665590671
0.8878291958
1.037150563
1.120826971
1.158996707
1.171678321
1.168469844
1.159201469
1.15425358
1.152181707
1.151770163
1.149403186
1.149764993
1.151805978
1.156419785
1.161659483
1.166568747
1.159477427
1.128093525
1.010408152
0.5274853749
0.05200313764
0.1745194648
0.4177337311
0.6723842106
0.8929092354
1.039469139
1.121283837
1.158781614
1.171282468
1.168224736
1.159281286
1.154453786
1.152431181
1.152020466
1.149532711
1.149919197
1.152004027
1.156664624
1.16179591
1.166139069
1.157540163
1.122480231
0.9833206965
0.4726486761
0.04989672247
0.188707081
0.4279031033
0.6783568989
0.896172251
1.040763265
1.121092397
1.158114149
1.170602933
1.167801787
1.159280071
1.154609687
1.152637633
1.152222428
1.149509055
1.149921029
1.152052871
1.156782693
1.16185646
1.165661734
1.155624883
1.116393604
0.9495115242
0.4303054583
0.04897386746
0.2009638426
0.4371794451
0.6837918802
0.8980643902
1.041029494
1.120294691
1.157057795
1.169690801
1.167238103
1.159123919
1.154603101
1.152679829
1.152261171
1.149566317
1.150021549
1.152211886
1.15696919
1.161880349
1.165180821
1.153670597
1.109373564
0.9117095162
0.3963906151
0.04882953695
0.2117387579
0.4457641603
0.6887096494
0.8990079845
1.040334634
1.118919513
1.155662485
1.168595155
1.166564255
1.158937928
1.154592155
1.152714922
1.152287986
1.149466985
1.149966987
1.152224816
1.157052361
1.161900968
1.164713884
1.151594533
1.100803639
0.8743592249
0.368743181
0.04928045491
0.2212136669
0.4537294073
0.6930467507
0.8992212228
1.038821262
1.117028098
1.153985774
1.167361888
1.165806549
1.158614389
1.154420881
1.152585532
1.152151948
1.149493295
1.150055397
1.152395995
1.157258439
1.161931195
1.164267024
1.149306645
1.090329969
0.8396172931
0.3460282055
0.04994449261
0.2298324821
0.4610702796
0.6966866052
0.8987561965
1.036633399
1.114711302
1.152092271
1.166031661
1.164987334
1.158310005
1.154291614
1.152494037
1.152048569
1.149359116
1.14998064
1.152407914
1.157352172
1.161988182
1.16384931
1.146770798
1.078232414
0.8082776882
0.3272874048
0.05080300853
0.2377719766
0.4676446975
0.6993878243
0.8975216607
1.03385038
1.112057294
1.150043868
1.164638938
1.164126168
1.157874619
1.154000288
1.152236064
1.151780362
1.149394023
1.150091418
1.152621941
1.157614145
1.162071531
1.163468755
1.144015008
1.065378636
0.7808726719
0.3121108603
0.05195269061
0.2447313406
0.472912531
0.7006803466
0.8952739809
1.030470817
1.109131904
1.147891006
1.163210641
1.163238932
1.157506374
1.153798049
1.152062273
1.15159102
1.149261483
1.150025783
1.152652814
1.157732525
1.162191076
1.163123082
1.141128575
1.052984373
0.7587937553
0.302319245
0.05343401442
0.2499209412
0.4760695568
0.7000195334
0.8917931673
1.02650999
1.105995588
1.145672045
1.1617664
1.162338141
1.157005817
1.153432005
1.151722591
1.151238757
1.149327662
1.150177007
1.152921809
1.158062983
1.162335032
1.162799694
1.138215616
1.04211384
0.7434105846
0.2980404923
0.05521020237
0.2525323768
0.4765979841
0.6972926963
0.8871885617
1.022104644
1.102718392
1.143414812
1.160319111
1.161433563
1.156611435
1.153189579
1.151501504
1.151000291
1.149225493
1.150142755
1.15298426
1.158205931
1.162510566
1.162479658
1.135318268
1.033061876
0.7340882662
0.2999055863
0.05720649378
0.252806352
0.4749448409
0.6931124159
0.8819158131
1.017467412
1.09936445
1.141137202
1.158876197
1.160530307
1.156087532
1.152796095
1.151130071
1.150616291
1.149320803
1.150330208
1.15330049
1.158600221
1.162699593
1.1621437
1.132412348
1.025386123
0.7284348042
0.3046190934
0.059407634
0.2519742464
0.4722392688
0.6883603654
0.8764442659
1.012764474
1.095973627
1.13884802
1.157441146
1.159634324
1.155674877
1.152518579
1.150870506
1.150338894
1.149278524
1.15035134
1.153411116
1.158770369
1.162910683
1.161776344
1.129473142
1.018543422
0.7245212563
0.3101117857
0.06182730064
0.2509502471
0.4693181402
0.6835898666
0.8710204679
1.008072088
1.092563756
1.13655081
1.156015512
1.158742958
1.155182896
1.152157449
1.15052821
1.149985696
1.149374107
1.150546646
1.153745958
1.159201758
1.1631226
1.161371245
1.126509762
1.012253541
0.7213254154
0.3156847646
0.06445319568
0.2500207226
0.466478771
0.6789739813
0.8657127979
1.00341294
1.089143391
1.134248851
1.154602732
1.157866496
1.154702699
1.151806136
1.150196828
1.149636341
1.149421408
1.150648368
1.153923934
1.15942003
1.1633484
1.160929935
1.123565365
1.006405634
0.7185972141
0.3212148991
0.06727005741
0.249234736
0.463773361
0.6745322106
0.8605261897
0.9987922355
1.085717847
1.131943434
1.153218714
1.15700516
1.154355989
1.151563066
1.14996815
1.149399496
1.149598209
1.150951443
1.154402915
1.16001295
1.163581359
1.160475221
1.120758901
1.000954822
0.716267391
0.3266599981
0.07027045657
0.248600792
0.4612347712
0.6702910535
0.8554797219
0.9942253037
1.082296083
1.12963533
1.151934152
1.156229873
1.153721739
1.151105859
1.149542094
1.148954386
0.1645986281
0.05622586616
0.04438580853
0.3316741201
0.08159028005
0.05922104418
0.4694503159
0.114469447
0.08543743029
0.4550317704
0.1452849543
0.1193431071
0.4084327315
0.03896082406
0.04865943097
0.1825029466
0.1492658351
0.3193811682
0.07601467774
0.04000268624
0.09897861226
0.2500090461
0.1857451561
0.08037410897
0.05698630454
0.04582190188
0.08512377357
0.02863346852
0.01915561112
0.06045145262
0.1046440775
0.106648393
0.3260175991
0.322665143
0.1900446726
0.02910466268
0.04328433096
0.08525883954
0.1206414864
0.107115055
0.4097455367
0.4494348907
0.3388042993
0.3984373524
0.2020114532
0.2286657856
0.0508042173
0.03616075433
0.1168774049
0.1487919628
0.1267006514
0.4593399277
0.4893735169
0.4628015543
0.4864415072
0.1306266968
0.1698962483
0.09474251522
0.06942628099
0.4750353494
0.4421917545
0.486018694
0.4374596318
0.07702487577
0.1016356805
0.0167647761
0.1364544842
0.1281069994
0.510931229
0.3907060092
0.4351434971
0.3733948717
0.03021638787
0.0496842328
0.2731585056
0.1055027403
0.07780702754
0.06610039687
0.1544701038
0.03157725417
0.06007491801
0.0444491063
0.02987749084
0.04802574247
0.03169923184
0.04830356226
0.2323214268
0.2589547522
0.2733426049
0.201569887
0.1862342567
0.1759927351
0.2046091548
0.03580079411
0.02894567124
0.07079727643
0.04289413982
0.04859530599
0.04959770734
0.04311809352
0.06927758995
0.1726862257
0.1980861233
0.416364108
0.1543195615
0.1298423294
0.1844224896
0.1563580047
0.06607396049
0.0520600367
0.1019648881
0.07166153688
0.09203019315
0.04907875465
0.06898869243
0.09761138978
0.1030282179
0.1289818828
0.4789618574
0.1035780679
0.07860157497
0.128435965
0.1049187793
0.124242104
0.09869302095
0.05064321357
0.07528511167
0.4358352114
0.01282850961
0.05290382547
0.03185961419
0.07755783423
0.05444767545
0.0119696093
0.1432649193
0.1383974463
0.01885787972
0.004715436412
0.0299146074
0.3687990457
0.06162647886
0.01880005842
0.01115764861
0.03151163118
0.01912926463
0.05910106836
0.2392136955
0.1717526752
0.09618184239
0.1033779229
0.06517385051
0.03705829678
0.01684912731
0.008338015035
0.2517210772
0.2623088107
0.1695873251
0.009451222137
0.1514471503
0.1862339444
0.1572401856
0.01133807857
0.05455327684
0.04729285059
0.07397153225
0.1601704343
0.1471933795
0.153464624
0.07264330152
0.1156915583
0.04132786076
0.01302324857
0.02270078395
0.02195890822
0.0300103514
0.0464457439
0.04582455784
0.03303103095
0.1339015572
0.1213277346
0.1330247646
0.095301435
0.1179945576
0.1307191218
0.02701938865
0.01287085039
0.04684373993
0.02256721995
0.03838384284
0.03077581909
0.01933428553
0.02968703479
0.02148748878
0.01545549789
0.02281158715
0.01973095648
0.009924476906
0.01639590969
0.02160054321
0.03716509992
0.03778991343
0.04351986699
0.04249023667
0.01704697111
0.00999253037
0.08340893785
0.01435500154
0.02601783356
0.009416084923
0.0124677558
0.0796874914
0.090977141
0.2526808712
0.2402155916
0.06962531021
0.05843073957
0.01102538278
0.04482991257
0.1859038004
0.1736820431
0.2027693414
0.1908549004
0.04517677101
0.04993636713
0.04168311106
0.09691275501
0.06542958427
0.05779801632
0.03982432906
0.06495168998
0.1092324832
0.03832080299
0.02356004681
0.01487105805
0.05301400967
0.02627921335
0.04233984224
0.02526970969
0.05911134516
0.03963698285
0.0387947874
0.198397476
0.03102238499
0.1977265316
0.220374649
0.03469571869
0.03880777656
0.03143489365
0.0342040423
0.2163898153
0.03429434973
0.03402654177
0.04619330269
0.06854015579
0.06384428558
0.07487666855
0.07023062976
0.0464653599
0.05157299727
0.05601291131
0.0508406401
0.06218695112
0.0574567181
0.05061170363
0.1423381609
0.1407546178
0.1715650211
0.1698148412
0.06240522097
0.009265919376
0.0611538548
0.09432720357
0.09254108161
0.1161310288
0.1145452211
0.02763957011
0.04045981036
0.1100366069
0.03084925277
0.01833543487
0.06644984881
0.2194959961
0.2071093339
0.2360106312
0.2236037549
0.06773797687
0.02449738044
0.04849056158
0.04749590198
0.0706138972
0.06977632817
0.007492291587
0.03252008335
0.08535171451
0.07361681981
0.1688978329
0.1600078472
0.02402438263
0.01206973531
0.01887706296
0.01367945579
0.03008433324
0.01249555283
0.01337142979
0.01289869116
0.03011998101
0.05010373788
0.01302991203
0.01599242432
0.003584929269
0.01772901186
0.0136441319
0.5922474972
0.3698806958
0.3807081321
0.2502244631
0.008703525279
0.005321245462
0.142784205
0.3341510221
0.2814464008
0.005826421018
0.01236129991
0.01071312237
0.1010296387
0.08961598118
0.03478310984
0.1992481384
0.1667134456
0.07704159499
0.009374652989
0.01589226431
0.01272401881
0.008497347
0.01249784189
0.008827496933
0.03146521341
0.01333873703
0.01250383851
0.04048154145
0.04725697786
0.01356680781
0.01867530706
0.009104187395
0.009193923989
0.03781684105
0.1446235773
0.3166921874
0.304755505
0.332536707
0.3206613263
0.1478358921
0.2688487194
0.2566134891
0.09224339034
0.03322311788
0.09527613082
0.09016952755
0.01201591663
0.01694684603
0.08415803008
0.04602795408
0.01515353925
0.01345239971
0.03781215488
0.04260032556
0.03826248766
0.04919258634
0.04414761376
0.03946358497
0.0350310999
0.0093144646
0.009136092864
0.03022935036
0.1835417804
0.3481360199
0.3364296752
0.05938514901
0.06130209408
0.1345028233
0.01981418034
0.02162707014
0.05561860343
0.07980755039
0.1021630111
0.09450976893
0.05515457573
0.08254977759
0.07685707212
0.09172799968
0.08477990815
0.05626574017
0.1161414427
0.2848804212
0.2728276338
0.3007864586
0.2888829714
0.1179112331
0.09969747208
0.03670856561
0.03742734638
0.0212869121
0.02210631995
0.08289418129
0.1233820384
0.05527389202
0.05898548383
0.03772735318
0.03840035417
0.1089392906
0.1139064679
0.04264448985
0.0583331436
0.008116824923
0.01660743323
0.05061536389
0.03883398414
0.07454765864
0.02067708993
0.021147946
0.02028377353
0.06353073914
0.01141041951
0.00438124759
0.1233513878
0.1067664882
0.08842836956
0.0842932656
0.02956946036
0.01700594992
0.02824299031
0.06958859603
0.01856427143
0.01185785327
0.01790271668
0.02159726435
0.00282876666
0.0310468786
0.02016959284
0.01208026991
0.006314061048
0.01166498015
0.00946447779
0.0092866868
0.02595124624
0.01988388519
0.007337182434
0.0383459305
0.03998148544
0.01515159806
0.0110660585
0.007141582469
0.01164802156
0.01648858572
0.01054627882
0.01271546722
0.03857687754
0.01040907853
0.01036727569
0.01187177508
0.01258233098
0.03217901544
0.01207259788
0.01198157619
0.01282845049
0.01194503005
0.01252484573
0.01684854895
0.01357148747
0.02329538848
0.01851801218
0.01255166758
0.01515363974
0.02177945086
0.01814654937
0.02769066393
0.02298620364
0.01771222013
0.0158517479
0.01240105288
0.01147915307
0.008950088846
0.03331687425
0.03982129333
0.01227138114
0.01159022156
0.01274473742
0.0132117853
0.04607031718
0.00894878804
0.008962491174
0.01097053711
0.009089096013
0.008960428174
0.03891683294
0.008968408898
0.01253309127
0.01219609212
0.01116469119
0.01891651594
0.04887267137
0.04409100286
0.01042832756
0.03578630927
0.0305630453
0.04235982328
0.03773488554
0.01073954367
0.01144490529
0.03373156157
0.02826825291
0.1034772545
0.09709371884
0.03701397281
0.04730736014
0.1105001379
0.1052157767
0.04494479407
0.04407652278
0.06753654838
0.07916521925
0.09662266353
0.05945033679
0.07426802036
0.06844923388
0.05984529249
0.1381392997
0.1269135894
0.1050216944
0.1406504985
0.05976090134
0.0390829271
0.04371172943
0.05434735071
0.033678261
0.03772272095
0.02136680065
0.02023029993
0.04467475994
0.0145362873
0.01463085608
0.01142814561
0.02138694743
0.02538412223
0.01520840987
0.02157799276
0.03447471957
0.02948543502
0.02243599871
0.02921482882
0.09429808215
0.08264477275
0.1006307278
0.09673007153
0.0303346945
0.07434184576
0.07214946881
0.07932236996
0.07513582212
0.03619793582
0.1169957158
0.1125448414
0.1241985224
0.1185757716
0.03678177479
0.03254428503
0.1057330817
0.1019745334
0.1111206593
0.107040855
0.03288883261
0.009669334656
0.009418671033
0.0348157647
0.03152067715
0.009452585616
0.00976790037
0.04306067118
0.04229831614
0.04521477074
0.04332303857
0.04089711134
0.03986002059
0.04204588271
0.04116558887
0.06881360786
0.06687573757
0.07146765978
0.06948856507
0.06147603201
0.04789444208
0.06606674819
0.06399970168
0.02246294548
0.01909669696
0.02905229319
0.02428655413
0.006573779603
0.01224385613
0.01145804199
0.01783564909
0.01253985833
0.03575797362
0.03635693368
0.09837161746
0.02129742292
0.02108646756
0.02194817354
0.02148050194
0.02043119762
0.08519028943
0.02275184305
0.03362091728
0.04052880082
0.05343267863
0.1216222283
0.03711076887
0.0240684799
0.03972345792
0.03679544091
0.02271651494
0.02218194735
0.02363392736
0.02293673464
0.1103016125
0.03862881097
0.03951032337
0.006859350908
0.02565401167
0.01015956198
0.01026938619
0.01009288412
0.02388883104
0.008464737156
0.01847102719
0.01168599841
0.01198863461
0.04997542093
0.04364215332
0.02008853944
0.02057182465
0.07362189923
0.06567728098
0.01921372365
0.02002715708
0.01140426415
0.02848187263
0.08175396469
0.07358016599
0.01340035818
0.01274987644
0.01778374783
0.01225430434
0.01372548572
0.01544551451
0.03093716164
0.008968788619
0.01328439907
0.0121215631
0.01328696025
0.02100045501
0.05278698023
0.1119060855
0.1449313722
0.01093828588
0.01063872717
0.1892812636
0.2407224217
0.1976285238
0.007230837633
0.03394332618
0.01329339693
0.01654578806
0.1373065216
0.1431757014
0.1607421805
0.004771045021
0.007324830739
0.005394374775
0.004876635593
0.005729707854
0.00448473523
0.05630425975
0.0351468633
0.02222829146
0.02544467423
0.02316751231
0.02715934113
0.2136733184
0.3785329846
0.3672052453
0.3676357683
0.3823683047
0.2174430831
0.04085332436
0.03560155639
0.01214211829
0.06209763614
0.07341391812
0.1347430416
0.1175197462
0.1121781289
0.04778804757
0.02823060451
0.03056231103
0.03293805708
0.3634512457
0.3519733168
0.1870315104
0.1489260005
0.06686844316
0.07060003419
0.07360531587
0.08413881345
0.1624884705
0.05816898034
0.1255115514
0.1193763051
0.01139404757
0.01131309339
0.0137854991
0.01992486673
0.02021799952
0.03269823514
0.01141808727
0.01168226202
0.01139865028
0.02510574577
0.04918403346
0.04235686232
0.01874842458
0.03130449292
0.01948447364
0.01965961241
0.01915303988
0.01523601741
0.009641176163
0.01130264804
0.01093474976
0.0112757723
0.02179356494
0.02701654728
0.05443424566
0.04019871931
0.03689843168
0.03368919985
0.02485954852
0.04044767039
0.01431525925
0.0197220327
0.01229866433
0.008857116467
0.008970637813
0.01255007068
0.01239821937
0.02286726464
0.01451634312
0.01001214568
0.01802625281
0.01950002396
0.01794221268
0.01428547213
0.01773596119
0.01560808641
0.01035499685
0.01086750583
0.006548434371
0.009606204446
0.01035170127
0.05541355666
0.05040418394
0.02056813983
0.009305274852
0.01266829795
0.01165168446
0.01114324711
0.01350903814
0.0122317203
0.04786698315
0.03703876441
0.0424699131
0.06620857304
0.09324054867
0.09187195489
0.04137156524
0.06679921055
0.06319692889
0.09085496937
0.08910700673
0.06358673407
0.03293303778
0.03965129952
0.03539630821
0.02715019315
0.02777240171
0.0229074069
0.04676070802
0.04540553539
0.05015350523
0.02351618568
0.03379436991
0.03216726141
0.05198646045
0.05161496949
0.03076935394
0.02852872835
0.0281192751
0.03113294657
0.03043402999
0.03522559867
0.05800140239
0.05739340821
0.06158924947
0.06083169831
0.03805698597
0.03176337351
0.05320066347
0.05268903472
0.05676807887
0.05615215525
0.03374962575
0.06429915511
0.06617687018
0.1472319953
0.1359954928
0.061877805
0.063702892
0.09088539765
0.09399986236
0.177062225
0.02653305369
0.0263891343
0.02788328036
0.02766602378
0.02026449525
0.02612174979
0.02601675644
0.1643418148
0.08631880016
0.08972364672
0.009154449839
0.009143230256
0.01130678858
0.01089681038
0.00925068742
0.009017895619
0.00671966705
0.05684124559
0.02249774196
0.02763037977
0.1334405164
0.1275568485
0.06133069024
0.07062857149
0.1404628674
0.1351921554
0.0320164487
0.03207583983
0.04883982899
0.04718348818
0.03162424146
0.03157849997
0.01114612576
0.02273484933
0.03608963751
0.03553403085
0.008761749377
0.0144929313
0.01678646673
0.01385994927
0.01332894176
0.01856644763
0.0188084012
0.0305333069
0.01264608574
0.009215887954
0.01250240152
0.01285044167
0.02855933559
0.01806606344
0.01865079971
0.01337100231
0.03070321663
0.02560517779
0.01106670292
0.01104618246
0.01072545707
0.01092431822
0.01484627321
0.006421012353
0.004118257918
0.00761906955
0.01138438738
0.01066550928
0.01076849729
0.01056672201
0.01075144704
0.0107577211
0.01009436874
0.006660071854
0.005257082504
0.0114533537
0.01178485392
0.01109685943
0.01118742008
0.01296527331
0.01991572879
0.02018715146
0.01951517417
0.01973930828
0.01284354308
0.009052234844
0.01500670386
0.01499597143
0.01549185937
0.01511396497
0.008951330987
0.01436857653
0.02243871678
0.02496576081
0.02047489666
0.02113874975
0.01391716516
0.009285128863
0.01503463978
0.0150458319
0.01496852451
0.01501783204
0.009207503615
0.01074203527
0.01092564179
0.01037215948
0.01088360838
0.0368693875
0.05575085798
0.05529063147
0.02152435639
0.03568269287
0.03543137424
0.03699057279
0.03604300685
0.02172877373
0.01188362737
0.01142811144
0.01164216624
0.01196715284
0.02019220884
0.01999688342
0.02062826352
0.0204064808
0.01574975947
0.03476208135
0.0208107732
0.02172603258
0.02085224683
0.03494225355
0.03472220481
0.03527452847
0.0350911649
0.02097705027
0.02152355202
0.02093026764
0.0313521863
0.02247499925
0.01616591831
0.007921182629
0.01143945073
0.01121388355
0.007816992282
0.04234076017
0.02945067271
0.002985872256
0.02957201475
0.04512580847
0.04478486402
0.01853379219
0.01180241414
0.008674409056
0.003501159731
0.0133731902
0.01366305083
0.01924613798
0.01941280144
0.03123514632
0.01957590338
0.01086995297
0.01129683754
0.01493877074
0.004482168396
0.009139454058
0.007022058011
0.006578396087
0.007367031284
0.009498853296
0.006502478775
0.01096585841
0.01087783621
0.01084234669
0.03994900641
0.03093004985
0.008300473313
0.01034706649
0.01150007494
0.0187680793
0.02105597671
0.01222452694
0.01512165996
0.01495466168
0.01058924714
0.006995091114
0.01053031038
0.01205479624
0.008432761265
0.01198614151
0.01223253061
0.01223156395
0.01243945365
0.01216926595
0.01236532356
0.01228324602
0.01210143487
0.01249940851
0.01254300743
0.01245248144
0.01271714434
0.01284092378
0.01271648175
0.01875207663
0.02016233725
0.01894919077
0.02654179429
0.02314477066
0.0179796406
0.01687902944
0.01818052278
0.0109900389
0.01757386306
0.01860950542
0.01265088312
0.01753498964
0.01181624993
0.01203930454
0.01912272185
0.01932453722
0.01868310305
0.01896648446
0.01186876444
0.01291273106
0.02244150101
0.02204834676
0.008984058923
0.008967880565
0.009815802067
0.007243127183
0.008915012765
0.008921409347
0.008865460305
0.008535130373
0.01033345995
0.01856951639
0.016587885
0.0214457687
0.02034265493
0.01177479148
0.009647652699
0.01014725125
0.01376830461
0.006609906639
0.009902996188
0.009856886235
0.01094214913
0.009648139445
0.009823131561
0.01645066888
0.01462465209
0.009731988606
0.04613914727
0.04306389866
0.08207613358
0.07361305417
0.04331748354
0.06332197939
0.08825151599
0.08479478244
0.03532952651
0.03252218842
0.03054231992
0.0230774508
0.02994869679
0.04340425969
0.04405339044
0.03849095283
0.0212967237
0.03062333758
0.03108819546
0.02781636619
0.02877480225
0.02005499492
0.01376145512
0.01480307587
0.02284354247
0.01617732986
0.01534398358
0.017318484
0.01639191884
0.02318051276
0.01565078709
0.01635166262
0.01284407551
0.01676587622
0.04760745794
0.04779795755
0.03063811427
0.03031206238
0.05064798293
0.05063833193
0.02921415329
0.02882418388
0.02998038942
0.0295616765
0.05911628251
0.05853483941
0.03562532081
0.03740296768
0.06025084792
0.0596887531
0.05439044523
0.05384519945
0.03219915174
0.03327548165
0.05552437215
0.05495318954
0.00956091196
0.01513017046
0.01516517462
0.01509106861
0.015127422
0.009514119771
0.009814308502
0.01410543985
0.01228348303
0.01509863683
0.01485010678
0.009806072358
0.04279440838
0.02525480838
0.02552093548
0.02483782344
0.02504057309
0.04255199237
0.04411083176
0.02644958867
0.02692721753
0.02578274121
0.02608900459
0.04363867853
0.04052092523
0.02363462548
0.02387092084
0.02327212056
0.02349920289
0.04029176196
0.04177027501
0.02444989014
0.02463736682
0.02403327329
0.02426429606
0.04150065052
0.0269672956
0.02678483879
0.0681763282
0.04585841031
0.04617466707
0.04516933682
0.04544532924
0.06746795826
0.02740876735
0.02720520752
0.0248895505
0.02613093036
0.05943902327
0.04148558439
0.04118606209
0.02781678496
0.02921002805
0.05312985153
0.06559207453
0.04447859126
0.04467515811
0.04377109813
0.04372274236
0.0643782875
0.02569238446
0.02573707047
0.009139121485
0.009286566994
0.009087164357
0.01049693782
0.00968592815
0.01189198922
0.009080930439
0.00907641857
0.008987756808
0.00903510225
0.01181730474
0.01596458584
0.009684158962
0.01065376065
0.009187035
0.009019767891
0.01381951118
0.0356826282
0.05324486406
0.05293934046
0.05461572384
0.05426042599
0.03625993989
0.02125333786
0.02101645373
0.02182511483
0.02155437653
0.02152173415
0.01688083688
0.02391998301
0.04382326432
0.03927386458
0.05081800824
0.04904307773
0.03388776409
0.02612488936
0.01818783453
0.0233667353
0.02483594318
0.03905740152
0.02292360588
0.02320815138
0.02224897595
0.02297673949
0.0391232787
0.02255266557
0.02232875475
0.02336974119
0.02312741937
0.0103109488
0.01106436216
0.01084375526
0.01332193843
0.01186708412
0.01032315477
0.009904193625
0.01006488782
0.0104370914
0.01029968606
0.006721248518
0.01209324628
0.01150852521
0.01168422417
0.01206602137
0.01173955292
0.0120524745
0.01953935642
0.01949389171
0.01979221866
0.01972709872
0.02996022727
0.02994083411
0.04521337779
0.01873010843
0.01976228775
0.01926096623
0.01932681246
0.02030229193
0.03414480541
0.03378794037
0.03456556588
0.03428779576
0.0203795793
0.01975773578
0.03311035493
0.03127570444
0.03366863169
0.03308798175
0.01974392082
0.01149354108
0.04319585241
0.04264820155
0.02827772137
0.0135744572
0.01111040715
0.01084533288
0.00827574209
0.01135143473
0.01292412668
0.01835208746
0.01290476645
0.01393512821
0.01362738803
0.03065135846
0.01892241261
0.01912522338
0.01235942157
0.01236150459
0.0124186733
0.01314915683
0.01297353084
0.008853107994
0.009095520531
0.01322435814
0.0124870877
0.01292283084
0.01535333222
0.01892919842
0.02858446111
1.155368985
1.155987807
1.155911898
1.156248624
1.157243903
1.156549908
1.157663284
1.033067595
1.157461368
0.9939163518
0.8858310623
1.052858199
0.8663852755
0.8211921912
0.9724237466
0.8183001353
0.8307565795
0.9828764857
0.8409089148
0.9119203391
1.083266209
0.9387465929
1.072847958
1.157444644
1.118290236
1.157248743
1.1565864
1.156918338
1.156062925
1.155972138
1.155566662
1.156890094
1.156108577
1.157453373
0.9574090613