/*--------------------------------*- C++ -*----------------------------------*\
| =========                 |                                                 |
| \\      /  F ield         | OpenFOAM: The Open Source CFD Toolbox           |
|  \\    /   O peration     | Version:  v1912                                 |
|   \\  /    A nd           | Website:  www.openfoam.com                      |
|    \\/     M anipulation  |                                                 |
\*---------------------------------------------------------------------------*/
FoamFile
{
    version     2.0;
    format      ascii;
    class       surfaceScalarField;
    location    "0.05";
    object      phi;
}
// * * * * * * * * * * * * * * * * * * * * * * * * * * * * * * * * * * * * * //

dimensions      [0 3 -1 0 0 0 0];
oriented        oriented;


internalField   nonuniform List<scalar> 
25162
(
0.0004488268046
0.9162011732
0.0005690213859
0.9165798054
0.0006869645643
0.9165320568
0.000336365737
0.9165480077
0.0004525910888
0.4583374481
0.0003489176346
0.4582985572
0.0004371910225
-0.0004357482199
-0.0005515580969
0.4582705501
0.0006310080173
-0.0007082035046
0.4582164341
0.0008267694328
-0.0009556302058
0.4581911988
0.001094431407
-0.001250741488
0.458169794
0.001415947499
-0.001579506921
0.4581766321
0.001737874807
-0.001887341286
0.45821691
0.002001931299
-0.002084710353
0.4582940276
0.002124182752
-0.00211477672
0.4583876617
0.002062115004
-0.001972442947
0.4584536042
0.001848838706
-0.001711119836
0.4584836047
0.001562515133
-0.001400734719
0.4584829138
0.001252820917
-0.00110779713
0.4584827087
0.0009400884038
-0.0008719673233
0.4584524197
0.000769547632
-0.0006333269933
0.4584615565
0.0005217705218
-0.001724378973
0.9186414255
0.0002028719537
-0.0004699184498
-0.001076695233
0.9187023163
3.537690674e-07
0.915772951
0.9138003538
0.001234716704
0.9149664565
0.001981144507
0.9158333776
0.002309867967
0.9162033334
0.0007343386479
0.9169499857
0.001173551374
0.4580188358
0.0008840022502
-0.4581684994
-0.4581422071
-0.001088292109
0.4578870681
0.00134343106
-0.4579800889
-0.001657590621
0.4576039764
0.0009546686433
0.001079034505
-0.2289222867
-0.001155118478
0.2288242002
0.001253205003
-0.001667166006
-0.2288560669
0.2287272019
0.001796030993
-0.002306532374
-0.2288078981
0.2286450233
0.002469407179
-0.003031384747
-0.2288158326
0.228641112
0.003206105366
-0.003706955947
-0.2288999304
0.2287692268
0.003837573393
-0.003931106974
-0.2290714605
0.2289551443
0.004047562838
-0.004227005999
-0.2292510763
0.2292632321
0.004214850188
-0.003929962154
-0.2293669615
0.2294809769
0.003815946806
-0.003361920736
-0.2294283142
0.2295987186
0.003191516409
-0.002689005439
-0.2294266182
0.2296059285
0.002509695165
-0.002053727461
-0.2293864302
0.2295436785
0.001896479176
-0.4588622925
-0.002857169459
0.4602739608
0.001445501093
-0.0001568332581
0.460914233
-0.001512084585
-0.4592453151
-0.001742122588
0.9181173027
0.0005380772512
0.001728168155
-0.001064875623
0.9180250693
0.0003186936343
0.9143893817
0.9141190474
0.001569683293
0.9133967732
0.004182527039
0.9132205339
0.0070892404
0.91329662
0.002990368384
0.914582443
0.006466414727
-0.4579377948
0.457709099
0.003219064226
-0.4576413588
-0.003266778164
0.4582124198
0.002695717187
-0.4570909937
-0.002871189033
0.4567498182
0.001553756671
0.001658607893
-0.2283474839
-0.001920580032
0.2281400445
0.002128019447
-0.2280884662
-0.002867273612
0.2278039037
0.003151836025
-0.2278983408
-0.003839902843
0.2289816153
0.002753908022
-0.2304959358
0.0009957427815
0.2314550446
-0.001964457659
-0.2302447959
0.003885930877
0.2305653857
-0.004213135447
-0.228374998
0.004312150721
0.2281602077
-0.004095356051
-0.2269449112
0.002672928808
0.2262426188
-0.001961101299
-0.2278108547
-0.000946282039
0.2266135561
0.002153107557
-0.2303585085
-0.005981228904
0.230407588
0.005932899908
-0.2303674936
-0.004914133153
0.2307071572
0.004574469485
-0.003350545014
-0.2302531577
0.2309193903
0.002684312456
-0.4628713428
0.0003074923804
0.4616657934
0.0008980570651
-0.4599878775
-0.001070211919
0.4599496342
0.001108455266
7.747636277e-06
0.9197970327
-0.0009963611694
-0.0006911164963
0.001518205546
0.9165146114
0.0007056900288
0.9152018973
0.9148247374
0.0005714003821
0.9128253728
0.001258802272
0.912533132
0.002587996185
0.9119674261
0.003369847591
0.91146014
0.002340451597
-0.4568928395
0.4563967238
0.003865963321
-0.4596685306
-0.00515303923
0.4565270249
0.008294544919
-0.4580940062
-0.009665586535
0.4595146326
0.002440316286
0.005804643808
-0.2273774161
-0.002504529691
0.2271284491
0.002753496655
-0.2274596318
-0.003313802145
0.2287062411
0.00206176279
-0.2325602895
0.001173689161
0.2333258456
-0.001963340686
-0.2331522768
0.003241415627
0.233190502
-0.003304717271
-0.2305892309
0.002671687718
0.2302017022
-0.002297270256
-0.2274041692
0.001156642863
0.2271078374
-0.0008565617592
-0.2249054648
0.000318498605
0.224811275
-0.0002046103857
-0.2241372716
-0.0003462419643
0.2238173555
0.0006945638459
-0.2267212412
-0.002472918118
0.2259149114
0.00330134963
-0.2342891547
-0.001630232322
0.2377574935
-0.00183758711
-0.003451427285
-0.2317614374
0.2317672251
0.003445639553
-0.4616132776
-0.005196014632
0.4627721993
0.00403709293
-0.4606423378
-0.002871833855
0.4615926142
0.001921557481
0.00276982564
0.9196812869
-0.001415283026
-0.001238796801
0.001952691765
0.9173317453
0.0009009855408
0.9162536035
0.915725723
0.0001683243997
0.9126570484
0.0004116259449
0.9122898304
0.0008600386313
0.9115190134
0.001477322304
0.9102162067
0.0006266495806
-0.4560593472
0.4552053499
0.002331319575
-0.4549995473
-0.00283657359
0.4542670131
0.003569107809
-0.4532722347
-0.004562420838
0.4523394313
0.002889822604
0.002605401585
-0.2276118857
-0.004831656072
0.2258334971
0.006610136279
-0.2321423254
-0.006954623816
0.23479797
0.004269432145
-0.2339251303
-0.0002405856277
0.2336013231
0.000521493944
-0.2313818685
-0.002982104749
0.2301022928
0.004227780184
-0.2274956801
-0.008657915424
0.2259961864
0.01014270074
-0.2260509309
-0.01340816729
0.2256059236
0.01385687637
-0.2258767406
-0.01301462787
0.226909535
0.01200446369
-0.2248354176
-0.007611810613
0.226045629
0.006441947976
-0.2336097925
0.004422523672
0.2294855733
-0.0002671332726
-0.2292319935
-0.003856308341
0.2288294995
0.004279267972
-0.005068501222
-0.2331075199
0.2336328182
0.004543202926
-0.4643710188
-0.00599977949
0.4658927095
0.004478088718
-0.4624809626
-0.003400229315
0.4633902091
0.002490982854
0.003496235518
0.9214449229
-0.002988796424
-0.002271075148
0.001910253226
0.9189177276
0.0008643814477
0.9172994753
0.9165901044
-0.0001472484747
0.9128042969
-0.0001756404631
0.9123182224
7.829542904e-05
0.9112650775
0.0003451925739
0.909650362
0.000298947555
-0.4542689871
0.45389151
0.0007226697293
-0.4536558926
-0.00176140736
0.4527944463
0.002622853656
-0.4513527777
-0.003297596734
0.4501706461
0.002224731232
0.002254997121
-0.2267565117
-0.002245142501
0.2270143328
0.00197354551
-0.2312064257
-0.002125957077
0.2307289473
0.002560865885
-0.232094463
-0.007226250277
0.2291003341
0.01017449943
-0.2255064892
-0.01736510427
0.2254321772
0.0174115951
-0.2197333622
-0.02504663017
0.2182148534
0.02655803332
-0.2236786368
-0.03354434196
0.2228435126
0.0343801487
-0.2335002801
-0.02884045372
0.2352348121
0.02711835087
-0.2379537239
-0.01370773794
0.237200815
0.01449612845
-0.2288019451
-0.01139884579
0.2304705323
0.009777419817
-0.2294661012
-0.006251893752
0.2302922694
0.005464478272
-0.004111958445
-0.2348380461
0.2349391127
0.004017470203
-0.4672043245
-0.006120136144
0.468512609
0.00481185166
-0.4639020994
-0.003849252797
0.4643626436
0.003388708584
0.002824985678
0.9235726695
-0.002372614225
-0.002580118019
0.001528312308
0.9202144009
0.0006219718604
0.9182058157
0.9172120763
-0.0006152173039
0.9134195142
-0.001083698652
0.9127867038
-0.001367233918
0.9115486128
-0.0001152186299
0.9093113315
-0.0009129847643
-0.453725439
0.4533773269
0.0002328934493
-0.4516637674
-0.0005167483624
0.4512289168
0.0009515990106
-0.4496452247
-0.002011103329
0.4491378365
0.001239755942
0.001279311383
-0.2267029323
-0.001304925971
0.226459208
0.001526309299
-0.2290473685
-0.00321203345
0.2274063577
0.004800011811
-0.2237262729
-0.008181633724
0.2222252663
0.00963545372
-0.2144996589
-0.01610496354
0.2108941386
0.01969405025
-0.2094899136
-0.0360758383
0.1063585933
0.1006384098
0.01711107574
0.02145767311
-0.02649036179
-0.1087989363
0.1082104422
0.02707885596
-0.02149132455
-0.2481041947
0.04090999216
-0.02193273684
0.1248637336
0.1257545304
-0.0299939445
-0.2435946835
0.2475721825
0.02603959419
-0.237288238
-0.01619578506
0.2399653753
0.01356968289
-0.2338969138
-0.008100305003
0.235214459
0.006821012006
-0.004212747239
-0.2352197552
0.2357062291
0.003741142086
-0.4698014342
-0.005072651206
0.4705459529
0.004328132517
-0.4652665214
-0.003239367753
0.4661533204
0.00235256875
0.001478181669
0.9250297663
-0.001345139732
-0.001590138731
0.0006420516364
0.921050531
0.0002148541901
0.9186330132
0.9174269305
-0.001114830742
0.9145343449
-0.002166431951
0.913838305
-0.003005196967
0.9123873778
-0.001553969708
0.9100500436
-0.002189939394
-0.4533485306
0.4533470475
-0.001552486588
-0.4510231406
0.00160222168
0.4509135957
-0.001492676745
-0.4478146538
0.001303267089
0.4475330107
-0.0004147098178
-0.0006058127596
-0.225181847
-0.0005392755609
0.2246577347
0.0010347314
-0.224425495
-0.003090320183
0.2236841909
0.003781447977
-0.2182422135
-0.006483748967
0.2172070174
0.007479173587
-0.2053033847
-0.01026111202
0.2045442148
0.01101557996
-0.09356276068
-0.007215005612
0.09350074575
0.007277020545
-0.02906293984
-0.1373771402
0.1401072891
0.02633279098
-0.02979695249
-0.2602195579
0.2641256092
0.0259007815
-0.247324373
-0.01705118796
0.249704203
0.01471078449
-0.2400423157
-0.008952758691
0.2416638726
0.007375979749
-0.003467185315
-0.2377914887
0.2384967604
0.002774679492
-0.471650706
-0.002829163962
0.4725339788
0.001945891186
-0.4668444068
-0.001342299904
0.4674071333
0.0007795734538
-0.0006389737406
0.9256178866
0.0003021737111
-0.0002513203037
-0.0006492731506
0.9210608304
-0.0003755077466
0.9183592478
0.9170514227
-0.001613810655
0.9161481556
-0.003154924937
0.9153794193
-0.004767219003
0.9139996719
-0.002797513116
0.9115119954
-0.003431657662
-0.4535931405
0.453830261
-0.003034633633
-0.4510132852
0.003313964638
0.4512787695
-0.003579448862
-0.4474139208
0.003828321707
0.4476029517
-0.001874678925
-0.002142916271
-0.2235766686
0.001684043434
0.2231663936
-0.001286559863
-0.2211703991
-0.0004833364657
0.2204627731
0.001168522452
-0.2151122184
-0.002973141484
0.2147148115
0.003352558394
-0.2049080776
-0.003264307949
0.2055094629
0.002661969513
-0.0971510028
0.000429084289
0.09771375905
-0.0009918405448
-0.01304231961
-0.1530971997
0.1537178088
0.01242171053
-0.01626703004
-0.2727974835
0.2743131698
0.0147542081
-0.2557178774
-0.01041148576
0.2571113386
0.009035633293
-0.2457587676
-0.005126798273
0.2468491422
0.004055646585
-0.001418925057
-0.2405829619
0.241185904
0.0008251937505
-0.4736471137
0.0002844828971
0.4745192465
-0.001156615746
-0.4676508505
0.001508718254
0.4677486901
-0.001606557773
-0.003165652221
0.9248721984
0.002198364875
0.001712975528
-0.002211875437
0.9201070536
-0.001142123143
0.9172894955
0.9159092996
-0.002073524837
0.9182216805
-0.004265684914
0.9175715794
-0.006412797142
0.9161467841
-0.004035413849
0.9138104644
-0.004675852283
-0.4543192444
0.4548056763
-0.004521845768
-0.4516612454
0.005086092968
0.4523046902
-0.005729537803
-0.4479882397
0.006366017847
0.4486471845
-0.003306146227
-0.003714934201
-0.2221249943
0.003283149517
0.2218269446
-0.002979369656
-0.2187063757
0.001628438756
0.2182287356
-0.001143217762
-0.2140856669
0.0001106284055
0.2140220417
-4.254352863e-05
-0.2077473664
0.001084854537
0.2085463547
-0.001883659682
-0.1004427817
0.002359978102
0.1007275495
-0.00130697567
-0.001337770281
0.004426081988
-0.1516954127
0.1507645518
-0.003495221055
0.0006418919306
-0.2746739253
0.2736402855
0.0003920589968
-0.2592978567
-0.001351974336
0.2594763689
0.001175438636
-0.2493961568
7.62957271e-05
0.249907658
-0.000585477869
0.001843722016
-0.2424987347
0.2427618703
-0.002105635453
-0.4744037219
0.004623808697
0.4738116183
-0.004031705132
-0.4674822729
0.003803515423
0.467724094
-0.004045336533
-0.005929765157
0.9227499842
0.004338425943
0.003713553485
-0.003887034298
0.9180643227
-0.001961612471
0.9153640736
0.9139476871
-0.00260737715
0.9208290576
-0.005219381776
0.920183584
-0.008003929047
0.9189313314
-0.00521583212
0.9168536617
-0.00583129419
-0.4555240642
0.4562416782
-0.00593344605
-0.4530512947
0.006805756923
0.4538895641
-0.007644026412
-0.4496527751
0.008620943879
0.4508721931
-0.004799635365
-0.005029028456
-0.2210744467
0.004638514946
0.2208577288
-0.004395487117
-0.2170329386
0.003303555223
0.2167010738
-0.002933456425
-0.2141301259
0.002357350113
0.2142529876
-0.002454522702
-0.210988732
0.003929309131
0.2118175648
-0.004757783672
-0.1024291055
0.003566558871
0.1026286407
-0.001869430922
-0.001896663107
0.01399108185
-0.1424289823
0.1411015435
-0.01266364304
0.01310333853
-0.2683673129
0.2661340107
-0.01087427851
-0.2587037543
0.007128732442
0.2578596932
-0.006296693244
-0.2506441611
0.005604249125
0.2505427646
-0.005519813529
0.005371339454
-0.2428153017
0.2426893366
-0.005253604168
-0.4728659891
0.008713754093
0.471611717
-0.007459481939
-0.4678252209
0.006343684622
0.4668150931
-0.005333556738
-0.008466357222
0.9194816281
0.006080696232
0.005654017092
-0.005497247917
0.9150952134
-0.002702685862
0.9125695116
0.9112450013
-0.003082165559
0.9239112232
-0.006202676386
0.9233040948
-0.009489266044
0.9222179211
-0.006260864271
0.9202391293
-0.006613869413
-0.4571420591
0.4580324091
-0.007151214239
-0.4549527436
0.008188871781
0.4560783393
-0.009314467504
-0.4520092214
0.01055743041
0.453390736
-0.00578103203
-0.006136046765
-0.220270034
0.005615273033
0.2200853703
-0.005380957373
-0.2158712075
0.004382450733
0.2156448337
-0.004086120357
-0.2148600976
0.003818897168
0.2151443177
-0.004057506124
-0.2144281787
0.006037254291
0.2153611985
-0.006970196073
-0.1039705674
0.004796006509
0.1041768379
-0.002482664966
-0.002519612053
0.01728320235
-0.1320736661
0.1307696211
-0.01597915733
0.01930352776
-0.2592730104
0.257142427
-0.0171895303
-0.2553911338
0.01241322156
0.2550237253
-0.01208381746
-0.2495162465
0.01068548138
0.2489389364
-0.01013423875
0.008338471474
-0.2412466112
0.2405525545
-0.007656645955
-0.4701014271
0.01206538807
0.4683489416
-0.01031290253
-0.4657372334
0.008784116664
0.4644227951
-0.007469678399
-0.01070620433
0.916854847
0.006918535086
0.006414450326
-0.006887683665
0.9112766928
-0.003344047182
0.9090258751
0.9079009541
-0.007179918423
0.9310911416
-0.01455441566
0.9306785921
-0.02206598438
0.9297294898
-0.007331707324
0.928245994
-0.02274114166
-0.4591320094
0.4602253616
-0.008425059501
-0.4572499819
0.009632994643
0.4586126297
-0.01099564237
-0.4541568724
0.01237570873
0.4543654093
-0.00617118942
-0.006354036819
-0.2196380954
0.005625794462
0.2192768055
-0.005180964924
-0.2150590348
0.004594241446
0.2150215026
-0.004454111192
-0.2162290837
0.004815121318
0.2163134206
-0.004836630113
-0.2184297671
0.007379385553
0.2195394127
-0.004234060031
-0.004254971086
-0.05306164367
0.003035413171
0.05313842943
-0.003112198926
-0.05769892761
0.006428123411
0.0571996694
-0.01250096218
0.006572096974
0.01557040078
-0.1229821456
0.2423404111
-0.02716445445
0.0151607741
-0.1229249858
-0.251435704
0.02072147188
0.2499468186
-0.01926765565
-0.2520163898
0.01590973607
0.2509954113
-0.01495133685
-0.247137713
0.01282037872
0.2464059577
-0.01214334581
0.009863472993
-0.2376901675
0.2367671055
-0.008952856473
-0.4662766531
0.01425007557
0.4642107012
-0.01218412363
-0.4630633136
0.01059567016
0.4615985858
-0.009130942294
-0.01244098481
0.9130687137
0.008332391533
0.00789472659
-0.008003159608
0.9068388676
-0.003934619131
0.9049573347
0.903966335
-0.003628855477
0.9347199971
-0.007371238479
0.9344209751
-0.01134663957
0.9337048909
-0.007764215812
0.932593999
-0.007930428758
-0.4633460051
0.4644986654
-0.008916876107
-0.4617686875
0.01020482599
0.4631610855
-0.01159722393
-0.4556376432
0.01312106256
0.4576345846
-0.007377325089
-0.007677987399
-0.2185732956
0.007633892484
0.2186071083
-0.007582432687
-0.2145271091
0.006969770902
0.2143930423
-0.006725076194
-0.2183592271
0.006363228221
0.2185313207
-0.006469659646
-0.223457194
0.007900980223
0.2246530631
-0.004552128307
-0.004544720969
-0.05522048225
0.006851283844
0.1108908426
-0.05518055908
-0.003665845156
-0.003675239976
-0.1107129953
0.008475149003
0.110598988
-0.01657664144
0.008215499824
0.02612581
-0.2353225764
0.2337157901
-0.02452125256
-0.245770196
0.01777279585
0.2451118832
-0.01717983253
-0.2486516272
0.01577800937
0.2497131133
-0.01692556174
-0.2441469433
0.01498855017
0.2425696282
-0.01346430898
0.01015214913
-0.2332639316
0.2323416975
-0.009231487069
-0.4623992811
0.01502705315
0.4607836475
-0.01341141947
-0.4601236022
0.01184802954
0.4584173865
-0.01014181377
-0.01188508373
0.9084578478
0.008175178989
0.008320770677
-0.008690253751
0.9036440376
-0.004249674727
0.9005167556
0.8997166602
-0.003772695692
0.9384926928
-0.007656034042
0.9383043135
-0.01176298283
0.9378118397
-0.008054490799
0.9370443709
-0.008158863998
-0.4657297235
0.4669502279
-0.009274995202
-0.4645679479
0.01059541596
0.4659770493
-0.01200451732
-0.4605312874
0.01353099644
0.4638571669
-0.008397686663
-0.008444346394
-0.2196882458
0.01021749646
0.2204439428
-0.0109033959
-0.2143577707
0.01205345172
0.2145552956
-0.01215067022
-0.2182259738
0.01173966708
0.2179717631
-0.01141466415
-0.2264243103
0.01003868178
0.2259032526
-0.009503902847
-0.1141499616
0.01174623507
0.22805987
-0.01170625044
-0.113949893
-0.2236851009
0.01737896025
0.224270875
-0.01796473432
-0.2330469399
0.01991046949
0.2337028053
-0.0205989601
-0.2441732201
0.02117664278
0.2439002564
-0.02099825331
-0.2468940738
0.01961966485
0.2460698663
-0.01890545697
-0.2386631849
0.01604855475
0.2383176091
-0.01575500494
0.01128347928
-0.2314632295
0.2291370407
-0.008957290491
-0.4593620171
0.01660639217
0.4562874143
-0.01353178936
-0.4566953546
0.01210927536
0.4547266326
-0.0101405533
-0.0122158102
0.9039725572
0.008419511951
0.008281588928
-0.008712105535
0.900140333
-0.004439728506
0.8962443786
0.8952769317
-0.003814309844
0.9423070027
-0.007728172132
0.9422181758
-0.01183967479
0.9419233423
-0.008118228206
0.941460994
-0.008138069634
-0.4681628133
0.4693814459
-0.009336860792
-0.4673681985
0.01063207089
0.468733576
-0.0119974484
-0.4665910978
0.01345941713
0.4681873831
-0.007562159177
-0.007493691828
-0.2241331683
0.01114242145
0.2258720438
-0.0128403154
-0.2162455981
0.01692879873
0.2172868736
-0.01789102123
-0.2175556322
0.01945633354
0.2177292526
-0.01956045265
-0.2243370863
0.01896531305
0.2240058899
-0.01860187056
-0.2256410996
0.01768539687
0.2242670428
-0.01631043159
-0.2279341517
0.02003913223
0.228980401
-0.02110904075
-0.2360575522
0.02399917992
0.2366519107
-0.02465668063
-0.2431282419
0.02514987657
0.2426647978
-0.02478392467
-0.2428536874
0.02214617373
0.2414319269
-0.02081436954
-0.2335760895
0.01581026079
0.231635428
-0.01390082478
0.01064943744
-0.2272463559
0.2266632936
-0.0100663751
-0.4556122653
0.01683031654
0.452998323
-0.01421637419
-0.4519399126
0.01089320692
0.4504275713
-0.009380865578
-0.01133115542
0.8980625999
0.008874471921
0.008366640818
-0.006255857848
0.8950650354
-0.004471966561
0.8944604874
0.8908049652
-0.003765231851
0.9460722345
-0.007615117621
0.9460680615
-0.01162899957
0.9459372243
-0.007983590524
0.9457267612
-0.007911176281
-0.4705499575
0.4717179683
-0.009151601247
-0.4700567964
0.01037844689
0.4713340374
-0.01165568783
-0.4696870163
0.01300371785
0.4711101899
-0.007256534981
-0.007170356525
-0.232546215
0.00805287602
0.2347276743
-0.01022956541
-0.2221278308
0.01761036378
0.2243208862
-0.01975757988
-0.2198023777
0.02486403096
0.2210783372
-0.02608777195
-0.224144138
0.02846173582
0.2246482609
-0.02893608423
-0.2198093143
0.02870272767
0.2184829287
-0.02737968332
-0.2308566557
0.03037017482
0.2310835247
-0.03063425308
-0.2370775336
0.03073279163
0.2366912607
-0.030413821
-0.2399553486
0.02796963669
0.2385382169
-0.02663041366
-0.235882768
0.02115706283
0.2336072712
-0.01893289259
-0.2257139422
0.01182701718
0.2251134068
-0.01122665754
0.009772989252
-0.2251086909
0.2246371077
-0.009301405988
-0.449399598
0.01579112691
0.4477636721
-0.01415520106
-0.4489338922
0.0125942479
0.4474234136
-0.0110837693
-0.01042890147
0.8913065513
0.00947335524
0.007711594762
-0.005806045721
0.8904421797
-0.004080463805
0.8927349055
0.8867245014
-0.00364282692
0.9497150615
-0.007353390075
0.9497786247
-0.01118966852
0.9497735028
-0.007681422548
0.9497546023
-0.007536087082
-0.4728206911
0.4739097689
-0.008770500341
-0.4725540013
0.009902488851
0.4737173116
-0.01106579921
-0.4724502867
0.01227459839
0.4737044222
-0.00682197838
-0.006706755424
-0.2362077316
0.007481795987
0.2365428916
-0.007816955943
-0.2323241077
0.01014089635
0.2353078144
-0.01311666715
-0.2266122132
0.02120336211
0.2289310099
-0.02349774184
-0.2275462276
0.02895299105
0.2289083414
-0.03029848611
-0.2161568611
0.03092201224
0.2160528774
-0.03082376368
-0.2307401234
0.03276128415
0.2303448992
-0.03239628122
-0.2339577747
0.02991737672
0.2325945694
-0.02859897196
-0.2328188846
0.02318330702
0.2305253673
-0.02092690626
-0.2258055966
0.01317136236
0.2240258808
-0.01139562179
-0.2238219944
0.01030434113
0.2234496699
-0.00993201668
0.008806258108
-0.2233894101
0.2230124659
-0.008429313941
-0.4462515205
0.01449520477
0.4448595883
-0.01310327256
-0.4460329692
0.01174509274
0.4446938285
-0.01040595204
-0.01318296571
0.8865283869
0.008856066712
0.009105063451
-0.008653357549
0.8859125715
-0.001462352558
0.8855439005
0.8852621488
-0.00346408943
0.9531791509
-0.006978367593
0.9532929029
-0.01057984746
0.9533749826
-0.007254179875
0.953487915
-0.007058980261
-0.474928364
0.4759248397
-0.008250655566
-0.4748165675
0.00927515989
0.4758554767
-0.01031406909
-0.4748728943
0.01137759706
0.4759595735
-0.006298054644
-0.006166221691
-0.2374617369
0.006857160819
0.2377410727
-0.007136496607
-0.2372802283
0.007974391164
0.2375578565
-0.008252019375
-0.2365403741
0.009065901274
0.2370370791
-0.009561934815
-0.2337088938
0.01511403264
0.2354136752
-0.01681574334
-0.2173091558
0.0190566573
0.2180184159
-0.01976872393
-0.2286437575
0.02041780872
0.2279927701
-0.01977702265
-0.227724639
0.01617531817
0.2260028629
-0.01446184255
-0.2241358663
0.01082375539
0.2239670227
-0.0106549118
-0.2231689913
0.01002960909
0.2229276209
-0.009788238691
-0.2224767233
0.00899320968
0.2221943018
-0.008710788188
0.007833865039
-0.2220173182
0.2217137141
-0.007530260887
-0.4435825599
0.01309314402
0.442413394
-0.01192397816
-0.4434738433
0.01075892286
0.4423051221
-0.009590201645
-0.01225818184
0.8822074422
0.008142116169
0.008437010295
-0.008087057807
0.8817414475
-0.004013875025
0.8814707177
0.8812482738
-0.003245815277
0.9564249662
-0.006525379367
0.956572467
-0.009857121864
0.9567067251
-0.00674611987
0.9568983704
-0.006521457349
-0.4768496094
0.4777481676
-0.007644678041
-0.4768294797
0.008558632278
0.4777442012
-0.00947335381
-0.4769638741
0.01039535382
0.4778899801
-0.005720829118
-0.005600630689
-0.2385029522
0.006199130378
0.2387340043
-0.00643018245
-0.2382979484
0.007107042944
0.2385167809
-0.007325875444
-0.2377183949
0.007952589516
0.2379154343
-0.008149628957
-0.2368331636
0.00867775694
0.2369432759
-0.008787869277
-0.21955633
0.008740321351
0.2198624813
-0.009046472706
-0.2272297556
0.009498986074
0.2272543161
-0.00952354659
-0.2252131432
0.009489419589
0.2251621525
-0.009438428929
-0.2235373871
0.009175099174
0.2234153583
-0.009053070418
-0.2223049592
0.00859635258
0.2221260476
-0.008417440961
-0.2214511162
0.007816986427
0.2212336522
-0.007599522482
0.006909794337
-0.2209182875
0.2206724416
-0.006663948444
-0.4413432211
0.01169792827
0.4403644174
-0.01071912463
-0.4412470999
0.009726559303
0.4402351857
-0.008714645058
-0.01123315213
0.8783503251
0.007391005217
0.007699264043
-0.007445832298
0.8779541277
-0.003705628311
0.8777305137
0.8775426455
-0.003003634747
0.9594286009
-0.006026746531
0.9595955788
-0.00907216549
0.9597521441
-0.006192858208
0.959976423
-0.005957359874
-0.4785763008
0.4793800631
-0.006996620548
-0.4785971747
0.007804078101
0.4793951192
-0.008602022541
-0.4787426226
0.009395393539
0.4795265124
-0.005140947924
-0.005038335456
-0.2393624718
0.005549094879
0.2395528699
-0.005739492939
-0.2391008107
0.006285922985
0.2392738097
-0.006458922033
-0.2384309917
0.006945037424
0.2385808337
-0.007094879416
-0.2372003706
0.007477072785
0.2372664395
-0.007543141717
-0.2207191627
0.007530148654
0.2209841964
-0.007795182356
-0.2273050192
0.00808182976
0.2273155593
-0.008092369826
-0.2250272315
0.008055287
0.2249872286
-0.008015284121
-0.2230987915
0.007815902103
0.2230071889
-0.007724299517
-0.2216584406
0.007379991485
0.2215223675
-0.007243918298
-0.2206570943
0.006781207746
0.2204871148
-0.006611228262
0.006063378812
-0.2200333031
0.2198341987
-0.005864274409
-0.4394680866
0.01037478195
0.4386468623
-0.009553557681
-0.4393233422
0.008709734333
0.4384509439
-0.007837336062
-0.010178453
0.8749361728
0.006643646876
0.006948958391
-0.006774508978
0.8745501836
-0.003379582534
0.8743355873
0.874163063
-0.002750181333
0.9621787823
-0.005508024657
0.9623534221
-0.008264627756
0.9625087472
-0.005625805557
0.962729459
-0.005391858274
-0.4801139306
0.4808268248
-0.006338699763
-0.4801363896
0.007046650147
0.4808278954
-0.007738155879
-0.4802462584
0.008417213342
0.4809060879
-0.004581489725
-0.004495553044
-0.2400702169
0.00492924663
0.2402269436
-0.005085973364
-0.2397365946
0.005527704507
0.239873974
-0.005665083901
-0.2389751839
0.006045242018
0.2390904262
-0.006160484293
-0.2374195357
0.006440188805
0.237458073
-0.006478726176
-0.2217189407
0.006497369118
0.2219442495
-0.006722677891
-0.2273328119
0.006906340256
0.2273346372
-0.006908165524
-0.2248791565
0.006869012365
0.2248465904
-0.006836446231
-0.2227658955
0.006680422388
0.2226951024
-0.006609629224
-0.22116286
0.006343581392
0.2210572018
-0.006237923234
-0.2200333306
0.005875267876
0.2198986664
-0.005740603694
0.005301049972
-0.2193178829
0.2191556888
-0.005138855937
-0.4378942079
0.009148504459
0.4372045955
-0.008458892088
-0.4376671944
0.007741740784
0.4369166373
-0.006991183627
-0.00914082608
0.8719323409
0.005927232232
0.006217425744
-0.006105639459
0.871514997
-0.003052375064
0.8712823229
0.8711106879
-0.002496450008
0.9646752323
-0.004991167375
0.9648481395
-0.007467014569
0.9649845944
-0.005068950325
0.9651747867
-0.004843391951
-0.4814725959
0.4821010166
-0.00569737103
-0.4814688614
0.00631503568
0.4820658119
-0.006911986131
-0.4815117167
0.007492200914
0.4820679924
-0.004063616851
-0.003984859777
-0.2406524742
0.004355230444
0.2407813265
-0.004484082743
-0.240242389
0.004841824584
0.2403519915
-0.00495142713
-0.2393953109
0.005250998286
0.2394848099
-0.005340497307
-0.2375448393
0.005545956933
0.2375657957
-0.005566913347
-0.2225649657
0.005614904383
0.2227543911
-0.005804329734
-0.2273311642
0.005921031159
0.2273275469
-0.005917413908
-0.2247575929
0.005877915861
0.2247305384
-0.005850861348
-0.222506479
0.005726028374
0.2224505819
-0.005670131203
-0.2207756002
0.005460585303
0.220692179
-0.00537716412
-0.2195368809
0.005088828137
0.21942889
-0.004980837249
0.004624614616
-0.2187347899
0.2186015829
-0.004491407657
-0.4365719274
0.008036047053
0.4359915365
-0.007455656073
-0.4362436964
0.006845472965
0.4355983187
-0.006200095268
-0.008154050811
0.8693002552
0.005258335281
0.005527801217
-0.005463347333
0.8688242935
-0.00273645378
0.8685554293
0.8683742341
-0.002250096806
0.9669253291
-0.004491257571
0.9670893002
-0.006700978488
0.9671943153
-0.004536685032
0.9673349907
-0.004324497398
-0.4826663649
0.4832176547
-0.00508797493
-0.4826181855
0.005624887334
0.4831319521
-0.006138653981
-0.4825786789
0.006632936294
0.4830473312
-0.003587708863
-0.003513879651
-0.2411311249
0.003831756761
0.2412371447
-0.003937776559
-0.2406464761
0.00422810536
0.2407342675
-0.004315896739
-0.2397223121
0.004553428191
0.2397921948
-0.004623310901
-0.2376104245
0.004773912879
0.2376202911
-0.004783779474
-0.2232749256
0.004856732593
0.2234336261
-0.005015433085
-0.2273110939
0.005087734468
0.2273040895
-0.00508073009
-0.2246561957
0.005042232563
0.2246335004
-0.005019537287
-0.2223005132
0.004918309233
0.2222557385
-0.004873534538
-0.2204684039
0.004706201527
0.2204017063
-0.004639503961
-0.2191373329
0.004407691927
0.219049885
-0.004320244002
0.004029117123
-0.2182558081
0.2181456305
-0.003918939453
-0.4354582852
0.007039635107
0.4349683734
-0.006549723357
-0.4350205718
0.006029724213
0.4344655316
-0.005474683996
-0.007237142561
0.8670000304
0.004646002492
0.004891364851
-0.004861906594
0.8664490576
-0.00243932324
0.866132846
0.8659349109
-0.002016818969
0.968942148
-0.004019382516
0.9690918638
-0.005982039689
0.9691569725
-0.00403891489
0.9692355739
-0.003843708019
-0.4837107135
0.484192542
-0.004520743431
-0.4836067157
0.004986114979
0.4840478984
-0.005427297746
-0.4834773674
0.005847552496
0.4838717943
-0.003154310703
-0.00308766869
-0.2415248828
0.003358532754
0.2416121437
-0.003445793614
-0.2409704486
0.003681706372
0.2410409656
-0.003752223388
-0.2399777012
0.003941243722
0.2400322734
-0.00399581588
-0.2376384723
0.00410528761
0.2376414175
-0.004108232886
-0.2238699301
0.004200963904
0.2240032534
-0.004334287189
-0.2272797104
0.0043771301
0.2272706836
-0.004368103353
-0.2245710098
0.004331481315
0.224551897
-0.004312368606
-0.2221349901
0.004229689518
0.2220988155
-0.00419351489
-0.2202220145
0.004058698236
0.2201682315
-0.00400491517
-0.2188129797
0.003817100754
0.2187416762
-0.003745797255
0.003506408921
-0.2178597975
0.217768196
-0.003414807354
-0.4345175576
0.006156180352
0.4341027913
-0.005741414069
-0.4339692368
0.00529747785
0.433491555
-0.004819796089
-0.006401130004
0.8649926703
0.004094502427
0.004313987646
-0.004310151127
0.8643580787
-0.002165768024
0.8639884629
0.8637691429