/*--------------------------------*- C++ -*----------------------------------*\
| =========                 |                                                 |
| \\      /  F ield         | OpenFOAM: The Open Source CFD Toolbox           |
|  \\    /   O peration     | Version:  v1912                                 |
|   \\  /    A nd           | Website:  www.openfoam.com                      |
|    \\/     M anipulation  |                                                 |
\*---------------------------------------------------------------------------*/
FoamFile
{
    version     2.0;
    format      ascii;
    class       pointVectorField;
    location    "0.05";
    object      pointDisplacement;
}
// * * * * * * * * * * * * * * * * * * * * * * * * * * * * * * * * * * * * * //

dimensions      [0 1 0 0 0 0 0];


internalField   nonuniform List<vector> 
26316
(
(0 0 0)
(0 0 0)
(0 0 0)
(0 0 0)
(0 0 0)
(0 0 0)
(0 0 0)
(0 0 0)
(0 0 0)
(0 0 0)
(0 0 0)
(0 0 0)
(0 0 0)
(0 0 0)
(0 0 0)
(0 0 0)
(0 0 0)
(0 0 0)
(0 0 0)
(0 0 0)
(0 0 0)
(0 0 0)
(0 0 0)
(0 0 0)
(0 0 0)
(0 0 0)
(0 0 0)
(0 0 0)
(0 0 0)
(0 0 0)
(0 0 0)
(0 0 0)
(0 0 0)
(0 0 0)
(0 0 0)
(0 0 0)
(0 0 0)
(0 0 0)
(0 0 0)
(0 0 0)
(0 0 0)
(0 0 0)
(0 0 0)
(0 0 0)
(0 0 0)
(0 0 0)
(0 0 0)
(0 0 0)
(0 0 0)
(0 0 0)
(0 0 0)
(0 0 0)
(0 0 0)
(0 0 0)
(0 0 0)
(0 0 0)
(0 0 0)
(0 0 0)
(0 0 0)
(0 0 0)
(0 0 0)
(0 0 0)
(0 0 0)
(0 0 0)
(0 0 0)
(0 0 0)
(0 0 0)
(0 0 0)
(0 0 0)
(0 0 0)
(0 0 0)
(0 0 0)
(0 0 0)
(0 0 0)
(0 0 0)
(0 0 0)
(0 0 0)
(0 0 0)
(0 0 0)
(0 0 0)
(0 0 0)
(0 0 0)
(0 0 0)
(0 0 0)
(0 0 0)
(0 0 0)
(0 0 0)
(0 0 0)
(0 0 0)
(0 0 0)
(0 0 0)
(0 0 0)
(0 0 0)
(0 0 0)
(0 0 0)
(0 0 0)
(0 0 0)
(0 0 0)
(0 0 0)
(0 0 0)
(0 0 0)
(0 0 0)
(0 0 0)
(0 0 0)
(0 0 0)
(0 0 0)
(0 0 0)
(0 0 0)
(0 0 0)
(0 0 0)
(0 0 0)
(0 0 0)
(0 0 0)
(0 0 0)
(0 0 0)
(0 0 0)
(0 0 0)
(0 0 0)
(0 0 0)
(-4.391053647e-07 3.909003377e-06 2.775557562e-17)
(0 0 0)
(0 0 0)
(-2.425752863e-07 4.378654943e-05 3.330669074e-16)
(1.118412415e-06 3.722183385e-05 2.91433544e-16)
(0 0 0)
(0 0 0)
(0 0 0)
(0 0 0)
(0 0 0)
(0 0 0)
(0 0 0)
(0 0 0)
(0 0 0)
(0 0 0)
(0 0 0)
(0 0 0)
(0 0 0)
(0 0 0)
(0 0 0)
(0 0 0)
(0 0 0)
(0 0 0)
(0 0 0)
(0 0 0)
(0 0 0)
(0 0 0)
(0 0 0)
(0 0 0)
(0 0 0)
(0 0 0)
(0 0 0)
(0 0 0)
(0 0 0)
(0 0 0)
(0 0 0)
(0 0 0)
(0 0 0)
(0 0 0)
(0 0 0)
(0 0 0)
(0 0 0)
(0 0 0)
(0 0 0)
(0 0 0)
(0 0 0)
(0 0 0)
(0 0 0)
(0 0 0)
(0 0 0)
(0 0 0)
(0 0 0)
(0 0 0)
(0 0 0)
(0 0 0)
(0 0 0)
(0 0 0)
(0 0 0)
(0 0 0)
(0 0 0)
(0 0 0)
(0 0 0)
(0 0 0)
(0 0 0)
(0 0 0)
(0 0 0)
(-2.735606901e-05 5.481049525e-05 4.996003611e-16)
(-0.0001574339101 0.0003438321638 3.080868893e-15)
(-2.058655407e-06 4.666787325e-06 4.163336342e-17)
(-0.0002989156965 0.0009280807222 8.021361353e-15)
(-0.000742224909 0.00222343444 1.992850329e-14)
(-0.0008807428194 0.003011887208 2.699229729e-14)
(-0.0004107952556 0.001455107212 1.257327575e-14)
(-0.0005000238933 0.003066395092 2.646494135e-14)
(-0.0008762884286 0.005203769084 4.662936703e-14)
(-0.0007310565878 0.005749881231 5.152822613e-14)
(-0.000430527596 0.003489624604 3.011479954e-14)
(-1.864598541e-05 0.004080839743 3.523570324e-14)
(-2.431910325e-05 0.006498386704 5.824507543e-14)
(0.0002390210645 0.006414100597 5.749567489e-14)
(0.0001402105753 0.004013852599 3.466671394e-14)
(0.0004712161159 0.003076461594 2.656208586e-14)
(0.0008341583777 0.005215355437 4.676814491e-14)
(0.0009146671417 0.004556705541 4.085620731e-14)
(0.0004957533142 0.002575307324 2.223221607e-14)
(0.0002917264548 0.0009396855167 8.118505868e-15)
(0.0007238122107 0.002241354105 2.009503675e-14)
(0.0005446010362 0.001497555104 1.34336986e-14)
(0.0001704350337 0.0004872458407 4.204969706e-15)
(0 0 0)
(2.869749296e-05 5.902594166e-05 5.273559367e-16)
(0 0 0)
(0 0 0)
(0 0 0)
(0 0 0)
(0 0 0)
(0 0 0)
(0 0 0)
(0 0 0)
(0 0 0)
(0 0 0)
(0 0 0)
(0 0 0)
(0 0 0)
(0 0 0)
(0 0 0)
(0 0 0)
(0 0 0)
(0 0 0)
(0 0 0)
(0 0 0)
(0 0 0)
(0 0 0)
(0 0 0)
(0 0 0)
(0 0 0)
(0 0 0)
(0 0 0)
(0 0 0)
(0 0 0)
(0 0 0)
(0 0 0)
(0 0 0)
(0 0 0)
(0 0 0)
(0 0 0)
(0 0 0)
(0 0 0)
(0 0 0)
(0 0 0)
(0 0 0)
(0 0 0)
(0 0 0)
(0 0 0)
(0 0 0)
(0 0 0)
(0 0 0)
(-7.640133576e-05 9.748391321e-05 1.026956298e-15)
(-0.0004173424317 0.0005679613025 6.022959909e-15)
(-9.886230269e-05 0.000140579013 1.429412144e-15)
(-0.001410193106 0.002507167521 2.53824739e-14)
(-0.00225503227 0.003841506907 4.06341627e-14)
(-0.002876247359 0.005349980446 5.65658631e-14)
(-0.00193839545 0.003761404203 3.806677196e-14)
(-0.003011139087 0.008050944783 8.142098107e-14)
(-0.003981775908 0.01021856043 1.079553114e-13)
(-0.004002942281 0.01175609212 1.241923231e-13)
(-0.003092712102 0.009457756781 9.564571357e-14)
(-0.002413108428 0.01293991215 1.308814168e-13)
(-0.002995663167 0.01547118738 1.634942182e-13)
(-0.002362716516 0.01630918307 1.723898801e-13)
(-0.001921366108 0.01374124036 1.390138005e-13)
(-5.345537003e-06 0.01479966169 1.498662305e-13)
(1.518350519e-05 0.01740251373 1.841859998e-13)
(0.0008514445967 0.01727462843 1.829092433e-13)
(0.0006745911108 0.01467810226 1.486866186e-13)
(0.002385800826 0.01293519627 1.311450948e-13)
(0.002998587935 0.01545148766 1.638134073e-13)
(0.003486686021 0.01439865131 1.526972992e-13)
(0.002751026935 0.01193816704 1.210698208e-13)
(0.002968974809 0.008067893639 8.185119249e-14)
(0.003945200289 0.01022301584 1.084687895e-13)
(0.003736130843 0.008615147168 9.13991105e-14)
(0.002737951112 0.006617766912 6.712685963e-14)
(0.001396915864 0.002535896267 2.571554081e-14)
(0.002233949429 0.00387355838 4.107825191e-14)
(0.001579263206 0.002529125076 2.681188604e-14)
(0.0008768605499 0.001469637288 1.490474411e-14)
(0 0 0)
(7.584780132e-05 9.85391251e-05 1.040834086e-15)
(0 0 0)
(0 0 0)
(0 0 0)
(0 0 0)
(0 0 0)
(0 0 0)
(0 0 0)
(0 0 0)
(0 0 0)
(0 0 0)
(0 0 0)
(0 0 0)
(0 0 0)
(0 0 0)
(0 0 0)
(0 0 0)
(0 0 0)
(0 0 0)
(0 0 0)
(0 0 0)
(0 0 0)
(0 0 0)
(0 0 0)
(0 0 0)
(0 0 0)
(0 0 0)
(0 0 0)
(0 0 0)
(0 0 0)
(0 0 0)
(0 0 0)
(0 0 0)
(0 0 0)
(0 0 0)
(0 0 0)
(0 0 0)
(0 0 0)
(0 0 0)
(0 0 0)
(-3.287070214e-05 2.876033656e-05 3.747002708e-16)
(0 0 0)
(-0.001398945971 0.001544089858 1.891542478e-14)
(-0.002079121132 0.00217154129 2.808864252e-14)
(-0.003253130653 0.003632752373 4.690692279e-14)
(-0.002388830665 0.002815832154 3.447242491e-14)
(-0.005455880799 0.008075935149 9.865719353e-14)
(-0.006620174025 0.009302779984 1.198208199e-13)
(-0.007400228576 0.0113675114 1.463135169e-13)
(-0.006226714289 0.010073224 1.229849556e-13)
(-0.007076274398 0.01583731079 1.931788063e-13)
(-0.008065148263 0.01714608662 2.205041705e-13)
(-0.00770192092 0.01875855455 2.412514633e-13)
(-0.006824828134 0.01749772323 2.134264987e-13)
(-0.0046820758 0.02122216598 2.591260539e-13)
(-0.005167558045 0.02225954628 2.86659585e-13)
(-0.003970365612 0.02296464149 2.959299472e-13)
(-0.003616541344 0.02200211927 2.68798872e-13)
(9.171299986e-05 0.02296609844 2.811917366e-13)
(0.0001102276639 0.02380838886 3.075734112e-13)
(0.001510957411 0.02369312087 3.063660436e-13)
(0.00137117256 0.02284153497 2.798872245e-13)
(0.004815487031 0.02113054568 2.59514632e-13)
(0.005338150865 0.02213868244 2.870342852e-13)
(0.006360883958 0.02118915748 2.749189765e-13)
(0.005704820199 0.02010709624 2.470940119e-13)
(0.007100374334 0.01575675746 1.938588179e-13)
(0.008115787745 0.01701350706 2.210870376e-13)
(0.008159246159 0.0152344 1.979943987e-13)
(0.007060156229 0.01395360648 1.716959908e-13)
(0.005400374479 0.00802300458 9.867107131e-14)
(0.006729125859 0.009408675246 1.224020885e-13)
(0.005802258346 0.007486262443 9.744982599e-14)
(0.004599623381 0.006294841232 7.746581154e-14)
(0.001595142476 0.001776359248 2.18575158e-14)
(0.00238380862 0.002511247623 3.264055692e-14)
(0.001345300071 0.001335524029 1.734723476e-14)
(0.0007688187469 0.0008064975709 9.908740495e-15)
(0 0 0)
(0 0 0)
(0 0 0)
(0 0 0)
(0 0 0)
(0 0 0)
(0 0 0)
(0 0 0)
(0 0 0)
(0 0 0)
(0 0 0)
(0 0 0)
(0 0 0)
(0 0 0)
(0 0 0)
(0 0 0)
(0 0 0)
(0 0 0)
(0 0 0)
(0 0 0)
(0 0 0)
(0 0 0)
(0 0 0)
(0 0 0)
(0 0 0)
(0 0 0)
(0 0 0)
(0 0 0)
(0 0 0)
(0 0 0)
(0 0 0)
(0 0 0)
(0 0 0)
(0 0 0)
(0 0 0)
(-0.000151925509 0.0001051337019 1.637578961e-15)
(-0.0003455000325 0.0002230749298 3.73312492e-15)
(-0.001227152823 0.0008343760114 1.393329896e-14)
(-0.000825014223 0.000601035901 9.36750677e-15)
(-0.004848547131 0.004206553929 6.535050279e-14)
(-0.005735831623 0.00464790581 7.731315588e-14)
(-0.007393953742 0.006401169182 1.063316102e-13)
(-0.006410446807 0.005941035244 9.217626662e-14)
(-0.01012146531 0.01180146561 1.822708651e-13)
(-0.01117739654 0.01215248068 2.011169009e-13)
(-0.01178159233 0.0139975782 2.313982339e-13)
(-0.01076986953 0.01373943583 2.118860642e-13)
(-0.01064811558 0.01888583183 2.904343432e-13)
(-0.01130535132 0.01865575177 3.072264665e-13)
(-0.01043887515 0.01975128985 3.252120795e-13)
(-0.009867064732 0.02004705258 3.083505673e-13)
(-0.006220790261 0.02235344597 3.44474449e-13)
(-0.00642806642 0.02146005536 3.54022367e-13)
(-0.004834112826 0.02164277826 3.573807916e-13)
(-0.004709823738 0.02269247834 3.500533197e-13)
(0.0001049114629 0.02297254014 3.556183126e-13)
(8.135123464e-05 0.02167632895 3.592959263e-13)
(0.001727492744 0.02164334469 3.592404152e-13)
(0.001730201202 0.02291189539 3.5513259e-13)
(0.006457191258 0.02218263355 3.452238495e-13)
(0.006634475022 0.02125856014 3.545080896e-13)
(0.008126985605 0.02087485692 3.486655409e-13)
(0.007854912592 0.0216303408 3.370775881e-13)
(0.0107834371 0.01860737761 2.910727215e-13)
(0.01146652914 0.01834351041 3.082950562e-13)
(0.01202873137 0.01709389526 2.879363414e-13)
(0.01119672698 0.01712994349 2.685351941e-13)
(0.01035572362 0.0119385408 1.874611577e-13)
(0.0114117598 0.012252331 2.064598492e-13)
(0.01045614257 0.01039151222 1.749850265e-13)
(0.00937918278 0.01000854871 1.570410468e-13)
(0.005111623061 0.004465740135 6.986078382e-14)
(0.006024820967 0.004903740956 8.22952817e-14)
(0.004344200009 0.003335285573 5.589972929e-14)
(0.003559417676 0.002932856589 4.582445534e-14)
(0.0002350224094 0.0001651550049 2.581268532e-15)
(0.0004037487655 0.0002643817909 4.427014311e-15)
(1.024976575e-05 6.392423614e-06 1.110223025e-16)
(0 0 0)
(0 0 0)
(0 0 0)
(0 0 0)
(0 0 0)
(0 0 0)
(0 0 0)
(0 0 0)
(0 0 0)
(0 0 0)
(0 0 0)
(0 0 0)
(0 0 0)
(0 0 0)
(0 0 0)
(0 0 0)
(0 0 0)
(0 0 0)
(0 0 0)
(0 0 0)
(0 0 0)
(0 0 0)
(0 0 0)
(0 0 0)
(0 0 0)
(0 0 0)
(0 0 0)
(0 0 0)
(0 0 0)
(-1.446040179e-05 5.433227632e-06 1.387778781e-16)
(-3.945845686e-07 1.650038306e-07 0)
(0 0 0)
(-0.001084670958 0.0005495434321 1.169897512e-14)
(-0.001369030233 0.0006302647724 1.476596623e-14)
(-0.002840245345 0.001378339034 3.223810108e-14)
(-0.002423209165 0.001293773922 2.750577544e-14)
(-0.007869721077 0.00501752786 1.060262989e-13)
(-0.00856568881 0.004967177143 1.153799278e-13)
(-0.01040483994 0.006449914408 1.494637747e-13)
(-0.009858614931 0.006720934873 1.416922135e-13)
(-0.01363011923 0.01166671836 2.448596881e-13)
(-0.01419068909 0.01104636138 2.547129174e-13)
(-0.01456585779 0.01237233397 2.851052727e-13)
(-0.0140597683 0.0131337382 2.755018436e-13)
(-0.01268808642 0.01626332645 3.411715355e-13)
(-0.01294854161 0.0150566095 3.473193955e-13)
(-0.01165051562 0.01543396358 3.563260798e-13)
(-0.01149343621 0.01681810497 3.528011217e-13)
(-0.006703551328 0.01713567338 0)
(-0.006797765068 0.0155404481 0)
(-0.005968249541 0.01553984656 0)
(-0.005093517953 0.0155745092 0)
(-0.005039538287 0.01636404747 0)
(-0.005018126998 0.01713500169 0)
(-2.863669548e-06 0.01707625275 0)
(-1.668194851e-05 0.0163095057 0)
(0.0008233306294 0.01629503929 0)
(0.0008325982675 0.01706179622 0)
(0.006750684481 0.01689168237 0)
(0.006761562149 0.01610374404 0)
(0.006778177694 0.015303498 0)
(0.007613355018 0.01526434996 0)
(0.008436675758 0.01524059884 0)
(0.008428815427 0.01682265153 0)
(0.01278368636 0.01594995591 3.435446372e-13)
(0.01298521945 0.01471655507 3.493871858e-13)
(0.01398658674 0.01410480911 3.35384498e-13)
(0.01368104608 0.01519940242 3.277517147e-13)
(0.01385984561 0.01161080722 2.50688359e-13)
(0.01436061119 0.01089240594 2.597644322e-13)
(0.01364042312 0.009567718118 2.28123076e-13)
(0.01302059005 0.010089251 2.177702463e-13)
(0.00841352058 0.005334020963 1.14783183e-13)
(0.009201634779 0.005287481288 1.255245907e-13)
(0.007252267613 0.003934714439 9.320322292e-14)
(0.006531744737 0.003908464448 8.394673845e-14)
(0.001455190314 0.0007453582517 1.59317004e-14)
(0.001818911676 0.0008455836687 1.990074772e-14)
(0.000651694026 0.0002889908388 6.800116026e-15)
(0.0004434084331 0.0002165770322 4.62130334e-15)
(0 0 0)
(0 0 0)
(0 0 0)
(0 0 0)
(0 0 0)
(0 0 0)
(0 0 0)
(0 0 0)
(0 0 0)
(0 0 0)
(0 0 0)
(0 0 0)
(0 0 0)
(0 0 0)
(0 0 0)
(0 0 0)
(0 0 0)
(0 0 0)
(0 0 0)
(0 0 0)
(0 0 0)
(0 0 0)
(0 0 0)
(0 0 0)
(0 0 0)
(0 0 0)
(0 0 0)
(0 0 0)
(-0.0001302959162 2.68579579e-05 1.276756478e-15)
(-7.425190531e-05 1.845431393e-05 7.21644966e-16)
(-6.074453069e-05 1.766561303e-05 5.967448757e-16)
(-0.001967075418 0.0006307599686 2.121913756e-14)
(-0.002040039581 0.0005593364203 2.198241589e-14)
(-0.00377729371 0.001093339137 4.284073096e-14)
(-0.003677598642 0.00124433475 4.171663015e-14)
(-0.009893988147 0.004011864917 1.330879851e-13)
(-0.01005121981 0.003492085316 1.351418977e-13)
(-0.01196778538 0.004449215225 1.715294573e-13)
(-0.01180054618 0.005117839577 1.692257445e-13)
(-0.01532204748 0.008339384184 2.740724314e-13)
(-0.01547704186 0.007224168665 2.76584311e-13)
(-0.01568254718 0.007978926517 3.053390873e-13)
(-0.015544074 0.009224673185 3.03007619e-13)
(-0.01334566606 0.01079391229 3.554517791e-13)
(-0.01340687377 0.00927511767 3.563260798e-13)
(-0.01188001642 0.00932704954 0)
(-0.01184978793 0.01088752829 3.592959263e-13)
(-0.006937841992 0.01081790361 0)
(-0.006956635205 0.01002681845 0)
(-0.006138451007 0.01001687906 0)
(-0.006119751932 0.01080671923 0)
(0.006748137971 0.01059580097 0)
(0.006738740746 0.00981222394 0)
(0.00755656646 0.009794311251 0)
(0.007566804101 0.01057671303 0)
(0.01323454842 0.01039164571 3.575473251e-13)
(0.01324004836 0.00886823791 3.584077479e-13)
(0.01456895523 0.00866022363 3.511080315e-13)
(0.0145111415 0.01012057635 3.491096301e-13)
(0.01575761581 0.008256550014 2.856048731e-13)
(0.01594623628 0.007112175093 2.89337998e-13)
(0.01540054717 0.006352910856 2.581962422e-13)
(0.0151829047 0.007358529581 2.543243394e-13)
(0.01080223554 0.004296505753 1.474237399e-13)
(0.01104603933 0.003742231378 1.508237979e-13)
(0.008971278568 0.002872848452 1.153521723e-13)
(0.008740548339 0.003285168647 1.123545701e-13)
(0.002639065117 0.00085251538 2.886579864e-14)
(0.002980136767 0.0008206471129 3.259892356e-14)
(0.001421388771 0.0003739836254 1.480759959e-14)
(0.001170111306 0.0003609317227 1.219857548e-14)
(0 0 0)
(0 0 0)
(0 0 0)
(0 0 0)
(0 0 0)
(0 0 0)
(0 0 0)
(0 0 0)
(0 0 0)
(0 0 0)
(0 0 0)
(0 0 0)
(0 0 0)
(0 0 0)
(0 0 0)
(0 0 0)
(0 0 0)
(0 0 0)
(0 0 0)
(0 0 0)
(0 0 0)
(0 0 0)
(0 0 0)
(0 0 0)
(0 0 0)
(0 0 0)
(0 0 0)
(0 0 0)
(-0.0002138881827 7.931211758e-06 2.109423747e-15)
(-0.0001931838921 1.531900413e-05 1.90125693e-15)
(-0.0001694772085 2.059958658e-05 1.665334537e-15)
(-0.002423884514 0.0003266092259 2.611799665e-14)
(-0.002506372052 0.0002214580785 2.700617507e-14)
(-0.004370823853 0.0004108638934 4.954370247e-14)
(-0.004267664977 0.000609389503 4.83779683e-14)
(-0.01067664687 0.001852213117 1.433991814e-13)
(-0.01080487811 0.001249695114 1.450783937e-13)
(-0.01270409843 0.001582866516 1.817435091e-13)
(-0.01257875494 0.002342589802 1.80050419e-13)
(-0.01592274854 0.003739570898 2.837036162e-13)
(-0.01601650494 0.002530670077 2.851052727e-13)
(-0.01612828825 0.002775904006 3.125139036e-13)
(-0.01604950787 0.004106157159 3.113481695e-13)
(-0.01353840386 0.00467380765 3.577138585e-13)
(-0.01357217332 0.003134479956 3.579359031e-13)
(-0.01198728606 0.003118400379 0)
(-0.01196150687 0.004666717072 0)
(-0.00705762679 0.004579957997 0)
(-0.007070992546 0.003805269753 0)
(-0.006254933124 0.003790946084 0)
(-0.006241459714 0.004565632396 0)
(0.00665450065 0.00434469171 0)
(0.006640694251 0.003565452551 0)
(0.007456595965 0.003550341995 0)
(0.007470538818 0.004329183846 0)
(0.01318790229 0.004221358224 3.59254293e-13)
(0.01315969963 0.00266716598 3.592959263e-13)
(0.01462548527 0.002610087532 3.551603456e-13)
(0.01463237394 0.004140207905 3.546329896e-13)
(0.01642777056 0.003463805075 2.991218384e-13)
(0.01650715523 0.002182579402 3.009537064e-13)
(0.01612574924 0.001973478556 2.714356517e-13)
(0.01601633077 0.003123638742 2.692984724e-13)
(0.01192062921 0.001923362199 1.629946178e-13)
(0.01209367673 0.001235956175 1.654509862e-13)
(0.01003842085 0.0009788306662 1.292715934e-13)
(0.009858520701 0.001510324682 1.268984917e-13)
(0.003417371819 0.0004571177662 3.740063814e-14)
(0.003556327186 0.0003073381148 3.89271948e-14)
(0.00183400206 0.0001525862163 1.91235916e-14)
(0.001728974376 0.0002217774288 1.802724636e-14)
(0 0 0)
(0 0 0)
(0 0 0)
(0 0 0)
(0 0 0)
(0 0 0)
(0 0 0)
(0 0 0)
(0 0 0)
(0 0 0)
(0 0 0)
(0 0 0)
(0 0 0)
(0 0 0)
(0 0 0)
(0 0 0)
(0 0 0)
(0 0 0)
(0 0 0)
(0 0 0)
(0 0 0)
(0 0 0)
(0 0 0)
(0 0 0)
(0 0 0)
(0 0 0)
(0 0 0)
(0 0 0)
(-0.0003155139215 -4.153093399e-05 3.094746681e-15)
(-0.0002844569159 -2.54450493e-05 2.789435349e-15)
(-0.0002568051845 -1.214291378e-05 2.525757381e-15)
(-0.002711710967 -0.0001372363141 2.922662112e-14)
(-0.002794887584 -0.000270805524 3.011479954e-14)
(-0.004728057504 -0.0004765961676 5.358213873e-14)
(-0.004625750393 -0.0002411878158 5.243028234e-14)
(-0.01112024043 -0.0006376718729 1.491584634e-13)
(-0.01124473893 -0.001291817162 1.507682867e-13)
(-0.01313443532 -0.001589110129 1.875444244e-13)
(-0.01301315282 -0.0007771299495 1.858929677e-13)
(-0.01625237396 -0.001158953293 2.884636974e-13)
(-0.01634219322 -0.002408685864 2.897543316e-13)
(-0.01640405725 -0.002628796364 3.163719287e-13)
(-0.01632895267 -0.001265460453 3.152894612e-13)
(-0.01366489977 -0.001485467382 3.583938701e-13)
(-0.0136956985 -0.003027128071 3.585604036e-13)
(-0.01208780063 -0.003061882763 0)
(-0.01206292021 -0.00151764211 0)
(-0.007162231294 -0.001604200325 0)
(-0.007175076448 -0.002375882629 0)
(-0.006360126231 -0.002390006908 0)
(-0.00635363124 -0.00200413116 0)
(-0.006347142046 -0.001618578374 0)
(0.006535200657 -0.001882242454 0)
(0.006519078682 -0.00265849656 0)
(0.00733407058 -0.002672298521 0)
(0.007350295701 -0.00189629754 0)
(0.01306340352 -0.001993618273 3.592681708e-13)
(0.01302799357 -0.003541672514 3.591987818e-13)
(0.01446573942 -0.003518220174 3.543276783e-13)
(0.01451715886 -0.001993965706 3.547995231e-13)
(0.01637162908 -0.001710935882 2.997185833e-13)
(0.01628903002 -0.002990811794 2.986361158e-13)
(0.01589787399 -0.002686874348 2.68868261e-13)
(0.01598482734 -0.00153575625 2.700201174e-13)
(0.01195022627 -0.0008980547831 1.637995295e-13)
(0.01186737555 -0.001592509556 1.627725732e-13)
(0.009823550078 -0.001227028745 1.267597138e-13)
(0.009900023288 -0.000686790169 1.276756478e-13)
(0.003460172027 -0.0001916081238 3.791411629e-14)
(0.003414945024 -0.0003501221151 3.741451593e-14)
(0.001729982493 -0.0001673548077 1.804112415e-14)
(0.001761931055 -9.133673291e-05 1.837419106e-14)
(0 0 0)
(0 0 0)
(0 0 0)
(0 0 0)
(0 0 0)
(0 0 0)
(0 0 0)
(0 0 0)
(0 0 0)
(0 0 0)
(0 0 0)
(0 0 0)
(0 0 0)
(0 0 0)
(0 0 0)
(0 0 0)
(0 0 0)
(0 0 0)
(0 0 0)
(0 0 0)
(0 0 0)
(0 0 0)
(0 0 0)
(0 0 0)
(0 0 0)
(0 0 0)
(0 0 0)
(0 0 0)
(-0.0004518411836 -0.0001357214601 4.440892099e-15)
(-0.0004149114379 -0.0001071277819 4.080069615e-15)
(-0.0003791928342 -8.19086141e-05 3.719247132e-15)
(-0.003054971492 -0.0007202827612 3.291811268e-14)
(-0.003146608126 -0.0008875114552 3.39173134e-14)
(-0.005156073819 -0.001523165262 5.841160888e-14)
(-0.005045269941 -0.001245071552 5.716260798e-14)
(-0.01162582025 -0.003339997279 1.556949014e-13)
(-0.01175725257 -0.004052250492 1.573879915e-13)
(-0.01363182939 -0.004982493732 1.942196404e-13)
(-0.01350458841 -0.004111891361 1.925126725e-13)
(-0.01661376473 -0.006227092326 2.936817456e-13)
(-0.01670601309 -0.007522878799 2.950140132e-13)
(-0.01670614371 -0.008176811732 3.206601651e-13)
(-0.01662992547 -0.006775841759 3.195776976e-13)
(-0.01378437687 -0.007660958008 3.589489816e-13)
(-0.01381263258 -0.009207102846 3.590461262e-13)
(-0.01218573601 -0.00924246347 0)
(-0.0121615213 -0.007697313463 0)
(-0.007263842834 -0.007783602269 0)
(-0.007276234369 -0.008556010639 0)
(-0.006462684298 -0.008570145685 0)
(-0.006456398819 -0.00818394311 0)
(-0.006450078744 -0.007797812948 0)
(0.00640032007 -0.008083267056 0)
(0.006381992566 -0.00885840469 0)
(0.007196209815 -0.008871367134 0)
(0.007214712878 -0.008096448028 0)
(0.01289338591 -0.008166851694 3.583661146e-13)
(0.01283186798 -0.009690928482 3.576444696e-13)
(0.0141175919 -0.009478409614 3.490263634e-13)
(0.0142331623 -0.00802209698 3.510525204e-13)
(0.0157183772 -0.006632115216 2.894073869e-13)
(0.01539066685 -0.007721216276 2.837730051e-13)
(0.01495178208 -0.006906690453 2.540606614e-13)
(0.01522129114 -0.005913057316 2.583488978e-13)
(0.01099586864 -0.00342504453 1.511013537e-13)
(0.01071874376 -0.003973005335 1.473821065e-13)
(0.008691492266 -0.003017315197 1.123684479e-13)
(0.008949976859 -0.002609391778 1.156436058e-13)
(0.002791244579 -0.0006808987805 3.060052212e-14)
(0.002641403879 -0.0007688137239 2.897682094e-14)
(0.00117435581 -0.0003244895172 1.225408663e-14)
(0.001274859949 -0.0002950498117 1.330879851e-14)
(0 0 0)
(0 0 0)
(0 0 0)
(0 0 0)
(0 0 0)
(0 0 0)
(0 0 0)
(0 0 0)
(0 0 0)
(0 0 0)
(0 0 0)
(0 0 0)
(0 0 0)
(0 0 0)
(0 0 0)
(0 0 0)
(0 0 0)
(0 0 0)
(0 0 0)
(0 0 0)
(0 0 0)
(0 0 0)
(0 0 0)
(0 0 0)
(0 0 0)
(0 0 0)
(0 0 0)
(0 0 0)
(-0.0005710724751 -0.0002678775783 5.606626274e-15)
(-0.0005905825152 -0.000252107198 5.800915304e-15)
(-0.000539116106 -0.0002074038113 5.301314943e-15)
(-0.003446177622 -0.00145010266 3.712308239e-14)
(-0.003563319295 -0.001664081775 3.838596108e-14)
(-0.005654126949 -0.002768766212 6.401823516e-14)
(-0.005515033967 -0.00243297539 6.245004514e-14)
(-0.0121765765 -0.006287554721 1.62786451e-13)
(-0.0123361733 -0.007074411927 1.648403636e-13)
(-0.01418923446 -0.008637407755 2.016858902e-13)
(-0.01403618125 -0.007692562875 1.996319776e-13)
(-0.01699449023 -0.01148353717 2.991634718e-13)
(-0.0171009306 -0.01283444028 3.007039062e-13)
(-0.01702824456 -0.01388248532 3.252259573e-13)
(-0.01694234818 -0.01243786814 3.239908342e-13)
(-0.01389341154 -0.01384570314 3.592681708e-13)
(-0.01391909213 -0.01539186578 3.592959263e-13)
(-0.01228137781 -0.01542125463 0)
(-0.01225749251 -0.01387645768 0)
(-0.007360629081 -0.01396215751 0)
(-0.007372337518 -0.01473450635 0)
(-0.006560327269 -0.01474843428 0)
(-0.006554398705 -0.01436211761 0)
(-0.006548439408 -0.01397608866 0)
(0.006248013044 -0.01426922553 0)
(0.006227470533 -0.01504177477 0)
(0.007041412297 -0.01505408614 0)
(0.007062206001 -0.01428154141 0)
(0.01259079092 -0.01415573162 3.53952978e-13)
(0.01248006027 -0.0155839843 3.518851877e-13)
(0.01354366511 -0.01498782225 3.380490332e-13)
(0.013719812 -0.01368060116 3.416295025e-13)
(0.01446591598 -0.01072871827 2.677857935e-13)
(0.01422128901 -0.01169267262 2.636085794e-13)
(0.01347857274 -0.01019251918 2.299965773e-13)
(0.01390631451 -0.009490444776 2.370603713e-13)
(0.009470936705 -0.005191929807 1.304373276e-13)
(0.008876981739 -0.005391035524 1.22304944e-13)
(0.00688106777 -0.003918214441 8.909539773e-14)
(0.007476738527 -0.003842444157 9.678369217e-14)
(0.001873991702 -0.0008104639575 2.056688153e-14)
(0.001636618003 -0.0007849790119 1.795785742e-14)
(0.0005315257816 -0.000242360058 5.551115123e-15)
(0.0006690172364 -0.000274995505 6.994405055e-15)
(0 0 0)
(0 0 0)
(0 0 0)
(0 0 0)
(0 0 0)
(0 0 0)
(0 0 0)
(0 0 0)
(0 0 0)
(0 0 0)
(0 0 0)
(0 0 0)
(0 0 0)
(0 0 0)
(0 0 0)
(0 0 0)
(0 0 0)
(0 0 0)
(0 0 0)
(0 0 0)
(0 0 0)
(0 0 0)
(0 0 0)
(0 0 0)
(0 0 0)
(0 0 0)
(0 0 0)
(0 0 0)
(-0.001015292355 -0.0006474658484 9.964251646e-15)
(-0.0009256341061 -0.0005511260266 9.076073226e-15)
(-0.0007921920284 -0.0004383292027 7.771561172e-15)
(-0.003939784222 -0.0023856155 4.242439733e-14)
(-0.004232842453 -0.002757815027 4.557465516e-14)
(-0.006418417129 -0.00438617823 7.260858581e-14)
(-0.006060201595 -0.003849034035 6.858402735e-14)
(-0.01287547999 -0.009582781284 1.717653797e-13)
(-0.01311312282 -0.01050336463 1.748323708e-13)
(-0.01489840595 -0.01266868282 2.111921749e-13)
(-0.01470315911 -0.01161708147 2.08569273e-13)
(-0.01744934883 -0.01698978038 3.057692988e-13)
(-0.01750736899 -0.01834352712 3.064493104e-13)
(-0.01740303206 -0.01979307596 3.306244167e-13)
(-0.01730542787 -0.01829514514 3.292227602e-13)
(-0.01399421466 -0.02002590222 0)
(-0.01402021459 -0.02157051764 0)
(-0.012380055 -0.02159916571 0)
(-0.01236720341 -0.02082712456 0)
(-0.01235456583 -0.02005500777 0)
(-0.007452567675 -0.02014062029 0)
(-0.007458305222 -0.02052629425 0)
(-0.007052189868 -0.02053311661 0)
(-0.007046490137 -0.02014754965 0)
(-0.0004084489623 -0.02035865621 0)
(-0.0004163766766 -0.0205509178 0)
(-0.0004230117509 -0.02074323848 0)
(-2.531931622e-05 -0.02074585339 0)
(-1.014805203e-05 -0.02036156921 0)
(0.006065825015 -0.02044003792 0)
(0.006039383612 -0.02120925063 0)
(0.006012623112 -0.02197824224 0)
(0.007645305527 -0.02200348955 0)
(0.007696762606 -0.0204645001 0)
(0.006881597542 -0.02045234625 0)
(0.01206408752 -0.01961596991 3.432254481e-13)
(0.01185763994 -0.02078648541 3.383404668e-13)
(0.01262443493 -0.01955354285 3.180927743e-13)
(0.0129574451 -0.01862981669 3.257116798e-13)
(0.01301417613 -0.01384464893 2.420841305e-13)
(0.0125461555 -0.01435896851 2.336325577e-13)
(0.01162676564 -0.01222913807 1.99146255e-13)
(0.01211667061 -0.01184795452 2.073480276e-13)
(0.007356846067 -0.005774391524 1.014882622e-13)
(0.006913922649 -0.005836658512 9.542366897e-14)
(0.005055667253 -0.004003275611 6.554479182e-14)
(0.005445601557 -0.004008852889 7.058242879e-14)
(0.0007738699012 -0.000480617637 8.493206138e-15)
(0.0006290802201 -0.0004204091489 6.911138328e-15)
(4.987501724e-05 -3.171429101e-05 5.273559367e-16)
(9.528944372e-05 -5.630191169e-05 9.992007222e-16)
(0 0 0)
(0 0 0)
(0 0 0)
(0 0 0)
(0 0 0)
(0 0 0)
(0 0 0)
(0 0 0)
(0 0 0)
(0 0 0)
(0 0 0)
(0 0 0)
(0 0 0)
(0 0 0)
(0 0 0)
(0 0 0)
(0 0 0)
(0 0 0)
(0 0 0)
(0 0 0)
(0 0 0)
(0 0 0)
(0 0 0)
(0 0 0)
(0 0 0)
(0 0 0)
(0 0 0)
(0 0 0)
(-0.0009628282309 -0.0007802170181 9.492406861e-15)
(-0.001088076464 -0.0008354917538 1.072752998e-14)
(-0.001162675834 -0.0008434503005 1.146305273e-14)
(-0.004687665255 -0.003722775312 5.069555886e-14)
(-0.004536989595 -0.003814315722 4.907185769e-14)
(-0.006765666798 -0.005967941852 7.686906667e-14)
(-0.006946122644 -0.005787550846 7.893685705e-14)
(-0.01369956853 -0.01339022129 1.834643548e-13)
(-0.01347851027 -0.01394734895 1.804389971e-13)
(-0.01523696723 -0.01674184995 2.168404345e-13)
(-0.0154527985 -0.01603874202 2.200184479e-13)
(-0.0178394314 -0.02283286342 3.137073934e-13)
(-0.01769523333 -0.02396529243 3.108624469e-13)
(-0.01745370164 -0.02566558689 3.328587406e-13)
(-0.01755791247 -0.02440594234 3.352595979e-13)
(-0.01391701732 -0.02622276425 0)
(-0.01394474422 -0.02776759995 0)
(-0.01230000556 -0.02779711992 0)
(-0.01228614533 -0.0270248815 0)
(-0.01227227866 -0.02625228423 0)
(-0.007338134446 -0.02634084286 0)
(-0.007352001117 -0.02711344013 0)
(-0.006529667671 -0.02712819947 0)
(-0.006522731116 -0.02674172141 0)
(-0.006515801 -0.0263556022 0)
(-0.006926967723 -0.02634822253 0)
(-0.0007592886401 -0.02645892079 0)
(-0.0007662180678 -0.02684504002 0)
(-0.0007731542798 -0.02723151808 0)
(4.920443303e-05 -0.02724627788 0)
(6.307110407e-05 -0.0264736806 0)
(0.005819559525 -0.02657699877 0)
(0.005791832623 -0.02812183446 0)
(0.007410186276 -0.02804320211 3.579220254e-13)
(0.007458799716 -0.02658537557 3.590183706e-13)
(0.01125182822 -0.02406729359 3.240741009e-13)
(0.01097541083 -0.02490409503 3.171490848e-13)
(0.01149657844 -0.02298613389 2.926270337e-13)
(0.01183033645 -0.02231434145 3.003708393e-13)
(0.01092270774 -0.01514836978 2.040034808e-13)
(0.01048147998 -0.0153884892 1.959959972e-13)
(0.009332960982 -0.01257681269 1.602884492e-13)
(0.009972349317 -0.01270275546 1.711963904e-13)
(0.005217413835 -0.005330974462 7.206735209e-14)
(0.004546508875 -0.004913798331 6.282474541e-14)
(0.00308801023 -0.00313192395 4.007905119e-14)
(0.003518986426 -0.003373211711 4.565792189e-14)
(0.0001295117937 -0.0001049171238 1.415534356e-15)
(5.849893436e-05 -5.016245249e-05 6.383782392e-16)
(0 0 0)
(0 0 0)
(0 0 0)
(0 0 0)
(0 0 0)
(0 0 0)
(0 0 0)
(0 0 0)
(0 0 0)
(0 0 0)
(0 0 0)
(0 0 0)
(0 0 0)
(0 0 0)
(0 0 0)
(0 0 0)
(0 0 0)
(0 0 0)
(0 0 0)
(0 0 0)
(0 0 0)
(0 0 0)
(0 0 0)
(0 0 0)
(0 0 0)
(0 0 0)
(0 0 0)
(0 0 0)
(0 0 0)
(0 0 0)
(-0.0002249038344 -0.0002205273571 2.220446049e-15)
(-0.0004080811306 -0.0003827703457 4.024558464e-15)
(-0.0006062662956 -0.0005428521089 5.967448757e-15)
(-0.003476791736 -0.003410976936 3.760880496e-14)
(-0.002970668165 -0.003054100136 3.214095656e-14)
(-0.004837112189 -0.005220230492 5.498379529e-14)
(-0.005471376597 -0.005633773069 6.218636717e-14)
(-0.01181136684 -0.01427365629 1.580957587e-13)
(-0.01095117483 -0.01387520954 1.466188282e-13)
(-0.01270041559 -0.0170853631 1.807165528e-13)
(-0.01357369458 -0.01741603606 1.930816618e-13)
(-0.01643392431 -0.02595807239 2.882416528e-13)
(-0.01571157023 -0.02601267341 2.755712325e-13)
(-0.01582295244 -0.02841442159 3.010369731e-13)
(-0.01644013597 -0.02817250111 3.12819215e-13)
(-0.01386985642 -0.0320555383 3.554240235e-13)
(-0.01365737074 -0.03303364086 3.495537193e-13)
(-0.01230041176 -0.03369162086 3.562705686e-13)
(-0.01237546725 -0.03241318461 3.590877595e-13)
(-0.007449054933 -0.03252090333 0)
(-0.007476788275 -0.03406609788 0)
(-0.0058320855 -0.03409561721 0)
(-0.005804352158 -0.03255042266 0)
(-0.006626721488 -0.03253566268 0)
(-0.0008702079476 -0.03263898129 0)
(-0.0008979412896 -0.03418417583 0)
(0.0007467722509 -0.03421369536 0)
(0.000774505593 -0.03266850081 0)
(0.005663234364 -0.03246412981 3.561040351e-13)
(0.005558090594 -0.03346526749 3.5055292e-13)
(0.006961681174 -0.0324632486 3.398115123e-13)
(0.007140063491 -0.03174664269 3.479577737e-13)
(0.01005864793 -0.02662227508 2.913225217e-13)
(0.009624176461 -0.0266645313 2.787353681e-13)
(0.009810177777 -0.02391122274 2.499389584e-13)
(0.01031828979 -0.02403125374 2.629424456e-13)