/*--------------------------------*- C++ -*----------------------------------*\
| =========                 |                                                 |
| \\      /  F ield         | OpenFOAM: The Open Source CFD Toolbox           |
|  \\    /   O peration     | Version:  v1912                                 |
|   \\  /    A nd           | Website:  www.openfoam.com                      |
|    \\/     M anipulation  |                                                 |
\*---------------------------------------------------------------------------*/
FoamFile
{
    version     2.0;
    format      ascii;
    class       volVectorField;
    location    "0.05";
    object      U;
}
// * * * * * * * * * * * * * * * * * * * * * * * * * * * * * * * * * * * * * //

dimensions      [0 1 -1 0 0 0 0];


internalField   nonuniform List<vector> 
12556
(
(99.99883537 0.002814116154 -4.028098338e-21)
(99.99842212 0.009535260063 1.240595234e-25)
(99.99731644 0.020296931 -4.021894777e-21)
(99.99548496 0.03773732546 -3.998095597e-21)
(99.99973258 0.02985041946 3.860073686e-21)
(99.99770831 0.04935705016 0)
(99.99648279 0.07970825308 0)
(99.99609077 0.121570187 -6.804687921e-21)
(99.99496625 0.1771509453 7.950202535e-22)
(99.99416398 0.2452000772 -5.216317798e-21)
(99.99422951 0.3183230456 6.523265504e-22)
(99.99568396 0.3824004733 0)
(99.99875483 0.419640515 0)
(100.001958 0.4176377302 9.440871256e-22)
(100.0045267 0.3788777471 -1.495353625e-21)
(100.005601 0.3177362605 9.057691494e-22)
(100.0054891 0.2499678487 0)
(100.0049853 0.1872363212 1.495671673e-21)
(100.0046524 0.133333839 6.145243358e-21)
(100.002489 0.09400685059 -1.726951502e-21)
(100.0100771 0.1075522241 -1.500608842e-20)
(100.0069216 0.0665415278 0)
(100.0051092 0.03552741279 -1.885306742e-21)
(100.0049761 0.01116461195 -1.327664406e-20)
(99.989621 0.007339576746 1.613295432e-20)
(99.98501879 0.02528975987 4.030526869e-21)
(99.97476027 0.05461583763 2.815976481e-20)
(99.95731427 0.1024805299 -1.206090635e-20)
(99.95949836 0.1402838307 3.888541308e-21)
(99.93278216 0.2346298268 -4.410575714e-23)
(99.89750856 0.3791990463 0)
(99.87823549 0.5109816014 -6.840356477e-21)
(99.83821012 0.7531755348 -6.349286186e-21)
(99.805794 1.058082079 -1.108972835e-20)
(99.79774739 1.396841931 -4.598370117e-21)
(99.83256183 1.705392438 -8.82457998e-21)
(99.91211589 1.894720683 9.120623347e-23)
(100.0079219 1.904334584 1.063284855e-22)
(100.0918459 1.742628459 -5.029890998e-22)
(100.1373935 1.465419546 4.658661027e-21)
(100.1451374 1.152046063 -9.128903043e-21)
(100.1269335 0.8648769794 0)
(100.1340932 0.6513014421 -2.608969269e-20)
(100.0957318 0.4452700512 5.028972544e-20)
(100.0944841 0.3065038507 1.452983574e-20)
(100.0660065 0.1889440992 2.995769787e-20)
(100.0497633 0.1013513569 -3.004642701e-20)
(100.0437545 0.03197327339 1.51625559e-20)
(99.97265838 0.008883531195 -1.60970234e-20)
(99.95973087 0.03172584668 -3.231864727e-20)
(99.93178711 0.07153836107 -7.250010475e-20)
(99.88529219 0.1386163389 9.647228283e-20)
(99.8611194 0.217622121 -7.969993114e-21)
(99.7810506 0.3763421034 -7.762997857e-21)
(99.67270816 0.6217821937 -1.347748221e-20)
(99.61032893 0.8921457274 0)
(99.48207126 1.349256429 2.629448935e-20)
(99.3749708 1.943380441 -4.511678296e-21)
(99.35624152 2.627823208 -1.591490473e-19)
(99.49147884 3.282800889 1.975255318e-19)
(99.79162059 3.710987 1.246733988e-19)
(100.159788 3.736131943 6.023763538e-20)
(100.4476706 3.375849172 9.5009604e-21)
(100.5852766 2.793579139 3.73304141e-21)
(100.5882366 2.160055445 -9.823884346e-21)
(100.5081735 1.581777611 -2.318458396e-20)
(100.443173 1.109991446 -1.565790646e-19)
(100.3248848 0.7483036743 -3.478908129e-20)
(100.2604613 0.4636221761 -1.491056271e-20)
(100.1855104 0.2836878585 3.388858169e-20)
(100.1404424 0.1525221419 -3.809295616e-21)
(100.1208726 0.04788346083 0)
(99.95448471 0.005654972669 -8.110912822e-21)
(99.92981112 0.0232234321 5.678995546e-20)
(99.87726039 0.06195060585 -1.624739684e-20)
(99.79124494 0.1318347029 0)
(99.7222702 0.2410763661 0)
(99.56546975 0.4422611865 -6.273689215e-20)
(99.34676848 0.764601796 -1.25552951e-19)
(99.16916812 1.160179411 2.95834503e-20)
(98.87244781 1.819738273 0)
(98.61272577 2.721950438 6.261383654e-22)
(98.51698509 3.86602146 -7.09260748e-19)
(98.78867502 5.071325025 2.348673384e-19)
(99.53455143 5.890766509 0)
(100.4769096 5.899049697 -1.547774721e-20)
(101.1437778 5.172470131 -1.68126819e-19)
(101.3840369 4.120998009 -5.776360878e-21)
(101.3272721 3.074244902 1.718535402e-19)
(101.1312999 2.19302482 0)
(100.9183771 1.462635343 5.700712321e-20)
(100.6698164 0.963357128 -4.409370451e-20)
(100.4919592 0.5553000977 -3.818715702e-20)
(100.3528906 0.3358043829 1.934089585e-20)
(100.2660534 0.1784395402 -3.88264752e-21)
(100.2265097 0.05556999249 0)
(99.94645582 -0.003450621131 0)
(99.90818964 -0.003861170553 0)
(99.8275032 0.01924342685 8.19306183e-21)
(99.69453128 0.07425121128 1.238329386e-20)
(99.57022618 0.1968674814 2.048969874e-20)
(99.314062 0.4075663632 0)
(98.95430556 0.7505638406 0)
(98.6018275 1.237260496 0)
(98.06018225 2.0538335 -1.23129427e-19)
(97.4924548 3.282487251 0)
(97.10794357 5.054264015 1.566583337e-19)
(97.46133498 7.214470722 1.568377275e-19)
(99.07913725 8.838281732 -6.021030957e-20)
(101.2128814 8.72332003 9.35212216e-20)
(102.488688 7.204103904 0)
(102.7484388 5.36125278 -3.79169127e-19)
(102.4496287 3.797432689 1.037440031e-20)
(101.9836149 2.595328645 -5.087306964e-22)
(101.5333832 1.646401917 -9.44464668e-20)
(101.1027086 1.054473284 7.86435755e-21)
(100.7605456 0.5571110862 0)
(100.5411516 0.3319439129 3.96241355e-21)
(100.4036595 0.1720423187 -2.975528367e-21)
(100.3398818 0.05286019548 -9.870954341e-22)
(99.96123131 -0.01878450787 0)
(99.90917509 -0.05061802039 0)
(99.80079889 -0.05990238132 -1.641746099e-20)
(99.61920463 -0.03817128879 3.342500933e-20)
(99.43070695 0.07458451523 0)
(99.06851821 0.2531672844 0)
(98.54638773 0.5637461295 2.615771435e-20)
(97.98531051 1.069751222 -3.055854446e-19)
(97.1203144 1.912140393 6.977947237e-20)
(95.99910483 3.347100856 1.457984719e-19)
(94.83645469 5.799627119 4.178744456e-19)
(94.6696181 9.705562125 -9.681818326e-19)
(97.9866052 13.54474491 1.690496659e-20)
(103.0243656 12.79481268 2.663840854e-19)
(105.0601379 9.318659627 5.534313766e-20)
(104.8908081 6.282338259 0)
(103.9871758 4.143602545 -1.34395282e-19)
(103.0378241 2.688607384 -1.590827418e-20)
(102.2318164 1.594029215 2.430322735e-20)
(101.5731335 0.9831541068 -1.629347531e-20)
(101.0320844 0.4557389875 0)
(100.7204139 0.2627904278 0)
(100.5279803 0.1287089111 -1.002108374e-21)
(100.4380807 0.03849940525 -3.009099212e-21)
(100.0109523 -0.03992795398 4.010911953e-21)
(99.94661139 -0.1153860532 -4.040764055e-21)
(99.81451034 -0.1728016622 8.24492151e-21)
(99.59055861 -0.2041656815 -3.016968728e-20)
(99.33400472 -0.1261360154 7.118003729e-23)
(98.87659907 -0.02103388069 2.579208144e-20)
(98.20551551 0.1980026343 9.950984256e-21)
(97.44871733 0.6162316133 -5.591519027e-19)
(96.21253794 1.322516026 -6.045914654e-19)
(94.37277165 2.606494861 0)
(91.69601225 5.038100598 -3.560292108e-19)
(88.2247331 10.89124541 0)
(93.87978274 22.50298463 -4.182505091e-19)
(108.5213879 18.68517932 -1.623872263e-20)
(109.6348789 10.7676522 -6.01126177e-24)
(107.8462536 6.315883764 0)
(105.8402076 3.814873175 -6.407274496e-19)
(104.1850395 2.3279136 0)
(102.9070236 1.246563304 0)
(102.018003 0.7144866291 8.918617898e-21)
(101.2602303 0.2507551516 2.635712883e-21)
(100.857014 0.1232085859 -3.11763248e-21)
(100.6131626 0.04795725498 -3.550390691e-21)
(100.4980435 0.01251205911 8.543864509e-21)
(100.1059841 -0.06567792391 -4.011337513e-21)
(100.0324315 -0.1943227653 4.042218825e-21)
(99.88332663 -0.3118135101 -5.129881776e-21)
(99.62932058 -0.4117177047 -3.449739158e-21)
(99.31488222 -0.3916336453 1.470724102e-20)
(98.78589771 -0.3932540237 8.758048762e-21)
(98.00950571 -0.3252804886 -6.899526442e-21)
(97.11003119 -0.08713820556 -5.953546627e-19)
(95.59428493 0.2905354148 -3.266988874e-19)
(93.23573896 0.9448621259 -3.816885388e-19)
(89.3725617 1.898307932 -8.903213981e-19)
(81.97143041 3.431474746 0)
(122.8121869 21.84401895 1.557030707e-18)
(116.0786544 9.082662238 2.329419157e-18)
(111.09888 4.679468593 4.761699947e-19)
(107.6276436 2.576502911 -5.60943931e-19)
(105.217045 1.428216364 1.554633917e-20)
(103.4363891 0.5920830618 -4.747006946e-21)
(102.3502059 0.2619565731 2.016179252e-20)
(101.3936962 -0.05195016078 -3.218273632e-21)
(100.9174179 -0.07687154909 2.633187718e-21)
(100.6336375 -0.06494052581 -5.051807156e-22)
(100.4975613 -0.02382441209 -8.037423011e-21)
(100.2537956 -0.09420959683 -1.933541209e-21)
(100.1752322 -0.281777934 -1.452978731e-21)
(100.0178678 -0.466228916 -4.980513972e-22)
(99.74946499 -0.6435692599 1.508442052e-21)
(99.39353211 -0.6977897245 -2.829992837e-23)
(98.82900576 -0.8252543401 0)
(98.01245123 -0.939958526 3.45691473e-21)
(97.04651742 -0.9278355374 0)
(95.44331655 -0.9552125516 0)
(93.06684871 -1.033063247 -1.450011771e-22)
(89.64095056 -1.565956197 9.107554745e-19)
(85.47158763 -3.509398697 -1.034951302e-18)
(135.5005799 7.011049443 -2.226571615e-18)
(120.6552709 2.796020387 0)
(113.3090481 1.210969108 -1.081254701e-18)
(108.7882927 0.4626600301 1.059084751e-18)
(105.8479913 0.07572501805 7.072656488e-19)
(103.6968308 -0.2907484357 -4.862024454e-21)
(102.4849058 -0.3352657817 1.135922111e-20)
(101.3942506 -0.4220602716 1.107602034e-21)
(100.8750043 -0.3187697699 0)
(100.5680378 -0.1999909063 4.057345517e-21)
(100.418677 -0.06745500948 4.009432845e-21)
(100.4579199 -0.1233378418 3.809802099e-21)
(100.3790119 -0.3710254004 5.810873333e-23)
(100.2229507 -0.6235179676 0)
(99.957104 -0.8803252857 1.969796108e-22)
(99.57969516 -1.016683884 -2.01976328e-21)
(99.0180161 -1.272386052 2.151529639e-21)
(98.2262014 -1.568301122 2.883814968e-22)
(97.27545642 -1.776764942 7.59096376e-20)
(95.75577736 -2.15457528 1.338873411e-18)
(93.63119956 -2.726833689 -3.715733701e-19)
(90.92729414 -3.777393576 -8.428344201e-19)
(88.28983273 -5.390894817 -1.081934971e-18)
(133.1246945 -8.823323239 -2.193261558e-18)
(120.4826977 -4.741712642 1.546900367e-18)
(113.4146808 -2.981726624 -2.536457e-19)
(108.8658205 -2.03370783 4.350479983e-19)
(105.8684006 -1.493772811 7.984748182e-19)
(103.6029626 -1.27628623 4.123886665e-20)
(102.3754869 -0.9992135838 0)
(101.2392855 -0.817449978 -1.08577459e-21)
(100.7143124 -0.5770193889 -4.497566485e-21)
(100.4039535 -0.3439250241 5.017987411e-22)
(100.2508491 -0.1140846194 0)
(100.7175815 -0.150948889 -1.87609752e-21)
(100.6427263 -0.4554164116 1.892590266e-21)
(100.4967057 -0.7713807803 1.846256689e-21)
(100.2508392 -1.10323784 -1.727215541e-21)
(99.86959076 -1.321022068 -1.992712588e-21)
(99.34518565 -1.691956544 0)
(98.62734233 -2.14637035 -2.559299022e-21)
(97.74838344 -2.543507602 -6.480748786e-19)
(96.3910024 -3.180209483 0)
(94.55534571 -4.043678201 0)
(92.29645727 -5.267329756 -1.86250648e-20)
(90.10944167 -6.622924415 1.144886196e-18)
(124.5763517 -17.65813462 0)
(116.7945535 -10.33469986 -6.389622458e-19)
(111.6051261 -6.505017465 7.399948757e-19)
(107.8814044 -4.288475151 7.751517916e-19)
(105.2586568 -2.975324873 6.394566749e-19)
(103.1472655 -2.209245193 0)
(102.0222629 -1.638495058 -2.69861209e-20)
(100.9269678 -1.193897483 -1.360693395e-20)
(100.4340464 -0.8239807612 1.023932086e-21)
(100.1398003 -0.4823533037 -3.24939733e-21)
(99.99244657 -0.1591166867 4.756739095e-22)
(101.0278743 -0.1751791854 6.880378246e-21)
(100.9609292 -0.5290095606 0)
(100.831565 -0.8973658103 -1.842648816e-21)
(100.6174324 -1.301970258 0)
(100.2445141 -1.588451782 0)
(99.78962404 -2.050242574 -5.928945446e-21)
(99.17839391 -2.629342128 6.450828729e-20)
(98.40914967 -3.173487051 5.514947452e-19)
(97.25081933 -3.992326797 0)
(95.68752276 -5.054563431 2.737644844e-20)
(93.70375292 -6.44923076 -6.829592653e-19)
(91.60341949 -7.872944814 -8.759379193e-19)
(115.3945435 -20.88219307 1.088795105e-18)
(111.753396 -13.1510133 -1.873043636e-18)
(108.731918 -8.679537236 -3.844588341e-19)
(106.1700002 -5.881976174 -7.827987172e-19)
(104.1650791 -4.124630306 6.125924216e-19)
(102.3982736 -2.96513227 2.159853835e-21)
(101.4627579 -2.177953804 -3.288316097e-20)
(100.4791918 -1.518424419 8.049854858e-21)
(100.047428 -1.034939272 0)
(99.78440923 -0.6026935742 3.742464209e-21)
(99.65064834 -0.1985044896 0)
(101.3808643 -0.1953476242 6.871591223e-21)
(101.3242341 -0.5907651633 1.084795638e-19)
(101.214879 -1.001494874 -2.185794064e-19)
(101.0357993 -1.460441071 -5.547904033e-22)
(100.7088527 -1.797861719 -1.731837951e-21)
(100.3262061 -2.325323596 0)
(99.84007741 -2.99049122 -2.272794517e-19)
(99.19975035 -3.634082548 -3.848890474e-19)
(98.2667443 -4.569072645 1.091801443e-18)
(96.99774727 -5.777755369 0)
(95.34130539 -7.416225699 6.096737729e-19)
(93.42430886 -9.195829148 -2.524481153e-19)
(102.8897016 -30.05211987 5.373101094e-19)
(106.9208571 -19.36848851 0)
(106.8843377 -13.51899943 0)
(105.6558823 -9.460771067 -6.058071122e-19)
(104.1789741 -6.69445113 0)
(102.8184606 -4.832283877 3.383649491e-20)
(101.4711444 -3.472431002 -6.578332542e-20)
(100.7586489 -2.566507732 0)
(99.93619359 -1.76397307 0)
(99.57804189 -1.194718598 1.173522675e-20)
(99.35472977 -0.6966320976 2.162403285e-21)
(99.23978803 -0.2294241177 -7.013318078e-21)
(101.7660209 -0.2094532384 0)
(101.7211375 -0.6345908427 0)
(101.6350708 -1.074353376 0)
(101.4933879 -1.563270883 0)
(101.2124984 -1.95029006 0)
(100.9061491 -2.525428761 0)
(100.5403395 -3.243211259 -4.360507649e-22)
(100.0518158 -3.93150822 4.456145458e-19)
(99.35166961 -4.916653669 -6.060236719e-19)
(98.41497509 -6.19208573 -1.212450227e-19)
(97.25448931 -8.002248237 9.581101854e-19)
(96.10272257 -10.59072435 -4.581674909e-19)
(95.89006973 -19.4927459 9.874649131e-20)
(101.790198 -15.86778004 2.823389032e-19)
(103.1336846 -12.24831141 -9.586064078e-20)
(102.9775193 -9.181956999 2.812332776e-19)
(102.2690423 -6.834961641 -4.429490656e-19)
(101.4210684 -5.112776291 -2.78060005e-20)
(100.481051 -3.731652033 -9.144921398e-20)
(99.98272162 -2.796979712 -3.440587823e-20)
(99.33704403 -1.913094366 -1.911052332e-20)
(99.0528026 -1.300442754 1.883456043e-20)
(98.87236552 -0.7604251568 0)
(98.77854732 -0.2504281662 1.881033879e-20)
(102.1725853 -0.217459229 0)
(102.1402108 -0.6597250347 0)
(102.079532 -1.115622306 0)
(101.9768814 -1.614054001 0)
(101.7416748 -2.027520866 0)
(101.5212393 -2.618951327 0)
(101.2713209 -3.33073539 -6.037196275e-21)
(100.9381993 -4.035391701 -1.356957638e-20)
(100.4675468 -4.991151513 5.470949814e-19)
(99.86106908 -6.188212191 -1.587947633e-21)
(99.27432596 -7.792026532 3.475593064e-19)
(99.14244123 -10.13078301 -8.252473962e-20)
(97.38529557 -12.52980087 -2.853353116e-20)
(99.710669 -12.13002966 1.599845364e-19)
(100.7744493 -10.34095642 0)
(100.9436897 -8.316077519 -3.22370836e-19)
(100.6352027 -6.520630324 0)
(100.1374117 -5.075510822 -2.440878255e-20)
(99.51018962 -3.782157821 0)
(99.20460843 -2.888584651 0)
(98.71416397 -1.974799881 -3.556451219e-20)
(98.49850522 -1.352657921 1.75509707e-20)
(98.3599442 -0.7933698132 7.349858254e-22)
(98.28689238 -0.2613506563 -1.295818069e-20)
(102.5892005 -0.2196623343 0)
(102.5686252 -0.6665973486 0)
(102.5318753 -1.126072074 0)
(102.4657984 -1.618976068 0)
(102.2739248 -2.042165151 0)
(102.1291548 -2.623083736 0)
(101.9783312 -3.29800247 0)
(101.7677301 -3.988709441 -1.666467405e-19)
(101.49112 -4.854075743 0)
(101.1215687 -5.877302482 -4.482360033e-21)
(100.8548679 -7.101142865 0)
(98.55532059 -8.225356546 -1.94083889e-19)
(98.27679636 -9.491557503 -8.307116281e-20)
(99.02330147 -9.455445073 1.952195554e-20)
(99.43676864 -8.556425044 -1.91684509e-19)
(99.51137132 -7.268469645 1.161199259e-19)
(99.33409463 -5.964168728 1.84522837e-19)
(99.03269659 -4.812250922 0)
(98.62949426 -3.677863138 -2.999987141e-20)
(98.46150933 -2.863072627 4.5636594e-20)
(98.09732319 -1.964451873 1.106343802e-20)
(97.94054852 -1.357863878 1.888181475e-20)
(97.8384139 -0.7986385602 -2.144887756e-20)
(97.7836061 -0.2631618482 0)
(103.0052241 -0.2168242039 0)
(102.9948707 -0.6575765703 0)
(102.9783193 -1.109634053 0)
(102.9432551 -1.584956031 0)
(102.7903735 -2.003943517 0)
(102.707234 -2.554680532 0)
(102.6328058 -3.171839773 0)
(102.5093063 -3.814982385 4.364450823e-20)
(102.3591365 -4.572358612 -1.408305099e-19)
(102.1206234 -5.397004981 -5.416572108e-19)
(101.9297515 -6.260814142 3.413139984e-19)
(96.56989815 -6.502173628 -5.739580266e-19)
(98.79579446 -7.587898061 8.879371498e-20)
(98.73272968 -7.601434553 -5.762267079e-20)
(98.64820739 -7.084983746 0)
(98.52164159 -6.25719118 9.801690086e-20)
(98.33467453 -5.330529385 -1.906380952e-21)
(98.12470698 -4.433157767 0)
(97.86201696 -3.474176687 0)
(97.77675566 -2.748996267 0)
(97.50938142 -1.898574059 3.831838784e-20)
(97.39879411 -1.324931505 -3.584694191e-20)
(97.32523158 -0.780860953 -2.422425641e-21)
(97.2849159 -0.2577147965 2.430516355e-21)
(103.4114646 -0.2098830376 0)
(103.4094675 -0.6356953869 0)
(103.4087973 -1.071464261 0)
(103.3980738 -1.519930969 0)
(103.2778976 -1.923256379 0)
(103.2403285 -2.431676851 0)
(103.2178427 -2.982194664 0)
(103.145695 -3.552989453 0)
(103.056607 -4.191303228 1.346817323e-20)
(102.851003 -4.840084307 4.679394522e-20)
(102.6733861 -5.462619711 2.327627074e-21)
(95.14184429 -5.377113361 0)
(99.02329256 -6.258180879 -8.859200739e-20)
(98.52725632 -6.248265114 3.363720743e-21)
(98.12604643 -5.919477401 -1.292533877e-20)
(97.82552582 -5.366688277 -3.127732372e-22)
(97.58213992 -4.701045785 0)
(97.39520524 -4.006683773 0)
(97.20193174 -3.205844082 0)
(97.16207279 -2.574112797 0)
(96.96299155 -1.791536878 0)
(96.88565465 -1.2615355 0)
(96.83343574 -0.746094763 0)
(96.80385683 -0.2472659244 0)
(103.8007612 -0.1997844139 0)
(103.8052032 -0.6040007689 0)
(103.8161352 -1.016854401 0)
(103.8229948 -1.432541626 0)
(103.7280389 -1.812072289 0)
(103.7206445 -2.272296046 0)
(103.7279587 -2.754977147 0)
(103.6805642 -3.24956024 0)
(103.6036404 -3.768493408 0)
(103.3803661 -4.272219116 0)
(103.1175058 -4.72410387 5.703306993e-20)
(95.30464193 -4.688446308 -8.160728462e-20)
(99.10626029 -5.240851358 1.592727973e-20)
(98.36605864 -5.21505065 -9.680722834e-21)
(97.76701201 -4.990717559 0)
(97.32869745 -4.604029503 0)
(97.01556327 -4.112214314 0)
(96.8129737 -3.570968281 0)
(96.64462822 -2.90794819 0)
(96.62244538 -2.366627366 0)
(96.46541241 -1.660020826 0)
(96.40931182 -1.178565482 0)
(96.37097186 -0.6989699332 0)
(96.34955154 -0.2322269572 0)
(104.1679225 -0.1874539267 0)
(104.1769273 -0.5654493041 0)
(104.1954126 -0.9508971732 0)
(104.2135745 -1.330900419 0)
(104.1367044 -1.681716708 0)
(104.1462538 -2.092091714 0)
(104.1663656 -2.512669035 0)
(104.124151 -2.932996482 0)
(104.0345162 -3.352285577 0)
(103.7769688 -3.740309386 0)
(103.3697565 -4.064149834 0)
(95.87555916 -4.075153971 0)
(99.16067453 -4.423570493 0)
(98.26185148 -4.398106621 0)
(97.51659702 -4.235147513 0)
(96.96600723 -3.952597839 0)
(96.58280028 -3.581080571 0)
(96.3463842 -3.154474571 0)
(96.17775218 -2.605814561 0)
(96.15412779 -2.146107689 0)
(96.01912344 -1.516723056 0)
(95.97441588 -1.084650293 0)
(95.94371194 -0.6448236646 0)
(95.92726633 -0.2146854054 0)
(104.5095414 -0.1737495269 0)
(104.5213975 -0.5227612038 0)
(104.5438364 -0.8781648745 0)
(104.567833 -1.221871088 0)
(104.5030361 -1.541603747 0)
(104.5189858 -1.903710982 0)
(104.5384127 -2.268741894 0)
(104.4901327 -2.621832578 0)
(104.3745339 -2.960378303 0)
(104.0772012 -3.261390013 0)
(103.519513 -3.495215691 0)
(96.3735331 -3.528538003 0)
(99.19034199 -3.75900484 -3.005921918e-35)
(98.18328596 -3.733852499 0)
(97.33220799 -3.610418736 0)
(96.69368038 -3.397342384 0)
(96.24709566 -3.110999187 0)
(95.97066446 -2.771700185 0)
(95.78671959 -2.315882231 0)
(95.75009176 -1.926320385 0)
(95.623015 -1.370703364 0)
(95.58208649 -0.9864460149 0)
(95.55411916 -0.5876633346 0)
(95.54025484 -0.1960801403 0)
(104.8237519 -0.1594026723 0)
(104.8370123 -0.4782590535 0)
(104.8604447 -0.8025606782 0)
(104.8857697 -1.110756442 0)
(104.8285143 -1.39903182 0)
(104.842927 -1.716306078 0)
(104.8524295 -2.031600947 0)
(104.7914333 -2.326774672 0)
(104.6439454 -2.600562645 0)
(104.3068204 -2.836020485 0)
(103.6087889 -3.006570103 0)
(96.80102671 -3.055442229 0)
(99.20044206 -3.210251865 0)
(98.12037257 -3.184849618 0)
(97.19170051 -3.088220056 0)
(96.48434814 -2.923491874 0)
(95.98290744 -2.698975182 0)
(95.66678569 -2.426602218 0)
(95.45839033 -2.046537627 0)
(95.40252426 -1.715885478 0)
(95.27388907 -1.228256713 0)
(95.23127179 -0.8888382727 0)
(95.20248864 -0.5304536586 0)
(95.18936292 -0.1773955716 0)
(105.1099925 -0.1449938428 0)
(105.1234976 -0.4337696776 0)
(105.1456693 -0.7271730431 0)
(105.1688652 -1.001574106 0)
(105.1155667 -1.259322939 0)
(105.1230288 -1.535979619 0)
(105.1166922 -1.806210674 0)
(105.0392773 -2.053695685 0)
(104.8584063 -2.275437285 0)
(104.4843258 -2.460968087 0)
(103.6594009 -2.585923688 0)
(97.16223225 -2.646850641 0)
(99.19846165 -2.750438733 -3.527756052e-35)
(98.06857345 -2.725358553 0)
(97.08188448 -2.648035307 0)
(96.32040231 -2.518262182 0)
(95.772302 -2.339725656 0)
(95.41884948 -2.118939173 0)
(95.18240722 -1.800888827 0)
(95.10385673 -1.519775079 0)
(94.9675822 -1.093504775 0)
(94.91962612 -0.7951503936 0)
(94.88762504 -0.4752443307 0)
(94.87389536 -0.1593059263 0)
(105.3687267 -0.1309625574 0)
(105.3815789 -0.3906442608 0)
(105.4008676 -0.6542694659 0)
(105.4194587 -0.8972004199 0)
(105.3674161 -1.126141399 0)
(105.3644288 -1.366411362 0)
(105.3394904 -1.596771957 0)
(105.2430307 -1.804786015 0)
(105.0298319 -1.984738128 0)
(104.6225941 -2.131785499 0)
(103.6854506 -2.223223468 0)
(97.46517632 -2.293070414 0)
(99.18891657 -2.361536259 0)
(98.0253064 -2.337355249 0)
(96.99452237 -2.274656488 0)
(96.1901305 -2.171031459 0)
(95.60258458 -2.027504632 0)
(95.21499895 -1.847066433 0)
(94.94980554 -1.579973741 0)
(94.84724102 -1.340541823 0)
(94.69967034 -0.9688978605 0)
(94.64410896 -0.7074847538 0)
(94.60736362 -0.4233675278 0)
(94.59209266 -0.1422541185 0)
(105.6011372 -0.1176294718 0)
(105.6126628 -0.3498412826 0)
(105.6279533 -0.5854299457 0)
(105.6402693 -0.7995834582 0)
(105.587491 -1.001869857 0)
(105.5719215 -1.209835457 0)
(105.5271164 -1.405759372 0)
(105.4106544 -1.580616688 0)
(105.167322 -1.726880034 0)
(104.7305927 -1.843855656 0)
(103.6960836 -1.910273496 0)
(97.71912923 -1.986306479 0)
(99.17474957 -2.030784865 1.034018451e-35)
(97.98893621 -2.007894251 0)
(96.92423042 -1.956672361 0)
(96.08552339 -1.873171311 0)
(95.46467984 -1.756867918 0)
(95.0463502 -1.608467177 0)
(94.75316145 -1.383457956 0)
(94.62664036 -1.17913706 0)
(94.46579833 -0.8556823513 0)
(94.40136199 -0.6270588008 0)
(94.35898771 -0.3756266778 0)
(94.34155215 -0.1265129183 0)
(105.80889 -0.10521823 0)
(105.8186021 -0.3120111846 0)
(105.8291706 -0.5217005445 0)
(105.8341575 -0.709938923 0)
(105.7792345 -0.8879185593 0)
(105.7499374 -1.067473201 0)
(105.6849405 -1.23387153 0)
(105.5485966 -1.380716 0)
(105.2778717 -1.499665952 0)
(104.8148095 -1.592784517 0)
(103.6971778 -1.640328441 0)
(97.93330487 -1.720537103 0)
(99.15786777 -1.748697002 0)
(97.95826773 -1.727252451 0)
(96.86728656 -1.68524834 0)
(96.00091638 -1.617602995 0)
(95.35193655 -1.522860073 0)
(94.90614138 -1.400245725 0)
(94.58643701 -1.21021666 0)
(94.43681038 -1.035513849 0)
(94.26183248 -0.7542996115 0)
(94.18794209 -0.5544677034 0)
(94.139512 -0.3324439644 0)
(94.11952503 -0.112231388 0)
(105.993976 -0.09387431061 0)
(106.0015377 -0.2775644752 0)
(106.006956 -0.4637248332 0)
(106.0040133 -0.628948308 0)
(105.9459369 -0.7850376563 0)
(105.9024349 -0.9397961779 0)
(105.8175401 -1.080982901 0)
(105.6620451 -1.204080057 0)
(105.3668281 -1.300758211 0)
(104.8801053 -1.374683987 0)
(103.6925625 -1.407872955 0)
(98.11579491 -1.490786915 0)
(99.1394765 -1.507852513 0)
(97.93237761 -1.487916336 0)
(96.82103136 -1.453476759 0)
(95.93221551 -1.398585617 0)
(95.2594006 -1.321192419 0)
(94.78916433 -1.219572783 0)
(94.44472992 -1.058801409 0)
(94.27325101 -0.9090939813 0)
(94.08392768 -0.6646992017 0)
(94.00045701 -0.4898916279 0)
(93.94585189 -0.2939777744 0)
(93.92309584 -0.09947169342 0)
(106.1585975 -0.08368351586 0)
(106.1637865 -0.2467321979 0)
(106.1638401 -0.4118532662 0)
(106.1526859 -0.5569239157 0)
(106.0907375 -0.6935031703 0)
(106.032987 -0.8267954083 0)
(105.9288449 -0.9465475759 0)
(105.7552343 -1.049496152 0)
(105.4383051 -1.127931563 0)
(104.930205 -1.18623587 0)
(103.6846991 -1.208379335 0)
(98.2732567 -1.292706551 0)
(99.12042225 -1.30232331 0)
(97.91058572 -1.283989989 0)
(96.78352455 -1.255920275 0)
(95.87638431 -1.211492245 0)
(95.183288 -1.148253641 0)
(94.69130557 -1.06387757 0)
(94.32396316 -0.9276778206 0)
(94.13203575 -0.7990283535 0)
(93.92853552 -0.5865496436 0)
(93.83563491 -0.4332509152 0)
(93.77492643 -0.2602160212 0)
(93.74929777 -0.08823880015 0)
(106.3050442 -0.07468990719 0)
(106.3077237 -0.2196214445 0)
(106.3023482 -0.3662394512 0)
(106.2829195 -0.4939519542 0)
(106.2165729 -0.6133336653 0)
(106.1448022 -0.7282376369 0)
(106.0222476 -0.8299059759 0)
(105.8316773 -0.9158268928 0)
(105.4955147 -0.9793357663 0)
(104.9679803 -1.024845855 0)
(103.6750033 -1.038310638 0)
(98.41105065 -1.122682268 0)
(99.10139008 -1.127564747 0)
(97.89244346 -1.111013692 0)
(96.75334803 -1.088473029 0)
(95.8311309 -1.052776179 0)
(95.12064805 -1.00118636 0)
(94.60924666 -0.9310055599 0)
(94.22070504 -0.8154316341 0)
(94.00973062 -0.7044139453 0)
(93.79240325 -0.5193887165 0)
(93.69038141 -0.38431887 0)
(93.62375231 -0.2310457544 0)
(93.59522387 -0.07850320142 0)
(106.4356822 -0.06690592227 0)
(106.4357746 -0.1962477509 0)
(106.4250056 -0.3268941911 0)
(106.3973937 -0.4399534764 0)
(106.3262124 -0.5443877731 0)
(106.2408154 -0.643776241 0)
(106.1006972 -0.7303083824 0)
(105.8944179 -0.8020539686 0)
(105.5410863 -0.853465669 0)
(104.9956979 -0.8885158858 0)
(103.6640403 -0.8949894451 0)
(98.53353779 -0.9778579937 0)
(99.08305642 -0.9801723614 0)
(97.87771036 -0.9657473187 0)
(96.72943433 -0.9481274912 0)
(95.79464315 -0.9197739593 0)
(95.06906196 -0.8777585067 0)
(94.54015454 -0.8191549392 0)
(94.13198325 -0.7207828481 0)
(93.90326394 -0.6243474896 0)
(93.67248863 -0.4626670346 0)
(93.56174434 -0.3427716749 0)
(93.48943423 -0.20628657 0)
(93.45802546 -0.07021152756 0)
(106.5527263 -0.06032517858 0)
(106.5502096 -0.1765668764 0)
(106.534158 -0.293718736 0)
(106.4985721 -0.39476857 0)
(106.4222618 -0.4863887257 0)
(106.3237508 -0.5729557231 0)
(106.1668073 -0.6466332482 0)
(105.9460811 -0.707231621 0)
(105.57723 -0.7488978848 0)
(105.0151721 -0.7754100115 0)
(103.6518032 -0.7760149235 0)
(98.64432385 -0.8559429111 0)
(99.06626812 -0.8577638751 -8.433149041e-37)
(97.86624688 -0.845848042 0)
(96.71089093 -0.8325824591 0)
(95.76538453 -0.8103324485 0)
(95.02645815 -0.776073289 0)
(94.48156871 -0.7269272719 0)
(94.05510848 -0.6426050914 0)
(93.80984775 -0.5578762525 0)
(93.56608481 -0.4158115851 0)
(93.44706345 -0.3082164222 0)
(93.36934194 -0.1857210352 0)
(93.33511395 -0.06329905531 0)
(106.6588482 -0.05491187947 0)
(106.6536924 -0.160461967 0)
(106.6324744 -0.266510766 0)
(106.5891897 -0.3580249434 0)
(106.5071863 -0.4389296047 0)
(106.3961156 -0.5150574629 0)
(106.2233018 -0.5780417297 0)
(105.9888373 -0.6300526816 0)
(105.6057725 -0.6639547978 0)
(105.0277861 -0.6834635833 0)
(103.6380006 -0.6789522131 0)
(98.74618243 -0.7550206151 0)
(99.05188515 -0.7582941159 0)
(97.8578472 -0.7491192976 0)
(96.69686251 -0.7396170446 0)
(95.74195944 -0.7223009167 0)
(94.9910269 -0.694159061 0)
(94.43154667 -0.652652217 0)
(93.98756983 -0.5796542844 0)
(93.72695832 -0.5039838424 0)
(93.47034012 -0.3780938269 0)
(93.34347247 -0.2802048186 0)
(93.26057285 -0.1690855866 0)
(93.22356376 -0.05767979685 0)
(106.7547525 -0.05066315931 0)
(106.7470578 -0.1478654663 0)
(106.7208853 -0.2450369934 0)
(106.6702579 -0.3296821224 0)
(106.5832433 -0.4014096558 0)
(106.4601075 -0.4691592802 0)
(106.2726333 -0.5241732724 0)
(106.0245568 -0.5688648652 0)
(105.6282211 -0.5967346664 0)
(105.0346474 -0.6105409842 0)
(103.6225184 -0.6016821206 0)
(98.84092044 -0.6730650257 0)
(99.04064076 -0.6788748006 0)
(97.85233674 -0.6728306986 0)
(96.68656881 -0.6666843544 0)
(95.72311359 -0.6533128616 0)
(94.96115545 -0.6298667937 0)
(94.38823698 -0.5940154839 0)
(93.92739741 -0.5302237245 0)
(93.65231611 -0.4614653624 0)
(93.38416853 -0.3491598478 0)
(93.24989136 -0.2583179436 0)
(93.16209869 -0.1561938857 0)
(93.1224684 -0.05331064144 0)
(106.8481432 -0.04742656993 0)
(106.8375998 -0.1384309163 0)
(106.8062804 -0.2288828093 0)
(106.748248 -0.3079043838 0)
(106.6526787 -0.3734171468 0)
(106.5175349 -0.4345800236 0)
(106.316052 -0.4842069953 0)
(106.055043 -0.5222691117 0)
(105.6458917 -0.5455818079 0)
(105.0368441 -0.5549542272 0)
(103.6055181 -0.5427577537 0)
(98.92892329 -0.6079646424 0)
(99.03328561 -0.6163883904 0)
(97.84987564 -0.6142494501 0)
(96.67944907 -0.6113384046 0)
(95.70782719 -0.6011739182 0)
(94.93547278 -0.5813002536 0)
(94.34968214 -0.5495598201 0)
(93.87309516 -0.4929381917 0)
(93.58412982 -0.4299028856 0)
(93.30132245 -0.326998827 0)
(93.15929107 -0.2420318752 0)
(93.06651508 -0.1466160265 0)
(93.02398736 -0.0500040272 0)
(106.9193385 -0.04557293564 0)
(106.9068582 -0.1328357159 0)
(106.8713666 -0.2185090443 0)
(106.8079741 -0.2975433371 0)
(106.7147744 -0.3541850801 0)
(106.5699974 -0.4103370547 0)
(106.3548999 -0.4566380774 0)
(106.0816608 -0.4892755248 0)
(105.6600322 -0.5094001144 0)
(105.0355802 -0.5157040082 0)
(103.5872451 -0.5011903222 0)
(99.0091082 -0.5579402499 0)
(99.03073521 -0.5696257888 0)
(97.85071322 -0.5719249348 0)
(96.67506112 -0.5719398731 0)
(95.69529471 -0.5643039029 0)
(94.91291743 -0.5470854074 0)
(94.31479993 -0.5183146144 0)
(93.82309802 -0.4670741138 0)
(93.52090165 -0.4081607916 0)
(93.23678501 -0.3150946625 0)
(93.08929472 -0.2319577518 0)
(92.99266227 -0.1409489173 0)
(92.94821473 -0.04812569028 0)
(107.0518757 -0.04370165812 0)
(107.03533 -0.1282803764 0)
(106.9921361 -0.2103551716 0)
(106.9148436 -0.28451017 0)
(106.7749811 -0.3432452322 0)
(106.6169186 -0.3966596891 0)
(106.3889716 -0.4410261736 0)
(106.1057577 -0.4691967585 0)