/*--------------------------------*- C++ -*----------------------------------*\
| =========                 |                                                 |
| \\      /  F ield         | OpenFOAM: The Open Source CFD Toolbox           |
|  \\    /   O peration     | Version:  v1912                                 |
|   \\  /    A nd           | Website:  www.openfoam.com                      |
|    \\/     M anipulation  |                                                 |
\*---------------------------------------------------------------------------*/
FoamFile
{
    version     2.0;
    format      ascii;
    class       volScalarField;
    location    "100";
    object      k;
}
// * * * * * * * * * * * * * * * * * * * * * * * * * * * * * * * * * * * * * //

dimensions      [0 2 -2 0 0 0 0];


internalField   nonuniform List<scalar> 
12556
(
36.829
36.8288
36.8288
36.8306
36.9164
36.9179
36.9185
36.9199
36.9228
36.9282
36.9368
36.9473
36.9557
36.9579
36.9528
36.9438
36.9347
36.9277
36.9229
36.9201
36.8325
36.8296
36.829
36.8286
36.6491
36.6493
36.6495
36.6532
36.7319
36.7382
36.743
36.788
36.7963
36.8117
36.8358
36.865
36.8889
36.896
36.8835
36.8591
36.8331
36.8122
36.7573
36.7459
36.6585
36.652
36.6503
36.6494
36.4703
36.4706
36.4713
36.4764
36.5504
36.5611
36.5716
36.6179
36.6395
36.6772
36.7344
36.8007
36.8512
36.864
36.836
36.7816
36.7229
36.6739
36.6029
36.5787
36.489
36.478
36.4744
36.4729
36.2935
36.2937
36.2947
36.3015
36.3711
36.3865
36.4049
36.4598
36.507
36.5902
36.7116
36.8272
36.9029
36.9162
36.8686
36.778
36.6655
36.5673
36.4684
36.4231
36.3254
36.3078
36.3014
36.2988
36.1185
36.1187
36.1202
36.1289
36.1962
36.2172
36.2468
36.3163
36.4117
36.5779
36.7758
36.971
37.099
37.1029
37.0051
36.8532
36.6841
36.5179
36.3627
36.2826
36.1687
36.1416
36.1308
36.1267
35.9454
35.9458
35.948
35.9588
36.0254
36.0539
36.1007
36.1976
36.3653
36.6232
36.9551
37.3558
37.6551
37.5906
37.3285
37.0412
36.7726
36.5324
36.2949
36.161
36.0192
35.979
35.9621
35.9557
35.7749
35.7756
35.7789
35.7921
35.8586
35.8967
35.9671
36.1039
36.3613
36.7305
37.2973
38.3166
39.0599
38.8545
37.9815
37.3851
36.9423
36.5924
36.2672
36.0604
35.8776
35.8201
35.7951
35.7855
35.6075
35.6087
35.6135
35.6299
35.6976
35.7475
35.8462
36.0302
36.3735
36.8717
37.7466
39.7776
41.3597
39.0968
37.9004
37.1927
36.6959
36.2714
35.9802
35.744
35.6651
35.63
35.6166
35.4439
35.4457
35.4524
35.4726
35.5428
35.6064
35.7362
35.9684
36.3848
37.0008
38.0914
41.0591
45.1962
40.4591
38.5279
37.4994
36.8315
36.292
35.9164
35.6184
35.5152
35.4685
35.4506
35.2844
35.2871
35.296
35.3205
35.3942
35.4725
35.6339
35.9099
36.3874
37.0991
38.3284
41.2602
47.8158
41.6653
39.1472
37.8168
36.9794
36.3171
35.8636
35.5012
35.372
35.3126
35.2896
35.1294
35.1331
35.1444
35.1735
35.2515
35.3452
35.5366
35.8507
36.3821
37.1788
38.5253
41.0348
49.0915
42.5617
39.6742
38.1047
37.1193
36.3406
35.817
35.3915
35.2363
35.164
35.1356
34.9787
34.9834
34.9971
35.031
35.1143
35.2231
35.4419
35.7905
36.3735
37.2528
38.6981
40.7493
49.461
43.1422
40.07
38.337
37.2355
36.3561
35.7708
35.2876
35.1082
35.0234
34.9896
34.832
34.838
34.8547
34.8936
34.9811
35.1045
35.3481
35.7292
36.3626
37.324
38.8326
40.2927
35.8802
48.8861
43.459
40.3302
38.5019
37.3178
36.3566
35.7197
35.1872
34.9864
34.8903
34.8514
34.689
34.6961
34.7153
34.7586
34.854
34.9937
35.2621
35.6809
36.3687
37.4135
38.9119
37.7709
39.2112
48.6308
43.5697
40.4682
38.601
37.3626
36.3334
35.6592
35.0876
34.8689
34.7629
34.7195
34.5487
34.5568
34.5783
34.6258
34.727
34.8789
35.1672
35.6154
36.3426
37.4296
38.781
32.9139
42.2825
47.8529
43.4733
40.4987
38.6399
37.3703
36.2845
35.5869
34.986
34.7532
34.6391
34.5919
34.4103
34.4195
34.4431
34.4942
34.6013
34.764
35.0699
35.5454
36.3047
37.4033
38.4844
31.5911
42.4467
46.8882
43.1847
40.4338
38.619
37.3284
36.2106
35.5022
34.8805
34.6375
34.5164
34.4662
34.2734
34.2833
34.3087
34.3633
34.476
34.6486
34.9706
35.4707
36.2569
37.3422
38.0684
30.6739
41.8606
45.9653
42.8114
40.2765
38.5313
37.2441
36.1153
35.4039
34.7697
34.5196
34.3931
34.3407
34.1372
34.1478
34.175
34.2326
34.3509
34.5323
34.8694
35.391
36.2005
37.252
37.545
30.2023
41.0936
45.1321
42.4355
40.0804
38.4004
37.13
36.0023
35.2931
34.6523
34.3979
34.2684
34.2138
34.0015
34.0127
34.0412
34.1018
34.2255
34.4153
34.7664
35.3054
36.1349
37.1339
36.9185
29.8413
40.3104
44.3815
42.0788
39.8685
38.2421
36.9943
35.8775
35.1732
34.5295
34.2726
34.1406
34.0849
33.8659
33.8776
33.9075
33.9709
34.0998
34.2976
34.6613
35.2131
36.0582
36.9876
36.2121
29.3004
39.5536
43.6951
41.7396
39.6474
38.0642
36.8415
35.7443
35.0463
34.4021
34.1437
34.01
33.9535
33.7304
33.7426
33.7736
33.8399
33.9738
34.1792
34.5538
35.114
35.969
36.8137
35.4642
28.4806
38.8298
43.0541
41.4097
39.4181
37.8716
36.675
35.6046
34.914
34.271
34.0117
33.8767
33.8196
33.595
33.6075
33.6398
33.7087
33.8474
34.0599
34.4434
35.0094
35.8691
36.6157
34.7054
27.4662
38.1348
42.4401
41.0798
39.1821
37.6695
36.4985
35.4597
34.7776
34.137
33.8771
33.7411
33.6834
33.4596
33.4725
33.5059
33.5776
33.7206
33.9395
34.3304
34.9027
35.7628
36.3992
33.9641
26.422
37.4626
41.8374
40.7428
38.9431
37.4647
36.3171
35.3101
34.6379
34.0009
33.7405
33.6034
33.5453
33.3243
33.3376
33.3722
33.4465
33.5932
33.8179
34.2157
34.799
35.656
36.172
33.266
25.4933
36.8112
41.2354
40.3965
38.7062
37.2652
36.1368
35.1568
34.4954
33.863
33.6023
33.4643
33.4057
33.1892
33.2029
33.2387
33.3155
33.4653
33.695
34.1011
34.7043
35.555
35.9426
32.6311
24.7656
36.1843
40.6291
40.043
38.4769
37.0785
35.9634
35.0006
34.3505
33.7239
33.4629
33.3239
33.2648
33.0545
33.0686
33.1055
33.1847
33.3367
33.5712
33.9892
34.6251
35.4648
35.7156
32.0711
24.2753
35.5961
40.0196
39.6885
38.2616
36.9101
35.8013
34.8431
34.2033
33.5837
33.3227
33.1828
33.123
32.9202
32.9347
32.9727
33.054
33.2076
33.4468
33.8832
34.567
35.3888
35.4918
31.5915
24.0314
35.0696
39.4152
39.3422
38.0655
36.7621
35.6522
34.6857
34.0544
33.4428
33.1821
33.0411
32.9808
32.7864
32.8013
32.8404
32.9234
33.0779
33.3227
33.7865
34.5342
35.3277
35.2692
31.1928
24.0289
34.6348
38.8311
39.0148
37.8929
36.6339
35.5156
34.5301
33.9043
33.3014
33.0411
32.8992
32.8382
32.6532
32.6685
32.7086
32.7931
32.9481
33.1999
33.7021
34.528
35.2788
35.0436
30.8738
24.2574
34.3283
38.2867
38.7177
37.7458
36.5241
35.3904
34.3776
33.7539
33.1596
32.9001
32.7573
32.6956
32.5207
32.5364
32.5774
32.6631
32.8184
33.0799
33.6328
34.5459
35.2362
34.81
30.6322
24.6962
34.1788
37.8038
38.4603
37.6242
36.4318
35.2767
34.2293
33.6039
33.0177
32.7592
32.6155
32.5531
32.389
32.4051
32.4469
32.5336
32.6895
32.964
33.5802
34.5812
35.1906
34.5631
30.4679
25.3116
34.2085
37.4028
38.2471
37.5251
36.3566
35.1756
34.0859
33.4554
32.8761
32.6186
32.4741
32.4111
32.2582
32.2747
32.3172
32.4048
32.5619
32.8539
33.5444
34.6231
35.1307
34.2988
30.3864
26.0561
34.4237
37.0977
38.0747
37.4411
36.2967
35.0882
33.948
33.309
32.735
32.4785
32.3333
32.2695
32.1284
32.1452
32.1884
32.277
32.4365
32.751
33.5247
34.6586
35.0456
34.0147
30.3955
26.875
34.8036
36.8925
37.9319
37.3606
36.2458
35.0132
33.8159
33.1656
32.5948
32.339
32.193
32.1286
31.9994
32.0166
32.0604
32.1504
32.3141
32.6564
33.5184
34.6749
34.9276
33.711
30.5068
27.713
35.3078
36.7796
37.8015
37.2684
36.1925
34.9458
33.6895
33.0255
32.4557
32.2002
32.0535
31.9884
31.8724
31.8899
31.9344
32.0261
32.1954
32.5713
33.5224
34.6625
34.7739
33.3912
30.7341
28.5204
35.8772
36.7404
37.6651
37.1483
36.1219
34.8775
33.5683
32.8892
32.3187
32.0631
31.9156
31.8498
31.7525
31.7704
31.8156
31.9093
32.0821
32.497
33.5328
34.6172
34.5887
33.0626
31.0836
29.2621
36.4416
36.75
37.5072
36.9876
36.0189
34.798
33.452
32.7575
32.191
31.9349
31.7864
31.72
40.9583
45.5345
41.7011
41.2738
48.664
46.0277
41.0723
50.0087
48.9162
40.7788
50.3928
50.095
40.3484
36.2158
35.7661
50.2215
50.3961
38.4455
40.5119
36.2497
38.8135
50.0465
50.1415
39.5425
38.9875
41.2213
38.8215
49.3263
43.2067
44.76
40.829
39.5569
38.2732
40.6779
40.3534
52.4456
53.7923
47.5676
42.3559
41.2441
38.4794
40.6269
40.6836
41.2
42.843
43.5486
49.966
50.6091
48.9908
43.4622
42.6731
38.6565
40.4972
40.6091
40.9183
40.195
41.8168
50.0047
49.5836
38.8065
40.2988
40.486
40.6274
37.8827
37.3183
39.1827
50.7354
50.5065
38.9127
39.2864
40.2341
39.7773
38.9967
41.5308
34.9261
45.6326
40.7742
44.559
45.664
41.771
44.2995
53.7545
49.7584
43.9143
48.5545
52.8017
43.6522
44.3358
41.2841
44.8409
43.7599
45.6478
44.9728
50.7074
52.3079
47.3774
52.7206
51.4807
52.9232
52.8078
47.2063
41.9478
42.7393
41.1726
42.64
41.4955
43.6914
42.7084
49.5478
49.9606
49.6671
51.0561
50.968
51.4091
51.0916
49.5153
37.4454
40.0527
40.8803
39.1989
36.1734
41.4009
39.3748
50.4652
50.0711
41.7196
38.1148
40.6053
42.1344
40.1936
47.7347
36.0787
39.5911
43.3061
50.3576
50.7471
38.4475
46.1509
38.5048
39.6868
38.0571
43.5729
69.8254
47.5884
44.0914
37.8254
38.0201
40.2644
39.2707
40.4014
43.5128
41.4036
56.7086
47.2142
41.2715
44.4213
44.7774
43.8083
49.4562
44.1627
43.6722
49.7243
41.7711
41.8772
36.7479
50.2209
50.3615
44.736
43.7308
40.5695
49.5703
43.398
49.3789
42.7675
47.879
43.3482
41.678
40.2321
50.3263
51.086
51.1972
50.9719
51.0703
50.2835
36.9462
43.335
37.0965
40.2859
39.9737
41.4393
42.5678
40.534
40.3632
57.5579
46.7798
56.2562
45.7826
55.0304
45.8528
53.5119
53.5983
50.1612
50.2088
40.2913
42.9639
49.8168
41.1864
41.0568
44.1247
41.3267
49.7591
36.794
40.5866
40.3885
42.8153
42.0688
47.8205
38.9628
38.1357
37.1025
39.2417
38.4513
39.2428
52.4525
49.9626
45.1874
50.0446
51.2923
47.29
49.7903
45.3601
42.9497
47.3616
42.8165
51.0919
48.0938
43.331
50.2529
52.452
52.5558
52.3035
44.3525
42.17
44.2722
45.4329
44.6054
46.9324
42.4117
44.3033
45.3309
51.447
51.5595
52.1335
51.0446
50.5862
51.4741
51.1706
52.048
53.2783
49.5131
48.6497
50.4063
49.763
53.2738
42.1406
42.0656
43.2335
43.1702
49.9828
44.3378
49.9839
37.8337
37.5892
40.5451
40.4145
41.1219
42.1467
50.2568
40.1445
40.1482
39.3861
39.9464
39.4543
40.3161
40.0574
39.2555
37.2834
43.0366
43.3283
36.1942
36.3431
50.8204
35.7307
43.4813
43.0318
36.7424
35.0624
38.7798
43.7504
41.0962
39.5403
45.1076
48.3448
39.9204
46.5297
44.7191
37.2633
42.4998
39.5932
53.9013
38.1557
39.8591
38.8324
37.9705
39.0763
36.6815
42.1352
48.1861
42.0288
49.0826
49.8739
50.4164
40.5984
43.3607
43.7741
43.5934
35.6038
49.8027
50.1509
36.8877
41.731
41.258
42.9538
45.3413
41.7523
41.8405
52.9179
54.9714
54.3357
53.8044
50.0001
45.7081
45.7952
48.0468
47.4194
50.379
41.078
41.6057
41.4276
41.8195
41.6609
41.2007
40.8392
40.6463
36.7769
40.2723
33.3252
32.5918
67.8936
46.3666
44.8158
53.4278
55.6589
55.1733
50.7352
46.7989
45.4725
48.32
47.2092
51.0941
51.0171
49.0265
48.3171
51.9537
42.3062
42.0096
41.8682
39.0649
39.3667
41.7515
45.7778
45.6171
49.9612
50.9953
51.8654
51.8639
51.0379
51.7324
51.5538
51.8538
51.7749
50.9957
38.7409
41.1044
40.9029
41.3646
41.1697
38.9361
38.6512
35.8129
36.2516
35.9277
35.6852
36.5958
41.071
38.4902
38.9522
36.4008
36.8403
39.8585
50.3145
42.3267
44.4518
51.2096
39.4944
41.5673
46.5253
35.9361
36.4411
36.0216
40.1661
37.6226
48.2686
44.2154
33.8757
32.6153
32.3535
31.6465
37.0488
39.6666
43.0073
38.8482
42.1597
50.5522
43.0864
41.476
51.3081
46.737
45.5256
53.8486
53.0417
52.5277
44.4967
44.518
36.6376
37.6855
50.1633
48.4059
48.0378
45.6052
53.2883
46.1571
54.4559
46.5648
42.7429
40.2749
40.6173
44.6736
46.519
46.1609
42.6787
36.313
45.9555
49.8456
42.1767
44.8548
47.8375
40.1086
41.5166
39.5518
39.833
46.3446
57.9838
53.0778
50.5924
55.4181
53.74
49.6776
46.8482
51.9371
53.1574
52.7658
53.0973
53.7752
54.1068
53.3873
46.4104
45.8042
50.0368
46.2755
46.8428
45.2434
46.0759
46.9643
50.3301
47.2444
46.639
40.9637
41.3045
40.9373
46.1952
45.6932
42.6031
45.0437
44.7064
45.5003
45.1581
42.1834
43.419
35.9769
36.4125
34.4326
33.5819
40.0827
40.3034
35.5652
34.7362
51.5211
51.1346
50.7705
47.6588
47.8829
46.9365
47.5238
50.9905
48.5594
47.7657
47.5003
47.8967
47.8137
48.9449
50.2567
45.8948
46.7075
52.2111
52.3692
55.8052
55.6093
53.2306
56.2427
56.6264
56.2503
56.283
55.8322
56.7426
56.461
51.3465
55.3656
55.8675
41.266
44.4136
43.5951
45.0953
44.6131
41.4863
42.7262
42.3001
43.3713
42.8733
45.5512
46.8507
46.4283
47.38
46.9871
45.8854
43.191
45.6966
45.2463
46.2841
45.845
43.4579
49.9557
49.2647
51.1232
51.8604
50.8628
50.1706
38.8118
38.5486
39.2655
38.9052
38.1384
37.9064
38.4634
38.2144
41.6322
41.2525
42.1636
41.7616
40.5011
39.4533
41.1284
40.715
44.296
44.2386
44.6252
44.3832
44.8186
44.2984
44.9929
44.2364
44.1754
35.2731
35.6705
38.4613
36.5562
36.3129
36.8351
36.6377
36.2578
36.8027
35.6483
35.2072
37.5618
38.2171
40.9378
37.4081
37.2652
37.8244
37.538
37.0742
36.8968
37.2379
37.1239
40.006
36.9835
37.4113
46.4129
39.9925
45.8436
43.9571
45.6412
39.9937
50.3137
38.7973
51.1438
48.0115
41.9516
45.1936
37.4944
36.6319
35.9409
37.1252
39.4139
37.8654
50.3151
36.8089
31.4301
31.1807
46.0345
48.4117
41.779
49.4844
44.3163
39.3384
46.3641
48.9379
41.8157
50.0438
42.7295
46.0471
40.9213
39.1603
38.1714
49.6639
49.0402
49.3528
44.5348
44.2839
48.6564
36.2356
41.8993
40.1397
51.2098
51.4447
50.3626
43.1863
42.5699
45.4701
52.0874
43.2807
43.3654
40.0184
40.4277
42.2624
48.0668
51.9338
53.7474
43.1426
42.345
42.2257
42.4902
42.3828
43.242
36.5008
36.1252
42.1581
44.7058
45.3923
50.6133
36.5881
35.8426
40.6516
54.2296
55.0816
50.9689
42.184
42.054
42.417
42.426
40.2378
40.59
40.7709
41.5261
42.9157
41.0052
37.4746
36.8257
46.7895
45.4676
41.152
52.8397
52.5512
47.6993
44.6852
50.2981
48.4809
36.8084
36.9767
36.6411
43.1358
47.3582
53.0493
52.9634
44.6298
56.0677
44.295
42.8217
44.0311
50.4582
37.8922
37.1342
42.4358
49.1655
45.0059
43.5815
45.7105
40.931
39.6383
38.2461
48.5865
49.008
48.5995
46.3992
48.0141
41.3278
41.6456
44.3763
56.766
55.0772
54.2991
58.3184
57.7571
40.4754
42.1814
41.5809
44.4557
44.2779
42.2506
46.7193
46.3346
40.9283
43.8048
42.1388
42.2859
46.0519
40.6026
41.6376
52.2046
52.9696
50.3511
50.2926
49.673
49.5279
47.638
48.0129
47.7505
49.3728
49.2079
49.5256
44.7168
45.6183
49.93
51.2465
53.9706
52.7808
53.3692
53.7029
52.4585
40.8664
41.5599
41.359
43.7848
43.5677
41.9349
39.9696
39.8086
41.1448
40.9265
44.9195
46.0807
45.8416
47.5068
47.2694
46.5781
42.6617
44.2263
44.0037
45.6042
45.3691
44.011
39.8517
40.1365
42.3542
41.8297
39.462
39.7538
42.1792
42.5153
43.4241
38.7337
38.5995
39.6534
39.4952
38.1014
38.4744
38.3584
42.979
41.6981
42.0667
44.7681
44.9109
42.5253
42.8271
44.5014
45.013
45.2055
49.9578
45.6192
45.8354
38.2091
37.6777
40.326
38.8418
38.691
38.3509
47.4557
46.7423
42.6741
43.6796
48.5446
47.9343
51.0978
37.6504
33.8814
34.8658
51.8358
42.2879
39.7881
43.1245
40.85
51.4184
51.8771
45.5547
48.9707
49.2987
49.0309
44.9467
44.5266
50.3822
50.9552
40.5722
39.9466
39.5738
49.0344
49.8093
44.3058
43.3364
39.2312
52.4881
52.5329
54.2187
41.4438
47.1553
45.6664
47.5376
47.5848
42.339
42.6661
43.1362
50.1207
52.0921
52.3018
51.633
51.8724
54.7652
54.4587
54.6206
54.1253
54.2946
54.5448
47.8494
47.8869
48.072
47.6488
47.738
47.6394
55.5046
55.026
55.0849
54.7769
54.9179
55.3537
48.7567
48.6867
48.9016
48.2719
48.4779
48.5538
51.1915
51.3976
50.8191
50.98
35.9598
36.6491
36.4641
35.8245
34.9989
34.9715
35.132
35.0552
35.7437
51.2107
51.3912
48.4405
50.3635
45.1266
46.068
43.2017
44.0991
53.531
47.3453
52.1326
51.6656
36.2676
35.0927
35.2118
34.9753
35.0133
36.1309
41.436
42.2474
39.2089
40.6116
41.1354
51.2913
50.9782
46.2505
51.3791
32.268
31.6173
46.622
37.5158
33.8582
33.5657
42.68
51.0735
51.1626
56.3857
46.5448
45.8571
52.8128
52.9667
47.0718
45.1116
55.5739
56.6385
55.3994
54.5443
53.5369
51.0381
55.9227
54.6317
44.4994
44.6703
50.3875
45.3683
47.128
48.7792
47.5423
52.0703
48.2255
49.889
54.2516
54.8085
51.4102
53.5822
55.6119
46.0698
47.3525
46.5204
47.4138
49.7516
49.6387
49.1314
42.9879
46.8409
45.3012
49.3803
48.6126
43.9145
43.9928
45.0169
48.3404
45.1121
42.3448
43.1049
56.7554
55.7327
57.2461
54.8009
56.2868
57.107
57.4537
57.1179
52.9251
52.9651
53.1815
52.4915
52.7288
52.7497
53.8662
53.7641
53.9488
53.382
53.5755
53.6316
46.185
47.4876
47.5761
46.4713
46.6782
45.5002
46.1345
45.9934
45.8431
47.2055
47.4691
47.0112
47.6686
47.6368
47.6511
47.6865
46.8469
43.9385
42.9986
40.6927
44.9218
45.078
44.9256
41.729
44.3786
44.3484
42.0111
42.0623
43.1489
51.8855
50.7395
48.6186
48.3026
47.9443
49.2495
49.0335
48.8454
54.2305
54.1456
51.8874
55.1953
55.505
52.4395
54.0017
54.1965
55.7235
54.9999
54.9414
55.0763
55.0455
55.6543
56.3778
56.4878
56.1789
57.5629
57.5627
57.2957
57.4742
56.059
56.8241
57.5618
57.7658
56.8615
42.7966
42.3193
41.0645
41.709
43.3486
43.1084
40.3215
40.1401
40.7153
40.5133
46.5553
46.3179
45.2314
46.2286
47.0321
46.7938
44.6815
44.453
42.9227
43.7287
45.1372
44.9089
49.731
49.5626
49.7913
49.1176
49.3385
49.472
50.6363
50.4532
50.6185
50.0229
50.2492
50.4199
38.7192
37.9536
38.0074
37.8418
37.8933
38.6305
39.1265
38.2152
38.2947
38.0686
38.1352
39.008
38.0599
37.5458
37.5784
37.4686
37.5035
37.9812
38.3785
37.7258
37.7815
37.6192
37.6682
38.294
39.0233
38.8744
41.503
40.2347
40.3737
39.9655
40.0967
41.3759
39.335
39.1771
38.067
38.0169
40.1625
38.9366
39.2508
38.3788
38.4695
39.749
41.0032
39.7103
39.8359
39.4425
39.5828
40.8706
38.2518
38.1536
44.1366
44.5087
44.6107
43.176
43.6056
44.5007
45.5837
45.4193
45.8876
45.7591
44.7411
44.1954
44.3732
44.0124
45.1715
44.8447
44.1531
35.3927
35.9029
35.7111
36.279
36.093
35.5295
36.4695
36.3847
36.7713
36.7122
36.2831
36.6381
35.6518
35.2733
35.2084
35.5172
35.3349
35.2667
37.338
37.5809
37.3259
37.2895
37.7386
37.3805
37.4221
37.3053
37.3369
37.6452
37.017
36.9567
37.2059
37.167
45.8149
41.0773
41.6998
39.9714
40.4982
45.2885
44.5635
45.0626
42.4224
43.4236
45.5456
50.9358
45.4163
46.7417
43.0999
44.2512
50.0231
48.8615
49.7066
47.008
47.9282
50.0438
49.0889
44.2175
51.9888
52.6808
50.512
51.2661
37.1371
35.8669
36.1964
35.3765
35.5907
36.8577
38.8111
37.6005
38.2682
36.5861
37.0448
38.2915
51.1348
33.3748
33.4014
36.9269
45.6385
53.6885
54.1044
52.6246
53.0248
46.9398
41.6742
47.3887
42.6635
43.8616
45.9713
52.2497
52.5549
49.0291
48.9247
49.4361
45.1565
46.938
50.2873
49.6431
43.793
48.498
46.6379
49.6681
49.9356
44.8582
36.6595
36.6716
36.7931
36.6768
36.6983
36.8059
36.7074
36.7412
36.8273
36.754
36.7956
36.8557
36.809
36.844
36.8826
36.8523
36.8647
36.896
36.8642
36.8495
36.8893
36.841
36.8079
36.8675
36.7957
36.7584
36.841
36.7469
36.7155
36.8182
36.498
36.5252
36.6329
36.5371
36.5852
36.666
36.6058
36.6805
36.7186
36.7082
36.7886
36.7847
36.8122
36.8682
36.8417
36.8806
36.8962
36.8648
36.8942
36.8677
36.8461
36.8529
36.7944
36.7963
36.7711
36.6972
36.7368
36.6732
36.6086
36.6852
36.3504
36.4065
36.4925
36.4316
36.5324
36.5652
36.5741
36.7058
36.6795
36.7505
36.8802
36.8007
36.9192
37.0102
36.8893
37.0289
37.0447
36.9189
37.0372
36.9837
36.8853
36.9577
36.8627
36.8035
36.8261
36.7116
36.694
36.6731
36.5592
36.5894
36.2248
36.3254
36.3817
36.3716
36.5427
36.5307
36.6058
36.8189
36.7249
36.897
37.1437
36.9253
37.2248
37.4204
37.0775
37.4569
37.4557
37.1135
37.4235
37.2804
37.036
37.2238
37.0421
36.8948
36.9811
36.8012
36.7264
36.7432
36.5775
36.5584
36.125
36.2887
36.3127
36.3599
36.6031
36.5532
36.6989
37.0505
36.864
37.1954
37.7532
37.253
37.9866
38.7004
37.609
38.7754
38.5839
37.6376
38.4234
37.9252
37.4003
37.7775
37.3943
37.1118
37.2824
36.9821
36.8372
36.892
36.6473
36.5899
36.0471
36.2764
36.2843
36.3699
36.6983
36.6247
36.8358
37.3824
37.1276
37.6361
39.0744
37.9958
38.6707
39.3549
38.4687
40.138
40.1119
39.0891
39.4585
39.041
38.615
38.7792
37.961
37.5158
37.7569
37.2606
37.0428
37.1231
36.7688
36.673
35.9833
36.2688
36.2746
36.3826
36.7966
36.7239
36.9715
37.6802
37.4659
37.8488
38.2348
38.0993
40.0026
40.6205
40.3249
42.8412
41.3107
40.3491
40.12
38.6948
38.1336
38.3671
37.6167
37.3441
37.4198
36.9316
36.8065
35.9246
36.2553
36.2661
36.3878
36.8744
36.8182
37.0768
37.8847
37.7382
38.1558
38.6237
38.5433
41.1528
42.0175
41.9186
46.3398
43.8038
42.9329
41.3911
39.4439
38.887
38.9989
37.9968
37.7118
37.739
37.1126
36.9761
35.8657
36.2348
36.2507
36.3839
36.9342
36.8905
37.1598
38.053
37.9284
38.3812
38.9027
38.8423
41.2438
42.0433
42.1186
48.4328
45.4932
44.9758
42.3684
40.086
39.617
39.5536
38.3474
38.0885
38.0371
37.2877
37.1576
35.8057
36.2109
36.229
36.3758
36.9869
36.9479
37.2344
38.2113
38.0931
38.57
39.0883
39.0467
40.9962
41.5033
41.6206
49.3175
46.3365
46.0972
43.0242
40.5716
40.2232
39.9839
38.6348
38.4261
38.2849
37.4379
37.328
35.7446
36.1852
36.2046
36.3655
37.0349
36.9993
37.307
38.3588
38.2503
38.7408
39.342
39.204
40.719
40.8308
40.9528
49.4457
47.2586
47.1847
43.4005
40.8929
40.667
40.2774
38.843
38.6944
38.4671
37.5513
37.4699
35.6959
36.1756
36.1785
36.3722
37.1026
37.046
37.4009
38.5004
38.3903
38.8545
39.4152
39.4172
40.0988
39.3482
39.8742
36.2976
44.0744
43.8251
48.7504
44.6549
44.5856
43.5583
41.0679
40.9492
40.444
38.972
38.8822
38.5819
37.6225
37.5729
35.6321
36.1418
36.1687
36.3501
37.1192
37.1107
37.4297
38.4962
38.5143
38.8984
39.2214
39.3686
37.4705
33.3335
34.4069
40.2064
49.1231
49.6757
48.0835
44.5403
44.6542
43.5112
41.1146
41.0923
40.5007
39.0303
38.993
38.6364
37.6531
37.6336
35.5632
36.0979
36.1315
36.315
37.1041
37.118
37.4132
38.359
38.4729
38.5711
35.8999
37.4983
31.9079
52.1209
51.4397
42.519
47.8507
48.7796
47.1308
44.1799
44.4736
43.2703
41.0503
41.1086
40.461
39.0226
39.0334
38.6308
37.6345
37.6527
35.4897
36.0455
36.0854
36.2694
37.0639
37.0961
37.3601
38.1249
38.3086
38.1829
33.7806
35.3471
30.8482
51.7648
52.1434
42.0437
46.6763
47.5489
46.1888
43.7129
44.0667
42.9065
40.8748
41.014
40.3206
38.9414
39.0088
38.5578
37.5634
37.6209
35.4112
35.9859
36.0311
36.215
37.0027
37.0502
37.2766
37.8153
38.054
37.6863
32.1161
33.3137
30.2896
50.2451
51.4632
41.2955
45.6173
46.4015
45.3321
43.2499
43.5947
42.5274
40.6537
40.8217
40.1309
38.8091
38.9117
38.4357
37.4547
37.539
35.3272
35.9186
35.9695
36.1519
36.9211
36.9838
37.1654
37.4389
37.7272
37.0844
31.0183
31.7893
29.9336
48.0469
49.7326
40.5082
44.6736
45.3715
44.562
42.8193
43.1387
42.1653
40.4193
40.5954
39.9219
38.6475
38.7706
38.2834
37.3197
37.4229
35.2367
35.8423
35.9002
36.0781
36.8173
36.8968
37.026
36.9967
37.3342
36.3943
30.4134
30.8263
29.4581
45.6248
47.4443
39.7419
43.8315
44.4544
43.8609
42.4191
42.7162
41.8224
40.1803
40.3595
39.703
38.4663
38.6035
38.11
37.1647
37.2824
35.1392
35.7559
35.8214
35.992
36.6905
36.7872
36.8588
36.4985
36.8763
35.6537
30.1437
30.3214
28.7104
43.3116
45.0284
39.0087
43.0677
43.6338
43.2101
42.0377
42.322
41.4911
39.9365
40.1194
39.4758
38.2703
38.4184
37.9208
36.9941
37.1232
35.0358
35.6602
35.7325
35.8945
36.5425
36.6548
36.6663
35.9683
36.3676
34.8947
30.0471
30.1094
27.7342
41.2788
42.777
38.3062
42.3558
42.8852
42.5909
41.6607
41.9429
41.1621
39.6873
39.8744
39.2413
38.0639
38.2194
37.7205
36.8121
36.9494
34.9293
35.5587
35.635
35.7892
36.3781
36.5021
36.4536
35.4279
35.833
34.1462
30.0104
30.0364
26.6836
39.5702
40.8254
37.6281
41.6722
42.1822
41.9868
41.2777
41.5653
40.8276
39.4342
39.6241
39.0028
37.853
38.0113
37.5158
36.6244
36.7655
34.8242
35.457
35.5328
35.6818
36.2031
36.3345
36.2281
34.8938
35.2926
33.4347
29.9907
30.0057
25.7146
38.161
39.1947
36.9713
41.0003
41.503
41.3857
40.8845
41.1801
40.4837
39.1799
39.3706
38.7649
37.6452
37.8005
37.3142
36.4377
36.5775
34.7265
35.3616
35.432
35.5786
36.0238
36.1577
35.9984
34.3795
34.762
32.782
30.0026
29.9911
24.9289
37.0023
37.852
36.3372
40.3303
40.8324
40.781
40.4814
40.7844
40.1318
38.9285
39.1166
38.5331
37.4481
37.5946
37.1236
36.2589
36.3921
34.6425
35.2786
35.339
35.4851
35.8454
35.978
35.7703
33.8941
34.254
32.2018
30.0885
30.0158
24.3736
36.0514
36.7473
35.737
39.6608
40.1627
40.1722
40.0726
40.3794
39.7769
38.6859
38.8668
38.3136
37.2681
37.4013
36.9501
36.0931
36.2161
34.5784
35.2128
35.2598
35.405
35.6708
35.8003
35.5456
33.4423
33.7764
31.7013
30.2967
30.1267
24.0637
35.2849
35.8431
35.1921
38.9983
39.4943
39.5657
39.6663
39.9704
39.4274
38.4588
38.6273
38.1121
37.1088
37.2261
36.7967
35.9426
36.0539
34.5387
35.1663
35.1984
35.3399
35.4994
35.6264
35.3228
33.0243
33.3329
31.2818
30.65
30.3675
23.9967
34.6912
35.1187
34.7295
38.3576
38.8358
38.9748
39.2741
39.5666
39.0941
38.2531
38.4049
37.9329
36.9708
37.0719
36.6634
35.807
35.9071
34.5254
35.1382
35.1565
35.2881
35.3283
35.4554
35.0984
32.6377
32.9227
30.9425
31.1574
30.756
24.1638
34.2796
34.5674
34.3856
37.76
38.2037
38.4183
38.9091
39.1798
38.788
38.0737
38.2052
37.779
36.8534
36.939
36.5488
35.6849
35.7749
34.5373
35.1236
35.1321
35.2445
35.1524
35.2835
34.8674
32.2797
32.5434
30.6813
31.8022
31.2976
24.5476
34.0571
34.2009
34.1916
37.2301
37.6204
37.9174
38.5845
38.8235
38.5196
37.9229
38.0325
37.6508
36.7552
36.8263
36.452
35.5758
35.6559
34.5687
35.1137
35.1194
35.2005
34.9656
35.1054
34.6244
31.9476
32.192
30.4969
32.5389
31.9673
25.1182
34.0267
34.0235
34.1711
36.7929
37.1108
37.4933
38.3099
38.5103
38.2947
37.7994
37.8885
37.5462
36.6752
36.7326
36.3723
35.4807
35.55
34.6099
35.0965
35.1088
35.1452
34.7619
34.9151
34.3651
31.642
31.8665
30.3937
33.3115
32.7161
25.8318
34.1898
34.039
34.3366
36.4686
36.6994
37.1622
38.0881
38.2486
38.1123
37.6968
37.7708
37.4591
36.6105
36.6565
36.3087
35.4008
35.4585
34.6482
35.0593
35.0878
35.0676
34.5364
34.7065
34.0865
31.3667
31.568
30.3788
34.0515
33.4854
26.6348
34.5231
34.245
34.6742
36.2678
36.4042
36.9308
37.9127
38.0388
37.963
37.6039
37.6717
37.379
36.555
36.5948
36.2562
35.3349
35.3822
34.6705
34.9909
35.0437
34.9587
34.2865
34.4753
33.7879
31.1302
31.3016
30.4627
34.6895
34.2051
27.4721
34.9854
34.6119
35.1485
36.188
36.2329
36.7947
37.7696
37.8726
37.8311
37.5052
37.5788
37.2913
36.4974
36.5399
36.2048
35.2773
35.3189
34.6662
34.8854
34.9667
34.8143
34.013
34.2196
33.472
30.9454
31.0767
30.6592
35.1678
34.8081
28.2916
35.5229
35.0963
35.7055
36.2131
36.18
36.738
37.6397
37.7343
37.6979
37.3842
37.4761
37.1799
36.4225
36.4795
36.1401
35.2182
35.262
34.6296
34.7437
34.8521
34.6366
33.7208
33.9411
33.1451
30.8272
30.9072
30.9772
35.4507
35.2407
29.0535
36.0649
35.6405
36.2766
36.3157
36.2262
36.7371
37.5049
37.6047
37.5468
37.2268
37.3474
37.0307
36.3152
36.398
36.0467
35.1454
35.2006
34.5629
34.5823
34.7028
34.4445
33.43
33.6458
32.827
30.7879
30.8077
31.4088
35.5273
35.4752
29.7209
36.5246
36.1719
36.7758
36.448
36.3421
36.7555
37.3546
37.4664
37.3734
37.0372
37.1798
36.848
36.1748
36.2809
35.922
35.0535
35.1226
41.8031
41.6726
40.8459
45.0147
46.3106
47.3491
41.9851
42.5881
42.2329
42.141
42.1911
41.2846
48.383
50.2523
50.6158
47.664
48.5075
46.4941
41.6575
41.7645
41.1082
49.9127
51.306
51.3287
50.7174
50.9686
49.1412
40.9928
41.1194
40.8102
50.381
51.2068
51.2056
51.0882
51.133
50.1683
40.0141
40.3376
40.4858
36.1966
37.2471
37.1863
37.2613
37.1213
35.6714
50.3376
51.4508
51.3803
51.1977
51.1853
50.3927
34.7693
35.8195
38.9144
39.1125
44.1611
46.3307
39.7455
39.0512
36.8233
43.027
42.829
37.5234
49.8645
51.026
50.6584
51.3325
51.1212
49.9293
41.1054
39.705
38.8649
49.8571
47.8077
53.2875
38.7003
39.5989
40.0508
51.1605
50.7522
40.7835
40.9989
41.4611
38.9989
40.0118
39.6842
48.8858
49.7982
50.3892
43.7523
44.7796
44.0098
42.6227
41.6404
43.3406
40.403
41.1246
41.6476
40.0855
40.5979
39.9748
38.7739
38.7001
38.2159
40.63
39.1829
39.3149
38.9841
39.1351
40.587
52.5943
52.0496
51.8323
54.3752
54.2975
53.8121
44.7729
44.0659
46.6787
42.0115
43.079
43.4894
42.1541
42.6336
41.6402
39.003
38.9557
38.4315
40.6701
39.443
39.4905
39.3488
39.4235
40.679
41.9282
42.0161
41.2238
42.9432
42.8047
42.7303
43.2433
43.1705
43.445
49.9628
48.8273
48.8328
49.4103
49.2874
50.5211
45.9963
45.6392
48.5984
43.2262
44.4938
44.7539
43.862
44.1972
42.9635
39.1673
39.1283
38.6137
40.5375
39.5631
39.6093
39.5056
39.5477
40.5541
41.3358
41.4623
40.9571
40.5931
41.3487
41.219
41.9901
41.8918
41.6695
49.9433
48.2141
48.3454
46.5138
46.8092
49.6361
39.4125
39.3706
38.7759
40.4272
39.6503
39.6595
39.6243
39.6425
40.4492
40.6536
40.7876
40.6895
37.0928
38.8456
38.9182
39.7786
39.6186
36.9932
36.5515
37.0084
40.0319
50.6531
45.5895
46.0531
49.3344
49.4168
50.5489
39.3949
39.4097
38.8818
39.8712
39.6045
39.5365
39.6555
39.6235
39.9806
38.4253
39.1396
40.0264
39.5962
35.2762
34.9291
37.5075
37.29
41.2779
41.8851
41.8291
36.2718
45.1154
44.7883
43.9785
47.6303
51.9831
43.8781
44.7884
46.4226
45.6841
47.0175
47.1548
45.6205
42.1361
42.5356
42.072
45.3053
44.9227
44.0045
53.6891
54.4755
54.438
50.9238
51.4013
50.1798
44.7323
45.9357
44.4719
49.2067
47.9326
47.357
50.5809
50.2203
52.2497
43.9643
42.6157
42.5236
42.7534
42.6448
44.0631
41.291
42.1929
42.0465
44.704
44.8378
45.2169
43.1045
43.4788
43.9718
45.5954
46.6732
46.9425
45.3378
45.695
45.0992
50.8097
49.6853
49.5461
51.6232
51.435
52.1771
49.6116
50.1118
47.852
52.4704
52.2109
52.1529
52.3049
52.3307
51.7155
53.1704
51.1926
50.905
52.1265
52.0443
53.0692
46.6741
48.758
49.4218
42.0705
42.1708
42.0815
42.6548
42.578
42.6332
41.1419
41.7986
41.8969
42.5673
42.231
42.3195
40.9617
41.0658
41.5824
43.4884
42.6292
42.9832
42.4135
42.5133
42.7778
49.5208
46.155
46.427
48.8319
48.8305
49.965
51.2219
51.294
49.799
51.0309
51.9449
51.9822
51.8228
51.859
50.9863
51.2244
52.2485
52.28
52.0227
52.0645
50.8449
49.3409
51.0343
51.1879
37.9148
40.1103
39.9408
41.0811
40.9361
39.6041
40.844
41.1617
41.2921
39.021
37.9162
38.1154
35.2355
35.292
36.2878
41.2994
40.7273
40.8472
38.3097
38.4971
39.5439
50.4199
49.1507
49.2467
48.4807
48.6016
50.136
41.7543
37.7812
37.6845
38.9044
38.7659
38.667
40.5216
40.4149
40.6008
40.6528
43.154
42.2864
36.006
35.202
35.1996
41.4399
40.5626
38.9146
50.344
46.4551
46.54
46.1766
46.4198
50.7599
37.8179
35.8615
36.176
49.0955
31.2798
31.7721
34.57
34.2133
38.0203
39.2567
36.8806
38.1675
40.2985
40.7174
38.2973
45.1995
45.5968
67.1488
37.6231
39.5514
39.9067
38.4548
38.3532
37.9399
39.9309
38.7436
38.9307
38.4435
38.6733
39.7902
41.1349
40.8935
40.212
42.721
41.4934
41.9128
41.0181
41.3444
42.4065
48.9943
51.3009
49.1916
42.0608
42.0613
41.2312
44.6431
42.8251
42.777
42.7121
42.8281
44.7004
47.084
46.4009
49.3708
44.0207
45.3398
45.4837
44.98
45.175
43.8575
41.4799
37.0105
36.9449
39.4795
39.625
42.0769
44.3098
44.168
36.4186
50.2878
47.6926
47.7247
46.5508
47.6565
50.3353
44.4105
42.4311
42.6522
42.0332
42.346
44.2663
40.7173