/*--------------------------------*- C++ -*----------------------------------*\
| =========                 |                                                 |
| \\      /  F ield         | OpenFOAM: The Open Source CFD Toolbox           |
|  \\    /   O peration     | Version:  v1912                                 |
|   \\  /    A nd           | Website:  www.openfoam.com                      |
|    \\/     M anipulation  |                                                 |
\*---------------------------------------------------------------------------*/
FoamFile
{
    version     2.0;
    format      ascii;
    class       volScalarField;
    location    "100";
    object      nut;
}
// * * * * * * * * * * * * * * * * * * * * * * * * * * * * * * * * * * * * * //

dimensions      [0 2 -1 0 0 0 0];


internalField   nonuniform List<scalar> 
12556
(
1.15562
1.15557
1.15553
1.15551
1.15589
1.15591
1.15591
1.15593
1.15597
1.15604
1.15616
1.1563
1.15641
1.15644
1.15637
1.15625
1.15613
1.15604
1.15597
1.15594
1.15554
1.15554
1.15558
1.15562
1.15486
1.15475
1.15465
1.15463
1.15491
1.15498
1.15504
1.15528
1.15539
1.1556
1.15594
1.15634
1.15666
1.15676
1.1566
1.15626
1.15591
1.15561
1.15525
1.15509
1.15471
1.15469
1.15477
1.15487
1.15407
1.15391
1.15376
1.15373
1.15396
1.15407
1.15421
1.15447
1.15479
1.15533
1.15613
1.15706
1.15774
1.15791
1.15753
1.15678
1.15596
1.15526
1.15467
1.15433
1.15391
1.15386
1.15396
1.15411
1.15326
1.15305
1.15287
1.15283
1.15303
1.1532
1.15344
1.15384
1.15453
1.15573
1.15547
0.931966
0.83436
0.844698
0.93887
1.10724
1.15676
1.15538
1.15437
1.15372
1.15317
1.15305
1.15315
1.15334
1.15245
1.15218
1.15197
1.15195
1.15214
1.15238
1.15279
1.15343
1.15482
1.13921
0.78922
0.576529
0.489223
0.512903
0.616729
0.782099
1.02605
1.1563
1.15446
1.15331
1.15251
1.15227
1.15234
1.15255
1.15163
1.15132
1.1511
1.15108
1.15129
1.15163
1.1523
1.15337
1.15583
0.879589
0.535573
0.322605
0.237723
0.274163
0.38441
0.545518
0.768408
1.08963
1.15509
1.15316
1.15194
1.15153
1.15153
1.15175
1.15081
1.15047
1.15024
1.15025
1.15049
1.15097
1.15199
1.15369
1.15734
0.728423
0.392982
0.16112
0.0824221
0.127814
0.240165
0.392763
0.598042
0.890289
1.15625
1.15332
1.15147
1.15081
1.15072
1.15093
1.15002
1.14965
1.14942
1.14947
1.14976
1.15042
1.15187
1.1543
1.15842
0.710647
0.395115
0.13872
0.0677273
0.172627
0.309811
0.497792
0.761098
1.15778
1.15376
1.1511
1.15015
1.14993
1.15011
1.14926
1.14887
1.14864
1.14874
1.1491
1.14997
1.1519
1.15507
1.16041
0.813001
0.600077
0.425851
0.0750995
0.160903
0.280632
0.452209
0.692174
1.10149
1.15443
1.15085
1.14954
1.14917
1.14931
1.14854
1.14813
1.14792
1.14807
1.14851
1.14961
1.15204
1.15587
1.1617
0.950187
0.869224
0.750435
0.102114
0.178047
0.288141
0.448285
0.671328
1.06693
1.15526
1.15072
1.14903
1.14848
1.14857
1.14786
1.14743
1.14724
1.14746
1.148
1.14934
1.15225
1.15664
1.1628
1.04785
0.950469
0.644139
0.14135
0.214985
0.322672
0.477627
0.689698
1.07277
1.15617
1.1507
1.14862
1.14789
1.14793
1.14722
1.14679
1.14662
1.1469
1.14755
1.14914
1.15248
1.15738
1.16378
1.10281
0.883462
0.509153
0.192409
0.272701
0.383984
0.539038
0.743961
1.11642
1.15708
1.15077
1.14832
1.14742
1.14741
1.14662
1.14618
1.14604
1.1464
1.14715
1.14899
1.15273
1.15808
1.16464
1.15861
0.887383
0.358701
0.0214154
0.272002
0.362874
0.481859
0.637709
0.835907
1.16449
1.15791
1.15089
1.14812
1.14706
1.14701
1.14605
1.1456
1.14549
1.14592
1.14681
1.14893
1.15308
1.15891
1.16534
1.15471
0.99261
0.142668
0.0423488
0.426725
0.518284
0.635751
0.78422
0.97137
1.16542
1.1586
1.15102
1.14798
1.1468
1.14671
1.14552
1.14506
1.14496
1.14546
1.14647
1.1488
1.15329
1.15948
1.16569
1.14931
0.90626
0.0457984
0.0755377
0.527953
0.805321
0.877027
0.992494
1.161
1.16603
1.15911
1.15112
1.14787
1.1466
1.14648
1.145
1.14453
1.14445
1.14501
1.14613
1.14866
1.15345
1.15994
1.16569
1.14026
0.802396
0.0372532
0.0880176
0.540437
0.861779
1.04961
1.13234
1.16192
1.16632
1.15944
1.15117
1.14777
1.14643
1.1463
1.1445
1.14402
1.14394
1.14455
1.14579
1.1485
1.15357
1.16029
1.16526
1.12648
0.69216
0.0355423
0.0981911
0.548671
0.867009
1.05109
1.13289
1.16223
1.16632
1.15957
1.15115
1.14765
1.14626
1.14613
1.14402
1.14352
1.14344
1.14408
1.14544
1.14832
1.15364
1.16051
1.16429
1.10711
0.584891
0.0361262
0.107443
0.552371
0.870683
1.05161
1.13277
1.1621
1.16609
1.15952
1.15104
1.14749
1.14609
1.14596
1.14356
1.14303
1.14293
1.14361
1.14506
1.14811
1.15366
1.16057
1.16259
1.08178
0.491197
0.0377096
0.116449
0.551883
0.873253
1.05153
1.13221
1.16162
1.16569
1.15932
1.15086
1.1473
1.14589
1.14577
1.1431
1.14256
1.14244
1.14314
1.14468
1.14788
1.15361
1.16046
1.15994
1.05076
0.420123
0.039681
0.125363
0.549697
0.874512
1.05095
1.1313
1.16086
1.16517
1.15903
1.15064
1.14708
1.14568
1.14555
1.14266
1.1421
1.14197
1.14268
1.14429
1.14763
1.1535
1.16018
1.15621
1.01437
0.369932
0.0417401
0.13402
0.547042
0.873559
1.04986
1.1301
1.15987
1.16454
1.15866
1.15039
1.14684
1.14544
1.14531
1.14222
1.14167
1.14152
1.14224
1.14391
1.14736
1.15332
1.15976
1.15137
0.972058
0.333075
0.0437978
0.142092
0.543651
0.869796
1.04811
1.12869
1.15873
1.16383
1.15825
1.15013
1.14659
1.14519
1.14505
1.1418
1.14125
1.14109
1.14183
1.14353
1.14708
1.15311
1.15929
1.14545
0.924996
0.305351
0.045889
0.149236
0.539085
0.863666
1.04548
1.12711
1.15752
1.16305
1.1578
1.14985
1.14634
1.14493
1.14477
1.14139
1.14085
1.14069
1.14145
1.14318
1.1468
1.15289
1.15886
1.13825
0.879486
0.284471
0.0480911
0.155209
0.533166
0.855935
1.04188
1.12542
1.15632
1.16221
1.15732
1.14958
1.14607
1.14465
1.14447
1.14098
1.14046
1.14031
1.14109
1.14285
1.14653
1.15273
1.15857
1.12939
0.840324
0.268815
0.0504775
0.159924
0.525986
0.847213
1.03749
1.12367
1.1552
1.16134
1.15682
1.1493
1.14581
1.14436
1.14415
1.14058
1.14008
1.13994
1.14075
1.14253
1.14627
1.15269
1.15846
1.11872
0.807895
0.2571
0.053115
0.163479
0.517855
0.838025
1.03264
1.12187
1.15419
1.16046
1.15629
1.14901
1.14554
1.14407
1.14382
1.14019
1.1397
1.13959
1.14042
1.14222
1.14604
1.15282
1.15848
1.10656
0.780825
0.248257
0.0560743
0.166132
0.509227
0.82889
1.02766
1.12004
1.15325
1.15958
1.15574
1.14871
1.14526
1.14376
1.14348
1.13979
1.13934
1.13925
1.14011
1.14191
1.14584
1.15314
1.15849
1.09341
0.757536
0.241386
0.0594341
0.168271
0.500634
0.820282
1.02279
1.11812
1.15232
1.15874
1.15516
1.14841
1.14498
1.14345
1.14313
1.13941
1.13898
1.13892
1.1398
1.14162
1.1457
1.15366
1.15823
1.07951
0.736575
0.235722
0.0632809
0.170371
0.492603
0.812535
1.01813
1.11607
1.15137
1.15794
1.15458
1.14809
1.14469
1.14314
1.14278
1.13902
1.13862
1.13859
1.13949
1.14133
1.14563
1.15433
1.15735
1.06473
0.716673
0.230619
0.067692
0.17292
0.485597
0.805775
1.01363
1.11386
1.15037
1.15718
1.154
1.14776
1.1444
1.14282
1.14242
1.13864
1.13827
1.13826
1.13919
1.14106
1.14566
1.15506
1.15539
1.04875
0.696809
0.225591
0.0727217
0.1764
0.479972
0.799888
1.00904
1.1114
1.14932
1.15647
1.15344
1.14743
1.14411
1.1425
1.14206
1.13827
1.13793
1.13794
1.13889
1.14083
1.14578
1.15572
1.15195
1.03131
0.676283
0.22034
0.0783917
0.181221
0.475941
0.79454
1.00399
1.10847
1.14813
1.1558
1.1529
1.14709
1.14381
1.14217
1.1417
1.1379
1.13759
1.13763
1.13861
1.14064
1.14601
1.15616
1.14681
1.01235
0.654774
0.214781
0.0846976
0.187671
0.473549
0.789247
0.997997
1.10471
1.14661
1.15515
1.1524
1.14676
1.1435
1.14184
1.14134
1.13753
1.13725
1.13731
1.13834
1.1405
1.14633
1.15623
1.13999
0.992155
0.632361
0.209054
0.091618
0.195908
0.472688
0.783478
0.990559
1.09963
1.14446
1.1545
1.15194
1.14643
1.1432
1.14152
1.14097
1.13719
1.13693
1.13702
1.13811
1.14043
1.14673
1.15587
1.13181
0.971333
0.609466
0.203468
0.099121
0.205924
0.473109
0.776765
0.981297
1.09284
1.14134
1.15377
1.15152
1.14612
1.14291
1.1412
1.14063
1.13688
1.13665
1.13678
1.13793
1.14044
1.1472
1.15508
1.12285
0.950763
0.586777
0.198406
0.107174
0.217543
0.474479
0.768831
0.970129
1.08424
1.13711
1.15292
1.15113
1.14588
1.14267
1.14093
1.14033
0.351583
0.0658663
0.0578657
0.762553
0.0920341
0.068804
0.658126
0.132893
0.0965802
0.52945
0.17574
0.138866
0.370385
0.0171678
0.0205134
0.244107
0.182547
0.177279
0.0278094
0.0176673
0.0400749
0.342179
0.250642
0.13392
0.0847008
0.0602861
0.119107
0.0336722
0.0244642
0.0727217
0.135309
0.144748
0.809639
0.86056
0.453135
0.0470488
0.0550343
0.0980078
0.150193
0.136771
0.95463
0.772485
0.850368
0.712007
0.213569
0.255577
0.06898
0.0535191
0.136076
0.183965
0.157117
0.895053
0.661756
0.76035
0.59951
0.0967845
0.16301
0.106519
0.085921
0.875878
0.506766
0.644563
0.463413
0.0251115
0.0440231
0.0129399
0.146536
0.136116
0.952937
0.292125
0.485095
0.287149
0.0178318
0.0207765
0.0838184
0.0405357
0.0291049
0.100347
0.288957
0.046607
0.0885105
0.0534345
0.0352794
0.059002
0.0368268
0.0524995
0.261694
0.31013
0.797773
0.22494
0.196132
0.291263
0.231504
0.0530662
0.0470472
0.0808119
0.061068
0.0670226
0.0538384
0.0610807
0.0791788
0.168693
0.20751
0.698762
0.149767
0.114975
0.193348
0.152766
0.0832708
0.0705454
0.116898
0.0925881
0.110509
0.0676383
0.0904684
0.111473
0.04613
0.0932998
0.583432
0.0696939
0.0341823
0.11272
0.072272
0.133182
0.109702
0.0208559
0.0246473
0.454241
0.0120961
0.020338
0.0187923
0.0329865
0.0205371
0.0119565
0.164078
0.157395
0.013154
0.00523711
0.0177819
0.278244
0.0228799
0.0159392
0.00942607
0.0187973
0.0159272
0.022171
0.533222
0.383061
0.165238
0.186227
0.100961
0.0559803
0.0127505
0.0109196
0.809973
0.31835
0.356992
0.0132271
0.181936
0.233256
0.194819
0.0116104
0.0399182
0.037891
0.0276782
0.183399
0.169337
0.294218
0.113205
0.213795
0.0412462
0.0167682
0.0291577
0.0281317
0.0351311
0.0577065
0.0364564
0.0267463
0.158036
0.137986
0.143895
0.113346
0.135262
0.153371
0.0137866
0.01146
0.0184724
0.0319798
0.0576637
0.0453198
0.0248884
0.0406467
0.0304594
0.0110874
0.0274863
0.0229868
0.012836
0.0204689
0.0259607
0.0567516
0.0574757
0.0604848
0.0595246
0.0185771
0.0138517
0.0974445
0.0184525
0.0251219
0.0135076
0.0175131
0.09455
0.0323369
0.190535
0.160659
0.0483909
0.0420806
0.0117259
0.0200606
0.083999
0.0743261
0.100313
0.08784
0.0202217
0.0534612
0.042328
0.151349
0.065589
0.0779276
0.0409645
0.0646894
0.172885
0.0567156
0.0312393
0.0198573
0.0685007
0.0343731
0.0626707
0.0320655
0.0642856
0.0440774
0.0433437
0.21604
0.028024
0.214707
0.261886
0.0329716
0.0396332
0.0284599
0.0322442
0.253503
0.0508646
0.0505882
0.0636157
0.075842
0.0708419
0.0835935
0.0780596
0.0639381
0.0648213
0.0628278
0.0575848
0.0690282
0.0642758
0.0665789
0.132797
0.130589
0.175026
0.17258
0.0826279
0.0134621
0.0810611
0.0530507
0.0503073
0.0919873
0.0894012
0.0261545
0.03501
0.119486
0.0257127
0.0193005
0.0229939
0.122322
0.105228
0.151921
0.129082
0.0231442
0.0135031
0.0202621
0.0202673
0.0263928
0.0257148
0.00758593
0.0152844
0.0565245
0.0505193
0.0717134
0.0583921
0.0116294
0.0082667
0.0161051
0.0138412
0.0185701
0.0101046
0.0133937
0.0106658
0.0184632
0.019165
0.0117894
0.0146063
0.00526805
0.014927
0.0140518
0.929881
0.223472
0.272323
0.116025
0.00897311
0.0057263
0.0719553
0.424345
0.389762
0.0069147
0.0137541
0.0128691
0.063985
0.0585044
0.0157254
0.19539
0.188048
0.0285222
0.0126806
0.0223336
0.0170589
0.0109818
0.0167024
0.0119046
0.0489791
0.0311024
0.0288272
0.0594944
0.0645161
0.0248201
0.0286672
0.0183357
0.017913
0.0554624
0.125342
0.350858
0.325407
0.382681
0.359058
0.131284
0.234454
0.201537
0.0335928
0.0182369
0.0317294
0.0302617
0.010492
0.0161036
0.033424
0.049626
0.0340943
0.0318702
0.0433095
0.0498361
0.0456093
0.0560386
0.0512696
0.044891
0.0519568
0.0200524
0.0186481
0.0482083
0.185096
0.412837
0.390323
0.0496679
0.0514062
0.121761
0.0296406
0.0318241
0.0749618
0.0997283
0.115149
0.10621
0.0741391
0.0917198
0.0856067
0.102732
0.0944219
0.0752143
0.0667366
0.277746
0.245731
0.316538
0.288145
0.0703909
0.0626099
0.0262135
0.0278545
0.0157649
0.0170127
0.0390582
0.104679
0.0447034
0.0490033
0.0283876
0.029782
0.0797731
0.122861
0.0364201
0.0514757
0.00759221
0.0125897
0.0201902
0.019187
0.0297805
0.0146107
0.0154624
0.0134118
0.0226445
0.0115038
0.00465214
0.0441617
0.0372525
0.0298943
0.0288603
0.0176386
0.0150879
0.014564
0.0250024
0.0156123
0.00871306
0.0175926
0.0163141
0.00335766
0.0187865
0.0166694
0.0153034
0.00751087
0.0138783
0.0128861
0.0129937
0.0165667
0.0153096
0.0076517
0.0379992
0.036866
0.0197183
0.0125767
0.00877755
0.0132424
0.0215504
0.0132065
0.0144261
0.0301244
0.0125659
0.0120873
0.0110609
0.0116395
0.015175
0.0109087
0.0105608
0.0117597
0.0110702
0.0102741
0.0129627
0.0120335
0.0144728
0.0133101
0.0106379
0.0178636
0.0255753
0.0222097
0.0330456
0.0272191
0.0214551
0.0192801
0.0155094
0.0258086
0.023434
0.051055
0.0589752
0.0281636
0.0264417
0.0230711
0.0240751
0.0634112
0.0160785
0.0173599
0.019146
0.0161246
0.0181204
0.0564093
0.0188634
0.0226502
0.0162691
0.0155847
0.0210748
0.0544866
0.0486032
0.0152857
0.0405455
0.0361976
0.0465239
0.0420242
0.0157765
0.0121576
0.018566
0.0170529
0.0348338
0.0323977
0.0186678
0.0205184
0.0375613
0.0355546
0.0482107
0.0464473
0.0677532
0.109971
0.146479
0.081845
0.101363
0.0685234
0.0533405
0.142086
0.123625
0.162703
0.148643
0.0590182
0.0474549
0.0606727
0.0748194
0.0433437
0.0496913
0.0420834
0.0385601
0.0484374
0.030909
0.0340291
0.0290728
0.0430006
0.0344498
0.0349188
0.0411319
0.0398151
0.0401031
0.0425697
0.0265844
0.0876113
0.0705142
0.0962269
0.0910747
0.0269808
0.0643517
0.0629245
0.0676819
0.0648493
0.0352825
0.112674
0.108157
0.120381
0.114304
0.0362745
0.0299783
0.101343
0.0975065
0.106722
0.102638
0.0304218
0.0223612
0.020564
0.0516484
0.0489692
0.0243331
0.0231303
0.0370841
0.0366308
0.0379731
0.0372184
0.0354466
0.0345203
0.0364481
0.0357335
0.0606533
0.0591791
0.0624794
0.0611213
0.0534121
0.0392365
0.0586461
0.0559249
0.0297173
0.0265245
0.0349197
0.0310637
0.0135655
0.0210073
0.0198219
0.0254695
0.0217305
0.0237955
0.0257072
0.0603593
0.0175553
0.0165756
0.0190415
0.0178972
0.0162368
0.0413743
0.0174232
0.0226828
0.0318128
0.0407605
0.101335
0.0286064
0.0230163
0.0341703
0.0315758
0.0207384
0.0194764
0.0225409
0.0211734
0.0822443
0.0301888
0.0312656
0.00833438
0.0228121
0.0122141
0.0128003
0.0122114
0.0219204
0.00757795
0.0127884
0.0105611
0.0108917
0.0201964
0.0197417
0.0137956
0.0143809
0.0288672
0.0235997
0.0134172
0.0136564
0.0114006
0.0174993
0.0284223
0.0238695
0.0110933
0.0104686
0.0153857
0.0090174
0.0113934
0.0152367
0.0187528
0.0069869
0.0121688
0.00861646
0.0117823
0.0167964
0.0700256
0.154008
0.207949
0.0116925
0.0114306
0.244215
0.311139
0.249278
0.00780341
0.015706
0.0118458
0.0126166
0.148737
0.165694
0.203463
0.00598802
0.00949044
0.00675825
0.00575624
0.00730672
0.00569515
0.0769214
0.0487246
0.0287269
0.0307987
0.0276573
0.0311844
0.231733
0.473311
0.450269
0.505249
0.481118
0.237564
0.0221348
0.0195317
0.0123462
0.0540155
0.0617052
0.143128
0.040473
0.0382648
0.020595
0.0326127
0.0378112
0.0382408
0.442698
0.420268
0.190589
0.141987
0.0553973
0.0577241
0.0600593
0.0741939
0.162226
0.021596
0.044455
0.0413347
0.0114012
0.0114992
0.0122488
0.0164451
0.0166835
0.0188017
0.0118113
0.011216
0.011298
0.0138561
0.0253118
0.0230196
0.0158913
0.0188075
0.0163038
0.0162621
0.0160898
0.0122821
0.0128236
0.0125017
0.012317
0.0115311
0.0167162
0.0181352
0.0419578
0.0399057
0.0444117
0.0411186
0.0302683
0.0318322
0.014888
0.0162577
0.0102311
0.00742023
0.00722097
0.0106366
0.0104287
0.0304103
0.0192271
0.0127251
0.0173601
0.0227514
0.0214128
0.0310102
0.032256
0.0178744
0.0140159
0.0144253
0.0108715
0.0128027
0.0145526
0.0616812
0.0563835
0.0220182
0.0138445
0.0187579
0.0178998
0.0118735
0.0129328
0.0127261
0.051925
0.0423329
0.0435003
0.0663384
0.0929328
0.0917807
0.0424209
0.0609716
0.0587584
0.0904868
0.088851
0.0634776
0.0454132
0.0550505
0.0439718
0.0341882
0.0389241
0.0310554
0.0467263
0.0487884
0.07004
0.0243308
0.0316679
0.0310931
0.0482932
0.0476423
0.0276076
0.0265698
0.0260618
0.0303606
0.029603
0.0337895
0.0547241
0.0540849
0.0578396
0.0573188
0.038441
0.0289337
0.0495822
0.0489319
0.0534249
0.052752
0.0315493
0.053781
0.0549809
0.139645
0.123977
0.0519386
0.0533608
0.0820247
0.0848125
0.182606
0.0239452
0.0237033
0.0257058
0.0253702
0.0212349
0.0234734
0.0232528
0.165011
0.0770155
0.0810682
0.0140071
0.0141973
0.0173006
0.0168318
0.0135335
0.0144585
0.01447
0.0764618
0.0328
0.0368314
0.0495134
0.0457225
0.0220988
0.0236097
0.0551287
0.0508754
0.0182398
0.0180997
0.0202364
0.0202312
0.018413
0.0183386
0.0108747
0.0154689
0.0182399
0.0152212
0.00606161
0.0123465
0.0158508
0.0117578
0.0126798
0.0164926
0.0166169
0.0186471
0.00983629
0.00661167
0.00928261
0.0110314
0.0182383
0.0162239
0.0163687
0.0128767
0.0138036
0.0140575
0.0118056
0.0117029
0.0124935
0.0126342
0.0143291
0.00804799
0.00573886
0.00984491
0.013432
0.0121209
0.012296
0.0118841
0.0120129
0.0131366
0.0126867
0.00853299
0.00634773
0.0272481
0.0278816
0.026047
0.0265881
0.0303203
0.0397378
0.0399485
0.0392547
0.0395228
0.029669
0.0178391
0.0295026
0.0294125
0.0303599
0.0297599
0.0175973
0.0335899
0.0415302
0.0434958
0.0401839
0.0405928
0.0327178
0.0196904
0.0295044
0.0295284
0.029377
0.0294166
0.0190855
0.024901
0.0254992
0.0256168
0.0249913
0.0267694
0.0367537
0.035846
0.0161778
0.0205986
0.0202152
0.0216054
0.0210613
0.016614
0.0109691
0.0105443
0.0110944
0.0110148
0.0150838
0.0151458
0.01499
0.0150265
0.0127334
0.0188938
0.0172061
0.017153
0.0148864
0.0191802
0.018876
0.0198608
0.0195218
0.0151725
0.0149382
0.01496
0.016188
0.0149122
0.0129478
0.00750046
0.0108022
0.011661
0.00745353
0.014882
0.0125625
0.00363549
0.0177057
0.0198981
0.0198163
0.0157787
0.00835735
0.00583662
0.00253641
0.0113423
0.0111965
0.0169291
0.0166467
0.0188043
0.0165254
0.00887567
0.00754793
0.0171259
0.0060457
0.0100936
0.00819886
0.00616298
0.00751562
0.0127515
0.0125623
0.0111012
0.012156
0.0119641
0.0389033
0.0337995
0.0110045
0.0128502
0.0144602
0.0205425
0.0235949
0.0158139
0.0195979
0.0160409
0.0123208
0.00800838
0.0121681
0.0107464
0.00751432
0.0103311
0.0106283
0.0115051
0.0106439
0.0108967
0.0103901
0.0104616
0.0112721
0.0111968
0.0109128
0.0100117
0.0109041
0.0117781
0.0114874
0.0288897
0.0246906
0.0188321
0.0308335
0.0338737
0.0391341
0.0283506
0.0252738
0.0253036
0.0360425
0.0373292
0.0285131
0.033282
0.0246869
0.0275952
0.0386928
0.0389776
0.0379661
0.0383598
0.0269653
0.023353
0.0356438
0.0351939
0.0163955
0.0167975
0.0179426
0.0160064
0.015824
0.0168018
0.0184178
0.0183422
0.0203149
0.0326601
0.0313931
0.0346399
0.0338187
0.0218312
0.0129685
0.0134613
0.0170785
0.00967371
0.0123681
0.0124025
0.0150635
0.0126986
0.0126885
0.0207899
0.0197891
0.0145321
0.0500659
0.0448045
0.0754535
0.0659686
0.0436087
0.0618881
0.086519
0.0825505
0.0430579
0.0389748
0.0383674
0.02744
0.0338913
0.0586311
0.0506549
0.049251
0.0416562
0.047959
0.0461293
0.0468762
0.0490693
0.0406992
0.0318984
0.0332394
0.0407325
0.0359835
0.0350036
0.0341664
0.0372463
0.0370918
0.0358041
0.0339912
0.0315801
0.0366193
0.0435953
0.0390204
0.0259879
0.0272937
0.0469316
0.0458518
0.0276664
0.0271069
0.0289095
0.028266
0.0558143
0.0552756
0.0344805
0.037336
0.0568567
0.0563564
0.0508879
0.0502454
0.0294579
0.0309138
0.0520911
0.051483
0.0217124
0.0296543
0.0296431
0.0295796
0.0296498
0.0212601
0.0241965
0.0285525
0.0270911
0.0295348
0.029244
0.0236249
0.0369403
0.0240651
0.0244614
0.0234117
0.0237287
0.0367944
0.0375403
0.0258868
0.026378
0.0248977
0.0253681
0.0373524
0.0351456
0.0216788
0.0219548
0.0212105
0.0214311
0.0348377
0.0362429
0.0228289
0.0231131
0.0222348
0.0225253
0.0360004
0.0244689
0.0242
0.0601718
0.0407246
0.0410131
0.0401303
0.0404296
0.0596809
0.0250524
0.0247524
0.02261
0.0222886
0.0486383
0.0330503
0.0366163
0.026848
0.0272106
0.0423978
0.0580403
0.0394718
0.0398167
0.0382938
0.0390363
0.057238
0.023043
0.022836
0.0146229
0.0141094
0.0136469
0.0162725
0.0154067
0.0205671
0.0147615
0.0145029
0.0154349
0.0150579
0.0202251
0.0241856
0.0162202
0.0173011
0.0145978
0.0152136
0.0228408
0.0245678
0.0329125
0.0316611
0.0349317
0.0339815
0.0251786
0.0172339
0.0169127
0.0186336
0.0182263
0.0158823
0.0151835
0.0178287
0.0242738
0.0225317
0.0299474
0.0273662
0.0207675
0.0238311
0.0191255
0.0200188
0.0234704
0.0337291
0.0207793
0.0209967
0.0203251
0.0205595
0.0330313
0.0203175
0.0198993
0.0220715
0.0216184
0.0122619
0.0142105
0.0138612
0.0152589
0.0146922
0.0124645
0.0126511
0.0123936
0.0135246
0.0130631
0.00880553
0.0107336
0.0113199
0.0112122
0.0116337
0.0114656
0.0107758
0.0155073
0.0156233
0.0152571
0.0153809
0.0179933
0.0183404
0.0200927
0.0159229
0.0158616
0.0157338
0.015834
0.0139831
0.0180763
0.0178569
0.0185911
0.0183272
0.0141748
0.0134454
0.0172526
0.0169051
0.0176581
0.0174697
0.0135403
0.011331
0.0196677
0.0192907
0.0170183
0.011126
0.0083644
0.00823386
0.00569408
0.00819117
0.0107717
0.0146612
0.0106479
0.0118471
0.0114578
0.0187071
0.0167292
0.016832
0.00954206
0.00933184
0.00895549
0.0110709
0.010683
0.00600113
0.00627007
0.0113997
0.00963276
0.010693
0.0122784
0.0155455
0.017749
1.15466
1.15484
1.15535
1.15491
1.15522
1.15553
1.15535
1.15583
1.15583
1.156
1.15658
1.15622
1.15677
1.15725
1.15659
1.15736
1.15753
1.15676
1.15752
1.15732
1.15667
1.1572
1.15674
1.15637
1.15657
1.15605
1.15601
1.15589
1.15545
1.15569
1.15398
1.15438
1.1547
1.15455
1.15524
1.15517
1.15554
1.1566
1.15591
1.15698
1.07965
1.15684
1.03553
0.947436
1.15762
0.933028
0.928652
1.15793
0.938846
1.00047
1.15767
1.03034
1.14749
1.15698
1.15782
1.1568
1.15615
1.15646
1.15555
1.15542
1.1535
1.15432
1.15432
1.15468
1.15614
1.15537
1.15672
0.948274
1.15698
0.871597
0.696908
0.976227
0.655553
0.578039
0.847558
0.566997
0.573692
0.833355
0.587627
0.657136
0.908396
0.688451
0.808148
1.05895
0.855894
1.0349
1.15716
1.10356
1.15647
1.15569
1.15335
1.15483
1.15439
1.15551
1.04444
1.15651
0.932747
0.660229
0.864239
0.587913
0.418566
0.617479
0.377187
0.300922
0.499807
0.291699
0.30744
0.498058
0.324577
0.401828
0.584964
0.433839
0.550974
0.734214
0.596658
0.759622
0.957449
0.824032
1.0539
1.15685
1.15358
1.15596
1.15506
1.15694
0.860909
0.989936
0.754309
0.491491
0.607159
0.417819
0.236895
0.364484
0.194188
0.101519
0.246699
0.099553
0.137175
0.256073
0.157425
0.236465
0.352173
0.268692
0.380796
0.500385
0.423806
0.57444
0.705579
0.633517
0.843412
0.993553
1.15413
1.15739
1.1563
1.15626
0.801283
0.833651
0.701933
0.449695
0.467357
0.377257
0.162175
0.208832
0.145039
0.083558
0.13236
0.0401159
0.0506521
0.0893909
0.0957795
0.129709
0.153655
0.183146
0.285317
0.350392
0.324926
0.463402
0.540471
0.517385
0.709186
0.802263
1.15487
1.15881
1.15775
1.16006
0.86188
0.806374
0.779901
0.585333
0.46682
0.426347
0.359919
0.332336
0.148699
0.122811
0.112563
0.0661349
0.095785
0.102914
0.160352
0.24859
0.271303
0.283899
0.409779
0.445046
0.459213
0.635892
0.684628
1.15567
1.16008
1.15915
1.1614
0.98392
0.88963
0.917844
0.815939
0.641015
0.671012
0.647537
0.555944
0.519906
0.542459
0.413568
0.0845556
0.106312
0.100923
0.171797
0.25127
0.246259
0.28351
0.39983
0.403715
0.445896
0.610929
0.625073
1.15645
1.1612
1.16037
1.16254
1.10099
1.01535
1.02854
0.95205
0.865975
0.915039
0.953434
0.903463
0.737882
0.560299
0.584823
0.115717
0.134612
0.123064
0.203945
0.280739
0.256348
0.311643
0.423175
0.402791
0.467293
0.624411
0.611052
1.1572
1.1622
1.16146
1.16355
1.16278
1.1244
1.09001
0.931815
0.956546
0.935089
0.940604
0.968047
0.629754
0.436274
0.460388
0.157702
0.17873
0.160294
0.255733
0.33457
0.29181
0.36565
0.476851
0.433667
0.520319
0.672019
0.633906
1.1579
1.16312
1.16244
1.16444
1.16301
1.16289
1.1564
0.93362
0.923469
0.864017
0.834438
0.847421
0.48812
0.273565
0.308662
0.209301
0.228441
0.21133
0.335842
0.420509
0.352509
0.452887
0.565694
0.495426
0.608776
0.754875
0.6905
1.15874
1.16402
1.16334
1.16519
1.16181
1.16298
1.15563
1.02501
0.945805
0.902509
0.825228
0.832242
0.326221
0.131389
0.14975
0.0242574
0.0725048
0.0658283
0.372748
0.444512
0.337616
0.470911
0.558345
0.448965
0.590325
0.700911
0.594506
0.742098
0.878664
0.783183
1.15935
1.16463
1.1642
1.16564
1.15987
1.16147
1.15096
1.04028
1.07268
0.973715
0.805611
0.795411
0.136337
0.050536
0.057647
0.0489755
0.210639
0.199049
0.523948
0.698563
0.492821
0.71457
0.780902
0.604438
0.806509
0.899164
0.743526
0.934269
1.05046
0.918396
1.15984
1.165
1.16475
1.16572
1.15614
1.15913
1.14293
0.980518
1.02701
0.829608
0.127707
0.188346
0.0383774
0.0492384
0.0409973
0.0852503
0.436795
0.428065
0.537748
0.79072
0.782873
0.860107
1.0142
0.854379
1.04902
1.11795
0.959915
1.13207
1.15741
1.10803
1.16022
1.1651
1.16505
1.16541
1.15001
1.15486
1.13043
0.905797
0.963085
0.71974
0.093542
0.116057
0.035672
0.0591028
0.0518206
0.0958589
0.443123
0.438969
0.54697
0.798143
0.792832
0.865872
1.01657
1.01496
1.05083
1.11886
1.11828
1.13283
1.1579
1.15759
1.16047
1.1649
1.16508
1.16459
1.14076
1.14802
1.11253
0.821947
0.885558
0.611289
0.0780335
0.0886329
0.0358488
0.0677379
0.061364
0.105229
0.444287
0.443787
0.55188
0.803496
0.799625
0.869861
1.01774
1.01695
1.05155
1.11896
1.11895
1.13285
1.15786
1.15794
1.16057
1.1643
1.16479
1.16309
1.12773
1.13788
1.08871
0.733376
0.800284
0.512926
0.069872
0.0755097
0.0372562
0.0753695
0.0697211
0.11424
0.44361
0.444148
0.552226
0.80738
0.804584
0.872692
1.01816
1.0179
1.0516
1.11854
1.1189
1.13239
1.15743
1.15779
1.16051
1.16317
1.16407
1.16069
1.11059
1.12385
1.05908
0.644252
0.710829
0.435862
0.065563
0.0685283
0.0391712
0.082296
0.0771466
0.12316
0.443255
0.443462
0.550262
0.809364
0.808077
0.874343
1.01801
1.01818
1.05114
1.11772
1.11837
1.13155
1.15669
1.15727
1.16026
1.16142
1.16279
1.15724
1.08939
1.10568
1.02406
0.567474
0.623607
0.381181
0.0635449
0.0649008
0.0412272
0.0887874
0.0839417
0.131892
0.443003
0.443199
0.54773
0.808314
0.809398
0.874039
1.01725
1.01788
1.05019
1.11658
1.11746
1.13042
1.15569
1.15646
1.15987
1.15901
1.16087
1.15268
1.06417
1.0835
0.983305
0.50965
0.55144
0.341477
0.0629782
0.0633069
0.0432887
0.0949879
0.0903515
0.140138
0.44213
0.44286
0.544589
0.804116
0.807513
0.870979
1.01562
1.01694
1.04862
1.11515
1.11625
1.12906
1.15451
1.15541
1.1594
1.15597
1.1583
1.14703
1.03425
1.0572
0.936974
0.466865
0.497904
0.311687
0.0633793
0.0630169
0.0453665
0.100897
0.0964834
0.147546
0.440117
0.441751
0.54037
0.797695
0.802674
0.865378
1.01277
1.01503
1.04623
1.11347
1.11475
1.12752
1.15324
1.1542
1.15895
1.15233
1.15512
1.14018
0.999811
1.026
0.890412
0.434399
0.458009
0.289227
0.0644833
0.0636103
0.0475328
0.106428
0.102309
0.153839
0.43672
0.439422
0.534818
0.789798
0.795843
0.857997
1.00857
1.01184
1.04287
1.11154
1.11301
1.12585
1.15197
1.15292
1.15862
1.14794
1.15131
1.13176
0.96447
0.99089
0.849461
0.409477
0.427604
0.272359
0.0661684
0.064865
0.0498642
0.111485
0.107733
0.158885
0.431937
0.435688
0.527957
0.780858
0.787664
0.849486
1.00327
1.00733
1.03865
1.10941
1.11103
1.1241
1.15078
1.15166
1.15845
1.14254
1.14668
1.12152
0.931977
0.955987
0.815418
0.390205
0.404221
0.259733
0.0683975
0.0666832
0.0524284
0.116035
0.112666
0.162729
0.425976
0.430602
0.520048
0.771281
0.778536
0.840374
0.997333
1.00184
1.03388
1.10714
1.10885
1.12232
1.14969
1.15049
1.15844
1.13597
1.14099
1.10967
0.903499
0.924465
0.787137
0.375089
0.386092
0.250238
0.0711813
0.0690446
0.0552942
0.120153
0.117102
0.165591
0.419205
0.424415
0.511511
0.761552
0.768881
0.831181
0.991206
0.995809
1.0289
1.10478
1.10655
1.12049
1.14867
1.14942
1.15846
1.12824
1.13411
1.09673
0.878511
0.89693
0.763035
0.362861
0.37179
0.242934
0.0745282
0.0719629
0.0585375
0.124016
0.12114
0.167824
0.412101
0.417526
0.502865
0.752189
0.7592
0.822399
0.985251
0.989694
1.02398
1.10234
1.10417
1.11859
1.14765
1.14841
1.1583
1.11938
1.1261
1.08301
0.855932
0.872647
0.741622
0.35242
0.360094
0.237025
0.0784459
0.0754451
0.062244
0.127903
0.124981
0.169887
0.40519
0.410427
0.494646
0.74363
0.75
0.814406
0.97967
0.983816
1.01927
1.09981
1.10171
1.11658
1.14657
1.14738
1.15761
1.1093
1.11695
1.06849
0.834608
0.850491
0.721578
0.342816
0.349943
0.231836
0.0829139
0.0794966
0.0664948
0.132129
0.12892
0.17227
0.398987
0.403645
0.487335
0.73615
0.741685
0.807388
0.974467
0.978331
1.01473
1.09714
1.09915
1.11442
1.14541
1.14628
1.15596
1.09773
1.10653
1.05286
0.813523
0.829326
0.70181
0.333265
0.340423
0.226834
0.0878681
0.0840856
0.071352
0.137017
0.133272
0.175454
0.393965
0.39769
0.481321
0.729807
0.734484
0.801293
0.96945
0.973196
1.01019
1.09424
1.09643
1.11203
1.14417
1.1451
1.15294
1.08442
1.09455
1.03583
0.79193
0.808193
0.681532
0.323206
0.330802
0.221672
0.0932194
0.0891405
0.0768459
0.142883
0.138365
0.179877
0.390509
0.393015
0.476858
0.724428
0.728396
0.795844
0.964252
0.968172
1.00531
1.09089
1.09345
1.10925
1.14275
1.14382
1.14825
1.06928
1.08081
1.01727
0.76944
0.786425
0.660318
0.312346
0.320577
0.216207
0.098852
0.0945671
0.082978
0.149961
0.144499
0.185862
0.388879
0.389979
0.474035
0.719647
0.723198
0.790587
0.958383
0.962859
0.999611
1.08673
1.08994
1.10575
1.14096
1.14234
1.14184
1.05251
1.06525
0.997364
0.746063
0.763725
0.638142
0.300705
0.309529
0.210518
0.104642
0.100245
0.0897322
0.158399
0.151885
0.193602
0.389185
0.388808
0.472784
0.714989
0.71849
0.784993
0.951319
0.956749
0.992599
1.08129
1.08552
1.10106
1.13843
1.1404
1.13397
1.03464
1.04816
0.976646
0.722176
0.7402
0.615342
0.288589
0.297752
0.204879
0.110481
0.106052
0.0970783
0.168245
0.160652
0.203139
0.391365
0.38957
0.47289
0.709964
0.713785
0.778568
0.942621
0.949326
0.983844
1.07412
1.07969
1.09475
1.13479
1.13764
1.12515
1.01647
1.03014
0.955926
0.698449
0.716301
0.592544
0.276513
0.28561
0.199662
0.116297
0.111888
0.104983
0.179408
0.170816
0.214337
0.395193
0.392164
0.474037
0.70419
0.708609
0.770973
0.932088
0.940196
0.973169
1.06505
1.07207
1.08661
1.12982
1.13369
1.11653
0.999869
1.01206
0.93713
0.6766
0.692756
0.571291
0.265265
0.273647
0.195287
0.122009
0.117692
0.113312
0.191451
0.182256
0.226643
0.400113
0.396332
0.475766
0.697842
0.702622
0.762651
0.920762
0.92924
0.961719
1.05519
1.06256
1.07767
1.12412
1.12839
0.328164
0.265016
0.293319
0.0632396
0.0548472
0.0590788
0.0482471
0.0474153
0.0568336
0.593394
0.622644
0.774233
0.0881265
0.0809136
0.0859757
0.0607706
0.0665242
0.0707676
0.468176
0.491138
0.671845
0.127587
0.121414
0.127111
0.0882162
0.0939431
0.101288
0.320263
0.35311
0.54856
0.169775
0.164775
0.169351
0.13323
0.139338
0.143855
0.156737
0.180286