/*--------------------------------*- C++ -*----------------------------------*\
| =========                 |                                                 |
| \\      /  F ield         | OpenFOAM: The Open Source CFD Toolbox           |
|  \\    /   O peration     | Version:  v1912                                 |
|   \\  /    A nd           | Website:  www.openfoam.com                      |
|    \\/     M anipulation  |                                                 |
\*---------------------------------------------------------------------------*/
FoamFile
{
    version     2.0;
    format      ascii;
    class       volScalarField;
    location    "100";
    object      omega;
}
// * * * * * * * * * * * * * * * * * * * * * * * * * * * * * * * * * * * * * //

dimensions      [0 0 -1 0 0 0 0];


internalField   nonuniform List<scalar> 
12556
(
31.8693
31.8706
31.8719
31.8738
31.9376
31.9385
31.9388
31.9395
31.9409
31.9436
31.9479
31.9531
31.9574
31.9584
31.9559
31.9514
31.9468
31.9434
31.941
31.9395
31.8746
31.8722
31.8706
31.869
31.7347
31.7377
31.7407
31.7446
31.8049
31.8086
31.8109
31.8435
31.8475
31.855
31.8667
31.8809
31.8925
31.8959
31.8897
31.8777
31.8651
31.8551
31.8177
31.8121
31.747
31.7417
31.7381
31.7346
31.6014
31.6062
31.6107
31.6161
31.6739
31.6801
31.6854
31.7183
31.7283
31.7462
31.7735
31.8055
31.8302
31.8365
31.8229
31.7966
31.7684
31.7451
31.6998
31.6882
31.6221
31.6139
31.608
31.6027
31.4702
31.4764
31.4821
31.489
31.5438
31.5527
31.562
31.5988
31.6206
31.6599
31.7187
31.7862
31.8364
31.8424
31.8075
31.753
31.6966
31.6496
31.5917
31.5702
31.5005
31.4885
31.4802
31.4729
31.3407
31.3481
31.3551
31.3633
31.4165
31.4282
31.4427
31.4855
31.5302
31.6107
31.7422
31.9258
32.0691
32.0536
31.9286
31.7864
31.6684
31.5818
31.4976
31.4595
31.3826
31.3655
31.3542
31.3449
31.2128
31.2214
31.2294
31.2391
31.2912
31.3068
31.3293
31.3841
31.4626
31.6137
31.9454
32.6157
33.3376
33.0562
32.4329
31.9938
31.7184
31.5495
31.4218
31.3581
31.2684
31.2446
31.2298
31.2182
31.0867
31.0964
31.1056
31.1167
31.168
31.1881
31.2216
31.2944
31.4179
31.6954
32.5016
35.7466
40.7206
38.1334
34.0218
32.5434
31.8931
31.5648
31.3661
31.2667
31.1582
31.1258
31.1066
31.0926
30.9626
30.9735
30.9839
30.9968
31.0479
31.0736
31.12
31.214
31.385
31.8262
33.3258
42.3892
59.0696
37.9548
33.6071
32.2252
31.638
31.3285
31.1853
31.0519
31.0092
30.9846
30.968
30.8406
30.8528
30.8646
30.8796
30.931
30.963
31.0236
31.1396
31.3551
31.9367
33.89
48.3959
101.685
43.6377
35.0947
32.6893
31.7614
31.305
31.1117
30.9495
30.895
30.8646
30.8451
30.7211
30.7345
30.7479
30.7651
30.8174
30.8561
30.9311
31.0674
31.3227
32.0085
34.3245
54.9817
123.357
48.3312
36.5748
33.1883
31.9079
31.2894
31.0437
30.8512
30.7842
30.7473
30.7248
30.6043
30.6189
30.6338
30.6533
30.707
30.7525
30.8411
30.9955
31.2883
32.0658
34.9119
63.7049
124.747
51.0934
37.722
33.6235
32.0462
31.2745
30.979
30.7564
30.6771
30.6336
30.6077
30.49
30.5056
30.5221
30.544
30.5995
30.6516
30.7527
30.9238
31.2545
32.1302
35.7122
80.0336
116.947
52.1699
38.4278
33.9363
32.1508
31.2533
30.9148
30.6644
30.5735
30.5236
30.4944
30.378
30.395
30.4132
30.4375
30.494
30.5524
30.6647
30.8522
31.222
32.2146
36.7674
112.33
1675.44
100.211
52.1813
38.7485
34.1145
32.2083
31.221
30.8485
30.574
30.4729
30.417
30.3847
30.2682
30.2863
30.306
30.3324
30.392
30.4576
30.5809
30.7883
31.2087
32.4009
39.1394
264.746
925.908
95.489
51.7138
38.8047
34.1821
32.218
31.1762
30.7778
30.484
30.3742
30.313
30.2776
30.1599
30.1791
30.2003
30.2287
30.2903
30.3611
30.493
30.7167
31.1768
32.5669
42.7924
718.67
559.754
90.6385
50.919
38.6979
34.1698
32.1881
31.118
30.7018
30.393
30.2763
30.2104
30.1722
30.0527
30.073
30.0957
30.1258
30.1895
30.2648
30.4044
30.6441
31.1444
32.8023
47.9619
848.01
482.252
86.7599
50.1111
38.5226
34.1054
32.1265
31.0469
30.62
30.3
30.1781
30.1079
30.0675
29.946
29.9674
29.9917
30.0235
30.0893
30.1685
30.3152
30.5705
31.1148
33.1494
54.9995
863.026
426.318
83.7757
49.3782
38.3189
34.0116
32.0452
30.9651
30.5319
30.2044
30.0786
30.0046
29.9623
29.8396
29.8621
29.888
29.9214
29.9894
30.072
30.2256
30.496
31.0923
33.648
64.1915
836.024
382.468
81.7061
48.7382
38.1132
33.8995
31.9508
30.8743
30.4377
30.1053
29.9767
29.9004
29.8561
29.7331
29.7566
29.7841
29.8194
29.8896
29.9755
30.1358
30.4206
31.0815
34.3265
75.1602
791.344
346.165
80.4183
48.1862
37.9146
33.7766
31.8471
30.7778
30.3394
30.0031
29.8724
29.7939
29.7486
29.6264
29.6507
29.6798
29.7172
29.7898
29.879
30.0459
30.344
31.0863
35.2009
86.194
738.398
315.513
79.4894
47.729
37.7252
33.6466
31.7363
30.6774
30.2376
29.8982
29.7658
29.6855
29.6394
29.5193
29.5442
29.5749
29.6144
29.6899
29.7824
29.9556
30.266
31.1095
36.2922
95.8668
682.331
289.732
78.7034
47.4035
37.546
33.5117
31.6198
30.574
30.133
29.7907
29.6568
29.5752
29.5287
29.4119
29.4372
29.4694
29.511
29.5894
29.6854
29.8645
30.1868
31.1534
37.6683
104.197
627.114
268.382
78.065
47.2292
37.3835
33.3746
31.4987
30.4681
30.026
29.6811
29.5459
29.4633
29.4166
29.3041
29.3297
29.363
29.4068
29.488
29.5877
29.7721
30.1071
31.2217
39.3506
111.23
575.78
251.03
77.6082
47.1743
37.2491
33.2396
31.375
30.36
29.917
29.5697
29.4333
29.3499
29.3032
29.1962
29.2218
29.2562
29.3018
29.3857
29.4889
29.6782
30.0287
31.3253
41.1286
116.94
530.104
237.172
77.3408
47.1958
37.1503
33.1122
31.2516
30.2499
29.8062
29.4569
29.3194
29.2354
29.1889
29.0883
29.1137
29.1489
29.1963
29.2823
29.3888
29.5828
29.9545
31.4815
42.7723
121.388
490.626
226.258
77.2436
47.2644
37.0865
32.9978
31.1317
30.1381
29.6938
29.343
29.2046
29.1201
29.0738
28.9804
29.0056
29.0414
29.0902
29.178
29.2873
29.4868
29.889
31.7014
44.2083
124.742
457.032
217.741
77.2796
47.3596
37.0522
32.9004
31.0186
30.0253
29.5802
29.2284
29.0892
29.0042
28.9582
28.8726
28.8976
28.9338
28.9839
29.0729
29.1848
29.3916
29.8384
31.981
45.4543
127.253
428.563
211.095
77.4021
47.4636
37.0411
32.8222
30.9146
29.9122
29.4655
29.1133
28.9734
28.8881
28.8424
28.7652
28.7897
28.8263
28.8774
28.9671
29.0814
29.2996
29.8097
32.3095
46.5577
129.223
404.294
205.828
77.5638
47.5626
37.0486
32.7639
30.8208
29.7997
29.3503
28.9979
28.8574
28.7718
28.7264
28.6581
28.6822
28.7191
28.771
28.8609
28.9779
29.2133
29.8109
32.6803
47.5764
130.976
383.329
201.492
77.7233
47.6504
37.0735
32.7256
30.7376
29.6887
29.2348
28.8824
28.7414
28.6556
28.6105
28.5514
28.5752
28.6121
28.6647
28.7545
28.8748
29.1362
29.8492
33.094
48.5716
132.826
364.831
197.656
77.8502
47.7308
37.1184
32.7077
30.6654
29.5799
29.1195
28.7671
28.6256
28.5395
28.4948
28.4453
28.4686
28.5057
28.5586
28.6482
28.7731
29.0721
29.9304
33.5546
49.602
135.058
348.061
193.926
77.927
47.8155
37.189
32.7125
30.6056
29.4741
29.0049
28.652
28.5101
28.4239
28.3794
28.3397
28.3627
28.3997
28.4529
28.5424
28.6738
29.0246
30.056
34.0641
50.7167
137.907
332.384
189.955
77.9461
47.9204
37.2924
32.7447
30.561
29.3718
28.8915
28.5374
28.3951
28.3086
28.2644
28.2348
28.2574
28.2943
28.3477
28.4372
28.5783
28.9967
30.2217
34.6181
51.9488
141.518
317.305
185.45
77.9064
48.0608
37.4356
32.8102
30.5362
29.2739
28.7795
28.4234
28.2806
28.1939
28.15
28.1306
28.1527
28.1896
28.2432
28.3333
28.4878
28.9894
30.4169
35.2038
53.3097
145.928
302.485
180.227
77.8093
48.2484
37.6236
32.9133
30.5349
29.1811
28.6694
28.3103
28.1667
28.0798
28.036
28.0275
28.0492
28.086
28.1398
28.2309
28.4036
29.0019
30.6256
35.8002
54.7877
151.051
287.734
174.225
77.6574
48.4897
37.8564
33.0531
30.5583
29.0945
28.5616
28.1983
28.0539
27.9668
27.9231
27.9295
27.9509
27.9875
28.0415
28.1313
28.3273
29.0308
30.8297
36.38
56.3462
156.667
273.034
167.514
77.4534
48.7847
38.1264
33.2205
30.6023
29.015
28.4568
28.0928
27.9475
27.86
27.8165
47.7488
116.261
65.685
54.1258
150.025
122.735
62.4079
149.867
151.368
77.021
138.434
148.783
108.936
2109.52
1743.54
125.201
136.742
216.864
1456.77
2051.79
968.524
124.058
123.163
41.2905
40.2154
59.7461
38.1727
419.416
133.406
96.9678
46.7707
40.4573
34.2063
47.2691
43.3908
1114.71
875.905
121.997
53.9433
48.8378
34.7472
52.5925
47.8423
57.8646
200.605
170.394
724.355
945.628
125.265
57.9414
55.23
35.489
61.1967
53.4084
68.253
415.304
256.529
469.444
577.084
36.4604
79.5216
62.8116
87.6698
1508.58
847.698
3028.06
308.805
369.563
38.5377
134.485
82.9408
138.525
2186.92
1998.93
416.688
1125.74
1400.94
110.503
150.472
71.4806
106.309
862.71
448.097
94.4825
333.602
673.09
166.806
142.959
51.7492
199.346
223.114
156.724
194.263
955.55
1111.82
136.174
863.31
768.11
688.852
864.558
134.753
248.664
205.963
58.9222
284.71
360.909
225.972
279.568
595.02
708.204
152.402
551.433
461.211
760.059
564.746
152.71
811.736
429.291
70.0688
562.444
1058.25
367.289
544.814
378.919
456.429
2000.38
1546.4
89.3915
3483.31
1976.28
2540.12
1093.74
1927.78
3621.97
298.993
301.903
2922.87
8812.3
2165.39
142.633
1663.34
2715.41
7407.69
2531.66
2721.17
1706.08
33.778
42.9722
39.2206
45.1658
86.4533
62.991
1500.13
534.498
50.9542
139.536
115.189
3312.01
118.204
59.351
58.4955
4282.74
1046.42
1105.2
1327.68
272.022
290.795
111.105
89.1429
45.8912
1201.82
152.73
447.42
110.316
300.792
86.9863
1143.23
1504.21
143.286
368.456
310.373
449.701
377.564
144.787
2679.87
3781.42
1932.51
56.9041
48.676
66.9254
110.816
58.0882
58.5529
1591.25
282.592
1407.59
369.573
1268.44
238.796
942.914
932.538
829.32
843.496
2168.87
3101.71
511.233
2232.02
1634.31
3266.66
2359.76
526.273
1137.83
213.014
251.393
884.78
999.72
4078.2
1942.26
454.002
499.185
391.194
437.742
1940.63
981.132
1180.37
123.642
763.003
658.205
1154.41
769.682
129.2
87.2925
295.54
118.992
575.914
334.185
92.391
506.611
815.92
677.498
652.927
205.298
1504.78
206.198
173.484
1352.84
1184.17
1490.23
1373.99
178.818
1011.45
1019.2
819.507
286.93
281.189
288.007
287.866
814.037
763.647
257.379
234.524
278.012
263.659
773.49
317.33
322.122
247.012
250.145
604.914
3293.52
616.62
713.161
747.193
440.768
452.057
1572.27
1203.85
420.61
1561.27
2080.16
1712.89
326.568
374.94
265.374
310.326
1696.12
2761.1
2124
2137.85
1371.37
1413.32
4506.84
2337.73
769.247
851.789
512.35
600.464
3334.65
5292.37
2361.25
2856.71
2429.05
4659.38
2980.54
4362.49
2422.06
1866.37
3604.93
2710.7
1623.6
2556.15
2836.57
41.7606
169.912
143.493
316.152
4695.72
8414.88
584.096
115.667
121.625
906.96
2951.74
3369.37
684.13
745.13
2264.09
254.889
266.693
1293.3
108.447
77.6603
135.486
358.851
102.145
115.862
1080.42
1767.43
1884.87
904.361
775.001
1841.57
1597.48
2620.39
2647.21
908.345
327.727
118.583
127.31
109.28
116.028
313.829
174.189
201.682
1094.79
2208.29
1050.29
1077
6471
2879.27
1340.83
790.46
1632.5
1731.19
472.227
184.775
151.369
225.59
195.592
500.765
981.914
2444.93
2590.99
1077.69
228.564
101.758
107.266
786.523
765.795
342.896
1544.43
1433.41
666.489
511.343
260.104
269.954
688.407
282.787
287.246
272.976
280.703
678.006
580.505
147.993
166.454
130.678
142.878
553.141
617.333
1366.2
1301.46
2278.96
2097.56
936.956
392.35
861.013
794.89
1282.28
1237
499.649
409.525
1162.18
863.549
4762.7
3137.04
2058.79
2424.84
1206.7
2494.14
2329.63
2994.84
1661.45
4195.88
9504.3
767.083
875.521
1082.26
1096.54
2100.44
2629.03
2315.26
1553.78
2700.41
4971.68
2289.77
2330.56
14892.5
2487.79
2731.08
1227.57
1426.08
1089.92
3453.07
3426.12
2211.52
2461.56
4387.68
1273.87
1303.04
245.453
978.057
402.283
1051.89
290.198
3236.51
2791.82
1348.32
3555.13
3848.59
4173.35
3666.72
2392.95
4212.74
4711.25
3586.56
4051.85
4590.85
3094.14
3450.1
2732.83
2992.68
4356.55
1598.94
896.38
663.592
1167.32
963.791
585.337
367.076
953.99
2059.68
2251.67
1040
911.827
1921.16
2019.06
2011.63
1902.56
789.084
2878.09
2698.33
2363.07
2857.49
2591.8
892.23
2504.55
2059.1
2517.89
2650.33
1942.47
847.826
940.126
2787.12
1110.94
1235.07
978
1074.57
2673.82
3571.35
1937.78
2135.27
988.483
1036.55
2147.16
1964.26
946.857
976.984
1068.66
1100.92
749.345
257.929
286.186
212.135
247.464
744.133
910.367
336.175
384.228
294.381
321.668
829.318
473.504
172.268
200.887
685.916
702.657
1326.06
1442.15
757.515
1819.62
1664.06
1934.81
1308.89
1227.32
1624.99
1372.68
565.935
1130.5
1312.38
1552.26
506.939
618.245
468.635
489.852
1537.63
663.947
672.235
640.811
661.121
1291.04
415.808
429.268
393.583
411.071
1264.95
1440.74
450.913
464.034
433.687
446.665
1428.51
2234.03
2395.67
989.833
1059.04
2090.27
2169.05
1046.59
1052.35
1034.03
1045.32
1075.94
1098.09
1055.29
1069.43
686.395
697.079
674.84
683.257
758.275
1005.53
701.298
728.029
1490.58
1667.84
1277.94
1428.78
3303.87
2108.72
2269.86
1736.84
2032.87
1482.34
1387.57
637.206
2082.35
2190.75
1934.46
2047.12
2233.06
889.505
2046.02
1552.15
1180.72
937.601
403.986
1307.68
1619.08
1106.94
1188.82
1787.71
1894.44
1652.01
1753.33
486.429
1225.08
1196.56
3879.66
1753.12
3753.32
3434.08
3737.59
1824.5
4757.89
3033.78
4756.97
4408.07
2077.19
2289.24
2717.86
2547.25
1245.04
1573.12
2937.57
2772.72
4413.36
2103.45
1105.83
1306.3
4149.76
4624.46
2715.44
4781.46
3889.64
2581.82
2472.38
4843.42
3436.31
4917.18
3626.6
2741.48
54.541
38.6235
34.6889
4247.5
4189.96
108.329
59.1784
59.4204
4183.11
2307.12
3537.05
3181.5
303.2
247.531
131.669
231.123
151.822
391.043
1407.05
229.972
254.676
46.8121
54.8945
95.5108
347.631
740.197
921.819
186.174
89.4655
93.7788
84.0975
88.0923
182.023
1649.02
1849.56
3414.67
827.648
735.632
343.816
904.012
936.697
1973.86
977.05
1078.51
535.521
95.2883
100.065
222.557
298.802
726.35
703.173
678.844
559.696
264.543
1898.74
842.978
890.915
4103.89
3953.98
3359.68
3073.09
3052.15
2536.97
3783.26
4484.49
4291.09
2656.48
1460.85
1591.74
2710.96
2518.05
3105.11
3089.95
2726.81
1451.37
3454.19
3425.27
3574.81
4375.85
2266.79
2047.63
1011.39
1232.04
140.316
108.968
209.706
1285.84
2662.44
2352.49
4708.48
4779
4752.01
4362.24
4604.02
74.0719
93.7049
257.904
1452.33
1211.15
1130.9
1689.03
1559.46
2264.43
3009.53
2882.5
3509.77
3458.48
2903.31
757.431
821.776
1858.84
3164.07
2246.45
2362.37
3878.55
3139.5
3271.84
1005.38
1251.26
1157.49
758.121
534.504
539.632
1122.98
787.463
812.658
545.635
553.824
780.205
142.909
164.538
452.961
595.657
913.721
750.861
1142.17
1100.73
748.979
1679.62
1312.37
1330.17
906.645
914.476
1518.96
1504.33
1527.47
1355.2
1382.51
1329.39
842.055
847.586
821.356
824.674
1211.68
1474.46
891.979
899.285
853.613
860.045
1394.99
740.999
730.007
303.299
337.4
759.781
745.001
514.226
501.286
237.803
1617.6
1628.45
1542.59
1556.75
1794.29
1639.07
1649.62
260.462
541.424
518.905
3196.1
3163.33
2458.02
2544.41
3288.23
3113.26
3124.07
653.37
1390.83
1244.47
771.692
824.051
1824.8
1645.16
701.83
753.819
2601.76
2582.49
2108.78
2159.03
2636.44
2613.84
4518.06
2433.94
1857.54
2290.6
7798.87
3425.09
2510.16
3667.74
3221.65
3117.67
3121.95
2443
4802.76
4881.38
4799.46
4074.43
2441.39
3105.43
3112.97
3150.83
2437.31
2640.3
4153.47
4256.15
3546.31
3430.08
2737.88
1072.63
1288.02
1199.55
3085.45
3890.4
3713.93
3980.72
3961.13
3222.97
149
205.563
1050.39
1911.77
1875.85
1982.3
1950.97
1806.22
1370.45
1367.27
1378.82
1373.75
1838.44
2682.28
1623.14
1634.41
1569.47
1604.1
2707.2
1652.42
1324.96
1266.44
1363.15
1352.9
1691.85
2476.17
1650.15
1656.09
1643.19
1647.98
2544.02
2055.8
2015.65
1983.82
2039.91
1343.31
997.155
1017.24
2214.43
1699.09
1729.96
1626.07
1664.44
2151.43
4668.65
4689.93
4366.22
4572.33
2991.73
3041.64
2882.05
2934.75
3385.17
2505.86
3029.89
3012.05
2436.29
1829.63
1865.43
1761.02
1793.55
2381.34
2773.82
2824.03
2422.09
2723.37
3112.39
4623.91
4570.03
3966.25
4697.77
2168.25
2516.8
12824.1
2118.86
1701.58
1693.84
2704.91
5099.17
5144.4
9502.96
4103.67
4095.66
3119.65
3113.55
2503.24
2729.83
1485.14
1591.51
1402.15
1587.28
1386.96
1083.03
1625.42
1484.39
3489.75
3455.59
4381.87
3732.16
3939.11
1253.86
1406.6
906.248
495.012
608.496
946.376
992.921
713.438
904.244
1151.98
3739.2
4003.96
3823.13
4412.08
4788.71
4779.5
4622.69
3736.43
4400.74
4157.33
4752.65
4646.78
3895.87
3929.04
4125.16
4694.35
4137.16
3595.23
3752.36
1411.94
1279.08
1496.23
1079.27
1308.75
1459.27
1505.08
1456.33
2091.6
1469.52
1424.66
1840.96
1584.31
2136.75
1952.01
1389.51
1384.1
1406.04
1396.66
1988.91
1977.69
1332.28
1351.83
2834.4
2778.88
2535.88
2882.25
2906.56
2728.46
2563.04
2587.97
2314.13
1459.54
1517.43
1375.61
1410.06
2145.87
3388.09
3194.23
2382.69
3647.63
3644.7
3622.3
2770.2
3494.75
3495.16
2020.74
2125.52
2969.22
1036.34
1132.46
644.352
732.206
1099.42
795.784
566.737
591.703
983.652
944.461
655.701
1044.99
1158.46
719.476
1066.07
1026.66
1337.7
1093.27
1073.67
1174.93
1121.79
1367.45
1767.42
1699.42
1281.92
1599.7
1644.48
1493.67
1543.09
1260.95
1587.08
1693.44
1829.18
1552.77
981.679
1084.54
1580.14
1528.16
923.654
940.169
1457.42
1480.81
1408.37
1433.29
834.111
837.945
1311.8
1238.18
827.204
830.319
878.039
884.717
1457.09
1414.54
866.505
872.305
2290.45
1671.34
1679.69
1660.52
1664.04
2326.99
2092.71
1767.03
1868.45
1693.69
1718.28
2134.19
1048.16
1577.12
1553.77
1616.36
1596.94
1049.9
1042.25
1476.24
1451.77
1529
1503.27
1044.32
1082.92
1731.91
1711.63
1766.51
1749.96
1090.23
1058.92
1652.55
1634.64
1691.91
1672.26
1063.71
1594.81
1606.38
689.742
987.97
984.411
995.893
991.765
693.286
1570.11
1582.76
1683.63
1705.67
825.738
1178.1
1071.95
1429.49
1413.77
937.525
706.462
1006.04
1000.48
1030
1014
714.046
1660.02
1670.77
3018.33
3154.55
3268.93
2653.31
2830.3
2163.68
3088.01
3131.75
2972.98
3038.87
2212.16
1827.34
2735.67
2543.9
3094.4
2947.67
1933.08
1440.61
1090.86
1127.92
1038.57
1062.14
1411.1
2116.14
2151.33
1973.39
2014.25
2284.5
2413.02
1999.68
1453.14
1562.62
1185.99
1291.19
1698.16
1566.78
1964.96
1864.54
1588.79
1118.88
1798.93
1782.28
1835.43
1816.04
1139.68
1821.93
1857.18
1685.7
1719.23
3736.37
2890.64
3008.37
2619.55
2756.45
3633.41
3522.52
3635.97
3136.69
3324.14
3759.17
4745.47
4012.09
4168.83
3704.74
3859.48
4642.19
3150.87
3181.57
3081.06
3116.07
2781.24
2676.54
2200.67
3265.02
3297.96
3210.42
3237.72
2655.85
1984.19
2027.03
1902.87
1941.96
2600.23
2886.58
2179.42
2263.71
2071.92
2120.51
2827.96
4512.81
1696.93
1731.48
2169.84
4101.97
5704.24
5705.05
5430.81
5501.34
4357.68
2842.48
4450.53
3601.16
3828.11
2457.43
3123.26
3122.33
4840.55
4713.86
4838.97
4078.85
4393.7
5002.46
4910.25
3841.58
4666.66
4361.55
3154.68
3106.84
2527.37
31.7491
31.7547
31.8458
31.7572
31.7674
31.8519
31.7718
31.7878
31.8622
31.7941
31.814
31.876
31.8206
31.8375
31.8892
31.8416
31.8478
31.8959
31.8475
31.8404
31.8927
31.8363
31.8203
31.8821
31.8144
31.7965
31.8693
31.7909
31.776
31.8582
31.628
31.6406
31.7252
31.6462
31.6688
31.7408
31.6785
31.7141
31.7659
31.7275
31.7691
31.7977
31.7825
31.8159
31.8254
31.8235
31.8321
31.837
31.8302
31.8125
31.8278
31.8035
31.7708
31.8037
31.7589
31.723
31.7751
31.7115
31.6805
31.7505
31.513
31.5394
31.6139
31.5511
31.5987
31.6481
31.6189
31.6939
31.7027
31.7245
31.8285
31.7696
31.8639
31.9516
31.8273
31.9693
31.9763
31.8454
31.9646
31.9026
31.8189
31.8768
31.7948
31.7673
31.767
31.6917
31.7105
31.6698
31.6128
31.6603
31.4083
31.4551
31.5161
31.4768
31.5651
31.5869
31.606
31.7861
31.7033
31.8695
32.2044
31.8781
32.3407
32.7206
32.0455
32.7921
32.7374
32.0724
32.6498
32.3436
31.9638
32.2455
31.9886
31.8215
31.9176
31.743
31.6947
31.696
31.5839
31.6016
31.3157
31.3928
31.4378
31.4276
31.5846
31.5645
31.668
32.0883
31.8371
32.3217
33.6522
32.4106
34.4571
38.1649
33.2222
38.5984
36.9465
33.2076
36.0085
33.9057
32.5765
33.4544
32.561
32.0855
32.3622
31.9369
31.7754
31.8354
31.6108
31.5844
31.2333
31.3434
31.3796
31.3926
31.6484
31.5977
31.7928
32.6037
32.2042
33.1281
38.4498
34.4024
37.2173
42.2119
36.5947
54.0377
51.4133
40.5315
41.8813
38.7981
36.7022
36.7213
33.8034
32.7994
33.2897
32.33
32.015
32.127
31.7095
31.6285
31.1578
31.2983
31.3319
31.3627
31.7153
31.6667
31.9133
33.0342
32.7312
33.5016
34.5302
34.2512
43.4164
48.3016
46.635
75.3529
53.2073
46.4919
42.2106
35.7319
34.2355
34.7045
32.9174
32.4617
32.5655
31.8761
31.7457
31.0854
31.2523
31.287
31.3311
31.7575
31.7282
31.9929
33.3098
33.1107
33.9941
35.2858
35.122
49.1728
57.6732
56.2303
112.861
70.9821
65.0228
47.3378
37.7635
36.2593
36.2283
33.5796
33.0822
33.0664
32.0785
31.925
31.0136
31.2047
31.2405
31.2969
31.783
31.7647
32.0515
33.6036
33.3763
34.4538
36.1501
35.8991
55.8948
75.0372
72.0194
125.618
79.6975
77.6429
50.5804
39.3534
38.2128
37.475
34.1724
33.7383
33.5246
32.275
32.1295
30.9418
31.1571
31.1927
31.2628
31.8089
31.789
32.1125
34.0008
33.6916
35.0898
37.3492
37.0149
65.0988
95.1314
90.4032
122.472
80.2616
80.6464
52.0263
40.3354
39.6571
38.2911
34.6084
34.298
33.8708
32.4319
32.3187
30.8701
31.1105
31.1453
31.23
31.8439
31.8166
32.1911
34.5378
34.1216
35.9512
39.9508
38.5137
83.4201
149.255
132.679
113.145
83.9168
84.5527
52.2397
40.776
40.4905
38.6984
34.8655
34.6888
34.0816
32.5318
32.4623
30.8059
31.0782
31.099
31.2158
31.9351
31.8544
32.3641
35.6194
34.7003
37.1251
44.0992
42.4459
122.919
299.478
266.272
1496.35
607.883
665.748
96.7979
58.3115
58.9956
51.8488
40.8539
40.8214
38.8084
34.9723
34.9041
34.1735
32.5732
32.5471
30.7347
31.0328
31.0673
31.1848
32.0028
31.9516
32.5204
37.0057
35.9046
39.9485
48.6853
49.4947
274.838
659.599
596.856
820.948
233.21
249.565
91.7715
57.1229
58.0752
51.1103
40.7122
40.8391
38.7367
34.9745
34.9814
34.1806
32.5664
32.5752
30.6622
30.9854
31.021
31.1523
32.0931
32.0223
32.7345
39.1212
37.461
46.4931
281.111
199.093
831.426
1058.54
1254.71
498.755
109.55
113.954
87.6448
55.873
56.8081
50.308
40.4755
40.6555
38.5701
34.9056
34.96
34.124
32.5162
32.5559
30.5888
30.9377
30.9733
31.1216
32.2292
32.1217
33.0493
42.0899
39.777
53.051
361.128
304.566
864.774
875.845
1006.23
438.6
105.335
108.32
84.4449
54.7683
55.5814
49.5529
40.2084
40.4095
38.3701
34.8044
34.8828
34.0367
32.4409
32.4992
30.5146
30.8918
30.9259
31.0968
32.4369
32.2732
33.5063
46.0069
42.9717
61.6506
411.568
375.862
844.925
741.758
838.654
392.434
102.675
104.558
82.1413
53.8272
54.519
48.8899
39.9452
40.1412
38.1636
34.6831
34.7751
33.9283
32.3481
32.4188
30.4394
30.8501
30.8808
31.0826
32.7392
32.5024
34.1371
51.0501
47.1423
72.2996
443.931
420.996
803.453
637.485
713.309
354.587
100.705
102.154
80.6952
53.0348
53.6162
48.3164
39.6982
39.8814
37.9629
34.5519
34.6507
33.8077
32.2435
32.3227
30.3632
30.8144
30.8403
31.0832
33.1511
32.8307
34.9605
57.4258
52.5221
83.4996
463.88
449.833
752.036
554.399
614.989
322.684
98.8857
100.244
79.7091
52.4104
52.8615
47.833
39.4693
39.639
37.7713
34.415
34.5178
33.6793
32.1303
32.2157
30.2856
30.7865
30.8065
31.1015
33.68
33.271
35.9929
64.3175
59.1338
93.5347
474.369
467.195
696.395
487.812
536.425
295.762
97.2177
98.452
78.8893
52.0066
52.2882
47.4706
39.2593
39.4146
37.5893
34.2747
34.38
33.5456
32.0104
32.1007
30.2066
30.7679
30.7807
31.14
34.3389
33.8301
37.2888
70.5745
65.9503
102.188
477.103
475.609
640.68
434.569
473.451
273.346
95.7994
96.8368
78.2074
51.8093
51.9409
47.2596
39.0769
39.2103
37.4218
34.1334
34.2392
33.4088
31.8856
31.9795
30.127
30.7608
30.7648
31.2016
35.1734
34.5271
38.9056
75.8848
71.9678
109.553
473.505
476.64
588.178
392.184
423.134
255.026
94.6844
95.4887
77.7001
51.7463
51.7835
47.1789
38.9371
39.0372
37.2794
33.9956
34.0984
33.2729
31.758
31.8538
30.048
30.7698
30.7612
31.2949
36.21
35.4136
40.6869
80.3268
77.0565
115.6
465.092
471.71
540.987
358.561
383.102
240.324
93.8823
94.4491
77.3829
51.7658
51.744
47.184
38.8471
38.9098
37.1715
33.8675
33.9625
33.1431
31.6309
31.726
29.9724
30.8044
30.7755
31.4365
37.3509
36.4901
42.3779
83.9597
81.2949
120.363
453.428
462.362
499.936
331.905
351.35
228.702
93.3709
93.7193
77.243
51.8422
51.7789
47.2424
38.8015
38.8318
37.0993
33.7548
33.8377
33.025
31.5082
31.5997
29.9042
30.8775
30.8186
31.6403
38.4617
37.6344
43.8674
86.8623
84.7408
123.98
439.907
450.126
464.892
310.695
326.161
219.611
93.1058
93.271
77.2472
51.9559
51.8659
47.3323
38.7894
38.7955
37.0581
33.6615
33.7296
32.923
31.3939
31.4788
29.8491
30.9981
30.9029
31.906
39.4807
38.7254
45.1581
89.1583
87.4827
126.685
425.627
436.337
435.194
293.666
306.084
212.524
93.0292
93.0558
77.3506
52.0861
51.9852
47.4354
38.8
38.7899
37.0416
33.5893
33.6414
32.8398
31.2907
31.367
29.8142
31.1693
31.0361
32.2231
40.4086
39.7204
46.2925
91.011
89.655
128.767
411.254
421.989
409.937
279.731
289.903
206.94
93.0781
93.0141
77.5055
52.2131
52.1161
47.5366
38.8258
38.8048
37.0446
33.5385
33.5745
32.7764
31.2004
31.2669
29.8069
31.3907
31.2198
32.5833
41.2747
40.6297
47.3266
92.6102
91.4282
130.545
397.184
407.661
388.211
268.012
276.582
202.402
93.191
93.0828
77.6684
52.3233
52.2398
47.6274
38.8639
38.8337
37.0649
33.5089
33.5289
32.7328
31.1232
31.1797
29.835
31.663
31.4536
32.9854
42.1184
41.4861
48.321
94.1605
92.9963
132.341
383.557
393.697
369.166
257.757
265.288
198.477
93.3117
93.2015
77.8057
52.4139
52.345
47.7089
38.9166
38.8749
37.1042
33.5009
33.5044
32.7095
31.0594
31.1057
29.9048
31.9877
31.7385
33.4332
42.9804
42.3301
49.3359
95.8626
94.5647
134.446
370.316
380.176
352.032
248.339
255.293
194.759
93.3914
93.316
77.8966
52.4933
52.4318
47.7911
38.9905
38.9321
37.1674
33.5165
33.5019
32.708
31.0101
31.0453
30.0189
32.3644
32.0759
33.9296
43.8952
43.2014
50.4234
97.9005
96.3309
137.111
357.345
367.016
336.151
239.285
246.009
190.889
93.3875
93.379
77.9313
52.5768
52.5107
47.8891
39.0944
39.0124
37.2614
33.5601
33.5238
32.7325
30.9786
31
30.1749
32.7877
32.4645
34.4725
44.8851
44.1321
51.6214
100.423
98.4725
140.508
344.469
354.091
320.986
230.214
236.992
186.558
93.2623
93.3491
77.9073
52.6824
52.598
48.0188
39.2368
39.1248
37.3935
33.6375
33.575
32.7887
30.9695
30.9734
30.3637
33.2451
32.8973
35.0511
45.9565
45.141
52.9473
103.524
101.126
144.703
331.507
341.215
306.157
220.869
227.882
181.55
92.984
93.1898
77.8256
52.8254
52.7113
48.1929
39.4244
39.2776
37.5693
33.7536
33.6613
32.8817
30.9877
30.9705
30.5705
33.7175
33.3601
35.6468
47.0979
46.2302
54.3958
107.23
104.371
149.645
318.315
328.216
291.43
211.138
218.462
175.769
92.5304
92.8715
77.6883
53.0164
52.8651
48.4195
39.6598
39.4765
37.7905
33.9091
33.787
33.0122
31.0349
30.9957
30.7777
34.1806
33.8323
36.2336
48.2795
47.3838
55.937
111.486
108.215
155.149
304.83
314.965
276.745
201.021
208.649
169.25
91.8936
92.375
77.4983
53.2596
53.0683
48.7005
39.9392
39.7229
38.0517
34.0972
33.9513
33.1736
31.1072
31.0495
30.9556
34.5868
34.2891
36.7553
49.4088
48.5681
57.4611
116.065
112.582
160.834
291.187
301.424
262.293
190.778
198.468
162.263
91.0943
91.696
77.2555
53.5288
53.3236
49.0046
40.2245
40.011
38.3147
34.2826
34.1448
33.333
31.1831
31.1262
55.0983
54.1342
47.15
109.291
156.356
178.804
73.4455
82.8997
72.5578
71.0169
67.7613
53.3232
148.167
229.075
230.414
185.576
203.163
128.66
88.9783
85.0363
61.187
150.957
211.773
204.792
230.248
228.16
152.236
127.997
116.449
74.3951
140.097
169.932
167.218
187.037
184.344
147.551
255.295
223.741
99.4878
2165.36
2547.02
2472.32
1274.37
1321.54
1818.3
130.004
241.067
224.521
164.48
161.844
135.052
579.408
532.124
197.872
1521.93
2288.75
2214.28
3075.6
2789.48
2082.65
573.196
594.503
1188.28
116.929
204.505
196.093
219.812
207.826
118.239
59.6335
45.0373
38.0916
1211.59
855.169
1793.4
37.9616
44.7723
52.4619
1466.53
1421.78
54.646
59.3302
65.7264
39.7044
49.3209
43.9461
391.969
480.863
526.861
168.335
214.215
163.216
62.8027
55.5975
81.0121
44.6244
50.1242
53.2768
43.9853
46.9662
42.4862
35.6677
35.4632
34.0976
45.6228
37.2312
37.8243
36.6769
37.0725
45.0344
1113
1465.65
1465.14
1096.39
1102.76
886.738
76.6599
72.6331
115.719
52.4567
61.3841
63.419
56.2772
59.0047
50.7508
36.7053
36.4186
34.5947
50.3799
38.901
39.6253
38.0328
38.6804
49.7058
79.2404
76.0637
56.8574
195.369
144.826
147.954
128.543
131.048
174.14
741.788
922.073
900.143
1204.27
1192.1
934.931
80.6438
80.1009
125.842
57.2203
67.6109
68.42
65.1295
66.5234
56.3219
38.1002
37.7096
35.2819
57.2676
41.0759
42.1729
39.8849
40.7563
56.1904
102.88
96.8848
66.605
376.044
218.294
226.574
182.083
187.18
265.518
482.802
630.925
609.343
937.735
858.111
559.659
41.9399
40.4709
36.1921
70.9852
44.2951
46.1637
42.5765
43.7776
68.7187
177.961
155.658
87.1271
1328.16
597.397
617.186
380.143
408.438
950.042
2520.72
2606.91
3140.67
333.344
709.293
641.013
461.076
448.534
360.661
48.6342
44.7693
37.7014
99.5591
50.2972
56.4598
46.8706
49.2963
94.8101
345.295
310.656
126.569
2210.63
1743.07
1735.92
1539.39
1542.19
1992.31
3574.93
4365.51
339.279
1286.69
2596.14
2053.62
2179.64
2068.12
1464.29
114.557
178.71
150.498
279.95
252.986
143.352
76.4417
89.0469
81.0671
138.959
130.452
101.778
845.24
1072.08
1087.37
570.035
609.369
477.233
123.522
148.367
101.971
368.17
270.928
248.194
388.741
370.608
607.734
156.896
79.0956
82.8119
75.2246
77.9704
153.69
52.5582
66.4355
61.642
204.708
374.392
358.613
481.004
468.598
214.827
162.46
303.314
286.935
354.532
342.483
189.185
964.886
1223.95
1214.69
1460.53
1449.89
1105.51
222.464
228.01
139.745
848.59
469.456
470.078
491.8
496.113
790.13
726.603
421.24
405.649
470.117
471.231
842.834
130.171
208.073
219.707
241.5
173.096
177.416
151.171
154.47
211.327
60.0284
83.8161
80.3441
289.594
372.432
365.272
459.299
451.676
354.468
234.822
497.147
485.026
356.882
347.579
274.261
613.232
1062.16
966.256
879.771
860.837
693.718
220.376
214.055
151.805
538.145
418.542
426.729
245.881
256.647
498.125
732.188
480.742
486.735
434.869
442.888
637.379
152.679
226.955
222.296
710.64
330.355
353.524
235.975
246.623
475.283
72.0958
113.205
105.153
579.525
757.309
737.02
1365.4
1324.39
1016.34
374.397
476.261
467.072
717.946
700.267
528.106
388.638
488.336
474.323
588.546
569.781
444.038
1990.3
1518.7
1532.68
631.846
683.083
1623.9
96.64
213.61
186.143
2007.32
2472.31
2435.45
1130.11
1438.15
1399.08
2390.23
2319.9
1856.23
307.637
554.138
512.092
621.055
569.439
285.214
2827.97
2363.41
2437.27
12479.2
2554.18
3521.11
1725.5
1713.58
2142.37
168.646
429.976
356.594
2033.39
1985.1
1622.57
3640.89
3802.07
10292.1
1752.4
2144.52
2086.15
34.9539
34.7623
33.6509
41.6891
36.1797
36.5613
35.5064
36.033
41.1804
51.1062
49.81
44.3457
77.5491
56.799
59.3006
53.8142
55.9133
74.1234
771.982
1034.54
735.95
60.3674
59.0811
50.088
129.283
70.854
74.1341
66.183
69.8172
125.837
85.0614
80.0163
121.535
59.1819
69.4879
69.5325
68.9816
69.3302
58.9017
1096.15
1974.99
1772
1423.87
1375.97
1071.3
550.895
590.07
1446.91
277.67
404.17
392.244
499.515
417.199
283.951
99.919
62.8368
65.2228
60.0345
62.1498
97.0352
46.5434
53.2043
52.2185
175.402
227.176