/*--------------------------------*- C++ -*----------------------------------*\
| =========                 |                                                 |
| \\      /  F ield         | OpenFOAM: The Open Source CFD Toolbox           |
|  \\    /   O peration     | Version:  v1912                                 |
|   \\  /    A nd           | Website:  www.openfoam.com                      |
|    \\/     M anipulation  |                                                 |
\*---------------------------------------------------------------------------*/
FoamFile
{
    version     2.0;
    format      ascii;
    class       volScalarField;
    location    "100";
    object      p;
}
// * * * * * * * * * * * * * * * * * * * * * * * * * * * * * * * * * * * * * //

dimensions      [0 2 -2 0 0 0 0];


internalField   nonuniform List<scalar> 
12556
(
534.24
534.274
534.036
532.841
530.516
524.408
512.889
492.56
459.617
409.488
338.209
244.516
132.157
10.4094
-108.773
-215.241
-303.423
-372.305
-423.477
-459.918
-490.484
-504.966
-513.378
-517.358
534.227
534.451
534.647
534.237
532.093
527.348
517.64
501.112
472.08
426.284
358.72
266.52
152.248
25.6629
-99.2833
-210.582
-301.908
-372.474
-431.359
-465.763
-495.905
-508.841
-516.239
-519.719
534.158
534.838
536.016
537.295
536.523
535.074
530.009
517.549
495.35
456.288
392.472
296.574
168.755
22.8557
-118.512
-238.418
-330.926
-398.122
-453.473
-482.472
-508.599
-518.187
-523.457
-525.913
533.632
534.951
537.484
541.063
542.596
545.877
547.588
542.522
532.235
506.952
453.934
355.473
201.997
15.994
-157.082
-290.224
-382.05
-442.191
-487.867
-507.867
-527.07
-531.815
-534.046
-535.035
532.022
534.043
538.059
544.224
548.813
557.766
568.054
573.858
581.265
580.269
554.609
465.47
265.131
-6.95469
-235.61
-382.696
-463.493
-504.706
-533.607
-540.549
-548.935
-547.504
-546.031
-545.233
528.629
531.321
536.754
545.414
553.439
568.132
587.277
605.886
636.035
672.584
706.099
677.562
395.167
-92.0936
-404.402
-534.608
-577.347
-585.739
-587.756
-577.301
-571.543
-563.092
-557.535
-554.785
522.818
526.049
532.61
543.282
554.624
574.107
600.676
631.122
682.045
759.006
885.758
1100.21
781.147
-444.038
-740.591
-760.2
-722.364
-678.224
-643.733
-613.549
-591.642
-576.182
-566.635
-561.987
514.044
517.608
524.852
536.713
550.744
573.191
604.124
642.339
704.408
799.613
963.345
1324.9
-1647.25
-1285.86
-1033.72
-872.914
-766.242
-691.932
-643.037
-605.524
-584.158
-571.302
-565.085
501.959
505.604
512.984
525.11
540.895
564.086
595.733
636.268
697.222
780.899
886.771
966.011
-2989.64
-1748
-1248.62
-984.627
-828.125
-721.657
-659.529
-609.843
-584.695
-569.759
-562.537
486.437
489.91
496.909
508.374
524.878
546.763
576.055
614.525
666.99
732.287
800.527
851.436
-2923.81
-1809.09
-1299.47
-1015.51
-844.962
-724.9
-658.488
-602.459
-576.317
-560.851
-553.351
467.61
470.69
476.843
486.893
503.152
522.151
546.942
580.4
622.118
672.49
728.274
791.576
-2184.94
-1541.11
-1185.59
-959.262
-812.309
-699.883
-638.824
-583.066
-558.744
-544.316
-537.256
445.794
448.303
453.286
461.391
476.608
491.604
510.52
537.002
566.991
603.806
650.837
730.863
-1382.09
-1146.37
-977.302
-841.925
-740.676
-651.474
-602.994
-553.149
-532.894
-520.746
-514.73
421.512
423.353
426.95
432.71
446.233
456.607
469.067
487.679
505.284
525.472
550.136
604.907
-457.566
-696.423
-769.988
-749.149
-699.843
-647.829
-588.402
-555.718
-515.491
-500.537
-491.422
-486.828
395.339
396.502
398.721
402.195
413.652
419.301
425.298
436.241
441.692
444.382
441.413
437.452
150.603
-305.306
-486.427
-550.952
-562.055
-550.503
-519.58
-502.431
-473.193
-463.86
-458.003
-454.979
367.941
368.415
369.233
370.422
379.587
380.727
380.993
385.07
380.062
368.636
346.168
284.084
137.183
-131.224
-308.2
-401.515
-444.799
-460.309
-451.972
-447.819
-429.189
-425.036
-422.225
-420.698
339.96
339.8
339.348
338.532
345.574
343.091
338.949
337.182
323.95
302.571
270.705
207.876
113.415
-61.0753
-201.844
-295.592
-351.46
-381.895
-389.713
-395.295
-385.71
-385.86
-385.623
-385.397
311.997
311.31
309.822
307.393
312.558
307.354
299.946
293.323
274.069
246.571
210.07
153.072
83.1454
-33.1469
-140.193
-222.478
-279.761
-317.192
-334.865
-346.89
-344.258
-347.685
-349.458
-350.231
284.608
283.507
281.216
277.597
281.204
274.113
264.408
254.235
231.686
201.702
164.536
115.467
60.5545
-22.9403
-105.145
-173.888
-226.691
-265.169
-287.692
-303.354
-305.715
-311.379
-314.594
-316.083
258.207
256.814
253.967
249.527
251.899
243.544
232.345
220.16
196.49
166.494
131.248
88.8125
43.7696
-19.8507
-83.6687
-140.208
-186.952
-223.603
-247.574
-264.829
-270.4
-277.418
-281.561
-283.552
233.136
231.554
228.349
223.422
224.811
215.642
203.613
190.573
166.975
138.361
106.644
70.351
32.7013
-17.1751
-67.9455
-115.33
-156.245
-189.944
-213.472
-230.928
-238.339
-246.024
-250.681
-252.949
209.591
207.916
204.545
199.357
199.978
190.343
178.018
164.956
142.322
115.884
87.8924
57.0974
25.4951
-15.0491
-57.3285
-97.1924
-132.282
-162.287
-184.3
-201.093
-209.339
-217.204
-222.058
-224.451
187.705
186.004
182.579
177.323
177.345
167.538
155.327
142.87
121.905
98.0442
73.1182
46.3999
19.4164
-15.3902
-50.7506
-83.4605
-113.088
-139.191
-159.099
-174.743
-183.123
-190.848
-195.688
-198.083
167.483
165.808
162.44
157.218
156.8
147.077
135.245
123.681
104.654
83.5227
61.4987
37.4155
13.7785
-16.376
-44.6857
-71.569
-96.786
-119.374
-137.075
-151.356
-159.43
-166.811
-171.483
-173.819
148.893
147.275
144.007
138.916
138.185
128.745
117.448
106.841
89.7403
71.1178
51.5656
30.4556
8.96708
-15.4808
-38.3155
-61.2179
-82.6234
-101.957
-117.604
-130.498
-137.995
-144.923
-149.35
-151.567
131.818
130.28
127.17
122.252
121.322
112.311
101.632
92.0397
76.8526
60.3874
43.0738
23.2636
6.13721
-13.2057
-33.1818
-52.7084
-70.4198
-86.5398
-100.24
-111.812
-118.626
-125.044
-129.159
-131.246
116.14
114.693
111.753
107.066
106.025
97.536
87.5298
78.9958
65.7253
51.618
36.1658
20.8549
6.22281
-11.289
-29.308
-45.0979
-59.6413
-72.8596
-84.7068
-95.0536
-101.143
-107.032
-110.82
-112.747
101.694
100.347
97.6106
93.1843
92.117
84.2204
74.9519
67.4741
56.0628
44.0276
30.3585
15.5634
4.55703
-10.7165
-24.7409
-37.507
-49.7141
-60.6108
-70.8306
-80.0414
-85.4234
-90.7805
-94.2147
-95.9889
88.3283
87.0886
84.5662
80.4546
79.4367
72.2086
63.7786
57.3247
47.6051
37.1767
27.3768
13.8436
3.98408
-8.80798
-19.4474
-30.4737
-40.7195
-49.6598
-58.4904
-66.655
-71.3417
-76.1732
-79.2618
-80.8644
75.8805
74.7569
72.477
68.7282
67.8449
61.384
53.9068
48.3487
39.9738
31.214
23.1371
15.2711
4.80544
-5.21263
-15.039
-24.4564
-32.8363
-40.0297
-47.5945
-54.7753
-58.8027
-63.116
-65.8427
-67.2837
64.2113
63.2135
61.1948
57.8758
57.2169
51.624
45.1891
40.2904
32.9481
25.5013
16.6647
8.34698
3.6276
-3.4741
-11.585
-19.1922
-25.9228
-31.6511
-38.0663
-44.3107
-47.6903
-51.4865
-53.8622
-55.1253
53.1769
52.3175
50.5899
47.7617
47.4197
42.7776
37.4516
33.0475
26.7144
20.3351
14.2639
6.34897
3.14913
-2.41313
-8.49715
-14.5307
-19.9199
-24.4263
-29.8053
-35.1412
-37.8839
-41.1634
-43.1744
-44.2667
42.687
41.9747
40.5555
38.2778
38.3201
34.675
30.5305
26.6397
21.2754
16.1073
12.3875
7.63878
3.65548
-0.460741
-5.7507
-10.5246
-14.8299
-18.2931
-22.6918
-27.1428
-29.2371
-31.9955
-33.6502
-34.5569
32.5536
32.005
30.9185
29.233
29.7564
27.138
24.2483
20.9748
16.4455
12.5416
8.60185
4.81331
4.19548
0.496336
-3.48674
-7.25688
-10.5828
-13.1435
-16.5803
-20.1494
-21.562
-23.7848
-25.0639
-25.7857
22.9623
22.5628
21.7961
20.6989
21.6258
19.9771
18.3742
15.8202
12.1653
9.52793
7.57032
4.72669
3.68799
0.679365
-1.86325
-4.74374
-7.11438
-8.83388
-11.315
-14.0033
-14.7504
-16.4354
-17.3551
-17.8901
12.9431
12.7508
12.3395
11.844
13.6157
12.9395
12.5625
10.8691
8.15211
6.44882
6.34189
4.11043
1.99068
0.980082
-0.982835
-2.92343
-4.37262
-5.23831
-6.73759
-8.51681
-8.28222
-9.31338
-9.81029
-10.1081
5.99908
5.83927
5.64664
5.39293
5.96046
5.55648
5.94894
5.90551
4.23204
3.05372
2.63341
0.515146
0.848144
0.679179
-0.716329
-1.72506
-2.28829
-2.30708
-2.69059
-3.54495
-3.39018
-3.98043
-4.23967
-4.42986
996.713
-3170.54
-1709.85
859.714
-3195.22
-3256.84
797.997
-2387.39
-3118.9
741.748
-1507.58
-2274.1
614.881
-477.712
-511.415
-774.069
-1405.02
448.32
214.656
-453.379
111.705
-305.73
-701.193
1344.38
909.49
-1433.64
-283.854
-3897.18
-1859.54
-2906.11
-1842.69
-1370.73
820.444
855.448
965.081
-4586.28
-4637.87
-2985.64
-2029.01
-1942.4
745.79
790.238
846.302
827.296
849.872
877.408
-3412.21
-4093.01
-2287.43
-1762.55
-1994.75
672.097
727.528
783.196
773.3
812.101
820.531
-2156.37
-2692
577.049
610.859
716.432
682.076
744.138
793.192
-1029.02
-1076.6
-1522.31
467.671
455.702
592.887
531.948
546.571
657.058
320.362
264.049
217.713
1164.9
918.072
1859.74
1232.53
-4628.14
-3971.21
-2719.72
-3809.87
-4497.51
879.226
879.351
890.199
874.943
885.156
905.053
874.186
-4121.05
-4572.3
-3278.7
-4461.96
-4043.85
-4508.64
-4473.94
-3295.42
822.693
844.943
819.466
848.75
824.417
883.885
851.498
-2772.57
-3362.6
-2723.27
-3267.89
-2713.47
-4013.18
-3356.98
-2830.96
795.252
812.045
766.759
814.65
798.839
823.321
814.475
-1589.55
-2083.36
664.303
739.555
673.831
-991.337
745.556
667.862
796.939
750.617
-1019.1
-667.835
-1019.89
-992.266
497.128
535.275
520.635
-33.6068
539.108
466.031
660.193
550.87
-77.8048
910.422
992.984
1249.84
1180.74
1239.78
1752.11
-4286.57
-1842.81
904.262
880.388
924.236
-2625.91
-1477.09
-1310.2
-1657.41
-1348.53
-1348.84
-1592.47
-114.065
-334.211
-574.139
938.25
1178.66
1127.3
826.396
2603.63
1661.55
-1826.61
-3645.06
-2502.47
-1630.8
-1904.66
-1828.06
-2049.58
-1573.4
-2636.68
-2120.27
-1938.33
-699.636
-170.271
-272.751
1503.71
1665
1905
-1505.4
-7.33988
1355.37
-4435.66
-3217.2
-4354.5
-1838.17
-4160.33
-2909.7
-4630.25
-4637.79
-3692.84
-3743.73
-2274.18
-2565.09
-2381.46
-2546.49
-2255.99
-2901.39
-2592.99
-2456.33
769.862
737.632
713.771
-1066.33
-1273.7
-1282.23
607.195
580.545
537.734
627.743
593.118
613.605
979.015
841.854
1015.67
866.061
1027.11
809.633
852.345
982.243
1596.67
1670.82
2466.71
1073
1567.44
1494.89
1544.07
1030.88
-4434.93
-4395.77
877.313
863.279
877.838
880.964
822.697
813.126
856.351
826.833
877.448
-4315.63
-4349.47
-4263.24
-3768.4
-3853.8
-3591.67
-3730.11
-4229.1
-4531.23
-3884.73
-3815.81
-3871.6
-3891.4
-4524
833.893
832.379
868.842
866.876
-3010.22
-2925.7
-3052.99
810.168
809.095
818.508
817.942
-2213.63
-1928.67
-1866.65
-1942.18
-2228.65
694.186
667.886
638.126
705.445
678.181
700.733
-730.66
704.935
698.34
777.47
774.768
-1294.21
-739.111
-807.751
-998.824
521.457
471.05
367.195
383.531
227.674
68.0998
619.552
-166.589
46.4822
-120.165
614.276
-227.903
-137.987
35.2295
-1767.44
-1493.74
-1631.28
367.838
340.78
439.348
384.985
391.011
484.885
148.944
-95.1013
-229.239
3549.47
-1658.1
-1804.06
-581.368
-747.771
-709.446
-107.161
-266.6
-71.1379
2436.75
2416.89
2675.43
-1405.74
378.49
2017.05
-4614.41
-5048.53
-5024.46
-4650.97
-3533.65
-3656.8
-3531.87
-4275.36
-4184.93
-3971.29
814.766
798.562
792.435
808.475
800.788
814.997
762.048
744.652
773.217
576.453
563.343
537.995
448.374
325.534
229.892
-4562.76
-4979.48
-5059.45
-4260.21
-3504.06
-3170.63
-3774.85
-3588.59
-4293.68
-4194.64
-4442.99
-4316.87
-4499.36
829.63
820.11
811.325
827.577
831.43
827.138
-3499.65
-3376.66
-3227.44
-3018.78
-2813.44
-3017.37
-3687.23
-3356.72
-3537.43
-3086.43
-3291.12
-3641.78
805.127
778.356
766.826
790.132
781.7
806.329
814.552
826.013
822.478
810.628
827.809
805.603
821.046
824.374
826.584
821.755
823.92
814.747
-1796.03
-1891.49
-1638.8
-853.723
-870.633
729.232
666.009
788.556
795.898
807.611
781.973
758.508
-1123.64
188.488
460.097
443.614
527.311
491.273
490.882
56.6588
183.332
82.2508
495.673
174.588
364.57
250.067
-91.7157
638.097
589.488
-3560.02
-2021.32
-3190.29
-2749.15
-2800.72
-1337.63
-1454.03
-1451.51
816.766
810.449
2226.82
2411.94
3233.11
2195
2079.7
-1953.74
-1810.77
-1788.63
-1807.66
-1964.71
-690.719
-580.371
-598.423
-581.034
-686.051
-441.865
-548.379
-301.452
-323.24
-414.745
-213.378
-294.392
-243.393
-4721.43
-4148.23
-3665.1
-4598.17
-4282.49
-3478.55
-2817.72
-3344.38
-4937.37
-4906.33
-4617
-4650.64
-5006.35
-4955.2
-3912.76
-3710.12
-3571.36
-3761.65
-3995.98
-3561.52
-3699.75
-4054.03
-3916.88
-4155.6
-3979.73
-2394.81
-2444.38
-2422.21
-2358.73
-2478.34
-2781.77
-2691.4
-2816.65
-2520.6
-2648.82
-2733.82
-1185.47
-1187.17
-1298.23
592.824
571.274
576.103
628.891
617.779
599.677
896.297
880.384
911.666
1004.66
946.045
1124.98
1029.66
931.935
825.811
885.243
864.464
930.673
894.602
832.418
1232.08
1310.22
1163.27
1259.96
1186.35
-4900.82
-4948.95
-4534.33
-5060.94
-5040.78
-5062.55
-4849.43
-4689.82
-5039.95
-4889.33
-4245.48
-4721.91
-4880.03
866.74
873.857
883.054
866.121
871.784
869.17
886.843
893.069
885.779
886.088
815.575
852.332
852.074
860.749
853.426
812.745
845.975
858.963
864.042
852.883
857.474
844.684
-4581.31
-4483.73
-4221.99
-4462.6
-4705.86
-4602.3
845.31
845.489
844.262
843.147
833.775
829.615
843.095
835.372
897.863
892.447
895.384
897.796
856.957
844.033
887.73
865.667
-3006.69
-3151.75
-2856.04
-2968.21
-3038.35
-3429.18
-3530.42
-3209.56
-3383.64
822.987
825.572
813.805
830.451
825.971
825.623
831.716
826.352
806.189
831.552
822.221
829.477
825.177
820.021
828.149
834.005
828.078
825.606
827.022
824.773
828.859
827.868
815.305
825.084
828.227
-1978.61
-2066.44
-2110.37
-1965.64
-2158.63
-2106.51
-693.231
-839.009
-842.42
-687.298
724.668
677.115
788.016
793.059
785.911
763.508
787.166
786.984
-1194.96
469.093
477.654
437.275
263.187
223.167
475.42
93.2939
169.809
134.428
630.266
-242.562
-29.5778
67.1677
-49.3533
563.596
-1416.71
-1186.52
-710.514
-1601.42
-1654.02
-791.939
-862.143
-1192.31
-1667.13
-568.924
-550.198
-449.698
-1508.9
-1109.43
-1113.62
3223.35
3267.08
3656.06
-865.787
922.472
2778.25
-763.541
-300.638
-1527.57
-3581.67
-4074.06
-4387.93
863.161
850.868
838.736
864.645
854.68
866.845
-1035.85
-1146.57
-1137.59
-1562.78
-1345.95
-1325.17
640.872
624.028
636.154
-4481.75
-4669.26
-4197.52
834.615
823.393
832.525
841.262
845.788
850.161
850.181
856.909
858.549
667.852
659.322
646.147
-999.405
-960.203
-957.134
675.063
692.641
676.036
-1077.96
-1079.8
-998.949
-877.563
-881.615
-1000.16
528.702
655.412
662.658
666
560.182
-4142.45
-2662.99
-1337.16
-1395.21
-1392.4
-1619.67
-1492.28
-1471.23
816.234
-3031.19
-2531.02
-2992.84
-1748.41
-1784.97
-1656
-436.508
-446.047
-341.626
-340.533
-403.013
-649.26
9.81387
-1464.27
-4524.59
-4305.56
-4128.84
-4894.55
-4823.56
-2315
-2337.14
-2293.99
-2582.45
-2562.84
-2542.46
-2199.7
-2317.42
-2376.85
-2875.59
-2836.46
-2873.86
-1289.57
-1274.34
-1293.86
940.07
957.56
855.909
880.319
912.339
896.744
808.025
828.499
826.893
882.686
870.899
841.976
1570.53
1368.19
1301.96
1439.44
1383.15
1518.89
997.563
1031.99
1073.66
865.414
869.274
883.204
863.741
866.787
867.619
907.874
906.614
888.501
890.798
822.119
830.707
832.139
826.865
826.283
813.847
849.333
854.093
858.992
834.971
839.498
834.182
841.689
845.243
838.916
828.553
833.094
839.687
882.886
893.234
874.968
899.983
903.683
904.205
898.145
842.339
904.554
901.72
861.054
862.138
878.36
-3166.63
-3232.72
-2907.63
-2946.24
-2960.79
-3299.22
-3345.06
-3178.65
-3326.21
-3162.61
680.726
664.462
674.453
718.692
702.751
686.78
708.151
716.352
712.186
692.212
695.568
701.344
-1292.64
390.638
418.288
396.483
280.89
387.924
161.516
203.47
259.902
625.481
627.159
623.424
-196.961
-119.773
-111.813
-118.754
604.925
611.93
621.335
-65.9589
-103.091
-182.108
-1512.43
-1548.4
-1648.79
-1602.77
-1590.63
3270.46
4025.64
2912.28
-1704.4
-1722.88
-1653.97
-1813.98
-1763.45
-1759.35
-420.814
489.244
-1049.56
-4843.46
-4847.14
-4807.43
-4823.92
-5041.21
-4918.59
-4922.23
-4907.65
-4914.54
-5034.37
-4246.94
-4197.71
-4225.68
-4129.23
-4168.26
-4218.92
-5024.86
-4881.84
-4847.36
-4923.11
-4910.67
-5055.98
-4396
-4322.78
-4361.16
-4256.98
-4288.44
-4357.3
-4779.84
-4795.51
-4710.5
-4747.38
825.104
821.194
821.65
812.367
809.037
806.314
816.465
812.822
816.993
-951.951
-998.589
-845.053
-910.111
740.694
740.705
747.023
740.22
658.902
674.226
695.579
653.25
798.607
796.942
794.282
803.415
800.064
802.655
776.218
765.687
776.368
747.079
750.133
-1135.12
-1125.8
-1125.16
-1006.11
404.655
456.264
525.666
508.969
505.424
489.117
515.451
148.488
142.595
469.994
412.253
314.838
638.884
653.197
648.121
576.924
-3764.39
-4047.58
-3895.08
-2771.14
-2655.24
-1877.87
-3499.5
-3186.11
-2704.53
-2830.23
-1444.46
-1441.44
-1441.78
816.247
795.433
2680.75
2601.92
2393.56
1726.73
1597.99
2173.86
1919.31
1970.08
-1873.86
-1821.84
-1913.37
-580.518
-584.317
-576.866
-649.644
-461.36
-441.991
-442.059
-537.206
-501.036
-501.626
-306.124
-337.813
-333.803
-240.629
-243.473
-265.566
-4599.94
-4463.44
-4628.18
-4498.68
-4699.05
-4794.75
-4785.78
-4723.9
-4917.11
-4830.61
-4843.37
-4833.51
-4821.07
-4902.25
-4985.46
-4882.22
-4896.29
-4857.1
-4869.53
-4970.73
-3843.76
-3765.93
-3827.89
-3834.96
-3920.02
-3586.38
-3598.24
-3580.79
-3647.25
-4108.69
-4150.5
-4113.01
-4025.45
-4081.85
-3894.19
-3962.48
-4048.13
-2421.83
-2353.53
-2347.81
-2366.76
-2301.38
-2349.61
-2497.02
-2516.34
-2465
-2750.29
-2789.95
-2813.26
914.83
866.945
845.299
834.053
811.885
836.697
861.942
853.994
1205.78
1278.3
1345.45
1490.87
1383.5
1124.24
1078.06
1139.97
-4917.43
-4759.82
-4736.64
-4810.99
-4783.87
-4935.31
-5062.71
-5048.41
-4813.64
-4966.54
-4981.94
-4897.57
-4949.58
-4765.95
-5020.46
-5011.08
-5064.65
-4955.69
867.545
869.877
867.19
869.795
868.17
868.24
905.07
907.36
895.397
900.891
826.439
828.748
819.65
812.58
825.182
825.02
849.164
850.918
846.05
840.579
843.864
847.091
-4554.58
-4468.94
-4498.63
-4398.05
-4433.98
-4518.1
-4663.67
-4597.59
-4663.75
-4525.23
-4554.88
-4629.35
846.748
846.671
841.938
848.607
849.15
846.873
842.488
831.448
837.467
835.683
830.894
841.762
832.467
835.243
836.264
832.546
834.066
831.126
840.376
842.867
846.007
837.34
839.529
837.627
891.497
895.405
897.306
899.256
896.803
900.726
900.878
895.592
891.511
889.432
872.706
861.383
850.163
853.328
862.715
840.977
834.491
843.297
881.503
892.435
897.986
874.244
884.253
873.929
895.076
885.153
-3072.81
-3112.47
-3008.29
-2988.54
-3020.45
-3465.06
-3485.48
-3463.44
-3544.27
-3510.56
-3497.59
-3266.08
-3318
-3261.89
-3429.05
-3385.03
-3327.94
822.939
819.254
818.48
821.378
820.425
824.084
827.217
825.499
827.458
829.631
828.535
813.216
810.288
810.501
814.811
816.935
816.479
825.112
817.574
819.172
829.805
833.694
826.757
828.255
830.26
827.772
827.664
826.244
825.875
824.981
827.337
827.879
-2064.24
-2051.46
-2102.85
-1963.48
-2006.99
-2033.21
-2222.08
-2255.42
-2146.82
-2158.62
-2171.73
-795.149
-805.061
-846.026
-707.135
-750.524
-752.878
720.684
710.715
738.253
731.206
684.554
687.972
684.162
689.79
685.959
703.095
696.808
788.949
787.13
785.307
791.598
789.129
790.448
787.725
781.901
778.753
783.627
782.446
786.74
-1241.42
469.915
449.66
445.647
246.614
249.26
272.651
221.858
225.305
218.492
454.118
141.923
121.855
88.3912
626.355
627.911
629.889
-233.542
7.90871
-19.898
61.665
59.5552
61.1308
-26.3251
-87.3603
-81.5151
-28.4884
580.488
604.545
597.157
512.608
495.83
480.563
488.303
459.481
439.36
447.026
400.99
377.503
381.824
313.845
291.329
286.883
196.752
181.787
163.284
59.3779
56.9792
23.6167
-79.4527
-69.6314
-112.565
-202.461
-185.067
-229.864
-301.145
-281.511
-322.105
-375.026
-356.965
535.572
526.364
502.258
521.767
501.625
468.127
492.191
452.952
411.32
435.408
366.302
323.911
337.141
231.885
203.359
191.586
62.3636
59.9843
18.5466
-106.568
-84.5181
-144.794
-245.575
-210.796
-274.336
-346.589
-310.209
-366.539
-415.985
-383.301
565.698
568.064
535.854
568.056
563.614
515.277
559.876
537.667
470.714
525.004
462.479
385.261
431.173
300.275
245.013
245.244
62.7081
63.0306
1.59969
-163.63
-117.023
-210.382
-323.992
-261.03
-354.023
-423.417
-362.313
-440.467
-478.023
-429.7
598.233
616.102
579.927
622.53
642.396
581.952
648.783
662.554
564.981
663.411
636.422
496.782
610.085
441.224
326.023
352.236
40.1531
60.9064
-59.0318
-292.589
-186.354
-349.397
-466.401
-352.533
-490.444
-536.525
-448.098
-545.634
-561.38
-496.889
625.905
659.063
627.825
672.203
720.449
662.974
740.137
813.454
699.647
843.262
943.24
698.752
968.765
812.614
499.482
708.267
-127.273
21.9619
-303.413
-593.92
-346.037
-636.537
-692.227
-513.683
-696.584
-690.112
-571.204
-684.238
-662.551
-585.438
641.162
684.158
667.483
701.648
767.541
736.354
795.532
909.421
847.259
962.819
1263.93
1040.18
1239.69
1434.02
1101.75
1117.38
131.38
282.338
-690.433
-763.247
-577.366
-1138.98
-1004.81
-764.36
-965.569
-865.019
-733.401
-836.835
-765.767
-688.92
639.394
683.814
686.474
701.569
764.721
771.419
789.7
877.568
911.929
951.974
1006.87
1024.78
1286.03
1360.07
1414.77
-2310.28
-1905.52
-1481.85
-1664.8
-1294.58
-1086.1
-1207.69
-1012.39
-906.961
-963.104
-847.086
-789.267
621.265
660.997
679.945
676.153
727.275
757.593
745.811
802.671
859.273
863.561
884.572
913.119
941.229
935.201
959.936
-3103.69
-2508.55
-2381.14
-1832.26
-1406
-1343.17
-1304
-1074.21
-1037.52
-1016.4
-881.058
-860.69
589.931
622.381
652.608
634.427
674.179
715.059
688.232
731.429
784.375
781.587
794.993
814.456
843.346
850.52
861.09
-2680.36
-2288.27
-2429.35
-1627.33
-1308.4
-1399.12
-1226.14
-1031.46
-1072.92
-980.419
-857.697
-880.461
548.541
572.633
610.826
581.523
611.01
659.256
621.923
658.244
713.93
710.436
725.433
742.714
785.445
796.035
804.007
-1876.13
-1702.18
-1930.87
-1247.81
-1082
-1259.85
-1033.85
-909.934
-1006.83
-874.974
-786.294
-843.598
500.389
515.595
558.897
521.089
539.045
593.747
545.689
568.284
637.61
627.675
638.298
665.654
718.426
735.93
753.383
-1109.66
-1128.14
-1280.15
-857.179
-820.932
-1016.82
-804.778
-753.064
-872.322
-735.881
-687.105
-763.18
448.725
455.069
500.631
457.049
462.335
520.036
463.8
467.023
543.333
522.722
521.186
567.214
575.548
588.663
622.249
-299.265
-380.752
-529.429
-379.387
-520.103
-764.421
-546.947
-590.379
-758.692
-596.173
-597.919
-712.981
-594.972
-580.452
-660.405
397.564
395.998
440.495
394.922
389.428
444.065
386.572
373.801
442.915
415.423
411.923
445.668
418.324
407.225
437.222
171.531
12.8669
-68.2618
-161.531
-309.382
-455.531
-344.174
-417.886
-541.496
-434.214
-465.774
-562.244
-471.763
-480.938
-554.461
348.799
340.886
381.777
337.429
323.956
372.311
318.185
296.614
353.06
288.331
264.881
315.177
226.185
190.177
199.928
124.444
-26.2403
-70.5981
-73.0545
-191.243
-273.377
-223.324
-299.639
-383.927
-318.987
-362.464
-437.282
-372.892
-395.163
-458.19
303.863
291.048
327.9
285.869
267.048
308.878
259.533
233.325
279.42
223.735
193.521
243.938
164.796
132.038
171.088
90.2775
-5.06035
-18.2454
-37.8852
-126.454
-171.212
-152.547
-219.486
-276.134
-238.048
-283.602
-340.362
-295.724
-324.565
-375.997
263.524
247.676
279.566
241.554
220.131
254.36
211.9
184.422
219.823
174.625
143.798
179.466
123.515
93.3611
120.606
65.7055
-0.449396
-2.83232
-24.4121
-91.3997
-115.487
-112.136
-167.931
-204.347
-184.264
-226.537
-267.543
-238.486
-268.625
-309.293
228.229
211.141
237.951
204.708
182.756
210.01
174.558
147.973
174.319
138.643
108.701
133.914
94.3834
66.7718
85.7905
47.471
-2.23234
-0.593281
-20.3954
-71.9656
-85.5629
-88.3304
-133.813
-158.176
-147.655
-184.917
-214.939
-195.913
-224.736
-256.663
197.583
180.297
202.975
173.893
152.561
174.658
144.845
120.57
140.458
112.175
84.3947
101.839
74.096
49.0263
61.5196
34.9977
-3.93434
-2.85185
-17.8966
-58.2573
-68.2134
-71.4286
-109.078
-126.928
-120.862
-153.36
-176.235
-163.22
-189.764
-215.283
171.014
154.208
173.38
148.075
128.076
145.988
121.055
99.5211
114.876
92.2149
67.4904
79.7369
59.8775
37.6948
45.6645
27.0824
-4.24514
-4.08223
-15.3729
-48.4864
-55.4035
-59.4956
-91.1895
-104.014
-101.199
-129.121
-146.696
-137.745
-161.438
-182.145
148.1
132.356
148.407
126.692
108.451
122.805
102.178
83.0382
95.089
76.5543
54.7829
64.1392
48.8142
29.3462
35.3389
20.855
-5.70377
-4.4795
-15.1404
-43.101
-46.8238
-52.2349
-78.3547
-87.6438
-86.6606
-110.175
-123.991
-117.56
-138.166
-155.225
128.249
113.863
127.489
108.752
92.4922
104.224
86.9564
70.0299
79.5867
64.2706
44.4571
52.0722
39.287
22.2547
27.3413
15.0292
-8.33673
-6.3804
-16.287
-38.976
-42.1373
-46.2882
-67.521
-75.5738
-74.4327
-94.3305
-106.003
-100.654
-118.458
-132.976
110.857
97.8653
109.681
93.2966
78.9192
88.9625
74.1121
59.127
67.213
54.053
36.8843
42.4829
32.2478
16.5399
20.5947
9.9806
-9.69254
-8.94662
-15.9488
-33.9023
-37.8267
-39.8757
-57.7487
-64.9721
-63.638
-80.5813
-90.7139
-85.972
-101.248
-113.961
95.5703
83.9623
94.2284
79.9224
67.2104
75.859
62.9358
49.7375
56.703
45.1205
29.0531
35.0419
24.6829
11.5201
14.9917
6.35643
-8.86453
-9.70855
-13.8621
-29.0605
-32.6269
-34.3194
-49.7577
-55.591
-54.7078
-68.8194
-77.469
-73.3078
-86.0996
-97.2863
82.1111
71.9159
80.8122
68.3838
57.4258
64.6364
53.6956
41.7834
47.6636
37.9409
24.9527
27.6068
21.302
10.5536
10.6952
6.08198
-7.16614
-8.5051
-11.6822
-25.7151
-28.1147
-30.287
-42.9817
-48.0243
-46.9965
-58.5485
-66.1493
-62.2387
-72.7437
-82.6141
70.2239
61.4352
69.1869
58.3789
48.9527
55.2622
45.9132
35.5246
40.0867
31.691
20.1433
24.2756
17.1466
8.66784
10.3292
4.97955
-6.67488
-6.90687
-10.8832
-22.5322
-25.0263
-26.0251
-36.0844
-41.3069
-39.3945
-49.0408
-56.1216
-52.1151
-60.7816
-69.6429
59.7464
52.2432
59.0575
49.6513
41.4633
47.0242
38.8419
31.1076
34.3283
28.0745
16.3962
18.6005
13.2583
6.65445
7.61885
3.66275
-6.44015
-6.78389
-9.5994
-17.9516
-21.5222
-20.7481
-29.3072
-34.3438
-32.1398
-40.291
-46.771
-42.8565
-50.0103
-57.9799
50.5038
44.0496
50.1528
41.8526
35.0063
39.8273
32.7057
26.3178
30.1185
24.7083
18.1437
16.8869
15.6073
8.03009
6.82212
4.64691
-3.72987
-5.99363
-6.07084
-13.4659
-16.7395
-16.0314
-23.4933
-27.7642
-25.8798
-32.6063
-38.2767
-34.7035
-40.4987
-47.5173
42.2386
36.5907
42.1715
34.6712
28.8321
33.5219
26.9588
20.313
24.8678
18.1607
12.0868
17.5511
10.1451
5.68723
7.71261
3.83763
-1.60169
-2.97939
-3.72924
-10.2802
-12.5686
-12.4048
-18.5164
-22.2006
-20.4552
-25.8709
-30.8558
-27.563
-32.2001
-38.3237
34.7962
29.87
34.899
28.2279
23.0935
27.3888
21.5876
16.6243
19.1322
14.5868
7.62578
10.1401
5.87985
4.02698
4.80197
3.00392
-1.25117
-1.46837
-2.79491
-7.56476
-9.60055
-9.24739
-14.0985
-17.3852
-15.6455
-19.9754
-24.3378
-21.3333
-25.0035
-30.3103
28.1903
23.9519
28.3938
22.6182
18.4033
21.9022
17.1492
14.0155
16.099
13.2319
9.32819
7.97228
7.66201
4.57584
4.03436
3.39214
0.225407
-1.04121
-0.934455
-5.02577
-6.91298
-6.40519
-10.2207
-13.1058
-11.4718
-14.9428
-18.6629
-16.0231
-18.8687
-23.3843
22.3676
18.7347
22.6767
17.6515
14.3858
17.4416
13.4329
10.2866
13.168
9.46756
6.59992
9.10381
5.39725
4.37069
4.49518
3.99999
1.60793
0.700341
0.392578
-2.97856
-4.48616
-4.01394
-7.00238
-9.38775
-8.01948
-10.7374
-13.8492
-11.5762
-13.7136
-17.5079
17.1253
14.1061
17.6308
13.2577
10.8411
13.5472
10.3193
8.35842
9.60764
7.63416
5.15545
5.72913
4.37782
4.30542
4.28257
3.88593
1.42814
1.65364
0.618259
-1.43071
-2.57695
-2.22094
-4.54439
-6.36414
-5.327
-7.3085
-9.84822
-7.92164
-9.41019
-12.581
12.1635
9.80932
13.1268
9.22207
7.5544
10.1166
7.33107
6.99337
8.19616
6.97358
5.65615
5.39493
4.62666
2.91661
4.1013
2.35278
1.26394
1.3097
0.916701
-0.523272
-1.17827
-1.16556
-2.80342
-4.10316
-3.34633
-4.61497
-6.61414
-5.00784
-5.84749
-8.47543
7.22913
5.61462
8.86622
5.27128
4.13124
6.81448
3.9811
3.56174
6.35523
3.54574
2.31225
5.0782
1.32529
0.796649
2.29152
0.95329
1.12037
1.23399
0.800161
-0.350643
-0.472857
-0.784414
-1.69106
-2.53474
-2.00862
-2.59698
-4.10164
-2.77419
-2.96273
-5.08752
3.57954
3.0272
4.71133
2.91366
2.09905
3.37317
1.87525
0.403782
2.70917
-0.351106
-0.486574
1.35327
0.248434
-0.236647
0.443883
-0.638124
-1.14933
0.928281
-1.35251
-1.71885
-0.446442
-1.88003
-1.9836
-1.56884
-2.01722
-1.71358
-2.23883
-1.59795
-1.02119
-2.36527
992.634
1034.56
1033.96
-3052.97
-3406.67
-3594.49
-1779.3
-2123.47
-1988.53
864.441
874.32
868.513
-3260.74
-3591.33
-3467.43
-3634.64
-3713.54
-3315.14
807.036
816.202
804.752
-2500.48
-2682.71
-2489.37
-3416.59
-3252.38
-3030.94
758.405
770.685
751.2
-1612.09
-1649.74
-1537.26
-2369.9
-2244.5
-2161.49
632.528
661.643
641.236
-508.863
-499.334
-472.064
-535.593
-593.286
-570.229
-1023.09
-998.552
-701.466
-1427.22
-1319.81
-1304.83
444.725
470.679
478.748
113.412
244.027
338.745
-422.619
-332.221
-386.293
34.4904
-14.752
71.6159
-447.997
-320.473
-164.028
-613.24
-384.618
-500.813
1786.48
1558
1285.91
4040.74
4207.15
4632.64
1089.66
1494.18
1371.58
1933.01
3189.35
-1176.95
-1133.26
-1441.58
128.03
-126.429
-602.702
-3789.68
-3940.04
-4041.18
-1896.13
-2336.24
-2222.05
-2325.51
-2020.32
-2497.53
-1709.5
-1902.27
-2068.21
-1469.06
-1697.84
-1548.84
835.688
858.914
841.414
889.422
875.923
840.331
939.411
891.545
904.43
-4598.81
-4720.82
-4706.28
-4774.59
-4775.82
-4644.44
-2475.34
-2505.7
-3097.39
-2034.08
-2284.14
-2268.19
-2187.65
-2258.89
-2006.08
759.651
776.886
763.437
812.836
790.549
766.962
828.111
800.666
820.901
834.772
846.619
835.288
854.732
850.973
846.398
872.366
869.638
874.314
-3450.89
-3500.66
-3460.66
-4161.11
-4131.14
-4059.81
-2013.03
-2216.42
-2586.51
-1856.68
-2034.06
-1915.75
-2216.89
-2136.55
-1935.66
687.394
707.184
691.846
754.724
723.83
695.67
757.471
734.223
762.286
786.315
793.452
779.425
812.546
806.531
805.625
816.787
814.335
818.281
-2230.31
-2268.82
-2191.89
-2786.19
-2662.03
-2612.59
582.2
624.419
603.088
660.603
631.854
587.827
682.997
645.691
675.879
706.176
729.045
703.892
753.759
737.056
725.114
782.602
777.315
785.141
-1034.21
-1075.62
-1076.49
-1261.81
-1274.01
-1070.76
-1536.64
-1467.86
-1456.08
459.909
505.594
494.7
514.108
507.443
459.148
572.2
523.9
534.674
535.805
576.42
564.691
557.566
554.945
543.812
651.493
645.167
650.744
186.731
350.27
369.364
227.571
296.394
182.162
316.691
273.561
236.387
1105.6
1052.04
1143.26
880.399
903.589
934.35
1788.08
1894.63
1991.74
1211.09
1300.6
1310.84
-4612.04
-4755.22
-4769.53
-4128.26
-4209.23
-4061.28
-3005.73
-3326.21
-2902.83
-3950.32
-3702.51
-3565.42
-4187.47
-4140.03
-4429.7
878.58
875.638
867.57
888.59
878.382
878.219
878.446
877.921
888.445
876.146
874.174
868.258
893.831
883.59
882.698
894.499
865.504
875.908
866.512