/*--------------------------------*- C++ -*----------------------------------*\
| =========                 |                                                 |
| \\      /  F ield         | OpenFOAM: The Open Source CFD Toolbox           |
|  \\    /   O peration     | Version:  v1912                                 |
|   \\  /    A nd           | Website:  www.openfoam.com                      |
|    \\/     M anipulation  |                                                 |
\*---------------------------------------------------------------------------*/
FoamFile
{
    version     2.0;
    format      ascii;
    class       surfaceScalarField;
    location    "100";
    object      phi;
}
// * * * * * * * * * * * * * * * * * * * * * * * * * * * * * * * * * * * * * //

dimensions      [0 3 -1 0 0 0 0];
oriented        oriented;


internalField   nonuniform List<scalar> 
25162
(
0.000398595
0.916252
0.000459384
0.916639
0.000498159
0.916611
0.000238807
0.916661
0.000248478
0.458339
0.000249197
0.458323
0.000295609
-0.000318663
-0.000380643
0.458306
0.000424342
-0.000466786
0.458257
0.000544832
-0.000629166
0.458239
0.000720305
-0.000826955
0.458219
0.000942625
-0.00105909
0.458218
0.00117632
-0.00129303
0.458239
0.00138609
-0.00146072
0.458287
0.00150758
-0.00152048
0.458353
0.00150299
-0.00145777
0.458404
0.00138432
-0.00129888
0.458431
0.00120271
-0.00109135
0.458436
0.000990179
-0.000887309
0.458448
0.000754045
-0.000721585
0.458423
0.00064837
-0.000535931
0.458444
0.000441556
-0.00186045
0.918539
0.000356869
-0.000386062
-0.00115741
0.918646
-3.95475e-05
0.915731
0.91376
0.00109703
0.915155
0.00167927
0.916057
0.00178563
0.916505
0.000364228
0.917379
0.000703011
0.458162
0.000440869
-0.458238
-0.45824
-0.000544627
0.458105
0.000679328
-0.458122
-0.000852352
0.457906
0.000505382
0.000563578
-0.229018
-0.000627672
0.228951
0.000694914
-0.000946168
-0.228971
0.228881
0.00103657
-0.00136159
-0.228929
0.228807
0.00148349
-0.00186573
-0.228916
0.228779
0.00200216
-0.00237524
-0.228947
0.228823
0.00249907
-0.00276907
-0.229039
0.228968
0.00283999
-0.00291845
-0.229165
0.229164
0.00291933
-0.00278164
-0.229271
0.229333
0.00271907
-0.00243568
-0.229336
0.229437
0.00233533
-0.00199262
-0.22935
0.22946
0.00188269
-0.00155494
-0.229338
0.229433
0.00146016
-0.458745
-0.00213129
0.460014
0.000861107
0.000309745
0.460737
-0.00188089
-0.459167
-0.00213575
0.917726
0.000914138
0.002033
-0.00128468
0.917794
0.000222992
0.914223
0.913983
0.00136681
0.913788
0.00373608
0.913688
0.00631238
0.913928
0.00241289
0.91547
0.00580892
-0.458205
0.458124
0.00249425
-0.458024
-0.00236456
0.458803
0.00158522
-0.45762
-0.00151577
0.457568
0.000764174
0.000803382
-0.228668
-0.000980158
0.228547
0.00110212
-0.228477
-0.00155241
0.228296
0.00173274
-0.228291
-0.00235895
0.228059
0.00259095
-0.228198
-0.00336917
0.227924
0.00364318
-0.228309
-0.0044587
0.228062
0.0047055
-0.228688
-0.00531552
0.228552
0.00545146
-0.229221
-0.00563375
0.229248
0.00560672
-0.229687
-0.00532374
0.229845
0.00516623
-0.229937
-0.00457015
0.230166
0.00434158
-0.229983
-0.00365022
0.230216
0.00341656
-0.00247627
-0.229946
0.230526
0.00189646
-0.462422
0.00151358
0.460975
-6.71079e-05
-0.45968
-0.000307858
0.459475
0.000511819
-0.000571687
0.919022
-0.000514581
-0.00021027
0.00120971
0.916012
0.000573314
0.914858
0.914556
0.000339973
0.913448
0.000743074
0.913285
0.00167411
0.912998
0.00263956
0.91292
0.00158377
-0.457488
0.457179
0.0029487
-0.460502
-0.00400306
0.457636
0.00686901
-0.459255
-0.00791571
0.461053
0.00138616
0.00473151
-0.228101
-0.00123323
0.227978
0.00135681
-0.227643
-0.0019784
0.227388
0.0022332
-0.22716
-0.00316491
0.226793
0.00353255
-0.226846
-0.00478403
0.22639
0.00524002
-0.227043
-0.00665332
0.226588
0.00710859
-0.227975
-0.00826409
0.22771
0.00852953
-0.229354
-0.00884892
0.229415
0.00878797
-0.23051
-0.00819866
0.230807
0.0079009
-0.231071
-0.00682603
0.23148
0.00641711
-0.233417
-0.000434505
0.237232
-0.00338105
-0.0022861
-0.231066
0.23095
0.00240255
-0.460632
-0.00368145
0.461466
0.00284701
-0.459971
-0.00194823
0.460703
0.00121544
0.00216936
0.918453
-0.000903396
-0.000698743
0.00164229
0.916538
0.00077176
0.915728
0.915327
-4.25649e-05
0.913492
-6.91692e-05
0.913312
-1.52428e-05
0.912943
0.000717293
0.912288
-9.98983e-05
-0.457048
0.456398
0.00136772
-0.456412
-0.00161282
0.455997
0.00202841
-0.455241
-0.00263479
0.454768
0.00169761
0.00140966
-0.228882
-0.00335831
0.227122
0.00511791
-0.227291
-0.00803471
0.229174
0.00615112
-0.225507
-0.00366239
0.225101
0.00406845
-0.224675
-0.00582005
0.223965
0.0065303
-0.22469
-0.00896472
0.223822
0.00983298
-0.226577
-0.0121474
0.22604
0.0126846
-0.229744
-0.013168
0.230105
0.0128073
-0.232095
-0.0101939
0.232862
0.0094269
-0.240465
0.000174853
0.237089
0.00320081
-0.232527
-0.00561851
0.23296
0.00518549
-0.00382233
-0.231919
0.232311
0.00343099
-0.462719
-0.00443136
0.46388
0.00326989
-0.461361
-0.00248926
0.462034
0.00181569
0.00301688
0.919771
-0.00255423
-0.00178252
0.00169878
0.917855
0.000786895
0.916638
0.916113
-0.000282274
0.913774
-0.000505804
0.913536
-0.000563704
0.913003
-0.000267859
0.912242
-0.000249837
-0.455662
0.455509
-0.000114394
-0.455706
-0.000669795
0.455157
0.00121914
-0.454271
-0.00150543
0.453575
0.00106875
0.00113233
-0.226192
-0.00139071
0.22603
0.00155313
-0.224782
-0.00231769
0.224427
0.00267316
-0.225182
-0.0060091
0.223062
0.00812942
-0.222998
-0.0115728
0.223875
0.010696
-0.220623
-0.0133534
0.220559
0.013418
-0.223607
-0.0181152
0.222514
0.0192081
-0.233258
-0.0170086
0.233417
0.0168491
-0.241943
-0.00789975
0.239498
0.0103451
-0.235538
-0.0102562
0.236517
0.00927647
-0.234778
-0.00668586
0.235571
0.00589263
-0.00347263
-0.233912
0.234321
0.00306309
-0.464836
-0.00485924
0.465828
0.00386733
-0.462325
-0.00316783
0.462582
0.00290984
0.00267577
0.92151
-0.00218374
-0.00223259
0.0015277
0.919002
0.00064789
0.917518
0.91676
-0.000621787
0.914398
-0.00114916
0.914065
-0.00159453
0.913448
-0.000459222
0.912244
-0.00113654
-0.455504
0.455343
-0.000297126
-0.454316
0.000220676
0.454142
-4.64133e-05
-0.453501
-0.00068979
0.453374
0.000348849
0.00046847
-0.225498
-0.000562933
0.225369
0.000692553
-0.223708
-0.0012984
0.223401
0.0016057
-0.220899
-0.00238694
0.220556
0.0027293
-0.217938
-0.00514359
0.216135
0.00694592
-0.216334
-0.0181704
0.110503
0.105116
0.00745763
0.0114277
-0.0144871
-0.108599
0.107955
0.0151313
-0.0125279
-0.241102
0.0245024
-0.0127244
0.120478
0.121374
-0.0191866
-0.241203
0.243658
0.0167306
-0.2405
-0.0103695
0.241798
0.00907205
-0.237839
-0.0066639
0.238604
0.00589927
-0.00400462
-0.235553
0.236059
0.00349833
-0.466848
-0.00451236
0.467388
0.00397223
-0.463309
-0.00304227
0.464051
0.00229939
0.00185801
0.922888
-0.00155284
-0.00168344
0.000963495
0.919896
0.000398859
0.918081
0.917159
-0.000947129
0.915346
-0.0018699
0.914989
-0.00265044
0.914231
-0.00149916
0.913052
-0.00195778
-0.455406
0.455513
-0.00160487
-0.45415
0.00177087
0.454194
-0.00181492
-0.452327
0.00182919
0.452252
-0.00084988
-0.000905146
-0.225115
0.000404804
0.225082
-0.000372208
-0.222956
0.000425508
0.223144
-0.000613256
-0.220007
0.000732629
0.219942
-0.000667239
-0.214557
0.000493352
0.214624
-0.000560746
-0.101755
0.000453574
0.102153
-0.0008525
-0.0211617
-0.129278
0.131504
0.0189352
-0.0194927
-0.252178
0.255145
0.0165251
-0.24597
-0.0104359
0.24738
0.00902566
-0.241239
-0.00594655
0.242028
0.00515682
-0.00330049
-0.23755
0.237973
0.00287756
-0.468356
-0.00327459
0.46918
0.00245044
-0.464673
-0.0018493
0.465234
0.0012877
0.000411154
0.923699
-0.000418525
-0.000804527
8.64113e-05
0.92022
5.6368e-06
0.918162
0.917164
-0.00123904
0.916587
-0.0024252
0.916177
-0.00371453
0.915522
-0.00224597
0.914247
-0.00266118
-0.45576
0.456001
-0.00248635
-0.454381
0.0027597
0.454658
-0.00303596
-0.452311
0.00331489
0.452593
-0.0017239
-0.00187412
-0.225434
0.00207279
0.225512
-0.00215046
-0.223296
0.00244656
0.223417
-0.00256825
-0.220303
0.00307897
0.22054
-0.00331737
-0.215976
0.00437728
0.216527
-0.00492936
-0.105982
0.00381311
0.106331
-0.00416255
-0.0100981
-0.143667
0.144441
0.00932456
-0.0097089
-0.262289
0.263707
0.00829044
-0.250862
-0.00518077
0.251595
0.00444844
-0.243706
-0.00276069
0.244045
0.00242126
-0.0015426
-0.238969
0.239201
0.00131064
-0.470318
-0.00136149
0.471323
0.000356428
-0.465556
0.000162693
0.465813
-0.000419869
-0.00138163
0.923559
0.000905238
0.000616557
-0.00102425
0.919863
-0.000546251
0.917683
0.916618
-0.00147653
0.918066
-0.00307206
0.917775
-0.00460978
0.917063
-0.00293566
0.915912
-0.00333662
-0.456383
0.456757
-0.0033085
-0.454974
0.00373161
0.455472
-0.00422758
-0.452994
0.00470229
0.453602
-0.00251248
-0.00279838
-0.225886
0.00301733
0.226043
-0.00317316
-0.223952
0.00374584
0.224179
-0.00397205
-0.221413
0.00477745
0.221742
-0.00510665
-0.21801
0.00625535
0.218436
-0.00668223
-0.107402
0.00390995
0.107485
-0.00199203
-0.00200097
0.00475081
-0.143923
0.143225
-0.00405216
0.00379254
-0.264557
0.263828
-0.00306318
-0.252232
0.00181285
0.25201
-0.00159024
-0.244533
0.00117249
0.244446
-0.0010852
0.000875275
-0.239468
0.239436
-0.00084307
-0.471447
0.00175943
0.471199
-0.00151242
-0.465787
0.00161737
0.466334
-0.00216522
-0.00340898
0.922423
0.00248067
0.00206482
-0.00224789
0.918702
-0.00115059
0.916586
0.915468
-0.00179222
0.919861
-0.00357013
0.919556
-0.00547434
0.91897
-0.00356742
0.917945
-0.00393737
-0.45726
0.457754
-0.00405852
-0.455995
0.00466039
0.456536
-0.00519865
-0.454507
0.00583365
0.455597
-0.0034052
-0.00351748
-0.22662
0.00378174
0.226839
-0.00399917
-0.224954
0.00475938
0.22524
-0.00504347
-0.222789
0.00601817
0.22316
-0.00638863
-0.219606
0.00757679
0.219996
-0.00796643
-0.108037
0.00444726
0.108101
-0.0022464
-0.00226513
0.0129428
-0.136463
0.135362
-0.0118414
0.0138795
-0.259527
0.257564
-0.0119149
-0.250148
0.00779386
0.249223
-0.00686826
-0.2436
0.004898
0.243074
-0.00437212
0.00327101
-0.238925
0.238697
-0.0030428
-0.470695
0.0047682
0.469967
-0.00404044
-0.466805
0.0034043
0.466229
-0.00282876
-0.00528751
0.92049
0.00372338
0.00349962
-0.00344941
0.916866
-0.00169669
0.914834
0.913772
-0.00207039
0.921935
-0.00414237
0.921631
-0.00631472
0.921146
-0.00410043
0.920119
-0.00438385
-0.458354
0.458946
-0.00468898
-0.457234
0.00534115
0.457933
-0.00603668
-0.456607
0.00678829
0.457726
-0.00391058
-0.00399511
-0.227554
0.00435705
0.227813
-0.00461383
-0.226165
0.00547887
0.226496
-0.00580786
-0.224347
0.00690188
0.224768
-0.00732063
-0.221339
0.00875321
0.221877
-0.00928797
-0.108787
0.00550123
0.108965
-0.00281954
-0.00285904
0.0152596
-0.128028
0.127014
-0.0142454
0.0183226
-0.251403
0.249393
-0.0163124
-0.245997
0.0115245
0.244828
-0.0103548
-0.240998
0.00755729
0.240131
-0.00668963
0.0051084
-0.23741
0.236909
-0.00460622
-0.469054
0.00731664
0.467957
-0.00621915
-0.465621
0.00527046
0.464826
-0.00447525
-0.00701462
0.919405
0.00426096
0.00384092
-0.00451083
0.914363
-0.00217914
0.912505
0.911594
-0.00599479
0.927932
-0.0121395
0.92778
-0.0183331
0.927345
-0.00474746
0.926659
-0.0201224
-0.459567
0.46029
-0.00546673
-0.458622
0.0061991
0.459454
-0.00702764
-0.458731
0.00780992
0.45937
-0.00420933
-0.00423723
-0.228609
0.00472926
0.228876
-0.00499514
-0.227506
0.00590666
0.227847
-0.0062457
-0.226069
0.00739233
0.226503
-0.00782504
-0.223713
0.00941156
0.224372
-0.00503237
-0.00503685
-0.0553365
0.00316153
0.0553973
-0.0032221
-0.0522725
0.00437727
0.0522422
-0.00885876
0.00451159
0.0131843
-0.121423
0.240445
-0.0237535
0.012915
-0.121367
-0.243994
0.0182573
0.242046
-0.0163085
-0.240867
0.0125631
0.239677
-0.0113734
-0.237875
0.00868835
0.23714
-0.00795328
0.0061314
-0.235287
0.234779
-0.00562337
-0.466577
0.0090459
0.46522
-0.00768862
-0.464008
0.00672928
0.463106
-0.00582598
-0.0083942
0.917242
0.00552507
0.00503641
-0.0053945
0.911367
-0.00265776
0.90977
0.908937
-0.00233447
0.930271
-0.00472594
0.930176
-0.00722863
0.929851
-0.0049146
0.929349
-0.00499975
-0.462908
0.46362
-0.00562281
-0.462079
0.00638598
0.462888
-0.00719201
-0.460928
0.00805713
0.461866
-0.00447971
-0.00451261
-0.229762
0.00498993
0.230038
-0.0052657
-0.228956
0.00617907
0.22929
-0.00651337
-0.227976
0.00762666
0.228393
-0.00804303
-0.226813
0.00951559
0.22741
-0.00506154
-0.00505158
-0.0571749
0.00621951
0.114768
-0.0573206
-0.00324423
-0.00324771
-0.108988
0.006662
0.109431
-0.0136347
0.00652876
0.0238896
-0.236347
0.235011
-0.0225545
-0.237329
0.0146394
0.236421
-0.0137317
-0.237136
0.0114057
0.236831
-0.0111012
-0.235197
0.00855218
0.234751
-0.00810548
0.00635852
-0.233346
0.232921
-0.00593362
-0.46413
0.00966053
0.463239
-0.00876864
-0.462196
0.00783379
0.461048
-0.00668393
-0.00762318
0.914352
0.00518592
0.00533135
-0.00595567
0.909702
-0.00291033
0.906728
0.906029
-0.00240995
0.932684
-0.0048739
0.932643
-0.00743935
0.932422
-0.0050629
0.932082
-0.00510686
-0.464356
0.46509
-0.0057946
-0.463702
0.00656838
0.464515
-0.00737801
-0.462798
0.00823915
0.463724
-0.00457689
-0.00458591
-0.230864
0.00508837
0.231135
-0.00535906
-0.230273
0.00623869
0.230589
-0.00655449
-0.229589
0.00758185
0.229963
-0.00795591
-0.229044
0.00921563
0.229519
-0.009691
-0.116923
0.0116262
0.234183
-0.0109848
-0.117901
-0.225465
0.0178191
0.226095
-0.0184484
-0.232525
0.0180138
0.232039
-0.0175275
-0.233547
0.015617
0.232826
-0.0148962
-0.233371
0.0127216
0.232673
-0.0120242
-0.232466
0.0100789
0.231871
-0.00948439
0.00786786
-0.232936
0.230827
-0.0057585
-0.46252
0.0113766
0.460109
-0.0089652
-0.459852
0.00811345
0.458409
-0.00666803
-0.00792147
0.911569
0.00541999
0.0052895
-0.00595103
0.907735
-0.00308574
0.903866
0.902944
-0.00243501
0.935123
-0.00491712
0.93513
-0.00748856
0.934995
-0.00509373
0.934797
-0.00510533
-0.465821
0.466555
-0.00582628
-0.465318
0.00658782
0.46611
-0.00737743
-0.464633
0.00820946
0.465521
-0.00455294
-0.00454268
-0.231928
0.00504506
0.232185
-0.00530114
-0.231494
0.00611629
0.231781
-0.00640231
-0.231006
0.00730869
0.231327
-0.00762956
-0.23079
0.00867326
0.231174
-0.00905657
-0.231372
0.0106033
0.230101
-0.00933145
-0.227935
0.0135097
0.228399
-0.0139727
-0.231141
0.0140489
0.230965
-0.0138729
-0.231205
0.0129528
0.230801
-0.0125487
-0.230934
0.01119
0.230457
-0.0107131
-0.230296
0.0092899
0.229835
-0.00882943
0.00752276
-0.229504
0.229096
-0.00711426
-0.460036
0.0119391
0.457962
-0.00986448
-0.4561
0.00703794
0.455074
-0.00600976
-0.00714794
0.907268
0.00599481
0.00545895
-0.00353806
0.904129
-0.00314783
0.903479
0.899799
-0.00241704
0.937541
-0.00487312
0.937588
-0.00739979
0.937527
-0.00502798
0.937439
-0.00501289
-0.467263
0.467981
-0.00574503
-0.466884
0.00647839
0.467639
-0.00723158
-0.466382
0.0080179
0.467216
-0.00443614
-0.00441418
-0.232927
0.0048997
0.233165
-0.00513743
-0.232594
0.00588033
0.23285
-0.00613584
-0.232219
0.00692882
0.232493
-0.00720315
-0.232215
0.00806849
0.232529
-0.00838249
-0.225912
0.00927358
0.224449
-0.00781089
-0.229425
0.0111148
0.229669
-0.0113575
-0.230624
0.0114624
0.230546
-0.0113845
-0.229867
0.0108876
0.229623
-0.0106443
-0.229268
0.00975997
0.228938
-0.00942913
-0.228624
0.00838771
0.22827
-0.00803384
0.00698801
-0.227988
0.227648
-0.00664812
-0.45487
0.0113094
0.453699
-0.0101376
-0.454016
0.00901404
0.452937
-0.00793275
-0.00647153
0.901982
0.00680623
0.00495548
-0.00321969
0.900881
-0.00281941
0.903083
0.896981
-0.00236363
0.939908
-0.00475653
0.939985
-0.00720554
0.939976
-0.00488655
0.939975
-0.0048523
-0.468654
0.469345
-0.0055771
-0.468371
0.00627279
0.46908
-0.00698136
-0.46802
0.00771527
0.468795
-0.00425989
-0.00422941
-0.233851
0.00469221
0.234071
-0.00491146
-0.233577
0.00558799
0.233807
-0.00581775
-0.233263
0.00652181
0.233502
-0.00676145
-0.233396
0.0075
0.233663
-0.00776651
-0.22007
0.00811755
0.218647
-0.00669369
-0.23018
0.00961062
0.230289
-0.00971979
-0.230359
0.0097296
0.230301
-0.00967161
-0.229027
0.00933434
0.22886
-0.00916686
-0.228093
0.00853935
0.22785
-0.00829659
-0.227333
0.00750715
0.227056
-0.0072302
0.00638744
-0.226732
0.22645
-0.00610533
-0.452609
0.0105055
0.451598
-0.00949316
-0.451928
0.00850308
0.450958
-0.00753101
-0.00957432
0.898537
0.00644388
0.00658094
-0.00629308
0.897603
-0.000265624
0.897059
0.896718
-0.00228347
0.942192
-0.0045878
0.94229
-0.00692947
0.942321
-0.00469126
0.94238
-0.00464345
-0.469978
0.470635
-0.00534804
-0.469765
0.00600187
0.470427
-0.00666335
-0.469541
0.00734486
0.47026
-0.00404957
-0.00401287
-0.234703
0.00445118
0.234906
-0.00465331
-0.234466
0.00527305
0.234676
-0.00548264
-0.234185
0.00612173
0.234401
-0.0063376
-0.234416
0.00699509
0.234654
-0.00723269
-0.214612
0.0071752
0.213363
-0.00592559
-0.230481
0.00857138
0.230504
-0.00859334
-0.230126
0.00849698
0.230062
-0.00843275
-0.22842
0.00814297
0.228287
-0.0080096
-0.227211
0.00751918
0.227021
-0.00732912
-0.226314
0.00670438
0.226091
-0.00648178
0.00579166
-0.225689
0.225453
-0.00555566
-0.450658
0.00964398
0.449784
-0.00876931
-0.450058
0.00790085
0.449193
-0.00703464
-0.00902234
0.895377
0.00601109
0.00617367
-0.00595992
0.894543
-0.00296071
0.894064
0.893758
-0.00218335
0.944378
-0.00437858
0.944487
-0.00660008
0.944541
-0.00445995
0.944644
-0.00440286
-0.471227
0.471846
-0.00507965
-0.471065
0.00569073
0.471681
-0.0063066
-0.470951
0.00693887
0.471617
-0.00382105
-0.00378283
-0.235488
0.00419281
0.235674
-0.00437893
-0.23528
0.00494882
0.235473
-0.00514193
-0.235022
0.00573117
0.235221
-0.00593014
-0.23534
0.00653704
0.23556
-0.0067572
-0.209988
0.00641691
0.208993
-0.00542143
-0.230477
0.00777325
0.230437
-0.00773326
-0.229854
0.00754359
0.229777
-0.00746641
-0.227916
0.0071828
0.227799
-0.00706546
-0.226507
0.00665353
0.226351
-0.00649724
-0.225488
0.0059862
0.225305
-0.00580355
0.00523092
-0.224815
0.224615
-0.00503175
-0.448969
0.00879449
0.448208
-0.00803306
-0.448394
0.00726896
0.447624
-0.00649854
-0.00839621
0.892504
0.00554932
0.00572282
-0.00557001
0.89172
-0.00277584
0.891271
0.890984
-0.00207049
0.946447
-0.00414645
0.946562
-0.0062346
0.94663
-0.00420835
0.946761
-0.00414431
-0.472396
0.472976
-0.00478933
-0.472274
0.00535878
0.472846
-0.00593164
-0.472257
0.00651857
0.472873
-0.00358601
-0.00354835
-0.236208
0.00392807
0.236379
-0.00409846
-0.236031
0.00462164
0.236209
-0.00479994
-0.235798
0.00534631
0.235983
-0.00553175
-0.236201
0.00610459
0.236408
-0.00631147
-0.206443
0.00580912
0.205733
-0.0050998
-0.230251
0.00709124
0.230165
-0.00700548
-0.22953
0.00674231
0.229442
-0.00665385
-0.227464
0.00636734
0.227356
-0.00625969
-0.225922
0.00590129
0.225791
-0.00576961
-0.224807
0.00534505
0.224656
-0.00519407
0.00471713
-0.224076
0.223908
-0.00454855
-0.447495
0.00799297
0.446825
-0.00732325
-0.446912
0.00664646
0.446225
-0.00595903
-0.00774309
0.8899
0.00508605
0.00526095
-0.00515563
0.889133
-0.00257486
0.888693
0.888409
-0.00194942
0.948397
-0.00389746
0.948511
-0.00585152
0.948581
-0.00394572
0.948732
-0.00387724
-0.473486
0.474027
-0.00448751
-0.473397
0.00501665
0.473928
-0.00554887
-0.473465
0.00609301
0.474033
-0.00334905
-0.00331194
-0.236865
0.00366075
0.23702
-0.00381522
-0.236722
0.0042923
0.236886
-0.00445627
-0.236521
0.004962
0.236694
-0.00513527
-0.237008
0.00567986
0.2372
-0.00587276
-0.204032
0.00531549
0.203596
-0.00487851
-0.229857
0.0064577
0.229736
-0.00633696
-0.229166
0.00602158
0.229071
-0.0059259
-0.227048
0.00564138
0.226949
-0.00554233
-0.225428
0.00522889
0.225317
-0.00511773
-0.224246
0.00476593
0.224121
-0.00464202
0.00424798
-0.223453
0.223311
-0.00410619
-0.446195
0.00724898
0.445601
-0.00665498
-0.44559
0.00605138
0.444974
-0.00543597
-0.00709286
0.887547
0.00463876
0.00480737
-0.00473558
0.886777
-0.00237057
0.886328
0.886039
-0.00182484
0.95022
-0.00364426
0.950329
-0.00546086
0.950397
-0.00368163
0.950559
-0.00360896
-0.4745
0.475
-0.00418404
-0.474439
0.00467417
0.47493
-0.00516714
-0.474576
0.00566974
0.475096
-0.00311377
-0.00307611
-0.237459
0.00339489
0.237598
-0.00353367
-0.237356
0.00396577
0.237506
-0.00411589
-0.237196
0.00458283
0.237358
-0.00474479
-0.237754
0.00526089
0.237931
-0.00543774
-0.202644
0.00490502
0.202431
-0.00469155
-0.229335
0.00584845
0.229187
-0.00570104
-0.228781
0.00535327
0.228682
-0.00525471
-0.226666
0.00497982
0.226577
-0.00489006
-0.225013
0.00461915
0.22492
-0.00452655
-0.223786
0.00423923
0.223686
-0.00413926
0.00381919
-0.222931
0.222813
-0.0037016
-0.445041
0.00656434
0.444511
-0.00603552
-0.444404
0.00549488
0.44385
-0.00494207
-0.00646626
0.885421
0.00421598
0.0043753
-0.004327
0.884637
-0.00216885
0.884171
0.88387
-0.00169986
0.951919
-0.00338984
0.952018
-0.00507386
0.952077
-0.00342055
0.952248
-0.00334404
-0.475438
0.475899
-0.00388364
-0.475402
0.00433536
0.475854
-0.00478957
-0.475592
0.00525045
0.476063
-0.00288093
-0.00284132
-0.23799
0.00313227
0.238114
-0.00325628
-0.237936
0.00364687
0.238074
-0.00378435
-0.237827
0.00421617
0.237979
-0.00436794
-0.238433
0.00485312
0.238592
-0.00501192
-0.202052
0.00454882
0.201998
-0.00449506
-0.228717
0.0052602
0.22855
-0.00509317
-0.228389
0.00472751
0.228291
-0.00463006
-0.226323
0.00437275
0.226244
-0.00429342
-0.224668
0.0040639
0.224592
-0.00398819
-0.223418
0.0037576
0.223339
-0.00367847
0.00342367
-0.222501
0.222405
-0.00332794
-0.444012
0.00593062
0.443542
-0.00546145
-0.443338
0.00497727
0.44284
-0.00448095
-0.00587354
0.8835
0.00382178
0.0039698
-0.00393611
0.882699
-0.00197592
0.882209
0.881894
-0.00157705
0.953494
-0.00314189
0.95358
-0.00469551
0.953629
-0.00316613
0.953802
-0.00308679
-0.476302
0.476723
-0.00358995
-0.476287
0.00400345
0.476699
-0.00441849
-0.47651
0.00483709
0.476932
-0.00265034
-0.00261042
-0.238465
0.00287411
0.238576
-0.00298511
-0.238469
0.00334053
0.238596
-0.00346757
-0.238418
0.0038701
0.238561
-0.00401269
-0.239037
0.00446544
0.239177
-0.00460483
-0.202003
0.00422502
0.202049
-0.00427095
-0.22803
0.00469977
0.227848
-0.00451836
-0.228007
0.00414776
0.227914
-0.00405518
-0.226023
0.00382207
0.225954
-0.003754
-0.224388
0.0035633
0.224326
-0.00350207
-0.223127
0.0033181
0.223065
-0.00325582
0.00305535
-0.222154
0.222077
-0.0029787
-0.443101
0.0053397
0.442688
-0.00492763
-0.44238
0.00449661
0.441935
-0.00405246
-0.00531973
0.881768
0.00345668
0.0035923
-0.00356945
0.880946
-0.001793
0.880432
0.8801
-0.00145846
0.954951
-0.002902
0.955022
-0.00433203
0.955056
-0.002921
0.955228
-0.00283907
-0.477093
0.477475
-0.00330575
-0.477093
0.00368107
0.477466
-0.00405644
-0.477332
0.00443248
0.477708
-0.00242412
-0.00238564
-0.238891
0.00262423
0.238991
-0.00272497
-0.238963
0.00305455
0.239083
-0.00317425
-0.238975
0.00355556
0.23911
-0.00369062
-0.239563
0.00411045
0.239682
-0.00423046
-0.202276
0.00392364
0.202375
-0.00402246
-0.227291
0.00418202
0.227099
-0.00399143
-0.227647
0.00362671
0.227562
-0.00354196
-0.225767
0.0033389
0.22571
-0.0032819
-0.22416
0.00312443
0.224109
-0.00307412
-0.222897
0.00292317
0.222846
-0.00287269
0.00271268
-0.221877
0.221816
-0.00265163
-0.442303
0.00478525
0.441946
-0.00442903
-0.441525
0.00404948
0.441128
-0.00365504
-0.00480578
0.880209
0.00311886
0.00324249
-0.00322704
0.879366
-0.00162243
0.878825
0.878477
-0.00134591
0.956295
-0.00267553
0.956349
-0.00398807
0.956366
-0.00268756
0.95653
-0.00260518
-0.477812
0.478156
-0.00303394
-0.477819
0.00337132
0.478153
-0.00370683
-0.478063
0.004041
0.478396
-0.00220648
-0.00216916
-0.239281
0.00238841
0.239375
-0.00248255
-0.239434
0.00279802
0.239549
-0.0029141
-0.239504
0.00328328
0.239634
-0.00341313
-0.240011
0.00380319
0.240111
-0.00390383
-0.20271
0.00364463
0.202831
-0.00376551
-0.226519
0.003725
0.226323
-0.0035287
-0.227323
0.00318056
0.227249
-0.00310633
-0.225553
0.00293519
0.225506
-0.00288778
-0.223969
0.00275376
0.223924
-0.00270958
-0.222705
0.00257551
0.22266
-0.00253129
0.00239672
-0.221657
0.221607
-0.00234731
-0.441616
0.0042639
0.441313
-0.00396212
-0.440766
0.00363321
0.440418
-0.00328677
-0.00433221
0.87881
0.00280791
0.00291948
-0.00291148
0.877943
-0.00146421
0.877376
0.877011
-0.00124131
0.957534
-0.00246483
0.95757
-0.00366847
0.957567
-0.00246843
0.957716
-0.00238782
-0.478461
0.478769
-0.00277769
-0.478467
0.00307795
0.478762
-0.00337432
-0.478711
0.00366871
0.479008
-0.0020014
-0.00196531
-0.239651
0.00217176
0.239742
-0.0022635
-0.239895
0.00257777
0.240011
-0.00269411
-0.240015
0.00305983
0.240141
-0.00318601
-0.240382
0.00354958
0.240463
-0.00363172
-0.203204
0.00339111
0.20333
-0.00351789
-0.225732
0.00334457
0.225535
-0.00314747
-0.227042
0.00282242
0.226978
-0.0027588
-0.225374
0.0026156
0.225333
-0.0025745
-0.223794
0.00244933
0.22375
-0.00240571
-0.22253
0.00227249
0.222487
-0.00222957
0.0021073
-0.221476
0.221435
-0.00206578
-0.441037
0.00377482
0.440786
-0.00352518
-0.440103
0.00324586
0.439801
-0.00294608
-0.00389855
0.877561
0.00252246
0.00262215
-0.00262193
0.876664
-0.00131923
0.876071
0.875691
-0.00114604
0.958679
-0.00227333
0.958696
-0.00337774
0.958669
-0.00226649
0.958794
-0.00219051
-0.479043
0.479316
-0.00254086
-0.479038
0.00280567
0.479296
-0.00306499
-0.47929
0.00332348
0.479559
-0.00181297
-0.00178022
-0.240017
0.00197941
0.240111
-0.00207332
-0.240363
0.0023995
0.240483
-0.00251972
-0.240514
0.00289045
0.240638
-0.00301473
-0.24068
0.00335468
0.240745
-0.00341937
-0.203702
0.00316719
0.203824
-0.00328943
-0.224948
0.00304395
0.224755
-0.00285059
-0.226802
0.0025523
0.226749
-0.00249898
-0.225212
0.00237529
0.225172
-0.00233536
-0.223613
0.00220221
0.223564
-0.00215383
-0.222354
0.00200829
0.222309
-0.00196305
0.0018435
-0.221322
0.221286
-0.00180693
-0.44056
0.00331971
0.440358
-0.00311854
-0.439531
0.00288706
0.439275
-0.0026324
-0.00350409
0.876451
0.00226171
0.00235021
-0.0023591
0.875518
-0.00118725
0.874898
0.874503
-0.0010619
0.95974
-0.00210434
0.959737
-0.0031207
0.959685
-0.0020854
0.959775
-0.0020168
-0.479561
0.479803
-0.00232809
-0.479537
0.0025605
0.479763
-0.00278659
-0.479818
0.00301531
0.48007
-0.00164764
-0.00162005
-0.2404
0.00181876
0.2405
-0.00191949
-0.240851
0.00226965
0.240978
-0.00239668
-0.241008
0.00277821
0.241132
-0.00290194
-0.24091
0.00321961
0.240956
-0.00326576
-0.204179
0.00297711
0.204295
-0.00309288
-0.224187
0.00282954
0.224001
-0.00264332
-0.226602
0.00237143
0.226556
-0.00232561
-0.225047
0.00220592
0.225002
-0.00216114
-0.223407
0.00200428
0.22335
-0.00194702
-0.222166
0.00178004
0.222116
-0.00173013
0.00160665
-0.221185
0.221151
-0.00157274
-0.440179
0.00290236
0.440021
-0.0027447
-0.439049
0.00255806
0.438836
-0.00234615
-0.00314945
0.875469
0.0020257
0.00210374
-0.00212305
0.87449
-0.00106888
0.873843
0.873434
-0.000990126
0.960729
-0.00196022
0.960706
-0.00290181
0.960625
-0.00192805
0.960671
-0.00187055
-0.480022
0.480237
-0.00214344
-0.479974
0.002348
0.480173
-0.00254683
-0.480318
0.00275445
0.480567
-0.00151186
-0.00149112
-0.240816
0.00169618
0.240927
-0.00180783
-0.24137
0.00219122
0.241506
-0.00232708
-0.241501
0.00272248
0.241624
-0.00284594
-0.241064
0.00314222
0.24109
-0.00316879
-0.204633
0.00282345
0.204742
-0.00293284
-0.223462
0.00270053
0.223288
-0.00252658
-0.226423
0.00227518
0.226379
-0.0022308
-0.224854
0.00209639
0.224799
-0.00204139
-0.223162
0.00184948
0.223093
-0.00178095
-0.221957
0.00158739
0.221901
-0.00153127
0.0013986
-0.221054
0.221021
-0.00136523
-0.439882
0.00252629
0.439762
-0.00240602
-0.438651
0.00226003
0.438478
-0.00208777
-0.00283463
0.874604
0.00181506
0.00188289
-0.00191431
0.873569
-0.000964132
0.872892
0.872469
-0.000931888
0.961661
-0.00184381
0.961618
-0.00272493
0.961506
-0.00179851
0.961499
-0.00175463
-0.480434
0.480628
-0.00199264
-0.480361
0.00217584
0.480541
-0.00235579
-0.480819
0.00255376
0.481079
-0.00141324
-0.00140039
-0.24128
0.00161783
0.241405
-0.00174318
-0.241927
0.00216521
0.242072
-0.00231106
-0.241993
0.0027232
0.242117
-0.00284704
-0.241137
0.00312256
0.241143
-0.00312819
-0.205061
0.00270796
0.205164
-0.00281173
-0.222793
0.00264956
0.222635
-0.00249201
-0.226241
0.00224971
0.226192
-0.00220077
-0.224615
0.00203602
0.224546
-0.00196744
-0.22287
0.00173569
0.222789
-0.00165526
-0.221722
0.00143301
0.221659
-0.00136959
0.00122296
-0.220922
0.220887
-0.00118809
-0.439657
0.00219768
0.439567
-0.00210744
-0.43833
0.00199653
0.438193
-0.00185963
-0.00256124
0.873845
0.00163065
0.00168915
-0.00173371
0.872741
-0.000873683
0.872031
0.871596
-0.000888535
0.962549
-0.00175704
0.962486
-0.00259441
0.962344
-0.00170057
0.962278
-0.00167307
-0.480808
0.480987
-0.00187973
-0.480715
0.00204977
0.480887
-0.00222143
-0.48135
0.00242307
0.481636
-0.00135694
-0.0013521
-0.241801
0.00158597
0.241941
-0.00172583
-0.242523
0.00218642
0.242679
-0.00234209
-0.242489
0.00277161
0.242613
-0.00289646
-0.241124
0.00315035
0.241106
-0.00313226
-0.205471
0.00263052
0.205573
-0.0027325
-0.222191
0.00266649
0.22205
-0.00252647
-0.226031
0.00227926
0.225972
-0.0022196
-0.224319
0.00201264
0.224236
-0.00192934
-0.222532
0.00165837
0.22244
-0.00156658
-0.221457
0.00131601
0.221386
-0.00124483
0.00108116
-0.220781
0.220743
-0.00104318
-0.439488
0.00192041
0.43942
-0.00185216
-0.438077
0.00176987
0.437971
-0.0016634
-0.00233212
0.873179
0.00147454
0.00152417
-0.00158331
0.871992
-0.000798466
0.871246
0.870797
-0.00085848
0.963408
-0.0016984
0.963326
-0.00250599
0.963151
-0.00163327
0.963028
-0.00162214
-0.481156
0.481331
-0.00180775
-0.48106
0.0019742
0.481236
-0.00214974
-0.48194
0.00236928
0.482265
-0.00134505
-0.00134903
-0.242378
0.00159911
0.242531
-0.00175208
-0.243157
0.002245
0.243321
-0.00240884
-0.242988
0.00285393
0.243115
-0.00298024
-0.241012
0.0032132
0.240968
-0.00316901
-0.205881
0.0025886
0.205984
-0.00269261
-0.221659
0.00273553
0.221537
-0.00261269
-0.225771
0.00234366
0.225694
-0.00226746
-0.223966
0.00201119
0.223868
-0.00191336
-0.22215
0.00160633
0.222048
-0.00150442
-0.221162
0.00122854
0.221084
-0.00115032
0.000970625
-0.220626
0.220585
-0.000929225
-0.43936
0.00169625
0.439307
-0.00164229
-0.437882
0.00158189
0.437801
-0.00150044
-0.00214425
0.87259
0.00134536
0.00138708
-0.00146106
0.871309
-0.000737204
0.870522
0.87006
-0.000845875
0.964253
-0.00167148
0.964151
-0.0024699
0.96395
-0.00160727
0.963783
-0.00161803
-0.481499
0.481668
-0.00177651
-0.481418
0.00194982
0.481612
-0.00214262
-0.482613
0.00239496
0.482988
-0.00137824
-0.00139173
-0.243003
0.00165481
0.243165
-0.00181745
-0.243819