/*--------------------------------*- C++ -*----------------------------------*\
| =========                 |                                                 |
| \\      /  F ield         | OpenFOAM: The Open Source CFD Toolbox           |
|  \\    /   O peration     | Version:  v1912                                 |
|   \\  /    A nd           | Website:  www.openfoam.com                      |
|    \\/     M anipulation  |                                                 |
\*---------------------------------------------------------------------------*/
FoamFile
{
    version     2.0;
    format      ascii;
    class       volVectorField;
    location    "100";
    object      U;
}
// * * * * * * * * * * * * * * * * * * * * * * * * * * * * * * * * * * * * * //

dimensions      [0 1 -1 0 0 0 0];


internalField   nonuniform List<vector> 
12556
(
(100 -8.87241e-06 -1.22844e-19)
(99.9998 0.000691716 -2.58333e-23)
(99.9991 0.00374551 -1.30863e-19)
(99.998 0.0102094 -1.28744e-19)
(99.9998 0.00961621 5.343e-20)
(99.9988 0.019807 0)
(99.9981 0.0364006 0)
(99.9975 0.0612115 -9.55929e-20)
(99.9965 0.0959573 1.13452e-20)
(99.9957 0.141004 -7.73881e-20)
(99.9954 0.192687 8.12769e-21)
(99.9962 0.241901 0)
(99.9981 0.275706 0)
(100.001 0.283755 3.91514e-21)
(100.003 0.265164 -1.29406e-20)
(100.004 0.227931 1.0651e-20)
(100.004 0.183215 0)
(100.004 0.139756 1.96248e-20)
(100.003 0.101502 8.10841e-20)
(100.001 0.0734495 -2.33372e-20)
(100.008 0.0850329 -4.89898e-19)
(100.005 0.0543595 0)
(100.004 0.0295451 -6.31283e-20)
(100.004 0.00950724 -4.18569e-19)
(100 -0.000437483 5.16143e-19)
(99.9974 0.000662909 1.37865e-19)
(99.9914 0.0082911 9.65206e-19)
(99.9812 0.0256779 -4.07265e-19)
(99.9801 0.0467579 5.85724e-20)
(99.9642 0.0950812 -3.67774e-22)
(99.9419 0.174626 0)
(99.9319 0.256883 -4.23615e-20)
(99.9049 0.406181 -4.00324e-20)
(99.8791 0.605324 -7.21116e-20)
(99.8654 0.841169 -3.08709e-20)
(99.8775 1.0748 -4.35626e-20)
(99.9216 1.24466 -1.11093e-20)
(99.985 1.29619 -3.45382e-21)
(100.043 1.21922 -2.11668e-21)
(100.079 1.05072 2.42486e-20)
(100.089 0.844734 -5.05528e-20)
(100.082 0.648594 0)
(100.096 0.4991 -3.77442e-19)
(100.071 0.349595 7.34441e-19)
(100.073 0.244059 4.99733e-19)
(100.053 0.155864 1.05564e-18)
(100.04 0.0844753 -1.05971e-18)
(100.036 0.0271285 5.01886e-19)
(100.001 -0.00248099 -5.16494e-19)
(99.9936 -0.00451349 -1.10429e-18)
(99.9777 0.00310772 -2.48625e-18)
(99.9505 0.0254898 3.25952e-18)
(99.9334 0.0653417 -1.19008e-19)
(99.8848 0.14341 -1.14734e-19)
(99.816 0.273658 -1.94848e-19)
(99.7683 0.433991 0)
(99.6734 0.711404 1.59169e-19)
(99.5808 1.09527 3.53617e-20)
(99.5308 1.57342 -9.249e-20)
(99.5821 2.07384 -7.74267e-22)
(99.766 2.45151 1.54486e-20)
(100.027 2.56512 -2.86716e-21)
(100.254 2.3903 0)
(100.377 2.02385 1.86032e-20)
(100.398 1.59506 -5.26308e-20)
(100.356 1.19375 -1.29456e-19)
(100.321 0.859321 -2.27919e-18)
(100.241 0.592635 -5.11504e-19)
(100.203 0.374459 -5.166e-19)
(100.15 0.237833 1.19406e-18)
(100.116 0.128312 -1.34667e-19)
(100.101 0.0410628 0)
(100.007 -0.00716071 -2.58723e-19)
(99.9932 -0.0179525 1.94001e-18)
(99.964 -0.0172014 -5.55043e-19)
(99.9141 0.00183439 0)
(99.8712 0.0523269 0)
(99.7758 0.145363 -9.25137e-19)
(99.6382 0.309153 -1.81248e-18)
(99.5121 0.538763 1.74632e-19)
(99.2956 0.929943 8.47154e-20)
(99.0621 1.50533 4.09959e-20)
(98.9039 2.27902 -1.10813e-19)
(98.9875 3.15257 3.26186e-20)
(99.4269 3.86568 3.92448e-20)
(100.09 4.0652 0)
(100.638 3.70454 0)
(100.901 3.04129 -8.16858e-20)
(100.918 2.31676 0)
(100.801 1.67856 0)
(100.671 1.15085 8.30308e-19)
(100.501 0.776709 -6.51314e-19)
(100.386 0.460387 -1.32458e-18)
(100.285 0.288591 6.83835e-19)
(100.221 0.154157 -1.37684e-19)
(100.191 0.0491022 0)
(100.025 -0.0149748 0)
(100.003 -0.0412111 0)
(99.9592 -0.0556828 2.7666e-19)
(99.8839 -0.0503655 4.15818e-19)
(99.8074 0.000484027 3.0573e-19)
(99.6557 0.088399 0)
(99.4321 0.255262 0)
(99.1944 0.520621 0)
(98.7953 0.987506 1.47707e-18)
(98.3197 1.72242 1.86065e-19)
(97.9075 2.81736 0)
(97.8797 4.33062 1.93346e-19)
(98.7624 5.75596 2.90273e-20)
(100.28 6.08175 -2.74975e-21)
(101.39 5.26592 3.62816e-19)
(101.788 4.04518 1.18707e-18)
(101.714 2.93298 2.36519e-19)
(101.435 2.04731 -3.76436e-21)
(101.133 1.32896 -1.39504e-18)
(100.833 0.872263 1.17243e-19)
(100.604 0.484868 0)
(100.441 0.297643 1.40902e-19)
(100.339 0.156573 -1.05944e-19)
(100.292 0.0494996 -3.29655e-20)
(100.059 -0.026 0)
(100.031 -0.074535 0)
(99.9729 -0.112837 -5.56999e-19)
(99.873 -0.132266 1.11151e-18)
(99.759 -0.0939098 0)
(99.55 -0.0337571 0)
(99.2358 0.100929 3.72076e-19)
(98.8652 0.354427 1.44907e-19)
(98.2433 0.795746 2.04274e-19)
(97.4358 1.53547 -9.71436e-19)
(96.42 2.90813 1.26198e-18)
(95.7121 5.46412 -1.29848e-18)
(97.3056 8.75788 2.69973e-20)
(100.981 9.17061 0)
(102.964 7.08664 1.58393e-18)
(103.242 4.92971 0)
(102.817 3.31163 -2.17117e-19)
(102.237 2.19477 3.75208e-19)
(101.678 1.34177 3.58058e-19)
(101.205 0.849174 -2.43213e-19)
(100.828 0.433517 0)
(100.595 0.257309 0)
(100.452 0.131827 -3.58786e-20)
(100.385 0.0411059 -1.01306e-19)
(100.118 -0.0398296 1.25514e-19)
(100.084 -0.116624 -1.35094e-19)
(100.014 -0.186369 2.76179e-19)
(99.894 -0.240395 -1.00332e-18)
(99.7439 -0.228205 1.81238e-21)
(99.4865 -0.217858 3.72202e-19)
(99.0949 -0.151213 -1.89616e-18)
(98.5992 0.0332893 -2.02617e-19)
(97.7825 0.334492 4.45539e-19)
(96.6152 0.841776 3.07494e-19)
(94.6821 1.89389 9.31476e-19)
(91.3909 5.01465 2.51855e-18)
(92.8043 14.1995 3.6823e-19)
(104.062 14.2356 2.26232e-18)
(106.107 8.73976 0)
(105.395 5.28302 6.79952e-19)
(104.211 3.24082 -3.66899e-19)
(103.128 2.00985 -5.91597e-20)
(102.236 1.14066 0)
(101.571 0.685592 1.35176e-19)
(101.026 0.30022 9.29251e-20)
(100.723 0.165104 -1.11951e-19)
(100.541 0.0789401 -1.28142e-19)
(100.455 0.0236536 2.88034e-19)
(100.205 -0.0556718 -1.25438e-19)
(100.167 -0.164975 1.34966e-19)
(100.09 -0.271346 -1.71056e-19)
(99.9572 -0.366688 -1.13168e-19)
(99.7779 -0.391932 2.13124e-19)
(99.489 -0.446955 1.2368e-19)
(99.0485 -0.473998 9.7226e-19)
(98.4684 -0.405089 1.80512e-19)
(97.5696 -0.337093 0)
(96.2521 -0.273847 1.2269e-19)
(93.9965 -0.331082 -7.25016e-19)
(89.3945 -1.09184 8.04495e-19)
(114.428 18.9172 7.5836e-19)
(111.167 8.29705 -1.60661e-19)
(107.986 4.42616 1.16255e-19)
(105.649 2.49145 -1.82526e-19)
(103.969 1.42829 5.48475e-20)
(102.704 0.704841 -7.20119e-20)
(101.87 0.379111 3.06136e-19)
(101.162 0.0913605 -1.1422e-19)
(100.801 0.0257879 9.52277e-20)
(100.586 0.000721466 -1.90434e-20)
(100.483 -0.00190275 -2.72353e-19)
(100.324 -0.0724476 -5.97369e-20)
(100.284 -0.216157 -4.78492e-20)
(100.205 -0.361439 -1.64395e-20)
(100.068 -0.500945 4.86629e-20)
(99.8695 -0.570029 -4.70917e-22)
(99.5701 -0.695902 0)
(99.1152 -0.823612 1.5674e-19)
(98.5062 -0.884391 -1.03952e-21)
(97.6422 -1.04444 2.91139e-21)
(96.4631 -1.34537 -1.47327e-19)
(94.8182 -2.0143 -6.66948e-20)
(93.3714 -3.62465 -2.31427e-20)
(126.767 8.93284 0)
(115.428 3.97265 5.57467e-19)
(109.998 2.03338 5.93981e-19)
(106.7 1.02341 2.72685e-20)
(104.551 0.47521 -1.64969e-19)
(102.977 0.0775116 -7.57758e-20)
(102.038 -0.0434077 1.74416e-19)
(101.205 -0.173728 3.95956e-20)
(100.806 -0.148288 0)
(100.571 -0.0961607 1.4721e-19)
(100.456 -0.0334576 1.36233e-19)
(100.476 -0.0889989 1.17275e-19)
(100.436 -0.266635 2.25154e-21)
(100.36 -0.449975 0)
(100.228 -0.632679 5.91174e-21)
(100.021 -0.747138 -2.8653e-20)
(99.7299 -0.940388 2.9646e-20)
(99.2901 -1.15999 0)
(98.697 -1.3359 -3.10669e-21)
(97.9267 -1.66151 1.08548e-19)
(96.9499 -2.13356 1.23536e-19)
(95.7021 -2.82499 0)
(94.6145 -3.56317 -1.43031e-20)
(126.458 -4.42517 -8.27188e-19)
(115.973 -1.95591 0)
(110.438 -1.14006 1.54202e-19)
(106.963 -0.834105 -5.19013e-20)
(104.69 -0.685936 -3.20263e-19)
(102.987 -0.649385 6.51322e-19)
(102.032 -0.528971 0)
(101.135 -0.46481 -3.90448e-20)
(100.725 -0.338672 -1.64295e-19)
(100.483 -0.201964 1.8339e-20)
(100.364 -0.0678989 0)
(100.659 -0.104278 -5.75259e-20)
(100.622 -0.313102 6.18463e-20)
(100.553 -0.531025 5.98269e-20)
(100.432 -0.752808 -5.52323e-20)
(100.226 -0.909659 -2.79423e-20)
(99.9587 -1.1605 0)
(99.5547 -1.45544 -5.66944e-20)
(99.0059 -1.72231 4.327e-20)
(98.343 -2.15627 -1.93068e-19)
(97.5206 -2.71341 -1.052e-19)
(96.3781 -3.39582 -2.71327e-19)
(95.3236 -3.9952 4.42561e-20)
(119.813 -12.1388 8.97813e-19)
(113.418 -6.54178 0)
(109.3 -3.93496 -1.12633e-18)
(106.383 -2.57926 0)
(104.347 -1.81272 -3.11124e-19)
(102.723 -1.35499 0)
(101.841 -1.00974 -4.1838e-19)
(100.949 -0.748378 -4.91206e-19)
(100.554 -0.524763 3.70987e-20)
(100.32 -0.30588 -1.19343e-19)
(100.205 -0.101843 1.63612e-20)
(100.869 -0.117403 2.08858e-19)
(100.838 -0.352754 0)
(100.778 -0.599656 -5.9681e-20)
(100.674 -0.853435 0)
(100.477 -1.04745 0)
(100.243 -1.34271 -7.99012e-20)
(99.8877 -1.69261 -1.95182e-20)
(99.3998 -2.02671 5.39506e-22)
(98.8458 -2.53444 4.82929e-20)
(98.1508 -3.1638 9.80745e-20)
(97.0969 -3.96152 -2.18862e-19)
(96.2193 -4.92711 4.87517e-22)
(112.471 -14.6784 -1.12452e-18)
(109.657 -8.84448 2.51951e-19)
(107.261 -5.70275 -8.86302e-19)
(105.214 -3.84949 -4.11824e-20)
(103.625 -2.70715 -3.56379e-20)
(102.235 -1.94061 3.38947e-20)
(101.49 -1.42639 -5.10897e-19)
(100.66 -0.995778 2.9002e-19)
(100.302 -0.688427 0)
(100.089 -0.398283 1.37651e-19)
(99.9822 -0.132165 0)
(101.103 -0.12824 -2.07896e-19)
(101.077 -0.385469 3.4671e-18)
(101.029 -0.655488 -6.93817e-18)
(100.944 -0.934515 2.75478e-21)
(100.764 -1.1539 -2.41611e-20)
(100.569 -1.47862 0)
(100.27 -1.86128 1.98424e-19)
(99.8495 -2.24176 -1.22884e-21)
(99.4067 -2.79418 -2.5451e-21)
(98.8537 -3.47697 -4.21746e-20)
(98.0523 -4.39464 1.0679e-19)
(97.8572 -5.63471 0)
(94.4625 -18.5823 -2.85849e-19)
(106.281 -13.2996 0)
(106.086 -9.18166 2.26089e-20)
(105.042 -6.38896 0)
(103.811 -4.5295 7.11978e-20)
(102.696 -3.27601 9.42876e-19)
(101.611 -2.35073 -1.02314e-18)
(101.023 -1.73919 0)
(100.294 -1.18685 0)
(99.9853 -0.817137 4.33384e-19)
(99.7998 -0.472279 8.00378e-20)
(99.7062 -0.156647 -2.4357e-19)
(101.354 -0.135768 0)
(101.334 -0.408052 0)
(101.298 -0.693261 0)
(101.233 -0.988751 0)
(101.07 -1.23224 0)
(100.911 -1.57476 0)
(100.664 -1.97532 0)
(100.319 -2.38027 0)
(99.9828 -2.94605 0)
(99.5749 -3.63593 0)
(99.1077 -4.55128 0)
(100.042 -5.89308 0)
(95.2819 -12.5532 0)
(102.799 -10.7923 0)
(103.417 -8.34117 8.31535e-19)
(103.123 -6.27821 0)
(102.457 -4.70287 0)
(101.725 -3.52867 -7.54773e-19)
(100.936 -2.58249 -1.41783e-18)
(100.494 -1.93594 -5.37484e-19)
(99.8796 -1.31445 -6.9453e-19)
(99.6242 -0.905509 6.99803e-19)
(99.4689 -0.524383 0)
(99.3901 -0.174068 6.55521e-19)
(101.616 -0.140161 0)
(101.603 -0.421077 0)
(101.579 -0.714104 0)
(101.534 -1.0167 0)
(101.39 -1.27106 0)
(101.269 -1.61697 0)
(101.075 -2.01516 0)
(100.8 -2.42426 0)
(100.554 -2.96867 0)
(100.269 -3.60474 0)
(100.052 -4.3862 0)
(102.418 -5.97018 0)
(98.5445 -8.44365 -4.462e-29)
(101.342 -8.26438 0)
(101.742 -7.08776 0)
(101.676 -5.74313 0)
(101.304 -4.53883 0)
(100.827 -3.53789 -1.4905e-19)
(100.271 -2.65744 0)
(99.9492 -2.02562 0)
(99.445 -1.38042 -1.29973e-18)
(99.2392 -0.953768 6.54106e-19)
(99.1125 -0.554421 2.74124e-20)
(99.0482 -0.184293 -4.53038e-19)
(101.884 -0.141624 0)
(101.877 -0.425174 0)
(101.864 -0.719467 0)
(101.836 -1.02181 0)
(101.712 -1.27899 0)
(101.622 -1.61845 0)
(101.472 -2.00345 0)
(101.261 -2.40163 0)
(101.08 -2.90601 0)
(100.874 -3.46714 0)
(100.791 -4.11122 0)
(100.697 -5.38401 0)
(99.5732 -6.28528 4.58923e-33)
(100.817 -6.49072 0)
(100.796 -5.92566 0)
(100.664 -5.08655 0)
(100.388 -4.20603 0)
(100.057 -3.39684 0)
(99.6553 -2.61207 -4.67563e-19)
(99.4227 -2.02787 7.16831e-19)
(99.0121 -1.3932 4.06383e-19)
(98.8482 -0.967464 7.06292e-19)
(98.7459 -0.564969 -8.04784e-19)
(98.6942 -0.187941 0)
(102.153 -0.140559 0)
(102.151 -0.421623 0)
(102.147 -0.711693 0)
(102.133 -1.00793 0)
(102.027 -1.26202 0)
(101.96 -1.58866 0)
(101.848 -1.95311 0)
(101.693 -2.33128 0)
(101.554 -2.79049 0)
(101.395 -3.28156 0)
(101.399 -3.81819 0)
(98.2634 -4.48537 0)
(100.17 -5.09332 9.99747e-38)
(100.615 -5.30822 0)
(100.249 -5.00451 0)
(99.9692 -4.45809 0)
(99.6823 -3.81368 0)
(99.4108 -3.16606 0)
(99.1091 -2.48878 0)
(98.9345 -1.96606 0)
(98.5965 -1.36473 1.41172e-18)
(98.4649 -0.953436 -1.3474e-18)
(98.3815 -0.559191 -9.12754e-20)
(98.3397 -0.186263 8.58187e-20)
(102.417 -0.137404 0)
(102.419 -0.411782 0)
(102.422 -0.693454 0)
(102.419 -0.979353 0)
(102.328 -1.22604 0)
(102.28 -1.5364 0)
(102.199 -1.87648 0)
(102.092 -2.23047 0)
(101.978 -2.64858 0)
(101.843 -3.08484 0)
(101.905 -3.54563 0)
(95.7192 -3.74242 0)
(100.469 -4.39227 0)
(100.506 -4.50545 0)
(99.9025 -4.29876 0)
(99.4781 -3.91105 0)
(99.1368 -3.42292 0)
(98.8755 -2.90069 0)
(98.6341 -2.32254 0)
(98.4912 -1.86159 0)
(98.2067 -1.30576 0)
(98.0979 -0.917495 0)
(98.0286 -0.541258 0)
(97.9939 -0.180867 0)
(102.673 -0.132648 0)
(102.678 -0.397206 0)
(102.686 -0.6674 0)
(102.69 -0.94016 0)
(102.614 -1.17681 0)
(102.579 -1.46918 0)
(102.525 -1.78398 0)
(102.46 -2.11377 0)
(102.361 -2.4973 0)
(102.239 -2.89293 0)
(102.344 -3.30324 0)
(93.3776 -3.17116 0)
(100.586 -3.92289 0)
(100.409 -3.92852 0)
(99.6491 -3.75192 0)
(99.1068 -3.44914 0)
(98.7049 -3.06259 0)
(98.431 -2.63446 0)
(98.2242 -2.13932 0)
(98.0954 -1.7349 0)
(97.8475 -1.22821 0)
(97.753 -0.86758 0)
(97.6927 -0.514395 0)
(97.6631 -0.172075 0)
(102.918 -0.126726 0)
(102.925 -0.379179 0)
(102.937 -0.635947 0)
(102.946 -0.893979 0)
(102.883 -1.11898 0)
(102.858 -1.39276 0)
(102.827 -1.6835 0)
(102.799 -1.99019 0)
(102.712 -2.34331 0)
(102.601 -2.70776 0)
(102.742 -3.08455 0)
(91.4153 -2.74778 0)
(100.571 -3.56456 0)
(100.286 -3.48333 0)
(99.4302 -3.3109 0)
(98.8059 -3.05529 0)
(98.353 -2.7385 0)
(98.0578 -2.38322 0)
(97.8689 -1.95528 0)
(97.7434 -1.59955 0)
(97.5199 -1.14098 0)
(97.4332 -0.809782 0)
(97.378 -0.482273 0)
(97.351 -0.161391 0)
(103.151 -0.120056 0)
(103.159 -0.359032 0)
(103.172 -0.60113 0)
(103.185 -0.843609 0)
(103.134 -1.05608 0)
(103.117 -1.31125 0)
(103.107 -1.58004 0)
(103.11 -1.86377 0)
(103.037 -2.188 0)
(102.937 -2.52622 0)
(103.115 -2.88039 0)
(89.9277 -2.44934 0)
(100.457 -3.25586 -4.833e-34)
(100.137 -3.11156 0)
(99.2329 -2.9338 0)
(98.5559 -2.71079 0)
(98.063 -2.44783 0)
(97.7425 -2.15201 0)
(97.558 -1.77922 0)
(97.4298 -1.46423 0)
(97.2226 -1.05043 0)
(97.1392 -0.74859 0)
(97.086 -0.447536 0)
(97.06 -0.149765 0)
(103.371 -0.112952 0)
(103.378 -0.337636 0)
(103.392 -0.564526 0)
(103.407 -0.791249 0)
(103.367 -0.990562 0)
(103.357 -1.2275 0)
(103.365 -1.47638 0)
(103.394 -1.73653 0)
(103.335 -2.03215 0)
(103.249 -2.34562 0)
(103.464 -2.68217 0)
(88.9341 -2.24645 0)
(100.275 -2.96648 0)
(99.9768 -2.77559 0)
(99.0561 -2.59707 0)
(98.3464 -2.40354 0)
(97.8245 -2.18584 0)
(97.4765 -1.94118 0)
(97.2832 -1.61493 0)
(97.1494 -1.33407 0)
(96.9532 -0.960828 0)
(96.8704 -0.687003 0)
(96.817 -0.412088 0)
(96.7908 -0.137911 0)
(103.575 -0.10568 0)
(103.583 -0.31586 0)
(103.596 -0.527335 0)
(103.612 -0.7384 0)
(103.583 -0.92425 0)
(103.58 -1.14337 0)
(103.602 -1.37366 0)
(103.649 -1.60973 0)
(103.609 -1.87739 0)
(103.541 -2.16663 0)
(103.786 -2.48455 0)
(88.3787 -2.104 0)
(100.042 -2.68323 -5.45351e-34)
(99.8119 -2.46088 0)
(98.8926 -2.29184 0)
(98.1686 -2.12521 0)
(97.6294 -1.94698 0)
(97.2542 -1.74823 0)
(97.0387 -1.46313 0)
(96.8976 -1.21158 0)
(96.7093 -0.874788 0)
(96.6254 -0.627066 0)
(96.5705 -0.377194 0)
(96.5433 -0.126192 0)
(103.766 -0.0984254 0)
(103.772 -0.294171 0)
(103.784 -0.490411 0)
(103.802 -0.686212 0)
(103.782 -0.858412 0)
(103.785 -1.06007 0)
(103.817 -1.27211 0)
(103.877 -1.48418 0)
(103.859 -1.726 0)
(103.814 -1.99358 0)
(104.078 -2.29322 0)
(88.1529 -1.98968 0)
(99.7718 -2.40133 0)
(99.6413 -2.16988 0)
(98.7422 -2.01379 0)
(98.0205 -1.87061 0)
(97.4726 -1.72737 0)
(97.0712 -1.56947 0)
(96.8211 -1.32277 0)
(96.6712 -1.09757 0)
(96.4884 -0.793768 0)
(96.4026 -0.569876 0)
(96.3455 -0.343654 0)
(96.3169 -0.114941 0)
(103.942 -0.0913403 0)
(103.946 -0.273074 0)
(103.958 -0.454414 0)
(103.976 -0.635437 0)
(103.965 -0.794 0)
(103.973 -0.978364 0)
(104.011 -1.17188 0)
(104.081 -1.36111 0)
(104.089 -1.58119 0)
(104.071 -1.831 0)
(104.338 -2.10879 0)
(88.1635 -1.88206 0)
(99.471 -2.13677 1.33888e-34)
(99.4719 -1.90586 0)
(98.6121 -1.76072 0)
(97.9016 -1.64064 0)
(97.3495 -1.52683 0)
(96.9238 -1.4026 0)
(96.6284 -1.1922 0)
(96.4678 -0.9919 0)
(96.2885 -0.718363 0)
(96.2005 -0.516136 0)
(96.1407 -0.311933 0)
(96.1104 -0.104242 0)
(104.105 -0.0845372 0)
(104.107 -0.252823 0)
(104.117 -0.41984 0)
(104.136 -0.586732 0)
(104.133 -0.731744 0)
(104.143 -0.898869 0)
(104.184 -1.07351 0)
(104.264 -1.24257 0)
(104.303 -1.44688 0)
(104.311 -1.6823 0)
(104.563 -1.94311 0)
(88.284 -1.77494 0)
(99.1385 -1.89666 0)
(99.314 -1.66834 0)
(98.5055 -1.53669 0)
(97.8059 -1.43974 0)
(97.252 -1.3466 0)
(96.8067 -1.24717 0)
(96.46 -1.07002 0)
(96.2861 -0.893957 0)
(96.1079 -0.648765 0)
(96.0175 -0.466089 0)
(95.9548 -0.282285 0)
(95.9228 -0.0942471 0)
(104.255 -0.0781101 0)
(104.256 -0.233732 0)
(104.264 -0.38714 0)
(104.282 -0.540594 0)
(104.284 -0.672282 0)
(104.296 -0.822247 0)
(104.338 -0.978036 0)
(104.433 -1.13108 0)
(104.507 -1.32658 0)
(104.54 -1.55459 0)
(104.757 -1.79731 0)
(88.4868 -1.67336 0)
(98.8026 -1.68284 0)
(99.1789 -1.45888 0)
(98.4154 -1.35136 0)
(97.7235 -1.26966 0)
(97.1695 -1.1867 0)
(96.713 -1.10309 0)
(96.3156 -0.955423 0)
(96.1253 -0.803155 0)
(95.9453 -0.584879 0)
(95.8522 -0.419921 0)
(95.7867 -0.254837 0)
(95.753 -0.0849386 0)
(104.393 -0.0721457 0)
(104.392 -0.215999 0)
(104.398 -0.356718 0)
(104.415 -0.497554 0)
(104.421 -0.616261 0)
(104.433 -0.749397 0)
(104.475 -0.887128 0)
(104.593 -1.02931 0)
(104.707 -1.22382 0)
(104.762 -1.45125 0)
(104.908 -1.66731 0)
(88.705 -1.57116 0)
(98.4608 -1.50984 0)
(99.0604 -1.29269 0)
(98.3364 -1.20623 0)
(97.6464 -1.12817 0)
(97.0931 -1.04576 0)
(96.6358 -0.970049 0)
(96.1945 -0.848057 0)
(95.9851 -0.719039 0)
(95.7995 -0.52659 0)
(95.7034 -0.377625 0)
(95.635 -0.229651 0)
(95.5997 -0.076398 0)
(104.522 -0.0667264 0)
(104.518 -0.199874 0)
(104.522 -0.329005 0)
(104.537 -0.458159 0)
(104.544 -0.564443 0)
(104.553 -0.681599 0)
(104.597 -0.802998 0)
(104.753 -0.940273 0)
(104.912 -1.14218 0)
(104.978 -1.37227 0)
(105.031 -1.58001 0)
(88.8976 -1.47132 0)
(98.1141 -1.36259 0)
(98.9532 -1.17297 0)
(98.2654 -1.09496 0)
(97.5666 -1.01185 0)
(97.0162 -0.92219 0)
(96.5697 -0.848338 0)
(96.0955 -0.748073 0)
(95.8649 -0.641463 0)
(95.6698 -0.47375 0)
(95.57 -0.339278 0)
(95.4987 -0.206775 0)
(95.4617 -0.0685967 0)
(104.641 -0.0619321 0)
(104.635 -0.185565 0)
(104.637 -0.304431 0)
(104.649 -0.423033 0)
(104.653 -0.517785 0)
(104.658 -0.620464 0)
(104.71 -0.728157 0)
(104.921 -0.867031 0)
(105.126 -1.08356 0)
(105.194 -1.31931 0)
(105.137 -1.52005 0)
(89.1255 -1.38455 0)
(97.7866 -1.26114 0)
(98.8677 -1.09006 0)
(98.1931 -1.01462 0)
(97.4751 -0.917573 0)
(96.9331 -0.814858 0)
(96.5102 -0.738673 0)
(96.0168 -0.656155 0)
(95.7641 -0.570493 0)
(95.555 -0.426315 0)
(95.4506 -0.304897 0)
(95.3763 -0.186256 0)
(95.3379 -0.0616024 0)
(104.752 -0.057845 0)
(104.745 -0.173306 0)
(104.743 -0.283444 0)
(104.751 -0.392862 0)
(104.751 -0.47734 0)
(104.75 -0.56778 0)
(104.818 -0.665341 0)
(105.105 -0.812446 0)
(105.355 -1.04911 0)
(105.41 -1.29425 0)
(105.198 -1.47251 0)
(89.3283 -1.31666 0)
(97.4758 -1.21069 -2.89275e-35)
(98.7931 -1.0458 0)
(98.1073 -0.96163 0)
(97.3657 -0.843284 0)
(96.8406 -0.723924 0)
(96.4532 -0.642033 0)
(95.9561 -0.573221 0)
(95.6814 -0.506472 0)
(95.4542 -0.384306 0)
(95.3442 -0.274609 0)
(95.2667 -0.168164 0)
(95.2268 -0.0554062 0)
(104.857 -0.0545128 0)
(104.848 -0.163245 0)
(104.843 -0.266393 0)
(104.846 -0.368121 0)
(104.838 -0.444148 0)
(104.832 -0.525325 0)
(104.928 -0.617503 0)
(105.311 -0.778795 0)
(105.6 -1.03934 0)
(105.625 -1.29512 0)
(105.22 -1.45979 0)
(89.4992 -1.25922 0)
(97.1857 -1.18997 0)
(98.711 -1.03529 0)
(98.0001 -0.930292 0)
(97.2359 -0.787732 0)
(96.7364 -0.650377 0)
(96.3954 -0.559799 0)
(95.9105 -0.500285 0)
(95.6155 -0.449825 0)
(95.3661 -0.347767 0)
(95.2491 -0.248464 0)
(95.1682 -0.152554 0)
(95.1268 -0.0500685 0)
(104.956 -0.0520267 0)
(104.945 -0.155606 0)
(104.937 -0.253648 0)
(104.934 -0.349713 0)
(104.919 -0.41906 0)
(104.909 -0.494693 0)
(105.047 -0.587379 0)
(105.541 -0.766932 0)
(105.862 -1.05152 0)
(105.841 -1.31651 0)
(105.216 -1.4718 0)
(89.6861 -1.2172 0)
(96.9236 -1.20513 0)
(98.6172 -1.04456 0)
(97.868 -0.916021 0)
(97.0858 -0.748878 0)
(96.6191 -0.593978 0)
(96.3333 -0.492875 0)
(95.8765 -0.438159 0)
(95.564 -0.401022 0)
(95.29 -0.317066 0)
(95.165 -0.226744 0)
(95.0804 -0.1396 0)
(95.0376 -0.0456267 0)
(105.057 -0.0502764 0)
(105.044 -0.150203 0)
(105.032 -0.245029 0)
(105.022 -0.336508 0)
(104.995 -0.402676 0)
(104.985 -0.477072 0)
(105.181 -0.576906 0)
(105.796 -0.77619 0)
(106.141 -1.08082 0)
(106.058 -1.35506 0)
(105.158 -1.49318 0)
(89.8616 -1.20089 0)
(96.6947 -1.24428 0)
(98.5014 -1.0689 0)
(97.7103 -0.912221 0)
(96.9171 -0.722162 0)
(96.4887 -0.551618 0)
(96.265 -0.440603 0)
(95.8505 -0.387272 0)
(95.5247 -0.360339 0)
(95.2215 -0.291484 0)
(95.0864 -0.209118 0)
(94.9974 -0.129089 0)
(94.9528 -0.0420183 0)
(105.137 -0.0495677 0)
(105.122 -0.147582 0)
(105.107 -0.241114 0)
(105.092 -0.332533 0)
(105.07 -0.394955 0)
(105.065 -0.472778 0)
(105.333 -0.586958 0)
(106.071 -0.804968 0)
(106.431 -1.12235 0)
(106.28 -1.40535 0)
(105.052 -1.52945 0)
(90.0415 -1.19795 0)
(96.4974 -1.29096 0)
(98.3511 -1.10086 0)
(97.5281 -0.909716 0)
(96.7323 -0.69979 0)
(96.348 -0.517266 0)
(96.1916 -0.400422 0)
(95.8294 -0.347484 0)
(95.495 -0.328092 0)
(95.17 -0.275013 0)
(95.0261 -0.197595 0)
(94.9337 -0.122272 0)
(94.8878 -0.0397188 0)
(105.277 -0.0491099 0)
(105.259 -0.146268 0)
(105.24 -0.239769 0)
(105.216 -0.327815 0)
(105.141 -0.394277 0)
(105.149 -0.479794 0)
(105.501 -0.617249 0)
(106.359 -0.852086 0)
(106.726 -1.17049 0)
(106.506 -1.45628 0)
(104.911 -1.57123 0)
(90.2525 -1.20733 0)
(96.3148 -1.34764 0)
(98.1638 -1.12575 0)
(97.3228 -0.899668 0)
(96.535 -0.672544 0)
(96.2022 -0.483595 0)
(96.1179 -0.368211 0)
(95.8121 -0.318746 0)
(95.4741 -0.303667 0)
(95.0964 -0.254313 0)
(94.9323 -0.185436 0)
(94.8324 -0.114877 0)
(94.7837 -0.0372276 0)
(93.0203 -3.63274 -8.70297e-22)
(128.127 11.7831 2.18717e-20)
(114.774 21.2132 -2.32188e-18)
(94.5248 -3.53183 -1.07983e-20)
(128.784 -3.52798 -1.64646e-19)
(128.984 9.73038 -5.62128e-19)
(95.2415 -3.92564 -4.38332e-20)
(121.612 -12.5538 -5.03841e-19)
(128.115 -5.07656 9.94808e-19)
(96.052 -4.77993 9.03686e-20)
(113.597 -15.5408 2.80709e-18)
(120.587 -13.2003 -4.61632e-19)
(97.7544 -5.59749 -4.52391e-20)
(89.9513 -18.5699 1.35204e-19)
(94.3656 -18.934 0)
(107.077 -14.6717 -1.26132e-18)
(112.669 -15.6057 -5.82221e-19)
(99.7028 -5.83488 0)
(89.8043 -12.8313 0)
(89.9167 -18.4527 0)
(95.045 -13.4727 1.16138e-19)
(103.105 -12.255 -4.78719e-19)
(106.422 -14.4572 -1.51175e-19)
(89.1506 -0.1659 -2.36468e-18)
(91.808 12.8827 -3.17609e-19)
(112.361 21.1597 1.13419e-20)
(102.442 15.1087 -4.50361e-19)
(131.629 28.6381 1.69018e-19)
(113.084 35.8336 3.98042e-18)
(125.956 10.7182 0)
(116.442 6.34104 2.36388e-19)
(112.113 9.83906 -1.82948e-19)
(95.505 -2.66163 0)
(94.6429 -3.42986 1.40671e-20)
(93.4597 -3.30528 -4.43723e-20)
(138.666 1.74338 4.81312e-20)
(139.356 13.4695 0)
(127.001 -3.00503 3.31454e-19)
(118.172 -0.705854 -9.3671e-19)
(117.364 4.67202 -1.97291e-19)
(96.2177 -3.25663 -1.67019e-20)
(95.3381 -3.83858 -6.83849e-20)
(94.7364 -3.46474 -1.38592e-20)
(94.8894 -3.69925 5.78806e-20)
(94.7215 -4.10801 1.9394e-20)
(94.1987 -3.88132 -2.30165e-20)
(127.815 -14.0295 6.01688e-19)
(133.87 -8.35289 0)
(120.749 -11.5012 -1.43356e-18)
(115.671 -6.52535 -1.98625e-18)
(117.853 -2.38694 0)
(96.8964 -3.82198 2.25385e-19)
(96.1111 -4.63262 -1.10647e-19)
(95.4178 -3.90931 0)
(95.5754 -4.2624 2.99138e-20)
(95.8894 -4.69027 0)
(95.3087 -4.29378 4.19496e-20)
(117.291 -19.232 -6.81485e-21)
(121.572 -17.7432 0)
(97.7952 -4.30931 -1.35011e-20)
(97.5934 -5.43296 -7.52415e-20)
(96.2585 -4.75954 0)
(96.8846 -5.29511 3.30886e-20)
(98.8324 -6.79024 4.65361e-20)
(97.3136 -5.88025 -4.78496e-20)
(92.8619 -21.2672 0)
(108.463 -18.9332 0)
(112.056 -19.6581 2.78899e-19)
(98.8476 -4.54887 0)
(99.3338 -5.65476 0)
(97.7939 -5.4912 0)
(98.6325 -5.79445 0)
(96.8865 -6.85082 -6.2862e-19)
(97.9602 -6.32432 3.47629e-19)
(101.79 -5.74876 0)
(93.0907 -9.03881 1.02218e-27)
(89.9398 -12.3977 -1.31662e-22)
(90.6561 -7.03089 -4.03991e-20)
(93.5151 -5.2094 2.34267e-20)
(82.8082 -3.31282 3.70805e-18)
(89.8708 -7.15919 1.97877e-19)
(139.229 14.3465 2.32537e-18)
(132.461 27.8639 -1.35157e-19)
(123.861 17.3885 -1.32315e-18)
(131.478 26.1842 7.9947e-19)
(138.347 14.1643 -7.74048e-19)
(94.1486 -3.83687 0)
(93.9803 -3.85434 -2.60075e-20)
(94.2171 -3.52146 0)
(93.9769 -3.87084 0)
(94.1416 -3.87714 0)
(93.6454 -4.96059 -3.32175e-20)
(93.967 -3.93063 0)
(134.196 -7.86734 2.35842e-20)
(138.5 1.0414 4.84061e-20)
(129.486 2.17393 1.62164e-19)
(137.988 1.28363 -2.30157e-20)
(133.968 -7.48541 0)
(138.504 13.3112 -9.63257e-20)
(138.14 1.96124 1.80733e-19)
(129.504 3.10706 1.05776e-20)
(95.25 -4.2639 0)
(94.801 -4.12695 -2.92016e-20)
(94.981 -3.75088 -1.45821e-20)
(94.8437 -4.18328 5.69298e-20)
(95.3736 -4.3194 0)
(94.1684 -3.9067 4.03648e-21)
(94.8002 -4.17266 1.08906e-19)
(122.193 -17.4349 0)
(127.416 -14.3468 -1.45846e-19)
(124.623 -10.0278 -2.72837e-21)
(127.522 -13.8958 5.33051e-19)
(122.859 -16.7838 0)
(133.65 -7.99697 0)
(128.24 -13.3288 -3.23739e-19)
(125.58 -8.97499 0)
(97.1848 -5.7904 -6.42454e-23)
(95.9348 -4.73553 -1.0086e-19)
(95.6715 -4.37571 -1.03818e-19)
(95.9938 -4.78656 8.92702e-20)
(96.9364 -5.91718 0)
(95.4071 -4.33577 1.97396e-20)
(95.9523 -4.74056 1.70731e-19)
(112.612 -19.6917 2.89561e-19)
(116.689 -19.3531 -7.89892e-19)
(97.9806 -6.32726 1.7258e-19)
(98.8658 -6.79238 -2.39103e-20)
(96.998 -5.35033 4.41422e-20)
(89.0134 -20.9953 0)
(96.6295 -6.77137 -1.71037e-19)
(94.3861 -6.24324 -2.29297e-19)
(97.0126 -6.00692 -5.03386e-20)
(96.7391 -6.78961 0)
(88.7348 -21.0855 1.46324e-19)
(105.102 -17.6729 5.4749e-19)
(108 -18.8217 0)
(92.9192 -21.1075 1.32166e-19)
(87.9535 -5.37853 1.16295e-19)
(97.0058 -6.89605 -2.48072e-21)
(98.7532 -5.81414 2.46733e-22)
(89.9125 -15.9492 1.58672e-20)
(93.4708 -6.81279 0)
(33.9613 -2.46975 9.93306e-20)
(94.4135 -6.23908 4.72909e-20)
(93.2637 -6.75643 7.61129e-19)
(89.8448 -16.3109 0)
(94.5681 -1.70845 -5.42502e-20)
(93.1465 -3.25627 4.91053e-20)
(90.3143 -0.7789 6.77137e-19)
(90.9734 -3.01667 -3.0359e-19)
(89.8887 -6.35448 -2.30658e-19)
(84.1376 -2.70235 1.65606e-18)
(129.358 48.4935 3.00357e-17)
(106.436 52.6629 3.04256e-19)
(94.0772 -3.54856 -6.32129e-20)
(93.9583 -3.91057 1.28174e-20)
(93.5137 -4.81848 -2.13185e-21)
(113.96 -21.2111 -4.38423e-18)
(113.333 -14.5785 -1.22898e-18)
(111.391 -9.57347 0)
(114.678 -7.55082 4.27637e-19)
(90.3471 -21.8625 2.48703e-18)
(105.438 -21.3755 -6.35361e-19)
(107.213 -21.5579 1.71917e-19)
(94.3202 -16.4253 1.72598e-19)
(102.647 -15.5211 -6.57763e-20)
(104.416 -17.1663 -1.3089e-18)
(93.351 -5.01803 -9.16795e-21)
(90.5782 -6.31108 3.8711e-20)
(91.5617 -3.32795 6.31652e-21)
(93.4976 -7.18812 6.03128e-20)
(73.0636 -6.5282 7.5545e-18)
(84.041 -13.6704 -1.16164e-18)
(113.489 32.9745 -7.20222e-19)
(129.87 27.7381 -1.83206e-19)
(121.868 18.8673 1.13021e-18)
(107.435 -21.5381 0)
(109.261 -21.6943 0)
(116.522 -14.9535 0)
(117.168 -18.7197 3.7253e-19)
(113.06 -19.1069 -5.66944e-19)
(122.207 -17.0841 0)
(117.781 -18.589 -2.01224e-19)
(117.528 -14.6273 -8.15385e-19)
(89.4627 -19.7166 9.55168e-20)
(58.7357 -15.4898 0)
(89.185 -17.4667 0)
(84.0965 18.0827 4.8885e-20)
(84.5874 6.6555 -9.87368e-19)
(82.2762 -1.854 6.32309e-18)
(110.16 35.0671 -2.5633e-20)
(98.6526 25.2593 8.66908e-19)
(85.3444 20.6555 -4.62029e-20)
(131.533 46.3045 -1.3485e-16)
(124.982 34.1805 -4.44936e-19)
(130.432 45.9814 1.94229e-17)
(107.68 49.3448 -3.55568e-19)
(128.019 47.2796 -2.94572e-18)
(122.217 35.196 -8.46135e-19)
(139.371 6.92461 -2.09471e-19)
(139.438 7.69678 0)
(130.596 -11.922 -1.63601e-19)
(131.032 -11.5261 6.69632e-19)
(112.283 -21.7219 2.52877e-19)
(114.128 -21.2254 -4.37995e-19)
(119.124 -18.7294 0)
(115.529 -20.9353 2.06493e-18)
(113.013 -21.3041 1.21576e-19)
(117.904 -20.1324 5.61839e-18)
(115.793 -20.9018 1.05069e-18)
(119.732 -18.5121 -3.54392e-19)
(98.354 -6.49223 1.53156e-19)
(96.8046 -5.6533 1.08451e-19)
(97.3356 -5.86417 0)
(104.142 -20.6732 5.03805e-19)
(105.1 -21.2409 7.50701e-19)
(91.0892 -21.8106 -8.52341e-18)
(98.0824 -6.53846 -8.99484e-20)
(99.5196 -6.28907 7.04213e-20)
(100.019 -6.41537 -5.78394e-20)
(98.9296 -6.14173 3.69314e-20)
(99.3696 -6.24729 -7.13643e-20)
(98.0841 -6.48079 -2.7126e-19)
(92.0065 -10.4958 -2.77094e-18)
(93.3515 -7.54857 3.71346e-18)
(92.3685 -6.3139 1.46217e-20)
(93.4501 -7.53507 -1.57577e-18)
(91.8464 -10.1067 4.78632e-18)
(93.6727 -5.35798 -8.25187e-19)
(93.579 -7.20871 -8.62642e-19)
(92.7589 -6.03007 0)
(85.7617 -6.33579 0)
(84.1016 -12.2521 1.51817e-20)
(75.013 -5.80618 -3.53204e-18)
(91.3737 -10.4738 -8.86366e-20)
(85.332 -12.3242 1.01848e-18)
(86.8995 -6.84181 2.04428e-19)
(85.455 -13.6669 -1.99331e-19)
(91.6487 -10.9688 2.38256e-19)
(137.156 20.549 1.63978e-18)
(136.73 21.4871 -5.62023e-19)
(94.027 -3.78435 1.4973e-20)
(93.0952 -3.77666 -1.26378e-21)
(94.0404 -3.78294 0)
(93.8686 -4.36758 -2.73403e-20)
(93.4993 -4.25448 1.96947e-18)
(93.627 -5.19499 -8.53231e-19)
(93.1537 -3.79185 -1.68058e-20)
(93.4503 -4.14333 -3.91251e-21)
(93.9063 -4.22458 1.84228e-20)
(136.374 -3.95767 -6.34301e-19)
(136.673 -3.34564 1.05487e-18)
(136.312 -3.10986 0)
(133.435 -1.49743 1.86831e-19)
(134.103 1.78441 -4.07894e-21)
(131.932 -5.37589 6.17385e-19)
(133.12 -2.52717 0)
(136.025 -3.71154 0)
(138.84 7.7313 -1.00002e-19)
(134.134 7.82068 9.79749e-20)
(133.325 11.6851 -1.93809e-19)
(134.224 2.94148 -8.34802e-20)
(134.25 6.56871 -7.23626e-20)
(138.797 6.96263 3.86641e-19)
(95.1134 -4.23145 1.10178e-19)
(95.1479 -4.24205 6.70985e-20)
(94.4447 -4.07683 8.42932e-21)
(94.4877 -4.09613 8.4829e-21)
(124.469 -16.1638 6.41938e-20)
(118.257 -19.9332 0)
(124.812 -15.9341 6.58989e-20)
(96.3905 -5.22343 -9.78466e-20)
(96.4621 -5.29916 -2.42967e-20)
(95.6438 -4.48392 1.96214e-20)
(95.6816 -4.51287 -3.9767e-20)
(112.634 -21.3211 -2.33914e-19)
(110.37 -21.3861 0)