/*--------------------------------*- C++ -*----------------------------------*\
| =========                 |                                                 |
| \\      /  F ield         | OpenFOAM: The Open Source CFD Toolbox           |
|  \\    /   O peration     | Version:  v1912                                 |
|   \\  /    A nd           | Website:  www.openfoam.com                      |
|    \\/     M anipulation  |                                                 |
\*---------------------------------------------------------------------------*/
FoamFile
{
    version     2.0;
    format      ascii;
    class       pointVectorField;
    location    "1.62";
    object      pointDisplacement;
}
// * * * * * * * * * * * * * * * * * * * * * * * * * * * * * * * * * * * * * //

dimensions      [0 1 0 0 0 0 0];


internalField   nonuniform List<vector> 
26316
(
(0 0 0)
(0 0 0)
(0 0 0)
(0 0 0)
(0 0 0)
(0 0 0)
(0 0 0)
(0 0 0)
(0 0 0)
(0 0 0)
(0 0 0)
(0 0 0)
(0 0 0)
(0 0 0)
(0 0 0)
(0 0 0)
(0 0 0)
(0 0 0)
(0 0 0)
(0 0 0)
(0 0 0)
(0 0 0)
(0 0 0)
(0 0 0)
(0 0 0)
(0 0 0)
(0 0 0)
(0 0 0)
(0 0 0)
(0 0 0)
(0 0 0)
(0 0 0)
(0 0 0)
(0 0 0)
(0 0 0)
(0 0 0)
(0 0 0)
(0 0 0)
(0 0 0)
(0 0 0)
(0 0 0)
(0 0 0)
(0 0 0)
(0 0 0)
(0 0 0)
(0 0 0)
(0 0 0)
(0 0 0)
(0 0 0)
(0 0 0)
(0 0 0)
(0 0 0)
(0 0 0)
(0 0 0)
(0 0 0)
(0 0 0)
(0 0 0)
(0 0 0)
(0 0 0)
(0 0 0)
(0 0 0)
(0 0 0)
(0 0 0)
(0 0 0)
(0 0 0)
(0 0 0)
(0 0 0)
(0 0 0)
(0 0 0)
(0 0 0)
(0 0 0)
(0 0 0)
(0 0 0)
(0 0 0)
(0 0 0)
(0 0 0)
(0 0 0)
(0 0 0)
(0 0 0)
(0 0 0)
(0 0 0)
(0 0 0)
(0 0 0)
(0 0 0)
(0 0 0)
(0 0 0)
(0 0 0)
(0 0 0)
(0 0 0)
(0 0 0)
(0 0 0)
(0 0 0)
(0 0 0)
(0 0 0)
(0 0 0)
(0 0 0)
(0 0 0)
(0 0 0)
(0 0 0)
(0 0 0)
(0 0 0)
(0 0 0)
(0 0 0)
(0 0 0)
(0 0 0)
(0 0 0)
(0 0 0)
(0 0 0)
(0 0 0)
(0 0 0)
(0 0 0)
(0 0 0)
(0 0 0)
(0 0 0)
(0 0 0)
(0 0 0)
(0 0 0)
(0 0 0)
(0 0 0)
(-5.305680792e-07 1.417712521e-05 2.775557562e-17)
(0 0 0)
(0 0 0)
(-2.92923013e-07 0.0001588059223 3.330669074e-16)
(1.351503881e-06 0.0001349949675 2.91433544e-16)
(0 0 0)
(0 0 0)
(0 0 0)
(0 0 0)
(0 0 0)
(0 0 0)
(0 0 0)
(0 0 0)
(0 0 0)
(0 0 0)
(0 0 0)
(0 0 0)
(0 0 0)
(0 0 0)
(0 0 0)
(0 0 0)
(0 0 0)
(0 0 0)
(0 0 0)
(0 0 0)
(0 0 0)
(0 0 0)
(0 0 0)
(0 0 0)
(0 0 0)
(0 0 0)
(0 0 0)
(0 0 0)
(0 0 0)
(0 0 0)
(0 0 0)
(0 0 0)
(0 0 0)
(0 0 0)
(0 0 0)
(0 0 0)
(0 0 0)
(0 0 0)
(0 0 0)
(0 0 0)
(0 0 0)
(0 0 0)
(0 0 0)
(0 0 0)
(0 0 0)
(0 0 0)
(0 0 0)
(0 0 0)
(0 0 0)
(0 0 0)
(0 0 0)
(0 0 0)
(0 0 0)
(0 0 0)
(0 0 0)
(0 0 0)
(0 0 0)
(0 0 0)
(0 0 0)
(0 0 0)
(0 0 0)
(-3.305392171e-05 0.000219126096 4.996003611e-16)
(-0.000190214145 0.001374500177 3.080868893e-15)
(-2.487464036e-06 1.81762813e-05 4.163336342e-17)
(-0.0003610894747 0.003614208476 8.007483565e-15)
(-0.0008962964067 0.008886251541 1.992850329e-14)
(-0.00106322348 0.01203654834 2.699229729e-14)
(-0.0004961429004 0.005666265507 1.255939797e-14)
(-0.0006032020027 0.01193997548 2.646494135e-14)
(-0.001055905859 0.02079506489 4.662936703e-14)
(-0.0008797797875 0.02297786652 5.151434834e-14)
(-0.0005189421179 0.013587939 3.011479954e-14)
(-2.080267106e-05 0.01589170417 3.522182546e-14)
(-2.484534095e-05 0.02597404488 5.824507543e-14)
(0.0002932308951 0.02563891337 5.749567489e-14)
(0.0001710869643 0.01563139008 3.465283616e-14)
(0.0005703505843 0.01198230918 2.656208586e-14)
(0.001010835172 0.020851499 4.676814491e-14)
(0.001107421678 0.01821871218 4.085620731e-14)
(0.0005997049993 0.01003049966 2.223221607e-14)
(0.0003525836778 0.003659981396 8.118505868e-15)
(0.0008751199985 0.008961597833 2.009503675e-14)
(0.0006582807148 0.005987469545 1.34336986e-14)
(0.0002059606963 0.001897734544 4.204969706e-15)
(0 0 0)
(3.467545733e-05 0.0002359825823 5.273559367e-16)
(0 0 0)
(0 0 0)
(0 0 0)
(0 0 0)
(0 0 0)
(0 0 0)
(0 0 0)
(0 0 0)
(0 0 0)
(0 0 0)
(0 0 0)
(0 0 0)
(0 0 0)
(0 0 0)
(0 0 0)
(0 0 0)
(0 0 0)
(0 0 0)
(0 0 0)
(0 0 0)
(0 0 0)
(0 0 0)
(0 0 0)
(0 0 0)
(0 0 0)
(0 0 0)
(0 0 0)
(0 0 0)
(0 0 0)
(0 0 0)
(0 0 0)
(0 0 0)
(0 0 0)
(0 0 0)
(0 0 0)
(0 0 0)
(0 0 0)
(0 0 0)
(0 0 0)
(0 0 0)
(0 0 0)
(0 0 0)
(0 0 0)
(0 0 0)
(0 0 0)
(0 0 0)
(-9.231427631e-05 0.0004390759815 1.026956298e-15)
(-0.0005042328196 0.002557676558 6.022959909e-15)
(-0.0001194525962 0.0006130504491 1.429412144e-15)
(-0.001703172815 0.01092711039 2.53824739e-14)
(-0.002722890973 0.01728501411 4.06341627e-14)
(-0.003471759295 0.02406556728 5.65658631e-14)
(-0.002340449267 0.01638968144 3.806677196e-14)
(-0.003630530478 0.03506318452 8.142098107e-14)
(-0.004798036984 0.04593996881 1.079414336e-13)
(-0.004819365421 0.05284884613 1.241784453e-13)
(-0.003726124616 0.04118693319 9.563183578e-14)
(-0.00289555442 0.05635831817 1.30867539e-13)
(-0.003589553836 0.06956615377 1.634803404e-13)
(-0.002821414592 0.07334811811 1.723760024e-13)
(-0.002298803428 0.05985642326 1.389999227e-13)
(1.997205791e-05 0.06450663167 1.498523527e-13)
(5.64481629e-05 0.07832884345 1.841582442e-13)
(0.001066348939 0.07777636776 1.828953655e-13)
(0.0008411086841 0.06399126004 1.486727408e-13)
(0.002902958409 0.05642875736 1.31131217e-13)
(0.003653244855 0.06962644146 1.637856517e-13)
(0.004239059112 0.06489566905 1.526834215e-13)
(0.003341267377 0.05208701228 1.21055943e-13)
(0.003595264292 0.03520777353 8.18373147e-14)
(0.004780137144 0.04609032563 1.084549117e-13)
(0.004523703861 0.03884031497 9.138523271e-14)
(0.003313546846 0.02887840407 6.712685963e-14)
(0.001688665343 0.01106276045 2.570166302e-14)
(0.002701163378 0.01745720788 4.106437412e-14)
(0.001909023948 0.01139610294 2.681188604e-14)
(0.001059768445 0.00641040249 1.489086632e-14)
(0 0 0)
(9.164786211e-05 0.000443886259 1.040834086e-15)
(0 0 0)
(0 0 0)
(0 0 0)
(0 0 0)
(0 0 0)
(0 0 0)
(0 0 0)
(0 0 0)
(0 0 0)
(0 0 0)
(0 0 0)
(0 0 0)
(0 0 0)
(0 0 0)
(0 0 0)
(0 0 0)
(0 0 0)
(0 0 0)
(0 0 0)
(0 0 0)
(0 0 0)
(0 0 0)
(0 0 0)
(0 0 0)
(0 0 0)
(0 0 0)
(0 0 0)
(0 0 0)
(0 0 0)
(0 0 0)
(0 0 0)
(0 0 0)
(0 0 0)
(0 0 0)
(0 0 0)
(0 0 0)
(0 0 0)
(0 0 0)
(0 0 0)
(-3.971743111e-05 0.0001509152522 3.747002708e-16)
(0 0 0)
(-0.001689997383 0.00775176891 1.891542478e-14)
(-0.00251147883 0.0113609615 2.808864252e-14)
(-0.00392874402 0.01898852592 4.690692279e-14)
(-0.002885271541 0.01412862456 3.447242491e-14)
(-0.006582919594 0.0404564032 9.864331574e-14)
(-0.007986020809 0.04852634379 1.197930644e-13)
(-0.008922098347 0.0592683534 1.462996391e-13)
(-0.007509093998 0.05043998487 1.229572e-13)
(-0.008514111219 0.07925135603 1.931510507e-13)
(-0.009700587855 0.08933986359 2.204764149e-13)
(-0.009252939464 0.0977471314 2.412237077e-13)
(-0.008202319466 0.08756147653 2.134126209e-13)
(-0.005592450366 0.1062737041 2.590982984e-13)
(-0.006168912427 0.1160949554 2.866179516e-13)
(-0.004717500992 0.1198303741 2.959021916e-13)
(-0.004300097366 0.1102236242 2.687711165e-13)
(0.0001868875628 0.1152296485 2.81163981e-13)
(0.0002191300357 0.1244577712 3.075456556e-13)
(0.001910830055 0.1239367697 3.063382881e-13)
(0.001732056875 0.1146687791 2.798594689e-13)
(0.005883023733 0.1062515516 2.594868764e-13)
(0.006524500221 0.1160300294 2.870065297e-13)
(0.007754042518 0.1111148688 2.749050987e-13)
(0.006951524546 0.101150821 2.470662563e-13)
(0.008615251533 0.07933440066 1.938449401e-13)
(0.009850289167 0.08931718622 2.21059282e-13)
(0.009894081696 0.07998746968 1.979805209e-13)
(0.008558913971 0.07026074353 1.716682352e-13)
(0.006534561564 0.04038592341 9.867107131e-14)
(0.008144259248 0.04943780543 1.223882107e-13)
(0.00701939072 0.03935796976 9.744982599e-14)
(0.005563443363 0.03170127593 7.745193376e-14)
(0.001927862201 0.008945818221 2.18575158e-14)
(0.002881308649 0.01318786959 3.264055692e-14)
(0.001625793169 0.007010418508 1.734723476e-14)
(0.0009290552535 0.00406034226 9.922618283e-15)
(0 0 0)
(0 0 0)
(0 0 0)
(0 0 0)
(0 0 0)
(0 0 0)
(0 0 0)
(0 0 0)
(0 0 0)
(0 0 0)
(0 0 0)
(0 0 0)
(0 0 0)
(0 0 0)
(0 0 0)
(0 0 0)
(0 0 0)
(0 0 0)
(0 0 0)
(0 0 0)
(0 0 0)
(0 0 0)
(0 0 0)
(0 0 0)
(0 0 0)
(0 0 0)
(0 0 0)
(0 0 0)
(0 0 0)
(0 0 0)
(0 0 0)
(0 0 0)
(0 0 0)
(0 0 0)
(0 0 0)
(-0.0001835690799 0.0006371564507 1.637578961e-15)
(-0.0004174569496 0.001429530055 3.73312492e-15)
(-0.001482630877 0.005343471229 1.393329896e-14)
(-0.0009967967302 0.003640920098 9.36750677e-15)
(-0.005855296823 0.02541805919 6.5336625e-14)
(-0.006926444275 0.02967472697 7.729927809e-14)
(-0.008926238623 0.04082263105 1.063177324e-13)
(-0.007739369368 0.03586309986 9.217626662e-14)
(-0.01220473639 0.07099065886 1.822569873e-13)
(-0.01347736344 0.07728300161 2.010891453e-13)
(-0.01419821009 0.08894072601 2.313843561e-13)
(-0.0129793564 0.08254970163 2.118583087e-13)
(-0.01280231025 0.1132164917 2.904065877e-13)
(-0.01359394492 0.1181692731 3.071987109e-13)
(-0.01253901448 0.1250833744 3.251843239e-13)
(-0.01185049522 0.1201934257 3.083228117e-13)
(-0.00742720476 0.1342088332 3.444605712e-13)
(-0.007679362981 0.1360968387 3.539807336e-13)
(-0.005751874408 0.1373598876 3.573530361e-13)
(-0.00559874943 0.1363454584 3.500255641e-13)
(0.0002212887578 0.1383931455 3.555766792e-13)
(0.0001878590583 0.1379704291 3.592681708e-13)
(0.002176663126 0.1379077907 3.592126596e-13)
(0.002184671456 0.1381616576 3.551048344e-13)
(0.007890541146 0.1341743442 3.451822161e-13)
(0.008102786622 0.1359471382 3.544664562e-13)
(0.009903158384 0.1336594226 3.486239075e-13)
(0.009575116916 0.130971546 3.370359547e-13)
(0.01309193142 0.1129975181 2.910449659e-13)
(0.01391959835 0.118035432 3.082673006e-13)
(0.01459049774 0.110190159 2.879085859e-13)
(0.01358189795 0.1042070673 2.685213163e-13)
(0.01253854118 0.07272005238 1.874334021e-13)
(0.01381769378 0.07900878199 2.064459714e-13)
(0.01265490785 0.06697389202 1.749711487e-13)
(0.01135093218 0.06093346941 1.57027169e-13)
(0.006179955907 0.02712532127 6.984690604e-14)
(0.007284394462 0.03152349174 8.22952817e-14)
(0.005251220213 0.02142024671 5.589972929e-14)
(0.004302383996 0.01779928556 4.582445534e-14)
(0.0002839816924 0.001000763935 2.581268532e-15)
(0.000487861687 0.001695324362 4.427014311e-15)
(1.23847648e-05 4.099049322e-05 1.110223025e-16)
(0 0 0)
(0 0 0)
(0 0 0)
(0 0 0)
(0 0 0)
(0 0 0)
(0 0 0)
(0 0 0)
(0 0 0)
(0 0 0)
(0 0 0)
(0 0 0)
(0 0 0)
(0 0 0)
(0 0 0)
(0 0 0)
(0 0 0)
(0 0 0)
(0 0 0)
(0 0 0)
(0 0 0)
(0 0 0)
(0 0 0)
(0 0 0)
(0 0 0)
(0 0 0)
(0 0 0)
(0 0 0)
(0 0 0)
(-1.747244569e-05 5.072195716e-05 1.387778781e-16)
(-4.767751794e-07 1.404482433e-06 0)
(0 0 0)
(-0.001310532172 0.004304761146 1.169897512e-14)
(-0.001654091539 0.005356425581 1.476596623e-14)
(-0.003431366381 0.01169655116 3.222422329e-14)
(-0.002927556287 0.01012215538 2.750577544e-14)
(-0.00950296908 0.03905983249 1.060262989e-13)
(-0.01034351402 0.04190903703 1.153521723e-13)
(-0.01256138695 0.05431560486 1.494637747e-13)
(-0.01190139735 0.05221980655 1.416783357e-13)
(-0.0164369437 0.09032018646 2.448458103e-13)
(-0.01711510769 0.09263729455 2.546990396e-13)
(-0.01756043213 0.1037002667 2.850775171e-13)
(-0.01694746999 0.1016280493 2.75474088e-13)
(-0.01526829964 0.1258491223 3.411437799e-13)
(-0.01558726698 0.1263051752 3.472916399e-13)
(-0.01401590482 0.1295601853 3.562983242e-13)
(-0.01382050359 0.1301364304 3.527733661e-13)
(-0.00803056187 0.1325182429 0)
(-0.008151601476 0.1305912242 0)
(-0.007149335167 0.1305867508 0)
(-0.006092276899 0.1306246814 0)
(-0.006023489452 0.1315784037 0)
(-0.005994136955 0.1325098189 0)
(6.533127895e-05 0.1324161828 0)
(4.51721013e-05 0.1314898167 0)
(0.001060058937 0.1314685435 0)
(0.00107471981 0.1323949421 0)
(0.008224528298 0.1321626707 0)
(0.008234112491 0.1312105885 0)
(0.00825057393 0.1302436095 0)
(0.009259507053 0.1301925364 0)
(0.0102541839 0.1301601203 0)
(0.01025183217 0.1320716841 0)
(0.0155072967 0.1260964333 3.435030038e-13)
(0.01574628021 0.1264254045 3.493594303e-13)
(0.01695168118 0.1213258469 3.353567424e-13)
(0.01658601218 0.1202778004 3.277239591e-13)
(0.01677907836 0.09198019247 2.506744812e-13)
(0.01738280123 0.09392962121 2.597366766e-13)
(0.01650554247 0.0824912773 2.280953204e-13)
(0.01575710884 0.07990586372 2.177424907e-13)
(0.01017284114 0.04214334765 1.147693052e-13)
(0.01112558654 0.04542460995 1.255107129e-13)
(0.008766920471 0.03374081095 9.318934513e-14)
(0.00789594089 0.03083407487 8.394673845e-14)
(0.001758434229 0.005855454047 1.59317004e-14)
(0.00219797055 0.007213866153 1.990074772e-14)
(0.000787461357 0.002462770492 6.800116026e-15)
(0.0005357800988 0.001699985444 4.62130334e-15)
(0 0 0)
(0 0 0)
(0 0 0)
(0 0 0)
(0 0 0)
(0 0 0)
(0 0 0)
(0 0 0)
(0 0 0)
(0 0 0)
(0 0 0)
(0 0 0)
(0 0 0)
(0 0 0)
(0 0 0)
(0 0 0)
(0 0 0)
(0 0 0)
(0 0 0)
(0 0 0)
(0 0 0)
(0 0 0)
(0 0 0)
(0 0 0)
(0 0 0)
(0 0 0)
(0 0 0)
(0 0 0)
(-0.0001574357842 0.0004302106123 1.276756478e-15)
(-8.971818877e-05 0.0002489770474 7.21644966e-16)
(-7.339729948e-05 0.000206791811 5.967448757e-16)
(-0.002376671121 0.007360994118 2.120525977e-14)
(-0.002464849159 0.007518482218 2.198241589e-14)
(-0.004563618739 0.01465097704 4.284073096e-14)
(-0.004443087799 0.0144841624 4.171663015e-14)
(-0.01194925198 0.04626849754 1.330602295e-13)
(-0.01214004697 0.04628023049 1.351141421e-13)
(-0.0144528358 0.05876812468 1.715155795e-13)
(-0.01424942146 0.05885675566 1.69197989e-13)
(-0.01848935455 0.09539916959 2.740585536e-13)
(-0.01868032783 0.09483243993 2.765565554e-13)
(-0.01892412959 0.1046937664 3.053113318e-13)
(-0.0187522209 0.1054713308 3.029659856e-13)
(-0.01608495079 0.1236888734 3.554240235e-13)
(-0.01616562784 0.1221260327 3.562983242e-13)
(-0.01432033764 0.1231067886 0)
(-0.01427676606 0.1249908069 3.592681708e-13)
(-0.008342180659 0.1248858033 0)
(-0.008368460769 0.123930053 0)
(-0.007379927808 0.1239143482 0)
(-0.007353767064 0.1248685947 0)
(0.00819301517 0.1245556312 0)
(0.008178121753 0.1236089102 0)
(0.009166185561 0.1235835732 0)
(0.00918208911 0.1245288704 0)
(0.01602920857 0.1237310978 3.575056917e-13)
(0.01602906108 0.1221597086 3.583661146e-13)
(0.01763335014 0.1196382127 3.510941537e-13)
(0.01756978368 0.1207802718 3.490818745e-13)
(0.01906386803 0.0987738972 2.855771175e-13)
(0.01928784933 0.09855078085 2.893102424e-13)
(0.01862443907 0.0879535044 2.581684866e-13)
(0.01836450936 0.08796422089 2.542965838e-13)
(0.01305879384 0.05103761074 1.474098621e-13)
(0.01335244326 0.05142225342 1.507960423e-13)
(0.0108432364 0.0393443355 1.153382945e-13)
(0.01056496661 0.03890968849 1.123406923e-13)
(0.003189028301 0.01001145504 2.886579864e-14)
(0.003601155842 0.01113375985 3.259892356e-14)
(0.001717514576 0.005060097306 1.480759959e-14)
(0.001413887168 0.004229726259 1.219857548e-14)
(0 0 0)
(0 0 0)
(0 0 0)
(0 0 0)
(0 0 0)
(0 0 0)
(0 0 0)
(0 0 0)
(0 0 0)
(0 0 0)
(0 0 0)
(0 0 0)
(0 0 0)
(0 0 0)
(0 0 0)
(0 0 0)
(0 0 0)
(0 0 0)
(0 0 0)
(0 0 0)
(0 0 0)
(0 0 0)
(0 0 0)
(0 0 0)
(0 0 0)
(0 0 0)
(0 0 0)
(0 0 0)
(-0.0002584404353 0.0006624952978 2.095545959e-15)
(-0.0002334233036 0.0006082280412 1.887379142e-15)
(-0.0002047784798 0.0005422471335 1.665334537e-15)
(-0.002928707697 0.008522950104 2.611799665e-14)
(-0.003028412163 0.008672405166 2.700617507e-14)
(-0.005281150967 0.01591509082 4.954370247e-14)
(-0.005156382566 0.01579202835 4.83779683e-14)
(-0.01289847976 0.04687192829 1.433853036e-13)
(-0.01305450984 0.04666471704 1.45064516e-13)
(-0.01534871089 0.05848481031 1.817296313e-13)
(-0.01519553696 0.05887096537 1.800226634e-13)
(-0.01923088322 0.09284130438 2.836897384e-13)
(-0.01934848109 0.09181406531 2.850775171e-13)
(-0.01948268984 0.1006444826 3.124861481e-13)
(-0.01938229273 0.1018904109 3.113204139e-13)
(-0.01634513947 0.1169969351 3.57686103e-13)
(-0.01639286441 0.115205438 3.578942698e-13)
(-0.01447798935 0.1156056211 0)
(-0.01443984823 0.1174762712 0)
(-0.008515086247 0.1173492947 0)
(-0.008534734528 0.1164133316 0)
(-0.007548788647 0.116392339 0)
(-0.007529010301 0.1173282993 0)
(0.008051643034 0.1170030994 0)
(0.008031441787 0.1160616396 0)
(0.009017193562 0.116039697 0)
(0.009037557886 0.1169806761 0)
(0.01594512259 0.1168083001 3.592126596e-13)
(0.0159040271 0.1149437888 3.59254293e-13)
(0.01767488478 0.1135846088 3.5513259e-13)
(0.0176900378 0.1152645952 3.545774785e-13)
(0.01985643022 0.09718319115 2.99080205e-13)
(0.0199475046 0.09620537752 3.009259508e-13)
(0.01948631178 0.0867754084 2.713940184e-13)
(0.01935802486 0.08750135591 2.692707168e-13)
(0.01440578705 0.05300899859 1.6298074e-13)
(0.01461345311 0.05294275053 1.654371085e-13)
(0.01212985148 0.04138294586 1.292577156e-13)
(0.01191333928 0.04128751249 1.268846139e-13)
(0.004129321873 0.01218748753 3.740063814e-14)
(0.004297148934 0.01248157927 3.89271948e-14)
(0.002216031293 0.006132715729 1.91235916e-14)
(0.002089142938 0.005875049013 1.801336857e-14)
(0 0 0)
(0 0 0)
(0 0 0)
(0 0 0)
(0 0 0)
(0 0 0)
(0 0 0)
(0 0 0)
(0 0 0)
(0 0 0)
(0 0 0)
(0 0 0)
(0 0 0)
(0 0 0)
(0 0 0)
(0 0 0)
(0 0 0)
(0 0 0)
(0 0 0)
(0 0 0)
(0 0 0)
(0 0 0)
(0 0 0)
(0 0 0)
(0 0 0)
(0 0 0)
(0 0 0)
(0 0 0)
(-0.0003812366276 0.0009129392767 3.094746681e-15)
(-0.0003437097148 0.0008375622398 2.789435349e-15)
(-0.0003102976212 0.0007692404486 2.525757381e-15)
(-0.003276655977 0.008927121074 2.922662112e-14)
(-0.003377213483 0.009044406677 3.011479954e-14)
(-0.005713398152 0.01609811816 5.358213873e-14)
(-0.005589611093 0.01602309626 5.243028234e-14)
(-0.01343910732 0.0456535687 1.491307078e-13)
(-0.01359081997 0.04536576971 1.50754409e-13)
(-0.01587617364 0.05645527246 1.875166689e-13)
(-0.0157276623 0.05692607478 1.858790899e-13)
(-0.01964686218 0.08839991428 2.88422064e-13)
(-0.01976000455 0.08729700797 2.897265761e-13)
(-0.0198373971 0.0953150425 3.163441731e-13)
(-0.01974117104 0.09662677333 3.152617056e-13)
(-0.01652571803 0.109769387 3.583661146e-13)
(-0.01656988938 0.1079560817 3.585187702e-13)
(-0.01462735109 0.1081386967 0)
(-0.01459031433 0.1100044259 0)
(-0.00866940718 0.1098777065 0)
(-0.008688412863 0.108945373 0)
(-0.007703806287 0.1089246263 0)
(-0.007694215796 0.1093908346 0)
(-0.007684633766 0.1098566526 0)
(0.00787937295 0.1094798933 0)
(0.007856387372 0.1085420506 0)
(0.008841045765 0.1085216933 0)
(0.008864154826 0.1094592296 0)
(0.01576662784 0.1093050069 3.592404152e-13)
(0.01571685802 0.1074151246 3.591710263e-13)
(0.01745458715 0.1059221556 3.542999227e-13)
(0.01752346965 0.1079101005 3.547717675e-13)
(0.01976910041 0.09111818854 2.997047055e-13)
(0.01966456226 0.08923410702 2.986083603e-13)
(0.0191952571 0.08034697322 2.688405054e-13)
(0.01930414628 0.08209406877 2.69978484e-13)
(0.01443574068 0.04985159984 1.637856517e-13)
(0.01433424666 0.04869222286 1.627586954e-13)
(0.01186672262 0.03793602628 1.267319583e-13)
(0.01195996159 0.03887547414 1.2766177e-13)
(0.004180728507 0.01155866445 3.79002385e-14)
(0.004126009918 0.01121556948 3.741451593e-14)
(0.002090272768 0.005412227337 1.804112415e-14)
(0.002128892187 0.005606844792 1.837419106e-14)
(0 0 0)
(0 0 0)
(0 0 0)
(0 0 0)
(0 0 0)
(0 0 0)
(0 0 0)
(0 0 0)
(0 0 0)
(0 0 0)
(0 0 0)
(0 0 0)
(0 0 0)
(0 0 0)
(0 0 0)
(0 0 0)
(0 0 0)
(0 0 0)
(0 0 0)
(0 0 0)
(0 0 0)
(0 0 0)
(0 0 0)
(0 0 0)
(0 0 0)
(0 0 0)
(0 0 0)
(0 0 0)
(-0.0005459669895 0.001215376017 4.427014311e-15)
(-0.0005013426238 0.001137167366 4.066191828e-15)
(-0.0004581821294 0.001058580236 3.719247132e-15)
(-0.003691678671 0.009372238962 3.291811268e-14)
(-0.003802487262 0.009476869562 3.390343561e-14)
(-0.006231399902 0.01633565547 5.841160888e-14)
(-0.006097283227 0.01628309226 5.714873019e-14)
(-0.0140554576 0.0444248929 1.556810236e-13)
(-0.01421577863 0.0440920332 1.573741137e-13)
(-0.01648574127 0.05443826624 1.942057626e-13)
(-0.01632974401 0.05495849697 1.924987947e-13)
(-0.02010248913 0.08390655728 2.9365399e-13)
(-0.02021890612 0.08275456663 2.949862576e-13)
(-0.02022506635 0.08994853334 3.206324095e-13)
(-0.02012719424 0.09130525015 3.195499421e-13)
(-0.01669797618 0.1024788577 3.589073483e-13)
(-0.01673910896 0.1006423479 3.590044928e-13)
(-0.01477359784 0.100671401 0)
(-0.01473736132 0.102538232 0)
(-0.008820090357 0.1024118517 0)
(-0.00883855123 0.1014786389 0)
(-0.007855636442 0.1014578855 0)
(-0.007846297618 0.1019244896 0)
(-0.00783691732 0.1023910061 0)
(0.007688394509 0.101988063 0)
(0.007662749125 0.1010515793 0)
(0.008646475333 0.1010322398 0)
(0.008672331851 0.1019684587 0)
(0.01553345991 0.1015663793 3.583244812e-13)
(0.01545238829 0.09949993173 3.576028362e-13)
(0.01700827454 0.09707448552 3.489986078e-13)
(0.0171540012 0.09946414661 3.510247648e-13)
(0.01896253453 0.08196830993 2.893796314e-13)
(0.01856337996 0.07890013572 2.837452495e-13)
(0.01803967403 0.07065089604 2.540467836e-13)
(0.01836802046 0.07317895798 2.583211423e-13)
(0.01327821596 0.04285029696 1.510874759e-13)
(0.01294258888 0.04103228845 1.473682287e-13)
(0.01049679078 0.03129862848 1.123545701e-13)
(0.01080953389 0.03281311145 1.15629728e-13)
(0.003372328116 0.008696559639 3.060052212e-14)
(0.003191264521 0.008081261604 2.896294315e-14)
(0.001418910351 0.003421690279 1.225408663e-14)
(0.001540348068 0.003782997684 1.330879851e-14)
(0 0 0)
(0 0 0)
(0 0 0)
(0 0 0)
(0 0 0)
(0 0 0)
(0 0 0)
(0 0 0)
(0 0 0)
(0 0 0)
(0 0 0)
(0 0 0)
(0 0 0)
(0 0 0)
(0 0 0)
(0 0 0)
(0 0 0)
(0 0 0)
(0 0 0)
(0 0 0)
(0 0 0)
(0 0 0)
(0 0 0)
(0 0 0)
(0 0 0)
(0 0 0)
(0 0 0)
(0 0 0)
(-0.0006900458131 0.001419722222 5.606626274e-15)
(-0.0007136193638 0.001498317856 5.800915304e-15)
(-0.000651427744 0.00139521794 5.287437155e-15)
(-0.004164768966 0.009799103959 3.712308239e-14)
(-0.004306443017 0.009932136168 3.838596108e-14)
(-0.006834348162 0.01657519454 6.400435737e-14)
(-0.00666595223 0.01649397611 6.245004514e-14)
(-0.0147273975 0.04307138052 1.627586954e-13)
(-0.01492207027 0.04276011879 1.648264858e-13)
(-0.01716915817 0.05234702058 2.016581346e-13)
(-0.01698158271 0.0528497232 1.996180998e-13)
(-0.0205828981 0.07926111229 2.991357162e-13)
(-0.02071689123 0.07810988805 3.006761506e-13)
(-0.02063822236 0.08447914474 3.251982017e-13)
(-0.02052829051 0.08584089738 3.239630786e-13)
(-0.01685769252 0.09510335493 3.592265374e-13)
(-0.01689571211 0.09324607084 3.59254293e-13)
(-0.01491706528 0.09320625724 0)
(-0.01488122835 0.09507266311 0)
(-0.00896493951 0.09494699816 0)
(-0.008982574755 0.09401385414 0)
(-0.008001519533 0.09399335804 0)
(-0.007992611439 0.09446010159 0)
(-0.007983667512 0.09492649736 0)
(0.007476428476 0.09451451522 0)
(0.007448118483 0.09358116896 0)
(0.008431514775 0.09356261736 0)
(0.008460128253 0.09449595704 0)
(0.01514186756 0.09295963357 3.539113447e-13)
(0.01500222729 0.09058981394 3.518574321e-13)
(0.01629323571 0.08700453878 3.380212776e-13)
(0.01651083936 0.08969706063 3.416017469e-13)
(0.01743806417 0.07029771604 2.67758038e-13)
(0.01714000745 0.06783801154 2.635947016e-13)
(0.01625301704 0.05920071698 2.299826996e-13)
(0.01677080988 0.06224399605 2.370326158e-13)
(0.0114340411 0.03429056576 1.304234498e-13)
(0.01071673293 0.031522531 1.222910662e-13)
(0.008309453321 0.02297734142 8.909539773e-14)
(0.009028817357 0.02545714807 9.676981438e-14)
(0.002264100753 0.005417095706 2.056688153e-14)
(0.001977321727 0.004638762914 1.795785742e-14)
(0.0006422218737 0.001434562663 5.551115123e-15)
(0.0008083439233 0.001841562797 6.994405055e-15)
(0 0 0)
(0 0 0)
(0 0 0)
(0 0 0)
(0 0 0)
(0 0 0)
(0 0 0)
(0 0 0)
(0 0 0)
(0 0 0)
(0 0 0)
(0 0 0)
(0 0 0)
(0 0 0)
(0 0 0)
(0 0 0)
(0 0 0)
(0 0 0)
(0 0 0)
(0 0 0)
(0 0 0)
(0 0 0)
(0 0 0)
(0 0 0)
(0 0 0)
(0 0 0)
(0 0 0)
(0 0 0)
(-0.001226861732 0.002316678355 9.964251646e-15)
(-0.00111850875 0.00215957584 9.076073226e-15)
(-0.0009572496384 0.00188866435 7.771561172e-15)
(-0.004761814141 0.01031766511 4.241051954e-14)
(-0.005116240342 0.01084713566 4.556077737e-14)
(-0.007759685215 0.01729459432 7.259470802e-14)
(-0.007326134134 0.016688875 6.857014956e-14)
(-0.01557988269 0.04188784479 1.717515019e-13)
(-0.01586948034 0.04172967079 1.748046152e-13)
(-0.01803800813 0.05043419542 2.111644193e-13)
(-0.01779885508 0.05089057842 2.085553952e-13)
(-0.02115484727 0.07466888893 3.057415432e-13)
(-0.02123033208 0.07324026823 3.064215548e-13)
(-0.02111678131 0.07901784452 3.305966612e-13)
(-0.02099224719 0.08039145635 3.291811268e-13)
(-0.0170074122 0.08765038982 0)
(-0.01704580332 0.08578421284 0)
(-0.01506419626 0.08574219055 0)
(-0.01504518118 0.08667495764 0)
(-0.01502642434 0.08760781708 0)
(-0.009103931027 0.08748223444 0)
(-0.009112605421 0.08701626658 0)
(-0.008621943984 0.08700618913 0)
(-0.008613315766 0.08747202787 0)
(-0.0005938008641 0.08718697491 0)
(-0.0006042479688 0.08695470906 0)
(-0.0006131334975 0.08672236597 0)
(-0.0001326301199 0.08671741025 0)
(-0.0001125636372 0.08718165627 0)
(0.007228426883 0.08705940276 0)
(0.007193004575 0.08613011454 0)
(0.007157197712 0.08520109491 0)
(0.009129785771 0.08516321539 0)
(0.00919891029 0.08702247976 0)
(0.008214035224 0.08704084656 0)
(0.01448433313 0.08302871687 3.431976925e-13)
(0.01423134182 0.08009768194 3.383127112e-13)
(0.01516896143 0.07528662236 3.18051141e-13)
(0.01557289687 0.07877446914 3.256978021e-13)
(0.01567884165 0.05854862957 2.420563749e-13)
(0.01511357738 0.05529988041 2.3361868e-13)
(0.01401526989 0.04714954878 1.991184995e-13)
(0.01460671869 0.05016177725 2.073202721e-13)
(0.008881197478 0.02458759198 1.014743845e-13)
(0.00834646159 0.02262478862 9.540979118e-14)
(0.006105162961 0.01555114573 6.554479182e-14)
(0.006576015217 0.01710932988 7.0568551e-14)
(0.000935008343 0.002062668045 8.493206138e-15)
(0.0007600758783 0.001641326597 6.911138328e-15)
(6.026358751e-05 0.0001239014925 5.273559367e-16)
(0.0001151371403 0.0002418367438 9.992007222e-16)
(0 0 0)
(0 0 0)
(0 0 0)
(0 0 0)
(0 0 0)
(0 0 0)
(0 0 0)
(0 0 0)
(0 0 0)
(0 0 0)
(0 0 0)
(0 0 0)
(0 0 0)
(0 0 0)
(0 0 0)
(0 0 0)
(0 0 0)
(0 0 0)
(0 0 0)
(0 0 0)
(0 0 0)
(0 0 0)
(0 0 0)
(0 0 0)
(0 0 0)
(0 0 0)
(0 0 0)
(0 0 0)
(-0.00116348092 0.002009541476 9.478529073e-15)
(-0.001314839085 0.002326711616 1.072752998e-14)
(-0.001404987161 0.002545820204 1.146305273e-14)
(-0.005666624742 0.01127654351 5.068168107e-14)
(-0.005484533779 0.01065811063 4.90579799e-14)
(-0.00818106917 0.01671219487 7.686906667e-14)
(-0.008399108484 0.01757078821 7.892297926e-14)
(-0.01658605973 0.04092916948 1.834365992e-13)
(-0.01631964573 0.0393136881 1.804112415e-13)
(-0.0184592328 0.04727130564 2.168126789e-13)
(-0.01871882563 0.04911095667 2.199906923e-13)
(-0.02165119921 0.07007982444 3.1366576e-13)
(-0.02148047417 0.06782662022 3.108346913e-13)
(-0.02120322199 0.07262038084 3.32830985e-13)
(-0.02132469181 0.07488545732 3.352179645e-13)
(-0.01694212692 0.08016263111 0)
(-0.01698260566 0.07829619578 0)
(-0.01499546984 0.07825309932 0)
(-0.01497523517 0.07918610021 0)
(-0.0149549911 0.08011953465 0)
(-0.008993670356 0.07999024716 0)
(-0.009013914428 0.07905681272 0)
(-0.008020389873 0.07903526543 0)
(-0.008010263136 0.07950219942 0)
(-0.008000145802 0.07996869987 0)
(-0.008496908079 0.07997947351 0)
(-0.001045258573 0.07981786417 0)
(-0.001055375077 0.07935136371 0)
(-0.001065501398 0.07888442971 0)
(-7.194631645e-05 0.07886288176 0)
(-5.170224528e-05 0.0797963162 0)
(0.00690315606 0.07964548113 0)
(0.006862677321 0.0777790458 0)
(0.008818971868 0.07743938201 3.578942698e-13)
(0.00888385238 0.0795395853 3.58990615e-13)
(0.01349036952 0.07169639091 3.240324675e-13)
(0.01315544196 0.06853471826 3.171213292e-13)
(0.01380089855 0.06322560401 2.925992781e-13)
(0.01420415881 0.06644071772 3.003430837e-13)
(0.013156198 0.04513998395 2.03989603e-13)
(0.01262422265 0.04235620064 1.959821194e-13)
(0.01124991249 0.03465324834 1.602884492e-13)
(0.01202024037 0.03788901369 1.711686348e-13)
(0.00629900991 0.01597648971 7.206735209e-14)
(0.005489390742 0.01360227729 6.281086762e-14)
(0.003729549243 0.008681936553 4.007905119e-14)
(0.004249906448 0.0101265348 4.565792189e-14)
(0.0001564866498 0.0003160359023 1.415534356e-15)
(7.068363031e-05 0.0001394586182 6.383782392e-16)
(0 0 0)
(0 0 0)
(0 0 0)
(0 0 0)
(0 0 0)
(0 0 0)
(0 0 0)
(0 0 0)
(0 0 0)
(0 0 0)
(0 0 0)
(0 0 0)
(0 0 0)
(0 0 0)
(0 0 0)
(0 0 0)
(0 0 0)
(0 0 0)
(0 0 0)
(0 0 0)
(0 0 0)
(0 0 0)
(0 0 0)
(0 0 0)
(0 0 0)
(0 0 0)
(0 0 0)
(0 0 0)
(0 0 0)
(0 0 0)
(-0.0002717569983 0.0004233318331 2.220446049e-15)
(-0.0004931034349 0.0007890140956 4.024558464e-15)
(-0.0007325925726 0.001203246592 5.967448757e-15)
(-0.004202698024 0.007580334907 3.759492717e-14)
(-0.003590747918 0.006309970672 3.214095656e-14)
(-0.00584846557 0.01080338648 5.498379529e-14)
(-0.006615692969 0.01254290786 6.217248938e-14)
(-0.01430152807 0.03196228905 1.580818809e-13)
(-0.01325916085 0.02887244838 1.466049504e-13)
(-0.01538666831 0.03560776431 1.80702675e-13)
(-0.01644557951 0.03906115621 1.93067784e-13)
(-0.01995606887 0.05836870769 2.882138972e-13)
(-0.01907889734 0.05435724555 2.755434769e-13)
(-0.0192317692 0.05938091477 3.010092176e-13)
(-0.01998118665 0.06334724482 3.127914594e-13)
(-0.0169097574 0.07190673041 3.553823902e-13)
(-0.01665470272 0.06889731899 3.495120859e-13)
(-0.01502116238 0.07018361801 3.562150575e-13)
(-0.01510739976 0.07260950531 3.590461262e-13)
(-0.00915560412 0.07252363873 0)
(-0.009196092263 0.07065676985 0)
(-0.007208999799 0.07061367433 0)
(-0.007168511657 0.07248054321 0)
(-0.008162079566 0.07250209144 0)
(-0.001207190912 0.07235125572 0)
(-0.001247679054 0.07048438683 0)
(0.0007394264156 0.07044129103 0)
(0.000779914558 0.07230815992 0)
(0.006689143858 0.07153657285 3.560624018e-13)
(0.006560210774 0.06860444406 3.505251644e-13)
(0.008265407402 0.06646727268 3.397837567e-13)
(0.008480382575 0.06986200127 3.479161403e-13)
(0.01205059996 0.05843237367 2.912947661e-13)
(0.01153018996 0.05446715442 2.787076125e-13)
(0.01177426271 0.04883581088 2.499112028e-13)
(0.01238344606 0.05273397271 2.6291469e-13)
(0.01044347592 0.03254201137 1.621480727e-13)
(0.009702233374 0.02944031779 1.505601199e-13)
(0.0082296255 0.02292766494 1.171840402e-13)
(0.008956249543 0.02562272684 1.276062589e-13)
(0.003512833705 0.008083771169 4.019007349e-14)
(0.003018161773 0.00676471097 3.452793607e-14)
(0.001544093658 0.00325172862 1.658395643e-14)
(0.002097475748 0.004535249193 2.25375274e-14)
(0 0 0)
(0 0 0)
(0 0 0)
(0 0 0)
(0 0 0)
(0 0 0)
(0 0 0)
(0 0 0)
(0 0 0)
(0 0 0)
(0 0 0)
(0 0 0)
(0 0 0)
(0 0 0)
(0 0 0)
(0 0 0)
(0 0 0)
(0 0 0)
(0 0 0)
(0 0 0)
(0 0 0)
(0 0 0)
(0 0 0)
(0 0 0)
(0 0 0)
(0 0 0)
(0 0 0)
(0 0 0)
(0 0 0)
(0 0 0)
(0 0 0)
(0 0 0)
(0 0 0)
(0 0 0)
(-6.675121398e-06 9.832639946e-06 5.551115123e-17)
(-0.001597570113 0.002585444595 1.432187702e-14)