/*--------------------------------*- C++ -*----------------------------------*\
| =========                 |                                                 |
| \\      /  F ield         | OpenFOAM: The Open Source CFD Toolbox           |
|  \\    /   O peration     | Version:  v1912                                 |
|   \\  /    A nd           | Website:  www.openfoam.com                      |
|    \\/     M anipulation  |                                                 |
\*---------------------------------------------------------------------------*/
FoamFile
{
    version     2.0;
    format      ascii;
    class       volScalarField;
    location    "900";
    object      k;
}
// * * * * * * * * * * * * * * * * * * * * * * * * * * * * * * * * * * * * * //

dimensions      [0 2 -2 0 0 0 0];


internalField   nonuniform List<scalar> 
12556
(
36.829
36.8288
36.8289
36.8308
36.9166
36.9183
36.9196
36.9223
36.9273
36.9363
36.9494
36.9642
36.9749
36.9759
36.967
36.9534
36.9405
36.9309
36.9244
36.9208
36.833
36.8298
36.8291
36.8287
36.6491
36.6493
36.6497
36.6537
36.7326
36.7401
36.7473
36.7947
36.8093
36.8345
36.8712
36.9126
36.9433
36.9483
36.9259
36.8886
36.8513
36.8223
36.7634
36.7487
36.66
36.6526
36.6506
36.6496
36.4704
36.4708
36.4717
36.4776
36.5523
36.5656
36.5815
36.6335
36.6689
36.728
36.8118
36.8989
36.9549
36.9637
36.9245
36.8492
36.7659
36.6989
36.617
36.5855
36.4924
36.4795
36.4751
36.4733
36.2934
36.2939
36.2955
36.3038
36.3749
36.3955
36.4239
36.4905
36.5645
36.687
36.8337
36.9653
37.0476
37.0561
36.994
36.8824
36.7467
36.617
36.4966
36.437
36.3321
36.3108
36.3028
36.2996
36.1181
36.1188
36.1215
36.1328
36.203
36.233
36.28
36.3712
36.5144
36.7182
36.946
37.1667
37.3072
37.3044
37.1833
36.9992
36.7967
36.6037
36.4138
36.3078
36.1801
36.1466
36.133
36.1277
35.9447
35.9457
35.9498
35.9649
36.0365
36.0795
36.1542
36.2883
36.5179
36.8148
37.1957
37.6472
37.9779
37.8966
37.5877
37.2459
36.9264
36.6461
36.3774
36.2029
36.0374
35.9868
35.9651
35.9568
35.7736
35.7753
35.7815
35.8012
35.8753
35.9352
36.0474
36.2413
36.558
36.9901
37.6418
38.7869
39.5428
39.3626
38.3655
37.6705
37.1493
36.7405
36.3842
36.1246
35.9048
35.8314
35.799
35.7866
35.6058
35.6085
35.6175
35.6431
35.7217
35.8023
35.9594
36.2187
36.6234
37.213
38.2219
40.4651
42.0972
39.6577
38.2877
37.4639
36.8849
36.4153
36.071
35.7828
35.6815
35.6358
35.6183
35.4424
35.4464
35.4588
35.4914
35.5764
35.6809
35.8868
36.2085
36.6998
37.4278
38.6872
41.901
46.273
41.2061
39.0278
37.8423
37.0662
36.463
36.037
35.6722
35.539
35.4778
35.4542
35.2844
35.29
35.3065
35.347
35.4399
35.5705
35.8256
36.2037
36.7758
37.6118
39.0193
42.2741
49.0648
42.5656
39.7563
38.2336
37.2621
36.5203
36.0162
35.5734
35.4061
35.328
35.2976
35.1326
35.1401
35.161
35.2103
35.3124
35.4703
35.7727
36.2026
36.8505
37.7801
39.3191
42.0613
50.4442
43.5844
40.3835
38.5934
37.4504
36.5783
36.0031
35.4855
35.2843
35.1889
35.1511
34.9873
34.9967
35.0223
35.0808
35.1934
35.3789
35.7257
36.2058
36.927
37.9525
39.6161
41.5802
50.9145
44.2671
40.8674
38.8918
37.6127
36.6287
35.9916
35.4064
35.1735
35.0614
35.0162
34.8481
34.8601
34.8912
34.9596
35.0816
35.2945
35.6827
36.2125
37.007
38.1403
39.9139
40.939
42.2759
50.4774
44.6707
41.2004
39.1131
37.7361
36.6654
35.9752
35.3325
35.0718
34.9444
34.8922
34.7146
34.7287
34.7648
34.8422
34.9794
35.2223
35.6521
36.2381
37.1155
38.3809
40.2545
39.2375
48.9321
50.4171
44.8406
41.3893
39.2543
37.8152
36.6835
35.9484
35.2599
34.9759
34.8354
34.7769
34.5853
34.6016
34.6424
34.7282
34.877
35.1432
35.607
36.2379
37.1902
38.5626
40.4274
32.9843
49.7665
49.8441
44.7597
41.4417
39.3169
37.85
36.6787
35.9061
35.184
34.8822
34.7308
34.667
34.4588
34.4771
34.5222
34.6157
34.7754
35.0619
35.5539
36.2229
37.2409
38.6935
40.2154
28.3427
48.1631
48.8959
44.4954
41.3906
39.3087
37.8372
36.6396
35.8461
35.1017
34.7874
34.6269
34.5591
34.334
34.354
34.403
34.503
34.6728
34.9761
35.4903
36.1885
37.25
38.7144
39.6623
24.5971
46.5976
47.9091
44.0706
41.22
39.2301
37.7733
36.5665
35.7659
35.0106
34.6885
34.521
34.4502
34.2096
34.2311
34.2834
34.389
34.5674
34.8842
35.4152
36.1336
37.2173
38.6221
38.8898
21.8454
45.1461
46.9812
43.6054
40.9717
39.0788
37.6589
36.4636
35.666
34.9085
34.5828
34.4115
34.338
34.0848
34.1075
34.1626
34.2728
34.4586
34.786
35.3288
36.0601
37.1489
38.4493
37.9764
19.8595
43.8095
46.1191
43.1446
40.6936
38.889
37.5125
36.339
35.5506
34.7969
34.4704
34.2964
34.2216
33.9591
33.9828
34.0402
34.154
34.3459
34.6815
35.2326
35.9708
37.0517
38.2182
36.9982
18.4191
42.5762
45.3132
42.7033
40.4082
38.6808
37.3468
36.1987
35.4226
34.6767
34.3513
34.1759
34.1002
33.8321
33.8566
33.9159
34.0328
34.2295
34.5715
35.128
35.8688
36.9311
37.9433
36.0105
17.3598
41.4335
44.5563
42.2842
40.1257
38.4651
37.1701
36.0472
35.2852
34.5493
34.2262
34.0501
33.974
33.704
33.7291
33.7899
33.9092
34.1099
34.4567
35.0167
35.7568
36.7917
37.6337
35.0407
16.5673
40.3699
43.8422
41.8838
39.8508
38.2482
36.988
35.8886
35.1407
34.4163
34.096
33.9198
33.8435
33.5747
33.6004
33.6625
33.7839
33.9876
34.3381
34.9001
35.6368
36.6366
37.2957
34.1063
15.9633
39.3758
43.1656
41.4977
39.5848
38.0335
36.8037
35.7256
34.9915
34.2788
33.9616
33.7857
33.7092
33.4445
33.4706
33.5338
33.6571
33.8633
34.2166
34.7796
35.5104
36.4681
36.9367
33.2175
15.4942
38.443
42.5214
41.1234
39.327
37.8227
36.6197
35.5605
34.8393
34.1382
33.8241
33.6485
33.5719
33.3137
33.3402
33.4043
33.5293
33.7375
34.0931
34.6561
35.379
36.2877
36.5646
32.3797
15.1233
37.5651
41.9055
40.7593
39.076
37.6166
36.4374
35.3947
34.6855
33.9954
33.6842
33.509
33.4324
33.1825
33.2093
33.2743
33.4009
33.6109
33.9684
34.5308
35.2434
36.0961
36.1853
31.5945
14.825
36.7366
41.3148
40.4045
38.8307
37.4151
36.2575
35.2294
34.531
33.8512
33.5427
33.3679
33.2911
33.0511
33.0783
33.1441
33.2723
33.4837
33.8428
34.404
35.1042
35.8949
35.8029
30.8611
14.5816
35.9528
40.7463
40.0579
38.5901
37.2178
36.0805
35.0652
34.3766
33.7062
33.4002
33.2256
33.1487
32.9198
32.9473
33.014
33.1437
33.3564
33.717
34.2763
34.9615
35.6856
35.4201
30.1771
14.3804
35.2099
40.198
39.7187
38.3538
37.0245
35.9065
34.9027
34.2228
33.561
33.2572
33.0828
33.0056
32.7887
32.8166
32.8841
33.0154
33.2293
33.5911
34.1478
34.8157
35.4699
35.039
29.5393
14.2127
34.5049
39.668
39.3863
38.1211
36.8348
35.7354
34.742
34.0699
33.4159
33.114
32.9397
32.8623
32.6582
32.6864
32.7547
32.8875
33.1025
33.4654
34.0188
34.667
35.2494
34.6612
28.944
14.0723
33.8351
39.155
39.0601
37.8918
36.6481
35.567
34.5832
33.9182
33.2712
32.971
32.7967
32.719
32.5282
32.5568
32.626
32.7603
32.9763
33.3401
33.8892
34.5154
35.0254
34.2878
28.3874
13.9547
33.1983
38.6579
38.7395
37.6654
36.4643
35.4014
34.4266
33.7678
33.1272
32.8284
32.6541
32.576
32.399
32.4279
32.498
32.6339
32.8509
33.2154
33.7592
34.3614
34.7987
33.9196
27.8658
13.8567
32.5925
38.1757
38.4242
37.4417
36.283
35.2382
34.2721
33.6189
32.984
32.6864
32.5119
32.4335
32.2706
32.3
32.3709
32.5084
32.7263
33.0912
33.6288
34.2053
34.5703
33.557
27.3755
13.7762
32.0161
37.7077
38.1139
37.2205
36.1041
35.0774
34.1196
33.4715
32.8418
32.5453
32.3706
32.2918
32.143
32.1728
32.2447
32.3838
32.6026
32.9678
33.498
34.0474
34.3409
33.2006
26.913
13.7116
31.4679
37.2533
37.8085
37.0016
35.9272
34.9188
33.9693
33.3258
32.7006
32.405
32.23
32.1507
32.0175
32.0476
32.1204
32.2611
32.48
32.8452
33.367
33.888
34.1108
32.8503
26.4751
13.6617
30.9466
36.8122
37.5077
36.7849
35.7523
34.7623
33.821
33.1817
32.5614
32.2668
32.0914
32.0117
31.8985
31.9292
32.003
32.145
32.3596
32.7242
33.2365
33.7275
33.8808
32.5063
26.0588
13.6259
30.4512
36.3841
37.2117
36.5704
35.5793
34.6079
33.6758
33.0405
32.4309
32.137
31.9612
31.881
41.7862
46.6429
42.468
42.2761
49.9637
47.1684
42.1068
51.4217
50.2316
41.6516
51.9174
51.5197
40.9875
40.5166
41.9096
51.9571
51.9396
39.7218
44.9264
40.7022
48.6266
52.1614
51.8986
40.2007
39.4707
41.9328
39.3192
50.9612
44.2726
45.8053
41.6102
40.1772
38.942
41.6442
41.1438
53.9938
55.5736
48.8003
43.3114
42.074
39.2447
41.6797
41.6701
42.2386
43.5109
44.4709
51.9517
52.1227
50.3315
44.5455
43.6643
39.5418
41.4819
41.6632
41.9032
40.1007
41.9617
52.3587
51.8309
39.84
41.1431
41.4475
41.3454
35.6291
37.8602
40.9861
53.4869
53.0261
40.183
40.4571
41.087
40.5688
31.8411
33.1851
36.0777
45.3947
45.3659
45.6924
46.8307
42.5772
45.4055
55.5422
51.4196
44.9028
50.0886
54.558
44.5908
45.3391
42.2332
45.8311
44.624
46.7813
45.9766
52.2075
53.8375
48.6048
54.3776
53.2854
54.6811
54.4658
48.4226
42.1468
43.351
42.2143
42.9967
41.3023
44.5412
43.1098
51.7686
51.9865
51.0392
53.3552
53.3387
53.2333
53.3673
50.8737
37.9822
39.9842
41.8448
39.0929
36.7546
41.1851
39.2188
52.9547
52.4394
33.2865
35.4919
41.3047
42.8824
34.15
32.4442
36.6344
34.2811
43.813
53.6544
53.5456
40.569
40.5719
31.7861
40.5138
42.725
32.2782
63.1801
32.3682
32.2332
42.3659
38.5881
41.0407
39.9139
41.1629
44.5259
42.1901
59.0185
48.9951
42.1848
45.4342
45.8912
46.2753
50.8946
45.3493
44.7827
49.2427
45.5483
45.2149
45.0238
53.9865
53.7609
45.8656
44.7634
41.35
51.0345
44.4813
51.0397
43.7286
49.3719
44.2902
44.9399
42.861
51.8003
53.4871
53.6153
53.3451
53.464
51.7434
39.5982
48.1359
41.0064
40.8782
40.557
42.1986
43.4903
41.1428
40.9571
59.947
48.2455
58.5316
47.3744
57.2184
47.2463
55.1739
55.2709
51.876
51.8904
42.2405
45.2817
52.1316
42.9278
42.8675
46.5423
43.1249
52.0611
36.8651
40.7543
40.3917
46.9476
45.8936
47.6119
32.4672
38.4756
37.9604
39.1383
38.6489
32.5611
54.4253
51.4906
46.3825
51.6618
53.1184
48.4253
51.3668
46.5736
43.9201
48.8134
43.7972
52.9004
49.614
44.3431
52.0157
54.4578
54.3477
54.0873
45.3023
42.5117
45.2138
46.5013
45.3153
48.0077
42.7901
44.9666
46.3812
52.9409
53.0571
53.8241
52.5609
52.0791
53.0249
52.6946
53.7465
55.0105
50.957
50.0539
51.8902
51.2177
54.9957
42.2155
42.1039
43.9273
43.8361
52.2293
46.7585
52.2005
38.1704
37.9917
40.2287
40.099
42.9923
44.6118
52.6679
42.6494
42.1149
34.571
39.7382
39.2932
40.2671
39.8767
34.6979
39.6976
33.4748
33.3745
35.7876
35.6626
50.0162
39.9966
48.3217
47.297
37.7937
36.9168
33.0209
35.7751
39.4462
42.9057
31.9347
56.2893
43.7597
54.0512
31.8994
41.3275
46.8108
40.6834
56.0828
40.8702
41.9819
40.4124
39.3559
40.3269
38.263
32.0989
40.3332
50.133
51.4747
52.0512
52.6351
42.5475
44.9406
49.5973
48.6508
40.1415
54.0601
54.0358
45.4048
42.5121
41.9756
43.9576
46.9508
42.5354
42.6358
54.5207
57.0906
56.4242
55.5348
51.8517
46.7497
46.8259
49.6038
48.9394
51.9426
40.9678
42.3055
42.0537
42.6196
42.3865
41.1211
41.1991
40.8697
36.9936
32.0567
35.1493
34.7779
58.136
44.0618
45.0052
55.2287
57.8036
57.2998
52.3951
48.0981
46.6759
49.7076
48.5345
52.7748
52.4959
50.5892
49.8832
53.4546
42.6803
42.9024
42.6934
38.2286
38.6438
41.6491
46.811
46.6559
52.0775
53.3329
53.5272
53.494
53.0442
53.3161
53.1125
53.473
53.3664
53.0323
39.003
41.6014
41.3034
41.967
41.6961
39.1457
38.7161
34.802
35.0838
33.6714
33.7803
37.1597
40.7944
37.5058
38.0875
35.1852
35.5098
39.5966
52.7401
44.8732
47.1273
52.0264
40.9144
33.8421
32.76
36.2739
33.4637
33.6289
33.0985
34.94
47.9589
38.0353
36.062
35.0243
34.6582
34.2852
31.6773
40.212
38.617
43.7538
32.3879
66.2598
40.3664
39.26
43.9056
32.1569
32.1328
55.9878
55.1999
54.6124
46.959
46.9007
40.4688
40.6588
49.7086
49.684
49.2517
46.9442
55.7807
47.439
57.104
47.9753
44.6906
42.4582
43.5907
46.1581
47.9951
47.7337
43.811
39.8705
48.5528
52.4749
43.7092
47.2413
54.2579
40.6018
42.7485
39.1742
40.1145
52.4737
60.4764
55.0641
52.45
57.5379
55.7591
51.4793
48.4349
53.9632
55.1407
54.7686
54.7161
55.4881
56.1786
55.3892
47.5696
46.8664
51.8479
48.0431
48.4806
46.6622
47.8261
48.5325
51.9184
48.6909
47.8403
42.9685
43.3642
42.6202
48.0802
47.4061
44.6572
46.4696
45.9847
47.1377
46.6354
44.1601
43.9377
40.9522
40.529
35.739
35.2689
32.1398
32.8204
36.2534
35.875
53.3161
52.861
52.4998
49.104
49.2961
48.3454
48.9651
52.7545
49.9299
49.0821
48.7612
49.286
49.1468
50.3851
51.986
47.2371
48.1031
54.2313
54.4019
57.8334
57.6445
55.0316
58.5517
58.8883
58.6383
58.4181
57.9821
59.0016
58.6111
53.0909
57.3883
57.912
41.464
45.2788
44.3375
46.0472
45.5052
41.7226
43.3386
42.8376
44.081
43.5098
46.4059
48.0166
47.5399
48.6216
48.1717
46.7932
43.6855
46.7201
46.2165
47.3778
46.8861
43.9909
51.5238
50.8268
52.6015
53.3611
52.4839
51.7353
38.1978
37.7768
38.8536
38.3454
37.0981
36.7178
37.6391
37.2301
42.0213
41.5268
42.675
42.1854
40.5055
39.1133
41.3603
40.7946
45.4195
45.3498
45.8641
45.5289
47.1056
45.5266
46.3429
45.3566
45.3674
34.4152
34.7112
38.5895
34.0934
33.8463
34.3912
34.1714
33.7756
37.3394
33.8191
34.2825
36.154
37.1288
40.6433
35.8154
35.177
36.5925
36.1237
34.7333
34.4724
35.0885
34.8227
39.722
35.6244
35.9997
47.9612
42.1913
47.8091
45.8671
47.6494
42.1113
52.576
40.4654
52.2059
49.6772
33.7507
32.9188
33.2352
33.4046
36.1528
35.1869
33.0909
33.188
49.6944
31.6864
34.1343
33.2142
61.383
63.5837
32.4841
62.0423
55.6517
40.961
32.089
56.5634
47.0477
62.4357
48.4579
32.1464
41.6121
39.7254
38.5848
49.6018
49.1898
50.9497
45.8177
45.4952
48.972
40.035
42.8881
40.747
53.6358
53.841
51.975
44.2351
43.4995
47.0165
54.1663
44.3699
44.4511
40.6128
41.0379
43.1216
49.6222
53.8235
55.7227
43.9541
43.3508
43.204
43.5062
43.3938
44.0897
42.2211
41.3186
42.9877
47.4175
48.3028
53.2318
36.7414
36.3759
32.9114
56.2275
57.0951
52.6951
43.1489
42.9678
42.8527
42.6601
39.9341
40.4458
40.6951
41.6922
43.445
33.7633
37.264
36.8653
46.9004
45.725
42.1171
32.5215
32.4898
32.5303
44.9348
49.9694
48.4032
39.8583
43.2125
42.5008
32.3048
32.2983
32.58
32.5591
32.1988
58.3605
46.837
43.6946
44.6801
49.8722
40.9055
40.8208
45.9022
50.5642
46.1719
44.6225
47.0516
43.9895
41.952
41.0497
54.004
54.2225
54.8432
51.4987
53.4046
42.0303
42.4106
45.7811
59.094
57.243
56.4173
60.881
60.2084
42.4213
44.4177
43.7734
46.7846
46.6752
44.4444
48.7653
48.2695
42.6203
46.154
43.7368
43.9551
46.1071
42.0701
42.8074
54.1294
54.9569
51.9432
51.9481
51.2491
51.0805
48.8325
49.3178
49.0178
50.9001
50.7085
51.0593
45.9801
46.9429
51.6305
53.1408
56.3202
54.9475
55.4822
55.893
54.4797
40.9021
41.8587
41.6183
44.5168
44.2687
42.2404
39.8773
39.6639
41.3571
41.0895
45.678
47.1272
46.8557
48.7418
48.4737
47.596
43.078
45.0197
44.7664
46.5857
46.3181
44.6285
39.3548
39.7862
42.5502
41.7627
38.7846
39.2122
42.5925
43.0424
44.1974
38.3166
38.1424
39.4634
39.263
37.1655
37.973
37.8088
43.5468
41.9278
42.4398
47.0856
47.1655
44.2615
44.6296
46.8826
47.1875
47.3426
52.1036
46.6711
46.9816
37.781
37.4005
34.0037
35.0373
38.2256
37.896
32.5921
32.6603
33.5691
33.2588
32.4634
32.5257
50.2975
32.1474
31.9535
32.1125
103.502
33.677
40.4385
54.0109
50.8907
32.497
32.5081
31.9783
57.0869
58.3741
58.225
51.8016
31.8837
32.4761
32.484
43.518
38.9845
39.0787
49.0019
49.6896
45.3684
44.487
41.53
55.1902
55.7203
57.2151
43.2373
47.9651
46.5999
48.402
48.3788
44.0204
43.6176
44.1993
52.1796
53.8282
54.0564
53.322
53.5882
56.8758
56.3169
56.5041
55.9314
56.1257
56.6391
49.4194
48.9096
49.1155
48.6491
48.7435
49.2041
57.6347
56.9641
57.0141
56.6846
56.8456
57.4827
50.3065
49.8104
50.0566
49.3399
49.5718
50.118
52.8348
53.0586
52.3778
52.5809
34.8922
36.275
36.1641
33.7085
34.17
34.0704
34.4023
34.2784
33.745
51.2792
51.2934
48.9718
50.674
32.9264
32.9274
32.9345
32.9294
32.9726
32.6302
32.4738
32.4899
33.5228
33.7943
33.7054
33.9765
33.8848
33.579
32.956
32.9415
33.0103
32.9945
33.3025
50.6479
50.4811
46.2512
51.1231
32.9606
32.1481
41.5343
31.701
32.2057
32.1327
32.3274
66.4933
65.9164
64.4305
65.3498
61.5868
32.5524
32.5766
32.2283
32.1632
57.805
58.9586
57.63
56.7828
55.7149
53.1071
58.2018
56.8482
47.0333
46.9724
49.862
45.8162
47.3333
50.1174
48.6415
54.3769
49.7842
51.6592
56.7374
57.3581
53.4183
55.9781
58.3757
47.4888
48.3377
47.9496
50.2201
53.3744
53.6046
51.9476
44.813
50.9627
48.9175
53.636
52.9819
46.0249
48.0015
49.5397
54.7621
50.7573
45.4345
46.6192
59.075
57.9399
59.6001
56.8733
58.5175
59.4405
59.8553
59.477
54.8819
54.637
54.8643
54.2598
54.4157
54.6959
55.915
55.5183
55.7287
55.0857
55.3039
55.6602
47.307
48.5267
48.6179
48.2063
48.371
47.0325
47.9284
47.813
47.5094
48.7581
49.0491
48.3536
48.6907
48.643
48.6934
48.7231
48.1035
46.3599
45.3153
42.6565
47.1702
47.3846
47.2241
43.8476
46.8346
46.8191
43.5
43.5973
45.3386
53.7488
52.3979
50.0247
49.6534
49.1881
50.7394
50.5067
50.2893
56.5752
56.5026
53.8682
57.7815
58.0683
54.4707
56.2598
56.5075
57.7344
56.9157
56.8746
56.9758
56.9435
57.6611
58.6662
58.7465
58.3294
59.9266
59.9318
59.6467
59.8239
58.2153
59.0794
59.9412
60.2434
59.1155
43.3755
42.8043
41.2132
41.9804
44.0176
43.7405
40.335
40.1014
40.8295
40.578
47.6653
47.3962
46.0369
47.191
48.2055
47.9357
45.5366
45.2773
43.3781
44.3019
46.0541
45.7946
51.2972
50.8245
51.0909
50.3062
50.5617
51.0234
52.2288
51.8812
52.104
51.3621
51.6304
52.0016
38.0548
36.773
36.9125
36.499
36.6359
37.9152
38.6639
37.3643
37.5247
37.0566
37.2068
38.4992
36.9689
35.7243
35.8422
35.4976
35.6102
36.8424
37.5019
36.2262
36.3622
35.9649
36.0931
37.365
38.6807
38.496
41.8568
40.348
40.5236
40.0005
40.1736
41.692
39.0642
38.87
37.3502
37.2281
40.0643
38.5551
39.0038
37.6833
37.8394
39.5127
41.19
39.6555
39.8282
39.2779
39.4778
41.0081
37.6501
37.4968
46.3423
46.8154
46.9342
45.0661
45.6424
45.7636
47.5735
47.4624
47.761
47.693
46.0429
45.3309
46.1714
45.6747
47.2095
46.7974
45.3126
34.5207
35.8109
35.6592
36.0526
35.9369
34.6177
34.0102
33.9262
34.3147
34.2444
33.7493
33.9028
33.8765
34.8101
34.565
35.4517
35.1435
34.0926
35.3691
35.0727
35.0085
35.2678
36.4628
35.2758
35.3859
35.0724
35.1706
36.3182
34.6444
34.5572
35.0004
34.9118
47.7364
43.2407
43.86
42.2177
42.6904
47.1902
46.8145
47.3545
44.5943
45.6235
47.5491
52.2892
46.1016
47.3564
43.8488
44.9595
51.6199
32.8723
32.8333
32.9205
32.9032
32.3841
32.4098
33.1127
32.7167
32.732
32.7917
32.7514
33.2889
33.4527
33.3741
33.6186
33.5343
33.3461
33.1203
33.1616
33.0907
33.2993
33.2288
33.1484
50.3391
32.0562
31.9611
31.7717
59.7606
77.7829
79.0197
71.789
73.9848
61.6007
32.775
59.6821
51.6358
53.261
32.0291
32.5136
32.5289
56.989
59.5321
59.9645
54.9925
57.2727
62.3543
59.9003
50.0581
57.5856
55.3964
32.7749
32.5276
31.9289
36.6724
36.6926
36.8037
36.7013
36.7356
36.8252
36.7498
36.8005
36.8584
36.8192
36.8771
36.8997
36.8947
36.937
36.9358
36.946
36.9567
36.9499
36.9544
36.9315
36.9354
36.9188
36.8702
36.9011
36.8525
36.7989
36.8625
36.7826
36.7391
36.8305
36.5242
36.5674
36.6582
36.5861
36.6594
36.7108
36.6894
36.7885
36.7894
36.8213
36.9129
36.8793
36.9394
37.0007
36.945
37.0135
37.0267
36.9663
37.0226
36.9868
36.9384
36.968
36.8955
36.8699
36.8675
36.776
36.7856
36.7444
36.657
36.7137
36.3982
36.4841
36.5421
36.5216
36.6564
36.6519
36.7045
36.8556
36.7973
36.9069
37.0543
36.9357
37.098
37.1983
37.0335
37.2182
37.231
37.0612
37.2205
37.1528
37.0151
37.1206
37.0047
36.9134
36.9605
36.823
36.7819
36.7773
36.6443
36.6463
36.3055
36.4532
36.4707
36.513
36.7095
36.6647
36.7829
37.0283
36.8877
37.1173
37.3963
37.1156
37.4869
37.7035
37.2843
37.743
37.736
37.3185
37.6973
37.5268
37.2212
37.4594
37.2424
37.0496
37.1692
36.9545
36.8471
36.8857
36.6914
36.6509
36.2501
36.465
36.4535
36.5451
36.8284
36.7334
36.94
37.3452
37.092
37.5106
38.1398
37.5324
38.3998
39.166
37.9277
39.2405
39.0513
37.9523
38.8695
38.2968
37.6727
38.1253
37.6771
37.3302
37.5454
37.191
37.003
37.0846
36.7978
36.7122
36.2228
36.499
36.4717
36.6055
36.9954
36.8669
37.1558
37.7881
37.448
38.0781
39.6901
38.429
39.1981
39.9057
38.9446
40.7103
40.6812
39.5771
40.0212
39.5785
39.0925
39.2928
38.3537
37.8238
38.1171
37.5383
37.2677
37.3773
36.9632
36.8338
36.2104
36.5469
36.5101
36.6805
37.1725
37.0404
37.377
38.1998
37.9011
38.3563
38.792
38.6211
40.7166
41.3909
41.0664
43.7292
42.1023
41.042
40.8228
39.2136
38.5572
38.8388
37.9733
37.6409
37.7445
37.1763
37.0131
36.2046
36.599
36.5598
36.757
37.332
37.2143
37.5682
38.5055
38.2847
38.7778
39.2999
39.1946
42.0086
42.9466
42.8263
47.4928
44.819
43.8744
42.2564
40.0853
39.4374
39.5815
38.4351
38.0888
38.1374
37.4111
37.2341
36.2025
36.652
36.6122
36.8318
37.477
37.3691
37.7383
38.7656
38.572
39.0951
39.6731
39.5838
42.268
43.0696
43.1413
49.7248
46.6376
46.0826
43.3628
40.8381
40.2873
40.2389
38.8653
38.5471
38.5083
37.6406
37.4698
36.2046
36.7073
36.6655
36.9075
37.6213
37.5126
37.9082
39.0313
38.8304
39.3933
39.996
39.9212
42.0119
42.3447
42.5178
50.7047
47.5596
47.2926
44.125
41.4207
41.001
40.7604
39.2261
38.9631
38.824
37.8431
37.6943
36.2106
36.7662
36.7217
36.9867
37.7748
37.6587
38.0919
39.3197
39.1013
39.6937
40.3809
40.2009
41.5053
41.2069
41.4543
50.9506
48.613
48.5085
44.5922
41.8236
41.5381
41.1312
39.4979
39.3028
39.0654
38.003
37.8873
36.2357
36.8512
36.7815
37.0941
37.9731
37.8149
38.3299
39.6749
39.3947
39.9895
40.657
40.5689
40.7839
39.5236
39.8976
43.4539
50.8255
49.8929
50.4913
46.0114
45.8901
44.8179
42.0587
41.8974
41.355
39.6759
39.551
39.2264
38.1123
38.035
36.2392
36.9104
36.8678
37.1726
38.1309
38.0152
38.5208
39.934
39.7486
40.3216
40.7741
40.815
39.0264
35.5745
36.5578
49.2791
53.5873
54.0114
50.0393
45.9227
46.0224
44.7951
42.1339
42.0936
41.4413
39.7637
39.7065
39.3098
38.1705
38.1314
36.2284
36.9485
36.9224
37.2318
38.2559
38.1659
38.6675
40.012
39.977
40.3077
36.153
38.6304
29.4427
42.4581
42.9382
48.5677
50.2862
51.1985
49.1446
45.6037
45.8672
44.5836
42.0823
42.1298
41.4111
39.7664
39.7706
39.3158
38.1725
38.1752
36.1991
36.9543
36.9532
37.2518
38.3146
38.2801
38.7213
39.7931
39.982
39.8243
32.8082
35.2983
25.4335
41.4459
42.2266
46.9789
49.0692
49.9764
48.1516
45.0944
45.4862
44.1836
41.9009
42.0519
41.2727
39.6983
39.7577
39.2583
38.1245
38.166
36.1492
36.9253
36.9502
37.2291
38.2804
38.314
38.6538
39.3731
39.7035
39.099
29.7879
32.0167
22.4518
40.3401
41.1717
45.4978
47.9362
48.7774
47.2066
44.5437
44.9574
43.7223
41.6249
41.8374
41.0378
39.545
39.6663
39.1213
38.0154
38.1021
36.0801
36.8654
36.913
37.169
38.1741
38.2598
38.4987
38.8202
39.2457
38.2138
27.1828
29.0971
20.2972
39.2509
40.0643
44.1335
46.8903
47.6669
46.329
44.0053
44.407
43.2583
41.3159
41.5493
40.7644
39.3459
39.4983
38.9388
37.8672
37.9813
35.9944
36.7801
36.8463
37.0784
38.0137
38.1385
38.2805
38.1726
38.6658
37.2451
24.9814
26.5961
18.738
38.2101
38.9856
42.8756
45.9223
46.6414
45.5099
43.4946
43.8748
42.8115
41.0009
41.2371
40.4795
39.1257
39.2921
38.7339
37.6963
37.8262
35.8954
36.6741
36.7553
36.9632
37.812
37.9667
38.0156
37.4681
38.0002
36.2566
23.1357
24.4888
17.5959
37.2246
37.9585
41.7114
45.0225
45.6914
44.7413
43.0119
43.3715
42.387
40.6912
40.9227
40.1957
38.8978
39.0691
38.5193
37.5131
37.6514
35.7856
36.5515
36.6449
36.8281
37.5782
37.7563
37.714
36.7418
37.2875
35.2804
21.5904
22.7233
16.7452
36.2932
36.9868
40.6289
44.181
44.807
44.017
42.5515
42.895
41.9824
40.3914
40.6152
39.9187
38.6691
38.8405
38.3023
37.324
37.4662
35.6674
36.4153
36.5187
36.6767
37.318
37.5155
37.3825
36.014
36.5594
34.3359
20.2945
21.2449
16.0999
35.4126
36.0685
39.6182
43.3895
43.9787
43.3315
42.1085
42.4392
41.593
40.1026
40.3183
39.6505
38.4434
38.6123
38.0868
37.133
37.2763
35.5425
36.2677
36.3794
36.5114
37.0354
37.2493
37.0279
35.2967
35.8334
33.435
19.2043
20.0043
15.6011
34.5789
35.1999
38.6708
42.6409
43.1985
42.6796
41.6805
42.0002
41.2159
39.8233
40.032
39.3907
38.2226
38.3877
37.875
36.9427
37.0853
35.4122
36.1101
36.2292
36.3339
36.7348
36.9617
36.6585
34.598
35.1201
32.5843
18.2833
18.9594
15.2084
33.7888
34.3774
37.7798
41.9296
42.4597
42.0571
41.266
41.5757
40.8494
39.5514
39.7547
39.1382
38.0071
38.1682
37.6677
36.7544
36.8954
35.2776
35.9434
36.0692
36.145
36.4217
36.6575
36.2805
33.9232
34.4269
31.7859
17.5022
18.0759
14.8939
33.0391
33.5977
36.9393
41.2512
41.7571
41.4603
40.8633
41.1642
40.4923
39.2858
39.4845
38.8915
37.7967
37.954
37.465
36.5692
36.7078
35.1393
35.7682
35.9003
35.946
36.1006
36.342
35.8986
33.2755
33.7587
31.0397
16.8374
17.326
14.638
32.3274
32.8578
36.1447
40.602
41.0863
40.8864
40.4715
40.7644
40.1438
39.0254
39.2202
38.6498
37.5909
37.7448
37.2668
36.3872
36.5234
34.9975
35.5855
35.7232
35.7386
35.7748
36.0195
35.5157
32.6564
33.118
30.3436
16.2696
16.687
14.4272
31.6513
32.1551
35.392
39.9792
40.444
40.3333
40.0893
40.3751
39.8029
38.7697
38.9611
38.4125
37.3892
37.5401
37.0725
36.2086
36.3423
34.8525
35.3963
35.5388
35.5244
35.4467
35.6929
35.134
32.0661
32.5061
29.6946
15.7834
16.1409
14.2519
31.009
31.4877
34.6778
39.3805
39.8273
39.7989
39.7159
39.9952
39.4688
38.5181
38.7064
38.179
37.1911
37.3393
36.8819
36.0331
36.1644
34.7044
35.2018
35.3481
35.3049
35.1181
35.3645
34.7553
31.5042
31.923
29.089
15.3663
15.6731
14.1051
30.3987
30.8535
33.9994
38.8039
39.2343
39.2818
39.3504
39.6238
39.1411
38.2702
38.4558
37.9488
36.9963
37.1421
36.6945
35.8607
35.9898
34.5535
35.003
35.1525
35.0816
34.7903
35.036
34.3807
30.9695
31.368
28.5231
15.0083
15.2716
13.9821
29.8188
30.2509
33.3545
38.2478
38.663
38.7807
38.9923
39.2602
38.8191
38.0257
38.2088
37.7218
36.8043
36.948
36.51
35.6911
35.8181
34.4002
34.801
34.9528
34.8556
34.4643
34.7086
34.0111
30.4605
30.8399
27.9932
14.7009
14.927
13.8795
29.2681
29.6784
32.7411
37.7112
38.1119
38.2949
38.641
38.9038
38.5025
37.7842
37.965
37.4974
36.6149
36.7567
36.3281
35.5241
35.6491
34.2445
34.5965
34.7501
34.6275
34.1409
34.3832
33.6471
29.9754
30.337
27.4953
14.4373
14.6311
13.7948
28.7453
29.1348
32.1575
37.1929
37.58
37.8234
38.2964
38.5543
38.191
37.5455
37.7242
37.2756
36.4278
36.5679
36.1486
35.3596
35.4828
34.0871
34.3901
34.545
34.3983
33.8206
34.0605
33.2891
29.5125
29.8577
27.0262
14.2119
14.3776
13.7263
28.2495
28.6189
31.6024
36.6922
37.0661
37.3657
37.9579
38.2112
37.8844
37.3094
37.4862
37.0561
36.2428
36.3814
35.9712
35.1972
35.3188
33.928
34.1825
34.3383
34.1684
33.5038
33.7411
32.9373
29.0698
29.4
26.5824
14.0199
14.161
13.6729
27.7798
28.1297
31.0744
36.2084
36.5697
36.9213
37.6256
37.8743
37.5825
37.0759
37.2508
36.8389
36.0598
36.1969
35.7958
35.037
35.157
33.7677
33.974
34.1304
33.9382
33.1908
33.4252
32.5917
28.6455
28.9621
26.161
13.8572
13.9766
13.6336
27.3353
27.6663
30.5727
35.741
36.09
36.4899
37.2994
37.5435
37.2852
36.8449
37.0179
36.6238
35.8786
36.0143
35.6223
34.8788
34.9973
33.616
33.7764
33.9218
33.7201
32.8938
33.1132
32.2638
28.2451
28.5421
25.7644
13.721
13.8208
13.6081
26.9204
27.2281
30.1034
35.3016
35.6267
36.0841
36.9925
37.2188
37.0059
36.6287
36.7876
36.4229
35.7104
35.8337
35.4615
34.733
34.8396
42.6959
42.5509
41.6589
46.087
47.5384
48.6431
42.7802
43.4705
43.0681
43.1608
43.2002
42.2738
49.6659
51.6769
52.0539
48.9759
49.8621
47.6643
42.5722
42.7254
42.1478
51.3111
52.8371
52.8904
52.1601
52.4265
50.4714
41.5325
41.7558
41.7192
51.8863
52.8395
52.8581
52.6217
52.6799
51.6041
40.0161
40.3538
41.1305
40.3615
39.4645
39.5161
44.5595
44.1559
41.5713
51.9766
53.8807
53.9812
52.8716
52.8844
51.9573
36.8226
37.4675
39.977
44.0793
38.5907
38.7685
40.236
39.3151
40.4741
51.7579
51.5582
46.7277
51.7387
54.0486
53.9428
54.0079
54.0511
51.7689
41.8555
40.2875
39.4238
52.4048
49.9236
55.6518
39.1786
40.1449
40.6193
53.3492
53.2461
41.4489
41.6789
42.1913
39.4952
40.5834
40.2523
50.4933
51.4877
52.115
44.9563
46.1384
45.2435
43.537
42.4641
44.2727
41.1327
41.9197
42.4974
40.7631
41.3351
40.6506
39.4922
39.398
38.862
41.5006
39.9182
40.0889
39.6738
39.86
41.4216
54.1596
53.6007
53.3477
56.1585
56.0626
55.5795
45.8644
45.1028
47.8535
42.9283
44.0683
44.5171
43.0548
43.5807
42.5153
39.8424
39.7595
39.1701
41.706
40.333
40.4451
40.1424
40.2892
41.7062
42.9405
43.0411
42.2565
43.6657
43.6667
43.5603
44.2163
44.1338
44.3477
51.9059
50.349
50.402
50.6107
50.4853
52.0472
47.1813
46.7953
49.9032
44.2809
45.6167
45.9036
44.9245
45.2912
43.9877
40.1354
40.0672
39.4675
41.5718
40.5854
40.6509
40.4777
40.5601
41.5978
42.0954
42.2843
41.959
40.4548
41.5912
41.4406
42.4458
42.3058
41.7676
52.2813
50.3234
50.4803
48.0897
48.5464
51.9016
40.5378
40.4289
39.7672
41.2935
40.7261
40.7845
40.6719
40.708
41.3357
40.8517
41.1204
41.4295
36.2078
38.7133
38.6854
39.9107
39.7241
37.4927
40.0648
40.1641
41.5136
53.2983
48.593
49.4408
51.8094
51.9478
53.0972
40.7945
40.6862
40.081
40.8427
40.8741
40.9265
40.803
40.8568
40.9082
38.9884
39.3926
40.7321
31.906
32.5173
32.4295
34.4126
34.2983
33.0929
28.0408
30.8419
37.8003
45.1319
41.5108
36.9923
38.7106
38.7269
44.535
45.9443
47.7656
46.9657
48.234
48.4196
46.8212
42.9975
43.4734
42.9394
46.553
46.138
45.0833
55.4819
56.2937
56.2389
52.6799
53.1816
51.865
45.8404
47.1369
45.5041
50.7777
49.3829
48.7715
52.1749
51.7934
53.9881
44.9351
43.6269
43.539
43.7646
43.6549
45.0422
42.2638
43.1981
43.0422
45.6812
45.7678
46.19
43.776
44.2175
44.8749
46.7054
47.8256
48.1427
46.3244
46.7211
46.1175
52.298
50.9001
50.7512
53.1025
52.8806
53.6919
51.0126
51.531
49.1092
54.1315
54.0376
53.9316
54.3084
54.3061
53.4625
54.9211
52.8235
52.5176
53.888
53.7598
54.7446
47.8563
50.124
50.8156
42.3273
42.7145
42.5818
43.4496
43.335
43.1879
42.1838
42.7726
42.902
42.8828
42.3724
42.5122
40.5488
40.6805
41.4191
44.2838
43.1906
43.6305
42.6598
42.8133
43.2252
51.7152
47.508
47.946
50.4463
50.4861
52.0208
52.7142
52.8138
51.1839
53.3441
54.1642
54.1909
53.5265
53.53
53.3346
53.1147
54.2987
54.3056
54.2177
54.2438
53.0087
50.6854
52.4978
52.6713
38.3708
40.2745
40.0937
41.2869
41.1306
39.6356
41.7835
41.8267
42.0302
38.9671
37.7918
37.9174
35.3417
35.4549
36.8781
41.0627
40.2738
40.4146
38.0435
38.1698
39.3449
52.8834
51.5252
51.6682
50.643
50.791
52.5185
33.406
34.6747
34.535
38.612
38.3293
35.1465
41.1747
40.4597
40.7579
34.0388
33.021
33.1143
36.5148
35.1262
35.2333
33.2197
33.3483
34.4515
53.5429
50.7454
51.4568
49.7157
50.4962
53.7084
40.2498
40.0513
40.0306
44.0961
31.8201
31.7738
32.3501
32.2765
31.7393
40.2219
38.1322
38.8523
40.364
40.6402
43.0747
63.1766
62.1186
67.4011
42.0174
39.8681
40.1019
39.0777
38.9445
38.4783
40.6593
39.3744
39.6069
39.0006
39.2876
40.5
41.9591
41.6925
40.9515
43.6605
42.3207
42.7877
41.7685
42.1523
43.314
50.9266
53.3591
51.1156
43.0481
43.0238
42.1079
45.6904
43.839
43.7891
43.68
43.8349
45.7615
48.379
47.6338
50.7704
45.1823
46.5656
46.7342
46.1551
46.3751
44.994
45.219
40.9323
41.5402
43.1279
43.401
45.4528
51.7224
51.0971
43.8513
53.9226
52.8726
53.0582
51.6652
52.6692
53.8463
45.5116
43.3594
43.609
42.9205
43.2649
45.3505
41.5146
42.3839
42.1884
45.1238
45.9379
44.9701