/*--------------------------------*- C++ -*----------------------------------*\
| =========                 |                                                 |
| \\      /  F ield         | OpenFOAM: The Open Source CFD Toolbox           |
|  \\    /   O peration     | Version:  v1912                                 |
|   \\  /    A nd           | Website:  www.openfoam.com                      |
|    \\/     M anipulation  |                                                 |
\*---------------------------------------------------------------------------*/
FoamFile
{
    version     2.0;
    format      ascii;
    class       volScalarField;
    location    "900";
    object      nut;
}
// * * * * * * * * * * * * * * * * * * * * * * * * * * * * * * * * * * * * * //

dimensions      [0 2 -1 0 0 0 0];


internalField   nonuniform List<scalar> 
12556
(
1.15562
1.15558
1.15553
1.15552
1.15589
1.15591
1.15593
1.15597
1.15603
1.15615
1.15633
1.15652
1.15666
1.15667
1.15656
1.15638
1.15621
1.15608
1.15599
1.15595
1.15555
1.15554
1.15558
1.15562
1.15486
1.15476
1.15466
1.15463
1.15492
1.15501
1.1551
1.15537
1.15557
1.15592
1.15642
1.15699
1.15741
1.15748
1.15719
1.15668
1.15616
1.15576
1.15533
1.15513
1.15473
1.1547
1.15478
1.15487
1.15407
1.15391
1.15377
1.15375
1.15399
1.15414
1.15435
1.1547
1.15521
1.15604
1.15721
1.13001
1.03492
1.03181
1.11092
1.15772
1.15656
1.15562
1.15488
1.15443
1.15396
1.15388
1.15397
1.15411
1.15326
1.15305
1.15288
1.15287
1.15309
1.15333
1.15372
1.15428
1.15535
1.15709
0.960806
0.780849
0.705493
0.716305
0.797527
0.948214
1.15788
1.15609
1.15477
1.15392
1.15327
1.1531
1.15317
1.15335
1.15244
1.15218
1.152
1.15201
1.15225
1.15262
1.15327
1.15423
1.15629
0.933976
0.656696
0.490239
0.42044
0.440937
0.528796
0.670323
0.882497
1.15748
1.15519
1.15368
1.15267
1.15235
1.15238
1.15257
1.15162
1.15132
1.15113
1.15118
1.15147
1.15202
1.15309
1.1547
1.09344
0.712889
0.449025
0.278429
0.208391
0.239877
0.333806
0.471249
0.662929
0.947067
1.15625
1.15377
1.1522
1.15164
1.15158
1.15177
1.1508
1.15047
1.15029
1.1504
1.15076
1.15156
1.15319
1.15569
0.947469
0.588665
0.33084
0.142314
0.0743531
0.114481
0.211729
0.342305
0.518168
0.77032
1.15317
1.15425
1.15187
1.15098
1.15078
1.15095
1.15
1.14966
1.14949
1.14968
1.15014
1.15125
1.15356
1.15701
0.887568
0.567365
0.3291
0.125515
0.0625486
0.154586
0.27208
0.432414
0.659006
1.0277
1.15507
1.15168
1.1504
1.15002
1.15014
1.14925
1.14889
1.14876
1.14905
1.14963
1.15111
1.15417
1.15846
0.895681
0.633311
0.476517
0.372053
0.0708179
0.145261
0.247091
0.39237
0.597977
0.94626
1.15616
1.15166
1.14991
1.14931
1.14937
1.14855
1.14819
1.1481
1.1485
1.14924
1.15112
1.15493
1.15992
0.932597
0.722726
0.658988
0.707101
0.0959904
0.16007
0.252304
0.386574
0.576738
0.905341
1.1574
1.1518
1.14955
1.14872
1.1487
1.14793
1.14756
1.14752
1.14805
1.14897
1.15128
1.1558
1.16138
0.965762
0.777643
0.738094
0.605712
0.129769
0.189513
0.278495
0.40717
0.587232
0.89927
1.1587
1.15211
1.14936
1.14828
1.14818
1.14737
1.14701
1.14703
1.1477
1.1488
1.15156
1.15674
1.16283
0.985128
0.784058
0.698153
0.498885
0.165247
0.232019
0.324215
0.452272
0.626623
0.923928
1.16
1.15256
1.14933
1.14802
1.14784
1.14689
1.14654
1.14663
1.14745
1.14874
1.15194
1.15773
1.16426
1.00374
0.773386
0.615302
0.41908
0.0423431
0.21228
0.296464
0.397024
0.526113
0.696722
0.978691
1.16122
1.15308
1.14944
1.14792
1.14767
1.14647
1.14613
1.14628
1.14725
1.1488
1.15248
1.15886
1.16574
1.04624
0.794068
0.57767
0.217145
0.0977004
0.314624
0.411417
0.513557
0.638169
0.802499
1.06653
1.1623
1.15362
1.14964
1.14795
1.14764
1.14611
1.14577
1.14598
1.14709
1.14885
1.15291
1.15977
1.16688
1.15514
0.897505
0.676699
0.0425722
0.147376
0.504022
0.626332
0.698769
0.801723
0.950846
1.16716
1.16317
1.15412
1.14988
1.14806
1.14771
1.14578
1.14544
1.1457
1.14693
1.14889
1.15329
1.16054
1.16774
1.16681
1.10647
0.756561
0.0324574
0.164172
0.521058
0.814034
0.980055
1.0304
1.15531
1.16803
1.16379
1.15453
1.15012
1.1482
1.14782
1.14547
1.14513
1.14543
1.14676
1.14891
1.15359
1.16112
1.16825
1.16599
1.10828
0.629173
0.0293046
0.177808
0.532748
0.822758
1.0164
1.11503
1.15657
1.16842
1.16413
1.15482
1.15031
1.14833
1.14795
1.14518
1.14483
1.14515
1.14657
1.14888
1.15379
1.16149
1.1684
1.16414
1.08508
0.518731
0.028341
0.189162
0.53941
0.828613
1.0188
1.11599
1.15701
1.16841
1.16419
1.15496
1.15043
1.14842
1.14804
1.14489
1.14453
1.14485
1.14633
1.14878
1.15387
1.16167
1.16821
1.1612
1.05616
0.436788
0.0284233
0.198758
0.541968
0.832422
1.01994
1.11611
1.15687
1.16809
1.16404
1.15498
1.15047
1.14846
1.14808
1.14459
1.14422
1.14454
1.14606
1.14861
1.15385
1.16167
1.16772
1.15714
1.02277
0.381997
0.0291148
0.206974
0.542848
0.834209
1.0202
1.11568
1.15632
1.16753
1.16371
1.15489
1.15045
1.14845
1.14806
1.14429
1.14392
1.14423
1.14577
1.14839
1.15373
1.16152
1.16696
1.15194
0.985425
0.345387
0.0302019
0.214088
0.543231
0.833565
1.01975
1.11485
1.1555
1.1668
1.16325
1.15473
1.15036
1.14837
1.14799
1.14399
1.14361
1.14391
1.14547
1.14814
1.15354
1.16123
1.16594
1.14558
0.943335
0.319196
0.0315628
0.220309
0.543327
0.830869
1.01851
1.11372
1.15448
1.16597
1.16271
1.15451
1.15022
1.14825
1.14786
1.14367
1.1433
1.1436
1.14517
1.14786
1.1533
1.16084
1.16469
1.13793
0.89852
0.299718
0.033121
0.2258
0.543161
0.827097
1.01631
1.11228
1.15331
1.16507
1.16213
1.15425
1.15004
1.14809
1.14768
1.14335
1.14299
1.14329
1.14487
1.14759
1.15303
1.16037
1.16319
1.12857
0.856569
0.284932
0.034826
0.23069
0.54276
0.822923
1.01323
1.11051
1.15201
1.16412
1.16151
1.15396
1.14984
1.14789
1.14746
1.14301
1.14267
1.14299
1.14458
1.14732
1.15276
1.15984
1.16139
1.11697
0.820353
0.273572
0.0366431
0.235082
0.542163
0.818639
1.00948
1.10839
1.15058
1.16315
1.16088
1.15365
1.1496
1.14766
1.14721
1.14267
1.14236
1.14269
1.1443
1.14705
1.15248
1.15925
1.15919
1.10311
0.789613
0.26478
0.0385488
0.239062
0.541413
0.81435
1.00532
1.10597
1.14904
1.16215
1.16025
1.15333
1.14935
1.14741
1.14693
1.14233
1.14204
1.14239
1.14403
1.1468
1.15219
1.15857
1.1565
1.08763
0.763326
0.257954
0.0405272
0.242701
0.540554
0.810097
1.00092
1.1033
1.1474
1.16115
1.15962
1.153
1.14909
1.14715
1.14664
1.14198
1.14172
1.14209
1.14376
1.14655
1.1519
1.15779
1.15321
1.07136
0.740596
0.252655
0.0425686
0.246058
0.539623
0.805905
0.996407
1.10044
1.14567
1.16013
1.15898
1.15266
1.14882
1.14687
1.14633
1.14164
1.1414
1.1418
1.1435
1.14631
1.1516
1.15689
1.14929
1.05498
0.720747
0.248557
0.0446669
0.249185
0.538656
0.801793
0.99185
1.09743
1.14388
1.15911
1.15835
1.15232
1.14854
1.14658
1.146
1.14129
1.14108
1.14151
1.14324
1.14607
1.15127
1.15584
1.14475
1.03894
0.703262
0.245406
0.0468199
0.252125
0.537684
0.797777
0.987297
1.09431
1.14203
1.15808
1.15773
1.15198
1.14825
1.14628
1.14568
1.14094
1.14077
1.14122
1.14299
1.14584
1.15093
1.15461
1.13965
1.02344
0.687744
0.243009
0.049028
0.254917
0.536733
0.793874
0.982783
1.09111
1.14013
1.15704
1.15711
1.15164
1.14797
1.14598
1.14535
1.14059
1.14045
1.14094
1.14275
1.1456
1.15055
1.15319
1.13408
1.00859
0.673872
0.241209
0.0512935
0.257595
0.535829
0.790098
0.978334
1.08788
1.13819
1.15601
1.15649
1.1513
1.14768
1.14568
1.14501
1.14025
1.14014
1.14067
1.14251
1.14536
1.15014
1.15156
1.12811
0.994427
0.661385
0.23988
0.0536207
0.260189
0.534992
0.786463
0.973969
1.08461
1.13623
1.15496
1.15588
1.15096
1.1474
1.14539
1.14468
1.1399
1.13983
1.14039
1.14227
1.14513
1.14969
1.14972
1.12185
0.980937
0.65007
0.238918
0.0560145
0.262727
0.534243
0.782983
0.969706
1.08135
1.13424
1.15392
1.15527
1.15063
1.14711
1.14509
1.14435
1.13958
1.13954
1.14014
1.14205
1.14489
1.14919
1.14767
1.11537
0.968088
0.639744
0.238237
0.0584819
0.265237
0.533599
0.77967
0.96556
1.0781
1.13224
1.15287
1.15467
1.1503
1.14685
1.14481
1.14405
1.1393
1.13928
1.13992
1.14186
1.14466
1.14864
1.14544
1.10872
0.955839
0.630253
0.237763
0.0610306
0.267742
0.533078
0.776539
0.961546
1.07488
1.13023
1.15184
1.15409
1.15003
1.14662
1.14457
1.14378
0.313563
0.0625496
0.0535926
0.71853
0.0870598
0.0654404
0.618843
0.121657
0.0910518
0.512392
0.153384
0.127168
0.426245
0.0325435
0.0397956
0.189664
0.157387
0.261909
0.0645458
0.0339945
0.0929198
0.254172
0.192313
0.120583
0.0763372
0.0556122
0.107501
0.0326935
0.0231911
0.0684672
0.122972
0.130303
0.618883
0.798858
0.385913
0.0409811
0.0529739
0.0922803
0.136647
0.124512
0.732139
0.728734
0.804809
0.67045
0.204784
0.244719
0.0604132
0.0465478
0.125423
0.164802
0.142638
0.712393
0.629752
0.716981
0.565968
0.114282
0.161025
0.0973999
0.0768855
0.632617
0.527259
0.61662
0.476973
0.0581378
0.081982
0.0183034
0.138299
0.130611
0.575711
0.350285
0.513643
0.3685
0.0254669
0.0373849
0.0827971
0.085931
0.0680356
0.096735
0.287852
0.043781
0.0857282
0.0515371
0.0342232
0.0555839
0.0356445
0.0504329
0.250549
0.295796
0.724539
0.217001
0.189267
0.277567
0.223145
0.0461497
0.0409656
0.0766971
0.0529899
0.0581559
0.0516471
0.0530111
0.0751955
0.16542
0.199154
0.657736
0.145163
0.116373
0.186592
0.147917
0.0743602
0.0618666
0.108658
0.0811097
0.0981191
0.0587049
0.0791576
0.10401
0.0832924
0.112425
0.552638
0.0868146
0.0613874
0.11474
0.0880741
0.126526
0.100711
0.0378179
0.0568483
0.473007
0.0163968
0.0401811
0.0269158
0.0606233
0.0409634
0.0158677
0.143386
0.139919
0.0190765
0.00517866
0.0253621
0.361225
0.0490706
0.0186335
0.00912258
0.0267964
0.019003
0.0467562
0.429473
0.332317
0.147922
0.169073
0.0964628
0.0522662
0.0126619
0.0105241
0.619616
0.303315
0.365438
0.0139953
0.158501
0.201684
0.173312
0.0136342
0.0507752
0.0457493
0.061399
0.158088
0.146204
0.294466
0.108637
0.194525
0.0410576
0.016241
0.0287683
0.0265615
0.0339875
0.0541923
0.0436812
0.0302763
0.141974
0.126628
0.135911
0.100902
0.123081
0.138749
0.0225423
0.0147159
0.037793
0.0294928
0.052669
0.0423771
0.0234581
0.0374145
0.0281389
0.0109041
0.0265643
0.0219396
0.0123513
0.0197185
0.0250257
0.0493494
0.0499727
0.0527109
0.0518585
0.0196785
0.0146087
0.0881398
0.0187889
0.0260583
0.0139614
0.0178463
0.0852439
0.0724999
0.241591
0.224567
0.0634864
0.0538059
0.0143599
0.0345992
0.156713
0.142488
0.177286
0.161914
0.0352325
0.0524973
0.0420902
0.14727
0.0649115
0.0766253
0.041141
0.0640743
0.169487
0.053793
0.0303062
0.0189179
0.0689594
0.0336436
0.05973
0.0318401
0.0629799
0.0428023
0.0420722
0.208463
0.0285041
0.207151
0.251162
0.0333841
0.0398564
0.0289379
0.0326742
0.243503
0.0442237
0.0439896
0.0551481
0.0724496
0.0678686
0.0790356
0.074255
0.055432
0.0604239
0.0605397
0.0555274
0.066158
0.061869
0.0596703
0.130203
0.128352
0.168917
0.166571
0.0731334
0.0138763
0.0716596
0.0778385
0.0757079
0.0994481
0.0977025
0.0272782
0.0383872
0.11117
0.0287954
0.020525
0.0507792
0.198226
0.182453
0.219115
0.203408
0.0516176
0.0215113
0.0379745
0.0375542
0.0557085
0.054958
0.00760566
0.0265742
0.0775952
0.0668894
0.138307
0.112799
0.0118043
0.00731207
0.0215158
0.0169868
0.02604
0.0115277
0.0164942
0.0135973
0.0257243
0.0399863
0.0150977
0.0186402
0.00500097
0.0190901
0.0170973
0.633697
0.238246
0.335738
0.146491
0.00835203
0.00557795
0.142399
0.415622
0.286648
0.00683824
0.0164745
0.0148672
0.0929626
0.0813269
0.0279744
0.198915
0.164648
0.0642544
0.0119371
0.0209024
0.0163045
0.0105513
0.0156506
0.0111952
0.0426724
0.0275267
0.0254237
0.0516832
0.0563376
0.0224216
0.0258529
0.0166231
0.0163615
0.0482656
0.131718
0.336057
0.317487
0.361963
0.342427
0.136037
0.264486
0.247304
0.0736691
0.0265686
0.0698513
0.0652005
0.00965033
0.0146361
0.0717678
0.0482417
0.0301799
0.0282213
0.0416955
0.0478355
0.0436099
0.0540084
0.0492786
0.0431781
0.0451753
0.0179884
0.0168549
0.0419509
0.179008
0.388769
0.368576
0.0505986
0.051878
0.121318
0.0267333
0.0287462
0.065971
0.0877814
0.107809
0.0998627
0.0645066
0.0870046
0.0810455
0.0968012
0.0894386
0.0654775
0.0981483
0.287776
0.270257
0.311455
0.293673
0.100313
0.0831827
0.0317587
0.0323142
0.0210388
0.022049
0.0647144
0.108859
0.0463632
0.0501054
0.0324907
0.03292
0.091991
0.114867
0.040222
0.0571032
0.00745575
0.0181881
0.0390849
0.0297253
0.058487
0.0200245
0.0207622
0.0181147
0.0484102
0.0144032
0.00425762
0.0778697
0.0541705
0.0638959
0.059956
0.0249072
0.0193142
0.0254627
0.0559044
0.0177504
0.00999176
0.0213581
0.0219514
0.00298377
0.0266258
0.0199621
0.0149577
0.00737369
0.0137813
0.013547
0.0136068
0.023046
0.0199608
0.00769099
0.0380402
0.0369345
0.0191299
0.0128507
0.00867963
0.0135155
0.0210116
0.014929
0.016764
0.0351287
0.0143716
0.0128179
0.0146544
0.0159856
0.0267645
0.0144557
0.0113181
0.0160614
0.0147664
0.0115477
0.01839
0.016578
0.0214408
0.0190893
0.013798
0.0177012
0.0251685
0.0216897
0.0323019
0.0267354
0.0209157
0.0186414
0.0152997
0.0226035
0.0205243
0.0444691
0.0512439
0.0248046
0.0231952
0.0208295
0.021749
0.0553426
0.0151412
0.0160583
0.0178901
0.0152301
0.0166317
0.0491013
0.0172116
0.0204587
0.0171149
0.0163875
0.0215331
0.0522553
0.0461784
0.015643
0.0379486
0.0336694
0.044034
0.0394267
0.0161177
0.0156537
0.0282424
0.0242401
0.0781648
0.0716585
0.0282049
0.0362865
0.0849159
0.0799411
0.0475266
0.045939
0.066872
0.111893
0.15664
0.0802296
0.102148
0.0675717
0.053158
0.139578
0.12191
0.158893
0.145843
0.0586685
0.04783
0.0588051
0.0732078
0.0423322
0.0483979
0.0369396
0.033989
0.0471361
0.0275103
0.030187
0.0259102
0.037616
0.0334302
0.0309223
0.0360779
0.0386235
0.0390748
0.0373421
0.0270476
0.0868857
0.0704236
0.0952908
0.0902452
0.0274467
0.0643762
0.0629134
0.0676781
0.0648831
0.0356474
0.11137
0.106982
0.118798
0.112948
0.0366088
0.0304408
0.10032
0.0965514
0.105584
0.101592
0.0308843
0.0198857
0.0184053
0.0449058
0.0426027
0.0214897
0.0205259
0.0373401
0.0368941
0.0382463
0.0374782
0.0358301
0.0350713
0.0367229
0.0360779
0.0605581
0.0590178
0.0624544
0.0610471
0.0532659
0.0394965
0.0584631
0.055721
0.0275056
0.0245474
0.0324253
0.0287578
0.0125956
0.019568
0.0184855
0.023583
0.0202221
0.0306068
0.0315854
0.0820017
0.0199136
0.0194087
0.020829
0.0200918
0.0192173
0.0668215
0.0223637
0.029443
0.0337364
0.0425063
0.106251
0.0295196
0.0239147
0.0347951
0.0324576
0.0220247
0.0211107
0.0234945
0.0223571
0.0933412
0.0330289
0.0333707
0.0082624
0.0248611
0.0135068
0.0143636
0.0132643
0.0237065
0.00739393
0.0189087
0.0111729
0.01424
0.0388183
0.0330904
0.0191506
0.0197958
0.0577932
0.0511403
0.0183301
0.0189307
0.0133666
0.0242818
0.0582467
0.0415834
0.0125907
0.0121648
0.0171491
0.0103947
0.0134669
0.018604
0.0265191
0.00723494
0.0151704
0.00995432
0.0147636
0.0201566
0.0644561
0.138134
0.184028
0.0127135
0.0119958
0.193041
0.255527
0.212882
0.00782842
0.0283054
0.0164564
0.0182356
0.139995
0.146091
0.168321
0.00571969
0.00910399
0.00670974
0.00567974
0.00695883
0.00542811
0.0700707
0.0447498
0.0269908
0.0296829
0.0271043
0.0306943
0.221964
0.445511
0.423731
0.475537
0.452901
0.227536
0.0358136
0.0302435
0.0162322
0.0601578
0.0699523
0.138067
0.0918777
0.0865853
0.0365674
0.0320166
0.0369269
0.0371071
0.416598
0.395627
0.183808
0.138146
0.0552917
0.0575384
0.0597896
0.0733152
0.156726
0.0423291
0.100615
0.0938158
0.0146741
0.0150126
0.016936
0.0200484
0.0203942
0.0271897
0.0153519
0.012673
0.0143148
0.0217142
0.0427229
0.0376775
0.0184106
0.0267468
0.019447
0.0196992
0.0192612
0.0120877
0.013571
0.0156994
0.0151879
0.012792
0.0208674
0.0239133
0.0513986
0.0398369
0.0423814
0.0390978
0.0290366
0.0374009
0.017507
0.0199454
0.0110155
0.00731358
0.00724957
0.0139713
0.0117525
0.0282215
0.0179748
0.0122227
0.01715
0.022157
0.0210455
0.0303638
0.0315996
0.01886
0.0150804
0.0155496
0.009804
0.0136696
0.0153058
0.0598147
0.0542343
0.0225524
0.0143002
0.0185328
0.017723
0.0147762
0.016925
0.0162945
0.0510367
0.0416276
0.043211
0.0655986
0.0918304
0.0907399
0.0425414
0.0608527
0.0587047
0.0895043
0.0879297
0.0629363
0.0439319
0.0532588
0.0440344
0.0336705
0.0365354
0.0296841
0.0457273
0.04762
0.0685389
0.0247475
0.0321572
0.0315696
0.0485438
0.0479029
0.0280888
0.0269725
0.0264579
0.0308236
0.0300536
0.03418
0.0548239
0.0542042
0.057819
0.0573211
0.0387041
0.0294082
0.0498104
0.0491721
0.0535633
0.0529092
0.0319944
0.053821
0.0549002
0.136071
0.123016
0.0522904
0.0534588
0.0810232
0.0838466
0.176232
0.0243022
0.0240556
0.026093
0.0257503
0.0214868
0.0238195
0.0235882
0.159359
0.0760462
0.0800596
0.0140462
0.0141533
0.017151
0.0167025
0.0138893
0.0143201
0.0142669
0.0673764
0.0296384
0.0333072
0.109792
0.103055
0.0454139
0.053681
0.117658
0.111812
0.0274887
0.0276046
0.0382886
0.0368694
0.0269768
0.0273136
0.0116923
0.0183625
0.02675
0.0187966
0.0073321
0.0118879
0.0194343
0.0138355
0.014728
0.0180177
0.0182054
0.0262277
0.0110388
0.00724299
0.0105299
0.0139781
0.0249562
0.0176423
0.0178469
0.0164074
0.026028
0.0226695
0.013937
0.0134155
0.014732
0.0150606
0.0176971
0.00795507
0.00544703
0.00988287
0.0158641
0.0139902
0.0143287
0.0123847
0.0135177
0.0153281
0.0120894
0.00809671
0.00623424
0.0238431
0.0243974
0.0228103
0.0232707
0.0268097
0.0349232
0.0351089
0.0345013
0.0347362
0.0262101
0.0162284
0.0260256
0.0259253
0.0268168
0.0262734
0.0160542
0.0297521
0.0364765
0.0381495
0.0353161
0.0356724
0.0289798
0.0177055
0.0259181
0.0259106
0.0258752
0.0258761
0.0172053
0.0218222
0.0223456
0.0224576
0.0219132
0.0319263
0.0457701
0.0454393
0.0213664
0.0301562
0.0300778
0.0305923
0.0302796
0.0217075
0.0120856
0.011158
0.014302
0.012883
0.0199575
0.0196422
0.0206009
0.0202793
0.0171577
0.0279348
0.0206911
0.0209122
0.0202562
0.0298615
0.0297609
0.0300166
0.0299462
0.0205018
0.0211921
0.02091
0.0251502
0.0214058
0.0174293
0.00754919
0.0117288
0.0148704
0.00735866
0.01955
0.0146116
0.00356682
0.0251648
0.033947
0.0334824
0.0181938
0.00967322
0.00681796
0.00528002
0.0117336
0.0126704
0.0189752
0.0192068
0.0267027
0.0195494
0.00863914
0.00724513
0.0164734
0.00571608
0.00989724
0.00809482
0.00586089
0.00725949
0.0134608
0.0109844
0.0118236
0.0147577
0.0143013
0.0389181
0.033982
0.0105865
0.0126168
0.0141087
0.0207974
0.0236071
0.0153087
0.018762
0.0165921
0.0139786
0.00800712
0.0137098
0.0141265
0.00726637
0.0108013
0.0121036
0.0155787
0.0140789
0.0144707
0.0116074
0.0122365
0.0151394
0.0147071
0.014339
0.0108923
0.0140999
0.0154646
0.0150876
0.0275404
0.0237643
0.0186919
0.0302615
0.0323057
0.0342468
0.0277896
0.0246985
0.0221397
0.0316709
0.0328187
0.0249654
0.0291998
0.0215857
0.0242743
0.0340137
0.0342611
0.0333811
0.0337247
0.023684
0.0210856
0.0315353
0.0311193
0.0153573
0.0156415
0.0168419
0.0151973
0.0151132
0.0158557
0.0168014
0.016621
0.0184466
0.0288504
0.0277329
0.0306137
0.0298774
0.0197506
0.0139537
0.0144782
0.0179798
0.00909651
0.0134592
0.0134561
0.0158343
0.0135996
0.013628
0.0204653
0.0195053
0.0149374
0.0492761
0.0444593
0.0749086
0.0657135
0.0436827
0.0614293
0.0856708
0.0818117
0.0415425
0.0380585
0.0377587
0.0267911
0.0334332
0.0572817
0.0493113
0.0468713
0.0365884
0.0438842
0.0446068
0.0410075
0.0428466
0.0357896
0.0283691
0.0295447
0.0382968
0.031677
0.0308866
0.0330507
0.0327107
0.0356784
0.0316492
0.0301075
0.0281194
0.0323244
0.0439333
0.0394469
0.0264411
0.0277673
0.0472022
0.046141
0.028086
0.0275175
0.0293487
0.028695
0.0558779
0.0553584
0.0348662
0.0376357
0.0568793
0.0563996
0.0510894
0.0504604
0.0299265
0.0313706
0.0522657
0.0516721
0.0193483
0.0259482
0.0259225
0.0259281
0.0259644
0.0189882
0.0213848
0.0249769
0.023719
0.025825
0.025573
0.0209149
0.0371952
0.0242722
0.0246805
0.0236166
0.0239335
0.0370512
0.0378119
0.0261592
0.0266658
0.0251313
0.0256193
0.037618
0.0355746
0.0218957
0.0221626
0.0214607
0.0216572
0.0353206
0.0365346
0.0230382
0.023319
0.0224394
0.022731
0.0363147
0.0248354
0.0245613
0.0600565
0.0410117
0.0413171
0.0403827
0.0407004
0.059544
0.0254271
0.0251228
0.0229201
0.0225831
0.0486446
0.0333314
0.0368364
0.0271515
0.0275302
0.0425945
0.0578384
0.0396886
0.0400515
0.038491
0.0392386
0.0570253
0.0233707
0.0231556
0.0146907
0.0141896
0.0139433
0.0161811
0.0153961
0.0191635
0.0143544
0.0141757
0.0148355
0.0145614
0.0188489
0.022424
0.0157586
0.0167133
0.0143014
0.0148779
0.021218
0.0311055
0.0441603
0.0432628
0.0450953
0.0446988
0.0313827
0.0197419
0.0195763
0.0205522
0.0202778
0.0189667
0.0181389
0.022631
0.0337991
0.0315112
0.0415319
0.0382157
0.0269145
0.0246133
0.0194873
0.0204039
0.0243085
0.0344374
0.0210701
0.0212634
0.0206753
0.0208771
0.0338287
0.0217077
0.0214023
0.0230897
0.0227113
0.0136118
0.0158134
0.015337
0.0172234
0.0164488
0.0139064
0.013857
0.0135292
0.0148963
0.01434
0.00853307
0.0119818
0.0149774
0.0146462
0.0158606
0.0153795
0.0126245
0.0189882
0.0187909
0.0194123
0.0191953
0.02427
0.0261491
0.0355703
0.0182343
0.0179989
0.018603
0.0184216
0.0193661
0.029363
0.0291931
0.029643
0.0295106
0.0195769
0.0184911
0.0282803
0.0273161
0.0289909
0.028724
0.0187112
0.0125805
0.0326648
0.030858
0.0225179
0.0128425
0.00951352
0.00948169
0.00651943
0.00928865
0.0124767
0.0156024
0.0127187
0.0141897
0.0138109
0.0263874
0.0184681
0.0187237
0.0104659
0.0107447
0.0102879
0.0134378
0.0130571
0.00691517
0.00707121
0.0143617
0.0110265
0.0133564
0.0156807
0.0173812
0.0232226
1.15485
1.15514
1.1555
1.15526
1.15575
1.1558
1.15594
1.15666
1.15626
1.15691
1.15771
1.15683
1.15795
1.12627
1.15732
1.11313
1.09942
1.15751
1.10541
1.15843
1.1573
1.15827
1.15761
1.15683
1.15737
1.15662
1.1563
1.1564
1.15578
1.15586
1.15435
1.15498
1.15506
1.15525
1.1563
1.1558
1.15672
1.11295
1.15691
1.05104
0.900478
1.15813
0.865125
0.796832
1.04839
0.78599
0.784928
1.02476
0.793972
0.848135
1.08558
0.874583
0.983035
1.158
1.02891
1.15789
1.15683
1.15746
1.15624
1.15583
1.1542
1.15544
1.15503
1.15598
1.09573
1.1566
1.00699
0.782278
1.02405
0.723449
0.588002
0.815032
0.555484
0.493991
0.715582
0.485249
0.491618
0.706611
0.5033
0.562064
0.771179
0.588631
0.691047
0.903369
0.73213
0.888758
1.11568
0.951863
1.15764
1.1565
1.15453
1.15665
1.15567
1.14131
0.842726
1.02398
0.756256
0.548584
0.714414
0.492229
0.357754
0.522699
0.324235
0.261837
0.428909
0.254289
0.268053
0.428472
0.282616
0.348175
0.501855
0.375322
0.475243
0.629003
0.514294
0.654401
0.822151
0.710041
0.912246
1.10157
1.1554
1.08557
1.15705
0.976274
0.688866
0.795539
0.610305
0.409572
0.504972
0.351572
0.205592
0.31256
0.170465
0.0910941
0.21582
0.0894617
0.122627
0.224407
0.140048
0.208319
0.306298
0.235927
0.331769
0.432641
0.368535
0.497534
0.608655
0.548318
0.729832
0.858932
1.15666
1.00288
1.05775
0.89506
0.635111
0.66603
0.562967
0.372262
0.389391
0.316612
0.144316
0.182409
0.128278
0.0752877
0.117943
0.0368269
0.046357
0.0806013
0.086696
0.116309
0.137096
0.163423
0.251054
0.306067
0.284893
0.403092
0.468715
0.449249
0.614063
0.694369
1.15809
0.987155
0.993368
0.889252
0.669872
0.636568
0.611672
0.467461
0.384212
0.351735
0.303692
0.281902
0.134489
0.113589
0.102588
0.0616363
0.0881425
0.0938633
0.144631
0.219971
0.239201
0.249982
0.356773
0.387374
0.398746
0.549407
0.592691
1.15956
1.01112
0.990925
0.922799
0.744466
0.687355
0.701972
0.622598
0.505212
0.525375
0.508622
0.445985
0.438294
0.447259
0.36246
0.0799244
0.0988466
0.0936484
0.154829
0.221716
0.217951
0.248824
0.346566
0.351292
0.385341
0.524705
0.539485
1.16102
1.04194
1.01918
0.958786
0.803221
0.762204
0.768801
0.720788
0.656202
0.692078
0.719627
0.679361
0.695202
0.526518
0.549619
0.10809
0.124437
0.11426
0.180983
0.244551
0.225689
0.270215
0.363009
0.348419
0.399781
0.531044
0.523747
1.16247
1.06297
1.04831
0.981208
0.823237
0.81184
0.785831
0.714758
0.72825
0.735535
0.763366
0.769879
0.592516
0.413035
0.433444
0.142197
0.160046
0.145827
0.219795
0.284972
0.252977
0.310688
0.402636
0.370718
0.438563
0.56444
0.537567
1.16391
1.08002
1.06688
0.997864
0.821685
0.823463
0.77506
0.660877
0.702268
0.669219
0.695643
0.698891
0.48537
0.310263
0.329023
0.173285
0.193595
0.182447
0.277192
0.348435
0.298251
0.375525
0.468906
0.416439
0.504494
0.626126
0.578105
1.1654
1.11343
1.08625
1.03012
0.836802
0.822471
0.781481
0.624932
0.647968
0.597724
0.552578
0.60798
0.397337
0.214685
0.232287
0.0503239
0.110855
0.0969342
0.278767
0.35233
0.274112
0.37611
0.451746
0.36959
0.479139
0.571512
0.490665
0.605929
0.72154
0.647838
1.16662
1.1683
1.12891
1.1182
0.917872
0.850641
0.861534
0.694291
0.630277
0.584143
0.51833
0.503358
0.202359
0.0662938
0.0895115
0.110094
0.244766
0.216149
0.490078
0.543684
0.38877
0.561107
0.62123
0.486892
0.644626
0.724784
0.604359
0.755551
0.858149
0.75294
1.16755
1.16887
1.16849
1.16686
1.09359
0.952365
1.04117
0.919252
0.732385
0.788973
0.111343
0.182846
0.0339311
0.0818486
0.0702797
0.160327
0.434196
0.42098
0.51737
0.744134
0.61276
0.811238
0.887697
0.677743
0.896998
0.94473
0.772734
0.966439
1.04795
0.902123
1.16815
1.16882
1.16892
1.16629
1.13836
1.1442
1.11305
0.858994
0.926775
0.659848
0.0794882
0.099974
0.0298106
0.0953542
0.0854089
0.174637
0.446277
0.437799
0.530277
0.755282
0.747338
0.820894
0.977195
0.97311
1.01553
1.09667
1.01194
1.11461
1.14942
1.10726
1.16839
1.16807
1.1687
1.1647
1.12677
1.13588
1.09147
0.764235
0.835384
0.543851
0.0659986
0.0751607
0.028458
0.107152
0.0984486
0.186506
0.45272
0.44834
0.538216
0.762936
0.757469
0.827362
0.980656
0.978242
1.01834
1.09817
1.09716
1.11584
1.15016
1.14969
1.16829
1.1666
1.16777
1.16204
1.11094
1.1232
1.06385
0.672535
0.740907
0.454524
0.0588771
0.0638117
0.0283341
0.11756
0.109874
0.196501
0.456254
0.453756
0.54157
0.76803
0.764437
0.831645
0.982575
0.981257
1.01974
1.09864
1.09837
1.11614
1.1502
1.15023
1.16787
1.16441
1.16612
1.15826
1.09127
1.10636
1.03149
0.591538
0.650827
0.393573
0.0547582
0.0576369
0.0288986
0.126804
0.119973
0.205033
0.458915
0.456971
0.542694
0.77039
0.768901
0.83398
0.983423
0.982875
1.0202
1.09843
1.09864
1.11583
1.14977
1.15013
1.16717
1.16147
1.16374
1.15335
1.06826
1.08582
0.995173
0.529359
0.574088
0.353353
0.0523009
0.0540203
0.0299007
0.13506
0.128955
0.2124
0.461093
0.459503
0.543164
0.769791
0.770497
0.833952
0.983374
0.983496
1.01993
1.09774
1.0983
1.11509
1.149
1.1496
1.16622
1.15779
1.16062
1.14728
1.04183
1.062
0.954295
0.485038
0.516841
0.32501
0.0508678
0.0518633
0.0312016
0.142474
0.136988
0.218828
0.462818
0.461566
0.543328
0.767233
0.76928
0.831681
0.982277
0.983209
1.0189
1.09668
1.09751
1.11403
1.14801
1.14877
1.16503
1.15331
1.15675
1.13998
1.01098
1.03456
0.909664
0.452437
0.476
0.304085
0.0501181
0.0506259
0.0327161
0.149167
0.144211
0.224488
0.464129
0.463182
0.543226
0.763884
0.766439
0.828095
0.979956
0.981812
1.01695
1.09524
1.09636
1.11267
1.14684
1.14773
1.16359
1.14786
1.15205
1.1311
0.976407
1.00257
0.866557
0.427399
0.445578
0.288267
0.0498528
0.0500121
0.0343881
0.155242
0.15074
0.229518
0.465087
0.464399
0.54288
0.760298
0.762999
0.823984
0.976566
0.979196
1.01407
1.09336
1.09481
1.11098
1.1455
1.14652
1.16187
1.14112
1.14632
1.12009
0.941746
0.967598
0.828858
0.407682
0.422034
0.276143
0.0499486
0.0498466
0.0361797
0.160786
0.156675
0.234025
0.465757
0.465279
0.542328
0.756652
0.759389
0.819713
0.972472
0.975594
1.01046
1.09105
1.09283
1.10895
1.144
1.14514
1.15978
1.13272
1.13918
1.10676
0.909848
0.933453
0.796839
0.391911
0.403411
0.266773
0.0503248
0.0500188
0.0380651
0.165874
0.162098
0.238102
0.466197
0.465886
0.541612
0.753001
0.755738
0.81542
0.967991
0.971378
1.00638
1.08835
1.09041
1.1066
1.14235
1.1436
1.15722
1.12264
1.13035
1.0916
0.88147
0.902425
0.769533
0.379161
0.38847
0.259502
0.0509268
0.0504558
0.0400265
0.170572
0.167083
0.24182
0.466462
0.466277
0.540777
0.749369
0.75209
0.811155
0.963324
0.966836
1.00203
1.08534
1.08762
1.10399
1.14056
1.14191
1.15409
1.11119
1.11988
1.07545
0.856367
0.874905
0.745986
0.368767
0.376363
0.253856
0.0517168
0.0511079
0.0420527
0.174936
0.171692
0.245242
0.466599
0.466506
0.53986
0.745776
0.748466
0.806946
0.958586
0.962143
0.997542
1.0821
1.08455
1.10117
1.13865
1.14009
1.15033
1.09885
1.10817
1.05906
0.834084
0.850549
0.72547
0.360237
0.366476
0.249484
0.0526676
0.0519403
0.0441371
0.179016
0.175981
0.248422
0.466649
0.466618
0.538899
0.742242
0.744887
0.802812
0.953845
0.957399
0.99299
1.07871
1.08127
1.09819
1.13664
1.13815
1.14594
1.08608
1.09568
1.0429
0.81419
0.828902
0.707435
0.353195
0.35835
0.246116
0.0537598
0.052928
0.0462765
0.182857
0.179997
0.251405
0.466648
0.466652
0.537926
0.738785
0.74137
0.798771
0.949143
0.952665
0.988433
1.07521
1.07784
1.09509
1.13455
1.13613
1.14097
1.07321
1.08286
1.02725
0.796321
0.809545
0.691457
0.347347
0.351631
0.243547
0.0549793
0.0540532
0.0484708
0.186499
0.183785
0.254231
0.466626
0.466643
0.536967
0.735424
0.737935
0.794838
0.94451
0.947978
0.983907
1.07163
1.07432
1.09192
1.1324
1.13402
1.13551
1.06047
1.07001
1.01224
0.780177
0.792134
0.6772
0.342462
0.346044
0.24161
0.0563156
0.0553027
0.0507217
0.189977
0.187382
0.256934
0.46661
0.46662
0.536049
0.732175
0.7346
0.791029
0.939967
0.943365
0.979439
1.06803
1.07074
1.08869
1.1302
1.13186
1.12964
1.04798
1.05732
0.997905
0.765507
0.776381
0.664389
0.338353
0.341369
0.240174
0.0577611
0.0566669
0.0530328
0.193325
0.190825
0.259546
0.466625
0.46661
0.535194
0.729054
0.731382
0.787358
0.935531
0.938847
0.975051
1.06441
1.06712
1.08543
1.12796
1.12965
1.12344
1.03583
1.04491
0.984248
0.752101
0.762044
0.6528
0.334867
0.337428
0.239129
0.0593102
0.0581389
0.0554094
0.196573
0.194145
0.262096
0.466692
0.466636
0.534421
0.726077
0.728296
0.783837
0.931219
0.934441
0.970761
1.06081
1.06351
1.08217
1.1257
1.1274
1.117
1.02405
1.03285
0.971242
0.739776
0.748924
0.642241
0.331877
0.334077
0.238385
0.0609589
0.0597132
0.0578579
0.199749
0.197372
0.264611
0.466831
0.466719
0.533749
0.723258
0.725357
0.780482
0.927043
0.930161
0.966584
1.05723
1.05991
1.07891
1.12341
1.12513
1.11039
1.01265
1.02116
0.958846
0.728382
0.736846
0.632554
0.329277
0.331194
0.237866
0.0627042
0.0613862
0.0603854
0.202881
0.200535
0.267115
0.467062
0.466879
0.533196
0.72061
0.722579
0.777303
0.923017
0.926022
0.962535
1.05371
1.05635
1.07568
1.12112
1.12284
1.10404
1.00218
1.00986
0.947562
0.718161
0.725663
0.623884
0.327024
0.328677
0.237517
0.064538
0.0631553
0.0629925
0.20597
0.20366
0.269609
0.467416
0.467136
0.532814
0.718269
0.719977
0.774467
0.919374
0.922037
0.958858
1.05048
1.05284
1.07271
1.11901
1.12055
0.296457
0.242645
0.264866
0.0599343
0.0525167
0.0567514
0.044975
0.044449
0.0528631
0.557671
0.585012
0.729537
0.0836214
0.0779773
0.0827409
0.0583992
0.064049
0.0673157
0.440318
0.461212
0.631905
0.117534
0.113692
0.118665
0.0848449
0.090272
0.0951646
0.335304
0.354264