/*--------------------------------*- C++ -*----------------------------------*\
| =========                 |                                                 |
| \\      /  F ield         | OpenFOAM: The Open Source CFD Toolbox           |
|  \\    /   O peration     | Version:  v1912                                 |
|   \\  /    A nd           | Website:  www.openfoam.com                      |
|    \\/     M anipulation  |                                                 |
\*---------------------------------------------------------------------------*/
FoamFile
{
    version     2.0;
    format      ascii;
    class       volScalarField;
    location    "900";
    object      omega;
}
// * * * * * * * * * * * * * * * * * * * * * * * * * * * * * * * * * * * * * //

dimensions      [0 0 -1 0 0 0 0];


internalField   nonuniform List<scalar> 
12556
(
31.8693
31.8706
31.8719
31.8739
31.9377
31.9387
31.9393
31.9406
31.9432
31.9476
31.9541
31.9616
31.9669
31.9674
31.9629
31.9561
31.9497
31.9449
31.9417
31.9399
31.8748
31.8723
31.8706
31.8691
31.7347
31.7377
31.7408
31.7448
31.8052
31.8094
31.8129
31.8467
31.8538
31.866
31.8838
31.904
31.9189
31.9212
31.9101
31.8919
31.8738
31.8599
31.8206
31.8134
31.7477
31.742
31.7382
31.7347
31.6014
31.6062
31.6109
31.6167
31.6747
31.6822
31.69
31.7257
31.7423
31.7704
31.8107
31.8542
31.8855
31.8902
31.8674
31.8291
31.789
31.7569
31.7065
31.6914
31.6237
31.6146
31.6083
31.6029
31.4702
31.4764
31.4824
31.4901
31.5455
31.5569
31.5709
31.6132
31.6478
31.7062
31.7874
31.8802
31.9455
31.9484
31.8943
31.8144
31.7362
31.6732
31.605
31.5767
31.5036
31.4899
31.4808
31.4733
31.3405
31.3481
31.3555
31.3651
31.4194
31.4355
31.4582
31.5112
31.579
31.6921
31.8783
32.1253
32.3114
32.284
32.1072
31.9063
31.7401
31.6236
31.5218
31.4713
31.388
31.3678
31.3552
31.3454
31.2123
31.2212
31.2301
31.2417
31.2961
31.3185
31.3542
31.4265
31.5398
31.7628
32.225
33.1124
34.0371
33.6624
32.8305
32.2306
31.8505
31.6187
31.4614
31.3778
31.2769
31.2482
31.2311
31.2187
31.0859
31.0961
31.1066
31.1206
31.1754
31.2057
31.2589
31.359
31.5366
31.955
33.0733
37.2785
43.0923
40.2283
34.9632
33.0054
32.1259
31.6795
31.4249
31.297
31.1709
31.1311
31.1083
31.0931
30.9615
30.9731
30.9854
31.0025
31.0585
31.0985
31.1724
31.3036
31.5623
32.23
34.3107
45.6289
65.5319
40.0531
34.4429
32.6077
31.8164
31.4123
31.2284
31.0701
31.0167
30.9872
30.9687
30.8396
30.8527
30.8671
30.8877
30.9459
30.9969
31.0933
31.2557
31.6
32.482
35.1753
52.3602
116.089
47.2053
36.413
33.2621
32.0195
31.4205
31.1697
30.9747
30.906
30.8687
30.8466
30.7207
30.7354
30.7522
30.7767
30.8377
30.9007
31.0198
31.2122
31.6363
32.6791
35.7834
59.785
140.644
53.0187
38.3658
33.9643
32.2544
31.4417
31.1183
30.8849
30.7999
30.7542
30.7282
30.6053
30.6215
30.6408
30.6696
30.7341
30.8095
30.9507
31.172
31.6709
32.8558
36.5285
69.4411
141.315
56.4514
39.9018
34.5882
32.4807
31.4656
31.0719
30.8004
30.6991
30.6448
30.6145
30.4934
30.5112
30.533
30.5662
30.6349
30.7227
30.8848
31.1359
31.7085
33.0494
37.6067
83.3463
131.183
57.8196
40.8751
35.0527
32.6632
31.4819
31.0272
30.7199
30.6035
30.5407
30.5061
30.3849
30.4046
30.4294
30.4671
30.5391
30.6391
30.8212
31.1034
31.7516
33.2837
38.9735
97.6879
998.412
111.134
57.8257
41.333
35.3319
32.7805
31.4829
30.9806
30.642
30.5122
30.4416
30.4027
30.2795
30.3009
30.3283
30.3702
30.4486
30.5622
30.7647
31.086
31.8303
33.6616
41.5596
180.698
500.839
105.047
57.1073
41.402
35.4459
32.8286
31.4642
30.9286
30.5646
30.4235
30.3458
30.303
30.1763
30.1994
30.2294
30.2751
30.3582
30.4823
30.7017
31.0554
31.8762
33.9957
45.8865
774.785
337.684
98.8927
55.8564
41.2041
35.4296
32.8164
31.4255
30.8692
30.4856
30.3355
30.2518
30.2054
30.0746
30.0994
30.1319
30.1811
30.2686
30.4017
30.6357
31.0197
31.9168
34.4027
53.1555
873.227
293.371
93.8398
54.6604
40.8971
35.3245
32.7508
31.3688
30.8012
30.4034
30.2468
30.1576
30.1084
29.9737
30
30.035
30.0873
30.1788
30.3193
30.5657
30.9768
31.947
34.9319
63.0387
839.36
262.067
89.9283
53.5645
40.5549
35.183
32.6597
31.2957
30.7233
30.3169
30.1557
30.062
30.0103
29.8727
29.9006
29.938
29.993
30.088
30.2346
30.4911
30.9258
31.9697
35.5937
74.9711
770.806
238.663
87.0973
52.6246
40.2157
35.0171
32.5484
31.2079
30.6358
30.2248
30.0607
29.9642
29.9102
29.7713
29.8005
29.8402
29.8978
29.9959
30.1471
30.412
30.8678
31.9918
36.4049
86.9447
698.705
220.416
85.0956
51.8302
39.8981
34.8432
32.4258
31.1099
30.5408
30.1277
29.9619
29.8629
29.8077
29.6691
29.6994
29.7413
29.8012
29.9021
30.0572
30.3292
30.8043
32.02
37.3672
96.8545
632.636
205.708
83.4732
51.1901
39.6081
34.6702
32.2979
31.0045
30.4395
30.0259
29.8591
29.7584
29.7024
29.5659
29.5971
29.6408
29.7029
29.8065
29.9648
30.2433
30.7371
32.0599
38.5045
104.261
574.791
193.535
82.0208
50.7269
39.3485
34.5025
32.1681
30.894
30.3332
29.9199
29.7526
29.6507
29.5944
29.4619
29.4935
29.5389
29.6029
29.7089
29.8703
30.1549
30.6677
32.1161
39.8943
109.778
524.9
183.242
80.6922
50.4096
39.1266
34.3428
32.0387
30.7801
30.223
29.8103
29.643
29.5404
29.484
29.357
29.3889
29.4355
29.5013
29.6095
29.7737
30.0646
30.5976
32.1958
41.5079
113.794
481.969
174.383
79.4711
50.1727
38.9494
34.1942
31.9114
30.664
30.1099
29.698
29.5307
29.4277
29.3716
29.2515
29.2834
29.3309
29.3982
29.5083
29.6753
29.9727
30.5284
32.3137
43.1216
116.58
444.904
166.644
78.3429
49.9723
38.8136
34.059
31.7877
30.5471
29.9949
29.5836
29.4164
29.3133
29.2575
29.1455
29.1773
29.2255
29.2939
29.4056
29.5753
29.88
30.4627
32.4876
44.5717
118.359
412.72
159.796
77.2933
49.7891
38.7091
33.9379
31.6686
30.4301
29.8786
29.4677
29.3007
29.1976
29.1423
29.0393
29.0708
29.1194
29.1889
29.3019
29.4742
29.7872
30.4034
32.7221
45.8266
119.324
384.579
153.67
76.3091
49.6156
38.6253
33.83
31.5546
30.3139
29.7617
29.3508
29.184
29.0809
29.0261
28.933
28.9642
29.013
29.0835
29.1975
29.3726
29.6952
30.3539
33.003
46.9038
119.638
359.797
148.136
75.3788
49.4483
38.5546
33.7331
31.4456
30.1988
29.6449
29.2335
29.0666
28.9637
28.9095
28.8268
28.8576
28.9066
28.9778
29.0927
29.2707
29.6048
30.3167
33.3088
47.8264
119.44
337.817
143.096
74.4927
49.2846
38.4921
33.6453
31.341
30.0851
29.5283
29.116
28.949
28.8462
28.7925
28.7209
28.7511
28.8003
28.8722
28.988
29.1692
29.5168
30.2933
33.6213
48.6149
118.843
318.194
138.471
73.6426
49.1228
38.4344
33.5647
31.2406
29.973
29.4123
28.9987
28.8314
28.7287
28.6755
28.6152
28.645
28.6942
28.7669
28.8834
29.0682
29.4321
30.2834
33.9284
49.2863
117.943
300.562
134.2
72.8217
48.9611
38.3793
33.4898
31.1438
29.8626
29.2971
28.8817
28.714
28.6114
28.5587
28.5101
28.5394
28.5886
28.6619
28.7793
28.968
29.3512
30.2859
34.2233
49.8555
116.817
284.627
130.232
72.0245
48.798
38.3253
33.4193
31.0504
29.7539
29.1829
28.7652
28.5969
28.4943
28.4421
28.4055
28.4343
28.4834
28.5574
28.6757
28.869
29.2746
30.2991
34.5023
50.3353
115.526
270.146
126.526
71.2461
48.6322
38.2709
33.3522
30.9598
29.647
29.0697
28.6493
28.4804
28.3778
28.3259
28.3014
28.3298
28.379
28.4536
28.5728
28.7714
29.2028
30.3208
34.764
50.7375
114.122
256.92
123.05
70.4827
48.4625
38.2153
33.2875
30.8718
29.5418
28.9576
28.5342
28.3645
28.2617
28.2102
28.198
28.226
28.2751
28.3505
28.4708
28.6754
29.1358
30.3493
35.0082
51.0723
112.645
244.786
119.774
69.7311
48.2877
38.1576
33.2244
30.7861
29.4382
28.8467
28.4199
28.2492
28.1463
28.0951
28.0957
28.1233
28.1724
28.2485
28.3696
28.5812
29.0736
30.3829
35.2353
51.3491
111.129
233.606
116.675
68.9886
48.1072
38.097
33.1623
30.7023
29.3363
28.737
28.3068
28.1352
28.0321
27.9811
27.9984
28.0256
28.0748
28.1514
28.2701
28.4895
29.0164
30.4203
35.4461
51.5766
109.6
223.264
113.733
68.2529
47.9199
38.0329
33.1007
30.6202
29.2366
28.6292
28.2
28.0275
27.9242
27.8733
51.6779
133.672
73.5256
58.8369
172.266
141.228
68.0411
170.755
173.676
81.2884
155.717
169.271
96.1595
1245
1053.12
138.753
153.541
151.662
696.039
1197.32
523.318
134.345
136.031
44.3088
42.5136
66.282
40.2399
508.325
160.237
110.605
51.0642
43.2167
35.6306
51.0924
46.6155
1317.53
1042.72
139.169
59.7951
53.5963
36.3156
57.1946
51.7764
63.0004
212.472
181.722
859.939
1119.77
142.038
64.6188
61.3513
37.3022
65.8703
58.1093
74.0381
350.893
260.592
537.563
674.131
38.5956
78.0321
67.2172
86.6828
612.839
461.811
2239.26
326.314
405.986
40.9386
109.622
79.9914
110.092
1250.29
887.662
435.736
528.269
666.797
121.889
162.69
79.3961
117.493
1027.77
542.698
108.047
403.139
806.727
177.973
153.278
56.1202
211.202
235.772
168.54
206.039
1131.26
1314.21
156.657
1026.19
916.251
825.055
1027.44
155.042
254.787
217.676
64.1812
296.197
354.913
238.709
291.447
696.187
840.299
174.226
657.815
543.612
906.795
674.19
174.753
456.01
355.652
75.7182
450.303
598.731
358.941
445.293
418.529
520.69
880.177
624.326
87.3237
2615.29
849.901
1205.39
604.296
836.872
2761.15
301.415
317.404
2126.66
7834.45
1253.29
112.157
870.685
1732.27
6925.68
1207.93
1696.22
906.103
35.0025
46.1608
41.8064
48.8373
95.4607
69.7785
1760.84
663.653
55.1234
149.792
125.579
3306.49
132.786
66.3222
65.2867
3509.48
897.058
988.32
733.298
267.329
291.543
121.515
98.2512
49.6468
1243
174.952
477.121
130.104
363.687
99.182
1028.82
1415.66
161.974
422.394
345.511
528.685
434.379
163.937
1756.62
3271.02
1085.03
62.2735
52.5875
74.1344
130.443
63.8769
64.2032
1886.07
343.834
1665.22
463.36
1497.64
290.825
1118.03
1106.02
984.163
1000.61
2146.53
3099.63
591.465
2284.74
1645.06
3333.63
2416.46
610.731
508.486
168.692
179.865
739.491
852.948
3315.61
938.381
245.517
266.412
220.763
238.7
924.178
1036.72
1223.34
135.428
795.88
693.224
1177.06
801.676
141.369
97.3356
317.885
135.779
607.253
357.18
102.876
539.669
864.685
814.59
785.727
217.316
1491.43
218.264
185.144
1357.39
1204.52
1478.69
1376.21
190.475
1197.12
1206.13
975.993
338.374
332.493
338.239
339.147
969.593
910.41
305.341
278.457
329.006
312.637
921.66
324.227
328.034
260.053
263.168
714.164
3369.68
728.451
490.379
501.819
404.52
410.419
1576.07
1162.15
473.761
1481.12
2051.89
680.811
200.469
215.361
183.771
196.043
672.212
1845.43
881.508
888.701
642.408
648.907
3693.38
1505.09
622.741
707.093
273.259
327.28
2797.36
4892.61
1833.36
2525.83
1226.37
4228.31
2653.03
3975.14
1240.05
1033.54
3100.52
2182.56
1884.4
2140.91
2455.46
44.5458
165.19
116.383
261.197
3843.25
7230.82
352.059
123.85
131.347
1035.12
2582.63
3022.8
533.519
598.214
1434.94
244.302
260.537
706.642
124.119
86.9706
155.161
455.339
118.076
133.536
1277.66
2074.01
2219.35
1074.52
920.375
2085.03
1811.25
2984.03
2991.12
1076.18
311.027
125.888
132.458
117.746
123.783
302.279
155.77
165.261
502.159
1206.56
503.202
533.399
6024.25
3010.48
627.094
945.364
1915.3
2030.38
569.123
219.095
178.815
267.862
232.071
603.222
1162.05
2812.33
2959.57
1274.22
238.426
110.354
115.833
755.527
744.898
343.306
1751.03
1623.03
789.399
607.565
300.35
313.139
822.307
330.427
336.933
317.107
327.52
809.931
397.389
144.562
152.83
134.745
141.981
390.236
465.435
1095.83
1085.71
1600.44
1532.05
574.211
374.745
808.956
760.148
1082.93
1078.67
430.44
459.141
1115.64
825.3
3872.89
2249.51
865.861
1102.09
620.205
1671.14
1619.71
1827.16
721.749
3329.74
8933.46
463.107
646.555
542.417
571.838
1271.81
2081.99
1516.61
782.654
1824.63
5593.53
1889.98
1788.5
14258.6
1207.74
1609.68
1447.45
1669.84
1294.83
3466.38
3446.85
1756
2036.93
3691.6
1306.09
1333.49
272.653
1092.71
430.476
1173.33
317.262
2993.54
2532.69
1240.89
3211.76
3539.31
3257.29
2740.66
1489.68
3358.73
3843.12
2721.38
3199.25
4001.45
2207.82
2578.63
1827.08
2101.41
3803
1918.58
1073.37
802.514
1391.13
1152.36
711.082
452.15
1139.88
2439.47
2668.47
1230.43
1082.82
2264.84
2387.96
2283.76
2154.88
936.854
3173.01
3019.03
2608.26
3140.24
2918.08
1057.37
2828.96
2338.38
2510.59
2646.18
1979.29
920.102
1026.59
2854.76
1224.54
1365.77
1070.48
1182.84
2739.86
2806.85
1450.03
1671.98
457.227
492.18
1139.51
904.481
426.933
448.767
1121.82
1150.68
785.079
274.873
302.575
228.887
264.257
780.719
939.273
351.647
399.976
310.183
336.984
858.81
500.475
190.071
217.849
731.717
748.255
1565.62
1695.98
907.511
2128.36
1950.78
2263.14
1553.01
1461.31
1908.06
1624.57
683.014
1344.07
1550.85
1533
521.13
629.583
483.228
504.239
1520.13
673.209
680.897
651.334
670.588
1301.8
431.144
444.372
409.278
426.495
1278.2
1435.1
465.71
478.673
448.722
461.515
1424.38
2591
2761.53
1171.37
1252.53
2442.28
2520.49
1022.97
1023.93
1015.88
1023.14
1035.39
1046.95
1024.95
1031.94
693.901
703.632
683.299
691.031
760.439
990.299
707.46
732.122
1651.28
1847.44
1414.45
1583.19
3407.07
2326.59
2506.99
1923.28
2243.45
1124.43
1098.96
470.594
1712.06
1743.87
1651.12
1700.76
1757.56
558.793
1512.23
1164.37
1071.66
873.489
382.522
1213.27
1470.93
1051.66
1112.95
1577.02
1632.94
1493.48
1557.57
425.557
1078.58
1078.78
3583.12
1697.08
3539.62
3193.29
3540.51
1776.36
3909.54
2140.05
3838.39
3488.58
869.453
994.815
1735.47
1687.46
625.554
688.047
1805.28
1753.13
3532.42
1304.94
586.03
798.737
4875.28
5226.87
1894.21
4993.71
4132.48
2201.73
1210.03
4383.2
3101.28
5082.12
3282.25
1594.83
60.0281
40.8968
35.8333
3655.64
3633.02
120.232
66.0967
66.4084
3651.1
1414.39
2606.17
2234.47
336.067
268.99
147.034
275.002
176.05
463.754
1642.78
280.041
305.859
50.6214
60.194
110.832
422.114
890.865
1103.31
198.024
97.3058
101.961
91.4886
95.8129
193.771
1178.91
1366.2
2648.3
788.219
690.511
371.754
399.895
420.117
900.018
1167.82
1284.75
646.919
103.575
108.607
233.138
308.805
722.244
702.935
680.638
568.67
277.203
797.637
370.361
392.954
3196.14
3045.77
2486.84
1622.15
1593.09
1196.42
2926.99
3560.67
3381.34
1835.59
1011.46
1128.02
1754.68
1207.56
1675.32
1652.82
1671.69
1708.13
3451.25
2783.21
2941.83
3625.14
1960.26
1707.03
893.063
1269.28
165.441
127.417
253.775
1176.16
2396.3
2058.11
4003.35
4084.98
4160.92
3686.02
3897.68
83.4399
107.84
325.654
1721.53
1437.31
1343.15
2005.05
1859.46
2249.28
2945.4
2815.09
3464.69
3414.52
2903.75
815.273
890.018
1889.83
3227.5
2359.96
2480.12
3120.36
2485.67
2627.1
1060.6
1320.21
1202.08
791.908
558.084
562.933
1147.88
810.446
834.99
568.689
576.694
811.286
161.645
182.666
479.627
635.406
988.663
809.494
1213.33
1173.73
794.873
1652.78
1301.69
1318.3
917.044
924.134
1503.82
1478.44
1499.13
1341.73
1367.21
1336.39
859.61
864.43
843.006
845.652
1229.74
1464.83
903.821
910.403
869.731
875.426
1394.88
731.217
724.7
312.706
339.49
741.715
733.502
525.682
513.347
250.79
1576.67
1585.59
1512.41
1524.76
1729.69
1594.2
1602.87
273.262
551.346
530.102
3352.19
3332.48
2580.7
2672.03
3375.45
3295.2
3318.35
773.321
1574.68
1410.55
344.115
362.917
748.752
652.695
324.888
338.927
1185.66
1183.15
876.739
902.072
1203.38
1190.82
3678.67
1750.72
1194.52
1708.42
14116.2
2832.88
2080.78
3903.79
3455.37
1803.61
1785.63
1219.26
4354.71
4588.39
4520.43
3705.92
1277.59
1840.81
1820.15
2652.34
1497.79
1723.84
3515.96
3637.95
3079.58
2953.86
2346.71
1242.92
1576.67
1389.31
2725.48
3428.48
3252.2
3558.09
3517.93
2871.88
177.469
250.158
1259.29
2257.6
2215.66
2337.63
2302.82
2121.46
1612.59
1609.4
1621.14
1615.77
2160.96
3045.25
1879.28
1894.5
1814.13
1855.24
3064.87
1937.16
1561.67
1494.49
1605.06
1593.55
1983.55
2841.3
1921.84
1931.9
1906.84
1915.74
2912.94
2421.14
2374.45
2332.3
2399.51
1092.9
792.546
795.877
1577.64
1133.1
1132.74
1124.54
1132.06
1554.53
3714.61
3757.5
3424.13
3610.34
1649.82
1676.36
1598.69
1623.8
1909.41
1168.08
1569.46
1553.63
1654.94
1131.7
1132.54
1131.92
1131.52
1637.85
1555.1
1575.39
1312.53
1541.38
1910.72
3740.5
3662.91
3110.29
3793.36
1685.97
2200.18
11644.6
1259.74
948.706
959.689
1776.84
5660.4
5616.47
9012.36
5337.06
4860.66
1715.52
1696.1
1206.93
1645.23
1731.65
1860.2
1645.63
1849.65
1628.05
1291.68
1888.52
1733.11
3494.1
3476.59
3660.79
3104.56
3309.71
1287.77
1431.39
1012.04
534.186
656.469
1038.26
1088.38
773.636
991.891
1278.03
3397.25
3597.71
3497.48
3555.02
4011.24
3981.15
3745.88
2876.56
3619.79
3380.45
3944.57
3840.64
3040.08
3263.82
3454.88
4096.4
3599.83
2937.98
3089.9
1683.83
1516.52
1770.33
1287.85
1559.11
1735.65
1795.65
1737.4
2478.89
1725.15
1671.74
2173.4
1863.56
2533.89
2303.47
1632.23
1626.59
1650.21
1639.86
2350.12
2243.57
1538.81
1562.31
3138.98
3092.48
2792.6
3153.75
3163.65
2996.36
2902.04
2951.03
2621.27
1687.7
1753.98
1590.58
1630.77
2435.54
3322.41
3129.9
2372.47
3537.65
3520.62
3509.5
2769.14
3443.81
3435.52
2125.56
2235.15
3035.24
1090.77
1178.56
667.81
755.604
1126.03
825.979
589.544
614.696
1060.25
1020.58
700.049
1143.14
1259.06
764.809
1140.91
1102.64
1577.94
1296.95
1275.02
1389.4
1329.01
1611.11
2067.96
1988.39
1523.09
1891.8
1940.38
1774.74
1828.88
1499.72
1866.69
1990.91
2142.41
1828.82
987.303
1085.11
1558.68
1511.87
932.532
947.976
1436.13
1457.31
1391.18
1414.11
853.025
856.169
1320.39
1253.89
847.505
849.931
891.312
897.284
1449.49
1412.21
881.153
886.254
2651.25
1958.7
1970.91
1940.22
1947.35
2687.11
2442.33
2077.16
2196.72
1988.86
2018.94
2486.35
1023.11
1515.03
1495.61
1545.48
1530.74
1023.32
1022.53
1428.34
1407.22
1474.52
1452.3
1023.42
1039.19
1631.56
1617.24
1654.08
1644.27
1043.08
1026.48
1572.44
1559.33
1602.76
1587.84
1028.92
1557.48
1567.35
696.957
983.817
980.795
990.536
987.057
700.188
1536.32
1547.2
1629.58
1648.49
823.613
1156.72
1058.84
1387.89
1374.47
927.647
712.157
999.164
994.425
1020.44
1006.1
719.121
1610.99
1619.34
3154.53
3299.29
3366.08
2785.11
2964.55
2388.06
3314.2
3348.16
3219.37
3275.29
2442.74
2021.54
2929.91
2732.83
3301.04
3145.43
2135.57
1109.79
810.931
824.247
799.475
803.981
1103.08
1722.74
1733.03
1669.63
1688.76
1779.4
1869.06
1496.91
1029.91
1096.91
853.602
919.608
1266.7
1436.99
1799.77
1715.77
1450.85
1058.81
1674.21
1664.17
1696.35
1684.65
1073.59
1595.96
1614.65
1515.85
1537.2
3506.98
2734.43
2859.75
2451.19
2595.34
3393.42
3378.4
3500.18
2993.64
3181.55
3569.4
3811.12
3078.07
3233.35
2764.64
2923.34
3703.07
1731.2
1747.3
1695.86
1714.13
1334.32
1239.42
930.907
1794.24
1818.55
1762.71
1777.88
1718.93
1139.28
1143.22
1134.11
1136.35
1703.34
1791.15
1172.61
1211.4
1148.61
1156.83
1771.58
3646.73
981.368
1035.75
1410.95
4653.33
7519.33
7608.02
6498.15
6827.67
4937.26
2100.64
4692.48
3638.95
3856.44
1213.81
1760.53
1737.31
4383.22
4664.17
4751.19
4092.36
4386.32
5123.21
4790.65
3485.52
4406.75
4147.55
1954.38
1871.43
1374.91
31.7552
31.7647
31.8509
31.7689
31.7852
31.8611
31.792
31.8163
31.8772
31.8254
31.8534
31.8972
31.8622
31.8838
31.915
31.8887
31.8944
31.922
31.8931
31.8806
31.9151
31.8742
31.8504
31.8984
31.8416
31.8159
31.8796
31.8079
31.7872
31.8641
31.6403
31.6605
31.7372
31.6694
31.7041
31.7622
31.7184
31.768
31.7998
31.7862
31.8435
31.8439
31.8616
31.9056
31.8798
31.915
31.9231
31.8919
31.9192
31.8904
31.8751
31.8766
31.8281
31.8393
31.811
31.7613
31.7985
31.7457
31.7036
31.764
31.5354
31.5759
31.6373
31.5937
31.6609
31.6893
31.689
31.796
31.7652
31.8387
31.9801
31.8578
32.0272
32.1419
31.9343
32.1643
32.169
31.9539
32.1516
32.0621
31.9115
32.025
31.9078
31.835
31.8685
31.7618
31.7547
31.7311
31.6544
31.6874
31.446
31.5162
31.5581
31.5462
31.6741
31.658
31.7343
31.9882
31.8243
32.1025
32.5501
32.0621
32.7287
33.2189
32.2815
33.3097
33.2317
32.3108
33.1148
32.7024
32.157
32.569
32.2158
31.9559
32.1173
31.8749
31.7769
31.8098
31.655
31.6487
31.3744
31.4834
31.5057
31.5341
31.7745
31.6906
31.896
32.4851
32.0771
32.8033
34.5573
32.8447
35.5876
40.101
33.8911
40.5925
38.7092
33.8617
37.5249
34.8048
33.0243
34.2116
33.0226
32.3568
32.7546
32.1773
31.9292
32.0387
31.732
31.6661
31.3166
31.4734
31.479
31.5541
31.9494
31.8131
32.1594
33.298
32.6681
34.0112
40.8486
35.5649
39.1693
45.0677
38.3172
58.8611
55.8943
42.9021
44.774
41.085
38.4251
38.4737
34.6948
33.3484
34.0181
32.7404
32.2918
32.4674
31.9037
31.7658
31.2672
31.4777
31.4735
31.5904
32.1358
31.9978
32.4248
34.0006
33.5026
34.5771
35.9312
35.5373
46.8288
52.6557
50.7779
85.1427
58.7354
50.5936
45.4254
37.227
35.2665
35.8986
33.556
32.9248
33.0884
32.1653
31.962
31.2228
31.486
31.4797
31.6275
32.2905
32.1777
32.6334
34.4663
34.1316
35.3327
36.9925
36.7761
53.1488
62.7416
61.2474
128.921
79.7964
72.8191
51.7887
39.8672
37.9134
37.907
34.4689
33.7831
33.7921
32.4758
32.2405
31.1817
31.495
31.4881
31.6622
32.4241
32.3249
32.8113
34.9046
34.5708
35.9459
37.9752
37.6893
60.7996
81.8008
78.4931
142.934
89.6357
87.4058
55.8104
41.953
40.4536
39.5679
35.2973
34.6893
34.445
32.7817
32.5546
31.1446
31.507
31.4976
31.6986
32.5609
32.4571
32.9978
35.4767
35.0304
36.7629
39.4947
39.0584
70.9042
102.521
98.093
138.288
89.9051
90.4756
57.6335
43.2745
42.3574
40.6836
35.9242
35.4758
34.9537
33.0367
32.8514
31.1113
31.524
31.5108
31.7403
32.7183
32.5979
33.2206
36.2661
35.6534
37.929
42.6815
41.0164
85.5127
132.813
125.992
126.343
93.8989
94.6533
57.9092
43.8904
43.489
41.261
36.3106
36.0433
35.279
33.2128
33.0885
31.0929
31.5698
31.529
31.8173
32.9657
32.7617
33.5821
37.68
36.5005
39.3954
47.0593
45.4235
102.643
184.1
171.76
863.486
458.486
514.709
106.762
64.873
65.8516
57.3243
43.9891
43.9549
41.4134
36.479
36.371
35.4309
33.3025
33.2428
31.0634
31.5932
31.5765
31.8652
33.1735
33.0177
33.9083
39.3397
38.0218
42.4351
51.2441
51.9967
192.857
536.62
408.415
447.61
218.933
238.107
100.355
63.0609
64.508
56.1661
43.7336
43.9585
41.2747
36.4803
36.4938
35.4467
33.3165
33.3122
31.0293
31.6104
31.5983
31.9076
33.3937
33.2265
34.2885
42.227
39.9161
51.0889
324.699
211.273
867.719
518.739
610.962
302.929
115.814
121.618
94.9894
61.2842
62.6065
54.9575
43.3211
43.6326
40.9747
36.3606
36.4566
35.3548
33.2599
33.3068
30.9883
31.6167
31.6131
31.9404
33.6577
33.4559
34.7884
46.3253
43.141
60.3537
412.744
353.075
853.168
434.653
494.405
269.009
109.952
114.154
90.8046
59.7053
60.8643
53.8237
42.8787
43.214
40.6414
36.1991
36.3235
35.2215
33.1684
33.2391
30.9393
31.6122
31.6165
31.9644
33.9734
33.7308
35.4145
51.5197
47.5273
71.8928
451.342
425.977
788.946
376.476
418.205
243.948
105.885
108.796
87.7094
58.3846
59.3521
52.8454
42.446
42.768
40.2989
36.0099
36.1534
35.0598
33.0523
33.1413
30.8829
31.6007
31.6098
31.986
34.3621
34.0632
36.188
57.7222
52.9698
84.0744
461.687
455.984
716.353
333.879
364.638
224.596
102.772
105.05
85.5457
57.2963
58.0911
52.0154
42.0486
42.3429
39.9751
35.8132
35.9608
34.8869
32.9222
33.0207
30.8206
31.587
31.5973
32.012
34.8343
34.4721
37.112
64.5311
59.4102
94.6333
456.214
461.442
648.406
301.332
324.953
209.116
100.067
102.066
83.8591
56.4579
57.0617
51.334
41.692
41.9556
39.6779
35.6196
35.7642
34.7131
32.786
32.8885
30.7541
31.5755
31.5837
32.0486
35.3959
34.966
38.2
70.7801
66.1923
102.607
442.358
453.325
588.478
275.615
294.355
196.381
97.6429
99.4364
82.3715
55.8748
56.2902
50.8267
41.3791
41.6094
39.4102
35.4343
35.5724
34.5438
32.6484
32.7516
30.6851
31.5701
31.5734
32.1003
36.0695
35.552
39.5203
75.7502
72.145
108.552
424.441
438.138
536.676
254.735
270.001
185.666
95.4609
97.076
81.0137
55.4609
55.7598
50.4789
41.1202
41.3088
39.1781
35.2601
35.3896
34.3818
32.5119
32.6141
30.6151
31.5747
31.5701
32.173
36.9129
36.2621
41.0948
79.6001
76.8055
112.915
404.935
419.646
492.109
237.402
250.11
176.482
93.4857
94.9491
79.7671
55.1242
55.372
50.2273
40.9229
41.0652
38.9895
35.1005
35.2186
34.2302
32.3786
32.4782
30.5455
31.5958
31.578
32.2795
37.9303
37.1539
42.7299
82.5849
80.4199
115.986
385.219
399.988
453.677
222.743
233.514
168.487
91.6835
93.0202
78.6171
54.8213
55.0462
50.0203
40.7789
40.8825
38.8442
34.9587
35.0633
34.0914
32.2502
32.346
30.4786
31.6445
31.6049
32.4383
39.0072
38.1995
44.2277
84.8653
83.2161
117.998
366.043
380.354
420.358
210.148
219.419
161.435
90.0247
91.2564
77.5491
54.5376
54.7489
49.8338
40.671
40.7492
38.7329
34.8354
34.9262
33.9669
32.1279
32.219
30.4174
31.7319
31.6625
32.6583
40.0305
39.2709
45.5306
86.5584
85.3396
119.15
347.786
361.382
391.274
199.182
207.268
155.141
88.4845
89.6294
76.5497
54.2674
54.4689
49.6583
40.5849
40.6479
38.6448
34.7285
34.8072
33.8558
32.0122
32.0984
30.3652
31.8609
31.7604
32.9296
40.955
40.2715
46.6499
87.7609
86.9016
119.612
330.619
343.389
365.709
189.523
196.655
149.47
87.0425
88.1155
75.6069
54.0075
54.2015
49.4897
40.5112
40.5656
38.5714
34.6352
34.7041
33.7564
31.903
31.9844
30.3247
32.0248
31.899
33.2311
41.7751
41.1696
47.6091
88.5555
87.9948
119.531
314.59
326.505
343.075
180.931
187.284
144.314
85.6822
86.6954
74.7106
53.7552
53.9438
49.3253
40.4447
40.4941
38.5072
34.5523
34.6136
33.6665
31.7996
31.8766
30.2978
32.2121
32.0699
33.5433
42.4978
41.9645
48.4294
89.0139
88.6991
119.024
299.679
310.759
322.9
173.219
178.926
139.592
84.3899
85.3532
73.8522
53.508
53.693
49.1632
40.3819
40.4287
38.4485
34.4774
34.5329
33.5843
31.7014
31.7746
30.2846
32.4117
32.2612
33.8526
43.1326
42.6643
49.1286
89.1979
89.0835
118.192
285.833
296.12
304.801
166.243
171.411
135.238
83.1545
84.076
73.0246
53.2636
53.4467
49.0016
40.3208
40.3666
38.3929
34.4085
34.4597
33.5081
31.6078
31.6776
30.2842
32.6152
32.4625
34.1509
43.6888
43.2787
49.7221
89.1601
89.2073
117.116
272.98
282.53
288.465
159.887
164.599
131.198
81.9668
82.8534
72.2218
53.0201
53.2028
48.839
40.2597
40.3056
38.3388
34.3441
34.3921
33.4366
31.518
31.585
30.2949
32.8167
32.6659
34.4341
44.175
43.8166
50.2231
88.9455
89.1214
115.861
261.045
269.914
273.641
154.061
158.384
127.43
80.8196
81.6765
71.4391
52.7757
52.9592
48.674
40.1973
40.2442
38.2846
34.2827
34.3285
33.3687
31.4316
31.4961
30.3147
33.0125
32.8663
34.7003
44.5991
44.2865
50.6436
88.5922
88.8689
114.481
249.949
258.195
260.118
148.689
152.678
123.899
79.7063
80.5383
70.6723
52.5288
52.7143
48.5053
40.1328
40.1815
38.2294
34.2234
34.2677
33.3035
31.3481
31.4105
30.3416
33.2006
33.0603
34.9488
44.9682
44.6963
50.9943
88.1321
88.486
113.019
239.62
247.298
247.726
143.711
147.41
120.575
78.622
79.4327
69.9181
52.2781
52.4666
48.3319
40.0652
40.1162
38.1723
34.1653
34.2088
33.2401
31.2671
31.3276
30.3741
33.3797
33.2462
35.1801
45.2891
45.0527
51.2849
87.5922
88.0036
111.51
229.989
237.149
236.318
139.073
142.521
117.434
77.5621
78.3549
69.1735
52.0225
52.2147
48.1529
39.9938
40.0477
38.1124
34.1077
34.1509
33.1778
31.188
31.2471
30.4106
33.5495
33.423
35.3949
45.5679
45.3626
51.524
86.9952
87.4475
109.982
220.994
227.683
225.776
134.736
137.963
114.455
76.5231
77.3005
68.4362
51.7608
51.9577
47.9674
39.9179
39.9752
38.0493
34.0499
34.0933
33.1161
31.1107
31.1685
30.4481
33.7031
33.5905
35.5861
45.8028
45.6317
51.7145
86.3701
86.8394
108.474
212.603
218.838
216.027
130.701
133.694
111.656
75.5251
76.2662
67.7235
51.5023
51.6944
47.7824
39.8409
39.8982
37.9857
33.9944
34.0353
33.0578
31.0389
31.0916
60.0937
59.0891
51.0303
125.498
183.648
210.418
82.895
94.6342
81.9684
77.3949
73.845
57.9461
170.251
267.982
268.756
218.441
239.094
148.103
96.6853
92.6372
66.6996
172.184
243.113
234.152
268.272
264.923
174.529
123.865
117.866
79.3364
157.841
191.267
187.77
213.184
209.71
167.607
167.999
157.594
91.8517
1293.25
1582.14
1510.35
822.242
861.991
1113.05
144.899
260.656
238.927
184.26
180.885
151.37
377.727
312.949
139.392
757.492
1448.59
1416.51
2123.41
1825.55
1204.09
390.592
405.658
621.367
127.788
212.212
200.455
232.706
216.727
129.54
65.9096
48.4241
40.2962
1508.12
1055.47
1969.59
39.8888
47.9435
56.972
1722.55
1720.51
60.089
65.7108
73.453
42.0056
53.4809
47.186
475.374
582.608
637.417
206.034
263.571
198.976
70.1957
61.609
91.8584
48.4177
55.0811
58.888
47.5745
51.2365
45.7605
37.4359
37.2073
35.4822
49.004
39.3484
39.951
38.7364
39.1834
48.2956
1315.55
1727.49
1726.11
1296.86
1303.88
1054.83
86.3064
81.7101
132.15
57.9926
68.5351
70.9323
62.4827
65.7265
55.926
38.6593
38.2981
36.1222
54.6827
41.2907
42.2686
40.184
40.9939
53.9206
86.4062
82.9253
61.8729
207.296
155.406
158.614
138.336
140.98
185.617
880.842
1082.43
1056.9
1411.54
1396.87
1107.19
90.5202
90.05
143.075
63.7509
75.8257
76.759
72.9374
74.5636
62.6689
40.4799
39.9681
37.0204
62.2185
44.1316
45.432
42.614
43.7345
61.1173
108.925
104.066
72.4345
335.954
214.711
218.841
190.442
194.57
267.143
554.857
706.424
680.465
1058.74
965.146
652.475
44.8951
43.2803
38.2514
73.0428
47.7287
49.566
45.8994
47.2038
71.6041
142.9
135.249
87.7127
554.041
314.66
310.082
268.451
275.085
478.866
1816.49
1912.35
2363.07
358.05
662.101
586.747
495.068
478.841
394.143
51.2394
47.6768
40.0438
89.6761
53.2821
58.434
50.2396
52.4351
86.8767
203.451
188.649
104.394
1247.38
920.361
929.005
659.261
667.172
892.295
2695.6
3486.63
302.372
600.756
2702.35
2070.95
1354.35
1192.79
689.468
126.068
193.604
165.12
293.928
266.9
155.944
85.1202
100.205
91.1021
153.471
144.95
112.81
1007.86
1269.64
1286.85
688.696
735.254
577.507
144.181
174.066
116.886
444.597
325.924
298.553
466.939
445.281
730.149
167.626
86.1253
90.0981
82.0845
84.9334
164.292
57.0771
72.4
67.2268
216.656
388.483
372.599
493.706
481.539
227.21
174.197
317.183
300.888
368.483
356.36
200.9
1142.03
1435.59
1424.16
1719.81
1706.41
1306.69
261.076
266.957
160.657
1009.54
563.661
564.372
586.892
592.153
941.723
868.276
505.556
487.037
564.268
564.86
1001.81
149.825
244.792
258.038
249.242
182.773
186.541
161.879
165.184
222.795
65.4134
91.3441
87.6062
300.644
382.317
375.88
445.735
441.264
350.993
247.756
509.366
497.624
368.154
359.432
286.478
718.502
1203.05
1092.14
1033.03
1010.69
822.631
254.287
246.037
173.348
641.203
495.183
505.663
282.131
295.885
590.866
873.989
573.169
580.557
516.011
526.208
761.552
174.882
263.202
256.819
435.584
255.756
262.035
223.2
227.766
369.682
77.4822
115.974
110.621
455.334
591.953
587.355
815.619
811.836
592.522
363.346
455.988
450.488
582.815
578.339
440.31
431.491
529.999
512.141
655.308
632.105
504.521
866.494
636.854
649.692
311.479
320.787
646.465
90.5577
154.417
145.614
856.982
1179.24
1177.5
609.633
821.174
818.49
1169.48
1141.28
811.363
311.876
487.414
439.193
564.458
505.554
295.805
2023.54
1645.91
1728.05
11096.9
2308.74
3523
935.654
941.677
1255.56
125.313
246.271
208.666
1083.84
1038.97
838.758
4817.49
4861.26
8821.22
944.271
1188.18
1133.56
36.54
36.2643
34.806
44.7161
38.094
38.5934
37.1546
37.8948
44.1297
55.8145
54.3619
47.9066
86.0472
62.5672
65.2994
58.9149
61.547
82.3169
940.304
1235.84
896.555
65.8626
64.3635
54.0957
139.453
77.518
80.9527
72.3367
76.3378
136.007
95.2596
89.5779
137.07
66.1159
77.9802
78.0173
77.4017
77.7988
65.7768
944.152
1625.72
1403.35
1240.33
1187.73
954.419
407.257
442.583
826.486
274.722
351.826
339.957
425.233
364.873
282.825
109.468
68.9043
71.3352
66.0628
68.2113