/*--------------------------------*- C++ -*----------------------------------*\
| =========                 |                                                 |
| \\      /  F ield         | OpenFOAM: The Open Source CFD Toolbox           |
|  \\    /   O peration     | Version:  v1912                                 |
|   \\  /    A nd           | Website:  www.openfoam.com                      |
|    \\/     M anipulation  |                                                 |
\*---------------------------------------------------------------------------*/
FoamFile
{
    version     2.0;
    format      ascii;
    class       volScalarField;
    location    "900";
    object      p;
}
// * * * * * * * * * * * * * * * * * * * * * * * * * * * * * * * * * * * * * //

dimensions      [0 2 -2 0 0 0 0];


internalField   nonuniform List<scalar> 
12556
(
658.472
657.677
655.714
651.612
646.114
633.86
613.968
582.249
534.341
465.226
370.972
251.186
111.425
-36.6748
-179.051
-304.379
-406.926
-486.19
-544.507
-585.641
-619.807
-635.781
-644.98
-649.305
658.949
658.431
657.072
654.017
648.523
638.058
620.328
593.984
550.71
486.499
396.114
277.376
134.691
-19.5078
-168.737
-299.596
-405.639
-486.694
-553.704
-592.382
-625.959
-640.111
-648.132
-651.878
660.166
660.279
660.265
659.454
655.544
649.238
637.172
615.304
579.676
522.413
434.76
309.78
149.728
-27.0131
-194.679
-334.358
-440.729
-517.09
-579.504
-611.644
-640.355
-650.549
-656.071
-658.616
661.58
662.58
664.429
666.729
665.61
665.38
661.789
648.543
626.49
583.844
505.639
373.392
180.203
-43.4771
-245.571
-397.962
-502.069
-569.095
-619.511
-640.842
-661.224
-665.698
-667.65
-668.472
662.232
664.238
668.188
674.08
676.829
684.133
691.695
691.599
690.169
674.453
623.587
493.273
237.556
-85.4724
-346.349
-510.104
-598.223
-642.196
-672.404
-678.226
-685.742
-682.964
-680.585
-679.318
661.149
664.158
670.205
679.738
687.033
702.302
721.849
737.828
764.427
792.956
805.876
727.797
353.777
-211.517
-553.899
-690.247
-731.208
-735.942
-734.408
-719.895
-710.772
-699.803
-692.675
-689.136
657.41
661.296
669.168
681.891
693.839
716.311
746.745
778.709
833.156
913.126
1037.92
1215.93
710.578
-662.372
-951.044
-951.79
-898.021
-841.629
-797.554
-760.384
-732.494
-713.408
-701.666
-695.934
650.186
654.712
663.894
678.899
694.947
722.693
760.818
804.954
877.812
988.714
1178.91
1587.42
-2055.23
-1569.92
-1261.93
-1068.5
-940.895
-851.177
-792.531
-746.603
-720.741
-705.207
-697.67
638.844
643.698
653.525
669.663
688.801
719.187
760.686
810.778
887.896
994.693
1136.73
1272.66
-3488.14
-2078.55
-1501.18
-1192.78
-1009.14
-882.975
-809.027
-749.249
-719.121
-701.239
-692.569
623.04
627.882
637.652
653.703
674.676
705.02
745.857
796.338
868.137
958.477
1058.65
1136.87
-3408.02
-2146.13
-1556.28
-1224.88
-1025.39
-883.888
-804.803
-737.973
-706.851
-688.446
-679.491
602.75
607.26
616.315
631.159
652.69
680.706
717.787
764.911
827.834
904.516
989.358
1068.56
-2633.49
-1854.37
-1426.83
-1157.88
-984.577
-851.709
-778.858
-712.479
-683.646
-666.541
-658.15
578.233
582.132
589.926
602.686
623.611
647.501
678.597
719.841
772.183
837.74
919.425
1020.67
-1758.05
-1407.96
-1186.18
-1019.42
-898.061
-791.914
-733.845
-674.513
-650.596
-636.252
-629.127
550.03
553.125
559.257
569.169
588.474
607.011
630.617
663.86
702.98
753.761
826.23
945.764
-775.006
-916.97
-957.841
-915.097
-849.523
-785.725
-714.444
-675.234
-627.351
-609.804
-599.102
-593.7
518.818
521.042
525.393
532.312
549.305
561.876
577.014
600.785
623.629
651.351
688.506
784.884
224.559
-390.031
-603.524
-673.838
-682.903
-667.455
-629.998
-609.426
-574.654
-563.876
-557.093
-553.582
485.42
486.688
489.092
492.75
506.821
512.958
519.205
532.525
537.515
536.906
520.115
456.217
179.606
-169.436
-381.032
-490.659
-540.304
-557.388
-547.023
-542.16
-519.947
-515.433
-512.309
-510.616
450.667
451.007
451.54
452.127
463.223
463.542
461.895
465.428
455.365
433.348
386.843
294.827
125.634
-88.0162
-254.899
-364.121
-428.105
-462.57
-470.624
-477.416
-465.945
-466.652
-466.638
-466.529
415.385
414.909
413.817
411.757
419.967
415.335
407.286
402.966
382.328
347.765
293.263
208.37
88.8904
-55.4688
-181.05
-276.099
-341.423
-383.278
-403.073
-417.609
-414.515
-419.219
-421.644
-422.763
380.328
379.177
376.76
372.571
378.211
369.783
357.142
347.303
320.806
281.822
228.288
155.494
64.8483
-40.2917
-136.573
-215.88
-276.1
-319.248
-344.958
-363.879
-366.805
-374.252
-378.445
-380.45
346.108
344.436
341.01
335.245
338.758
327.709
312.187
298.982
270.135
231.125
181.836
120.294
48.522
-32.0774
-107.83
-173.55
-226.84
-267.921
-295.685
-316.524
-323.333
-332.434
-337.755
-340.377
313.198
311.159
307.037
300.224
302.075
289.452
272.456
257.559
228.596
191.693
147.523
95.4474
37.0213
-26.9799
-87.9715
-142.648
-188.987
-226.556
-254.071
-275.178
-284.226
-294.107
-300.032
-302.989
281.934
279.67
275.133
267.734
268.358
255.009
237.594
222.184
194.4
160.519
121.41
77.1348
28.6728
-23.411
-73.4289
-119.229
-159.241
-192.859
-218.864
-239.213
-249.294
-259.323
-265.449
-268.533
252.531
250.162
245.445
237.834
237.611
224.179
207.081
191.935
166.02
135.451
101.02
63.1824
22.4658
-20.6562
-62.2516
-100.874
-135.34
-165.048
-188.929
-207.937
-218.216
-227.961
-234
-237.058
225.094
222.717
218.006
210.473
209.711
196.657
180.36
165.963
142.237
114.962
84.7453
52.2701
17.7621
-18.3713
-53.3164
-86.0656
-115.735
-141.79
-163.309
-180.685
-190.62
-199.803
-205.562
-208.489
199.642
197.33
192.765
185.523
184.467
172.101
156.903
143.537
122.103
97.954
71.5042
43.5509
14.1419
-16.3809
-45.9444
-73.8239
-99.3562
-122.086
-141.22
-156.859
-166.115
-174.578
-179.934
-182.663
176.129
173.936
169.618
162.813
161.65
150.169
136.234
124.05
104.892
83.6381
60.5519
36.459
11.3195
-14.5913
-39.7088
-63.497
-85.4525
-105.197
-122.033
-135.939
-144.329
-151.99
-156.876
-159.371
154.46
152.423
148.422
142.15
141.017
130.535
117.939
107.003
90.0366
71.4364
51.3583
30.6004
9.09454
-12.9502
-34.3286
-54.6354
-73.4836
-90.5623
-105.24
-117.48
-124.913
-131.748
-136.132
-138.374
134.509
132.653
129.012
123.33
122.331
112.903
101.664
91.9852
77.0949
60.9179
43.5383
25.6935
7.32289
-11.4267
-29.6121
-46.921
-63.0531
-77.7537
-90.4344
-101.107
-107.55
-113.567
-117.445
-119.43
116.127
114.465
111.209
106.147
105.359
96.9995
87.0989
78.6577
65.7143
51.7511
36.8032
21.5299
5.89839
-10.0013
-25.4219
-40.1201
-53.8607
-66.4356
-77.2803
-86.4954
-91.9524
-97.1801
-100.562
-102.294
99.1485
97.6885
94.8307
90.4
89.8782
82.5794
73.9786
66.7387
55.6128
43.6776
30.9332
17.9528
4.74152
-8.66046
-21.6569
-34.0563
-45.6745
-56.3419
-65.5006
-73.368
-77.8605
-82.3381
-85.2428
-86.7299
83.4064
82.151
79.6946
75.8947
75.6825
69.4209
62.0712
55.9893
46.5589
36.49
25.7554
14.8403
3.79145
-7.39378
-18.2384
-28.5917
-38.3098
-47.255
-54.8621
-61.4846
-65.0426
-68.8117
-71.2614
-72.5154
68.7204
67.67
65.6145
62.4394
62.576
57.3236
51.1741
46.2055
38.3604
30.0188
21.1316
12.096
3.00085
-6.19246
-15.1038
-23.6153
-31.6157
-38.9942
-45.1662
-50.6354
-53.2846
-56.3848
-58.4019
-59.4336
54.9421
54.0928
52.4328
49.8717
50.3807
46.1054
41.1079
37.2116
30.8552
24.1234
16.9486
9.64173
2.33228
-5.04857
-12.2014
-19.0356
-25.4668
-31.4071
-36.2411
-40.6355
-42.4083
-44.8764
-46.4835
-47.3059
41.8096
41.166
39.9027
37.9555
38.9094
35.5986
31.7118
28.8528
23.9029
18.6833
13.1102
7.41206
1.75542
-3.95425
-9.48684
-14.7745
-19.7555
-24.3612
-27.9348
-31.3175
-32.1853
-34.0447
-35.2556
-35.8723
29.4622
28.9988
28.1093
26.7439
28.0584
25.6534
22.8413
20.9934
17.3817
13.5929
9.53276
5.35046
1.24551
-2.90135
-6.9211
-10.7648
-14.3891
-17.7414
-20.1133
-22.5387
-22.6315
-23.925
-24.7699
-25.2096
16.6867
16.4715
16.0016
15.2798
17.4968
16.1118
14.356
13.5141
11.1834
8.7557
6.13791
3.40411
0.783359
-1.8799
-4.46833
-6.94638
-9.28563
-11.4449
-12.6443
-14.1453
-12.9296
-13.6231
-14.0743
-14.2802
7.53762
7.35067
7.12059
6.70366
7.6421
6.7414
6.01977
6.31754
5.21295
4.07357
2.8501
1.50113
0.365402
-0.874699
-2.09343
-3.26399
-4.37178
-5.38401
-5.3163
-5.97644
-5.71439
-6.0823
-6.28978
-6.46247
1304.84
-3699.99
-2146.21
1147.37
-3706.44
-3786.9
1075.26
-2862.61
-3626.24
1027.33
-1915.56
-2742.55
953.074
-831.303
-864.776
-1034.22
-1799.89
811.356
312.878
-787.195
177.662
-403.347
-938.341
1588.19
871.813
-1839.18
-488.499
-4613.2
-2476.8
-3402.42
-2193.36
-1675.57
1077.45
1139.55
1262.38
-5216.82
-5311.8
-3473.14
-2395.54
-2301.32
1006.07
1065.76
1128.34
1107.59
1131.3
1169.3
-3977.78
-4663.55
-2741.72
-2109.9
-2359.21
938.071
1013.16
1058.69
1050.79
1088.52
1098.14
-2685.01
-3238.79
853.19
940.962
1005.91
992.106
1055.64
1074.94
-1571.87
-1499.51
-2008.94
726.715
799.545
929.057
900.222
1000.89
1021.04
522.874
284.637
321.568
1549.26
1268.6
2180.06
1618.89
-5304.52
-4684.55
-3233.96
-4495.23
-5161.86
1172.79
1191.45
1185.66
1189.12
1176.49
1250.33
1192.05
-4703.01
-5197.09
-3794.9
-5077.19
-4618.34
-5170.61
-5095.77
-3814.19
1100.69
1126.06
1098.65
1129.33
1102.82
1174.48
1132.23
-3319.75
-3924.96
-3213.31
-3828.68
-3249.84
-4579.08
-3919.18
-3325.47
1076.53
1088.34
1045.22
1091.52
1080.62
1101.34
1091.39
-2082.89
-2607.91
1023.4
1054.11
986.538
-1535.19
1059.53
1027.97
1078.99
1061.21
-1570.04
-973.517
-1429.05
-1527.95
1035.35
1001.08
889.689
-62.5512
1007.89
921.141
1025.98
1007.29
-139.447
1155.36
1290.6
1501.93
1479.73
1610.56
2060.28
-5266.62
-2707.95
1202.58
1195.66
1264.27
-3205.72
-1865.81
-1608.21
-1995.45
-1941.52
-1878.34
-2139.53
-191.362
-480.317
-840.103
1282.96
1548.76
1431.75
1229.35
2977.82
2154.54
-2404.91
-4330.33
-3004.69
-2181.16
-2468.53
-2267.77
-2562.85
-2054.31
-3172.08
-2637.54
-2386.5
-1161.29
-342.644
-481.296
1423.6
1794.57
2200.42
-2081.31
-312.086
1233.84
-5402.33
-3932.01
-5292.32
-2649.33
-5113.69
-3609.67
-5278.51
-5287.69
-4306.99
-4353.64
-2848.97
-3144.87
-2918.48
-3122.17
-2823.51
-3491.92
-3167.56
-2997.75
1064.32
1036.65
1026.21
-1548.8
-1795.76
-1872.64
1007.09
968.053
953.062
986.635
972.743
1008.09
1428.61
1249.99
1387.81
1269.95
1469.56
1178.46
1251.23
1349.16
1969.16
2141.37
2832.19
1519.49
2039.32
1875.45
2036.66
1487.09
-5129.98
-5093.56
1182.83
1180.75
1182.27
1213.67
1164.91
1178.14
1177.26
1165.94
1206.18
-4943.63
-4973.75
-4882.22
-4330.65
-4424.15
-4142.55
-4289.71
-4851.91
-5171.29
-4469.91
-4408.12
-4445.01
-4473.87
-5162.45
1114.09
1112.13
1157.17
1153.74
-3568.21
-3523.4
-3614.31
1087.42
1086.34
1093.84
1093.24
-2778.83
-2488.48
-2380.65
-2508.9
-2800.52
1033.66
1004.69
991.085
1022.33
1009.37
1037
-1207.47
1041.06
1037.3
1069.09
1068.43
-1882.07
-1206.62
-1221.36
-1466.92
946.78
923.859
995.439
1009.48
471.688
157.569
1014.41
-336.77
110.91
-254.407
1014.1
-392.051
-282.107
78.8856
-2990.4
-2069.47
-2207.34
560.497
536.822
764.982
656.914
660.312
956.203
196.605
-123.361
-296.357
3958.86
-2238.62
-2387.86
-900.829
-1139.69
-1161.24
-140.803
-378.055
-118.681
2320.33
2551.18
3016.87
-2212.52
-67.582
1769.97
-5258.02
-5757.89
-5720.87
-5314.93
-4117.43
-4303.94
-4130.28
-4912.06
-4776.74
-4537.97
1091.19
1076.09
1070.03
1086.23
1078.39
1092.24
1048.92
1039.85
1065.32
1001.95
982.486
977.668
858.855
594.71
341.791
-5245.85
-5699.47
-5773.7
-4943.96
-4101.75
-3762.28
-4369.22
-4186.33
-4974.36
-4813.65
-5076.12
-4959.39
-5113.38
1109.38
1099.15
1089.21
1108.12
1110.07
1106.19
-4076.36
-3924.17
-3790.62
-3571.86
-3333.94
-3548.05
-4285.87
-3897.59
-4085.4
-3619.77
-3830.08
-4240.69
1082.95
1059.46
1051.81
1068.07
1061.83
1084.03
1091.23
1104.78
1101.21
1092.86
1103.69
1084.86
1097.68
1101.88
1106.88
1099.62
1096.83
1091.37
-2305.8
-2448.34
-2176.55
-1401.45
-1395.25
1053.85
1023.85
1073.61
1081.21
1092.06
1083.6
1064.01
-1699.52
913.899
912.835
875.63
975.775
968.002
998.059
124.262
373.063
133.725
1008.65
443.84
673.43
507.857
626.362
1015.26
1011.97
-4561.67
-3149.36
-4177.78
-3320.22
-3375.03
-1900.35
-2027.18
-2046.03
1203.77
1193.16
2683.85
2968.62
3631.21
2760.19
2552.59
-2540.53
-2391.84
-2343.8
-2400.1
-2559.39
-1178.36
-1012.59
-1018.78
-1020.05
-1183.21
-810.878
-969.296
-590.326
-606.427
-761.89
-400.393
-553.735
-493.221
-5631.89
-4971.13
-4483.55
-5407.32
-5103.89
-4292.84
-3600.97
-4283.67
-5612.92
-5572.84
-5262.3
-5310.4
-5698.06
-5634.37
-4514.59
-4357.35
-4165.95
-4411.1
-4580.33
-4186.51
-4361.76
-4623.07
-4492.83
-4733.26
-4562.47
-2978.1
-3029.9
-2998.92
-2915.84
-3037.99
-3351.74
-3250.55
-3380.78
-3079.15
-3207.41
-3302.82
-1752.28
-1726.19
-1855.69
989.174
984.485
999.276
1009.62
996.29
991.639
1329.07
1306.53
1332.08
1404.06
1333.77
1539.19
1432.93
1358.26
1205.77
1255.11
1225.01
1314.52
1267.74
1216.76
1694.82
1733.62
1581.26
1744.7
1664.38
-5640.48
-5672.26
-5220.63
-5796.83
-5796.36
-5792.35
-5634.03
-5495.67
-5803.7
-5666.66
-4951.37
-5480.28
-5626.01
1178.16
1182.7
1184.85
1183.94
1183.16
1180.47
1190.54
1191.88
1186.95
1189.61
1167.18
1198.11
1189.94
1218.16
1202.01
1167.64
1174.96
1185.09
1183.85
1188.27
1185.83
1175.71
-5211.31
-5112.42
-4848.18
-5076.85
-5348.68
-5235.2
1122.98
1117.91
1133.11
1123.71
1111.06
1110.28
1115.35
1110.99
1178.87
1167.45
1191.07
1182.41
1146.88
1135.57
1163.52
1151.41
-3594.52
-3730.02
-3424.13
-3552.51
-3648.99
-3972.8
-4127.38
-3775.92
-3924.59
1097.46
1103.7
1090.59
1109.17
1099.9
1104.08
1110.97
1099.3
1084.83
1103.28
1096.24
1100.03
1100.73
1096.31
1104.33
1103.48
1108.92
1104.07
1097.57
1101.65
1098.43
1097.1
1091.62
1096.58
1098.35
-2569.25
-2635.17
-2697.16
-2556.83
-2743.9
-2675.16
-1193.86
-1352.61
-1386.56
-1190.42
1051.95
1028.64
1078.24
1079.29
1072.07
1065.52
1085.59
1079.5
-1772.97
994.134
964.232
956.559
652.346
552.23
1007.83
243.82
414.925
299.557
1011.91
-489.923
-50.0574
181.603
-94.0332
998.525
-1798.88
-1469.86
-925.487
-2194.31
-2246.76
-1046.07
-1079.7
-1472.77
-2257.27
-974.016
-966.646
-814.408
-1983.01
-1518.7
-1459.39
3018.5
3375.01
3964.4
-1961.79
292.805
2416.38
-1070.77
-616.075
-2071.18
-4291.97
-4864.37
-5171.05
1148.79
1135.12
1120.3
1154.59
1140.17
1154.58
-1552.36
-1682.41
-1700.34
-2096
-1854.66
-1787.87
1004.8
999.018
1012.31
-5261.73
-5432.96
-4907.25
1115.59
1102.93
1112.96
1122.05
1123.95
1132.76
1135.25
1145.68
1141.02
1023.24
1012.02
1007.4
-1550.5
-1504.82
-1493.52
1032.57
1037.41
1029.56
-1632.78
-1647.61
-1559.58
-1391.51
-1377.43
-1509.28
1009.59
1024.34
1031.17
1031.02
1003.5
-5132.43
-3237.51
-1920.27
-1979.23
-1986.94
-2188.89
-2057.46
-2017.07
1213.98
-3617.98
-3092.75
-3659.3
-2303.56
-2361.18
-2227.99
-817.856
-833.147
-664.288
-665.259
-760.883
-1090.64
-446.07
-2228.93
-5455.63
-5207.59
-5033.3
-5745.45
-5685.06
-2891.97
-2922.01
-2876.13
-3161.17
-3152.49
-3125.76
-2750.31
-2872.15
-2951.82
-3459.91
-3410.04
-3454.2
-1864.75
-1841.51
-1871.58
1384.98
1416.87
1269.6
1289.43
1315.08
1294.96
1180.39
1199.21
1193.86
1276.37
1260.17
1235.94
1991.26
1793.87
1769.34
1931.38
1890.2
2031.87
1462.41
1504.89
1537.26
1177.72
1179.71
1189.24
1180.9
1181.74
1182.01
1201.94
1204.18
1191.51
1190.82
1167.25
1174.49
1173.05
1190.08
1185.98
1175.25
1173.49
1176.96
1178.91
1173.08
1174.91
1170.19
1117.04
1122.34
1119.72
1107.68
1110.65
1114.97
1164.85
1175.34
1165.48
1176.75
1172.39
1205.29
1201.7
1136.74
1167.98
1163.61
1144.46
1149.71
1161.15
-3747.59
-3799.83
-3494.99
-3542.18
-3567.18
-3852.05
-3873.46
-3741.76
-3876.63
-3735.36
1021.11
1014.63
1025.49
1046.27
1030.9
1024.25
1044.8
1050.13
1045.2
1034.13
1037.69
1040.64
-1879.76
968.302
968.006
974.543
739.218
976.447
343.239
488.394
615.243
1020.44
1017.52
1013.5
-395.233
-250.027
-223.92
-237.558
1011.63
1018.25
1020.91
-126.979
-201.112
-350.569
-2108.86
-2143.3
-2232.08
-2185.85
-2165.46
3785.56
4408.76
3472.84
-2286.47
-2314.44
-2245.31
-2406.01
-2354.45
-2341.1
-1052.32
-149.915
-2034.95
-5499.66
-5506.41
-5456.15
-5476.35
-5746.11
-5611.25
-5618.86
-5592.26
-5603.21
-5735.02
-4872.62
-4795.98
-4837.97
-4702.27
-4752.37
-4828.68
-5746.1
-5589.13
-5556.64
-5623.7
-5614.95
-5774.82
-5033.79
-4956.22
-4994.43
-4880.53
-4918.99
-4999.51
-5423.45
-5441.24
-5351.18
-5388.9
1104.14
1099.46
1099.58
1093.92
1090.83
1089.16
1095.28
1093.42
1097.6
-1507.94
-1560.41
-1393.59
-1464.29
1064.14
1065.42
1065.97
1063.42
1024.22
1027.4
1037.17
1021.21
1084.47
1082.13
1079.54
1087.66
1085.21
1088.86
1073.6
1072.18
1076.68
1061.08
1066.81
-1708.97
-1700.24
-1687.81
-1564.4
943.254
1003.2
1158.12
1000.15
989.729
987.215
1010.61
378.033
358.049
1143.47
1010.07
770.209
1016.32
1025.74
1020.66
1006.2
-4805.66
-5087.49
-4889.74
-3960.85
-3741.89
-2891.77
-4606.98
-4300.99
-3275.45
-3403.35
-2041.28
-2028.06
-2038.53
1208.44
1175.2
3206.36
3090.94
2909.11
2272.4
2138.62
2703.05
2457.8
2538.07
-2467.29
-2412.58
-2507.3
-1031.76
-1031.92
-1021.53
-1126.76
-847.119
-831.748
-818.285
-962.028
-912.234
-904.116
-591.022
-649.377
-649.25
-474.789
-475.767
-520.425
-5484.8
-5360.95
-5550.82
-5311.84
-5540.4
-5625.74
-5657.94
-5604.17
-5588.87
-5494.35
-5509.67
-5494.47
-5481.95
-5570.35
-5672.5
-5558.38
-5576.68
-5526.28
-5541.95
-5653.7
-4465.49
-4392.91
-4441.45
-4463.39
-4525.74
-4237.29
-4261.89
-4227.49
-4310.43
-4673.56
-4713.73
-4678.66
-4593.76
-4649.09
-4490.22
-4541.81
-4618.46
-3015.03
-2941.77
-2927.56
-2955.96
-2890.65
-2941.67
-3082.32
-3109.48
-3058.72
-3315.47
-3357.27
-3386.29
1354.28
1286.76
1222.38
1208.14
1187.98
1225.73
1246.88
1234.83
1703.79
1782.7
1834.91
2021
1906.95
1595.07
1559.25
1629.31
-5650.82
-5479.31
-5460.86
-5522.72
-5499.08
-5663.16
-5804.35
-5796.47
-5606.5
-5779.21
-5784.47
-5726.97
-5772.63
-5566.45
-5789.86
-5805.27
-5849.96
-5726.06
1179.92
1181.27
1178.87
1182.01
1181.68
1181.02
1196.65
1199.2
1191.86
1194.19
1176.45
1175.58
1167.92
1170.69
1181.59
1178.23
1177.35
1176.58
1172.88
1173.89
1176.76
1177.63
-5182.08
-5097.44
-5127.12
-5029.24
-5063.17
-5144.32
-5305.35
-5231.54
-5301.63
-5154.33
-5185.74
-5266.63
1121.9
1123
1123.11
1118.93
1121.72
1120.21
1128.76
1126.18
1133.62
1122.15
1122.2
1125.27
1111.19
1112.8
1111.79
1112.9
1113.24
1110.98
1113.17
1112.78
1115.51
1110.71
1110.89
1111.64
1185.88
1181.33
1175.19
1178.5
1182.5
1170.16
1174.32
1171.35
1195.26
1190.08
1150.97
1147.81
1142.94
1145.65
1148.82
1137.97
1133.29
1137
1159.54
1161.82
1166
1153.54
1157.67
1155.5
1159.5
1155.39
-3678.5
-3706.95
-3621.95
-3592.47
-3627.32
-4018.43
-4049.89
-4009.57
-4164.36
-4100.63
-4069.04
-3818.2
-3854.32
-3820.86
-3964.53
-3919.93
-3872.04
1098.73
1095.45
1094.05
1098.82
1097.23
1101.15
1104.74
1101.28
1106.77
1109.14
1100.73
1091.54
1088.24
1089.16
1093
1092.52
1092.16
1097.78
1093.84
1096.44
1106.69
1104.47
1107.19
1108.99
1111.16
1106.63
1107.66
1105.79
1098.33
1099.66
1096.36
1096.57
-2652.96
-2634.44
-2683.99
-2544.76
-2589.73
-2624.21
-2806.39
-2841.56
-2726.48
-2739.72
-2751.23
-1322.7
-1323.02
-1379.11
-1200.54
-1256.56
-1270.39
1054.74
1047.52
1065.74
1062.13
1034.1
1034.44
1030.74
1037.02
1036.37
1042.75
1039.82
1077.96
1076.11
1075.98
1077.8
1076.71
1078.3
1084.26
1078.09
1077.35
1076.41
1077.27
1081.83
-1822.31
983.048
980.153
992.487
607.878
632.173
704.758
561.127
571.18
544.525
1008.91
347.176
291.699
219.624
1012.03
1013.77
1011.75
-466.987
43.4146
-21.316
161.286
150.233
161.371
-42.1701
-170.091
-155.351
-51.4224
1008.53
1017.7
1011.34
608.829
582.243
563.053
570.846
528.848
504.493
511.281
448.153
420.869
422.531
333.764
308.933
299.309
186.089
171.208
144.742
18.1392
18.3307
-24.877
-147.657
-133.559
-186.71
-291.849
-269.754
-323.685
-405.998
-382.062
-430.067
-490.484
-468.959
639.2
621.223
590.372
613.109
580.311
539.336
565.848
508.782
460.142
484.234
391.359
344.845
353.482
220.437
192.45
170.7
14.2998
17.5124
-37.868
-184.905
-154.637
-229.354
-345.538
-302.392
-378.539
-461.013
-417.014
-483.557
-539.095
-500.332
680.191
675.693
633.504
672.818
657.341
597.15
648.993
608.894
529.566
588.712
498.222
412.397
455.781
287.542
233.316
219.554
0.735391
12.3387
-70.8399
-261.235
-199.204
-314.369
-442.183
-364.768
-475.672
-552.389
-479.835
-571.058
-611.97
-555.274
726.427
740.963
691.497
745.744
758.685
680.535
761.609
760.143
641.564
753.666
694.133
536.559
652.63
425.922
312.814
315.7
-51.9465
-6.43392
-164.852
-425.069
-290.803
-487.167
-613.007
-476.782
-638.259
-685.426
-581.606
-694.363
-708.83
-633.956
769.555
803.929
757.433
817.51
865.99
786.096
885.313
954.171
806.415
980.304
1053.54
765.463
1060.26
777.67
483.169
646.871
-298.577
-83.0082
-488.009
-788.569
-491.023
-829.731
-877.376
-668.964
-878.647
-863.124
-725.819
-854.417
-825.038
-736.578
800.237
849.776
817.619
869.809
944.842
889.899
976.49
1104.24
1001.09
1163.68
1500.67
1173.41
1402.68
1558.77
1172.12
996.901
-119.52
129.867
-965.685
-1017.41
-797.912
-1405.55
-1233.96
-960.502
-1185.25
-1062.1
-912.681
-1027.9
-942.034
-855.093
811.343
866.637
856.864
888.566
967.281
955.955
998.628
1111.55
1119.18
1179.96
1247.34
1250.41
1564.34
1653.84
1689.84
-2775.82
-2293.99
-1828.04
-1987.8
-1557.42
-1325.33
-1455.91
-1227.01
-1109.33
-1169.09
-1032.56
-968.393
801.726
854.904
866.141
875.313
944.284
964.738
969.736
1050.63
1098.49
1116.87
1149.69
1175.87
1245.57
1247.91
1276.77
-3602.69
-2938.38
-2803.16
-2170.84
-1679.96
-1611.07
-1561.69
-1294.12
-1254.74
-1226.61
-1068.38
-1047.38
774.208
821.581
848.325
839.471
898.123
934.346
919.164
984.501
1033.99
1040.55
1062.15
1081.59
1126.8
1135.65
1150.16
-3152.91
-2705.41
-2853.17
-1949.1
-1570.39
-1672.13
-1472.99
-1242.95
-1291.99
-1182.79
-1038.41
-1066.92
732.272
772.222
810.599
787.411
837.462
884.246
855.813
916.176
968.009
972.673
994.059
1010.24
1062.32
1073.61
1081.79
-2303.97
-2078.21
-2324.72
-1524.95
-1312.02
-1515.59
-1252.15
-1100.73
-1214.21
-1058.58
-952.571
-1021.39
678.763
709.567
757.731
721.479
761.439
820.024
776.67
830.907
897.195
899.489
924.77
942.921
1013.59
1031.85
1041.19
-1439.91
-1432.06
-1609.89
-1064.49
-1004.41
-1236.23
-981.936
-914.388
-1056.38
-892.84
-833.121
-924.821
616.461
635.904
692.059
643.353
667.981
739.685
677.293
711.44
804.77
796.394
818.081
864.573
929.298
961.555
976.609
-512.467
-593.747
-822.898
-491.189
-650.557
-959.142
-679.696
-724.181
-929.502
-729.231
-727.195
-866.286
-722.839
-703.972
-800.879
549.594
556.552
617.328
558.822
564.071
643.922
564.962
563.364
677.585
645.776
652.844
717.584
741.822
746.128
829.309
251.784
19.5533
-86.781
-205.551
-383.687
-568.324
-425.406
-511.868
-664.085
-530.685
-566.472
-683.896
-573.146
-582.89
-672.414
481.896
477.599
536.485
475.213
463.642
538.038
457.604
429.603
526.998
416.077
353.972
475.6
325.191
191.607
266.38
137.899
-46.2337
-94.2487
-101.631
-242.656
-339.723
-280.62
-369.041
-470.263
-391.295
-441.313
-531.792
-453.345
-478.942
-555.106
417.998
405.177
458.708
399.532
376.993
440.566
367.173
329.134
401.477
313.486
250.167
322.648
225.87
131
172.851
96.6433
-23.3568
-37.8662
-61.2993
-165.518
-218.707
-195.991
-273.639
-341.77
-295.074
-347.247
-415.407
-361.009
-393.283
-456.004
360.525
342.514
388.542
335.113
307.75
358.088
296.703
257.54
308.908
242.474
186.089
231.36
166.646
94.912
120.33
69.9837
-15.6395
-20.6281
-43.1944
-121.798
-152.331
-145.838
-210.189
-255.292
-228.933
-277.165
-327.58
-290.711
-324.569
-374.545
310.38
289.928
328.455
281.875
253.515
292.923
242.606
205.799
243.047
192.114
143.653
173.904
127.919
71.3794
88.1248
52.0652
-12.7263
-14.6447
-33.7445
-94.8251
-113.889
-113.99
-166.901
-197.849
-182.863
-225.472
-262.775
-237.93
-270.339
-309.805
267.301
246.263
278.233
238.226
210.859
241.889
200.676
167.362
195.139
155.21
113.907
135.26
100.934
55.0992
66.764
39.55
-11.4495
-12.3153
-28.0698
-76.8077
-89.6752
-92.3347
-136.056
-158.242
-149.55
-186.484
-214.711
-197.582
-227.254
-258.656
230.5
210.006
236.563
202.35
176.909
201.652
167.668
138.012
159.299
127.324
92.1123
107.843
81.2379
43.3525
51.8117
30.5277
-10.7228
-11.2385
-24.2076
-63.9213
-73.2044
-76.6911
-113.117
-129.709
-124.534
-156.322
-178.236
-166.056
-192.593
-217.907
199.053
179.736
201.928
172.641
149.494
169.514
141.238
115.037
131.753
105.68
75.5771
87.5623
66.3439
34.6038
40.9282
23.8562
-10.1503
-10.5734
-21.2912
-54.1691
-61.2435
-64.8014
-95.393
-108.275
-105.082
-132.388
-149.834
-140.861
-164.29
-185.005
172.085
154.267
172.96
147.807
127.032
143.466
119.721
96.6633
110.067
88.4942
62.6792
72.0596
54.7653
27.9252
32.7676
18.8229
-9.58785
-10.0116
-18.9099
-46.4454
-52.079
-55.3825
-81.2443
-91.5689
-89.4956
-112.95
-127.16
-120.298
-140.824
-158.034
148.835
132.646
148.534
126.837
108.366
122.047
101.927
81.6955
92.6396
74.5751
52.3859
59.8931
45.5596
22.7239
26.5045
14.9627
-8.98912
-9.44227
-16.8569
-40.1041
-44.7492
-47.6672
-69.6379
-78.1355
-76.6835
-96.8353
-108.646
-103.194
-121.086
-135.59
128.665
114.127
127.751
108.954
92.6508
104.189
86.9992
69.3032
78.3825
63.1073
44.0129
50.134
38.1032
18.6055
21.6051
11.9624
-8.34659
-8.83246
-15.0232
-34.7503
-38.6848
-41.1784
-59.9011
-67.0492
-65.9265
-83.2384
-93.2257
-88.7287
-104.265
-116.647
111.05
98.1227
109.91
93.5554
79.2538
89.1049
74.3141
58.8934
66.5341
53.5148
37.0881
42.1609
31.9663
15.2971
17.7111
9.6034
-7.66724
-8.17979
-13.3485
-30.1309
-33.5344
-35.605
-51.5789
-57.7023
-56.7325
-71.5885
-80.1618
-76.3179
-89.7561
-100.452
95.5607
84.1717
94.4585
80.1715
67.7044
76.209
63.4092
50.0343
56.5475
45.3816
31.277
35.5418
26.8434
12.605
14.5725
7.72963
-6.96248
-7.49298
-11.7978
-26.0766
-29.0697
-30.7372
-44.3547
-49.6801
-48.756
-61.4741
-68.9295
-65.5342
-77.1068
-86.4446
81.8405
71.9032
80.9597
68.4298
57.641
65.0614
53.9314
42.4021
48.0219
38.3984
26.3343
29.9679
22.5105
10.3875
12.0108
6.22671
-6.24368
-6.78368
-10.3493
-22.4688
-25.1366
-26.4262
-37.9997
-42.692
-41.7452
-52.5878
-59.1476
-56.0564
-65.9664
-74.2006
69.594
61.0176
69.0624
58.0317
48.7812
55.3226
45.6056
35.7495
40.6553
32.3297
22.0762
25.2116
18.7992
8.53877
9.89422
5.00924
-5.52057
-6.06296
-8.98835
-19.2208
-21.6258
-22.5629
-32.3431
-36.5256
-35.5112
-44.6948
-50.5291
-47.6374
-56.0595
-63.3905
58.5735
51.2697
58.4827
48.7352
40.8999
46.727
38.2136
29.8833
34.2158
26.993
18.3615
21.1014
15.5805
6.97813
8.12432
4.01235
-4.80078
-5.34006
-7.704
-16.267
-18.457
-19.0641
-27.2534
-31.022
-29.9082
-37.6113
-42.8544
-40.0826
-47.1653
-53.7548
48.5667
42.4541
48.9858
40.3391
33.8126
39.0601
31.5774
24.6484
28.5208
22.2422
15.0786
17.5041
12.752
5.64257
6.62528
3.18572
-4.08978
-4.62204
-6.4871
-13.555
-15.5682
-15.8638
-22.6256
-26.0568
-24.8189
-31.1882
-35.9489
-33.2335
-39.1013
-45.0829
39.3916
34.3978
40.3751
32.6745
27.3664
32.1464
25.5502
19.9182
23.423
17.9585
12.1377
14.3145
10.2318
4.48211
5.33777
2.48974
-3.39121
-3.91387
-5.32959
-11.0419
-12.9096
-12.9078
-18.374
-21.5305
-20.1478
-25.3025
-29.6707
-26.959
-31.7151
-37.2006
30.8882
26.9511
32.4844
25.5961
21.4306
25.8393
20.0066
15.5859
18.8017
14.0422
9.46381
11.4469
7.95159
3.45589
4.2144
1.89247
-2.707
-3.21877
-4.22361
-8.69092
-10.4403
-10.1501
-14.4256
-17.361
-15.8137
-19.8497
-23.9025
-21.1475
-24.8755
-29.9617
22.9168
19.984
25.1691
18.9777
15.8919
20.0128
14.8381
11.5592
14.554
10.407
6.99251
8.82936
5.85298
2.52996
3.21621
1.36787
-2.03745
-2.53827
-3.16119
-6.46989
-8.12469
-7.55059
-10.7182
-13.4785
-11.747
-14.7402
-18.5434
-15.703
-18.469
-23.2395
15.3535
13.3822
18.3035
12.708
10.6484
14.5572
9.94636
7.75325
10.5902
6.97369
4.66451
6.39936
3.88286
1.67571
2.31067
0.895133
-1.38032
-1.87217
-2.13297
-4.34882
-5.93139
-5.07278
-7.19593
-9.8223
-7.88603
-9.8947
-13.5069
-10.5409
-12.3951
-16.9242
8.09834
7.04904
11.777
6.69086
5.60486
9.37244
5.23735
4.08565
6.82667
3.66578
2.41745
4.0978
1.98574
0.873202
1.47068
0.462295
-0.729358
-1.21732
-1.12725
-2.29968
-3.83081
-2.6832
-3.80946
-6.33839
-4.17609
-5.24423
-8.71631
-5.5877
-6.56953
-10.9184
1.41207
1.18664
5.49493
1.1125
0.873569
4.36048
0.785912
0.493382
3.17921
0.396709
0.463288
1.84703
0.413324
-0.0159846
0.685077
-0.0812692
-0.231985
-0.563087
-0.2881
-0.463194
-1.79292
-0.522889
-0.703126
-2.97639
-0.763324
-0.943885
-4.10226
-1.0042
-1.19741
-5.13851
1312.66
1356.68
1342.5
-3579.93
-3982.17
-4169.36
-2251.48
-2627.73
-2451.47
1155.06
1169.61
1158.73
-3776.01
-4137.55
-4006.42
-4208.08
-4282.2
-3844.51
1085
1095.1
1082.47
-2981.13
-3189.52
-2986.57
-3953.2
-3782.74
-3534.17
1044.34
1052.35
1033.6
-2031.61
-2090.75
-1966.64
-2859.81
-2728.51
-2623.7
981.402
995.584
967.292
-880.12
-873.282
-825.729
-877.15
-963.543
-955.514
-1349.34
-1383.35
-992.154
-1843.12
-1720.27
-1685
854.57
893.908
846.438
185.535
444.053
581.961
-767.073
-614.638
-666.113
57.8932
-14.5226
115.636
-595.092
-444.204
-216.463
-869.591
-538.767
-668.535
2074.13
1712.24
1467.36
3800.11
4209.1
4742.55
1138.42
1593.07
1320.12
1108.93
2625
-1549.43
-1525.88
-1875.36
-42.086
-393.513
-879.98
-4503.59
-4675.56
-4776.8
-2560.84
-3042.97
-2874.33
-2745.1
-2417.36
-2974.98
-2048.46
-2274.49
-2453.55
-1800.09
-2051.94
-1872.42
1102.53
1125.19
1096.93
1180.28
1150.12
1114.71
1211.7
1166.46
1197.25
-5234.63
-5364.88
-5346.06
-5460.11
-5458.18
-5315.51
-2902.68
-2934.29
-3594.32
-2400.54
-2684.66
-2667.94
-2581.58
-2657.65
-2370.13
1026.75
1043.96
1023.07
1089.53
1061.95
1038.16
1101.53
1073.12
1098.44
1116.21
1130.58
1117.01
1136.96
1133.24
1127.95
1163.97
1159.59
1165.02
-4019.85
-4076.56
-4027.15
-4746.99
-4705.27
-4623.03
-2413.62
-2628.53
-3054.91
-2211.51
-2419.68
-2293.14
-2613.72
-2528.63
-2296.18
960.901
977.774
955.696
1032.96
997.254
975.395
1028.21
1006.96
1039.24
1064.25
1070.98
1056.43
1089.04
1082.65
1081.5
1094.41
1091.83
1095.61
-2762.6
-2813.45
-2733.12
-3345.06
-3217.94
-3158.02
878.31
913.491
877.707
972.489
926.989
892.237
964.793
937.113
981.534
1017.27
1028.3
1006.08
1059.43
1047.58
1041.17
1064.38
1061.48
1070.16
-1566.84
-1614.07
-1623.52
-1716.35
-1774.79
-1535.73
-2037.39
-1961.28
-1935.36
741.6
799.965
762.638
867.885
813.602
752.485
878.794
832.013
886.035
938.604
956.27
920.866
999.971
994.445
993.507
1015.37
1013.13
1018.64
401.252
580.305
616.597
325.432
541.289
379.564
557.864
520.968
365.749
1486.99
1448.5
1549.4
1237.74
1269.14
1290.52
2130.58
2255.7
2325.65
1615.22
1707.28
1697.68
-5290.46
-5446.21
-5457.93
-4862.47
-4941.61
-4774.97
-3571.65
-3901
-3424.91
-4634.03
-4353.64
-4215.85
-4824.08
-4780.25
-5100.48
1180.29
1172.44
1159.15
1193.74
1177.15
1182.38
1171.28
1175.21
1189.05
1186.73
1184.16
1185.72
1187.07
1187.4
1179.41
1235.29