/*--------------------------------*- C++ -*----------------------------------*\
| =========                 |                                                 |
| \\      /  F ield         | OpenFOAM: The Open Source CFD Toolbox           |
|  \\    /   O peration     | Version:  v1912                                 |
|   \\  /    A nd           | Website:  www.openfoam.com                      |
|    \\/     M anipulation  |                                                 |
\*---------------------------------------------------------------------------*/
FoamFile
{
    version     2.0;
    format      ascii;
    class       surfaceScalarField;
    location    "900";
    object      phi;
}
// * * * * * * * * * * * * * * * * * * * * * * * * * * * * * * * * * * * * * //

dimensions      [0 3 -1 0 0 0 0];
oriented        oriented;


internalField   nonuniform List<scalar> 
25162
(
0.000433015
0.916217
0.000532076
0.916601
0.00062062
0.916561
0.000298573
0.916595
0.000376855
0.458339
0.000309799
0.458311
0.000376154
-0.000387355
-0.000474792
0.458291
0.000534088
-0.000592984
0.458239
0.000688612
-0.000791804
0.458219
0.000902659
-0.00102962
0.4582
0.00116511
-0.00129998
0.458202
0.00143264
-0.0015609
0.458232
0.00166037
-0.00173575
0.458292
0.00177714
-0.00177891
0.458369
0.00174525
-0.00168036
0.458426
0.00158481
-0.00147653
0.458454
0.00135761
-0.00122452
0.458456
0.00110322
-0.000982226
0.458464
0.000832921
-0.000786117
0.458435
0.000700679
-0.000578046
0.458451
0.000476716
-0.00179834
0.918586
0.000281809
-0.000418998
-0.00112456
0.918676
-2.5029e-05
0.91575
0.913775
0.00119524
0.915022
0.00188747
0.915909
0.00213021
0.916319
0.000594116
0.917138
0.000993619
0.458091
0.000707231
-0.458204
-0.458193
-0.000860739
0.458
0.0010539
-0.458062
-0.00129365
0.45777
0.000745003
0.000840431
-0.228982
-0.000897937
0.228895
0.000984978
-0.00130043
-0.22893
0.228816
0.00141453
-0.00180936
-0.228887
0.22874
0.00195593
-0.00240245
-0.228882
0.228724
0.0025599
-0.00297601
-0.22893
0.228794
0.00311159
-0.0033882
-0.229045
0.228976
0.00345718
-0.00350073
-0.229194
0.229208
0.00348671
-0.00328278
-0.229312
0.229398
0.00319729
-0.0028355
-0.229381
0.229506
0.00271039
-0.00229243
-0.22939
0.229523
0.0021601
-0.00176922
-0.22937
0.229483
0.00165706
-0.458794
-0.00245087
0.460126
0.00111877
0.000103553
0.460813
-0.00171624
-0.4592
-0.00195901
0.9179
0.0007456
0.00189937
-0.00118934
0.917907
0.000264333
0.914297
0.914039
0.00151822
0.913504
0.00405764
0.913369
0.00684327
0.913533
0.00278925
0.914955
0.00623647
-0.458066
0.457911
0.0029433
-0.457837
-0.00290335
0.458512
0.00222843
-0.457377
-0.00227897
0.457188
0.0011978
0.0012706
-0.228525
-0.00148144
0.228364
0.00164222
-0.228311
-0.00222059
0.228085
0.00244621
-0.22812
-0.00321585
0.22784
0.00349581
-0.228056
-0.00441323
0.227741
0.00472805
-0.22824
-0.00563298
0.227978
0.00589517
-0.228721
-0.00651494
0.228596
0.00664022
-0.229343
-0.00675183
0.229406
0.00668895
-0.229863
-0.00627837
0.230068
0.00607391
-0.230125
-0.00532975
0.230405
0.00504919
-0.230149
-0.00420905
0.230429
0.00392943
-0.00286572
-0.23008
0.230697
0.00224932
-0.462618
0.000973839
0.461279
0.000365223
-0.459814
-0.000649847
0.459684
0.000779664
-0.000319049
0.919383
-0.000744963
-0.000419033
0.00134407
0.916243
0.000630498
0.91501
0.91467
0.000527249
0.912976
0.00114317
0.912753
0.00233839
0.912338
0.00313051
0.912057
0.00210626
-0.457177
0.456764
0.00354316
-0.460088
-0.00472251
0.457078
0.00773242
-0.458708
-0.00894421
0.460317
0.0019833
0.00535207
-0.227773
-0.00193183
0.227592
0.00211278
-0.227258
-0.00292739
0.226932
0.00325305
-0.226752
-0.00441324
0.226309
0.00485687
-0.226515
-0.00631672
0.225987
0.00684429
-0.226872
-0.00844739
0.226372
0.00894769
-0.228054
-0.0101544
0.227803
0.0104055
-0.229664
-0.0105925
0.229794
0.0104626
-0.230935
-0.00962299
0.231324
0.00923431
-0.231498
-0.00788977
0.23199
0.00739707
-0.233804
-0.00119427
0.237679
-0.00268085
-0.00281155
-0.231371
0.231308
0.00287464
-0.461066
-0.00436962
0.462047
0.00338851
-0.460268
-0.00236921
0.461099
0.00153842
0.00243759
0.919036
-0.00114909
-0.000942159
0.00177751
0.916903
0.000826222
0.915962
0.915496
0.000158114
0.912818
0.000362312
0.912549
0.000708365
0.911992
0.0012706
0.911031
0.000463325
-0.456512
0.455739
0.00204388
-0.455692
-0.00243638
0.455104
0.00302467
-0.454285
-0.00383332
0.453577
0.00240805
0.00213303
-0.228301
-0.00420578
0.226464
0.0060431
-0.22658
-0.00919913
0.228366
0.00741287
-0.224759
-0.00522613
0.224236
0.0057496
-0.223964
-0.00789924
0.223117
0.00874634
-0.224275
-0.0115567
0.22331
0.0125221
-0.226725
-0.0149642
0.226213
0.015477
-0.230411
-0.0156988
0.230905
0.015204
-0.23297
-0.0121301
0.233892
0.0112082
-0.241299
-0.00116973
0.238037
0.00443152
-0.233199
-0.00650658
0.233725
0.00598035
-0.00440323
-0.232451
0.232899
0.00395585
-0.463462
-0.00516133
0.464794
0.00382875
-0.461862
-0.00290987
0.462645
0.00212637
0.00322136
0.920573
-0.0027542
-0.00200405
0.00178586
0.918339
0.000815675
0.916932
0.916312
-9.44642e-05
0.912913
-9.73681e-05
0.912552
0.000129625
0.911765
0.00028598
0.910591
0.000284408
-0.454874
0.454589
0.000571197
-0.454633
-0.00150956
0.453901
0.00224173
-0.45283
-0.00274629
0.451876
0.00181892
0.00188121
-0.225289
-0.00229163
0.225042
0.00253888
-0.223674
-0.00359402
0.223216
0.00405228
-0.223881
-0.00782717
0.221578
0.01013
-0.221595
-0.0141704
0.222232
0.0135334
-0.219652
-0.0169708
0.21934
0.0172827
-0.223882
-0.0223669
0.222841
0.0234087
-0.234657
-0.0205648
0.235104
0.0201172
-0.243571
-0.0103176
0.241371
0.0125185
-0.236953
-0.0117711
0.238107
0.0106171
-0.235856
-0.00760214
0.236762
0.0066963
-0.00400776
-0.23468
0.235159
0.00352866
-0.465924
-0.00546813
0.467073
0.0043186
-0.463044
-0.00348668
0.463404
0.00312652
0.00272488
0.922478
-0.0022657
-0.00236433
0.00151188
0.919552
0.000624832
0.917819
0.916937
-0.000475276
0.913388
-0.000824487
0.912901
-0.00102901
0.911969
2.2391e-05
0.910246
-0.000706396
-0.454459
0.454171
0.000310267
-0.452881
-0.000534676
0.452531
0.000884702
-0.451546
-0.001828
0.451172
0.00105042
0.00115117
-0.22425
-0.00141635
0.224036
0.00163011
-0.222164
-0.0025134
0.221738
0.00293932
-0.218819
-0.0042079
0.218269
0.00475749
-0.215377
-0.00800579
0.213192
0.0101911
-0.213847
-0.0230168
0.108964
0.103501
0.0101668
0.0142323
-0.0179796
-0.108768
0.108148
0.0185996
-0.0149199
-0.244149
0.0286566
-0.0151889
0.122363
0.123239
-0.0217772
-0.244036
0.246853
0.0189599
-0.242665
-0.0117932
0.244165
0.0102937
-0.239382
-0.00742044
0.240262
0.0065408
-0.00438395
-0.236599
0.237172
0.00381085
-0.468229
-0.00481231
0.468872
0.00416912
-0.464219
-0.0031484
0.465037
0.00233031
0.00165934
0.923916
-0.00144522
-0.00165199
0.000789549
0.920422
0.000298917
0.91831
0.917235
-0.000869163
0.914257
-0.00168584
0.913718
-0.00230806
0.912592
-0.00116455
0.910804
-0.00170205
-0.45413
0.454134
-0.00116879
-0.452376
0.00121587
0.452278
-0.00111737
-0.449895
0.000958057
0.449612
-0.000291607
-0.000383812
-0.223549
-0.000281016
0.223449
0.000381246
-0.220949
-0.00055837
0.22103
0.000476811
-0.217112
-0.000782728
0.216867
0.00102739
-0.210488
-0.00190768
0.210244
0.00215134
-0.0987604
-0.0016851
0.0989782
0.00146725
-0.0233154
-0.132545
0.134985
0.0208748
-0.0214121
-0.256486
0.259776
0.0181221
-0.248915
-0.0113365
0.250491
0.00976047
-0.243211
-0.00631656
0.244088
0.00543952
-0.00339244
-0.238831
0.2393
0.00292374
-0.469916
-0.00311795
0.470783
0.00225069
-0.465708
-0.00163085
0.46629
0.00104833
-0.000115295
0.924635
-5.95561e-05
-0.00054433
-0.000292327
0.920599
-0.000193337
0.918211
0.917042
-0.00125307
0.91551
-0.00243204
0.914897
-0.00367485
0.913834
-0.00212012
0.911887
-0.00263719
-0.454311
0.454487
-0.00229662
-0.452346
0.00249593
0.452531
-0.00268141
-0.449497
0.0028479
0.449647
-0.00139773
-0.00160035
-0.223632
0.0016579
0.223668
-0.00169358
-0.220927
0.00184226
0.220984
-0.00190016
-0.216809
0.00215533
0.216948
-0.00229389
-0.211005
0.00304168
0.211461
-0.00349758
-0.102498
0.00302326
0.102883
-0.00340795
-0.010566
-0.147845
0.148633
0.00977784
-0.0100671
-0.267591
0.269125
0.00853352
-0.254336
-0.00515043
0.255136
0.00435119
-0.245947
-0.00252333
0.246316
0.00215513
-0.00122557
-0.240374
0.240615
0.000984929
-0.471928
-0.000624357
0.472894
-0.000341395
-0.466592
0.000796601
0.466792
-0.000997069
-0.00229114
0.924215
0.00155532
0.00115637
-0.00164037
0.919948
-0.000858405
0.917429
0.916184
-0.0015997
0.91711
-0.00330499
0.916602
-0.00493207
0.915461
-0.00306596
0.913604
-0.00358393
-0.454845
0.455203
-0.00342353
-0.452788
0.00382931
0.453259
-0.00429999
-0.449958
0.00473856
0.450524
-0.00247894
-0.00282514
-0.223959
0.00294721
0.224102
-0.00308984
-0.221394
0.00360809
0.221597
-0.00381129
-0.217623
0.00452158
0.217913
-0.00481095
-0.212828
0.00586627
0.213249
-0.00628774
-0.104254
0.00378123
0.104361
-0.00193563
-0.00195258
0.00554651
-0.148024
0.147298
-0.0048206
0.00515358
-0.270034
0.26924
-0.00436012
-0.255799
0.00294567
0.255528
-0.00267475
-0.246787
0.0021225
0.246658
-0.00199327
0.00166337
-0.240833
0.240764
-0.00159424
-0.472926
0.00313419
0.472533
-0.00274151
-0.466664
0.00269581
0.467075
-0.00310685
-0.00471762
0.922602
0.00342792
0.00290278
-0.00311061
0.918341
-0.00158083
0.915899
0.914603
-0.00203319
0.919143
-0.00404887
0.918618
-0.00618908
0.917602
-0.00398102
0.91587
-0.00447423
-0.455736
0.456266
-0.00451172
-0.453793
0.00515919
0.454379
-0.00574548
-0.451433
0.0064283
0.452575
-0.00369593
-0.00387431
-0.224682
0.00409233
0.224915
-0.00432554
-0.222355
0.00512333
0.222651
-0.00541947
-0.218897
0.00641885
0.219263
-0.00678464
-0.21443
0.00794525
0.214813
-0.00832809
-0.104952
0.00459689
0.105005
-0.00231388
-0.00233619
0.0148791
-0.140235
0.139069
-0.0137133
0.0168689
-0.264512
0.262325
-0.0146819
-0.253355
0.00999642
0.252272
-0.00891402
-0.24558
0.00654727
0.244943
-0.00590975
0.00452121
-0.240068
0.239759
-0.00421188
-0.47183
0.00676044
0.470853
-0.00578287
-0.467366
0.00491023
0.466579
-0.00412282
-0.0069748
0.920003
0.00494815
0.00462548
-0.0045466
0.915913
-0.00223865
0.913591
0.912364
-0.00242961
0.921573
-0.00486769
0.921056
-0.00742405
0.920158
-0.0048023
0.918455
-0.00520626
-0.456953
0.457637
-0.00548692
-0.455162
0.00624907
0.455979
-0.00706653
-0.453688
0.00795128
0.454958
-0.00453615
-0.00468545
-0.22572
0.00505705
0.226021
-0.0053587
-0.223661
0.00635937
0.224039
-0.00673709
-0.220485
0.00797424
0.220939
-0.00842763
-0.216057
0.00986061
0.216533
-0.0103366
-0.105355
0.00571058
0.105418
-0.00286881
-0.00290431
0.0184238
-0.131015
0.129842
-0.0172503
0.0226922
-0.255251
0.252857
-0.0202985
-0.248434
0.0145923
0.24702
-0.0131778
-0.242444
0.00977806
0.24141
-0.00874396
0.00674498
-0.238166
0.237546
-0.00612577
-0.469642
0.00982156
0.468206
-0.00838491
-0.465727
0.00713228
0.464666
-0.00607179
-0.00902451
0.918101
0.00571108
0.00521542
-0.00580918
0.912698
-0.00281765
0.910599
0.909547
-0.00646309
0.928036
-0.0130881
0.927681
-0.0197914
0.926861
-0.00572791
0.925562
-0.0211701
-0.458398
0.459268
-0.00659738
-0.456825
0.00750176
0.457847
-0.00852361
-0.456162
0.00952045
0.457034
-0.00515131
-0.00524054
-0.226993
0.00579782
0.227333
-0.00613752
-0.225256
0.00729128
0.225689
-0.0077241
-0.22244
0.0091894
0.222986
-0.00973574
-0.218271
0.011587
0.218967
-0.00610486
-0.00617845
-0.0531385
0.00355486
0.0531701
-0.0035865
-0.0579248
0.00664974
0.0574387
-0.0129714
0.00680776
0.017105
-0.122738
0.242182
-0.0307179
0.0168411
-0.122671
-0.246147
0.0233486
0.243731
-0.0209327
-0.242239
0.0161105
0.240765
-0.0146362
-0.238609
0.0112549
0.237683
-0.0103288
0.0080237
-0.235539
0.234896
-0.0073807
-0.466451
0.0119022
0.464694
-0.0101446
-0.463562
0.0088444
0.462361
-0.00764372
-0.0106435
0.915015
0.00713348
0.00659635
-0.00684551
0.9089
-0.00336974
0.907124
0.906177
-0.00289835
0.930934
-0.0058763
0.930659
-0.00901316
0.929998
-0.00612787
0.928971
-0.00629505
-0.462059
0.46296
-0.00702825
-0.460668
0.00801107
0.461723
-0.00906566
-0.458878
0.0102111
0.460136
-0.00569789
-0.00577182
-0.228467
0.00637747
0.228841
-0.00675128
-0.227122
0.00800253
0.227595
-0.00847533
-0.224911
0.0101087
0.225542
-0.0107401
-0.221874
0.013018
0.22282
-0.00695675
-0.00700658
-0.0546478
0.00887366
0.109688
-0.0545653
-0.00464649
-0.00470192
-0.111514
0.00933496
0.111462
-0.0183849
0.00910148
0.0306096
-0.2359
0.234064
-0.0287731
-0.237719
0.0194919
0.236446
-0.0182186
-0.237395
0.014976
0.236837
-0.0144176
-0.235168
0.0112134
0.234536
-0.0105821
0.00836001
-0.233052
0.232492
-0.00779979
-0.463192
0.0126678
0.461891
-0.0113672
-0.461145
0.0100928
0.459687
-0.00863494
-0.0100235
0.911147
0.00688441
0.00700662
-0.00750204
0.906378
-0.00366898
0.90329
0.902508
-0.00304563
0.93398
-0.00617231
0.933786
-0.00945635
0.933282
-0.00645441
0.932519
-0.00654971
-0.463919
0.464873
-0.00740893
-0.462804
0.00843514
0.463897
-0.00952872
-0.461414
0.0107088
0.4627
-0.00598195
-0.00601291
-0.229984
0.0066882
0.230365
-0.00706937
-0.229028
0.00833002
0.229497
-0.00879906
-0.227472
0.0104318
0.228102
-0.011061
-0.225752
0.0133144
0.226665
-0.0142274
-0.112734
0.0175932
0.223804
-0.0168785
-0.111785
-0.225719
0.022861
0.226299
-0.0234405
-0.230677
0.0229333
0.23004
-0.0222966
-0.232696
0.019733
0.231751
-0.0187884
-0.232691
0.0159818
0.2318
-0.0150905
-0.231735
0.0126208
0.230985
-0.0118709
0.00984074
-0.232117
0.22988
-0.00760324
-0.460781
0.0143626
0.458003
-0.0115855
-0.458185
0.0104112
0.456439
-0.00866507
-0.0103796
0.907379
0.00713852
0.00700913
-0.00753734
0.903536
-0.00386404
0.899617
0.898644
-0.00311729
0.937097
-0.00631075
0.936979
-0.00964851
0.93662
-0.00659814
0.936098
-0.00662883
-0.465847
0.466816
-0.00756693
-0.464992
0.0085944
0.466078
-0.0096798
-0.463976
0.0108408
0.465227
-0.00604943
-0.00604225
-0.231488
0.00673605
0.231852
-0.00709934
-0.230848
0.00828139
0.231276
-0.00870948
-0.229864
0.0101342
0.230398
-0.0106674
-0.228953
0.0124242
0.229581
-0.0130521
-0.221709
0.0147154
0.221136
-0.0141424
-0.227593
0.0174326
0.22791
-0.0177496
-0.228868
0.0177692
0.228627
-0.0175286
-0.229614
0.0162815
0.229082
-0.0157497
-0.22957
0.0139854
0.228958
-0.0133732
-0.228998
0.0115629
0.228418
-0.0109829
0.00934434
-0.228208
0.2277
-0.00883565
-0.457592
0.0148085
0.455202
-0.0124185
-0.453841
0.00929431
0.452528
-0.00798143
-0.00958635
0.902129
0.00767616
0.00715991
-0.00512515
0.899075
-0.00392063
0.898413
0.894723
-0.00311956
0.940217
-0.00630627
0.940166
-0.00961673
0.93993
-0.00657801
0.93961
-0.00655123
-0.467771
0.468723
-0.00753005
-0.467143
0.00852458
0.468182
-0.00956354
-0.46644
0.0106616
0.467606
-0.00593048
-0.00589679
-0.232893
0.00656603
0.233222
-0.00689443
-0.232472
0.00793635
0.232839
-0.00830294
-0.231803
0.00946598
0.232211
-0.00987383
-0.231156
0.0111361
0.231593
-0.0115728
-0.21987
0.0122845
0.219584
-0.0119989
-0.22861
0.014083
0.228779
-0.0142524
-0.228136
0.0143093
0.228022
-0.0141948
-0.227849
0.0135086
0.227531
-0.0131902
-0.227443
0.0120596
0.227027
-0.011644
-0.226905
0.0103494
0.22647
-0.00991431
0.00863729
-0.226335
0.225921
-0.00822313
-0.451807
0.0139837
0.450356
-0.0125326
-0.451203
0.0111434
0.449866
-0.0098064
-0.00882048
0.895963
0.0083981
0.00658824
-0.00475579
0.89501
-0.00356789
0.897225
0.891155
-0.00306332
0.94328
-0.00618202
0.943285
-0.009399
0.943147
-0.00642149
0.942983
-0.0063502
-0.469636
0.470547
-0.00733339
-0.469187
0.00827126
0.470155
-0.00923901
-0.468718
0.010248
0.469771
-0.00567744
-0.00562394
-0.234145
0.00624561
0.234431
-0.00653207
-0.23384
0.00741638
0.234142
-0.00771798
-0.233276
0.00863684
0.233584
-0.00894489
-0.232694
0.00986427
0.233001
-0.010172
-0.219058
0.0104024
0.218975
-0.0103188
-0.229157
0.0117269
0.229248
-0.0118188
-0.227759
0.0118457
0.227689
-0.0117762
-0.226766
0.0113477
0.22656
-0.0111419
-0.225986
0.0103814
0.225696
-0.0100911
-0.225338
0.00915206
0.225011
-0.00882511
0.0078326
-0.22482
0.224487
-0.00749909
-0.449011
0.0129193
0.447769
-0.0116773
-0.44862
0.0104618
0.447427
-0.00926815
-0.0117581
0.89171
0.00791725
0.00809466
-0.00772169
0.890974
-0.00098765
0.890491
0.890168
-0.00296021
0.94624
-0.00596288
0.946287
-0.0090371
0.946222
-0.00616157
0.946166
-0.00605845
-0.471401
0.472257
-0.00701797
-0.471081
0.00788551
0.471965
-0.00876942
-0.470764
0.00967825
0.471698
-0.00533935
-0.00527203
-0.235227
0.00583685
0.235472
-0.00608192
-0.234958
0.00681956
0.235203
-0.00706425
-0.234391
0.00778647
0.234626
-0.00802131
-0.233783
0.00870711
0.234002
-0.00892681
-0.218931
0.0089242
0.218971
-0.00896483
-0.229452
0.00994779
0.229501
-0.00999679
-0.227513
0.00999335
0.227462
-0.00994231
-0.226047
0.00964379
0.225904
-0.00950028
-0.224956
0.0089603
0.224745
-0.00874965
-0.224154
0.00805065
0.223905
-0.00780101
0.00702313
-0.223604
0.223335
-0.00675423
-0.446624
0.0117628
0.445571
-0.0107093
-0.446327
0.00965815
0.445276
-0.00860713
-0.0110228
0.887835
0.00734549
0.00755187
-0.00727396
0.887225
-0.00361048
0.886827
0.886557
-0.00282253
0.949063
-0.00567489
0.94914
-0.00857358
0.94912
-0.00583061
0.94913
-0.00570716
-0.473044
0.473836
-0.00662323
-0.472804
0.00741485
0.473601
-0.00821165
-0.472572
0.00902007
0.473389
-0.0049547
-0.00488261
-0.236149
0.00538547
0.236357
-0.00559328
-0.235864
0.0062052
0.236062
-0.00640349
-0.235246
0.00697522
0.235429
-0.00715752
-0.234561
0.0076815
0.234719
-0.00783877
-0.219212
0.00773227
0.219322
-0.00784283
-0.229607
0.00854175
0.22963
-0.00856555
-0.227324
0.00854007
0.227282
-0.00849792
-0.225534
0.00827147
0.225427
-0.00816472
-0.224198
0.00776177
0.224039
-0.00760298
-0.223244
0.0070676
0.22305
-0.00687304
0.00625476
-0.222624
0.222405
-0.00603625
-0.444601
0.0106082
0.443709
-0.00971607
-0.444314
0.00881112
0.443395
-0.00789204
-0.010195
0.884343
0.00673496
0.00695227
-0.00675768
0.883787
-0.00336355
0.883433
0.883194
-0.00266208
0.951725
-0.00534258
0.95182
-0.00804727
0.951825
-0.00545776
0.951863
-0.00532286
-0.474553
0.475279
-0.00618381
-0.474354
0.0068997
0.475066
-0.00761221
-0.474152
0.00832634
0.474864
-0.00455484
-0.00448344
-0.23693
0.00492622
0.237106
-0.00510213
-0.236599
0.00561057
0.236761
-0.00577222
-0.235915
0.00623082
0.23606
-0.00637535
-0.235118
0.00678394
0.235229
-0.00689575
-0.219715
0.00675255
0.219861
-0.00689846
-0.229676
0.00740065
0.229685
-0.00740896
-0.227164
0.0073687
0.227127
-0.00733158
-0.225145
0.00714885
0.225061
-0.00706517
-0.223619
0.00675136
0.223495
-0.00662743
-0.22253
0.00620585
0.222375
-0.00605091
0.00555132
-0.221825
0.221646
-0.00537174
-0.442888
0.00951047
0.44213
-0.00875271
-0.442557
0.0079736
0.441755
-0.00717177
-0.0093355
0.881216
0.00612282
0.00633922
-0.006212
0.880664
-0.0030994
0.880321
0.880094
-0.0024886
0.954213
-0.00498586
0.954317
-0.00748896
0.954328
-0.00506437
0.954365
-0.0049268
-0.475927
0.476587
-0.00572458
-0.475737
0.00636819
0.476371
-0.00700232
-0.475528
0.00763102
0.476147
-0.00415908
-0.00409107
-0.237591
0.00447909
0.237741
-0.00462828
-0.2372
0.00505293
0.237333
-0.00518596
-0.236449
0.00555943
0.236566
-0.0056764
-0.235512
0.00599984
0.23559
-0.00607827
-0.220325
0.00593268
0.220485
-0.0060928
-0.229694
0.00645513
0.229692
-0.0064536
-0.227021
0.00640381
0.226987
-0.00637001
-0.224835
0.00621609
0.224767
-0.0061478
-0.223162
0.00589475
0.223063
-0.00579513
-0.221956
0.0054549
0.22183
-0.00532898
0.00491873
-0.221167
0.221018
-0.00476937
-0.44143
0.00849401
0.440783
-0.00784718
-0.441025
0.0071748
0.440326
-0.0064752
-0.00848553
0.878428
0.00553376
0.00573964
-0.00566518
0.877844
-0.00283249
0.877488
0.877262
-0.00231089
0.956524
-0.0046225
0.956629
-0.00692548
0.956631
-0.00467028
0.956645
-0.0045349
-0.477171
0.477769
-0.00526792
-0.476968
0.00584486
0.477532
-0.00640825
-0.476724
0.0069615
0.477264
-0.00378227
-0.0037183
-0.238153
0.00405864
0.23828
-0.00418578
-0.237697
0.00454317
0.237808
-0.00465391
-0.236885
0.00496302
0.236981
-0.00505947
-0.235786
0.00531841
0.23584
-0.00537234
-0.220971
0.0052409
0.221133
-0.00540286
-0.229677
0.00566403
0.229669
-0.00565606
-0.226889
0.00560034
0.226858
-0.00556901
-0.224579
0.0054354
0.224522
-0.00537791
-0.222792
0.00516797
0.222709
-0.00508585
-0.221487
0.00480526
0.221383
-0.00470102
0.0043589
-0.220618
0.220493
-0.00423316
-0.440184
0.00757377
0.439629
-0.00701809
-0.43969
0.00643537
0.439078
-0.00582365
-0.00767516
0.875947
0.00498272
0.00517405
-0.00513847
0.875307
-0.00257375
0.874923
0.874688
-0.00213529
0.958659
-0.0042651
0.958759
-0.00637542
0.958741
-0.00428784
0.958716
-0.00415853
-0.478293
0.478833
-0.00482742
-0.478062
0.00534402
0.478562
-0.00584458
-0.477767
0.00633205
0.478238
-0.00343162
-0.00337104
-0.238633
0.00367119
0.238742
-0.00378018
-0.238113
0.0040836
0.238206
-0.00417692
-0.237246
0.00443677
0.237326
-0.0045175
-0.235973
0.0047266
0.236009
-0.00476256
-0.221613
0.00465229
0.22177
-0.00480915
-0.229638
0.00499609
0.229626
-0.0049838
-0.226767
0.0049246
0.226738
-0.00489526
-0.224362
0.00477681
0.224312
-0.00472728
-0.222484
0.0045491
0.222415
-0.00447997
-0.221096
0.00424427
0.221008
-0.00415657
0.00386729
-0.220155
0.220048
-0.00376024
-0.439112
0.00675086
0.438632
-0.00627028
-0.438521
0.00576282
0.437985
-0.00522629
-0.00692124
0.873738
0.00447778
0.00465211
-0.00464445
0.87303
-0.00232984
0.872608
0.872358
-0.00196677
0.960626
-0.0039234
0.960715
-0.00585274
0.960671
-0.00392603
0.960595
-0.00380578
-0.479304
0.479791
-0.00441268
-0.479033
0.00487543
0.479479
-0.0053208
-0.478678
0.00575141
0.47909
-0.00310942
-0.0030544
-0.239045
0.00331795
0.239139
-0.00341197
-0.238464
0.00367188
0.238544
-0.00375147
-0.237549
0.00397289
0.237617
-0.00404126
-0.236096
0.00421122
0.236119
-0.00423405
-0.222228
0.00414697
0.222376
-0.00429506
-0.229584
0.00442687
0.229569
-0.00441165
-0.226652
0.0043506
0.226625
-0.00432297
-0.224173
0.0042164
0.22413
-0.00417297
-0.222223
0.00401906
0.222164
-0.00395988
-0.220766
0.00375882
0.220691
-0.00368403
0.00343652
-0.219759
0.219667
-0.00334447
-0.438184
0.00602235
0.437765
-0.00560391
-0.437496
0.00515964
0.437024
-0.00468727
-0.00623354
0.87177
0.00402287
0.00417879
-0.00419093
0.870987
-0.00210501
0.870523
0.870253
-0.00180842
0.962435
-0.00360331
0.96251
-0.00536561
0.962433
-0.00359061
0.9623
-0.00348015
-0.480215
0.480654
-0.00402967
-0.479898
0.00444488
0.480296
-0.00484217
-0.479477
0.00522389
0.47984
-0.0028175
-0.00276947
-0.239401
0.00299988
0.239482
-0.00308156
-0.238766
0.00330628
0.238834
-0.00337499
-0.237807
0.00356592
0.237865
-0.00362439
-0.236172
0.00376332
0.236185
-0.00377662
-0.222805
0.00371211
0.222943
-0.00384981
-0.22952
0.00394035
0.229503
-0.00392311
-0.226544
0.00386131
0.226518
-0.00383521
-0.224007
0.00373824
0.223968
-0.00369963
-0.221999
0.00356476
0.221947
-0.00351339
-0.220482
0.00333961
0.220418
-0.00327505
0.00306102
-0.219418
0.219338
-0.00298117
-0.437374
0.00538268
0.437007
-0.00501589
-0.436593
0.00462477
0.436175
-0.00420705
-0.00561493
0.870012
0.00361708
0.00375554
-0.00378088
0.869153
-0.00190109
0.868643
0.868352
-0.00166288
0.964098
-0.00330985
0.964157
-0.00492086
0.964044
-0.00328509
0.96385
-0.00318574
-0.481037
0.481433
-0.00368183
-0.48067
0.00405542
0.481026
-0.00441112
-0.480182
0.004751
0.480503
-0.00255745
-0.00251491
-0.239711
0.00271791
0.239783
-0.00278944
-0.239027
0.00298573
0.239087
-0.00304574
-0.238028
0.0032122
0.238079
-0.00326268
-0.236214
0.00337689
0.236221
-0.00338337
-0.22334
0.00333953
0.223467
-0.00346647
-0.229449
0.00352599
0.22943
-0.00350734
-0.226442
0.00344548
0.226417
-0.00342072
-0.223859
0.00333167
0.223824
-0.00329694
-0.221803
0.00317727
0.221758
-0.00313209
-0.220237
0.00298007
0.220181
-0.00292371
0.00273673
-0.21912
0.21905
-0.00266683
-0.436663
0.00482536
0.436339
-0.00450163
-0.435793
0.00415524
0.435422
-0.003784
-0.00506689
0.868437
0.00326054
0.00338164
-0.00341615
0.867503
-0.00171925
0.866946
0.866633
-0.00153145
0.965629
-0.0030454
0.965671
-0.00452139
0.96552
-0.00301122
0.965263
-0.00292338
-0.481779
0.482139
-0.0033707
-0.481363
0.00370816
0.481683
-0.0040281
-0.480806
0.00433235
0.481092
-0.00232842
-0.00229014
-0.239984
0.00247053
0.240047
-0.00253372
-0.239256
0.00270696
0.239309
-0.00275997
-0.23822
0.00290661
0.238264
-0.00295057
-0.236233
0.00304499
0.236234
-0.00304666
-0.223832
0.00302112
0.223948
-0.0031376
-0.229373
0.00317372
0.229353
-0.0031541
-0.226345
0.00309258
0.226321
-0.00306902
-0.223725
0.00298657
0.223693
-0.00295502
-0.22163
0.00284764
0.22159
-0.00280746
-0.220022
0.00267297
0.219972
-0.00262325
0.00245829
-0.218859
0.218798
-0.00239656
-0.436034
0.00434358
0.435746
-0.0040558
-0.435082
0.00374703
0.43475
-0.00341523
-0.00458723
0.867019
0.00295047
0.00305509
-0.00309594
0.866011
-0.00155929
0.865409
0.865074
-0.00141495
0.967044
-0.00281133
0.967068
-0.00416878
0.966878
-0.00276963
0.966558
-0.00269341
-0.482454
0.482781
-0.00309665
-0.481986
0.00340304
0.482275
-0.00369247
-0.481363
0.00396656
0.48162
-0.00212819
-0.00209509
-0.240225
0.00225491
0.240282
-0.00231124
-0.239459
0.00246572
0.239506
-0.00251303
-0.238388
0.00264345
0.238426
-0.00268207
-0.236234
0.00276058
0.236232
-0.00275893
-0.224283
0.00274922
0.224389
-0.00285586
-0.229293
0.00287432
0.229273
-0.00285404
-0.226252
0.00279312
0.22623
-0.00277062
-0.223603
0.00269375
0.223574
-0.00266481
-0.221476
0.0025675
0.221439
-0.0025314
-0.219832
0.00241119
0.219787
-0.00236688
0.00221998
-0.218628
0.218573
-0.00216501
-0.435474
0.00393087
0.435216
-0.00367307
-0.434444
0.00339586
0.434146
-0.00309737
-0.00417296
0.865734
0.00268419
0.00277328
-0.00281873
0.864657
-0.0014206
0.864011
0.863653
-0.00131378
0.968358
-0.00260834
0.968362
-0.00386356
0.968133
-0.00256052
0.96775
-0.00249551
-0.483069
0.483368
-0.00285963
-0.482551
0.00313961
0.482815
-0.00340328
-0.481864
0.00365208
0.482096
-0.001956
-0.00192829
-0.240442
0.00206993
0.240492
-0.00212065
-0.239641
0.00225991
0.239684
-0.00230259
-0.238535
0.00241975
0.238569
-0.00245396
-0.236224
0.00251973
0.23622
-0.00251587
-0.224695
0.00251964
0.224793
-0.00261726
-0.229211
0.00262241
0.229191
-0.00260171
-0.226164
0.00254149
0.226142
-0.00251992
-0.22349
0.00244774
0.223463
-0.00242097
-0.221336
0.0023319
0.221304
-0.00229911
-0.219661
0.00219052
0.219621
-0.00215062
0.00201849
-0.218421
0.218372
-0.00196908
-0.434972
0.00358175
0.434739
-0.0033488
-0.43387
0.00309788
0.433599
-0.00282729
-0.00382079
0.864562
0.00245887
0.00253371
-0.00258268
0.863419
-0.00130237
0.862731
0.862351
-0.00122789
0.969586
-0.00243609
0.96957
-0.00360498
0.969302
-0.00238261
0.968857
-0.00232928
-0.483634
0.483909
-0.00265789
-0.483066
0.00291565
0.483309
-0.00315776
-0.482317
0.00338553
0.482529
-0.00181007
-0.00178745
-0.240637
0.0019134
0.240683
-0.00195957
-0.239806
0.00208652
0.239845
-0.00212544
-0.238666
0.00223176
0.238697
-0.00226237
-0.236206
0.00231794
0.236201
-0.00231272
-0.225073
0.00232781
0.225163
-0.00241727
-0.229128
0.00241249
0.229107
-0.00239153
-0.226078
0.00233204
0.226058
-0.00231128
-0.223386
0.00224302
0.223361
-0.00221803
-0.221209
0.00213569
0.221179
-0.0021056
-0.219507
0.00200644
0.219471
-0.00197012
0.00185002
-0.218234
0.21819
-0.00180518
-0.434516
0.00328978
0.434304
-0.00307732
-0.433348
0.00284816
0.433101
-0.00260078
-0.00352671
0.863484
0.00227205
0.00233288
-0.0023853
0.862278
-0.00120345
0.861549
0.861147
-0.00115718
0.970743
-0.0022945
0.970708
-0.00339251
0.9704
-0.00223586
0.969894
-0.00219359
-0.484157
0.484413
-0.00249152
-0.483541
0.002731
0.483765
-0.00295547
-0.482733
0.00316609
0.482928
-0.00168996
-0.00167176
-0.240816
0.00178467
0.240858
-0.00182721
-0.239957
0.00194436
0.239993
-0.00198028
-0.238784
0.00207787
0.238812
-0.00210554
-0.236184
0.0021531
0.236178
-0.00214713
-0.22542
0.00217164
0.225502
-0.00225384
-0.229044
0.00224172
0.229023
-0.00222063
-0.225996
0.00216182
0.225976
-0.00214172
-0.223288
0.00207666
0.223265
-0.00205311
-0.221092
0.00197617
0.221065
-0.00194823
-0.219367
0.00185658
0.219333
-0.00182313
0.00171266
-0.218064
0.218023
-0.0016715
-0.4341
0.00305177
0.433904
-0.0028559
-0.432869
0.00264439
0.432641
-0.00241593
-0.00328763
0.862482
0.00212103
0.00216901
-0.00222477
0.861215
-0.00112287
0.860447
0.860024
-0.00110221
0.971845
-0.00218411
0.97179
-0.00322749
0.971443
-0.00212056
0.970877
-0.00208976
-0.484646
0.484885
-0.00235939
-0.483982
0.00258414
0.484192
-0.00279448
-0.483117
0.00299144
0.4833
-0.00159441
-0.0015797
-0.240981
0.00168221
0.241021
-0.00172192
-0.240097
0.00183144
0.240131
-0.00186502
-0.238891
0.0019557
0.238917
-0.00198102
-0.236159
0.00202237
0.236153
-0.00201614
-0.225739
0.00204845
0.225815
-0.00212423
-0.228959
0.00210683
0.228938
-0.0020857
-0.225917
0.00202744
0.225897
-0.00200787
-0.223196
0.00194534
0.223173
-0.00192292
-0.220983
0.00185019
0.220957
-0.00182393
-0.219236
0.00173814
0.219205
-0.00170691
0.00160398
-0.217907
0.217868
-0.00156573
-0.433715
0.00286362
0.433533
-0.00268087
-0.432426
0.00248339
0.432212
-0.00227004
-0.00310244
0.861538
0.00200557
0.00204082
-0.00210006
0.860212
-0.00106044
0.859407
0.858964
-0.00106041
0.972905
-0.0021015
0.972831
-0.00310261
0.972444
-0.00203266
0.971819
-0.00201202
-0.485106
0.485334
-0.00226083
-0.484397
0.00247415
0.484596
-0.00267354
-0.483477
0.00286
0.48365
-0.00152169
-0.0015111
-0.241137
0.00160405
0.241174
-0.00164159
-0.240228
0.00174531
0.24026
-0.00177709
-0.23899
0.00186244
0.239013
-0.00188593
-0.236135
0.00192266
0.236128
-0.00191652
-0.226033
0.00195528
0.226104
-0.0020254
-0.228875
0.00200434
0.228854
-0.00198324
-0.225839
0.0019254
0.22582
-0.00190624
-0.223108
0.00184561
0.223086
-0.00182405
-0.22088
0.0017545
0.220855
-0.0017295
-0.219114
0.00164813
0.219085
-0.00161859
0.00152139
-0.217759
0.217723
-0.00148538
-0.433355
0.0027224
0.433182
-0.00254964
-0.43201
0.00236295
0.431808
-0.00216126
-0.00296304
0.860638
0.00191956
0.00194356
-0.00200691
0.859256
-0.00101308
0.858414
0.857951
-0.0010388
0.973944
-0.0020554
0.973847
-0.00303726
0.973426
-0.0019857
0.972749
-0.00198177
-0.48555
0.485759
-0.00219534
-0.484791
0.00239999
0.484983
-0.00259157
-0.483819
0.00277061
0.483985
-0.00147114
-0.00146529
-0.241284
0.00154927
0.24132
-0.00158522
-0.240353
0.00168467
0.240384
-0.00171515
-0.239081
0.00179659
0.239104
-0.00181874
-0.236111
0.00185232
0.236105
-0.00184659