/*--------------------------------*- C++ -*----------------------------------*\
| =========                 |                                                 |
| \\      /  F ield         | OpenFOAM: The Open Source CFD Toolbox           |
|  \\    /   O peration     | Version:  v1912                                 |
|   \\  /    A nd           | Website:  www.openfoam.com                      |
|    \\/     M anipulation  |                                                 |
\*---------------------------------------------------------------------------*/
FoamFile
{
    version     2.0;
    format      ascii;
    class       volVectorField;
    location    "900";
    object      U;
}
// * * * * * * * * * * * * * * * * * * * * * * * * * * * * * * * * * * * * * //

dimensions      [0 1 -1 0 0 0 0];


internalField   nonuniform List<vector> 
12556
(
(99.9993 0.00196328 -1.51314e-19)
(99.999 0.00677921 5.09882e-24)
(99.998 0.0147606 -1.60745e-19)
(99.9966 0.0272303 -1.5751e-19)
(100 0.021275 6.49498e-20)
(99.9984 0.036507 0)
(99.9975 0.0593293 0)
(99.9967 0.0917959 -1.12553e-19)
(99.9957 0.135413 1.3189e-20)
(99.9949 0.189913 -8.7252e-20)
(99.9948 0.250072 1.0555e-20)
(99.996 0.304615 0)
(99.9984 0.338763 0)
(100.001 0.341748 1.43585e-20)
(100.004 0.314184 -2.39287e-20)
(100.005 0.266478 1.50473e-20)
(100.005 0.211794 0)
(100.004 0.159952 2.54094e-20)
(100.004 0.11508 1.04594e-19)
(100.002 0.0824981 -2.96089e-20)
(100.009 0.0944233 -6.18793e-19)
(100.006 0.059849 0)
(100.004 0.0322916 -7.92705e-20)
(100.004 0.0103487 -5.25103e-19)
(99.9928 0.00514854 6.37289e-19)
(99.9893 0.0179502 1.69768e-19)
(99.9811 0.0396618 1.18505e-18)
(99.9676 0.0739458 -4.99843e-19)
(99.9698 0.102536 7.12457e-20)
(99.9491 0.174618 -7.2949e-22)
(99.9226 0.284773 0)
(99.9114 0.387722 -5.02669e-20)
(99.8807 0.577526 -4.67661e-20)
(99.8538 0.820835 -8.22374e-20)
(99.8434 1.09756 -3.42112e-20)
(99.8641 1.3589 -4.5086e-20)
(99.9207 1.53386 -9.22739e-21)
(99.9963 1.56461 4.92092e-23)
(100.062 1.44742 -3.57757e-21)
(100.1 1.23089 3.41673e-20)
(100.109 0.978717 -6.78637e-20)
(100.098 0.744021 0)
(100.112 0.565896 -4.82963e-19)
(100.081 0.39262 9.36256e-19)
(100.082 0.270291 6.31209e-19)
(100.06 0.171077 1.32672e-18)
(100.045 0.092031 -1.33173e-18)
(100.039 0.0294213 6.29669e-19)
(99.9806 0.00607402 -6.37771e-19)
(99.9706 0.0220019 -1.36552e-18)
(99.9489 0.0513794 -3.0569e-18)
(99.9129 0.0998859 4.00181e-18)
(99.896 0.159902 -1.45705e-19)
(99.834 0.280059 -1.38659e-19)
(99.7499 0.465957 -2.34822e-19)
(99.6978 0.676431 0)
(99.5917 1.03359 1.86038e-19)
(99.4962 1.50668 4.02367e-20)
(99.4599 2.07134 -1.01992e-19)
(99.548 2.62727 -1.07121e-21)
(99.7824 3.01074 1.39119e-20)
(100.088 3.08005 -2.4871e-22)
(100.341 2.82559 0)
(100.47 2.36654 2.60783e-20)
(100.48 1.84503 -6.99781e-20)
(100.422 1.36719 -1.67543e-19)
(100.375 0.971433 -2.91854e-18)
(100.278 0.663133 -6.49183e-19)
(100.23 0.412243 -6.49525e-19)
(100.167 0.259216 1.50066e-18)
(100.127 0.138702 -1.68892e-19)
(100.11 0.0441543 0)
(99.968 0.00337794 -3.20675e-19)
(99.949 0.0148172 2.40038e-18)
(99.9089 0.042786 -6.86791e-19)
(99.8419 0.0950858 0)
(99.7929 0.176958 0)
(99.6705 0.327619 -1.12572e-18)
(99.4997 0.569426 -2.19387e-18)
(99.3567 0.877465 2.08561e-19)
(99.1121 1.38887 9.94757e-20)
(98.8669 2.10659 4.72496e-20)
(98.745 3.01197 -1.32969e-19)
(98.9032 4.00345 3.71299e-20)
(99.464 4.7482 3.72023e-20)
(100.24 4.86537 0)
(100.843 4.34902 0)
(101.105 3.51802 -1.1972e-19)
(101.1 2.65987 0)
(100.946 1.91072 0)
(100.781 1.29255 1.05276e-18)
(100.576 0.862665 -8.21329e-19)
(100.437 0.501421 -1.66167e-18)
(100.317 0.310444 8.56257e-19)
(100.241 0.164164 -1.72193e-19)
(100.207 0.0519409 0)
(99.9637 -0.00375432 0)
(99.9343 -0.00613656 0)
(99.8732 0.00908048 3.46001e-19)
(99.7704 0.0517912 5.15083e-19)
(99.6779 0.142687 3.75708e-19)
(99.4806 0.298728 0)
(99.1992 0.559645 0)
(98.9223 0.928668 0)
(98.464 1.55685 1.7547e-18)
(97.9681 2.4782 2.34919e-19)
(97.5671 3.82102 0)
(97.6778 5.56768 2.1404e-19)
(98.8324 7.07151 2.5686e-20)
(100.599 7.23552 -2.1038e-20)
(101.806 6.13719 5.62634e-19)
(102.178 4.64419 1.66125e-18)
(102.028 3.32492 3.24281e-19)
(101.681 2.30577 -4.12558e-21)
(101.314 1.47667 -1.74894e-18)
(100.954 0.956447 1.46668e-19)
(100.68 0.518063 0)
(100.487 0.312604 1.75605e-19)
(100.369 0.162122 -1.32092e-19)
(100.313 0.0507662 -4.1074e-20)
(99.977 -0.0156028 0)
(99.9371 -0.0417392 0)
(99.855 -0.0515559 -6.94497e-19)
(99.7158 -0.0335751 1.39208e-18)
(99.5729 0.0496682 0)
(99.2966 0.181419 0)
(98.894 0.417987 4.56384e-19)
(98.452 0.792974 1.764e-19)
(97.7364 1.41377 2.53266e-19)
(96.8225 2.41295 -1.24964e-18)
(95.7548 4.17785 1.51625e-18)
(95.2369 7.21819 -1.43279e-18)
(97.4368 10.7448 2.42607e-20)
(101.65 10.7721 0)
(103.734 8.15141 2.19063e-18)
(103.899 5.59459 0)
(103.313 3.71176 -2.88562e-19)
(102.589 2.42623 5.01709e-19)
(101.934 1.46375 4.48095e-19)
(101.374 0.910091 -3.0296e-19)
(100.926 0.445857 0)
(100.653 0.257041 0)
(100.487 0.128377 -4.45603e-20)
(100.408 0.0393325 -1.25558e-19)
(100.017 -0.0318645 1.58416e-19)
(99.9675 -0.0910456 -1.7054e-19)
(99.867 -0.137435 3.48018e-19)
(99.6958 -0.158734 -1.25717e-18)
(99.5021 -0.101877 1.30849e-21)
(99.1536 -0.0246696 4.64602e-19)
(98.6406 0.140046 -2.36243e-18)
(98.0349 0.449596 -2.50013e-19)
(97.0807 0.924547 5.95725e-19)
(95.6589 1.73473 4.02102e-19)
(93.4713 3.30088 1.12243e-18)
(90.1451 7.39535 2.77285e-18)
(92.959 17.4676 3.18605e-19)
(105.558 16.3016 3.45776e-18)
(107.427 9.85829 0)
(106.389 5.89407 8.6749e-19)
(104.912 3.56568 -4.73614e-19)
(103.601 2.17139 -7.76963e-20)
(102.551 1.19522 0)
(101.78 0.699819 1.66754e-19)
(101.139 0.278457 1.14938e-19)
(100.785 0.141271 -1.38568e-19)
(100.573 0.0620034 -1.58375e-19)
(100.471 0.0174114 3.56665e-19)
(100.092 -0.0516687 -1.5833e-19)
(100.035 -0.151308 1.70383e-19)
(99.9207 -0.243289 -2.16119e-19)
(99.7258 -0.315255 -1.42989e-19)
(99.488 -0.301583 2.69602e-19)
(99.0855 -0.303066 1.56467e-19)
(98.4926 -0.24885 1.22557e-18)
(97.7684 -0.0707673 2.26963e-19)
(96.6675 0.141037 0)
(94.9441 0.46448 1.64939e-19)
(92.1393 0.840008 -9.3662e-19)
(86.6721 0.938068 9.91633e-19)
(117.402 20.8016 9.24483e-19)
(113.132 9.10265 -1.94645e-19)
(109.315 4.80043 1.44e-19)
(106.532 2.64008 -2.30988e-19)
(104.541 1.45935 7.07162e-20)
(103.053 0.660991 -9.13122e-20)
(102.101 0.325342 3.76851e-19)
(101.275 0.0240017 -1.40795e-19)
(100.855 -0.028729 1.17421e-19)
(100.606 -0.0335276 -2.29418e-20)
(100.485 -0.0138445 -3.36251e-19)
(100.207 -0.0737124 -7.63316e-20)
(100.146 -0.218459 -6.12456e-20)
(100.024 -0.361518 -2.09661e-20)
(99.8164 -0.491028 6.25446e-20)
(99.5459 -0.532079 -4.94194e-22)
(99.1147 -0.625239 0)
(98.484 -0.699576 2.00411e-19)
(97.7095 -0.68388 -1.31884e-21)
(96.5922 -0.75283 4.17274e-21)
(94.9114 -0.897179 -2.09767e-19)
(92.6151 -1.37753 -9.29344e-20)
(90.323 -2.90696 -3.30318e-20)
(130.453 9.35785 0)
(117.787 4.10674 6.56368e-19)
(111.538 1.99969 7.21746e-19)
(107.689 0.904174 3.40192e-20)
(105.169 0.324668 -2.10776e-19)
(103.328 -0.0925181 -9.63646e-20)
(102.262 -0.18361 2.13554e-19)
(101.3 -0.294424 4.85494e-20)
(100.838 -0.238292 0)
(100.565 -0.15028 1.81387e-19)
(100.431 -0.051898 1.67976e-19)
(100.365 -0.0964578 1.50307e-19)
(100.303 -0.287781 2.35179e-21)
(100.181 -0.483411 0)
(99.9722 -0.672514 8.25369e-21)
(99.6827 -0.774011 -3.69044e-20)
(99.2486 -0.960667 3.82174e-20)
(98.6207 -1.16193 0)
(97.853 -1.30164 -4.02779e-21)
(96.8044 -1.59405 1.57864e-19)
(95.2843 -2.00765 1.83881e-19)
(93.4299 -2.64465 0)
(91.8555 -3.4562 -2.00424e-20)
(130.059 -5.16158 -9.42656e-19)
(118.369 -2.57728 0)
(111.994 -1.65952 1.8623e-19)
(107.943 -1.26875 -6.34746e-20)
(105.281 -1.0453 -4.06553e-19)
(103.299 -0.955494 8.26496e-19)
(102.213 -0.764041 0)
(101.19 -0.641522 -4.76657e-20)
(100.717 -0.465619 -2.0112e-19)
(100.438 -0.276769 2.24975e-20)
(100.299 -0.0931104 0)
(100.567 -0.1184 -7.39513e-20)
(100.507 -0.354627 7.95658e-20)
(100.39 -0.600501 7.76396e-20)
(100.191 -0.846745 -7.12982e-20)
(99.8971 -1.00845 -3.63358e-20)
(99.4822 -1.28154 0)
(98.8887 -1.59673 -7.45025e-20)
(98.1644 -1.87045 5.7044e-20)
(97.2117 -2.32955 -2.82014e-19)
(95.8194 -2.9023 -1.62828e-19)
(94.111 -3.56965 -4.15613e-19)
(92.6014 -4.13407 6.24607e-20)
(123.118 -13.9249 1.06232e-18)
(115.563 -7.88308 0)
(110.674 -4.92632 -1.37083e-18)
(107.227 -3.32209 0)
(104.831 -2.37654 -3.96238e-19)
(102.949 -1.7905 0)
(101.945 -1.33496 -5.09693e-19)
(100.941 -0.978105 -5.98365e-19)
(100.49 -0.686629 4.56178e-20)
(100.222 -0.400318 -1.45988e-19)
(100.087 -0.133462 2.00521e-20)
(100.81 -0.138162 2.71764e-19)
(100.755 -0.414604 0)
(100.649 -0.705065 -7.7406e-20)
(100.469 -1.00148 0)
(100.181 -1.21945 0)
(99.8031 -1.56614 -1.05215e-19)
(99.2675 -1.97609 -2.58249e-20)
(98.6092 -2.36162 9.08222e-22)
(97.7632 -2.95519 7.1613e-20)
(96.4713 -3.67429 1.59102e-19)
(94.7746 -4.47088 -3.44356e-19)
(93.1396 -5.08812 2.93015e-22)
(115.046 -17.5699 -1.42234e-18)
(111.264 -10.7923 3.10523e-19)
(108.276 -7.0741 -1.0991e-18)
(105.813 -4.84365 -5.19536e-20)
(103.931 -3.44162 -4.56686e-20)
(102.331 -2.48303 4.31775e-20)
(101.487 -1.8274 -6.21272e-19)
(100.571 -1.27056 3.54251e-19)
(100.166 -0.880008 0)
(99.9234 -0.509625 1.68448e-19)
(99.7993 -0.169319 0)
(101.088 -0.155199 -2.70404e-19)
(101.04 -0.46643 4.53384e-18)
(100.948 -0.794499 -9.0872e-18)
(100.792 -1.13348 -2.427e-20)
(100.525 -1.39473 -3.18224e-20)
(100.197 -1.79801 0)
(99.7362 -2.27839 2.65838e-19)
(99.1597 -2.75463 -1.66705e-21)
(98.4426 -3.45838 -3.79765e-21)
(97.2897 -4.33963 -7.28749e-20)
(95.672 -5.41983 1.87462e-19)
(93.9473 -6.3487 0)
(104.33 -26.8218 -3.86728e-19)
(107.248 -16.7362 0)
(106.926 -11.4443 2.86818e-20)
(105.583 -7.97384 0)
(104.092 -5.67935 9.10766e-20)
(102.778 -4.12495 1.22017e-18)
(101.543 -2.96578 -1.29851e-18)
(100.895 -2.19545 0)
(100.108 -1.49523 0)
(99.7658 -1.03101 5.27306e-19)
(99.5569 -0.596536 9.76402e-20)
(99.4487 -0.198016 -2.97184e-19)
(101.394 -0.167996 0)
(101.354 -0.505288 0)
(101.278 -0.860671 0)
(101.151 -1.23108 0)
(100.905 -1.53386 0)
(100.629 -1.97818 0)
(100.249 -2.50973 0)
(99.7732 -3.04725 0)
(99.2091 -3.82367 0)
(98.2769 -4.8372 0)
(97.0122 -6.25566 0)
(95.5199 -8.43609 0)
(97.2576 -17.1388 0)
(102.485 -13.7897 0)
(103.505 -10.5212 1.08043e-18)
(103.18 -7.88045 0)
(102.404 -5.89775 0)
(101.568 -4.42714 -9.87665e-19)
(100.687 -3.22764 -1.76452e-18)
(100.233 -2.42493 -6.50449e-19)
(99.5886 -1.64364 -8.43781e-19)
(99.3128 -1.13315 8.49537e-19)
(99.141 -0.656899 0)
(99.0509 -0.218137 7.9896e-19)
(101.72 -0.176415 0)
(101.689 -0.530836 0)
(101.631 -0.903039 0)
(101.533 -1.29172 0)
(101.318 -1.61836 0)
(101.101 -2.08139 0)
(100.809 -2.62982 0)
(100.438 -3.19278 0)
(100.043 -3.97385 0)
(99.4001 -4.98542 0)
(98.7136 -6.38694 0)
(97.8322 -8.35686 0)
(98.6329 -10.8461 -5.51728e-29)
(100.498 -10.5223 0)
(101.319 -8.94681 0)
(101.335 -7.21181 0)
(100.951 -5.68301 0)
(100.443 -4.42562 -1.97148e-19)
(99.8518 -3.30169 0)
(99.5538 -2.5235 0)
(99.045 -1.71757 -1.57473e-18)
(98.8319 -1.1866 7.93265e-19)
(98.6954 -0.690471 3.33358e-20)
(98.6232 -0.229475 -5.5198e-19)
(102.059 -0.180494 0)
(102.036 -0.543172 0)
(101.995 -0.922113 0)
(101.926 -1.31768 0)
(101.741 -1.6553 0)
(101.579 -2.11797 0)
(101.365 -2.65798 0)
(101.092 -3.21124 0)
(100.829 -3.94358 0)
(100.425 -4.82694 0)
(100.049 -5.91295 0)
(96.6143 -6.75475 0)
(99.3881 -8.25716 4.51545e-33)
(99.809 -8.21105 0)
(100.072 -7.44331 0)
(100.036 -6.35375 0)
(99.7937 -5.23398 0)
(99.4685 -4.21995 0)
(99.0871 -3.23701 -5.63814e-19)
(98.8985 -2.51614 8.64987e-19)
(98.5044 -1.72672 4.91753e-19)
(98.3445 -1.19793 8.56246e-19)
(98.2385 -0.70028 -9.76265e-19)
(98.1823 -0.232772 0)
(102.401 -0.180617 0)
(102.386 -0.543514 0)
(102.36 -0.920276 0)
(102.315 -1.31265 0)
(102.16 -1.65034 0)
(102.044 -2.09721 0)
(101.895 -2.60832 0)
(101.697 -3.12549 0)
(101.525 -3.77094 0)
(101.244 -4.49132 0)
(100.966 -5.27202 0)
(95.8755 -5.56794 0)
(99.7971 -6.64259 9.65228e-38)
(99.5217 -6.63018 0)
(99.3521 -6.20607 0)
(99.1534 -5.50748 0)
(98.9133 -4.70669 0)
(98.6723 -3.91594 0)
(98.4082 -3.074 0)
(98.2913 -2.43002 0)
(97.9862 -1.6851 1.704e-18)
(97.8677 -1.17525 -1.62755e-18)
(97.7856 -0.690044 -1.10535e-19)
(97.7424 -0.229522 1.03964e-19)
(102.74 -0.177366 0)
(102.732 -0.533658 0)
(102.718 -0.900893 0)
(102.693 -1.28186 0)
(102.563 -1.6105 0)
(102.483 -2.03107 0)
(102.38 -2.50094 0)
(102.234 -2.96745 0)
(102.108 -3.51513 0)
(101.864 -4.08408 0)
(101.608 -4.65279 0)
(95.5674 -4.70794 0)
(100.017 -5.50917 0)
(99.3682 -5.49295 0)
(98.9059 -5.22734 0)
(98.5468 -4.75721 0)
(98.254 -4.17632 0)
(98.0294 -3.56161 0)
(97.8213 -2.85365 0)
(97.7431 -2.28985 0)
(97.5015 -1.60555 0)
(97.4124 -1.12543 0)
(97.3485 -0.664738 0)
(97.3149 -0.221653 0)
(103.069 -0.171413 0)
(103.067 -0.515667 0)
(103.062 -0.867789 0)
(103.052 -1.23131 0)
(102.942 -1.54433 0)
(102.887 -1.93265 0)
(102.814 -2.35599 0)
(102.698 -2.76772 0)
(102.583 -3.22442 0)
(102.334 -3.67153 0)
(102.063 -4.09552 0)
(95.5406 -4.05174 0)
(100.136 -4.65742 0)
(99.2655 -4.63363 0)
(98.6068 -4.4483 0)
(98.1154 -4.11439 0)
(97.7551 -3.68202 0)
(97.5133 -3.2002 0)
(97.3219 -2.60873 0)
(97.2584 -2.12088 0)
(97.0572 -1.50266 0)
(96.9863 -1.05824 0)
(96.9344 -0.628343 0)
(96.9081 -0.209601 0)
(103.386 -0.16346 0)
(103.387 -0.49168 0)
(103.389 -0.824836 0)
(103.388 -1.16695 0)
(103.294 -1.46021 0)
(103.254 -1.81397 0)
(103.195 -2.19058 0)
(103.092 -2.54971 0)
(102.967 -2.92856 0)
(102.695 -3.28261 0)
(102.388 -3.60613 0)
(95.6795 -3.52846 0)
(100.198 -3.98938 0)
(99.1851 -3.95944 0)
(98.3914 -3.8188 0)
(97.7965 -3.56951 0)
(97.3706 -3.23828 0)
(97.0967 -2.85519 0)
(96.8989 -2.36045 0)
(96.834 -1.94029 0)
(96.6553 -1.38763 0)
(96.5937 -0.981436 0)
(96.5486 -0.585479 0)
(96.5267 -0.195223 0)
(103.686 -0.154177 0)
(103.69 -0.46372 0)
(103.695 -0.775594 0)
(103.699 -1.09411 0)
(103.616 -1.3655 0)
(103.583 -1.68491 0)
(103.528 -2.01756 0)
(103.425 -2.32916 0)
(103.28 -2.64398 0)
(102.978 -2.92805 0)
(102.621 -3.17969 0)
(95.9077 -3.098 0)
(100.225 -3.44997 -5.23449e-34)
(99.1164 -3.41574 0)
(98.2269 -3.30228 0)
(97.552 -3.10807 0)
(97.0677 -2.84719 0)
(96.7571 -2.53755 0)
(96.5404 -2.12153 0)
(96.4639 -1.75972 0)
(96.2948 -1.26875 0)
(96.2358 -0.900829 0)
(96.1934 -0.5396 0)
(96.1737 -0.179821 0)
(103.967 -0.14415 0)
(103.972 -0.43355 0)
(103.979 -0.723097 0)
(103.984 -1.01723 0)
(103.909 -1.26612 0)
(103.876 -1.55297 0)
(103.818 -1.84584 0)
(103.708 -2.11587 0)
(103.536 -2.3789 0)
(103.205 -2.61033 0)
(102.785 -2.80897 0)
(96.1774 -2.73645 0)
(100.23 -3.00549 0)
(99.0547 -2.96852 0)
(98.0952 -2.87296 0)
(97.3583 -2.71628 0)
(96.824 -2.50564 0)
(96.4768 -2.25124 0)
(96.2351 -1.89894 0)
(96.1413 -1.58658 0)
(95.973 -1.15184 0)
(95.9119 -0.820594 0)
(95.8692 -0.493273 0)
(95.8501 -0.164287 0)
(104.229 -0.133864 0)
(104.235 -0.402618 0)
(104.242 -0.669779 0)
(104.245 -0.939778 0)
(104.173 -1.16661 0)
(104.137 -1.42348 0)
(104.07 -1.68118 0)
(103.948 -1.91546 0)
(103.748 -2.13687 0)
(103.39 -2.32843 0)
(102.899 -2.48697 0)
(96.46 -2.42863 0)
(100.221 -2.63403 -6.6447e-34)
(98.9979 -2.59546 0)
(97.986 -2.51255 0)
(97.2005 -2.38253 0)
(96.6241 -2.20879 0)
(96.2426 -1.99659 0)
(95.9738 -1.69595 0)
(95.8598 -1.42521 0)
(95.6865 -1.04068 0)
(95.6203 -0.743568 0)
(95.5752 -0.448306 0)
(95.5555 -0.149231 0)
(104.471 -0.123697 0)
(104.477 -0.372051 0)
(104.482 -0.617496 0)
(104.482 -0.864351 0)
(104.411 -1.07022 0)
(104.368 -1.30003 0)
(104.289 -1.52707 0)
(104.153 -1.73085 0)
(103.925 -1.91882 0)
(103.544 -2.07981 0)
(102.977 -2.20739 0)
(96.7391 -2.16433 0)
(100.203 -2.32055 0)
(98.945 -2.28122 0)
(97.893 -2.20776 0)
(97.0691 -2.09742 0)
(96.4573 -1.95148 0)
(96.0445 -1.77207 0)
(95.7485 -1.51359 0)
(95.6135 -1.27779 0)
(95.4316 -0.937553 0)
(95.3584 -0.671545 0)
(95.3095 -0.40589 0)
(95.2884 -0.135051 0)
(104.695 -0.113932 0)
(104.7 -0.342691 0)
(104.702 -0.567593 0)
(104.697 -0.79277 0)
(104.626 -0.979165 0)
(104.574 -1.18489 0)
(104.482 -1.38542 0)
(104.33 -1.5633 0)
(104.076 -1.72435 0)
(103.674 -1.86149 0)
(103.028 -1.96487 0)
(97.0056 -1.93634 0)
(100.179 -2.05439 2.17483e-34)
(98.8954 -2.01483 0)
(97.8121 -1.94876 0)
(96.9576 -1.85344 0)
(96.316 -1.72894 0)
(95.8751 -1.57541 0)
(95.553 -1.35158 0)
(95.3971 -1.14514 0)
(95.2047 -0.843649 0)
(95.1235 -0.605546 0)
(95.0701 -0.36675 0)
(95.0471 -0.121985 0)
(104.9 -0.10477 0)
(104.904 -0.315133 0)
(104.903 -0.521001 0)
(104.892 -0.726255 0)
(104.82 -0.894853 0)
(104.757 -1.07935 0)
(104.65 -1.25709 0)
(104.482 -1.41301 0)
(104.205 -1.55232 0)
(103.784 -1.67056 0)
(103.059 -1.75484 0)
(97.2552 -1.73931 0)
(100.151 -1.82761 0)
(98.8485 -1.78822 0)
(97.7407 -1.7281 0)
(96.8614 -1.64455 0)
(96.1948 -1.5369 0)
(95.7288 -1.4041 0)
(95.3822 -1.20894 0)
(95.2062 -1.0272 0)
(95.0023 -0.759428 0)
(94.9128 -0.546051 0)
(94.8544 -0.33127 0)
(94.8291 -0.110158 0)
(105.089 -0.0963463 0)
(105.091 -0.289779 0)
(105.087 -0.478323 0)
(105.069 -0.665562 0)
(104.994 -0.818124 0)
(104.921 -0.984083 0)
(104.799 -1.14232 0)
(104.616 -1.27963 0)
(104.317 -1.40133 0)
(103.879 -1.50439 0)
(103.075 -1.57348 0)
(97.4861 -1.56919 0)
(100.119 -1.63427 0)
(98.8041 -1.59525 0)
(97.6768 -1.54005 0)
(96.7773 -1.46591 0)
(96.0896 -1.37172 0)
(95.6014 -1.2557 0)
(95.232 -1.08442 0)
(95.037 -0.923469 0)
(94.8212 -0.684874 0)
(94.7234 -0.493179 0)
(94.66 -0.299598 0)
(94.6323 -0.0996162 0)
(105.263 -0.0887435 0)
(105.263 -0.266877 0)
(105.255 -0.439914 0)
(105.23 -0.611102 0)
(105.152 -0.749379 0)
(105.068 -0.89927 0)
(104.931 -1.0409 0)
(104.733 -1.16246 0)
(104.415 -1.26986 0)
(103.961 -1.3606 0)
(103.082 -1.41757 0)
(97.6985 -1.42277 0)
(100.086 -1.46969 0)
(98.762 -1.43117 0)
(97.6191 -1.38008 0)
(96.703 -1.31357 0)
(95.9972 -1.23026 0)
(95.4893 -1.12793 0)
(95.0989 -0.976612 0)
(94.8862 -0.833152 0)
(94.6586 -0.619687 0)
(94.5527 -0.446813 0)
(94.4843 -0.271725 0)
(94.454 -0.0903524 0)
(105.424 -0.0820092 0)
(105.422 -0.246567 0)
(105.409 -0.405955 0)
(105.377 -0.56306 0)
(105.295 -0.688747 0)
(105.201 -0.824839 0)
(105.05 -0.952409 0)
(104.837 -1.06069 0)
(104.502 -1.15646 0)
(104.033 -1.23714 0)
(103.082 -1.28443 0)
(97.8931 -1.29749 0)
(100.051 -1.33024 0)
(98.7218 -1.29227 0)
(97.5664 -1.24464 0)
(96.6366 -1.18436 0)
(95.9154 -1.10989 0)
(95.3899 -1.01876 0)
(94.9802 -0.884155 0)
(94.751 -0.75537 0)
(94.5118 -0.563425 0)
(94.3981 -0.406712 0)
(94.3248 -0.247548 0)
(94.2921 -0.08233 0)
(105.572 -0.0761629 0)
(105.568 -0.22891 0)
(105.551 -0.376509 0)
(105.512 -0.521452 0)
(105.426 -0.636181 0)
(105.321 -0.76055 0)
(105.156 -0.876314 0)
(104.93 -0.973444 0)
(104.581 -1.05977 0)
(104.096 -1.13222 0)
(103.077 -1.17177 0)
(98.0712 -1.19127 0)
(100.015 -1.21299 0)
(98.6834 -1.17557 0)
(97.5178 -1.13084 0)
(96.5766 -1.07567 0)
(95.842 -1.00839 0)
(95.3009 -0.926431 0)
(94.8734 -0.805785 0)
(94.6289 -0.68924 0)
(94.3784 -0.515577 0)
(94.2572 -0.372569 0)
(94.1792 -0.226914 0)
(94.1441 -0.0754945 0)
(105.71 -0.0712151 0)
(105.704 -0.213935 0)
(105.682 -0.351585 0)
(105.637 -0.486266 0)
(105.547 -0.591539 0)
(105.431 -0.706089 0)
(105.253 -0.812057 0)
(105.014 -0.89987 0)
(104.652 -0.978573 0)
(104.153 -1.04431 0)
(103.069 -1.07772 0)
(98.2343 -1.10244 0)
(99.9786 -1.1156 -3.10714e-35)
(98.6464 -1.07869 0)
(97.4727 -1.03638 0)
(96.5218 -0.985365 0)
(95.7756 -0.923911 0)
(95.2204 -0.849407 0)
(94.7764 -0.740378 0)
(94.5176 -0.633942 0)
(94.2563 -0.47568 0)
(94.128 -0.34408 0)
(94.0456 -0.209665 0)
(94.008 -0.0697928 0)
(105.84 -0.0671443 0)
(105.832 -0.201595 0)
(105.806 -0.3311 0)
(105.754 -0.457265 0)
(105.659 -0.554646 0)
(105.532 -0.661126 0)
(105.341 -0.759096 0)
(105.091 -0.839199 0)
(104.717 -0.911822 0)
(104.204 -0.972146 0)
(103.059 -1.00072 0)
(98.384 -1.02962 0)
(99.9419 -1.03619 0)
(98.6108 -0.999736 0)
(97.4304 -0.959412 0)
(96.4713 -0.911734 0)
(95.7149 -0.854936 0)
(95.1468 -0.786419 0)
(94.6875 -0.686966 0)
(94.4154 -0.588748 0)
(94.143 -0.443165 0)
(94.008 -0.320912 0)
(93.9212 -0.195605 0)
(93.8813 -0.0651524 0)
(105.962 -0.0639941 0)
(105.951 -0.191973 0)
(105.921 -0.315147 0)
(105.863 -0.434877 0)
(105.764 -0.525344 0)
(105.627 -0.625351 0)
(105.424 -0.716943 0)
(105.163 -0.790742 0)
(104.778 -0.858611 0)
(104.25 -0.914633 0)
(103.049 -0.939489 0)
(98.5218 -0.971703 0)
(99.9051 -0.973266 0)
(98.5762 -0.937191 0)
(97.3904 -0.89844 0)
(96.424 -0.853383 0)
(95.6585 -0.800224 0)
(95.0788 -0.736413 0)
(94.6051 -0.644743 0)
(94.3203 -0.553069 0)
(94.0383 -0.418097 0)
(93.8969 -0.302931 0)
(93.8061 -0.184681 0)
(93.764 -0.0615711 0)
(106.084 -0.0615906 0)
(106.071 -0.184714 0)
(106.037 -0.303228 0)
(105.971 -0.417398 0)
(105.863 -0.503545 0)
(105.716 -0.598508 0)
(105.501 -0.685193 0)
(105.23 -0.75392 0)
(104.835 -0.818185 0)
(104.292 -0.870895 0)
(103.038 -0.892995 0)
(98.649 -0.927852 0)
(99.8682 -0.925677 0)
(98.5424 -0.889876 0)
(97.352 -0.852306 0)
(96.3794 -0.809218 0)
(95.6056 -0.758796 0)
(95.015 -0.698554 0)
(94.5277 -0.613063 0)
(94.231 -0.526375 0)
(93.9347 -0.398752 0)
(93.7865 -0.289524 0)
(93.6914 -0.176457 0)
(93.6469 -0.0588467 0)
(106.18 -0.0603974 0)
(106.165 -0.180747 0)
(106.127 -0.296646 0)
(106.058 -0.410243 0)
(105.957 -0.489165 0)
(105.801 -0.580356 0)
(105.575 -0.663584 0)
(105.294 -0.728265 0)
(104.889 -0.789898 0)
(104.332 -0.840196 0)
(103.027 -0.860436 0)
(98.7669 -0.897451 0)
(99.8314 -0.892562 0)
(98.5092 -0.856884 0)
(97.3149 -0.820101 0)
(96.3366 -0.77838 0)
(95.5551 -0.729887 0)
(94.9544 -0.672213 0)
(94.4542 -0.591424 0)
(94.1459 -0.508457 0)
(93.8519 -0.389856 0)
(93.6996 -0.281785 0)
(93.6012 -0.171771 0)
(93.5551 -0.0574186 0)
(106.346 -0.0590797 0)
(106.328 -0.177173 0)
(106.284 -0.29105 0)
(106.203 -0.399194 0)
(106.044 -0.481169 0)
(105.879 -0.570776 0)
(105.643 -0.652558 0)
(105.356 -0.71341 0)
(104.941 -0.773149 0)
(104.37 -0.821895 0)
(103.018 -0.841229 0)
(98.8768 -0.88027 0)
(99.7947 -0.873357 0)
(98.4763 -0.837535 0)
(97.2787 -0.801145 0)
(96.2951 -0.760226 0)
(95.5064 -0.712915 0)
(94.896 -0.65699 0)
(94.3862 -0.57961 0)
(94.0684 -0.498189 0)
(93.7141 -0.377686 0)
(93.5518 -0.275173 0)
(93.448 -0.167485 0)
(93.3987 -0.0558467 0)
(89.9447 -2.79011 -9.60543e-22)
(132.006 12.4108 2.16581e-20)
(117.936 23.3059 -2.83399e-18)
(91.7421 -3.37789 -1.51435e-20)
(132.584 -4.14688 -1.87407e-19)
(132.87 10.1712 -6.39811e-19)
(92.5273 -4.0435 -6.18677e-20)
(125.165 -14.2555 -5.91023e-19)
(131.894 -5.82816 1.13117e-18)
(93.0656 -4.94566 1.28812e-19)
(116.508 -18.4316 3.53136e-18)
(124.087 -15.0449 -5.47541e-19)
(93.8887 -6.25032 -6.52183e-20)
(104.289 -27.5676 1.83514e-19)
(105.034 -27.1343 0)
(108.409 -18.4401 -1.7377e-18)
(115.442 -18.649 -7.43997e-19)
(95.3066 -8.15372 0)
(96.0164 -18.2072 0)
(103.931 -27.4693 0)
(97.4213 -18.4445 1.68262e-19)
(102.757 -15.7391 -6.52445e-19)
(107.501 -18.2705 -2.08779e-19)
(86.6061 2.0099 -2.86544e-18)
(91.6945 16.1429 -3.05471e-19)
(115.287 23.409 3.38637e-20)
(103.802 17.4431 -8.16009e-19)
(136.53 30.2973 1.94409e-19)
(117.203 39.3268 5.0592e-18)
(129.623 11.3158 0)
(118.998 6.737 2.77109e-19)
(114.281 10.8047 -2.21297e-19)
(93.2377 -2.37883 0)
(91.9156 -3.25284 2.00818e-20)
(90.5365 -2.56405 -6.34882e-20)
(143.806 1.68325 5.43247e-20)
(144.213 13.9453 0)
(130.623 -3.60935 3.77473e-19)
(120.852 -1.16279 -1.08779e-18)
(119.988 4.85486 -2.32345e-19)
(93.9504 -3.34877 -2.54842e-20)
(92.7078 -3.96015 -9.64385e-20)
(92.0325 -3.33767 -1.95516e-20)
(92.1732 -3.70663 8.11721e-20)
(91.4447 -4.08396 2.67914e-20)
(91.0349 -3.79069 -3.19107e-20)
(133.808 -15.3815 6.93678e-19)
(139.412 -9.06177 0)
(124.106 -13.155 -1.68452e-18)
(118.153 -7.79246 -2.3487e-18)
(120.509 -3.05176 0)
(94.5978 -4.23965 3.49527e-19)
(93.2862 -4.86642 -1.59485e-19)
(92.7851 -4.0556 0)
(92.8008 -4.43935 4.23264e-20)
(91.7668 -4.61915 0)
(91.7708 -4.32458 5.75354e-20)
(122.847 -21.8713 -8.83618e-21)
(127.606 -19.7405 0)
(95.4111 -5.18215 -2.25405e-20)
(94.0533 -6.11363 -1.13919e-19)
(93.3647 -5.00501 0)
(93.4698 -5.56833 4.7668e-20)
(91.7387 -5.84998 5.92355e-20)
(91.7776 -5.24118 -5.58942e-20)
(109.114 -28.3082 0)
(112.391 -23.4297 0)
(116.908 -23.3072 3.57835e-19)
(96.6278 -6.09617 0)
(95.4646 -7.85896 0)
(94.1761 -6.29459 0)
(94.4337 -7.07845 0)
(90.5652 -7.31444 -1.15197e-18)
(91.5073 -6.58134 5.17614e-19)
(98.579 -8.50258 0)
(97.6211 -11.2348 1.02281e-27)
(96.0162 -17.4837 -1.68664e-22)
(86.6132 -5.75326 -5.6134e-20)
(89.9422 -4.68985 3.29079e-20)
(79.0912 -0.231903 4.59884e-18)
(85.7739 -5.71357 2.72784e-19)
(144.082 14.8682 2.61358e-18)
(137.364 29.4202 -1.54706e-19)
(127.62 18.6421 -1.53236e-18)
(136.221 27.6975 9.13539e-19)
(143.128 14.6891 -8.70418e-19)
(90.994 -3.74016 0)
(90.7904 -3.63986 -3.67397e-20)
(91.3373 -3.18873 0)
(90.6819 -3.67356 0)
(90.8514 -3.7805 0)
(90.1181 -4.49462 -4.77904e-20)
(90.6551 -3.71185 0)
(139.739 -8.51789 2.67484e-20)
(143.653 0.948475 5.45446e-20)
(133.294 1.9997 1.84845e-19)
(142.995 1.14912 -2.62298e-20)
(139.323 -8.18399 0)
(143.291 13.7855 -1.08364e-19)
(143.139 1.86023 2.06323e-19)
(133.318 3.00832 1.2064e-20)
(91.7478 -4.29078 0)
(91.4984 -4.10935 -4.04119e-20)
(92.2706 -3.78968 -2.04785e-20)
(91.3407 -4.14668 7.82894e-20)
(91.578 -4.31383 0)
(90.8698 -3.81113 5.56004e-21)
(91.3146 -4.13329 1.49776e-19)
(128.292 -19.3465 0)
(133.416 -15.7291 -1.68828e-19)
(128.295 -11.3147 -4.42304e-21)
(132.928 -15.2377 6.16798e-19)
(128.017 -18.6421 0)
(139.007 -8.72616 0)
(133.675 -14.6078 -3.74327e-19)
(129.283 -10.1269 0)
(91.7702 -5.20105 -3.88979e-23)
(91.7633 -4.65006 -1.26704e-19)
(92.864 -4.55535 -1.47585e-19)
(91.588 -4.6429 1.12832e-19)
(91.4993 -5.20607 0)
(91.5869 -4.33209 2.66958e-20)
(91.5969 -4.61269 2.17198e-19)
(117.56 -23.2147 3.67667e-19)
(122.174 -22.0953 -9.60401e-19)
(91.5242 -6.53225 2.54439e-19)
(91.7337 -5.90018 -3.02037e-20)
(93.5163 -5.65102 6.36048e-20)
(107.259 -28.3461 0)
(91.2526 -5.88711 -2.28961e-19)
(90.5961 -6.49199 -3.46773e-19)
(91.5033 -5.24553 -6.14424e-20)
(91.2743 -5.84117 0)
(107.022 -28.2403 1.79162e-19)
(107.666 -22.844 7.8288e-19)
(111.745 -23.4413 0)
(109.044 -28.3232 1.65909e-19)
(78.1176 -7.64339 2.67858e-19)
(90.5144 -7.38548 -4.60054e-21)
(94.5212 -7.2051 4.02786e-22)
(98.3408 -23.4601 2.68761e-20)
(88.8652 -7.22283 0)
(52.727 -8.13779 1.18345e-19)
(90.5588 -6.53421 7.17062e-20)
(88.9198 -7.15793 1.42201e-18)
(98.9008 -24.1238 0)
(92.4156 -0.937233 -7.50851e-20)
(90.2121 -2.39779 6.90334e-20)
(87.7724 1.09982 8.49679e-19)
(87.9306 -1.53437 -4.04172e-19)
(85.9776 -4.87011 -3.16605e-19)
(80.637 0.184195 2.04366e-18)
(135.712 51.4097 3.51417e-17)
(111.579 57.9759 4.16227e-19)
(91.1522 -3.1339 -9.63664e-20)
(90.7496 -3.67139 1.81831e-20)
(90.0872 -4.31025 -2.98503e-21)
(122.226 -23.1807 -4.97446e-18)
(116.039 -17.333 -1.54754e-18)
(113.37 -11.5666 0)
(117.066 -9.01186 5.03942e-19)
(106.819 -27.2959 3.10349e-18)
(114.682 -26.2914 -7.76853e-19)
(116.948 -25.9409 2.04859e-19)
(99.7601 -23.5662 2.28164e-19)
(103.401 -20.5157 -9.42136e-20)
(106.505 -22.3874 -1.84897e-18)
(89.8774 -4.44713 -1.29428e-20)
(86.7015 -4.9848 5.22343e-20)
(88.4795 -2.02533 6.15826e-21)
(89.3747 -6.73795 9.27755e-20)
(68.205 -2.0569 9.58607e-18)
(78.5065 -11.3839 -1.6113e-18)
(117.413 36.2065 -9.35587e-19)
(134.604 29.4468 -2.09816e-19)
(125.533 20.3438 1.31205e-18)
(117.288 -25.8495 0)
(119.545 -25.4053 0)
(119.754 -17.3894 0)
(121.99 -21.3977 4.56943e-19)
(117.468 -22.5348 -7.20353e-19)
(127.34 -19.0285 0)
(122.65 -21.1672 -2.45743e-19)
(120.842 -16.9103 -9.88205e-19)
(106.423 -28.3609 1.24482e-19)
(90.7033 -26.8978 0)
(101.467 -26.3435 0)
(83.8422 22.8954 4.4186e-20)
(82.7681 10.2965 -1.07018e-18)
(78.7849 1.4254 7.41509e-18)
(113.985 38.7501 4.3286e-21)
(100.582 29.1032 9.60376e-19)
(85.471 25.4812 -4.16662e-20)
(137.899 48.949 -1.57705e-16)
(129.823 36.6447 -5.18436e-19)
(136.489 48.6678 2.26489e-17)
(112.589 54.2866 -4.89576e-19)
(134.006 50.28 -3.45626e-18)
(126.949 37.9315 -1.00751e-18)
(144.301 7.07562 -2.38976e-19)
(144.347 7.88685 0)
(136.519 -12.8336 -1.89582e-19)
(136.899 -12.3977 7.71858e-19)
(121.942 -24.5621 2.90489e-19)
(122.626 -23.2997 -4.99811e-19)
(124.875 -21.0859 0)
(124.285 -23.212 2.35069e-18)
(122.534 -24.2459 1.39602e-19)
(125.394 -21.7565 6.35839e-18)
(124.375 -23.0822 1.1937e-18)
(125.554 -20.784 -4.20752e-19)
(91.7995 -5.53607 1.79961e-19)
(92.7479 -5.49171 1.39333e-19)
(92.8527 -5.74543 0)
(111.921 -26.2509 6.49316e-19)
(113.996 -26.3147 9.2977e-19)
(107.621 -27.4648 -1.02593e-17)
(91.375 -6.95621 -1.43431e-19)
(93.3806 -6.99234 1.01634e-19)
(93.5051 -7.3788 -8.88785e-20)
(93.223 -6.56462 5.01444e-20)
(93.3419 -6.87772 -1.01106e-19)
(91.408 -6.89077 -4.279e-19)
(87.2984 -9.66092 -4.18885e-18)
(89.1709 -7.0663 5.72273e-18)
(88.5368 -5.44582 1.97786e-20)
(89.2645 -6.98225 -2.40967e-18)
(87.1745 -9.13554 7.16051e-18)
(89.8685 -5.06141 -1.23504e-18)
(89.4486 -6.69193 -1.30163e-18)
(89.0046 -5.27215 0)
(81.6456 -4.00088 0)
(78.8263 -9.92361 1.28516e-20)
(70.3553 -1.62128 -4.46281e-18)
(86.628 -9.40473 -1.29526e-19)
(80.0966 -10.2231 1.42043e-18)
(82.7461 -4.75974 2.7561e-19)
(79.9722 -11.6149 -2.76031e-19)
(86.8253 -9.98106 3.58303e-19)
(142.025 21.4615 1.84925e-18)
(141.602 22.4681 -6.35125e-19)
(90.7725 -3.63486 2.09185e-20)
(89.6394 -3.62296 -4.20209e-22)
(90.7791 -3.64235 0)
(90.458 -4.03533 -3.93314e-20)
(89.9112 -4.04522 2.8719e-18)
(89.8573 -4.91195 -1.28067e-18)
(89.6827 -3.62974 -2.38124e-20)
(89.882 -3.94277 -5.66162e-21)
(90.5264 -3.9254 2.64229e-20)
(141.747 -4.35751 -7.22579e-19)
(141.995 -3.72213 1.19995e-18)
(141.502 -3.48738 0)
(137.551 -1.90716 2.10725e-19)
(138.244 1.57877 -4.36335e-21)
(136.028 -6.06693 6.99989e-19)
(137.231 -3.00613 0)
(141.265 -4.12449 0)
(143.656 7.91103 -1.133e-19)
(138.333 8.01225 1.1028e-19)
(137.559 12.1515 -2.18442e-19)
(138.375 2.81007 -9.42652e-20)
(138.437 6.67623 -8.15633e-20)
(143.63 7.10446 4.41127e-19)
(91.4871 -4.21142 1.5135e-19)
(91.5031 -4.22372 9.20275e-20)
(91.0638 -4.00144 1.16309e-20)
(91.0963 -4.02648 1.17004e-20)
(130.482 -17.8012 7.54268e-20)
(125.659 -21.4788 0)
(130.837 -17.5273 7.72829e-20)
(91.5662 -4.89807 -1.19021e-19)
(91.5617 -4.93133 -2.95657e-20)
(91.6216 -4.44263 2.5949e-20)
(91.6222 -4.4627 -5.23849e-20)
(122.216 -24.3543 -2.69181e-19)
(120.018 -24.985 0)
(120.181 -22.6703 -8.64288e-19)
(119.84 -25.3221 4.83755e-19)