/*--------------------------------*- C++ -*----------------------------------*\
| =========                 |                                                 |
| \\      /  F ield         | OpenFOAM: The Open Source CFD Toolbox           |
|  \\    /   O peration     | Version:  v1912                                 |
|   \\  /    A nd           | Website:  www.openfoam.com                      |
|    \\/     M anipulation  |                                                 |
\*---------------------------------------------------------------------------*/
FoamFile
{
    version     2.0;
    format      ascii;
    class       volScalarField;
    location    "1.93";
    object      k;
}
// * * * * * * * * * * * * * * * * * * * * * * * * * * * * * * * * * * * * * //

dimensions      [0 2 -2 0 0 0 0];


internalField   nonuniform List<scalar> 
12556
(
36.90871411
36.90879961
36.90894683
36.90918262
36.95455714
36.95583955
36.95807888
36.96263039
36.97099991
36.98348807
37.00035808
37.00804424
37.01012906
37.00683279
36.99606406
36.98157243
36.97009696
36.96233158
36.95824978
36.95594998
36.90974107
36.90902948
36.9086687
36.90841979
36.72750328
36.72776625
36.72828961
36.72971725
36.77595604
36.782447
36.79527936
36.83505781
36.8742039
36.93544432
37.00657837
37.04250063
37.05366765
37.04188207
37.00482446
36.93900825
36.8800108
36.84066659
36.79618452
36.78284954
36.73167979
36.72909614
36.72787528
36.72720917
36.54768678
36.54844945
36.5499544
36.55293842
36.60220905
36.61832608
36.64971671
36.71632858
36.80992878
36.93841661
37.05197227
37.12165425
37.14546161
37.12367601
37.0558971
36.94503184
36.81976247
36.72835491
36.64896936
36.61831173
36.55827314
36.55242919
36.54965685
36.54852183
36.36922268
36.37030396
36.37316498
36.38044297
36.43541263
36.46854107
36.53617538
36.65364852
36.82350966
37.00750224
37.17372682
37.29129001
37.33990693
37.30700109
37.19696744
37.02092402
36.8324777
36.66572031
36.52933859
36.46912532
36.3915551
36.38003333
36.3745524
36.372422
36.19265842
36.19471321
36.20034861
36.21394277
36.28001722
36.34019189
36.46739495
36.65636294
36.89790059
37.15593448
37.41405742
37.63459159
37.75526107
37.70250431
37.51125879
37.21276228
36.91521108
36.67218688
36.45106448
36.34013065
36.23335214
36.21174679
36.20194838
36.19813972
36.01723716
36.02052692
36.03007889
36.05455257
36.14006427
36.24157764
36.45726508
36.70778818
37.02977978
37.40077097
37.8481185
38.35201652
38.69862344
38.58227287
38.12174083
37.59006635
37.09905743
36.72894183
36.42036154
36.23619631
36.08642697
36.04775269
36.03126973
36.02484098
35.84456248
35.85032024
35.86686687
35.90815717
36.01406984
36.17496494
36.47849462
36.80621219
37.23409991
37.77266171
38.59494331
40.0207153
40.7835451
40.64574846
39.23143446
38.20466052
37.40008421
36.84476755
36.431008
36.16159143
35.94972003
35.88864529
35.86252936
35.85241763
35.67596157
35.68464309
35.70968564
35.77198102
35.90679925
36.14026714
36.53033831
36.94657719
37.50138315
38.26572509
39.67086336
42.92914591
43.77105167
40.99340753
39.07417418
37.80890875
37.01339331
36.46705251
36.11331645
35.82622978
35.73616238
35.69700475
35.68206054
35.51568326
35.5290939
35.56664489
35.65617053
35.82195452
36.13423969
36.6078122
37.11796261
37.80371478
38.78547865
40.71272966
45.75464169
49.10972446
43.11713265
40.09930124
38.29530453
37.21897035
36.52160609
36.08689127
35.71674786
35.59241696
35.53755076
35.51667225
35.36614357
35.38448234
35.43502456
35.55376781
35.76029051
36.14762918
36.70339669
37.30651636
38.10839568
39.25721519
41.49736576
47.06934724
52.65191584
45.02601974
41.09391462
38.77041102
37.43055819
36.58860031
36.0774464
35.6231578
35.46112036
35.38807497
35.36019511
35.23169262
35.25701759
35.32465136
35.47914586
35.72039497
36.17757047
36.81088145
37.49819496
38.39211851
39.66321811
42.12421298
47.71662078
54.34045288
46.41583871
41.87391838
39.16927566
37.62422242
36.65812763
36.07973538
35.54470848
35.34423727
35.25228064
35.21659892
35.11207019
35.1435772
35.22624547
35.41402151
35.69782774
36.2157605
36.92385657
37.68381777
38.65452844
40.02360552
42.69182155
47.54999227
55.0578053
47.27022678
42.39621427
39.46007633
37.78520666
36.7220765
36.08465056
35.48229939
35.24297696
35.13191147
35.08814307
35.00864171
35.04815848
35.15161484
35.37710365
35.6877145
36.25723423
37.03147766
37.86108327
38.88461444
40.34813491
43.27755685
47.0388406
42.90176583
54.88234669
47.67399066
42.67368344
39.61908567
37.90205178
36.77420827
36.08798138
35.42813509
35.1561837
35.02657282
34.97506397
34.91748904
34.96421955
35.08573566
35.34174633
35.69810069
36.33303001
37.18497936
38.05634303
39.13009091
40.69125094
43.91284784
45.54566581
53.64558078
54.85371501
47.7411895
42.681713
39.67751114
37.98597035
36.81245503
36.08571975
35.37809681
35.07982232
34.93349952
34.87498032
34.8361751
34.88976629
35.02772518
35.31174536
35.69895585
36.38362052
37.30291038
38.28354747
39.48310971
41.14585162
44.32747922
41.95291768
55.04565084
54.08180985
47.28808358
42.50212453
39.64779662
38.0367574
36.83112745
36.07229372
35.32904816
35.00945111
34.84879381
34.78427597
34.7592915
34.81924054
34.97167296
35.2809714
35.69651999
36.42266136
37.40421622
38.55209208
40.01994558
41.9481731
44.97309509
36.49744402
53.67680075
52.28936195
46.30935766
42.11247052
39.56474241
38.04427877
36.82647498
36.04219048
35.27351979
34.93841738
34.76740655
34.69798146
34.6843561
34.74995267
34.91443706
35.24511702
35.68512894
36.44298706
37.47908738
38.7743851
40.67971984
43.05863705
44.3907255
28.99124657
53.04108199
49.90544244
45.0004744
41.62399008
39.48456976
38.02063023
36.79433192
35.99413973
35.21045316
34.8653449
34.68570182
34.61220465
34.60611973
34.67665501
34.85119685
35.19990018
35.65965226
36.43875045
37.51496312
38.85878811
41.09749394
43.55794351
36.28117846
42.01847343
51.5436181
47.66341585
43.86895464
41.24241522
39.37561396
37.95042637
36.72403906
35.92228536
35.13340327
34.78282141
34.59917465
34.52269401
34.52482909
34.59952564
34.78200648
35.14456315
35.61932284
36.41352454
37.51036555
38.88179189
41.10705419
42.84928755
28.1307833
47.81616944
49.82968444
46.22470512
43.25238082
40.97814382
39.20798142
37.83299554
36.62497896
35.83063758
35.04416413
34.69198998
34.50625173
34.42813327
34.43598162
34.51417059
34.70324523
35.07704615
35.5636071
36.36630854
37.47901363
38.86237739
41.0149828
41.97766331
25.91733863
46.8150509
48.61632081
45.55252054
42.83072453
40.69286733
39.00786529
37.68378945
36.50340889
35.72157545
34.9422886
34.59096685
34.40462473
34.3255352
34.34314595
34.42415801
34.61827454
34.99966036
35.4934727
36.30082939
37.42143318
38.80836728
40.84980869
41.05971015
24.14364382
45.54145958
47.5960306
44.94955994
42.42689257
40.4024605
38.79108634
37.51400689
36.36479915
35.59801454
34.83011541
34.48197324
34.29620527
34.21670664
34.24131064
34.32468574
34.52322348
34.910991
35.41069165
36.22029978
37.34495842
38.72720282
40.62557807
40.1508758
22.67206798
44.34025247
46.66852917
44.38828203
42.04420064
40.115796
38.56711906
37.3317876
36.21364267
35.46299352
34.70763488
34.363325
34.17859591
34.09904642
34.13752882
34.22280687
34.42464896
34.81574052
35.31722055
36.12769158
37.25397043
38.62397372
40.35522944
39.27521868
21.46062003
43.2011752
45.81310418
43.86120339
41.68135382
39.83720968
38.34173799
37.14285023
36.05365551
35.31928899
34.5787004
34.23956346
34.05638258
33.97705881
34.02423189
34.11119621
34.31631612
34.71109161
35.21523095
36.0256451
37.15190141
38.50230492
40.04544187
38.44514673
20.46758379
42.11639965
45.01545518
43.36312103
41.335843
39.56819478
38.11839868
36.95107468
35.88794803
35.16931342
34.44199815
34.1073157
33.92552236
33.84651927
33.91277596
34.00111795
34.20857897
34.60410848
35.10648429
35.91648095
37.04136233
38.36432634
39.70791818
37.6666928
19.65386065
41.07637913
44.26473073
42.88996511
41.00551216
39.3087922
37.89904376
36.75898871
35.71893252
35.01496912
34.30294337
33.97391917
33.79379745
33.7152186
33.7905045
33.88018129
34.09037025
34.48852134
34.99278218
35.80208095
36.92408933
38.21127264
39.35679236
36.94164015
18.98590954
40.07891339
43.553193
42.43823911
40.68853634
39.0584382
37.68459262
36.5681817
35.54836306
34.85785363
34.15729201
33.83210507
33.65314488
33.57492907
33.67531975
33.76608372
33.97802148
34.37529369
34.87520974
35.68388396
36.80111797
38.04446665
39.00246997
36.26935605
18.43676452
39.12308457
42.8762908
42.00503656
40.38336222
38.81644086
37.47540503
36.3796494
35.37751697
34.69910412
34.01363198
33.69410515
33.51663275
33.43881025
33.54593758
33.6378588
33.8522228
34.25203815
34.75513911
35.56292391
36.6730206
37.86576032
38.64772129
35.64742186
17.98458297
38.20647396
42.23030079
41.58788071
40.08858022
38.58206346
37.27149833
36.19396809
35.20727416
34.53975403
33.8622949
33.54537719
33.36866016
33.29109233
33.43095662
33.52378599
33.7394683
34.13714634
34.63295378
35.43993073
36.54018829
37.67734663
38.2953684
35.07237282
17.6124104
37.32752755
41.61330844
41.18473489
39.80297512
38.35462437
37.07274665
36.01148116
35.03826382
34.38034567
33.71863092
33.40742741
33.23194505
33.15464647
33.29495897
33.38885523
33.60674018
34.00742687
34.50989141
35.31543562
36.40296827
37.48132435
37.94755047
34.54012888
17.30710032
36.48458482
41.01961929
40.79385926
39.52545863
38.13346507
36.87892056
35.83235861
34.87092147
34.22164562
33.562568
33.25241865
33.07730037
33.00010158
33.18427981
33.2789474
33.49784472
33.89537517
34.38567984
35.18982574
36.26176203
37.279675
37.60622001
34.04677612
17.05902614
35.67608315
40.44525217
40.41382772
39.25509328
37.91798172
36.68974768
35.65665972
34.70556392
34.0637458
33.42365211
33.11945059
32.94528486
32.86821122
33.04041748
33.13611784
33.35699306
33.75806712
34.26183239
35.06345135
36.11714719
37.07407944
37.27247918
33.58871551
16.86082444
34.90079347
39.88781295
40.04350166
38.99111123
37.70765156
36.50495251
35.48436244
34.54243364
33.9074518
33.26091421
32.95623866
32.78218236
32.70505248
32.9389221
33.03525783
33.2569878
33.65457369
34.13731261
34.93663082
35.96982748
36.86588874
36.94689
33.16225161
16.7067104
34.15775803
39.34624052
39.6819715
38.73285347
37.50199774
36.32425201
35.31540106
34.38179927
33.75242802
33.13354532
32.83470128
32.66121832
32.58409044
32.7838503
32.88123262
33.10469868
33.50520125
34.01468947
34.80997833
35.82060931
36.65630607
36.62975675
32.76398058
16.5923148
33.44675071
38.81993357
39.32858016
38.47981892
37.30063967
36.14741916
35.14975505
34.22417882
33.60021558
32.95733671
32.65789432
32.48448599
32.40716071
32.69741359
32.79531262
33.01956974
33.41889221
33.89239681
34.68461138
35.6712675
36.44638754
36.32130782
32.39125183
16.51415697
32.76860202
38.30923959
38.98299428
38.23162162
37.10324565
35.97422898
34.98729906
34.07099093
33.4509167
32.8535651
32.55687339
32.38354668
32.30610301
32.49899983
32.59815651
32.82439325
33.22605455
33.77669499
34.56336536
35.52700226
36.2375746
36.02368098
32.04442
16.46955425
32.12645441
37.81900351
38.64788768
37.98912997
36.91005586
35.80477791
34.82809571
33.9267043
33.31057465
32.6264005
32.32981811
32.15638353
32.07854638
45.52773715
49.79399132
44.20181512
46.94071884
53.67861997
50.26873514
47.68805071
55.3782811
53.9893162
47.59602249
56.03647239
55.48747815
47.07448243
40.29148349
42.14307763
56.32366759
56.07585543
46.08901415
47.72951289
40.41854836
53.07659585
56.77258087
56.3467707
42.44436748
40.75514716
43.68467264
40.50433312
55.02453104
46.36477576
48.5302021
43.63816158
41.67008339
41.32184072
45.77111235
44.63976259
57.70516817
61.09382286
52.33343091
46.00719639
44.27060743
41.98007183
46.65998898
45.90163659
47.40601489
50.13657835
51.22520938
55.24550268
54.96412948
54.20504816
47.7125364
46.48854983
42.56782335
47.04903249
46.73918117
47.71596664
45.96467573
48.25025719
57.00045941
55.84915091
43.15110032
47.06093567
47.06855017
47.32862428
40.61068446
43.32342302
42.45676612
58.32207991
57.93275962
43.80185549
46.6270443
47.03689215
46.74804888
33.48987157
36.90578023
44.41680262
50.0620213
48.12914731
50.77295052
53.14885995
45.32987224
50.24223036
61.09194397
55.41194707
47.41737972
54.07188264
59.55391808
51.353288
52.05452765
46.47597963
52.97737899
51.48606149
53.36709244
53.13274754
55.10756582
57.40117774
52.18810684
58.78820427
57.05544797
59.71961015
58.95820015
51.92625368
48.469252
49.94899244
47.49795054
49.54310725
47.42163216
51.38960073
49.67438637
55.63764173
55.33336509
54.92317751
57.46557416
57.71869955
56.96509516
57.42601601
54.73648957
43.47368313
45.82326722
47.69648431
44.71072835
41.86351559
47.27992368
44.86984335
57.85630274
57.13127111
37.08085318
40.41248603
47.30054246
46.87043952
38.172442
34.31356628
41.70398218
38.41378555
49.56561784
58.52687968
58.3671413
41.68278664
40.72990789
33.42439221
46.7022774
44.4140253
32.32483901
89.58420144
34.20851357
32.36625876
43.79994541
40.47817714
44.42494825
42.21790182
44.27029966
48.89628083
44.81361704
71.66434582
51.02030005
46.33737463
52.10668115
51.55202802
65.96092835
55.01618543
48.78064392
48.01933941
75.96336329
46.75811805
45.05704548
48.19483765
58.79911423
58.6244728
51.3476441
49.31226073
44.63877599
60.87657596
48.5161179
58.41534685
45.82806425
52.90583973
46.71512295
44.59177443
41.90343556
55.83705284
58.11836638
58.30676195
57.7670481
58.08500737
55.77087341
40.30622634
67.44299091
41.35811641
42.58500975
42.1591262
44.69504323
45.68505013
42.60952282
42.65063485
78.85474595
51.39187773
71.30896506
49.48088975
66.06267538
50.36431488
60.07162052
60.29247629
55.00460155
54.99401214
42.96773661
57.94809175
56.53721153
44.17808848
42.12064913
62.46253615
45.48594882
56.37725863
42.09141013
46.86347631
46.47602341
50.34394809
47.76117493
67.27985052
35.8266011
44.48174269
43.95376029
45.16282651
44.67526298
35.95654678
66.47509573
61.4899415
51.9968341
61.98638871
63.08221263
56.39519263
61.55061929
52.31923208
47.61039747
55.35079969
47.50896768
62.01160532
56.33436923
48.38640451
59.35773192
66.25221067
59.34388646
58.92725884
52.27799196
47.52632645
52.18357299
53.54724257
51.65820483
55.69959336
48.00093212
51.13580725
53.49915659
56.37548458
56.56962684
57.95564502
56.85271234
56.27474651
57.38009882
57.00356767
57.82437184
60.01943139
54.88096773
53.74556056
56.04643685
55.20702224
59.95607965
48.57722675
48.44027455
50.6473648
50.53918669
55.88706179
63.81040639
55.80681711
43.57753652
43.38147391
46.14403799
45.98035371
42.13238733
43.8608261
57.49106339
41.76633342
42.57331122
39.14186687
45.78369882
45.3244072
46.34219082
45.92794852
39.31399191
40.43930869
37.16619432
36.99457515
40.57818179
40.41876253
77.2391623
40.0630025
53.10157242
51.12929215
43.74974857
43.24866729
32.70801392
32.89905349
44.53057442
52.9105038
33.71136658
89.98092758
55.42361516
81.69554474
33.63234854
41.90702172
63.59739335
45.85469656
71.20289126
42.06459567
44.55562779
44.22206837
45.98298293
46.5030774
44.9477942
38.27789523
42.74367585
55.46335246
56.03787711
56.67348834
59.64304465
46.29028328
56.25332337
54.99048808
53.67609246
40.06520827
58.89118658
58.84754694
48.87503683
44.69789949
44.31879035
47.73394689
49.56884191
44.45909116
44.80462836
58.85368322
62.72850932
60.78922887
60.94417703
55.04966119
45.47984282
44.98269109
54.31760102
54.03697639
54.72604333
46.98107005
48.57651849
48.29532873
48.91843109
48.66601308
47.14785685
47.34482057
46.98600381
42.2480901
34.07885542
40.48657336
40.02093625
82.78431762
63.61057458
48.33361479
60.6504949
65.44585668
63.27130675
56.98236989
51.33169953
49.62289454
53.31169496
51.86431675
57.38701805
55.59461827
54.01108332
54.34880107
56.83582888
49.13553342
49.19857561
48.99532369
43.11025251
43.70501521
47.86614842
44.95901558
44.7060243
55.51119349
57.5621505
57.92529961
57.88885125
56.80435308
57.69884848
57.47301483
57.86860611
57.74932435
56.80485312
44.65825501
47.78797602
47.45898759
48.19760971
47.89358409
44.81626437
44.23519144
37.87210276
38.26706954
34.11455722
34.43182845
42.41026008
46.80552094
42.14871854
42.94567232
38.42124962
38.86358059
45.34546522
57.58447259
44.4276558
49.30303036
81.74782312
42.60213247
37.68928461
35.58513669
41.22769541
33.80907126
34.04337522
33.25867795
39.54186007
67.26439438
38.0335911
41.75465668
40.8531223
39.87070865
39.4352688
33.25493945
44.84414389
41.85325568
46.33950836
32.21775142
102.4265967
48.21176806
44.01243594
44.71745431
34.0181284
32.52233237
62.68436445
62.38754714
61.28098636
65.59550539
65.30542659
40.73429419
41.53390256
76.55991765
58.33979746
58.19287746
52.48410848
67.4170134
52.75399757
67.72077082
53.77701299
54.94221205
45.65831491
42.68680014
63.16785581
72.61038567
64.69505227
50.1464306
40.03358633
67.76263652
81.35436983
50.88686885
64.2382664
87.39215285
43.29940161
48.1756088
41.01794224
42.46374906
79.47596652
79.25566546
60.98435351
56.18268867
66.12551324
61.97952309
55.2606264
51.31176885
58.86887068
57.81756312
58.23636527
59.239708
60.79457925
60.27368582
58.42181954
47.26709702
45.94191785
55.00234091
57.45935381
55.83506796
49.01717778
56.46844396
55.13860113
54.76627178
54.21190676
47.94168437
46.18365583
47.94979672
42.69415475
49.3736034
48.09373801
51.27393976
45.75032548
44.61202113
47.60144798
46.29062689
49.17818997
51.91406748
40.50464186
40.65099841
41.14581503
40.62460511
34.67383131
36.37232165
41.72601021
41.29266697
64.62964171
63.87692551
63.3716753
56.0040387
56.74472596
54.73485485
55.71970079
63.73997172
59.53774433
57.32853011
57.19202751
56.93090981
57.2723231
59.90319749
60.02215288
53.16013784
54.39742178
64.18241679
64.74449735
66.12891416
65.04762426
60.35219562
66.64773212
68.44790189
67.01882696
68.37057907
67.47106805
69.0080599
68.08740963
57.48773916
65.15646414
66.34270793
45.80661603
52.46160322
51.38129874
53.48231712
52.7543264
46.53292351
49.89229294
49.15708069
51.00675366
50.14585292
53.26393641
56.27173716
55.60963488
57.04611723
56.48109067
53.84057977
49.25461292
54.44614102
53.7282019
55.38047111
54.68238326
49.7061801
53.90288289
53.91893695
55.7824185
56.82516053
54.99401279
53.88917402
42.47559769
41.8970868
43.47953422
42.67863494
40.97228382
40.40652828
41.71279348
41.14348698
47.99428674
47.31312223
48.92084796
48.22768456
45.9644095
44.011464
47.06732133
46.38768755
43.84282129
44.14355946
44.3279379
43.87777319
63.60564846
45.94448289
47.6862871
44.26228347
45.28139737
37.3561143
37.71646064
44.07546436
34.8599525
34.59775825
35.24916491
34.96657491
34.40978697
42.64656043
34.6764313
36.89878684
39.84171497
41.8482365
46.64568385
39.37534826
36.45308547
40.29109572
39.41065193
35.71356191
35.37122403
36.24598322
35.8408163
45.50340397
39.02029521
39.55118648
72.5782433
41.79657472
71.54088833
61.96177458
70.996645
41.90740174
84.67590633
41.77190644
81.17511935
72.12586095
37.54760029
36.30174513
33.50428774
33.73863125
41.06879928
39.82339255
33.26342122
33.45358807
77.64586544
33.17825875
39.22913066
38.48213299
90.66565487
94.81374037
32.17466986
98.24491306
83.45472669
47.79879875
33.94650258
90.19990479
63.93755526
97.52943275
67.684229
32.66503557
43.29349545
41.05974513
39.52911198
75.60057197
74.94098351
55.50807758
49.34027415
48.94729381
76.25543361
40.05484807
47.99134956
43.15146768
58.32177844
58.47018549
56.2080337
47.79497369
46.76946197
51.90867143
59.87529154
47.45625184
47.79706053
42.00497883
42.4067929
45.33259435
53.36466044
58.33795651
61.79248501
50.64584024
49.48813063
49.43460043
49.45259248
49.49123481
50.79984333
41.34517344
40.61281379
47.88801594
50.16139625
52.32944726
58.13510357
42.27850371
41.86223218
36.49922597
62.87309546
64.90763102
57.03054755
49.39900841
49.25665105
49.346844
49.13097202
45.50659769
46.25940137
46.62904856
47.7668675
50.06733704
38.06294705
42.85513627
42.41570417
62.61115246
58.95655152
45.12641398
32.85397726
32.90621317
34.49911132
54.11272696
78.51587601
70.16010159
40.46473874
43.4524991
41.69769846
32.29021887
34.1399244
32.7585203
32.81115488
32.40353806
72.56651954
64.98573336
50.80258546
54.68767203
74.77138716
41.4230849
40.89884281
47.29397919
59.94772505
49.026043
47.17733208
49.89188388
43.13596458
44.06320867
41.79344115
84.45383621
87.60659123
88.71212064
76.97157249
86.19273932
43.96670286
44.41413383
48.44326067
74.2563225
67.02079901
63.44339113
77.6763271
74.44627204
43.54088798
52.97744349
50.54356967
68.27472191
67.02425407
51.97767068
50.97095175
49.8215016
42.50974781
63.61153824
45.30565271
46.46221647
59.9161393
45.04959484
47.214519
66.08607424
67.04086479
62.31771966
62.47766189
60.85229069
60.6989675
57.12956557
58.45388678
57.96719765
60.50454152
60.22988264
60.99050084
51.22435635
52.74401863
59.3739784
61.28836549
68.79671829
63.9984225
68.65950284
69.09428814
65.37350645
43.74158364
46.4906542
45.86185715
51.00247415
50.70722024
47.23153642
43.26324241
42.96288073
45.32144571
44.88840568
52.18531625
54.95785328
54.54171708
57.51471723
57.08130539
55.05178556
48.36958941
51.75986704
51.41163862
54.12418393
53.71632287
50.64593164
44.69186027
45.29717811
48.99749843
48.00649659
43.8967816
44.49439314
48.89039284
49.49670851
50.97991494
41.26452938
41.07973249
42.70655481
42.47070686
38.32147406
40.81804456
40.66693094
50.1851523
48.04765441
48.68098542
62.11714294
61.28704296
47.52357312
48.55994503
63.16946876
60.89689495
61.30595136
55.58463297
44.70723439
45.27979698
43.40397938
42.99584088
38.44352995
39.76972216
43.89477667
43.52592776
34.71709311
34.77825612
37.28242831
36.86391367
34.52039586
34.58912212
77.05041257
32.69026008
34.59542446
33.48310922
109.4543084
32.42699644
46.41858819
79.31021687
73.63161914
32.41261601
32.45182754
33.79469744
88.62375878
93.65710981
91.49825742
76.14530057
33.49236848
32.32000512
32.36829848
53.60230653
40.56130219
40.84072161
75.17467944
74.0772176
57.43533186
54.39798775
43.4954454
60.81764968
64.0316418
67.73062748
49.24620726
73.55733957
64.1952486
73.65807343
71.95791438
52.47899473
46.14448153
47.19299116
54.12069046
55.63209997
56.03101759
54.99458035
55.27830417
62.16021061
61.94679854
62.41389538
60.91356843
61.37898993
61.4223685
54.63957889
47.09836367
47.48096913
46.53431767
46.79636877
55.16174785
64.43962526
63.77086387
63.91598089
62.94762628
63.37300606
63.83041874
53.83385168
48.62238408
49.07223218
47.84036678
48.23808324
54.14041372
54.65102765
54.51885892
53.91881241
53.94263486
37.98208459
40.71301854
40.56408609
34.20142297
36.99242231
36.85151117
37.41615726
37.15943019
34.29417045
78.20018638
79.83917377
71.23987707
79.6615338
33.23631764
33.17668533
33.40071914
33.32045467
32.71873003
34.87911672
32.97895534
33.12872587
33.89338306
36.49842993
36.3754751
36.7315654
36.61195602
33.96607995
33.60166034
33.47909042
34.9686192
33.8345666
33.2012207
80.82148516
77.30767961
59.84528337
80.31903297
36.31272449
34.99702378
38.75193222
33.32642046
35.59798294
35.46119215
32.24789033
102.0756915
103.1126725
66.33056347
96.88566257
89.27547504
32.64115901
32.71087042
34.08620706
32.45505234
67.74619282
76.60016382
68.73982159
71.65907644
66.30160985
55.39754757
73.74929971
67.1523537
66.53165628
65.89813644
76.24205604
58.65495072
66.10143324
59.45373844
55.89067261
63.86735611
56.02371102
59.86993056
68.66764082
70.32850854
61.01294825
67.2599505
72.4827272
72.04262679
73.78662618
70.7095707
74.77267019
84.69338742
84.19143673
82.51936647
54.72561606
75.27911381
68.81072483
82.62022914
84.56922715
59.7656496
65.97804122
71.19655027
85.98121488
73.7501185
57.75029979
61.36664808
72.83376475
67.64003381
73.76367225
64.51114523
68.75772105
72.59704187
74.93718857
74.09685939
57.35026611
57.75213867
58.12336432
56.82431328
56.70240752
56.59188246
59.56535376
59.87496414
60.32091878
58.82903008
59.23591892
59.07154638
46.83689019
46.75574375
46.78904149
56.81630174
56.40656879
52.21779566
58.23369873
58.22217801
56.91351034
55.07910881
56.01335736
51.01997392
46.514998
46.43574536
46.78810286
46.67407864
48.78685148
67.55038939
59.15680991
44.49388681
70.22791982
69.73968242
69.19188586
49.71364478
67.59497305
66.29912404
43.68379137
44.26452607
56.37536372
65.41585528
63.03445856
59.44062542
58.96518101
57.83643723
60.57729126
59.99714243
59.67613477
70.18313949
69.90610625
63.01352405
71.03262908
73.47630961
65.25423539
69.83733293
70.12421759
65.80414081
63.97614836
63.97846978
63.91741658
63.94174713
65.4419832
67.11313878
67.71783839
68.31067279
72.52091362
72.11098989
72.93533992
72.80371791
68.11466085
69.53201821
71.54076771
72.90527036
69.8413812
49.31069249
49.11147837
45.78730449
46.72083758
50.24422337
50.03849993
43.86801148
43.55174057
44.52597761
44.1841307
55.79901766
55.37428722
52.7014102
54.43942711
56.65417727
56.22584094
52.5300227
52.1594687
48.84600511
50.15011948
53.30937947
52.92138168
53.95099388
50.4179744
50.91455017
49.48074311
49.95389595
53.71842737
54.25149084
52.43176051
53.0772713
51.41717566
51.93085833
54.29330737
42.27645476
38.70473851
38.89293814
38.36547638
38.53661994
42.08723668
43.14587593
39.52213707
39.80273087
39.08189088
39.29202739
42.89754587
40.77097846
37.38444621
37.55758846
37.09102531
37.26232855
40.62061653
41.52199845
38.03296526
38.2032266
37.69909756
37.87683507
41.3408238
41.72969841
41.51915071
47.76838819
45.26658048
45.49578251
44.7986677
45.00791526
47.53191119
42.21116309
41.98259032
39.82696347
39.77866663
45.63996048
43.19467398
43.27688422
40.21638636
40.76946521
44.7862766
46.86225521
44.34867595
44.52166374
43.89388921
44.0154184
46.58272542
40.37671582
40.27074978
61.44704035
60.74179117
62.93863026
50.40731746
55.01097445
46.36125599
59.83964854
60.74883697
58.72420962
59.34877605
47.05142066
44.46262579
53.8892918
49.74869
59.33051831
59.87757825
44.92904005
37.42139539
40.04276541
39.90291333
40.3888152
40.25323431
37.62970877
34.79325631
34.65955955
35.15758224
35.03771074
34.28289687
33.63402259
35.11095181
38.52682885
37.85874427
39.5537167
39.25038684
36.86283172
37.27862864
35.28651628
36.32319603
36.78263787
40.02707941
36.80075063
36.99685979
36.43390053
36.72369042
39.94224737
35.60078965
35.47582319
36.09880537
35.96195225
69.68360314
49.31001847
51.32390837
44.86601507
47.09695572
70.88705759
69.55414296
68.24399528
53.94615258
60.56976416
72.22000358
79.69838754
60.3119603
63.93265817
50.93752538
55.78103221
81.73322625
32.99547915
32.94536639
33.11034101
33.067052
33.98389722
34.27805529
36.57734377
32.72754571
32.71352933
32.86518424
32.81436098
33.5909089
36.03307209
35.89056102
36.26395205
36.13455662
33.6525646
33.33683499
35.56031771
35.24636577
35.80808522
35.62856463
33.37271928
75.6439578
35.32756687
35.07423853
32.97990572
88.47895858
107.4706182
109.3954171
107.9534984
107.5374774
91.65614083
32.22707309
91.49008418
75.82637534
78.85538171
33.86497298
32.5029424
32.57052218
89.70237827
95.15478026
94.24247621
82.72303522
87.8538264
98.55146939
95.7343045
71.68008228
92.49251261
84.86931793
32.41344286
32.30015634
33.18958784
36.74180493
36.79651122
36.86195497
36.81859321
36.90414508
36.91716115
36.93164099
37.0123981
36.98688362
37.03429534
37.08505316
37.03520091
37.09546816
37.11455098
37.05286575
37.11581917
37.10503686
37.04757737
37.09705488
37.05562965
37.01929007
37.0373879
36.96473934
36.95779408
36.93854041
36.85214271
36.8935187
36.82842013
36.76710275
36.84918097
36.66281599
36.77409371
36.78274336
36.81458447
36.94185231
36.90751724
36.9835742
37.10047795
37.02750075
37.13431477
37.21731668
37.10935271
37.23762762
37.27373591
37.14393078
37.27728441
37.26572871
37.13314027
37.25162695
37.17853278
37.07690843
37.14781565
37.03486771
36.9748641
36.99297759
36.86534567
36.84976962
36.82445471
36.7075274
36.74612277
36.65186794
36.81600019
36.77869085
36.87333088
37.05056633
36.96193705
37.10984494
37.28419271
37.1358876
37.33906819
37.48756771
37.26828869
37.53144012
37.61227387
37.33656159
37.62687586
37.61866005
37.32397046
37.59422157
37.45748055
37.23325226
37.40724691
37.21993814
37.06794837
37.15058146
36.94836999
36.87848019
36.88577104
36.71789738
36.70448301
36.69053994
36.91157955
36.834556
36.99004006
37.23891708
37.09033461
37.32841391
37.6147467
37.35093917
37.71565222
38.03092505
37.58869918
38.13848234
38.36441506
37.7444641
38.40195917
38.3829323
37.72946227
38.30242706
38.03038581
37.57833944
37.93080843
37.59046992
37.29090856
37.47390055
37.14284703
36.98539568
37.04318575
36.78448413
36.72865614
36.77776599
37.0709168
36.9451991
37.17547988
37.53002818
37.30241651
37.66714634
38.16448476
37.72759144
38.36888024
39.16013905
38.23062122
39.48401713
40.36614002
38.65220224
40.43973382
40.19445193
38.61152723
39.82018259
39.14038285
38.25354347
38.9026233
38.23007119
37.72506389
38.02379617
37.47156703
37.21226528
37.31360889
36.91727823
36.81068927
36.9058017
37.28448014
37.12009889
37.42438898
37.9226565
37.6218917
38.12934422
38.97525154
38.34680902
39.38426929
41.82445917
39.58325309
40.85489672
41.40250819
40.30161691
42.11897167
42.10741612
40.77328523
41.50671019
40.79309034
40.27361658
40.50276851
39.18390315
38.44320038
38.82589785
37.94351311
37.57781569
37.70205554
37.11721717
36.9619346
37.07191314
37.54830578
37.3511716
37.72673398
38.37931313
38.04013906
38.65905345
39.86407681
39.2070879
39.9539356
40.60898449
40.26451638
43.40391204
44.1297735
43.52843611
45.86879866
44.34292956
42.86534011
42.59638778
40.37048866
39.47658254
39.8123045
38.50930087
38.07634003
38.16813768
37.36738523
37.17736247
37.25898636
37.82259867
37.61669217
38.03410091
38.81120404
38.48956901
39.14638315
40.5950348
40.06318466
40.93112486
41.79085547
41.53372935
45.97060525
47.26645666
47.01636169
50.70754265
47.75131568
46.50758302
44.60647565
41.56762982
40.69997876
40.81436351
39.09341589
38.66606197
38.6523735
37.63277103
37.43514209
37.45225028
38.08812454
37.88984455
38.32529469
39.19393815
38.91104353
39.56792324
41.17887113
40.75114951
41.66605356
42.63454336
42.44301676
47.19052853
48.85403855
48.73553945
53.45598469
50.16584792
49.39747016
46.14227985
42.57011272
41.87301743
41.67159216
39.59781667
39.24181778
39.07591127
37.87479217
37.69605691
37.64512602
38.33641431
38.14966905
38.59320354
39.53335917
39.28045946
39.93894978
41.69121583
41.30946169
42.27692984
43.33236337
43.15382622
47.72789554
48.51831789
48.6749635
54.70361945
51.53816135
51.15490477