/*--------------------------------*- C++ -*----------------------------------*\
| =========                 |                                                 |
| \\      /  F ield         | OpenFOAM: The Open Source CFD Toolbox           |
|  \\    /   O peration     | Version:  v1912                                 |
|   \\  /    A nd           | Website:  www.openfoam.com                      |
|    \\/     M anipulation  |                                                 |
\*---------------------------------------------------------------------------*/
FoamFile
{
    version     2.0;
    format      ascii;
    class       surfaceScalarField;
    location    "0.94";
    object      phi;
}
// * * * * * * * * * * * * * * * * * * * * * * * * * * * * * * * * * * * * * //

dimensions      [0 3 -1 0 0 0 0];
oriented        oriented;


internalField   nonuniform List<scalar> 
25162
(
0.0004737024855
0.9161762975
0.0006220773175
0.9165516252
0.0007769115858
0.9164951657
0.0003815283086
0.9164951337
0.000550249569
0.4583374066
0.0003941217462
0.4582884768
0.000499572622
-0.0004880494614
-0.0006258751761
0.4582569621
0.0007189131099
-0.0008098840342
0.4582017857
0.0009430983509
-0.001086484259
0.458177854
0.001238630244
-0.001405598135
0.458163556
0.001577042145
-0.001740490695
0.4581845201
0.001890970551
-0.002024283144
0.4582413133
0.002114469814
-0.002166456861
0.4583284723
0.002171484529
-0.002125873822
0.4584208497
0.002040024111
-0.001922768311
0.4584743807
0.001778387636
-0.001626311752
0.4584915969
0.001469714811
-0.001305398459
0.4584813124
0.001159086092
-0.001018634426
0.4584763141
0.000857320292
-0.0007969277516
0.4584442529
0.0007026748942
-0.000574236986
0.4584560255
0.0004682115319
-0.001842537486
0.9185853375
0.000320687349
-0.000413487359
-0.001151353886
0.9186588164
-3.731084785e-05
0.915735957
0.9137626892
0.001306221668
0.9148700759
0.002134812608
0.9157230342
0.002569429777
0.9160605486
0.0009138363616
0.9167486628
0.001402064277
0.4579576474
0.001094749523
-0.4581385605
-0.4581008735
-0.001342695077
0.4577938626
0.001649705998
-0.4579251783
-0.002023956981
0.457481486
0.001156091069
0.001311558185
-0.2288909641
-0.001384912938
0.2287776317
0.001498245423
-0.001963971086
-0.2288269274
0.2286818093
0.002109089197
-0.002660634757
-0.2287946441
0.2286196649
0.002835613967
-0.003402132062
-0.2288334506
0.2286587852
0.0035767974
-0.004017077755
-0.2289587357
0.2288140749
0.004161734448
-0.004449326519
-0.2291463362
0.229110236
0.004485430841
-0.00426072975
-0.2293075612
0.2293674003
0.004200890597
-0.003823536358
-0.2294046628
0.2295526281
0.003675571061
-0.003171711602
-0.2294424583
0.2296280445
0.002986125417
-0.002475173034
-0.2294234043
0.2296040258
0.002294551557
-0.001853293888
-0.2293756784
0.2295268281
0.001702144183
-0.4588293724
-0.002487280566
0.4601990831
0.001117569903
0.0001305532944
0.4608474118
-0.00176279654
-0.4592151686
-0.002087122268
0.9178999226
0.0008188651361
0.001953672002
-0.001282109449
0.9178538036
0.0002151256892
0.9142387218
0.9139778148
0.001678604866
0.913191471
0.004416654626
0.9129849845
0.007482594724
0.9129946085
0.003281571479
0.9141674262
0.006782259922
-0.4578198961
0.4575307575
0.00357071014
-0.4574759044
-0.0036970735
0.4579545515
0.003218426452
-0.4568733129
-0.003501356162
0.4564094075
0.001915166803
0.002050094708
-0.2282251824
-0.002343641457
0.2279831005
0.002585723334
-0.2279660291
-0.003435480659
0.2276446056
0.003756904125
-0.2277839373
-0.005023032152
0.2263713937
0.006438663509
-0.2261064156
-0.01136633367
0.2246325787
0.01285530538
-0.2268487714
-0.01650339773
0.2259983891
0.01736457212
-0.2292044083
-0.01871342206
0.2292089969
0.01870662022
-0.2314689105
-0.01731800702
0.2323778285
0.01639565274
-0.2318371245
-0.0125311588
0.2334036381
0.01095110641
-0.2304335464
-0.006104136304
0.2310185073
0.005518702429
-0.230355766
-0.004483993206
0.2306886477
0.004151111526
-0.002966205906
-0.2302002674
0.2308493218
0.00231715152
-0.4627379273
0.0009690674976
0.4614513003
0.0003175595383
-0.4598650645
-0.0005674700026
0.4597544634
0.000678071104
-0.0005462598726
0.9193332445
-0.0005652136952
-0.000321848302
0.001177149302
0.9161303944
0.0005424656969
0.9148734055
0.9145202805
0.0007012773128
0.9124901937
0.001540249935
0.9121460119
0.003068458858
0.9114663995
0.003730723348
0.910780727
0.002724434667
-0.4566237207
0.4560365598
0.004317884182
-0.4593007068
-0.005713205859
0.4560326276
0.008981285113
-0.4575959923
-0.01049958285
0.4588448669
0.002938586312
0.006312121887
-0.2270857428
-0.003099569071
0.226780906
0.003404405906
-0.225781643
-0.005139766596
0.2235678178
0.007361982663
-0.2201649423
-0.01455329375
0.2178089953
0.01694612646
-0.2194626657
-0.02354309478
0.2175879258
0.02545521077
-0.2229784415
-0.03007764839
0.2218644539
0.03120952712
-0.2289987151
-0.03324341238
0.2288147075
0.03341929542
-0.2353143207
-0.03224824913
0.2362774275
0.03125375743
-0.2390008335
-0.02651793599
0.2410537587
0.02442211558
-0.2375010043
-0.01707722891
0.2401171847
0.01442844786
-0.2342386012
-0.001978878912
0.2387165369
-0.002500721769
-0.002867773657
-0.2316186103
0.2315910948
0.002895289225
-0.46129259
-0.004256467402
0.4623206887
0.003228368731
-0.4603589031
-0.002180469363
0.4612026379
0.001336734611
0.002073521487
0.9188919287
-0.0008894205185
-0.0007427851128
0.001519057875
0.916684858
0.0006935595948
0.9156989037
0.9152138401
0.0002996857188
0.912190508
0.0006980629425
0.9117476346
0.001354283792
0.9108101787
0.00188725063
0.9092305613
0.001017198871
-0.4555994508
0.4546581058
0.002828595604
-0.4543642525
-0.003453427799
0.4534837057
0.004333974621
-0.4523993872
-0.005508047838
0.4512490413
0.00346497248
0.003193421298
-0.2270670417
-0.005545877604
0.2248612483
0.007752475503
-0.2168190476
-0.01666163678
0.2163423282
0.01718336044
-0.2104552132
-0.02166894068
0.2081153271
0.0240726543
-0.2120335502
-0.03045242166
0.2103254702
0.03220838911
-0.2184041593
-0.03648987846
0.2172540477
0.03765760715
-0.2277194422
-0.04041549783
0.2271144004
0.04101002664
-0.2386844756
-0.04118390022
0.2394165022
0.0404131746
-0.2473296232
-0.0349825033
0.2495404669
0.03270819633
-0.2548018404
-0.01866785401
0.2544314136
0.01896589879
-0.2408307602
-0.01367274183
0.243717446
0.01074816568
-0.004310029831
-0.2328219637
0.2332932166
0.003838776942
-0.4637667291
-0.004838239255
0.4651178741
0.003487094291
-0.4619674901
-0.002567254695
0.4627385352
0.001796209616
0.002698518395
0.9202701496
-0.002382972132
-0.001693767145
0.001420892387
0.9179624841
0.0006318528227
0.9164879433
0.915845693
-3.795183598e-05
0.9122284598
6.768911899e-05
0.9116419937
0.0005027895026
0.9103750783
0.0006967399379
0.9084058938
0.0006307171085
-0.4536233376
0.4531398924
0.001180185086
-0.4527215349
-0.002340448176
0.4517122425
0.00334974058
-0.4500348253
-0.004209961919
0.4486213159
0.002808415529
0.0028150558
-0.2186709624
-0.004912246178
0.2165662639
0.007041561872
-0.2052329661
-0.01441249737
0.2027436342
0.01697754446
-0.2038868912
-0.02629449165
0.2003477038
0.0299148587
-0.2085057707
-0.03459912421
0.2084553519
0.03469374194
-0.2143220976
-0.03576408756
0.2147530436
0.03534200955
-0.224236885
-0.03917327702
0.2229561277
0.04045200208
-0.2421247006
-0.03988740931
0.2416374907
0.04035266528
-0.2612601602
-0.03204927257
0.2584977469
0.03474520632
-0.2594546143
-0.03040737755
0.2623240799
0.02744917741
-0.2529806559
-0.01782374912
0.2561365481
0.01459780044
-0.005035666764
-0.2368280411
0.2385645573
0.003290470838
-0.4662393417
-0.004849956431
0.4673506882
0.003738609954
-0.4631059757
-0.002951801073
0.4634133579
0.002644418967
0.002010949588
0.921984564
-0.001762097185
-0.001963266813
0.001031111451
0.9189423222
0.0003863789897
0.9171326758
0.916232072
-0.0005483587959
0.9127768186
-0.0009311233361
0.9120247582
-0.001091792826
0.9105357478
0.0001428929538
0.9078739653
-0.000702757321
-0.4528908399
0.4524564573
0.0005772755449
-0.4504455324
-0.0009599668903
0.4498901811
0.001515318142
-0.447900208
-0.002718425229
0.4471060163
0.001690242414
0.001823084397
-0.210943427
-0.004727629247
0.2091402561
0.006578779537
-0.1950462326
-0.01281146531
0.1948874971
0.0130655061
-0.1949239484
-0.01852151376
0.1937365809
0.01978968889
-0.2033687488
-0.02322333835
0.20206385
0.02455485413
-0.2086657651
-0.03837191006
0.1058864606
0.1001405909
0.01831790411
0.02269271957
-0.02794652525
-0.1088306463
0.1082526091
0.02852456245
-0.02262801154
-0.249019847
0.04297210248
-0.02305556954
0.1254304849
0.1263008407
-0.03753221874
-0.2608777588
0.2632561474
0.0351106592
-0.2710915998
-0.02569614244
0.2726295571
0.02406619874
-0.2641941361
-0.01826984685
0.2670253869
0.01534315339
-0.007304889156
-0.2455154456
0.2477197974
0.005064157103
-0.468435169
-0.003851126154
0.4689696105
0.003316684602
-0.4641639927
-0.002392526257
0.464901012
0.001655506903
0.0007418246391
0.9230796186
-0.0008074319506
-0.001029447267
0.0001897421755
0.9194944047
-1.988478275e-06
0.9173244064
0.9162300835
-0.001107928919
0.9138847475
-0.002139991376
0.9130568207
-0.002936560298
0.9113323167
-0.001446483265
0.9085293978
-0.002145509479
-0.452375528
0.4523206195
-0.001391574757
-0.4495893561
0.001385032041
0.4494133816
-0.001209057473
-0.4452564166
0.0009497883656
0.4442858693
-6.022309128e-05
8.823639432e-05
-0.2050520594
-0.001606558232
0.2042239261
0.002493936982
-0.1902239226
-0.005690502567
0.1893071351
0.006710959301
-0.1913196681
-0.009833515358
0.1904979977
0.01073720494
-0.2008172558
-0.01239472716
0.2007526468
0.01246900711
-0.09264195375
-0.008131365582
0.09253471232
0.008238607008
-0.03002503514
-0.1383320869
0.1411176791
0.02723944298
-0.03207779721
-0.2706410337
0.2734715473
0.0292235001
-0.2801613811
-0.02137999782
0.2825308873
0.0189171007
-0.2746714687
-0.01202925681
0.2766793931
0.009916495522
-0.006527120106
-0.2531224632
0.254869203
0.004722411027
-0.4698754484
-0.001871096082
0.4705854784
0.001161066035
-0.465467729
-0.0006792785774
0.4659242299
0.0002227777015
-0.001203775635
0.9233915295
0.0006937013159
0.0001981633485
-0.001001077366
0.9192917064
-0.0005431288833
0.9168664579
0.9156869546
-0.001677069915
0.9155618174
-0.003276618545
0.9146563693
-0.004941027553
0.9129967258
-0.002869309526
0.9100331454
-0.00357546563
-0.452553621
0.4527790177
-0.003094706273
-0.4494788252
0.003369097955
0.4497429278
-0.003633200541
-0.4438025038
0.003898784161
0.4436248435
-0.001680714423
-0.002025994857
-0.201912934
0.0008156914971
0.2012793897
-0.0001048254988
-0.1867625834
-0.002365389658
0.1860815935
0.003171523056
-0.1895395413
-0.004942421335
0.189387288
0.005187541839
-0.2022463958
-0.004405176621
0.2030520963
0.003604458376
-0.09619853006
2.120706326e-05
0.09678886145
-0.000611538446
-0.01342709665
-0.154182114
0.1547819401
0.01282727049
-0.01718454115
-0.2794540868
0.2804213856
0.01620224168
-0.2874730132
-0.01289013308
0.2885900117
0.011670316
-0.2813993395
-0.007635955311
0.282556242
0.006352458555
-0.002628952581
-0.2583569107
0.2593386628
0.001577851798
-0.47156295
0.0008043865019
0.4723507163
-0.001592152807
-0.4660920019
0.001887915137
0.4661466012
-0.001942514403
-0.003509918895
0.92250834
0.002403606426
0.001989502025
-0.002434483177
0.9182162707
-0.001250663587
0.9156826384
0.914436291
-0.002209757731
0.9177715752
-0.004540682306
0.9169872939
-0.006835618884
0.9152916623
-0.004293578758
0.9124964836
-0.005005378396
-0.4532966732
0.4538136943
-0.004810599825
-0.4501563199
0.005420065474
0.4508595929
-0.006123338487
-0.4436956295
0.006846500366
0.4439318061
-0.003317554507
-0.003740703573
-0.199742706
0.002685459012
0.1992514619
-0.002100062327
-0.1844183554
0.0001120255675
0.1839666139
0.0004866780213
-0.1893635097
-0.001497162567
0.189528732
0.001437727503
-0.205793755
0.0003120540759
0.2067710761
-0.001286101054
-0.09971217241
0.002156951237
0.1000214679
-0.001216318459
-0.001249928257
0.004306473794
-0.1525773945
0.1516228466
-0.003351925887
0.0002240436763
-0.2810712095
0.2804315331
0.0003979463687
-0.2908444474
-0.0007749144306
0.2909872055
0.0005190817042
-0.2848652159
0.0007582029485
0.2851986058
-0.001229096358
0.0022481628
-0.2602457718
0.2603220648
-0.002398696788
-0.4722084156
0.004627801612
0.471649271
-0.004068657084
-0.4658720415
0.003865207232
0.4661304948
-0.004123660495
-0.006027668862
0.9203999159
0.004343406972
0.003792685934
-0.003966256587
0.9161548584
-0.002004099694
0.9137204815
0.9124321913
-0.002812301016
0.9205838762
-0.005637801405
0.9198127943
-0.008655827835
0.9183096888
-0.005646681294
0.915813674
-0.006326336913
-0.4545981921
0.4553829377
-0.006431426902
-0.4516919855
0.007390318135
0.4526379659
-0.008336298571
-0.4444971268
0.009448182431
0.4452178839
-0.004936644631
-0.005192377392
-0.1979259699
0.004175910971
0.1975156512
-0.003652503684
-0.1828409544
0.001928207699
0.182529767
-0.00144756432
-0.1903237068
0.0009100548117
0.1906791221
-0.001147959066
-0.2096803397
0.003396922308
0.2106390491
-0.004354217967
-0.1018600989
0.003442415228
0.1020755691
-0.001814522927
-0.001843362554
0.01396219151
-0.1431431079
0.1417986535
-0.01261773717
0.01362696737
-0.2775453893
0.2765868443
-0.01270166275
-0.2910600271
0.01234714867
0.2885857111
-0.009997427638
-0.2850560439
0.008655334547
0.2844185699
-0.008165705727
0.006555339871
-0.258281286
0.2575770339
-0.005922635982
-0.4707897533
0.008257515372
0.4696667511
-0.007134513219
-0.4662804681
0.006116602051
0.4653463547
-0.005182488662
-0.008341424684
0.9172718726
0.005918060268
0.005551407715
-0.005444366723
0.9132578004
-0.002683920077
0.9109600348
0.9097482712
-0.003346110723
0.923929987
-0.006743499483
0.9232101831
-0.01033288403
0.9218990733
-0.006836831887
0.9195453166
-0.007227694661
-0.4563772308
0.4573606629
-0.007820264055
-0.4538262806
0.008974893468
0.4550910781
-0.01023969095
-0.445742714
0.01164645524
0.4470208899
-0.005923566614
-0.006941851629
-0.1963154553
0.005055660489
0.1958952241
-0.004501220979
-0.1817563948
0.002821124419
0.1815491559
-0.002421500886
-0.192018182
0.002292894913
0.1925795902
-0.002726661151
-0.2135485292
0.005679878072
0.2145472362
-0.006678430332
-0.1035107299
0.004707780295
0.1037282495
-0.00244368814
-0.002481611783
0.01728212928
-0.132676988
0.1313627209
-0.01596786216
0.02126497068
-0.2731471447
0.2723773207
-0.0205564185
-0.2864889146
0.01587941606
0.2887939499
-0.01833446537
-0.2816895476
0.01778297631
0.280545632
-0.01678609557
0.01020202571
-0.2531267725
0.2513358221
-0.008470059603
-0.4683211852
0.01130264995
0.466754681
-0.009736145735
-0.4643673459
0.008349294621
0.46316632
-0.007148268769
-0.01041663925
0.9148811881
0.00662657101
0.006180752847
-0.006734299954
0.9095754612
-0.003277973421
0.9075037083
0.9064702979
-0.007490954459
0.9314209414
-0.01518941557
0.9309086442
-0.02305132586
0.9297609837
-0.008019531573
0.9279511284
-0.02343760611
-0.4585833511
0.4597888242
-0.00922500461
-0.4564120302
0.01056930781
0.4579319653
-0.01208924291
-0.4459953806
0.01364589605
0.444388384
-0.005672603053
-0.006253811877
-0.195097889
0.00343360136
0.1939716419
-0.002144480603
-0.1810402577
0.002191646674
0.1814152181
-0.002351879662
-0.1946071501
0.004142993078
0.1940254384
-0.003424425329
-0.2177117987
0.007127396377
0.2188424994
-0.004120464578
-0.00413763242
-0.05287225915
0.002997920862
0.05295109838
-0.003076760089
-0.05795808455
0.006429491326
0.057457499
-0.01250146245
0.006572556677
0.01557961484
-0.123534747
0.243431659
-0.02716516665
0.01516457653
-0.1234759367
-0.2697340924
0.02533286682
0.2707438831
-0.02643831423
-0.2861496389
0.02338989214
0.2846547395
-0.02207156324
-0.2761967682
0.01771151879
0.2743783477
-0.01604934446
0.01065101163
-0.243907852
0.241985087
-0.008764030132
-0.4648761266
0.01337163623
0.4630019767
-0.01149748631
-0.4619273114
0.01006205382
0.4605889765
-0.008723718771
-0.01206527599
0.9113418097
0.008019942402
0.007584711967
-0.007791644013
0.9053018292
-0.0038403697
0.903552434
0.9026299282
-0.003971630044
0.9353925715
-0.008071766732
0.9350087809
-0.01243585911
0.934125076
-0.00851746468
0.9327384362
-0.008705702265
-0.4630343666
0.4643113768
-0.009794474902
-0.4612389542
0.01122537675
0.4627913181
-0.01277774063
-0.4444820618
0.01447804
0.4484734219
-0.008787929506
-0.009554269832
-0.1922788608
0.009830024064
0.1927335003
-0.01011465881
-0.180756889
0.01011241038
0.1807584974
-0.00989261837
-0.1983955397
0.008892212942
0.1981382172
-0.008502595386
-0.222806122
0.007714345694
0.2240132356
-0.004461308314
-0.00446015096
-0.0550399981
0.006755025218
0.1105200715
-0.05499902747
-0.003612700953
-0.003623370143
-0.111278544
0.008489087241
0.1111624435
-0.01660504946
0.008232062653
0.02619928418
-0.2366764874
0.2360813076
-0.02560869847
-0.2692563277
0.02412697709
0.2691762914
-0.0241840021
-0.2800767562
0.02267971087
0.2836462224
-0.02644130047
-0.268577997
0.02281123474
0.2635012663
-0.01786714375
0.01021962519
-0.2340163999
0.2324350195
-0.008643364937
-0.4613745063
0.01419153338
0.4599279653
-0.0127449924
-0.4592374449
0.01132157854
0.457642611
-0.009726744602
-0.01149193045
0.9069796775
0.007855917358
0.007998145379
-0.008464223584
0.9022741224
-0.004147622616
0.8992358331
0.8984823056
-0.004133601808
0.9395261733
-0.008391237789
0.9392664169
-0.01289970789
0.9386335462
-0.008840944634
0.9376348466
-0.008955173626
-0.4656707918
0.4670185734
-0.01018872622
-0.4643558532
0.01165037347
0.4659184429
-0.01321296319
-0.4547685445
0.01490072282
0.461708218
-0.01094113761
-0.01085717062
-0.1968716056
0.01598170644
0.1992446581
-0.0182123885
-0.1819958541
0.02303470492
0.183020269
-0.02385107507
-0.1954334775
0.02338189517
0.1943708289
-0.02216768999
-0.22252313
0.01524832964
0.2192695042
-0.01196313179
-0.1137580357
0.01167948014
0.2272727392
-0.01162950722
-0.1135646764
-0.224803653
0.01751908881
0.2253891846
-0.01810462043
-0.2415877862
0.02507278066
0.2445811963
-0.02812361244
-0.2712956379
0.03264772633
0.2712355134
-0.03276254955
-0.2791571513
0.02979171501
0.2770757856
-0.02791934313
-0.2547302926
0.02059790547
0.2545906163
-0.0205644109
0.01076644295
-0.231124595
0.2288478779
-0.008489725897
-0.4586555655
0.01592431834
0.4557130548
-0.01298180766
-0.4560146864
0.01166365605
0.4541287841
-0.009777753763
-0.01186814869
0.9027031642
0.00814980664
0.007994855329
-0.008509690737
0.8989156644
-0.004347266693
0.8950734091
0.8941350389
-0.004180673731
0.9437068471
-0.008471734894
0.9435574781
-0.01298166926
0.9431434805
-0.008908018716
0.9424849041
-0.008923708051
-0.4683546533
0.4696956268
-0.01024899221
-0.4674568959
0.01167689797
0.4689627001
-0.01318270223
-0.4665834338
0.01478931684
0.4683765856
-0.008356960644
-0.008225510378
-0.2094704257
0.01681249792
0.2138781695
-0.02113478155
-0.1888655171
0.0324234808
0.1919122373
-0.03530097547
-0.1929582181
0.04032654312
0.1935033812
-0.04071443995
-0.2116875696
0.03849340643
0.2102645053
-0.03698641395
-0.2214470206
0.03223601877
0.2184077136
-0.02917881673
-0.2330129118
0.03465767273
0.235082543
-0.03675735803
-0.2519990295
0.04319162432
0.2534143414
-0.04471110192
-0.2697029183
0.04539582629
0.26833244
-0.0441993873
-0.2685007261
0.03665432168
0.2647463516
-0.0330670002
-0.243358026
0.02047299969
0.2388507441
-0.0160249091
0.01030573421
-0.2270572427
0.2264986324
-0.009747123947
-0.4551413835
0.01636531526
0.4526048931
-0.01382882487
-0.4514085564
0.01056718968
0.4499501734
-0.00910880663
-0.01107495189
0.8969428521
0.008686658618
0.008148605442
-0.006107649206
0.8939483617
-0.00440257872
0.8933683386
0.8897324602
-0.004126958818
0.9478338059
-0.008346715356
0.9477772346
-0.01274600805
0.9475427732
-0.008755240718
0.9471620904
-0.008667953593
-0.4709817996
0.4722620762
-0.01003551724
-0.4704181119
0.01138240217
0.4718190437
-0.012783334
-0.4700117192
0.01425528116
0.4715576517
-0.007951695578
-0.007849518114
-0.2295371649
0.008859882272
0.2342688057
-0.01358057851
-0.2045491509
0.03062834611
0.2098197928
-0.03579828906
-0.1991048032
0.04842686264
0.2023009966
-0.05149989264
-0.2099805201
0.05741149397
0.2111691395
-0.05851449661
-0.2109489797
0.05623117944
0.2100200619
-0.05527975591
-0.2381016566
0.05987956329
0.2381789643
-0.06000168525
-0.2535570675
0.05883678176
0.2522207292
-0.05760808439
-0.2607258637
0.05052588367
0.2570246428
-0.04696101878
-0.2507810822
0.03319508469
0.2453534213
-0.02786117701
-0.2258823778
0.01178442372
0.2251280813
-0.01103059122
0.009593945361
-0.2249926957
0.2245307224
-0.009131972027
-0.4490598159
0.01553874433
0.4474550576
-0.01393398604
-0.4484949993
0.0124000745
0.4470124079
-0.01091748315
-0.01028676464
0.8902742952
0.009376337962
0.007578983591
-0.005725762389
0.8893873595
-0.004043201465
0.8916857777
0.8856892587
-0.003992847523
0.9518266534
-0.008058951014
0.9518433381
-0.01226052947
0.9517443517
-0.008418418048
0.9515723088
-0.008252329832
-0.4734727629
0.4746630287
-0.009608683789
-0.4731536735
0.01084677194
0.4744232765
-0.01211637493
-0.4730079689
0.01342864849
0.4743611239
-0.007456545261
-0.007325258241
-0.2363575333
0.008164671017
0.2367168847
-0.008524022397
-0.2277294204
0.012500904
0.2340061344
-0.0187597831
-0.2151871374
0.03615126192
0.2202705164
-0.04117521359
-0.217430547
0.05320386048
0.2200492702
-0.05577090181
-0.2129504134
0.05739085776
0.2150934105
-0.05952231424
-0.2362977494
0.06080536862
0.2351444897
-0.05968956722
-0.2448654851
0.05325480344
0.2415748617
-0.05003549022
-0.2431885795
0.03729435987
0.2379888111
-0.0321587941
-0.227821804
0.0150912791
0.2241669575
-0.01144342548
-0.2238212508
0.01028529653
0.2234397346
-0.009903780373
0.008764021018
-0.2232923141
0.2229139517
-0.008385658692
-0.4459579378
0.01443324386
0.444567028
-0.01304233416
-0.4456365578
0.01168583791
0.4443028053
-0.01035208546
-0.01315927629
0.8855205834
0.008851596045
0.009061392054
-0.008644478053
0.8848725613
-0.001463719382
0.884505019
0.8842255393
-0.003797976422
0.9556246298
-0.00764930159
0.9556946633
-0.01159257335
0.9556876235
-0.007947598331
0.9556570539
-0.007729720136
-0.4757788602
0.4768658163
-0.009034554464
-0.4756205281
0.01015206904
0.4767501137
-0.01128165457
-0.4756206106
0.01243027135
0.4767859259
-0.006867233626
-0.006728352999
-0.2376977492
0.007468002064
0.2379951673
-0.007765420142
-0.2372546951
0.008651853714
0.2375456748
-0.008942833374
-0.2360104578
0.009790983611
0.2367760881
-0.01055558335
-0.228639227
0.02126322144
0.2316898802
-0.02430350099
-0.2215117674
0.03021097936
0.2232381728
-0.03193538991
-0.2309029741
0.03145665201
0.2294203384
-0.02998700873
-0.2306160593
0.02216604933
0.2269861602
-0.01854919945
-0.2243430078
0.01112170034
0.2241416756
-0.01092036815
-0.2232360369
0.01021301009
0.2229724649
-0.009949438131
-0.2224320417
0.009102101331
0.2221364541
-0.008806513706
0.007900378848
-0.2219047283
0.2215949939
-0.007590644463
-0.4432782836
0.01319620018
0.4420880378
-0.01200595442
-0.4430774784
0.01082344022
0.4418962023
-0.009642164104
-0.01235496747
0.8811699127
0.008223391878
0.008482246239
-0.008153707037
0.8806713008
-0.004048235899
0.8803995479
0.8801773034
-0.003561384816
0.9591860147
-0.007157852318
0.9592911308
-0.01080730645
0.9593370776
-0.007391779209
0.9593882127
-0.007146685968
-0.4778773238
0.4788580589
-0.008372514301
-0.4778079448
0.009368517627
0.4788008978
-0.01036147063
-0.4778613601
0.01135564274
0.4788523878
-0.006234547212
-0.006112123166
-0.2388047904
0.006748329243
0.2390501266
-0.006993665469
-0.2383213733
0.007708444512
0.2385510333
-0.007938104551
-0.2374876462
0.00859497714
0.2376918571
-0.008799188078
-0.2337263813
0.009217813458
0.2337425671
-0.009233999242
-0.2256812854
0.009694381809
0.2259518068
-0.009964903261
-0.2276445541
0.01007722713
0.2276480285
-0.01008070148
-0.2254277295
0.009962884523
0.2253484542
-0.009883609191
-0.2236260303
0.009539400983
0.2234788023
-0.009392173
-0.2222864438
0.008867357723
0.2220876236
-0.008668537481
-0.2213513286
0.008016817481
0.2211194424
-0.007784931267
0.007058842976
-0.2207719746
0.2205169048
-0.00680377322
-0.4409893268
0.01193364125
0.4399760475
-0.01092036198
-0.4408176944
0.00989730369
0.4397804003
-0.008860009539
-0.01144044167
0.8772367924
0.007547442918
0.007826119053
-0.007583113142
0.8768139723
-0.003774368005
0.8765908028
0.8764029354
-0.003300494492
0.9624865092
-0.006620518731
0.9626111551
-0.009961283632
0.9626778425
-0.00679375415
0.9627605337
-0.00653985054
-0.4797637278
0.4806420276
-0.007672054003
-0.4797268566
0.008552675335
0.480593598
-0.0094194168
-0.4797646347
0.01027547117
0.4806037213
-0.005608362536
-0.00550619529
-0.2397176048
0.006047896622
0.2399201369
-0.006250428723
-0.2391658098
0.006829594999
0.2393487489
-0.00701253418
-0.2382240112
0.00752630599
0.2383785303
-0.007680825094
-0.2337822418
0.007974702904
0.2337931582
-0.007985619329
-0.2265990054
0.008405389557
0.2267724537
-0.008578837831
-0.2276509388
0.008634970049
0.2276493923
-0.008633423536
-0.2251422242
0.008540288433
0.2250821796
-0.008480243832
-0.2230955381
0.008220930977
0.222984299
-0.008109691839
-0.2215641008
0.00770933221
0.2214106242
-0.007555855618
-0.2204993121
0.007045352418
0.2203148605
-0.006860900834
0.006273314957
-0.2198431016
0.219631739
-0.00606195231
-0.4390411094
0.01071346067
0.4381784133
-0.009850764548
-0.4388373228
0.008967964414
0.4379303182
-0.008060959825
-0.01048220304
0.8737109659
0.006863989502
0.007144040029
-0.006974711479
0.8733064808
-0.003479243009
0.8730953343
0.8729236924
-0.00302911923
0.9655156284
-0.006065142819
0.9656471787
-0.009097074758
0.9657097744
-0.006186099788
0.9657855573
-0.005935998506
-0.4814461296
0.4822271479
-0.00696711806
-0.4813998082
0.007741386019
0.4821533247
-0.008494902541
-0.4813742696
0.009230868739
0.4820844123
-0.005015340482
-0.004925671023
-0.2404717152
0.00538820638
0.2406392644
-0.005555755564
-0.239841165
0.006028122519
0.2399884706
-0.006175428069
-0.2387860113
0.006583346387
0.2389055251
-0.006702860201
-0.2338247631
0.00691618365
0.2338359514
-0.006927371899
-0.2271967077
0.007306906894
0.2273115188
-0.007421718012
-0.2276386421
0.007443804566
0.2276333359
-0.007438498404
-0.2249225925
0.007360696822
0.2248752576
-0.007313361945
-0.2226905197
0.007111425729
0.2226040863
-0.00702499235
-0.2210023573
0.006712286091
0.2208815151
-0.006591443945
-0.2198183487
0.006185028004
0.2196697475
-0.006036426761
0.005556817986
-0.2190771809
0.2189022696
-0.005381906753
-0.4373809324
0.009569397719
0.4366440446
-0.008832510018
-0.4371080253
0.008070729714
0.4363164723
-0.007279176735
-0.009526317573
0.8705674493
0.006200392048
0.006469442104
-0.006359858034
0.8701400212
-0.00317879709
0.8699142734
0.8697448953
-0.002758983621
0.968274612
-0.005515032501
0.9684032276
-0.008248799167
0.9684435411
-0.00559356597
0.9684844192
-0.005354095118
-0.4829374881
0.4836289439
-0.006285021836
-0.4828535016
0.006963856839
0.4835074703
-0.007617825571
-0.482738977
0.008250205393
0.4833424041
-0.00446833077
-0.004385301735
-0.2410962488
0.004782635305
0.241235443
-0.004921829499
-0.2403871581
0.005310027687
0.240507072
-0.005429941609
-0.2392232864
0.005758415278
0.2393171548
-0.00585228371
-0.2338745868
0.006011608142
0.2338896056
-0.006026627015
-0.2275935265
0.006371188744
0.2276699496
-0.006447611921
-0.2276134727
0.006448336725
0.2276057752
-0.00644063924
-0.2247476158
0.006373880024
0.224709283
-0.006335547193
-0.2223730641
0.006174269908
0.2223043388
-0.0061055446
-0.2205571809
0.005856347326
0.220460371
-0.005759537461
-0.2192671864
0.005431159961
0.2191459628
-0.005309936383
0.004914384918
-0.2184422973
0.2182961991
-0.004768286697
-0.4359624019
0.00851978186
0.435331817
-0.007889196971
-0.4355998542
0.007230851232
0.4349090485
-0.00654004559
-0.008607162334
0.8677740436
0.005574192188
0.005826375833
-0.00576274127
0.8672956002
-0.002885412148
0.8670369443
0.8668594832
-0.00249802355
0.9707726356
-0.00498574039
0.9708909444
-0.007438542915
0.9708963436
-0.005030538286
0.9708831096
-0.004806695061
-0.484254427
0.4848647623
-0.005640873564
-0.4841147746
0.006235005249
0.4846819668
-0.006802197443
-0.4838990731
0.007345541537
0.4844128191
-0.00396832054
-0.003890966932
-0.2416160478
0.004234389778
0.2417323572
-0.004350699242
-0.2408333197
0.00467231787
0.2409319942
-0.004770992386
-0.2395682419
0.005038748827
0.2396428714
-0.005113378332
-0.2339421727
0.005236001038
0.2339622965
-0.005256124761
-0.2278575089
0.005571187262
0.2279082061
-0.00562188442
-0.2275802447
0.005608500086
0.2275710731
-0.005599328495
-0.2246049204
0.005541106668
0.2245733011
-0.005509487316
-0.2221189567
0.005378274369
0.2220633241
-0.005322641773
-0.2201986319
0.005120788374
0.2201199382
-0.005042094617
-0.2188157525
0.004773355688
0.2187157564
-0.004673359603
0.004344016121
-0.2179114439
0.2177884435
-0.004221015742
-0.4347475316
0.007571045982
0.4342060068
-0.007029521204
-0.4342841761
0.006459204376
0.433680719
-0.005855747198
-0.007744976238
0.8652961453
0.004995758093
0.005227116387
-0.005198240257
0.8647488642
-0.002606823976
0.864445528
0.8642526592
-0.002252026135
0.9730246617
-0.004488459483
0.9731273778
-0.006681800819
0.9730896849
-0.004506753981
0.9730101316
-0.004302068869
-0.4854145179
0.4859523453
-0.005044581354
-0.48520868
0.005564260996
0.4857008079
-0.00605638891
-0.4848872989
0.006523871192
0.4853257481
-0.003515842745
-0.003446477725
-0.2420511042
0.003741876871
0.2421488154
-0.003839588003
-0.2412017219
0.004108045237
0.2412837138
-0.004190037126
-0.2398434934
0.004410416227
0.2399034387
-0.004470361598
-0.234030398
0.004567560274
0.2340555859
-0.004592748126
-0.2280318969
0.00488344864
0.2280650432
-0.004916594981
-0.2275420889
0.004893587798
0.2275320314
-0.004883530274
-0.2244866459
0.004832173573
0.2244602232
-0.004805750807
-0.2219122435
0.004697560954
0.2218666031
-0.00465192047
-0.2199059504
0.00448633424
0.2198412342
-0.004421618102
-0.2184421469
0.004199384537
0.2183588978
-0.004116135392
0.003839695875
-0.2174641397
0.2173598851
-0.003735441271
-0.4337032155
0.006723558232
0.4332362403
-0.006256583039
-0.4331350083
0.005761058771
0.4326069021
-0.005232952554
-0.006952471847
0.8630988244
0.004470835891
0.00467895689
-0.00467610548
0.8624724978
-0.002348213496
0.862117636
0.8619044457
-0.002024320389
0.9750489821
-0.004029441946
0.9751324993
-0.005986689707
0.9750469327
-0.004027781229