/*--------------------------------*- C++ -*----------------------------------*\
| =========                 |                                                 |
| \\      /  F ield         | OpenFOAM: The Open Source CFD Toolbox           |
|  \\    /   O peration     | Version:  v1912                                 |
|   \\  /    A nd           | Website:  www.openfoam.com                      |
|    \\/     M anipulation  |                                                 |
\*---------------------------------------------------------------------------*/
FoamFile
{
    version     2.0;
    format      ascii;
    class       volScalarField;
    location    "2.43";
    object      k;
}
// * * * * * * * * * * * * * * * * * * * * * * * * * * * * * * * * * * * * * //

dimensions      [0 2 -2 0 0 0 0];


internalField   nonuniform List<scalar> 
12556
(
36.9087112
36.90877878
36.90891736
36.90913458
36.95446621
36.95535973
36.95695543
36.96036827
36.96689354
36.97745073
36.99045499
37.00404113
37.00749601
37.00563356
36.99603879
36.98265393
36.97128233
36.96320472
36.95879423
36.9562219
36.91003967
36.90913766
36.90869411
36.9084206
36.72746882
36.72769315
36.72800375
36.72882041
36.77493257
36.77957333
36.78898978
36.82467051
36.85540193
36.90554514
36.97474003
37.02418707
37.04157738
37.03585154
37.00446749
36.94352058
36.88560671
36.84501316
36.79913941
36.78436647
36.73235035
36.72944627
36.72804147
36.72729722
36.54751816
36.5481411
36.54924807
36.55148926
36.5993339
36.61110589
36.63395503
36.69121542
36.76612574
36.88278951
37.00279075
37.08701964
37.12125129
37.11009512
37.05352986
36.95246353
36.83124121
36.73792779
36.65547648
36.62185867
36.56033331
36.55345659
36.55024027
36.54893632
36.3688751
36.36965992
36.37159304
36.37648201
36.42886947
36.4534822
36.50444802
36.60185799
36.75271985
36.93221212
37.10881738
37.24076769
37.30096538
37.28026005
37.18559889
37.02819612
36.84952709
36.68394065
36.54190382
36.47618648
36.39502575
36.38217041
36.37589386
36.37344882
36.19218634
36.19363251
36.19761817
36.2077912
36.26740701
36.31241211
36.40912294
36.57458669
36.80262821
37.06255545
37.33382774
37.56590852
37.692418
37.65314001
37.47952103
37.21259021
36.93709348
36.6986242
36.47388911
36.35287599
36.24005124
36.21549423
36.2042858
36.19992582
36.01686336
36.01912384
36.0258638
36.04307893
36.11773867
36.19453314
36.36218427
36.59851338
36.91018691
37.28895716
37.74830091
38.25433482
38.5927456
38.48305837
38.05361934
37.57222384
37.12330511
36.76624273
36.45719246
36.2570094
36.09683942
36.0533248
36.03463063
36.02730912
35.84436355
35.84842197
35.8603463
35.89013583
35.98151825
36.10285092
36.36082613
36.66408108
37.08476486
37.63808362
38.4614706
39.84307154
40.59747782
40.44976686
39.10069607
38.16099032
37.42532361
36.89443527
36.47513584
36.19288722
35.96452128
35.89614337
35.86669304
35.85522196
35.67576715
35.68197239
35.70023547
35.74616072
35.85928949
36.03927591
36.38591505
36.76655574
37.31483435
38.09505074
39.47746846
42.60898083
43.50130961
40.77712228
38.99701766
37.83766228
37.07801159
36.5220366
36.15587015
35.84593803
35.74539352
35.70157079
35.68471774
35.51460434
35.52444114
35.55235375
35.61951651
35.75596165
36.00322386
36.43266772
36.89829787
37.57735306
38.57628618
40.4541014
45.21651024
48.64331043
42.81363173
39.989714
38.32795744
37.30019828
36.58895947
36.13954668
35.74129764
35.60329324
35.54212396
35.51872625
35.36278117
35.37642479
35.41443412
35.50466928
35.67323213
35.99135806
36.49607494
37.04754266
37.84387915
39.01312836
41.18845702
46.45267581
52.10852159
44.65477452
40.96552967
38.81742724
37.5305938
36.66780373
36.14014483
35.65234537
35.47345004
35.39248161
35.36144307
35.22398445
35.24315084
35.29476172
35.41379661
35.61053887
35.99696675
36.57310779
37.20418212
38.09783947
39.39563189
41.78091475
46.97722832
53.7747151
46.00787161
41.75651561
39.23935687
37.74435804
36.74760386
36.14643742
35.57797391
35.35814738
35.25659502
35.2171347
35.09804739
35.12216346
35.18596567
35.33246863
35.564775
36.01558008
36.65806086
37.36045592
38.33705565
39.74169897
42.32429513
46.72801383
54.47600837
46.86026238
42.31245768
39.55921789
37.92299557
36.81950788
36.15434744
35.51897588
35.2583277
35.13646719
35.08832929
34.98642691
35.01706306
35.09799727
35.2760338
35.53105044
36.03994869
36.74226118
37.5144976
38.55656767
40.06113402
42.89234272
46.18184807
43.24468547
54.2820792
47.29312042
42.64034526
39.7515235
38.05401186
36.87671714
36.16019076
35.46791455
35.17300093
35.03168052
34.97533541
34.88609204
34.92276001
35.01902709
35.22348843
35.52266128
36.09602892
36.87039431
37.68769806
38.79334788
40.40999285
43.51574174
44.61920834
53.99549404
54.22977791
47.41437513
42.70859439
39.84319933
38.14419098
36.91752601
36.16027218
35.41979249
35.09804964
34.9393639
34.87567496
34.79531522
34.83783639
34.94841215
35.17787175
35.50698785
36.12894244
36.96714427
37.87334025
39.08566025
40.80807997
43.92297248
40.83036198
54.9350403
53.47907729
47.06919731
42.59092939
39.83888268
38.19468483
36.93630268
36.14893574
35.37186331
35.02882691
34.85545644
34.78560274
34.7096227
34.75770884
34.88122889
35.13411056
35.49116708
36.15238686
37.05295868
38.08561347
39.49734696
41.43363575
44.37912682
35.15515491
53.30898772
51.87056521
46.261426
42.27945308
39.76907668
38.1985015
36.93035946
36.11892032
35.31659163
34.95852469
34.77475426
34.69992742
34.62709345
34.68025565
34.81488388
35.08836742
35.4696936
36.16089211
37.10919439
38.26022291
39.98041473
42.24065668
43.97019593
27.20542306
52.42043979
49.81860395
45.14154826
41.85382547
39.68581723
38.16874415
36.89578369
36.06937548
35.25309891
34.88580083
34.69353256
34.61468587
34.5430343
34.60078277
34.74503806
35.03673624
35.43920736
36.15321728
37.13429962
38.33088743
40.29199582
42.75833267
39.96427187
33.38140128
51.07036742
47.86694278
44.12886163
41.47938949
39.55953652
38.08988441
36.82138929
35.9948583
35.17488382
34.80311269
34.60727028
34.52555077
34.45770409
34.51945101
34.67165869
34.97828521
35.39764777
36.12646187
37.12878501
38.35329039
40.32369276
42.42573107
31.8314561
43.40364499
49.66979451
46.52938055
43.51252085
41.19014798
39.37692
37.96331565
36.71752736
35.89995225
35.08409291
34.71184088
34.51440083
34.43122073
34.36679118
34.43205134
34.59121776
34.91078535
35.34416003
36.08253575
37.10015767
38.34006306
40.27945764
41.83140716
28.23335935
43.4186834
48.48053484
45.80183214
43.05971809
40.8860741
39.16473704
37.80576914
36.59124967
35.78743514
34.98047922
34.6102303
34.41271524
34.32876426
34.27345899
34.3416959
34.50655588
34.83594805
35.27910517
36.02347116
37.05003088
38.29843342
40.17471947
41.1303054
25.49320915
42.57600652
47.41930867
45.15054977
42.6329926
40.5819128
38.93859178
37.62897704
36.44825051
35.66050994
34.86657598
34.50064511
34.30423301
34.22007622
34.17278519
34.24367405
34.4138474
34.75213127
35.20367074
35.95174552
36.98395815
38.23447425
40.01853396
40.35862584
23.34697168
41.69945678
46.45574308
44.55135936
42.23316635
40.28535275
38.70749365
37.44110105
36.29306877
35.52238359
34.74248463
34.38147025
34.18661353
34.10260653
34.07119313
34.14434284
34.31889107
34.66332143
35.11932534
35.86984976
36.90575218
38.15252776
39.81556166
39.54551332
21.64938147
40.84561247
45.57703541
43.99666842
41.85771096
39.99975585
38.476709
37.24765049
36.12954146
35.37589682
34.6121565
34.25733845
34.06451988
33.98092527
33.96135552
34.03665607
34.21572692
34.56671566
35.0278268
35.78006514
36.81850523
38.05544878
39.57053122
38.70800478
20.3150689
40.03506504
44.77212833
43.48088565
41.50365085
39.72584496
38.24921655
37.05216522
35.96077475
35.22347207
34.47427398
34.12486866
33.93391098
33.85081778
33.85384189
33.93100764
34.11375557
34.46855594
34.93061439
35.68439908
36.72452511
37.94425876
39.28830479
37.86095396
19.26857814
39.26000523
44.03153304
42.99939347
41.16853322
39.4630953
38.02654238
36.85692302
35.78910495
35.06699755
34.33429007
33.991446
33.80260561
33.72010278
33.73655043
33.81564934
34.00261888
34.36300581
34.8292179
35.58448609
36.62522761
37.81883897
38.97676743
37.01575167
18.41495203
38.52119469
43.34807819
42.54819342
40.85024466
39.21055054
37.80927163
36.6633047
35.61618372
34.90803039
34.18788941
33.84973658
33.66250155
33.58053049
33.62635697
33.70712498
33.8973524
34.25996269
34.72456811
35.48158485
36.52127728
37.6792081
38.6467313
36.17963911
17.68001943
37.82524202
42.71782231
42.12391016
40.54693517
38.96724326
37.5975111
36.47213472
35.44318825
34.74765315
34.0436891
33.71200861
33.52667964
33.44525751
33.50298631
33.58563461
33.77999295
34.14810285
34.61789991
35.37661259
36.41285588
37.52595722
38.30448868
35.35429576
17.07290688
37.17550899
42.13274087
41.72328614
40.25672652
38.73216021
37.39107399
36.28384855
35.2709063
34.58683878
33.89189927
33.56361831
33.37948383
33.29848676
33.39358153
33.4777897
33.67508133
34.04413714
34.50957383
35.27022952
36.30004591
37.360463
37.95064729
34.53610098
16.59920338
36.56879461
41.58513447
41.34239904
39.97741435
38.5041923
37.18963859
36.09867467
35.09988946
34.42606977
33.74793658
33.42612499
33.24363081
33.16305716
33.26438981
33.3505136
33.55191793
33.92695343
34.40073523
35.16293338
36.1831114
37.18494993
37.58845443
33.73544244
16.25800803
35.99505601
41.06491503
40.97602767
39.70632315
38.28211634
36.99279293
35.91669059
34.93051351
34.26606276
33.5915556
33.27156894
33.08989686
33.00960784
33.15956305
33.24714952
33.4512112
33.82610336
34.29115909
35.05509913
36.06262676
37.00237139
37.22457731
32.98398565
16.02728996
35.4379007
40.56073748
40.61860629
39.4409025
38.06483986
36.80013786
35.73791011
34.7630549
34.10686927
33.45245453
33.13913115
32.95880779
32.87880085
33.02325403
33.11285483
33.3210327
33.70257496
34.18223682
34.94705009
35.93932437
36.81533023
36.86582899
32.31252758
15.88071452
34.88190736
40.06484109
40.26612925
39.17941084
37.85158016
36.6113356
35.56228016
34.5977263
33.94927046
33.28940626
32.97640107
32.79668592
32.71683314
32.92762618
33.01855424
33.22916748
33.61001667
34.07304139
34.83906315
35.81387946
36.62574947
36.5172124
31.73379487
15.79416098
34.32048574
39.5731294
39.91670472
38.92090993
37.6417931
36.42608249
35.38970502
34.43477521
33.79290795
33.16189199
32.85538015
32.67661372
32.59691991
32.78101139
32.87411105
33.08887806
33.47615306
33.96590851
34.73166469
35.68703468
36.43529557
36.18275147
31.24242867
15.74833209
33.75452475
39.08525929
39.56984422
38.665001
37.43513457
36.24416215
35.22017782
34.27472324
33.63931766
32.9853027
32.67906451
32.50093706
32.42129287
32.69994601
32.79421331
33.01117051
33.39949347
33.85937574
34.6257715
35.5603768
36.2452413
35.86533808
30.82859183
15.72974064
33.18854439
38.60251581
39.2258231
38.41157118
37.23136658
36.06538021
35.05357735
34.11901477
33.48860578
32.88136362
32.57842017
32.40070577
32.32109147
32.51350037
32.61054729
32.83269627
33.22808662
33.75891599
34.52365339
35.43821536
36.05740497
35.56899084
30.48251465
15.72959899
32.63092082
38.13128977
38.88811847
38.16183182
37.03086513
35.8898856
34.88998862
33.9721728
33.34681821
32.6536942
32.35203446
32.174977
32.09531702
45.00565155
49.27806819
43.92361737
46.33288862
53.09022848
49.7482861
46.96888533
54.79006207
53.39915691
46.7820045
55.44778909
54.90030448
46.21904365
39.87318158
42.3575807
55.72141786
55.48602109
45.16817648
48.4944256
40.08451398
53.48075175
56.15118371
55.73976394
42.16471287
40.56523759
43.41091248
40.32732341
54.01089407
45.91177278
48.08033203
43.30665453
41.41857859
41.02357075
45.21973898
44.15529371
57.05264791
60.00943326
51.79450869
45.59327196
43.91780146
41.64355819
46.04244712
45.34389423
46.75605625
49.20117967
50.25341891
54.99610149
54.62430551
53.64104486
47.24440282
46.06101618
42.20463419
46.32184972
46.10816901
46.93870594
45.17068323
47.3823297
56.70341098
55.65460286
42.76673505
46.24685011
46.32960543
46.4971826
39.93020092
42.59438942
40.62465465
57.86282972
57.53678448
43.40288425
45.74080962
46.21459964
45.85780349
33.03131758
36.30268638
43.46797913
50.98926038
48.90671608
49.97889293
52.2181067
44.93530908
49.47951335
59.98629696
54.38160711
46.98897982
53.16051323
58.54319905
50.37841449
51.0790636
45.89286927
51.92309346
50.49409401
52.41162347
52.07595729
54.75047203
56.77866224
51.62743104
58.08819355
56.61270387
58.72121117
58.23844149
51.37008648
47.59379835
49.02034873
46.83473595
48.62913805
46.58497909
50.4016006
48.75530311
55.45655993
55.08960948
54.33235989
57.1033912
57.35686599
56.53630792
57.05901046
54.14517435
42.74183073
45.03343476
46.90850938
43.95708349
41.17819132
46.44798928
44.11171456
57.47156702
56.82161668
36.47350815
39.73502368
46.46697588
43.7573586
37.55824727
33.85331567
41.02123873
37.79595357
45.82574227
58.05999018
57.90218292
40.12198014
40.31986598
32.96526603
45.80743503
45.05848702
32.04638025
85.4088083
33.74965174
32.07812704
44.38413427
40.23471931
43.95446196
41.88347099
43.84402377
48.23933552
44.43501249
68.66888957
50.00347304
45.76098266
51.1471209
50.73212954
58.60304656
54.43599712
48.28318292
47.54506728
69.10344372
47.24268392
45.50704235
48.87047869
58.32252297
58.15252173
50.5387716
48.629127
44.18446001
59.28528855
47.73211084
57.04947075
45.44194871
52.05079928
46.30960158
45.01996265
41.64176433
55.25130707
57.68406845
57.83737727
57.39317509
57.65469258
55.18499021
39.25898885
60.87747081
41.43970212
42.43825597
41.93606171
44.34379463
45.27474886
42.38419384
42.44479716
74.78234154
50.57802977
68.30543267
48.65030072
63.73874504
49.60623929
59.15005602
59.34137784
54.70841515
54.68813964
41.6017413
52.50186252
56.28974229
42.45978379
41.42261755
55.72811582
43.24473484
56.14725756
41.38337966
46.01669183
45.63047184
50.74268075
48.24989363
60.8267169
35.23401091
43.61602194
43.07339207
44.30860458
43.81249207
35.37280343
64.48453432
59.84925293
51.12326882
60.32937727
61.45829646
55.09484219
59.92524952
51.42758185
47.04340494
54.24740699
46.92980548
60.48917233
55.16705364
47.75901537
57.93362279
64.31582672
58.18339038
57.77686601
51.25319623
46.69414189
51.16277729
52.51375471
50.62818867
54.44293109
47.14929947
50.13249263
52.44729695
55.8841657
56.05766296
57.38845768
56.10223877
55.51131742
56.65569869
56.25954968
57.2743788
59.15446622
54.12010186
53.0091865
55.27981217
54.44231038
59.10662568
47.70002931
47.56812431
49.68938279
49.58564013
55.68579875
56.73988876
55.60337527
42.85254346
42.66265885
45.34771587
45.18925854
41.5163174
44.19329938
57.14573715
41.28205814
41.38055938
38.4785815
44.93559848
44.47218439
45.4963422
45.08087867
38.64838351
39.31751996
36.56692763
36.4013797
39.91431146
39.75699085
70.40688959
39.25950574
53.29781171
51.47686894
42.86307246
42.34652614
32.36209639
32.72768014
41.76839578
46.74875576
33.25503799
85.18808926
48.51836986
76.05983219
33.1767995
42.13825847
56.65298716
42.44150634
68.62103134
40.54549566
42.22516505
43.82505273
45.13496344
45.6194234
44.02174527
36.89361356
42.09098655
55.4024682
55.40067514
56.046919
57.90117609
43.45602129
50.96451134
55.02425087
53.81374589
39.36863376
58.41659918
58.37218457
49.53416976
44.29380968
43.90442683
47.10975374
48.69437273
44.12275435
44.41939992
58.05115789
61.75757229
59.93736684
59.90133155
54.78320064
44.62978693
44.44793934
50.70972439
50.24507664
54.41873098
46.15656987
47.70657925
47.43051049
48.0440622
47.79452031
46.31807803
46.49412766
46.13844156
41.53765067
33.5762857
39.71379241
39.24688227
78.36849177
59.13863199
49.11222139
59.48716734
63.97359679
62.23201982
55.96030341
50.68066988
49.04774548
52.58794826
51.19133705
56.35512826
55.18642442
51.20499199
50.96042302
56.27334785
48.23656094
48.32535967
48.12057392
42.42623929
43.00344655
47.01434131
44.48647157
44.45314535
55.28743785
57.21765632
57.26888593
57.21908194
56.43971974
57.00087049
56.75581366
57.19335952
57.05784245
56.4458876
43.89913481
46.93165412
46.60698703
47.33458049
47.03562592
44.05297793
43.49427446
37.35633761
37.74121879
33.85803115
34.16205879
41.7150721
45.98887627
41.49474573
42.26729957
37.89212105
38.32323838
44.57358845
57.23049641
44.83852062
49.69902669
75.1174411
40.63454933
37.08194094
35.037339
40.55237684
33.54667954
33.78682244
33.01130161
38.89643925
61.17473591
38.01081807
40.87074726
39.96820789
39.09538715
38.65355594
32.79881116
41.83938115
40.46271467
47.09905203
31.94871732
99.21219891
44.52542667
41.52252847
44.89814122
33.55662525
32.22232921
60.70747075
60.15279692
59.38368435
58.2924222
58.00081938
39.78710324
40.23031491
69.56877726
56.90692305
56.77772401
51.50009994
64.55085033
51.2964146
64.98721304
52.69576807
50.11357975
43.11309039
42.83602183
56.85123867
65.29013664
58.7280971
46.02713612
39.18848131
61.39422415
75.02591441
46.40841834
58.019046
82.00389482
40.87249303
44.3630346
39.48874179
40.34020938
73.94933386
75.24774411
59.35934182
54.94575325
63.95984173
60.29204844
54.09339203
50.44127243
57.25859957
56.98426572
56.54710373
58.41660189
59.77442838
59.4642955
57.66578761
46.19331865
44.97886648
54.72863081
52.00975385
51.12519375
46.58121897
51.33877821
50.72403664
54.4598755
50.24353047
46.71124717
43.68019256
44.92234045
41.58012857
49.77283315
48.55757688
47.47179297
46.13263311
44.70476331
48.07492821
46.71173985
45.92833606
47.5501474
39.91605393
39.7515746
40.37415423
39.85336284
34.12116155
35.77638525
40.95381208
40.52074184
62.76105227
62.06908915
61.62918117
54.87351308
55.57276676
53.65915191
54.60171637
61.98082336
58.04518446
56.04309897
55.89055864
55.74574546
56.02242539
58.38477474
58.63080659
52.1692234
53.33801019
62.40613395
62.93100312
64.2440188
63.36860597
59.19975803
65.1816779
66.6018893
65.75095885
65.99114096
65.1377232
67.06579852
65.75214357
56.37241676
63.22989337
64.40015218
45.05207432
51.40133919
50.37392195
52.36950132
51.67946938
45.74434359
48.95453171
48.25298824
50.01703314
49.19635433
52.14897267
55.00867503
54.38108012
55.7483075
55.20757202
52.69313367
48.34312366
53.28170368
52.60248936
54.16468629
53.50503772
48.77516209
51.74978792
51.24015064
55.35414239
56.27223815
53.22551543
52.01278335
41.83396207
41.27355261
42.80514864
42.03037883
40.37834289
39.82909306
41.0954753
40.54319989
47.13979787
46.48667376
48.02726064
47.36377961
45.18924099
43.31689799
46.24992721
45.59732911
43.23412787
43.23543218
44.3198476
43.41628428
56.4778366
44.27118246
45.65631436
43.25827404
43.80354637
36.84717739
37.20376106
43.33893382
34.53481262
34.28366593
34.90684346
34.63790259
34.1178223
41.94596741
34.36239825
36.40430267
39.27724489
41.20384706
45.83407544
38.83405819
36.06130229
39.71794613
38.86837719
35.35324367
35.02541209
35.86331241
35.47720672
44.72684481
38.47682065
38.9953032
65.26498267
40.9839695
63.83244228
55.7686805
63.33759548
40.97618907
78.05466054
40.10490837
74.70661611
65.54224645
36.94318182
35.73196019
33.24599608
33.47923629
40.39610298
39.17620715
33.00968985
33.19620521
70.70202715
32.72184249
38.44476613
37.69622373
85.72886047
90.79930561
31.8960944
94.56043049
78.23924531
43.56287026
33.48492685
84.92547489
56.75283293
93.55038881
60.7865429
32.36532274
43.02657766
40.83427508
39.37766231
68.58499139
68.00706661
54.90513783
48.8439709
48.45042889
69.0300676
39.29814543
44.3454902
40.84838515
57.84774055
57.96115122
55.61262737
47.14729148
46.20965851
50.74546836
57.98973323
46.82835558
47.13007833
41.79604681
42.18419172
44.92535544
52.44021284
56.98821705
60.19165321
49.69238776
48.65151727
48.5726449
48.65619512
48.66241969
49.8412333
41.27859392
40.16367993
44.52177497
50.51902968
52.53587559
57.71631894
41.50540926
41.09001002
35.9033232
61.14112487
63.02058422
55.93109412
48.53346165
48.3848094
48.44019238
48.23298195
44.747046
45.47315448
45.82877043
46.9223857
49.13270228
37.42180202
42.07894374
41.64220469
56.85943087
53.24298699
42.45014184
32.56619005
32.6158911
34.03035564
49.41089993
71.82542108
63.56343715
39.42080047
43.81392239
41.72842157
32.0139794
33.68056045
32.48436837
32.52924525
32.11171127
69.42596291
57.91070365
46.73694785
49.7191274
68.01559213
40.35644171
40.00979107
47.76071261
58.41001199
48.47912828
46.71689745
49.21046607
43.38581257
42.01306072
40.52684487
78.66006527
81.96553995
83.52120248
71.26616804
80.45243513
43.66999941
44.07817589
47.74179615
70.80038636
64.61271761
61.46426137
74.3061342
70.95796412
41.95496441
48.7600953
46.84970938
60.52291338
59.55015423
47.97269467
51.22303498
50.18054217
41.45993593
56.54215864
43.30660437
44.05617181
54.38763797
42.47244882
44.05744759
64.10281965
64.97750586
60.62496877
60.78895076
59.346388
59.17946081
55.78214183
57.0357073
56.57770208
58.98240324
58.72232203
59.39991088
50.36437548
51.7817423
58.02237126
59.72539536
66.50920273
62.14214635
66.45085021
66.84945068
63.52240248
43.09216789
45.7037179
45.09882884
50.00598842
49.72677541
46.4143692
42.62014305
42.33434599
44.58374474
44.17153819
51.12777203
53.75207614
53.3599142
56.15290614
55.74632543
53.83435097
47.49880386
50.72636779
50.39683987
52.96577195
52.5809903
49.6683995
43.95918315
44.54483193
48.1046682
47.14978363
43.18889338
43.76813521
48.00132489
48.58207929
50.00648926
40.70946695
40.53482044
42.08909995
41.86471566
37.93556829
40.28289647
40.1395313
49.24581939
47.19231257
47.8003452
55.51590009
54.86016996
44.84730814
45.62783669
56.24993915
54.5546932
54.86850757
55.3662116
44.50474978
45.4957967
42.62449192
42.2188118
37.79431162
39.0995013
43.11222931
42.74584846
34.22893863
34.29338087
36.68292582
36.27092357
34.03539247
34.11886234
70.43814803
32.34123595
33.95179083
32.98335038
109.7463222
32.18666073
42.79031497
73.50398997
66.79699245
32.15536415
32.19439029
33.33489356
83.40283053
89.26806514
86.65616527
70.26794219
33.04806352
32.0682461
32.10923077
47.44992312
39.4680422
39.48093337
68.06276714
67.04562395
52.00700309
49.57657552
41.48813682
59.43914387
62.1683195
64.64645974
45.62154567
66.32312293
58.06113598
66.78087356
64.96486304
48.03630006
45.69281224
46.62603836
52.64016295
54.67525299
55.12317702
53.96576425
54.27415199
61.19518455
60.77922269
61.17343646
59.89431297
60.28803543
60.56744146
50.78173821
46.88045009
47.22062547
46.37224187
46.59456582
51.0629147
63.19926036
62.2798362
62.36346658
61.62469319
61.97404153
62.69076057
50.88614438
48.27888882
48.67076886
47.55924073
47.91784821
50.92075727
53.37283097
53.34646804
52.58943175
52.67181055
37.46297754
40.08843299
39.94252862
33.94715039
36.44116328
36.30783155
36.84682161
36.59865227
34.03670014
71.76274754
73.22435687
64.66529739
73.11910979
33.01773894
32.95695557
33.17417919
33.10504087
32.51530785
34.38518818
32.68331569
32.83218363
33.63460574
35.97569255
35.85741242
36.19604675
36.08224527
33.70547516
33.32647867
33.23706817
34.51561007
33.50431438
32.99299818
73.95346299
70.75690993
54.07106708
73.5181595
35.57138621
34.37196587
38.73138776
32.86368261
34.96603475
34.82994308
31.97559677
98.49459818
99.50325149
64.24063051
92.50620689
83.94781351
32.37211548
32.43885313
33.62530891
32.16071234
65.5497904
72.81619897
66.1169848
69.12504254
63.87221126
53.88774348
70.82699898
64.89338458
59.07473863
58.38459834
69.61462132
53.11765144
59.73498042
57.95880605
54.61503561
61.21055383
54.37019626
58.05128014
66.1971542
67.76254523
59.16162043
64.84164667
69.38115312
64.8550471
66.74234216
63.54841537
68.37075569
78.47834647
78.04158517
76.37276849
49.34968154
69.12643396
62.15052434
76.57896304
78.59017108
53.75164005
59.13871544
64.75608798
80.58058674
67.86837406
51.09427556
54.57424151
69.65340794
65.15265216
70.28637961
62.54635616
66.14781286
69.50173367
71.52062934
70.69647641
56.41248066
57.09532324
57.44355994
55.97176929
56.15426823
55.93822309
58.76688991
58.99726244
59.38006267
58.07881288
58.43150092
58.26588888
45.77685328
46.80208324
46.81306009
51.62495191
51.43716021
48.58399577
52.69607741
52.61387901
51.58198233
50.88850697
51.65809844
48.45875184
46.41493954
46.2948796
46.76825586
46.61385378
47.24681739
60.0670144
53.54839994
42.56062458
62.2796695
62.07847767
61.59221272
46.24162006
60.03084599
59.1123133
42.45026522
42.74448761
51.20104647
63.48951234
61.28465124
57.96945338
57.51753484
56.44350082
59.01797198
58.50210652
58.19406947
67.82359412
67.54235175
61.32117059
68.4318685
70.7121088
63.40751356
67.52442323
67.77649822
63.99934914
62.37617312
62.34862609
62.32738836
62.35746006
63.68783514
65.61051179
66.01354832
65.89577982
69.83734618
69.59184412
69.98070293
69.96683098
65.72621105
67.43406734
69.0268975
70.72082054
67.61641675
48.39170371
48.20365218
45.02653901
45.92499703
49.28377361
49.08810379
43.19819529
42.89634952
43.82606637
43.50054107
54.54253165
54.1436582
51.61694454
53.25785252
55.34543785
54.94349781
51.45786329
51.10700998
47.95516395
49.19635095
52.19595516
51.82925436
51.67837745
49.87244066
50.29918985
49.04874744
49.4618237
51.29686188
52.57979985
51.51955853
51.93534823
50.72859346
51.14208088
52.42342765
41.64102358
38.25697285
38.4372477
37.93170049
38.09694048
41.45809751
42.48290863
39.03558763
39.30261277
38.61668626
38.8172138
42.24255222
40.18232284
36.98492936
37.15413613
36.70166358
36.86866321
40.03781499
40.91004634
37.61120651
37.7769144
37.28852017
37.46221037
40.73514688
41.15458865
40.95509204
46.92354712
44.52281461
44.74192986
44.07361065
44.27334363
46.69618687
41.61543976
41.39803408
39.34635889
39.27850826
44.87770887
42.53306039
42.61087614
39.69655459
40.23093749
44.06069871
46.0537319
43.64115585
43.80607774
43.20296879
43.31983974
45.7839168
39.8623576
39.75887115
54.78540455
54.40257949
56.03608637
46.97999256
50.17735572
44.61057442
53.66541977
54.29300944
52.943451
53.357055
45.17095379
43.3224975
49.4888126
46.66143156
53.27162647
53.60552142
43.5670759
36.91535556
39.4371197
39.2914425
39.77276832
39.63756487
37.11835659
34.47034808
34.34330807
34.81982539
34.70566962
34.01869646
33.56776181
34.70859197
37.98212168
37.28576699
38.96788808
38.64515218
36.34361995
36.85495903
35.01019922
35.94707743
36.37501604
39.46184
36.42130947
36.61013275
36.07815735
36.34365225
39.37882105
35.24654862
35.12445596
35.72380997
35.59185094
62.34724946
45.8405102
47.47770702
42.65077805
44.19366476
63.50299279
61.93254371
60.93563695
49.55525504
54.80867038
64.18142296
73.39347523
54.39853919
58.03561762
46.77768423
50.66232503
75.29301069
32.77110219
32.71519267
32.88820054
32.84304032
33.52685536
33.839868
35.99561814
32.4968435
32.46965089
32.6380407
32.58135783
33.33226574
35.5294508
35.39295979
35.75178516
35.6267992
33.39130294
33.08070233
35.07313038
34.78794618
35.31209661
35.14380805
33.11918616
69.09664123
34.69231485
34.44306365
32.54945141
83.74039929
104.8027845
107.4555309
105.0299668
104.8800375
87.51874076
31.99652537
87.24174893
69.63859827
73.1442958
33.40472566
32.23979447
32.30588993
84.50118944
91.15997383
89.92190388
77.58948175
83.08502824
94.87747733
91.94327992
65.34552164
88.05730255
79.45387447
32.19099492
32.04061957
32.7682584
36.72127904
36.7644954
36.84564358
36.78233326
36.85313275
36.89041143
36.88059324
36.96482553
36.95450065
36.98940529
37.05100516
37.01429474
37.06477213
37.09154908
37.03910145
37.09469083
37.09111245
37.03966138
37.08552481
37.05190907
37.01742848
37.03591951
36.969798
36.9613834
36.94526135
36.8619019
36.89916556
36.83831288
36.77575475
36.85395412
36.61909598
36.71055263
36.74392674
36.74969149
36.87126314
36.85241672
36.91296686
37.03591117
36.97538866
37.07319882
37.16730841
37.07117199
37.19092421
37.23632683
37.117563
37.24338489
37.23814511
37.11667671
37.22695011
37.16680229
37.07189432
37.14017719
37.03918303
36.98023548
37.0008712
36.8800167
36.8614597
36.83994856
36.72378562
36.75638039
36.57494047
36.72954618
36.71089923
36.78450729
36.96028555
36.88633898
37.02110471
37.20439838
37.0674197
37.26298234
37.42114919
37.21401499
37.4654636
37.55594607
37.29388202
37.57043261
37.56717853
37.29200907
37.54335553
37.42790165
37.21726747
37.38310004
37.21577862
37.07100089
37.15339448
36.9663333
36.89431069
36.90673715
36.74219395
36.72382206
36.58860158
36.79926032
36.74146773
36.87644747
37.12939789
36.9951513
37.22142424
37.51846217
37.26711534
37.62205227
37.94115472
37.51554406
38.04073707
38.27063992
37.6751066
38.29944326
38.28820951
37.67071882
38.20617305
37.96483853
37.53834154
37.87379186
37.56690507
37.28356295
37.46157786
37.15930872
37.00353384
37.06649765
36.81884755
36.75519738
36.6441755
36.92907151
36.82644738
37.03493329
37.39899618
37.18744519
37.5393816
38.04407242
37.62571999
38.24755514
39.01523084
38.12762747
39.3150798
40.21953488
38.53604364
40.24584188
40.01950486
38.50363361
39.63936263
39.00884427
38.17243881
38.78844894
38.17407988
37.6937262
37.98716021
37.48478487
37.22803304
37.33849265
36.96249294
36.84760456
36.73689898
37.10898444
36.96995655
37.25088072
37.7613825
37.48272082
37.9717217
38.81465352
38.21741292
39.20819288
41.51569236
39.40974947
40.64940403
41.20113677
40.12180022
41.87873824
41.89855009
40.60365174
41.29321362
40.58228203
40.07829976
40.30801922
39.08706124
38.37658999
38.76036518
37.95060225
37.58948753
37.72707199
37.17513078
37.00971887
36.86269441
37.3299476
37.16286934
37.51052243
38.17622206
37.86574611
38.45897181
39.64893756
39.03221193
39.74347367
40.37011488
40.04639253
43.0455028
43.76067081
43.2070322
45.50856446
44.01726434
42.58977405
42.31115578
40.2332769
39.3656916
39.72038949
38.5180583
38.08493528
38.20052069
37.44045137
37.23828898
37.00939251
37.56387634
37.38801237
37.77824089
38.57123804
38.27740241
38.90969626
40.33261069
39.83531803
40.65800885
41.47489981
41.2350975
45.4167633
46.6646026
46.43452614
50.19972757
47.32615735
46.1196226
44.24570319
41.40025955
40.54537739
40.70618911
39.10916301
38.67216576
38.69669423
37.7241666
37.51187442
37.16567451
37.79506523
37.62210915
38.03682245
38.92660251
38.66356742
39.30473641
40.88284444
40.47922048
41.34692108
42.26403664
42.08422
46.56371629
48.09834401
48.01378204
52.90149258
49.67438845
48.92852838
45.73400313
42.38941244
41.6895467
41.55874074
39.63289652
39.25716087
39.14057619
37.98693909
37.7915443
37.32586503
38.01686153
37.85022194
38.28070783
39.24814317
39.00871671
39.65889122
41.37245001
41.00707015
41.92592854
42.92386774
42.75518934
46.97363571
47.66731664
47.82788417
54.1317025
51.00319191
50.63320831