/*--------------------------------*- C++ -*----------------------------------*\
| =========                 |                                                 |
| \\      /  F ield         | OpenFOAM: The Open Source CFD Toolbox           |
|  \\    /   O peration     | Version:  v1912                                 |
|   \\  /    A nd           | Website:  www.openfoam.com                      |
|    \\/     M anipulation  |                                                 |
\*---------------------------------------------------------------------------*/
FoamFile
{
    version     2.0;
    format      ascii;
    class       pointVectorField;
    location    "2.43";
    object      pointDisplacement;
}
// * * * * * * * * * * * * * * * * * * * * * * * * * * * * * * * * * * * * * //

dimensions      [0 1 0 0 0 0 0];


internalField   nonuniform List<vector> 
26316
(
(0 0 0)
(0 0 0)
(0 0 0)
(0 0 0)
(0 0 0)
(0 0 0)
(0 0 0)
(0 0 0)
(0 0 0)
(0 0 0)
(0 0 0)
(0 0 0)
(0 0 0)
(0 0 0)
(0 0 0)
(0 0 0)
(0 0 0)
(0 0 0)
(0 0 0)
(0 0 0)
(0 0 0)
(0 0 0)
(0 0 0)
(0 0 0)
(0 0 0)
(0 0 0)
(0 0 0)
(0 0 0)
(0 0 0)
(0 0 0)
(0 0 0)
(0 0 0)
(0 0 0)
(0 0 0)
(0 0 0)
(0 0 0)
(0 0 0)
(0 0 0)
(0 0 0)
(0 0 0)
(0 0 0)
(0 0 0)
(0 0 0)
(0 0 0)
(0 0 0)
(0 0 0)
(0 0 0)
(0 0 0)
(0 0 0)
(0 0 0)
(0 0 0)
(0 0 0)
(0 0 0)
(0 0 0)
(0 0 0)
(0 0 0)
(0 0 0)
(0 0 0)
(0 0 0)
(0 0 0)
(0 0 0)
(0 0 0)
(0 0 0)
(0 0 0)
(0 0 0)
(0 0 0)
(0 0 0)
(0 0 0)
(0 0 0)
(0 0 0)
(0 0 0)
(0 0 0)
(0 0 0)
(0 0 0)
(0 0 0)
(0 0 0)
(0 0 0)
(0 0 0)
(0 0 0)
(0 0 0)
(0 0 0)
(0 0 0)
(0 0 0)
(0 0 0)
(0 0 0)
(0 0 0)
(0 0 0)
(0 0 0)
(0 0 0)
(0 0 0)
(0 0 0)
(0 0 0)
(0 0 0)
(0 0 0)
(0 0 0)
(0 0 0)
(0 0 0)
(0 0 0)
(0 0 0)
(0 0 0)
(0 0 0)
(0 0 0)
(0 0 0)
(0 0 0)
(0 0 0)
(0 0 0)
(0 0 0)
(0 0 0)
(0 0 0)
(0 0 0)
(0 0 0)
(0 0 0)
(0 0 0)
(0 0 0)
(0 0 0)
(0 0 0)
(0 0 0)
(0 0 0)
(0 0 0)
(-8.361005657e-07 3.069101114e-06 2.775557562e-17)
(0 0 0)
(0 0 0)
(-4.606626454e-07 3.437776053e-05 3.330669074e-16)
(2.13048325e-06 2.922451108e-05 2.91433544e-16)
(0 0 0)
(0 0 0)
(0 0 0)
(0 0 0)
(0 0 0)
(0 0 0)
(0 0 0)
(0 0 0)
(0 0 0)
(0 0 0)
(0 0 0)
(0 0 0)
(0 0 0)
(0 0 0)
(0 0 0)
(0 0 0)
(0 0 0)
(0 0 0)
(0 0 0)
(0 0 0)
(0 0 0)
(0 0 0)
(0 0 0)
(0 0 0)
(0 0 0)
(0 0 0)
(0 0 0)
(0 0 0)
(0 0 0)
(0 0 0)
(0 0 0)
(0 0 0)
(0 0 0)
(0 0 0)
(0 0 0)
(0 0 0)
(0 0 0)
(0 0 0)
(0 0 0)
(0 0 0)
(0 0 0)
(0 0 0)
(0 0 0)
(0 0 0)
(0 0 0)
(0 0 0)
(0 0 0)
(0 0 0)
(0 0 0)
(0 0 0)
(0 0 0)
(0 0 0)
(0 0 0)
(0 0 0)
(0 0 0)
(0 0 0)
(0 0 0)
(0 0 0)
(0 0 0)
(0 0 0)
(0 0 0)
(-5.208709477e-05 3.362400296e-05 4.996003611e-16)
(-0.0002996864909 0.0002110107753 3.080868893e-15)
(-3.919916463e-06 3.085335532e-06 4.163336342e-17)
(-0.0005685609389 0.0006140260504 8.007483565e-15)
(-0.001409651538 0.00136657923 1.992850329e-14)
(-0.001670371306 0.001851919082 2.69784195e-14)
(-0.0007807022035 0.0009629937395 1.255939797e-14)
(-0.0009454357651 0.002029896784 2.646494135e-14)
(-0.001648648708 0.003200057498 4.662936703e-14)
(-0.001367711686 0.003534981693 5.151434834e-14)
(-0.0008111379995 0.00230987829 3.011479954e-14)
(-2.3689817e-05 0.002699102811 3.522182546e-14)
(-1.525663256e-05 0.003989057616 5.824507543e-14)
(0.0004853746965 0.003935116123 5.749567489e-14)
(0.0002784076954 0.002654038247 3.465283616e-14)
(0.0009039679098 0.002032741067 2.656208586e-14)
(0.001608339719 0.003195152871 4.676814491e-14)
(0.001756905771 0.00279108364 4.085620731e-14)
(0.0009486802912 0.001701512589 2.223221607e-14)
(0.000556109398 0.0006209953069 8.118505868e-15)
(0.001381921373 0.001373163803 2.009503675e-14)
(0.001038636307 0.000917790561 1.34336986e-14)
(0.0003246976185 0.0003220637457 4.204969706e-15)
(0 0 0)
(5.464610225e-05 3.620561207e-05 5.273559367e-16)
(0 0 0)
(0 0 0)
(0 0 0)
(0 0 0)
(0 0 0)
(0 0 0)
(0 0 0)
(0 0 0)
(0 0 0)
(0 0 0)
(0 0 0)
(0 0 0)
(0 0 0)
(0 0 0)
(0 0 0)
(0 0 0)
(0 0 0)
(0 0 0)
(0 0 0)
(0 0 0)
(0 0 0)
(0 0 0)
(0 0 0)
(0 0 0)
(0 0 0)
(0 0 0)
(0 0 0)
(0 0 0)
(0 0 0)
(0 0 0)
(0 0 0)
(0 0 0)
(0 0 0)
(0 0 0)
(0 0 0)
(0 0 0)
(0 0 0)
(0 0 0)
(0 0 0)
(0 0 0)
(0 0 0)
(0 0 0)
(0 0 0)
(0 0 0)
(0 0 0)
(0 0 0)
(-0.0001454693106 3.697586645e-05 1.026956298e-15)
(-0.0007943932388 0.0002158347728 6.022959909e-15)
(-0.0001882296029 6.26379667e-05 1.429412144e-15)
(-0.002679988886 0.001123125877 2.53824739e-14)
(-0.004281149193 0.00147327504 4.06341627e-14)
(-0.005452080407 0.002058170721 5.65658631e-14)
(-0.003679258216 0.001688585651 3.806677196e-14)
(-0.005680057653 0.00363017877 8.140710328e-14)
(-0.007491891443 0.003953630323 1.079414336e-13)
(-0.007503116291 0.004550176393 1.241645675e-13)
(-0.005815049421 0.004266587695 9.563183578e-14)
(-0.004456628771 0.005825568692 1.308536612e-13)
(-0.005498096868 0.005964767524 1.634803404e-13)
(-0.004269982166 0.00627121288 1.723898801e-13)
(-0.003502649821 0.006176233167 1.389999227e-13)
(0.0001706094095 0.006607045605 1.49838475e-13)
(0.0002895231902 0.006621734234 1.841582442e-13)
(0.001878044769 0.006548358296 1.828814877e-13)
(0.001462331205 0.006536825157 1.48658863e-13)
(0.004680966861 0.005723639749 1.31131217e-13)
(0.005915135627 0.005798291928 1.637856517e-13)
(0.006817495023 0.005390329563 1.526695437e-13)
(0.005355935177 0.005274953397 1.21055943e-13)
(0.005707029978 0.003560210428 8.18373147e-14)
(0.007602102075 0.003816288495 1.084410339e-13)
(0.007177941323 0.003218379052 9.137135493e-14)
(0.005249552893 0.002922291665 6.711298184e-14)
(0.00266520957 0.001124543631 2.570166302e-14)
(0.004266632981 0.001455716704 4.106437412e-14)
(0.003012618727 0.0009530441125 2.681188604e-14)
(0.001671433623 0.0006528136189 1.489086632e-14)
(0 0 0)
(0.0001444318637 3.733490958e-05 1.040834086e-15)
(0 0 0)
(0 0 0)
(0 0 0)
(0 0 0)
(0 0 0)
(0 0 0)
(0 0 0)
(0 0 0)
(0 0 0)
(0 0 0)
(0 0 0)
(0 0 0)
(0 0 0)
(0 0 0)
(0 0 0)
(0 0 0)
(0 0 0)
(0 0 0)
(0 0 0)
(0 0 0)
(0 0 0)
(0 0 0)
(0 0 0)
(0 0 0)
(0 0 0)
(0 0 0)
(0 0 0)
(0 0 0)
(0 0 0)
(0 0 0)
(0 0 0)
(0 0 0)
(0 0 0)
(0 0 0)
(0 0 0)
(0 0 0)
(0 0 0)
(0 0 0)
(0 0 0)
(-6.258897909e-05 1.017516796e-06 3.747002708e-16)
(0 0 0)
(-0.002661408639 0.0002192086903 1.892930257e-14)
(-0.003953999445 9.775855583e-05 2.807476474e-14)
(-0.006180646433 0.0001764896869 4.690692279e-14)
(-0.004540792565 0.0004064136478 3.447242491e-14)
(-0.01032424505 0.001223209126 9.864331574e-14)
(-0.01251574 0.0005345422454 1.198069421e-13)
(-0.01395674954 0.0006763860522 1.462857613e-13)
(-0.01175621269 0.001544282602 1.229572e-13)
(-0.01322646364 0.002465293432 1.931510507e-13)
(-0.01505185711 0.001058125612 2.204625371e-13)
(-0.01430018999 0.001146367373 2.412237077e-13)
(-0.01269307467 0.002717688765 2.133987431e-13)
(-0.008470825999 0.003209091373 2.590844206e-13)
(-0.009325649265 0.001243305427 2.866179516e-13)
(-0.007013047984 0.001222951456 2.958883139e-13)
(-0.00640870853 0.003279932026 2.687572387e-13)
(0.0006949064417 0.003245715207 2.811501032e-13)
(0.0007976576834 0.001048348911 3.075317778e-13)
(0.003459106731 0.00096621224 3.063244103e-13)
(0.003125501837 0.003165639876 2.798455911e-13)
(0.009609697379 0.002767593111 2.594729986e-13)
(0.01067268381 0.0006990391343 2.869926519e-13)
(0.01257745567 0.0006153169049 2.748912209e-13)
(0.01126148475 0.002592735827 2.470523786e-13)
(0.01376495628 0.001976605886 1.938310623e-13)
(0.01575368447 0.0004141012513 2.210454042e-13)
(0.01577696069 0.0003658319235 1.979805209e-13)
(0.01363553977 0.001749108852 1.716682352e-13)
(0.01034653363 0.001027113874 9.865719353e-14)
(0.01290507858 0.0002252101499 1.223882107e-13)
(0.01110652692 0.000177673204 9.74359482e-14)
(0.008797413213 0.0008049176143 7.745193376e-14)
(0.003040470965 0.0002332355666 2.184363801e-14)
(0.004545630659 7.673584226e-05 3.264055692e-14)
(0.002563473622 4.391037425e-05 1.734723476e-14)
(0.001464569124 0.0001072082925 9.922618283e-15)
(0 0 0)
(0 0 0)
(0 0 0)
(0 0 0)
(0 0 0)
(0 0 0)
(0 0 0)
(0 0 0)
(0 0 0)
(0 0 0)
(0 0 0)
(0 0 0)
(0 0 0)
(0 0 0)
(0 0 0)
(0 0 0)
(0 0 0)
(0 0 0)
(0 0 0)
(0 0 0)
(0 0 0)
(0 0 0)
(0 0 0)
(0 0 0)
(0 0 0)
(0 0 0)
(0 0 0)
(0 0 0)
(0 0 0)
(0 0 0)
(0 0 0)
(0 0 0)
(0 0 0)
(0 0 0)
(0 0 0)
(-0.0002892711309 -3.581350322e-05 1.637578961e-15)
(-0.0006578089609 -0.0001118230934 3.73312492e-15)
(-0.002335734291 -0.000415530109 1.393329896e-14)
(-0.001570482387 -0.0002034122772 9.36750677e-15)
(-0.009210392634 -0.001369910953 6.5336625e-14)
(-0.0108933291 -0.00224067095 7.729927809e-14)
(-0.01402512913 -0.003048690963 1.063038546e-13)
(-0.01216272139 -0.00190525103 9.217626662e-14)
(-0.01910087228 -0.003608971855 1.822431095e-13)
(-0.02108902869 -0.005619063096 2.010891453e-13)
(-0.02217620576 -0.006425128265 2.313704783e-13)
(-0.02027472726 -0.004144281441 2.118583087e-13)
(-0.01983736421 -0.005586034369 2.903927099e-13)
(-0.02107138481 -0.008409964752 3.071848331e-13)
(-0.01936693025 -0.008918941611 3.251565683e-13)
(-0.01829485308 -0.005959623473 3.083089339e-13)
(-0.01123256239 -0.006848649535 3.444466934e-13)
(-0.01163878764 -0.009910671701 3.539668558e-13)
(-0.008593686824 -0.01009556226 3.573391583e-13)
(-0.008336947389 -0.007047983531 3.499978085e-13)
(0.0008462014814 -0.007460793152 3.555628014e-13)
(0.0007674081257 -0.01045679147 3.592404152e-13)
(0.003899914112 -0.01056331496 3.59184904e-13)
(0.003937470994 -0.007555980885 3.550909566e-13)
(0.01289791473 -0.007654695869 3.451544606e-13)
(0.01322190694 -0.01076240533 3.544525784e-13)
(0.01604284625 -0.01069275158 3.486100297e-13)
(0.0155297925 -0.00757093646 3.370359547e-13)
(0.02095754412 -0.006742517742 2.910172103e-13)
(0.02227353475 -0.009760390264 3.082534228e-13)
(0.02328672383 -0.009200752649 2.878947081e-13)
(0.02168035482 -0.006301131116 2.685074385e-13)
(0.01989400619 -0.004419151034 1.874334021e-13)
(0.02192611216 -0.006594363561 2.064320936e-13)
(0.02005131537 -0.005560493235 1.749711487e-13)
(0.01798243864 -0.003676007461 1.57027169e-13)
(0.00975772551 -0.001583289517 6.986078382e-14)
(0.01150354314 -0.002552140138 8.22952817e-14)
(0.008286487047 -0.001717648071 5.589972929e-14)
(0.00678816649 -0.001026219811 4.582445534e-14)
(0.0004475450759 -5.628260957e-05 2.581268532e-15)
(0.0007688789445 -0.0001333367739 4.427014311e-15)
(1.95168625e-05 -3.219894328e-06 1.110223025e-16)
(0 0 0)
(0 0 0)
(0 0 0)
(0 0 0)
(0 0 0)
(0 0 0)
(0 0 0)
(0 0 0)
(0 0 0)
(0 0 0)
(0 0 0)
(0 0 0)
(0 0 0)
(0 0 0)
(0 0 0)
(0 0 0)
(0 0 0)
(0 0 0)
(0 0 0)
(0 0 0)
(0 0 0)
(0 0 0)
(0 0 0)
(0 0 0)
(0 0 0)
(0 0 0)
(0 0 0)
(0 0 0)
(0 0 0)
(-2.753431785e-05 -1.008482326e-05 1.387778781e-16)
(-7.513372757e-07 -2.433915469e-07 0)
(0 0 0)
(-0.00206485322 -0.0006369373605 1.169897512e-14)
(-0.002606095929 -0.0009239993764 1.476596623e-14)
(-0.005404801099 -0.002008261351 3.223810108e-14)
(-0.004611353554 -0.001490404617 2.750577544e-14)
(-0.01494377767 -0.005636735673 1.060124211e-13)
(-0.01626626361 -0.007064935583 1.153521723e-13)
(-0.01973812622 -0.009101195904 1.494498969e-13)
(-0.01869819905 -0.00747845241 1.416644579e-13)
(-0.02573098395 -0.01274833077 2.448319325e-13)
(-0.02680384529 -0.01532306572 2.546851618e-13)
(-0.02746304047 -0.01712723622 2.850497616e-13)
(-0.02648965725 -0.01431864246 2.754602102e-13)
(-0.0237281029 -0.01777804488 3.411299021e-13)
(-0.02425301044 -0.02094558384 3.472777621e-13)
(-0.021761322 -0.02155439358 3.562844464e-13)
(-0.02142400147 -0.01842105955 3.527594883e-13)
(-0.01228859832 -0.01889241382 0)
(-0.01251722001 -0.02192617995 0)
(-0.01093816997 -0.02195294856 0)
(-0.009271957181 -0.02191398486 0)
(-0.009144812673 -0.02041268451 0)
(-0.009080239496 -0.01894575479 0)
(0.0004650183432 -0.01921250963 0)
(0.0004150292042 -0.02067166512 0)
(0.002013633182 -0.0207251512 0)
(0.002054960011 -0.01926583633 0)
(0.01331539458 -0.01977247379 0)
(0.01331176213 -0.02127273192 0)
(0.01331867215 -0.02279659628 0)
(0.01490730932 -0.02289691703 0)
(0.01647385185 -0.02296756191 0)
(0.01650775809 -0.01995571814 0)
(0.02475460293 -0.01946475005 3.43489126e-13)
(0.02510722304 -0.02266796966 3.493455525e-13)
(0.02698287449 -0.02182871382 3.353289868e-13)
(0.02642533437 -0.01862889113 3.277100813e-13)
(0.0266098516 -0.01427953473 2.506606034e-13)
(0.02755393747 -0.0169745023 2.597227988e-13)
(0.02613485701 -0.01488749793 2.280814426e-13)
(0.02495828224 -0.01238125968 2.177424907e-13)
(0.01606675338 -0.006449144016 1.147693052e-13)
(0.01757056396 -0.008099369112 1.254968351e-13)
(0.01383664741 -0.005981459434 9.318934513e-14)
(0.01246215756 -0.004689498799 8.393286066e-14)
(0.002771767762 -0.0008753781124 1.59317004e-14)
(0.003464699867 -0.001258211199 1.990074772e-14)
(0.001241053521 -0.0004280445098 6.800116026e-15)
(0.0008443805564 -0.0002532691861 4.62130334e-15)
(0 0 0)
(0 0 0)
(0 0 0)
(0 0 0)
(0 0 0)
(0 0 0)
(0 0 0)
(0 0 0)
(0 0 0)
(0 0 0)
(0 0 0)
(0 0 0)
(0 0 0)
(0 0 0)
(0 0 0)
(0 0 0)
(0 0 0)
(0 0 0)
(0 0 0)
(0 0 0)
(0 0 0)
(0 0 0)
(0 0 0)
(0 0 0)
(0 0 0)
(0 0 0)
(0 0 0)
(0 0 0)
(-0.0002480971437 -0.0001328784517 1.276756478e-15)
(-0.0001413837958 -6.973537934e-05 7.21644966e-16)
(-0.0001156642742 -5.216148689e-05 5.967448757e-16)
(-0.003744597219 -0.001848279017 2.120525977e-14)
(-0.003883637031 -0.002096785464 2.199629368e-14)
(-0.007189184913 -0.004070770942 4.282685317e-14)
(-0.006998877391 -0.003622432153 4.170275236e-14)
(-0.01880057397 -0.01140492073 1.330602295e-13)
(-0.01910550333 -0.01268680877 1.351141421e-13)
(-0.02273408659 -0.01604358685 1.715017017e-13)
(-0.02240650687 -0.01444285943 1.69197989e-13)
(-0.02900708646 -0.02321454219 2.740446758e-13)
(-0.02932741516 -0.02569152217 2.765565554e-13)
(-0.02968732834 -0.02834910458 3.052835762e-13)
(-0.02939232126 -0.02564802865 3.029521078e-13)
(-0.02513094694 -0.03021028177 3.554101458e-13)
(-0.02529342072 -0.03322439389 3.562844464e-13)
(-0.02238374147 -0.03359703747 0)
(-0.02227799837 -0.03062683847 3.592404152e-13)
(-0.01292974909 -0.030911705 0)
(-0.01298996032 -0.03241703691 0)
(-0.01143276909 -0.03246123106 0)
(-0.01137277551 -0.0309582662 0)
(0.0131160689 -0.03175725668 0)
(0.01307397583 -0.03324858634 0)
(0.01463023836 -0.03330794741 0)
(0.01467389495 -0.03181888093 0)
(0.02545636606 -0.03209025898 3.574918139e-13)
(0.02542036239 -0.03511607052 3.583522368e-13)
(0.02794083222 -0.03449554621 3.51080276e-13)
(0.02787381885 -0.03142302238 3.490679967e-13)
(0.03016598001 -0.02577872798 2.855632397e-13)
(0.03049817067 -0.0285043559 2.892963646e-13)
(0.02943198754 -0.02541234484 2.581546088e-13)
(0.02903849875 -0.02292996186 2.54282706e-13)
(0.0206126995 -0.01317752056 1.473959843e-13)
(0.02107048391 -0.01472746228 1.507960423e-13)
(0.01710454973 -0.01122260927 1.153244167e-13)
(0.01666879116 -0.01000105476 1.123268145e-13)
(0.005026842475 -0.002539196578 2.886579864e-14)
(0.005676363656 -0.003138886673 3.259892356e-14)
(0.002706876407 -0.001421948848 1.482147738e-14)
(0.002228347248 -0.001069279233 1.21846977e-14)
(0 0 0)
(0 0 0)
(0 0 0)
(0 0 0)
(0 0 0)
(0 0 0)
(0 0 0)
(0 0 0)
(0 0 0)
(0 0 0)
(0 0 0)
(0 0 0)
(0 0 0)
(0 0 0)
(0 0 0)
(0 0 0)
(0 0 0)
(0 0 0)
(0 0 0)
(0 0 0)
(0 0 0)
(0 0 0)
(0 0 0)
(0 0 0)
(0 0 0)
(0 0 0)
(0 0 0)
(0 0 0)
(-0.0004072697943 -0.000286945817 2.095545959e-15)
(-0.0003678448675 -0.0002436476242 1.887379142e-15)
(-0.0003227036264 -0.0002001203477 1.665334537e-15)
(-0.004614933964 -0.003133085604 2.611799665e-14)
(-0.004772239771 -0.00346083865 2.700617507e-14)
(-0.008321874449 -0.006331675113 4.954370247e-14)
(-0.008124615095 -0.005786661086 4.83779683e-14)
(-0.02031500421 -0.0169838946 1.433853036e-13)
(-0.02056660337 -0.01836873214 1.450506382e-13)
(-0.02417832515 -0.0229489763 1.817157536e-13)
(-0.02392790252 -0.02126047455 1.800087857e-13)
(-0.03025804046 -0.03333063607 2.836619828e-13)
(-0.03046601803 -0.03582819964 2.850497616e-13)
(-0.03067245066 -0.03926641577 3.124722703e-13)
(-0.03048686876 -0.03657073609 3.113065361e-13)
(-0.02568458829 -0.04217666584 3.576583474e-13)
(-0.02579621282 -0.0451372122 3.57880392e-13)
(-0.02277972387 -0.04541252991 0)
(-0.02268282342 -0.04246594522 0)
(-0.01335046034 -0.04278257966 0)
(-0.01339983336 -0.04425686601 0)
(-0.01184682228 -0.04430934046 0)
(-0.0117972444 -0.04283506111 0)
(0.01274472545 -0.0436539974 0)
(0.01269437305 -0.04513693328 0)
(0.01424705961 -0.04519090077 0)
(0.01429765949 -0.04370872543 0)
(0.02517792123 -0.04408299848 3.591987818e-13)
(0.02507622758 -0.04704686463 3.592404152e-13)
(0.02786528879 -0.04660136481 3.551187122e-13)
(0.02792512267 -0.04360999955 3.545774785e-13)
(0.03132414237 -0.03688448002 2.99080205e-13)
(0.03144210741 -0.03959243311 3.00912073e-13)
(0.03071414156 -0.03569014292 2.713940184e-13)
(0.03053268024 -0.03318745756 2.69256839e-13)
(0.02271228578 -0.01996708379 1.629668622e-13)
(0.0230320024 -0.02163487772 1.654232307e-13)
(0.0191172071 -0.01685515509 1.292438379e-13)
(0.01878055927 -0.01549758982 1.268707361e-13)
(0.006507927332 -0.004524675075 3.740063814e-14)
(0.006772020053 -0.005030653974 3.89271948e-14)
(0.003492251133 -0.002464854568 1.910971381e-14)
(0.003292376843 -0.002174848882 1.801336857e-14)
(0 0 0)
(0 0 0)
(0 0 0)
(0 0 0)
(0 0 0)
(0 0 0)
(0 0 0)
(0 0 0)
(0 0 0)
(0 0 0)
(0 0 0)
(0 0 0)
(0 0 0)
(0 0 0)
(0 0 0)
(0 0 0)
(0 0 0)
(0 0 0)
(0 0 0)
(0 0 0)
(0 0 0)
(0 0 0)
(0 0 0)
(0 0 0)
(0 0 0)
(0 0 0)
(0 0 0)
(0 0 0)
(-0.0006007924076 -0.0005246066468 3.094746681e-15)
(-0.0005416503292 -0.0004501256489 2.789435349e-15)
(-0.0004889939379 -0.0003857625292 2.511879593e-15)
(-0.005164142422 -0.004461157092 2.922662112e-14)
(-0.005322899971 -0.004843973761 3.011479954e-14)
(-0.009006209891 -0.008598942526 5.358213873e-14)
(-0.008810245391 -0.007985375994 5.243028234e-14)
(-0.02119130837 -0.02254127745 1.491307078e-13)
(-0.02143711808 -0.02401595796 1.507405312e-13)
(-0.02504887301 -0.02980846696 1.875027911e-13)
(-0.02480451275 -0.02803041649 1.858652121e-13)
(-0.03100656246 -0.04332429156 2.884081862e-13)
(-0.03120910755 -0.04588752655 2.897126983e-13)
(-0.0313444375 -0.05009736645 3.163302953e-13)
(-0.03116400424 -0.04735051282 3.152478278e-13)
(-0.02611508149 -0.05399570905 3.583522368e-13)
(-0.02622129703 -0.05695207412 3.585048924e-13)
(-0.02316197108 -0.05717423335 0)
(-0.02306690744 -0.05423538007 0)
(-0.01374061287 -0.05455153358 0)
(-0.01378890201 -0.05602011389 0)
(-0.01223799626 -0.05607217452 0)
(-0.01221371278 -0.05533782074 0)
(-0.0121894503 -0.05460408157 0)
(0.01232527721 -0.05550392562 0)
(0.01227060908 -0.05698110761 0)
(0.01382160413 -0.05703255596 0)
(0.01387646079 -0.055555859 0)
(0.02474896467 -0.05591254338 3.592126596e-13)
(0.02463378533 -0.05884919194 3.591432707e-13)
(0.02737461799 -0.0581416984 3.542860449e-13)
(0.02751868603 -0.05531006084 3.547578897e-13)
(0.03108391119 -0.04682206054 2.996769499e-13)
(0.03089429054 -0.04909853386 2.985944825e-13)
(0.03017284117 -0.04418428585 2.688266276e-13)
(0.03036453161 -0.04216138906 2.69978484e-13)
(0.02272890522 -0.025456885 1.637856517e-13)
(0.02256168101 -0.02662858781 1.627448176e-13)
(0.01868413809 -0.02068879249 1.267319583e-13)
(0.01883546804 -0.01979451523 1.2766177e-13)
(0.006587312158 -0.005831959337 3.79002385e-14)
(0.006500709442 -0.006063353271 3.741451593e-14)
(0.003293692608 -0.002919217055 1.804112415e-14)
(0.003354636514 -0.00282212309 1.837419106e-14)
(0 0 0)
(0 0 0)
(0 0 0)
(0 0 0)
(0 0 0)
(0 0 0)
(0 0 0)
(0 0 0)
(0 0 0)
(0 0 0)
(0 0 0)
(0 0 0)
(0 0 0)
(0 0 0)
(0 0 0)
(0 0 0)
(0 0 0)
(0 0 0)
(0 0 0)
(0 0 0)
(0 0 0)
(0 0 0)
(0 0 0)
(0 0 0)
(0 0 0)
(0 0 0)
(0 0 0)
(0 0 0)
(-0.0008604213156 -0.0008964515681 4.440892099e-15)
(-0.0007900869663 -0.0007898635921 4.066191828e-15)
(-0.000722061875 -0.0006914092312 3.719247132e-15)
(-0.00581954382 -0.006101290324 3.291811268e-14)
(-0.005994607605 -0.006561051859 3.390343561e-14)
(-0.009826882175 -0.01128232372 5.83977311e-14)
(-0.00961430834 -0.01057418729 5.714873019e-14)
(-0.02219127117 -0.02861490963 1.556810236e-13)
(-0.02245185627 -0.03021151675 1.573741137e-13)
(-0.02605447227 -0.03721624569 1.941918848e-13)
(-0.02579681105 -0.03531703514 1.924849169e-13)
(-0.03182420767 -0.05370962101 2.936401122e-13)
(-0.03203369772 -0.05636335056 2.949723799e-13)
(-0.03207446875 -0.06126235413 3.206046539e-13)
(-0.03188986203 -0.05844375728 3.195360643e-13)
(-0.02653331116 -0.06582591596 3.588934705e-13)
(-0.02663491976 -0.06878273715 3.58990615e-13)
(-0.02353931773 -0.06893658291 0)
(-0.02344549325 -0.06599597802 0)
(-0.01412492105 -0.06631152569 0)
(-0.01417236911 -0.06778150215 0)
(-0.01262412902 -0.06783354003 0)
(-0.01260023427 -0.06709855763 0)
(-0.01257627589 -0.06636371415 0)
(0.01187697003 -0.06730405102 0)
(0.01181813794 -0.06877903956 0)
(0.01336768429 -0.06882886587 0)
(0.01342684384 -0.06735429875 0)
(0.02423560006 -0.06752784556 3.583244812e-13)
(0.0240723976 -0.07032214948 3.575889584e-13)
(0.02653648917 -0.06870795153 3.4898473e-13)
(0.02679808639 -0.06623346905 3.51010887e-13)
(0.02972240735 -0.05467587179 2.893657536e-13)
(0.02907678776 -0.0559220214 2.837313717e-13)
(0.02828676054 -0.05004762618 2.540329058e-13)
(0.02881830207 -0.04878226362 2.583072645e-13)
(0.02088188692 -0.02841457109 1.510735981e-13)
(0.0203489217 -0.02891560859 1.473543509e-13)
(0.01651449652 -0.02200287713 1.123406923e-13)
(0.01700951567 -0.02170418657 1.15629728e-13)
(0.00531265562 -0.005708731933 3.060052212e-14)
(0.005027262107 -0.00563977841 2.896294315e-14)
(0.002235708087 -0.002383742337 1.225408663e-14)
(0.002427072715 -0.002478632313 1.330879851e-14)
(0 0 0)
(0 0 0)
(0 0 0)
(0 0 0)
(0 0 0)
(0 0 0)
(0 0 0)
(0 0 0)
(0 0 0)
(0 0 0)
(0 0 0)
(0 0 0)
(0 0 0)
(0 0 0)
(0 0 0)
(0 0 0)
(0 0 0)
(0 0 0)
(0 0 0)
(0 0 0)
(0 0 0)
(0 0 0)
(0 0 0)
(0 0 0)
(0 0 0)
(0 0 0)
(0 0 0)
(0 0 0)
(-0.001087534775 -0.001316412317 5.606626274e-15)
(-0.001124681785 -0.001313911263 5.800915304e-15)
(-0.001026649706 -0.0011561491 5.287437155e-15)
(-0.006567162664 -0.008093949136 3.712308239e-14)
(-0.006791117806 -0.008681755893 3.838596108e-14)
(-0.01078310751 -0.01445568149 6.400435737e-14)
(-0.01051600107 -0.01359260897 6.245004514e-14)
(-0.0232841036 -0.03523285715 1.627586954e-13)
(-0.02360050456 -0.03702219073 1.64812608e-13)
(-0.02718347101 -0.0452310096 2.016581346e-13)
(-0.02687400518 -0.04314194805 1.996180998e-13)
(-0.03268836437 -0.06448694798 2.991218384e-13)
(-0.03292779598 -0.0672759063 3.006622729e-13)
(-0.03285150836 -0.07276659717 3.251843239e-13)
(-0.03264597914 -0.06984346878 3.239492008e-13)
(-0.02693218233 -0.07764022402 3.592126596e-13)
(-0.02702887795 -0.08058764575 3.592404152e-13)
(-0.02391224304 -0.08069559675 0)
(-0.02381905651 -0.07775565374 0)
(-0.01450001764 -0.07807005507 0)
(-0.01454616351 -0.07953993931 0)
(-0.01300084823 -0.07959153535 0)
(-0.01297762938 -0.07885632474 0)
(-0.01295436091 -0.07812166278 0)
(0.01139595522 -0.07907495819 0)
(0.01133298658 -0.08054495105 0)
(0.01288202864 -0.08059352946 0)
(0.01294547531 -0.07912355294 0)
(0.02348198005 -0.07827932162 3.539113447e-13)
(0.02323122514 -0.08069428921 3.518296765e-13)
(0.02529651422 -0.07758517383 3.380073998e-13)
(0.02566440958 -0.07562146357 3.415878691e-13)
(0.0272620259 -0.05930401403 2.677302824e-13)
(0.02677939664 -0.06052873557 2.63566946e-13)
(0.02543706225 -0.05277900502 2.299688218e-13)
(0.02625792388 -0.05247578041 2.370326158e-13)
(0.01796743165 -0.02876717168 1.30409572e-13)
(0.01683902559 -0.02796319454 1.222910662e-13)
(0.01306865138 -0.02033853729 8.909539773e-14)
(0.0142002317 -0.02130937706 9.676981438e-14)
(0.003566686794 -0.004506230673 2.055300374e-14)
(0.00311496416 -0.004082499678 1.795785742e-14)
(0.001011960762 -0.001260989249 5.551115123e-15)
(0.001273703795 -0.001529844929 6.994405055e-15)
(0 0 0)
(0 0 0)
(0 0 0)
(0 0 0)
(0 0 0)
(0 0 0)
(0 0 0)
(0 0 0)
(0 0 0)
(0 0 0)
(0 0 0)
(0 0 0)
(0 0 0)
(0 0 0)
(0 0 0)
(0 0 0)
(0 0 0)
(0 0 0)
(0 0 0)
(0 0 0)
(0 0 0)
(0 0 0)
(0 0 0)
(0 0 0)
(0 0 0)
(0 0 0)
(0 0 0)
(0 0 0)
(-0.001933838899 -0.002665773566 9.964251646e-15)
(-0.00176298715 -0.002355940236 9.076073226e-15)
(-0.001508750058 -0.001952963076 7.771561172e-15)
(-0.007511300011 -0.01063460126 4.242439733e-14)
(-0.008071538018 -0.01179399926 4.556077737e-14)
(-0.01225102774 -0.01876289982 7.260858581e-14)
(-0.01156402403 -0.0171642174 6.857014956e-14)
(-0.02466952332 -0.04278042264 1.717376241e-13)
(-0.02513877195 -0.04496719801 1.748046152e-13)
(-0.0286154528 -0.05424869586 2.111505415e-13)
(-0.02822158858 -0.0518771434 2.085415174e-13)
(-0.03370707556 -0.07589961778 3.057276654e-13)
(-0.03385431853 -0.0785698843 3.063937992e-13)
(-0.0337407456 -0.08477586682 3.305827834e-13)
(-0.03350981463 -0.08172768692 3.291811268e-13)
(-0.02731504153 -0.08940811069 0)
(-0.02741224784 -0.0923476428 0)
(-0.02429091932 -0.09245284147 0)
(-0.02424260683 -0.09098357825 0)
(-0.02419469942 -0.08951416445 0)
(-0.01486588336 -0.08982855816 0)
(-0.01488871874 -0.09056255122 0)
(-0.01411584689 -0.09058808308 0)
(-0.0140930868 -0.08985429256 0)
(-0.001463409744 -0.09046120309 0)
(-0.001484439879 -0.09082694802 0)
(-0.001503011164 -0.09119284538 0)
(-0.0007460432471 -0.09121010774 0)
(-0.0007052927388 -0.09047905169 0)
(0.01085852668 -0.09081611022 0)
(0.01078443196 -0.09227956942 0)
(0.01070973663 -0.09374259787 0)
(0.01381693662 -0.09384109186 0)
(0.01396242948 -0.09091305573 0)
(0.01241105388 -0.0908647394 0)
(0.02233493214 -0.08710288309 3.431699369e-13)
(0.02191773471 -0.08861787592 3.382988334e-13)
(0.02345389776 -0.08335710212 3.18051141e-13)
(0.02409847128 -0.08271431172 3.256839243e-13)
(0.0244634626 -0.06147659914 2.420563749e-13)
(0.02357411287 -0.06122033951 2.336048022e-13)
(0.02191002275 -0.05214801686 1.991184995e-13)
(0.0228393119 -0.05262075395 2.073202721e-13)
(0.01395309123 -0.02566779321 1.014743845e-13)
(0.01311279358 -0.02490506934 9.539591339e-14)
(0.009602061269 -0.01708631529 6.553091403e-14)
(0.01034245357 -0.01782584206 7.0568551e-14)
(0.001473159766 -0.002138803796 8.493206138e-15)
(0.001197574803 -0.001795349011 6.911138328e-15)
(9.496659646e-05 -0.0001354469652 5.273559367e-16)
(0.0001814375058 -0.0002505831638 9.992007222e-16)
(0 0 0)
(0 0 0)
(0 0 0)
(0 0 0)
(0 0 0)
(0 0 0)
(0 0 0)
(0 0 0)
(0 0 0)
(0 0 0)
(0 0 0)
(0 0 0)
(0 0 0)
(0 0 0)
(0 0 0)
(0 0 0)
(0 0 0)
(0 0 0)
(0 0 0)
(0 0 0)
(0 0 0)
(0 0 0)
(0 0 0)
(0 0 0)
(0 0 0)
(0 0 0)
(0 0 0)
(0 0 0)
(-0.001834018851 -0.002850746823 9.492406861e-15)
(-0.002072651437 -0.003133413887 1.071365219e-14)
(-0.002214765516 -0.003254242278 1.146305273e-14)
(-0.008943203097 -0.01436541957 5.069555886e-14)
(-0.008656094702 -0.01430614624 4.90579799e-14)
(-0.01292455658 -0.0223845804 7.686906667e-14)
(-0.01326812672 -0.02233490913 7.892297926e-14)
(-0.02630989133 -0.051686839 1.834365992e-13)
(-0.02589373307 -0.0523191511 1.804112415e-13)
(-0.02934306079 -0.06280282094 2.167988011e-13)
(-0.02974579051 -0.0619133417 2.199768145e-13)
(-0.03462068672 -0.08814217672 3.1366576e-13)
(-0.0343702074 -0.08989753376 3.108208135e-13)
(-0.03400962649 -0.0962729515 3.328171072e-13)
(-0.03417755713 -0.09421160342 3.352040867e-13)
(-0.02735950784 -0.1012068633 0)
(-0.02746000843 -0.1041467613 0)
(-0.02432999011 -0.1042537612 0)
(-0.02427975148 -0.1027841536 0)
(-0.02422948951 -0.1013138631 0)
(-0.01483957112 -0.1016348581 0)
(-0.01488983309 -0.1031051485 0)
(-0.01332489222 -0.1031586461 0)
(-0.01329974956 -0.1024231594 0)
(-0.01327463025 -0.1016883557 0)
(-0.01405710068 -0.1016616069 0)
(-0.002319704939 -0.1020628504 0)
(-0.002344822943 -0.1027976543 0)
(-0.002369964946 -0.103533141 0)
(-0.0008049759893 -0.1035866402 0)
(-0.0007547140193 -0.1021163498 0)
(0.01020016573 -0.102490843 0)
(0.01009966514 -0.1054307411 0)
(0.01318657361 -0.1051325069 3.57880392e-13)
(0.01332111564 -0.102516368 3.589628594e-13)
(0.02070317509 -0.09277791012 3.240185897e-13)
(0.02017060984 -0.093361207 3.171074514e-13)
(0.02127079659 -0.08617219322 2.925854004e-13)
(0.02190602527 -0.08602214787 3.003153282e-13)
(0.02051223513 -0.05840021418 2.03989603e-13)
(0.01968011096 -0.05768787402 1.959682416e-13)
(0.01758544881 -0.0471481581 1.602606936e-13)
(0.01878747782 -0.04897466092 1.711686348e-13)
(0.009899153973 -0.02055752301 7.206735209e-14)
(0.008628752872 -0.01842318041 6.281086762e-14)
(0.005868427873 -0.0117427741 4.00651734e-14)
(0.006686387886 -0.01300887429 4.565792189e-14)
(0.0002465925739 -0.0004046696505 1.415534356e-15)
(0.0001113861759 -0.0001880870722 6.383782392e-16)
(0 0 0)
(0 0 0)
(0 0 0)
(0 0 0)
(0 0 0)
(0 0 0)
(0 0 0)
(0 0 0)
(0 0 0)
(0 0 0)
(0 0 0)
(0 0 0)
(0 0 0)
(0 0 0)
(0 0 0)
(0 0 0)
(0 0 0)
(0 0 0)
(0 0 0)
(0 0 0)
(0 0 0)
(0 0 0)
(0 0 0)
(0 0 0)
(0 0 0)
(0 0 0)
(0 0 0)
(0 0 0)
(0 0 0)
(0 0 0)
(-0.0004282886432 -0.0007390189838 2.206568261e-15)
(-0.0007771759491 -0.001307740843 4.024558464e-15)
(-0.001154699869 -0.001893525416 5.967448757e-15)
(-0.006631872293 -0.01189707904 3.760880496e-14)
(-0.005665400046 -0.01043350294 3.214095656e-14)
(-0.009236413299 -0.01783236706 5.498379529e-14)
(-0.01044991696 -0.01964899431 6.217248938e-14)
(-0.02269417296 -0.04977384199 1.580680031e-13)
(-0.02103586099 -0.04738706436 1.466049504e-13)
(-0.02446138405 -0.05834610691 1.806887973e-13)
(-0.02614955138 -0.06072811801 1.930539062e-13)
(-0.03196668855 -0.09050103266 2.881861416e-13)
(-0.03056181063 -0.08881769526 2.755295991e-13)
(-0.03089849145 -0.09701556182 3.00981462e-13)
(-0.03209847534 -0.09821913367 3.127775816e-13)
(-0.02743814282 -0.1117579448 3.553685124e-13)
(-0.02704528061 -0.1127891777 3.494982082e-13)
(-0.02450317636 -0.1150399619 3.562150575e-13)
(-0.02461557269 -0.113008067 3.590322484e-13)
(-0.01524162019 -0.1133958162 0)
(-0.01534214413 -0.1163363972 0)
(-0.0122121941 -0.1164433947 0)
(-0.01211167016 -0.1135028137 0)
(-0.01367667932 -0.1134493138 0)
(-0.002721751764 -0.1138238087 0)
(-0.002822275704 -0.1167643897 0)
(0.0003076948164 -0.1168713879 0)
(0.0004082187565 -0.1139308069 0)
(0.00973073434 -0.1132304159 3.56048524e-13)
(0.009517678772 -0.1143335582 3.504974089e-13)
(0.01225325083 -0.1109164789 3.397698789e-13)
(0.01258894449 -0.1107324602 3.479022626e-13)
(0.01844515968 -0.09286989073 2.912947661e-13)
(0.0176492686 -0.09111745631 2.786937348e-13)
(0.01813589067 -0.08171142262 2.498973251e-13)
(0.01907060025 -0.083833902 2.629008122e-13)
(0.0162889598 -0.05165518401 1.621480727e-13)
(0.01513774182 -0.04917973517 1.505462421e-13)
(0.01287701065 -0.03825694903 1.171840402e-13)
(0.01400960069 -0.04062508996 1.275923811e-13)