/*--------------------------------*- C++ -*----------------------------------*\
| =========                 |                                                 |
| \\      /  F ield         | OpenFOAM: The Open Source CFD Toolbox           |
|  \\    /   O peration     | Version:  v1912                                 |
|   \\  /    A nd           | Website:  www.openfoam.com                      |
|    \\/     M anipulation  |                                                 |
\*---------------------------------------------------------------------------*/
FoamFile
{
    version     2.0;
    format      ascii;
    class       volVectorField;
    location    "2.43";
    object      U;
}
// * * * * * * * * * * * * * * * * * * * * * * * * * * * * * * * * * * * * * //

dimensions      [0 1 -1 0 0 0 0];


internalField   nonuniform List<vector> 
12556
(
(99.9984644 0.003728675371 -4.46697722e-21)
(99.9979747 0.01250285104 2.425845835e-25)
(99.9966289 0.02625003444 -4.458046124e-21)
(99.99439 0.04822840077 -4.428513666e-21)
(99.99974332 0.03773356216 4.271858394e-21)
(99.99720413 0.06175132493 0)
(99.99575947 0.09876201679 0)
(99.99536708 0.1491106248 -7.452905325e-21)
(99.9941815 0.2145245031 8.66301611e-22)
(99.99350493 0.2919922763 -5.611525775e-21)
(99.99401223 0.3710444087 7.324694257e-22)
(99.99523968 0.4343292617 0)
(99.99937863 0.4635700226 0)
(100.0042741 0.4480411183 1.063054595e-21)
(100.0055012 0.3959058269 -1.613521857e-21)
(100.0062395 0.3242752658 9.397854079e-22)
(100.0058364 0.2502032607 0)
(100.0051244 0.1843813113 1.507717495e-21)
(100.0046731 0.1293898105 6.184310698e-21)
(100.0024892 0.09003467318 -1.723273151e-21)
(100.009711 0.1016170642 -1.492465923e-20)
(100.0065807 0.06226294333 0)
(100.0047916 0.03298595376 -1.868692963e-21)
(100.0045794 0.01034790211 -1.315273188e-20)
(99.98612898 0.009963559127 1.789697964e-20)
(99.98049431 0.03389296603 4.469290796e-21)
(99.96785718 0.07194444289 3.121194213e-20)
(99.94634407 0.1331059831 -1.336777053e-20)
(99.94977778 0.1794740155 4.304395409e-21)
(99.91713718 0.2968971817 -5.336088437e-23)
(99.87511871 0.4750823457 0)
(99.85371737 0.6334400679 -7.528980243e-21)
(99.81016873 0.9218990015 -6.945701425e-21)
(99.7804708 1.274047128 -1.200127011e-20)
(99.78475566 1.645414098 -4.912566695e-21)
(99.83662039 1.951045514 -3.228440665e-21)
(99.93355457 2.105903656 -1.328379653e-21)
(100.0393745 2.053207758 2.15900441e-22)
(100.1208563 1.824615889 -5.435392027e-22)
(100.1582979 1.499028186 4.849436349e-21)
(100.1570216 1.154575506 -9.360158651e-21)
(100.13211 0.8521891433 0)
(100.1349472 0.6309418601 -2.616142186e-20)
(100.0945732 0.4256952431 5.030667275e-20)
(100.0911498 0.2884223266 1.444982505e-20)
(100.0627613 0.1760790734 2.970757567e-20)
(100.0465226 0.09363401141 -2.97955827e-20)
(100.0403528 0.02943518045 1.502172627e-20)
(99.96284524 0.01267205154 -1.78571034e-20)
(99.94688307 0.04430886653 -3.586231598e-20)
(99.91222604 0.09720362465 -8.039165544e-20)
(99.85455657 0.1845636077 1.06960489e-19)
(99.8260893 0.2833987273 -8.841075878e-21)
(99.72781352 0.4837010312 -8.587714487e-21)
(99.59737401 0.7908638789 -1.489757743e-20)
(99.52793598 1.121974192 0)
(99.38729394 1.676423053 2.879396096e-20)
(99.29238914 2.370043072 5.001446215e-20)
(99.3219635 3.119746145 2.472017646e-19)
(99.52001388 3.788953781 -1.197174874e-19)
(99.8893943 4.15039302 5.454482302e-20)
(100.2943127 4.044967985 1.230359779e-21)
(100.5650104 3.535069099 -6.365213876e-20)
(100.6596579 2.843719896 3.909475839e-21)
(100.6293934 2.15518154 -1.007585705e-20)
(100.5249384 1.551343538 -2.346072104e-20)
(100.444888 1.069412306 -1.571486916e-19)
(100.3201552 0.7114753277 -3.474831372e-20)
(100.2504556 0.4332716682 -1.479444839e-20)
(100.1756853 0.2621495964 3.36096936e-20)
(100.1308168 0.1395187897 -3.773380894e-21)
(100.1112289 0.04363392122 0)
(99.93631439 0.009591613008 -9.003033076e-21)
(99.90561112 0.03663965469 6.302370732e-20)
(99.83994414 0.09045998275 -1.803326568e-20)
(99.73263679 0.1840955 0)
(99.64837115 0.3231228108 0)
(99.45442556 0.5816119901 -6.954400576e-20)
(99.18740071 0.9926009334 -1.391137785e-19)
(98.98115747 1.487426623 3.271690036e-20)
(98.65573073 2.297448595 0)
(98.42363662 3.353955569 -5.990852997e-20)
(98.41755167 4.631536244 7.302358369e-22)
(98.84092868 5.889730811 0)
(99.76342043 6.627628668 -1.454697364e-19)
(100.7980454 6.420429041 0)
(101.4298607 5.428603349 7.99178784e-20)
(101.5579804 4.175175783 -1.551942197e-19)
(101.406368 3.035434755 9.151785057e-20)
(101.159952 2.130701585 0)
(100.9168531 1.395696783 5.698131322e-20)
(100.6574412 0.9069297544 -4.389318281e-20)
(100.4713769 0.5109616387 -3.784655632e-20)
(100.3326067 0.3056550651 1.914221423e-20)
(100.2465056 0.1604319695 -3.839530737e-21)
(100.2072245 0.04970580286 0)
(99.9204729 -0.0007459743145 0)
(99.87250082 0.006024484023 0)
(99.77087312 0.04304671708 9.106165621e-21)
(99.60363387 0.1208198742 1.375718627e-20)
(99.4495061 0.2802314516 2.277680357e-20)
(99.12911271 0.5576537466 0)
(98.68309909 1.005769511 0)
(98.26360139 1.627329673 -2.753791815e-19)
(97.67448632 2.633344272 2.03669428e-21)
(97.12476131 4.098969542 5.5091596e-19)
(96.8717325 6.099406729 3.522457132e-19)
(97.47877848 8.4255862 -7.219873751e-19)
(99.45112218 10.00743904 -1.143253431e-19)
(101.8231631 9.549382655 -1.580883487e-19)
(103.0487579 7.583718351 0)
(103.0788299 5.411611447 -1.890833554e-19)
(102.5754092 3.705210776 -4.381248379e-19)
(102.0146815 2.484677109 -4.367545506e-22)
(101.5195159 1.548577022 -9.377633905e-20)
(101.0752023 0.9775533393 7.789518682e-21)
(100.7249093 0.5002299072 0)
(100.5068407 0.2935416206 3.910426703e-21)
(100.3709499 0.1493674148 -2.936832302e-21)
(100.3078832 0.04551315793 -9.738248142e-22)
(99.93109362 -0.0188785197 0)
(99.8653378 -0.04926881155 0)
(99.72776575 -0.05018535299 -1.824263405e-20)
(99.49735734 -0.01095771806 3.719045137e-20)
(99.26176624 0.1398608539 0)
(98.8028227 0.3837659231 0)
(98.14709295 0.8016791346 2.918661052e-20)
(97.49123665 1.445528727 3.848500113e-19)
(96.51024128 2.523535841 0)
(95.37311265 4.258661097 -6.632245942e-19)
(94.30617965 7.096546209 -9.422288158e-19)
(94.46670217 11.46938915 0)
(98.55092767 15.43350175 5.845970682e-19)
(104.130871 14.0363949 3.102865379e-19)
(106.0382561 9.800386272 1.031329671e-20)
(105.444332 6.303348975 0)
(104.1648927 3.984015093 -1.268662723e-19)
(103.0439993 2.521189975 -6.403756104e-20)
(102.19303 1.465687894 2.409967837e-20)
(101.5227665 0.8859043003 -1.609281082e-20)
(100.9763936 0.388637576 0)
(100.6684054 0.2173388015 0)
(100.479158 0.102116448 -9.86626052e-22)
(100.3907063 0.02992048538 -2.958806606e-21)
(99.98351289 -0.04440459128 4.456842139e-21)
(99.90162117 -0.1274980999 -4.491070768e-21)
(99.73269339 -0.1863802914 9.171057692e-21)
(99.44622293 -0.2111131582 -3.356133029e-20)
(99.1220497 -0.1003276525 7.981041674e-23)
(98.53664917 0.05615349433 2.879613933e-20)
(97.69670026 0.3586559389 -5.987011131e-20)
(96.78908045 0.907817956 0)
(95.36348385 1.856246708 0)
(93.41230793 3.475521741 4.100197516e-19)
(90.61169384 6.444681956 -8.521738342e-19)
(87.17934354 13.50489233 0)
(94.8452067 25.9710247 0)
(110.7656783 20.17212642 -1.525230848e-18)
(111.2130965 11.16148813 8.267630248e-19)
(108.6255696 6.206465848 0)
(106.0498776 3.572110316 6.113791249e-19)
(104.1477566 2.112588092 5.460602835e-19)
(102.8281351 1.095481735 0)
(101.9370722 0.603544566 8.74362852e-21)
(101.1805943 0.1769048825 2.587520872e-21)
(100.7843945 0.07303936117 -3.061762326e-21)
(100.5458959 0.0187373786 -3.484372022e-21)
(100.4330505 0.00309784286 8.395845669e-21)
(100.0910052 -0.07587994876 -4.457308582e-21)
(99.99669089 -0.2240142545 4.492678567e-21)
(99.8046317 -0.3563542027 -5.705527866e-21)
(99.47702252 -0.4649132175 -3.842856815e-21)
(99.07682219 -0.4243816066 1.640062377e-20)
(98.39461571 -0.3993162073 9.788152178e-21)
(97.43637798 -0.2924741291 2.841480114e-21)
(96.31255679 0.05060027738 -2.844126306e-18)
(94.54724361 0.6280906746 0)
(91.9556744 1.566463208 0)
(87.58921721 2.972704516 4.47854079e-20)
(78.95151604 5.610362375 2.597567994e-18)
(126.7254811 22.26338422 -1.725890369e-18)
(118.1578873 8.87567267 1.172050808e-18)
(112.0338185 4.324550445 0)
(107.8242065 2.249857353 3.403834038e-19)
(105.1176353 1.193295351 -1.21463489e-18)
(103.3083624 0.436196961 -4.635411745e-21)
(102.2357457 0.1471155647 1.973037054e-20)
(101.2887477 -0.1276085919 -3.150965655e-21)
(100.8230148 -0.1291046836 2.57922906e-21)
(100.5466234 -0.09540123632 -4.87938478e-22)
(100.4135767 -0.03374441743 -7.884141472e-21)
(100.2633199 -0.111042981 -2.14715083e-21)
(100.1617684 -0.3318044489 -1.613465262e-21)
(99.95743468 -0.5467575852 -5.535255101e-22)
(99.6082443 -0.7508428166 1.67676093e-21)
(99.15239336 -0.8020417876 -3.289988418e-23)
(98.42254338 -0.9354610083 0)
(97.42377103 -1.062377697 8.559857705e-20)
(96.18127248 -0.9938296861 1.466538812e-18)
(94.29910091 -0.8871086918 -4.194028735e-19)
(91.64328557 -0.7926597189 5.034753618e-22)
(87.61338789 -1.205198283 0)
(82.18725664 -3.290094152 -2.307694622e-18)
(138.9773581 5.165171891 4.839990297e-18)
(122.6581787 1.794106409 0)
(114.2105044 0.5786946099 -1.021590445e-18)
(108.9279874 0.08476496087 1.474435393e-18)
(105.6831545 -0.1444455624 1.293983503e-18)
(103.5240925 -0.4319910358 -4.725587717e-21)
(102.3387288 -0.4437031734 1.107676679e-20)
(101.2651451 -0.4955639584 1.080817285e-21)
(100.7593093 -0.3706669766 0)
(100.4610361 -0.2305907855 3.975037529e-21)
(100.3153298 -0.077555934 3.929651519e-21)
(100.5052996 -0.1471631108 4.229115613e-21)
(100.4023063 -0.4424461073 6.63108449e-23)
(100.1976114 -0.7417655627 0)
(99.84819939 -1.044168661 2.162158832e-22)
(99.3624996 -1.197344418 -2.247945805e-21)
(98.63831372 -1.494121102 2.40037086e-21)
(97.67245931 -1.847492937 5.223165259e-21)
(96.42536073 -2.04514253 -9.08350414e-20)
(94.63839933 -2.344110565 4.212269672e-19)
(92.26647164 -2.827884897 0)
(89.09135435 -3.945686008 -1.901653495e-18)
(85.73743206 -5.935227007 -5.329776364e-18)
(135.1952525 -11.28086935 -8.714384191e-18)
(121.991797 -6.20001205 -7.532291634e-20)
(114.1206121 -3.783844429 1.012328773e-18)
(108.9024419 -2.402915045 -7.394920879e-19)
(105.6521684 -1.66034883 8.221786754e-20)
(103.4014898 -1.38971645 3.997291222e-20)
(102.2063006 -1.094912831 0)
(101.089525 -0.8868693157 -1.057256283e-21)
(100.5788575 -0.6272374102 -4.391955723e-21)
(100.2774763 -0.3740919011 4.903673935e-22)
(100.1282574 -0.124165807 0)
(100.8163635 -0.1815919981 -2.081780774e-21)
(100.7173575 -0.5476140318 2.100287366e-21)
(100.5230822 -0.9258858838 2.046584757e-21)
(100.1948404 -1.321401375 -1.91846006e-21)
(99.70231694 -1.575333877 -2.214400967e-21)
(99.03020502 -2.017865962 0)
(98.15104013 -2.56588876 -1.565719249e-19)
(96.97884129 -2.985979485 0)
(95.38141549 -3.57012219 -8.170872924e-19)
(93.35240695 -4.374407304 2.70726868e-20)
(90.75760952 -5.710309701 5.857581731e-21)
(88.11246025 -7.391086852 0)
(125.7181204 -19.91404059 -3.288030906e-18)
(117.7998658 -11.84822498 -2.396022286e-18)
(112.0884541 -7.296952846 -4.191686196e-19)
(107.8616948 -4.591190002 0)
(105.030882 -3.081070423 -1.241373054e-18)
(102.9387994 -2.295230492 0)
(101.8406473 -1.721001196 -2.619862179e-20)
(100.7606502 -1.259941112 -1.326266975e-20)
(100.2807885 -0.8728622132 1.001856286e-21)
(99.99462059 -0.5122991136 -3.17503428e-21)
(99.85084095 -0.1692203721 4.648754137e-22)
(101.1907755 -0.2120200841 7.618008091e-21)
(101.1005046 -0.6399642391 0)
(100.9248401 -1.084020929 -2.042565425e-21)
(100.6323158 -1.568664685 0)
(100.1494405 -1.907919449 0)
(99.56808331 -2.464175039 -6.572105461e-21)
(98.81175797 -3.162461305 1.498645349e-19)
(97.76286433 -3.748540233 1.685399808e-18)
(96.38794375 -4.518564702 0)
(94.67175645 -5.514008553 -3.644888644e-20)
(92.44312852 -6.999981256 2.963318272e-18)
(90.00072405 -8.674378028 1.861277879e-18)
(116.0438715 -22.69480498 -2.145940265e-18)
(112.4205062 -14.48643611 -8.437969846e-19)
(109.0625992 -9.355383902 -3.44032095e-19)
(106.1265549 -6.098145551 1.35118344e-18)
(103.9584238 -4.182188891 7.173041663e-20)
(102.1994536 -3.036195923 2.097372752e-21)
(101.2770374 -2.253888253 -3.197676621e-20)
(100.2999276 -1.585461648 7.847873319e-21)
(99.877787 -1.084227817 0)
(99.62090658 -0.6334363473 3.656227153e-21)
(99.48995192 -0.2089228754 0)
(101.619017 -0.2376150172 7.608228088e-21)
(101.5402404 -0.7181758379 1.19973183e-19)
(101.3868476 -1.215903638 -2.41664205e-19)
(101.1339211 -1.767530334 -4.204121688e-22)
(100.705909 -2.169912028 -1.914022703e-21)
(100.2173784 -2.807165508 0)
(99.60504163 -3.607293054 -2.774658784e-19)
(98.69930202 -4.296813636 0)
(97.56364921 -5.174410055 -1.414124022e-18)
(96.1556145 -6.293276343 -2.127365994e-18)
(94.29554615 -7.980948441 1.31261731e-18)
(92.13894344 -9.936118218 5.352047098e-19)
(103.0462358 -31.1967529 -3.333638861e-19)
(107.4720483 -20.70897461 -5.834658426e-19)
(107.4110059 -14.59633358 -8.007400466e-19)
(105.9320613 -10.00371146 -4.783313893e-20)
(104.1537783 -6.852189006 -9.596052099e-19)
(102.6520505 -4.876286824 3.150801569e-20)
(101.2879352 -3.547709567 -6.406430721e-20)
(100.5711221 -2.645856466 0)
(99.74470923 -1.835328745 0)
(99.39176115 -1.247641419 1.146770351e-20)
(99.17229161 -0.7297472645 2.112619641e-21)
(99.05917257 -0.2406064367 -6.855469208e-21)
(102.0885021 -0.2559830661 0)
(102.0229301 -0.7749802974 0)
(101.8957302 -1.310404514 0)
(101.6852244 -1.899973858 0)
(101.310467 -2.363687158 0)
(100.9167303 -3.058903766 0)
(100.4373692 -3.914387783 7.840819724e-21)
(99.69847608 -4.648680322 -1.178239543e-18)
(98.79731026 -5.565047771 1.569994596e-19)
(97.70747522 -6.728174009 1.492145757e-19)
(96.32138657 -8.506968569 -5.94828756e-20)
(94.91035122 -10.99041707 -4.954885039e-19)
(96.62528519 -20.40204115 -1.055776089e-19)
(102.4337404 -16.96457247 0)
(103.6622865 -13.14301828 3.544767616e-19)
(103.2499611 -9.636362549 3.60179507e-19)
(102.27286 -6.981574678 -2.035624707e-19)
(101.2929033 -5.185483818 -6.914258088e-20)
(100.3092265 -3.828751665 -8.953148548e-20)
(99.79025551 -2.89115728 -3.365232734e-20)
(99.13071084 -1.994388558 -1.867869991e-20)
(98.84776633 -1.360035939 1.842242447e-20)
(98.66913703 -0.7974252418 0)
(98.57616843 -0.2628452664 1.839260211e-20)
(102.5863817 -0.2671064584 0)
(102.5348792 -0.8095778286 0)
(102.4362704 -1.367446865 0)
(102.2701773 -1.970808066 0)
(101.9487451 -2.468124546 0)
(101.6565281 -3.184218313 0)
(101.3065348 -4.028471234 -2.489744202e-20)
(100.7253333 -4.805105571 4.804040571e-19)
(100.0296021 -5.715120015 -1.158136042e-20)
(99.23434408 -6.802614016 0)
(98.38437989 -8.330456908 0)
(97.88831329 -10.71477811 -1.341722793e-18)
(98.26005359 -13.48995305 -5.705790261e-19)
(100.4783329 -13.10498679 1.538218785e-19)
(101.3164195 -11.12876142 -2.151472241e-19)
(101.2029489 -8.744279781 5.071748649e-19)
(100.6485219 -6.700349981 6.690550013e-19)
(100.0244852 -5.20525919 -2.41417157e-20)
(99.33695018 -3.914378712 0)
(98.99930853 -3.003428243 0)
(98.48844685 -2.070039689 -3.482935534e-20)
(98.27123421 -1.421346705 1.718654162e-20)
(98.13292553 -0.8355378013 7.18993025e-22)
(98.05992541 -0.2754188903 -1.267262629e-20)
(103.0992034 -0.27137236 0)
(103.0608534 -0.8225803512 0)
(102.9889516 -1.388060979 0)
(102.8644168 -1.988060114 0)
(102.5928296 -2.498958592 0)
(102.3870985 -3.204103786 0)
(102.1384166 -4.003271387 0)
(101.6935188 -4.792686809 0)
(101.1484731 -5.673133359 4.036183346e-19)
(100.5538647 -6.629778241 -2.717985735e-20)
(99.99343408 -7.769125039 -4.777689749e-19)
(96.43221814 -8.594976004 7.471643604e-19)
(99.31581461 -10.39908993 2.191248032e-19)
(99.85926933 -10.34061341 6.908461507e-20)
(99.95047771 -9.251137802 -1.72242863e-20)
(99.71435468 -7.690271851 -2.101667184e-19)
(99.32297925 -6.204097309 -2.776908127e-19)
(98.90746273 -5.007125056 0)
(98.43520449 -3.846929082 -2.966825183e-20)
(98.2350094 -3.004328494 4.492167473e-20)
(97.84629421 -2.075906044 1.084946822e-20)
(97.6864936 -1.437261535 1.848940807e-20)
(97.58373782 -0.846870813 -2.100513766e-20)
(97.5284921 -0.2791709236 0)
(103.6144306 -0.2697238622 0)
(103.587309 -0.8169362 0)
(103.5375853 -1.377100326 0)
(103.4480717 -1.959770471 0)
(103.2213956 -2.467931994 0)
(103.0832749 -3.139210609 0)
(102.9084205 -3.872531684 0)
(102.5548768 -4.623081582 -1.876312351e-20)
(102.0984798 -5.44757006 1.239820513e-18)
(101.5689498 -6.258503183 0)
(101.2508002 -7.143634079 1.925976234e-18)
(92.82839857 -6.710494317 7.168009959e-19)
(99.84296937 -8.477079863 7.37820202e-20)
(99.47878429 -8.41697676 -2.069503246e-19)
(99.036998 -7.71216718 -4.807289194e-19)
(98.62978654 -6.681934604 0)
(98.26995828 -5.639365315 0)
(97.96223567 -4.684612151 0)
(97.63468392 -3.68142287 0)
(97.51982567 -2.917593612 0)
(97.22665421 -2.027020408 3.759488568e-20)
(97.1129416 -1.415590287 -3.517269899e-20)
(97.03860624 -0.8355009947 -2.372420894e-21)
(96.99769972 -0.2757856702 2.38043292e-21)
(104.1212866 -0.2632867193 0)
(104.1031825 -0.7962891214 0)
(104.0705444 -1.340748703 0)
(104.0082724 -1.895506826 0)
(103.8184633 -2.387505681 0)
(103.7277916 -3.011153935 0)
(103.5977587 -3.668990477 0)
(103.2929132 -4.334436091 0)
(102.8551199 -5.060758945 2.904634091e-20)
(102.3079205 -5.75117309 1.102933494e-19)
(101.0962165 -6.358128875 7.105822194e-19)
(96.36346016 -6.681718339 1.303312509e-19)
(99.86548523 -7.160535451 -3.654372596e-19)
(99.05061018 -7.011799523 0)
(98.34194414 -6.505655212 3.778753093e-19)
(97.82835325 -5.82141113 -7.765149803e-20)
(97.44956726 -5.067671051 0)
(97.1808814 -4.305735312 0)
(96.93099716 -3.447470399 0)
(96.86584508 -2.768022515 0)
(96.64261503 -1.936046385 0)
(96.56310247 -1.362983502 0)
(96.51058981 -0.8070138923 0)
(96.48053405 -0.2674050593 0)
(104.6114256 -0.2531734683 0)
(104.6001075 -0.7642370346 0)
(104.5795886 -1.285257055 0)
(104.5367447 -1.805548453 0)
(104.374521 -2.271989704 0)
(104.312271 -2.841687328 0)
(104.2023361 -3.425212473 0)
(103.9135426 -4.002162917 0)
(103.467911 -4.598254385 0)
(102.8944388 -5.170640459 2.640331565e-21)
(99.20600925 -5.399421209 1.200243778e-19)
(99.63474224 -6.027500805 -1.730526362e-19)
(99.70941632 -6.090024424 5.907825979e-22)
(98.68161568 -5.93762024 -7.239678854e-20)
(97.85013447 -5.587668755 0)
(97.23935444 -5.096638807 0)
(96.81042897 -4.518955675 0)
(96.53961688 -3.907225624 0)
(96.32224455 -3.178390237 0)
(96.28024863 -2.582382935 0)
(96.10231495 -1.818742652 0)
(96.04561045 -1.289797998 0)
(96.00786834 -0.7656090981 0)
(95.98635847 -0.2542478345 0)
(105.0788247 -0.2404631285 0)
(105.0721377 -0.7242405728 0)
(105.0590858 -1.21657077 0)
(105.0284032 -1.699338371 0)
(104.8852428 -2.134644174 0)
(104.8355276 -2.649244151 0)
(104.7262128 -3.165957948 0)
(104.4333456 -3.659519224 0)
(103.9607683 -4.149241725 0)
(103.3421762 -4.600277891 0)
(98.79258846 -4.680181029 0)
(100.2838747 -5.213077094 0)
(99.65425484 -5.234615634 0)
(98.46255324 -5.110156738 0)
(97.49948042 -4.844231087 0)
(96.79085664 -4.467970662 0)
(96.30502829 -4.014426683 0)
(96.01064578 -3.516843832 0)
(95.79937538 -2.898320788 0)
(95.76135389 -2.379707066 0)
(95.60924366 -1.687385602 0)
(95.56581975 -1.204356253 0)
(95.53683334 -0.7164441448 0)
(95.52080205 -0.2383480223 0)
(105.5195377 -0.2261440437 0)
(105.5155478 -0.67945848 0)
(105.5058995 -1.140042526 0)
(105.4810487 -1.584595235 0)
(105.3500875 -1.986290541 0)
(105.3006484 -2.448263993 0)
(105.1777417 -2.905080062 0)
(104.8695507 -3.325749578 0)
(104.3610459 -3.731637148 0)
(103.6699393 -4.090595516 0)
(98.55186368 -4.094077786 0)
(100.5396171 -4.546104612 0)
(99.6134507 -4.541657702 -3.293146953e-35)
(98.29349788 -4.433893946 0)
(97.22798872 -4.222362756 0)
(96.43926776 -3.925036148 0)
(95.89854277 -3.56119732 0)
(95.57115307 -3.151039066 0)
(95.3503986 -2.62402173 0)
(95.30385287 -2.173750277 0)
(95.16327266 -1.551078914 0)
(95.12559859 -1.113167368 0)
(95.10052726 -0.6634412229 0)
(95.08763454 -0.221121542 0)
(105.9313849 -0.2110467269 0)
(105.9284866 -0.6325277983 0)
(105.9189984 -1.060140667 0)
(105.8948552 -1.467275142 0)
(105.7707095 -1.835088199 0)
(105.7128271 -2.248705466 0)
(105.5669498 -2.651064346 0)
(105.2376552 -3.011772607 0)
(104.690783 -3.351870535 0)
(103.9140912 -3.642201076 0)
(98.3768001 -3.601552558 0)
(100.6729642 -3.990273989 0)
(99.5664152 -3.969983317 0)
(98.15309689 -3.87291135 0)
(97.0103486 -3.698451033 0)
(96.1566999 -3.457030788 0)
(95.56614628 -3.159396054 0)
(95.20319111 -2.817813496 0)
(94.96336487 -2.365775679 0)
(94.90107315 -1.973778475 0)
(94.76212563 -1.416256389 0)
(94.72459826 -1.021157978 0)
(94.69982445 -0.6095850526 0)
(94.68822433 -0.203557376 0)
(106.3136618 -0.195821269 0)
(106.310591 -0.5854753935 0)
(106.2988587 -0.9802946601 0)
(106.2715709 -1.351822072 0)
(106.1500331 -1.686872172 0)
(106.0779675 -2.056863648 0)
(105.9046038 -2.410449198 0)
(105.5503781 -2.72257805 0)
(104.9665411 -3.01104108 0)
(104.0967815 -3.248943249 0)
(98.26876692 -3.18521938 0)
(100.7417308 -3.521409813 0)
(99.5152681 -3.491319623 -4.774383895e-35)
(98.03253635 -3.402240487 0)
(96.83078131 -3.254349386 0)
(95.9245824 -3.053730286 0)
(95.2901097 -2.805912835 0)
(94.8924813 -2.517959756 0)
(94.62811602 -2.128093208 0)
(94.5461883 -1.785354761 0)
(94.40232067 -1.287282382 0)
(94.36104882 -0.9318071731 0)
(94.33405411 -0.5570011163 0)
(94.32237174 -0.1863503177 0)
(106.6668008 -0.1809553311 0)
(106.6625954 -0.539781678 0)
(106.6469198 -0.9029741179 0)
(106.6137563 -1.241371642 0)
(106.4916785 -1.545576114 0)
(106.4018061 -1.876605666 0)
(106.1990484 -2.188045542 0)
(105.8186227 -2.459966191 0)
(105.2005902 -2.707769878 0)
(104.2334043 -2.904782666 0)
(98.22470429 -2.832081613 0)
(100.7733876 -3.123361795 0)
(99.46191659 -3.086526233 0)
(97.92665102 -3.003996113 0)
(96.67913857 -2.876041318 0)
(95.73022331 -2.706082481 0)
(95.05751119 -2.496475554 0)
(94.62723519 -2.250836392 0)
(94.33646844 -1.912572112 0)
(94.23285414 -1.611569925 0)
(94.07990967 -1.166905551 0)
(94.03236949 -0.847400428 0)
(94.00149912 -0.5071151126 0)
(93.98875005 -0.1699715509 0)
(106.9920168 -0.1668017834 0)
(106.9859687 -0.4964905335 0)
(106.9652028 -0.8298847504 0)
(106.9243246 -1.138008252 0)
(106.7994189 -1.413726594 0)
(106.6896851 -1.71032612 0)
(106.4570923 -1.985717646 0)
(106.0510495 -2.224130672 0)
(105.4017143 -2.439562984 0)
(104.3350796 -2.604193774 0)
(98.23651861 -2.531507385 0)
(100.7822714 -2.783745268 0)
(99.40771328 -2.742076034 1.750728492e-35)
(97.83222608 -2.665186443 0)
(96.54871113 -2.55276303 0)
(95.5647947 -2.406454963 0)
(94.85893093 -2.226690296 0)
(94.39853284 -2.014829437 0)
(94.08127252 -1.719506451 0)
(93.95538249 -1.453875366 0)
(93.79089822 -1.056676827 0)
(93.73557637 -0.7693368556 0)
(93.69981528 -0.4608289312 0)
(93.68532185 -0.1547254029 0)
(107.2910405 -0.1536034596 0)
(107.2826517 -0.4563019662 0)
(107.2560743 -0.7621416228 0)
(107.2063202 -1.043002094 0)
(107.0769945 -1.292771965 0)
(106.9464417 -1.559171064 0)
(106.6846035 -1.803848573 0)
(106.2545412 -2.014240864 0)
(105.5763475 -2.203559591 0)
(104.4100897 -2.342316741 0)
(98.29427272 -2.27497634 0)
(100.7762858 -2.493087577 0)
(99.35357332 -2.447979426 0)
(97.74710201 -2.376103592 0)
(96.43485353 -2.276126225 0)
(95.42196751 -2.148452695 0)
(94.68735269 -1.992359263 0)
(94.19948002 -1.807761183 0)
(93.85657127 -1.548297379 0)
(93.70872995 -1.312639572 0)
(93.53142462 -0.9573018102 0)
(93.46752452 -0.6983776414 0)
(93.4263222 -0.4186587719 0)
(93.40964365 -0.1407915357 0)
(107.565949 -0.1415145915 0)
(107.5548876 -0.4196460533 0)
(107.5220963 -0.7004130402 0)
(107.4627997 -0.9570442203 0)
(107.3279161 -1.183449301 0)
(107.1763215 -1.423511447 0)
(106.8864743 -1.642068692 0)
(106.4345003 -1.828957903 0)
(105.7293916 -1.996949841 0)
(104.4648484 -2.114928883 0)
(98.38820685 -2.055885529 0)
(100.7600013 -2.244140906 0)
(99.3001561 -2.19676007 0)
(97.66973361 -2.129416063 0)
(96.33421421 -2.039580987 0)
(95.29709306 -1.926801065 0)
(94.53747535 -1.78970232 0)
(94.02469939 -1.62729379 0)
(93.65745854 -1.397880985 0)
(93.48851477 -1.187598067 0)
(93.29783457 -0.8689296722 0)
(93.22504885 -0.6348350381 0)
(93.17817997 -0.3808401831 0)
(93.15905148 -0.1282573816 0)
(107.8190441 -0.1306225524 0)
(107.8051014 -0.3867519981 0)
(107.7659179 -0.6450396719 0)
(107.6967567 -0.8804158478 0)
(107.5555111 -1.085981808 0)
(107.3831155 -1.30321258 0)
(107.0668508 -1.499598724 0)
(106.5951678 -1.666683431 0)
(105.8646607 -1.817014621 0)
(104.5046346 -1.918295908 0)
(98.50955057 -1.869176286 0)
(100.7364152 -2.031293047 0)
(99.24792789 -1.982687291 0)
(97.59888387 -1.919399296 0)
(96.24422472 -1.837860501 0)
(95.18661964 -1.737077091 0)
(94.40517297 -1.615343095 0)
(93.86988247 -1.471102413 0)
(93.47980406 -1.266930505 0)
(93.29086578 -1.078088799 0)
(93.08671535 -0.791352522 0)
(93.00505306 -0.5787174663 0)
(92.95250501 -0.3474151407 0)
(92.93078482 -0.1171459873 0)
(108.0526976 -0.1209690438 0)
(108.0357538 -0.3577128483 0)
(107.9901509 -0.5961442133 0)
(107.9110352 -0.8131505391 0)
(107.7628531 -1.000301952 0)
(107.5701744 -1.19790073 0)
(107.2292064 -1.375542136 0)
(106.7398676 -1.525944771 0)
(105.9851453 -1.661584383 0)
(104.5334119 -1.749343806 0)
(98.65119672 -1.711622188 0)
(100.7078536 -1.850367778 0)
(99.19710375 -1.801304243 0)
(97.53346166 -1.741475205 0)
(96.16284936 -1.666675212 0)
(95.08778905 -1.575592867 0)
(94.28720077 -1.466355623 0)
(93.731549 -1.337029942 0)
(93.32014487 -1.15406826 0)
(93.11240206 -0.9832750008 0)
(92.89494467 -0.7241753627 0)
(92.80460409 -0.5298520187 0)
(92.74649284 -0.3183074354 0)
(92.72212215 -0.1074407192 0)
(108.2693845 -0.1125627483 0)
(108.249374 -0.3325270206 0)
(108.1974146 -0.553700851 0)
(108.1084109 -0.7550986245 0)
(107.9528095 -0.9261669944 0)
(107.740545 -1.107102776 0)
(107.3764088 -1.268739452 0)
(106.8714228 -1.40560403 0)
(106.093387 -1.529098167 0)
(104.553318 -1.605414568 0)
(98.80653536 -1.580825391 0)
(100.6762371 -1.69806917 0)
(99.1475602 -1.64895151 0)
(97.47243977 -1.591870678 0)
(96.08843237 -1.522490453 0)
(94.99841114 -1.439273856 0)
(94.18094215 -1.34023567 0)
(93.60676708 -1.223129188 0)
(93.1755391 -1.057980504 0)
(92.95013525 -0.9022699997 0)
(92.7196042 -0.6668951615 0)
(92.62088695 -0.4879628426 0)
(92.55739287 -0.2933699511 0)
(92.53035889 -0.09909987672 0)
(108.4712792 -0.1053996752 0)
(108.4481916 -0.3111482976 0)
(108.389999 -0.51759218 0)
(108.2912798 -0.7060901474 0)
(108.1280372 -0.8632116247 0)
(107.8970532 -1.030201984 0)
(107.511426 -1.178043129 0)
(106.9921454 -1.304513017 0)
(106.1913531 -1.41790413 0)
(104.5653149 -1.483934084 0)
(98.96854651 -1.474244036 0)
(100.643051 -1.571555401 0)
(99.09895098 -1.522592639 -3.133903869e-36)
(97.41488973 -1.467567355 0)
(96.01962268 -1.40249272 0)
(94.91671924 -1.325630734 0)
(94.08427606 -1.234906251 0)
(93.49318399 -1.128065432 0)
(93.04333573 -0.977653184 0)
(92.80139381 -0.8341911337 0)
(92.55818934 -0.6190386021 0)
(92.45143931 -0.4527307875 0)
(92.38277471 -0.2724335861 0)
(92.35310711 -0.09207602725 0)
(108.6615334 -0.09944385401 0)
(108.635311 -0.2934677304 0)
(108.5709687 -0.4876393619 0)
(108.4627221 -0.6656680793 0)
(108.2910426 -0.8110225599 0)
(108.0422358 -0.9664163826 0)
(107.6372168 -1.103219978 0)
(107.1039818 -1.221149454 0)
(106.2804454 -1.326105486 0)
(104.5701375 -1.382715429 0)
(99.13095153 -1.388431492 0)
(100.6093085 -1.468280222 0)
(99.05096841 -1.419738817 0)
(97.3600124 -1.36621561 0)
(95.95528266 -1.304486217 0)
(94.84122721 -1.232667511 0)
(93.9954286 -1.148605722 0)
(93.38898963 -1.050225142 0)
(92.92112031 -0.9119859072 0)
(92.66377564 -0.778243104 0)
(92.40773257 -0.5799794619 0)
(92.2932945 -0.4238262524 0)
(92.2196276 -0.2552958215 0)
(92.18731094 -0.08630137961 0)
(108.839398 -0.09473463323 0)
(108.8101912 -0.2795128952 0)
(108.7398922 -0.4637220701 0)
(108.6224345 -0.6342507385 0)
(108.4440743 -0.7690411015 0)
(108.1783185 -0.9150391109 0)
(107.7556208 -1.044316916 0)
(107.2087828 -1.153956927 0)
(106.3616819 -1.251867704 0)
(104.5695607 -1.300190201 0)
(99.28984376 -1.320538011 0)
(100.5756945 -1.386102217 0)
(99.00348717 -1.338294068 0)
(97.30713759 -1.285893629 0)
(95.89441102 -1.226692385 0)
(94.77060874 -1.158756458 0)
(93.91275432 -1.079854092 0)
(93.29206892 -0.9876390491 0)
(92.80709696 -0.8595414477 0)
(92.53500754 -0.733446965 0)
(92.26802859 -0.5498174935 0)
(92.14627644 -0.4009650619 0)
(92.06783488 -0.2418769534 0)
(92.03302571 -0.08177629605 0)
(109.0184513 -0.09105784538 0)
(108.9857348 -0.2688872939 0)
(108.9091668 -0.4455059019 0)
(108.7813853 -0.6086155933 0)
(108.5902038 -0.737109381 0)
(108.3072058 -0.8760229433 0)
(107.8677192 -0.9997182937 0)
(107.3079208 -1.102126655 0)
(106.4359316 -1.194013718 0)
(104.5658736 -1.235602722 0)
(99.44350655 -1.269099553 0)
(100.5426214 -1.323447928 0)
(98.95651085 -1.276556647 0)
(97.25574198 -1.225018127 0)
(95.83614871 -1.167669533 0)
(94.70369504 -1.102606231 0)
(93.83478767 -1.027556543 0)
(93.20060321 -0.9400006609 0)
(92.69952048 -0.8197702352 0)
(92.41326447 -0.7001226019 0)
(92.12981797 -0.5257938797 0)
(92.00007272 -0.3837781282 0)
(91.91669016 -0.2317744685 0)
(91.87894848 -0.07829227408 0)
(109.1569788 -0.08907019515 0)
(109.1221128 -0.2627252094 0)
(109.0407847 -0.4344110374 0)
(108.9067663 -0.5966199502 0)
(108.7277421 -0.7143630099 0)
(108.4303332 -0.8484271427 0)
(107.9749799 -0.9685306897 0)
(107.4024897 -1.064773135 0)
(106.5042822 -1.151816981 0)
(104.5612121 -1.188476304 0)
(99.59152761 -1.233487507 0)
(100.5102537 -1.279190288 0)
(98.91003773 -1.233222136 0)
(97.20540885 -1.182333018 0)
(95.77975715 -1.1262745 0)
(94.63945473 -1.063204591 0)
(93.76025653 -0.9908443141 0)
(93.11323679 -0.9065237154 0)
(92.59678438 -0.7921558108 0)
(92.29714104 -0.6772343099 0)
(92.02007973 -0.5139857815 0)
(91.88545649 -0.3732220253 0)
(91.79833109 -0.2258755676 0)
(91.75887937 -0.07640307532 0)
(109.4217857 -0.08667201303 0)
(109.3820556 -0.2568800912 0)
(109.2912653 -0.4245184075 0)
(109.1387728 -0.578627184 0)
(108.8559266 -0.7019685567 0)
(108.5433689 -0.8326244068 0)
(108.0740513 -0.9506775688 0)
(107.4934515 -1.041221903 0)
(106.5680432 -1.124629722 0)
(104.5575317 -1.158604234 0)
(99.73378744 -1.213572265 0)
(100.4786013 -1.252561349 0)