/*--------------------------------*- C++ -*----------------------------------*\
| =========                 |                                                 |
| \\      /  F ield         | OpenFOAM: The Open Source CFD Toolbox           |
|  \\    /   O peration     | Version:  v1912                                 |
|   \\  /    A nd           | Website:  www.openfoam.com                      |
|    \\/     M anipulation  |                                                 |
\*---------------------------------------------------------------------------*/
FoamFile
{
    version     2.0;
    format      ascii;
    class       volVectorField;
    location    "2.8";
    object      U;
}
// * * * * * * * * * * * * * * * * * * * * * * * * * * * * * * * * * * * * * //

dimensions      [0 1 -1 0 0 0 0];


internalField   nonuniform List<vector> 
12556
(
(99.99767684 0.005539952057 -4.635001864e-21)
(99.99713977 0.01811892884 6.836862013e-25)
(99.99554209 0.03658221695 -4.619087436e-21)
(99.9928906 0.06469476384 -4.578335074e-21)
(99.99988587 0.04941963553 4.399561552e-21)
(99.99664744 0.07844576372 0)
(99.99502316 0.1222412634 0)
(99.99470263 0.1804847894 -7.477412313e-21)
(99.99357517 0.2538832289 8.580395368e-22)
(99.99320667 0.3371447579 -5.363554058e-21)
(99.9933934 0.4170129087 8.065077161e-22)
(99.99590168 0.4743564025 0)
(100.001121 0.4900073999 0)
(100.0057954 0.4597329995 1.676008894e-21)
(100.0065125 0.3951363097 -2.140326352e-21)
(100.0066498 0.3159614523 1.074496652e-21)
(100.0059514 0.2387195016 0)
(100.0050515 0.1726348636 1.601005961e-21)
(100.0044983 0.1189081375 6.5426928e-21)
(100.0024003 0.08118326568 -1.79262616e-21)
(100.0088654 0.08968353851 -1.54407085e-20)
(100.0058585 0.0540626053 0)
(100.0041357 0.02819505516 -1.921511105e-21)
(100.0038525 0.008774565966 -1.351113667e-20)
(99.97928027 0.01501632858 1.859319221e-20)
(99.97272743 0.04965986565 4.636777877e-21)
(99.95782555 0.1009263643 3.233438235e-20)
(99.93226832 0.1794404378 -1.384682104e-20)
(99.93889244 0.2347929553 4.436169364e-21)
(99.90081911 0.3764716009 -6.721067303e-23)
(99.85383718 0.5872329224 0)
(99.83162478 0.7677891415 -7.625787225e-21)
(99.78826131 1.093211671 -6.931241375e-21)
(99.76645336 1.475549486 -1.165850803e-20)
(99.78497611 1.851584683 -4.607662129e-21)
(99.85487905 2.134350093 -5.512885581e-21)
(99.96280952 2.23021828 4.15514198e-22)
(100.0731387 2.109746418 8.332572754e-22)
(100.1467332 1.822846821 -6.932584627e-22)
(100.1723447 1.461735621 5.541029147e-21)
(100.1619234 1.102440142 -1.028672111e-20)
(100.1315266 0.7986829662 0)
(100.1299832 0.5792875316 -2.74642614e-20)
(100.0893338 0.3838550377 5.256945181e-20)
(100.0833205 0.2537253039 1.494762244e-20)
(100.0560428 0.1524421252 3.057249943e-20)
(100.0402758 0.07975860011 -3.066311327e-20)
(100.0341817 0.02485771568 1.543276377e-20)
(99.94400981 0.02015484952 -1.855176404e-20)
(99.92538171 0.06777029217 -3.729001497e-20)
(99.88473771 0.1401352104 -8.337175766e-20)
(99.81673315 0.2543227782 1.108602402e-19)
(99.78786364 0.3740352928 -9.15747438e-21)
(99.67386972 0.6162030846 -8.827746634e-21)
(99.52742319 0.9815436279 -1.528391812e-20)
(99.45747172 1.364569659 0)
(99.31746355 1.996094204 2.881417117e-20)
(99.25298427 2.748782537 -3.608778694e-20)
(99.3274493 3.522421554 -1.926046709e-19)
(99.5902172 4.144251607 1.535888782e-19)
(100.0077324 4.394221919 -6.685052035e-21)
(100.4173658 4.151871229 -2.473245263e-21)
(100.654121 3.517418303 0)
(100.7033085 2.757555423 1.318399676e-20)
(100.6406283 2.047445362 -1.09947433e-20)
(100.5178376 1.447263994 -2.495608135e-20)
(100.4271958 0.9769439191 -1.650121321e-19)
(100.3014002 0.6384495469 -3.617006604e-20)
(100.2285076 0.3779556283 -1.523965811e-20)
(100.1564451 0.224779838 3.458873038e-20)
(100.1130595 0.1174410736 -3.875387448e-21)
(100.094091 0.03642309862 0)
(99.90112452 0.0183152945 -9.371016529e-21)
(99.86524979 0.06421004155 6.555204695e-20)
(99.78834889 0.1409858093 -1.876110684e-20)
(99.66266359 0.2659888777 0)
(99.56754964 0.4360174108 0)
(99.34433373 0.7504845867 -7.184992055e-20)
(99.04121725 1.243746422 -1.434495341e-19)
(98.82255333 1.822695425 3.347184739e-20)
(98.49948253 2.745299823 -3.253587094e-20)
(98.30478966 3.898664823 2.3974591e-19)
(98.38755526 5.19761526 -2.536297127e-20)
(98.92726197 6.402163174 -4.090019892e-19)
(99.95091748 7.009758225 0)
(101.0237247 6.610266035 2.547716332e-20)
(101.6046089 5.413557785 0)
(101.6390282 4.027464075 1.658746876e-19)
(101.4178723 2.856883506 0)
(101.1354041 1.969626148 0)
(100.8753453 1.262888433 5.928147308e-20)
(100.6163575 0.8053220088 -4.538004766e-20)
(100.4287773 0.4373457211 -3.889116237e-20)
(100.2948476 0.2567041944 1.962594278e-20)
(100.2119126 0.1316509073 -3.931311472e-21)
(100.1740472 0.04036474356 0)
(99.86759015 0.007788512658 0)
(99.81156176 0.03319856967 0)
(99.69241118 0.09354981669 9.520084669e-21)
(99.49681919 0.2018153133 1.43357183e-20)
(99.31998162 0.3992346208 2.369602371e-20)
(98.94947509 0.7406313359 0)
(98.43935074 1.28475372 0)
(97.9913458 2.007314954 2.854620237e-19)
(97.36920843 3.164488143 0)
(96.86961722 4.720496955 0)
(96.72374283 6.742313618 -1.003704885e-18)
(97.46673077 9.057744964 0)
(99.61007997 10.57038632 3.981465075e-19)
(102.1072117 9.901500043 7.271499377e-19)
(103.308288 7.634647191 -1.248990852e-18)
(103.191272 5.235625768 1.90024093e-19)
(102.5653975 3.45415904 -4.43897753e-19)
(101.9574043 2.269131826 -3.493130981e-22)
(101.4414727 1.380457701 -9.635523206e-20)
(101.0019688 0.8524734864 7.980913153e-21)
(100.6562253 0.4137847968 0)
(100.4460464 0.2359371686 3.989430288e-21)
(100.3155665 0.1156253269 -2.996669456e-21)
(100.2549548 0.03461557205 -9.930036569e-22)
(99.86232693 -0.01200717612 0)
(99.78554208 -0.02737479517 0)
(99.62423698 -0.008894215803 -1.904373865e-20)
(99.35468581 0.05633632909 3.894792968e-20)
(99.08432606 0.2457809012 0)
(98.54979042 0.5502864774 0)
(97.80366887 1.053063187 3.052866847e-20)
(97.06841718 1.818927124 0)
(96.03573886 3.022118936 0)
(94.9382324 4.825316241 -7.328696754e-19)
(93.9538307 7.701621144 6.468338504e-20)
(94.21863616 12.19635373 -1.561083944e-18)
(98.58180682 16.27743807 0)
(104.4662784 14.66273206 -6.981020122e-19)
(106.398619 9.987986625 8.653013729e-19)
(105.5981821 6.155551622 1.478692157e-18)
(104.1089262 3.691080914 4.890735763e-19)
(102.9203559 2.256659063 1.314732556e-19)
(102.0676102 1.275064044 2.469608983e-20)
(101.4098974 0.7439427512 -1.640960822e-20)
(100.87692 0.2960820663 0)
(100.5812635 0.154541949 0)
(100.400432 0.06563461922 -1.002573635e-21)
(100.3156208 0.01816012453 -3.000002277e-21)
(99.90356579 -0.04064810122 4.668390303e-21)
(99.80808053 -0.115340806 -4.705961527e-21)
(99.61051058 -0.1625547065 9.615717863e-21)
(99.27599031 -0.1709038829 -3.513365873e-20)
(98.90185084 -0.02731662882 6.831905228e-23)
(98.22005968 0.1741000389 3.026950414e-20)
(97.26901183 0.5367470614 -8.475455148e-20)
(96.22261175 1.190012543 -7.47729136e-19)
(94.72434358 2.225298785 1.748860922e-18)
(92.80806698 3.873030566 1.599636674e-18)
(90.01553896 6.913979777 4.130140269e-20)
(86.50711522 14.43597265 0)
(94.83783123 27.42275303 0)
(111.47131 21.04157882 0)
(111.7787949 11.47033978 2.27358295e-18)
(108.8159442 6.078701448 -1.289264271e-18)
(105.9393317 3.278203193 -1.143353946e-18)
(103.941975 1.829335214 4.268604919e-19)
(102.6463509 0.8986523145 0)
(101.7803974 0.4590442325 8.810351734e-21)
(101.0482379 0.08441535251 2.616118128e-21)
(100.6696111 0.01001681501 -3.097730085e-21)
(100.4426806 -0.01791551898 -3.521702823e-21)
(100.3348378 -0.008842864174 8.503829806e-21)
(100.0069765 -0.07628580727 -4.668880134e-21)
(99.89749154 -0.2248031194 4.707645191e-21)
(99.67391927 -0.3560436677 -5.98547358e-21)
(99.2928402 -0.4614371771 -4.0403408e-21)
(98.83149264 -0.4003627804 1.726626396e-20)
(98.04366763 -0.3582817583 1.03355648e-20)
(96.95284207 -0.2322868 -6.175971928e-21)
(95.65304168 0.1743433256 2.043763489e-19)
(93.81090219 0.784418224 -9.436483592e-19)
(91.23908614 1.714673424 -1.302583337e-19)
(86.75522041 3.153962428 -1.079917176e-18)
(77.52924563 6.120339663 -1.263704185e-18)
(128.1609341 22.92653715 -3.448765949e-20)
(118.9833498 9.068852117 -1.165703116e-18)
(112.2723109 4.20296383 -4.149470217e-19)
(107.6514552 1.98830518 1.905534263e-18)
(104.8271035 0.939648764 1.441024673e-19)
(103.0688123 0.2591524517 -4.641931908e-21)
(102.038275 0.01427609896 1.983262504e-20)
(101.1257161 -0.2126207763 -3.172285471e-21)
(100.6819994 -0.1880336879 2.598540629e-21)
(100.4195891 -0.1297219177 -4.798079554e-22)
(100.2928579 -0.04502775814 -7.96163708e-21)
(100.1839508 -0.1161205638 -2.253970544e-21)
(100.0668428 -0.3471266976 -1.694447167e-21)
(99.83056867 -0.5729494087 -5.814862196e-22)
(99.42700664 -0.7887149484 1.765616163e-21)
(98.90419129 -0.8360241743 -3.497183428e-23)
(98.07601524 -0.9854072765 0)
(96.93202718 -1.136370173 8.422157914e-21)
(95.50504614 -1.059081241 0)
(93.56057723 -0.9717387273 -1.018793884e-18)
(90.93836091 -0.9225293603 1.345042966e-19)
(86.77069396 -1.413915093 -4.298143179e-18)
(80.81714816 -3.688859541 0)
(140.5155822 4.951098968 -4.931054497e-18)
(123.5679476 1.685075411 1.053136802e-19)
(114.465461 0.4264038254 1.343197997e-18)
(108.7090129 -0.1104407939 6.949465842e-19)
(105.328752 -0.3345815942 -1.215769328e-18)
(103.2394136 -0.5701909831 -4.702719427e-21)
(102.1100113 -0.552623691 1.107742386e-20)
(101.0765114 -0.5677832198 1.08254272e-21)
(100.5956939 -0.4219473355 0)
(100.3126923 -0.2607766055 4.005906723e-21)
(100.174065 -0.08757238553 3.962622609e-21)
(100.4398633 -0.1568511287 4.440383055e-21)
(100.3221368 -0.4720939622 6.882284444e-23)
(100.0875967 -0.7939567612 0)
(99.68758182 -1.122354374 2.285743932e-22)
(99.13582526 -1.289609972 -2.372135922e-21)
(98.33129114 -1.630852745 2.543370541e-21)
(97.22509845 -2.048487761 -8.664884125e-20)
(95.81833293 -2.284536681 0)
(94.00666247 -2.632228674 2.053124052e-18)
(91.69457081 -3.179057431 -6.49057216e-20)
(88.43368067 -4.443947802 -2.006215122e-18)
(84.78577414 -6.723226652 -2.310499118e-18)
(136.3564015 -11.91867499 4.507133789e-18)
(122.7876054 -6.565551286 3.028715768e-18)
(114.3488078 -3.963292065 4.492165161e-19)
(108.6758487 -2.519930247 2.017016377e-18)
(105.2719821 -1.770489631 1.142039819e-19)
(103.0948119 -1.479897971 3.962795744e-20)
(101.9594016 -1.174575437 0)
(100.8827695 -0.9440406774 -1.055158759e-21)
(100.3974807 -0.6689298995 -4.401280887e-21)
(100.1113508 -0.3992235582 4.920391119e-22)
(99.96934126 -0.1326096939 0)
(100.7735084 -0.195303416 -2.186217774e-21)
(100.6616394 -0.5897040281 2.206685949e-21)
(100.4417445 -1.000425554 2.15168645e-21)
(100.0708545 -1.433716528 -2.020790107e-21)
(99.51929539 -1.717982001 -2.338634979e-21)
(98.78858547 -2.225991053 0)
(97.79111037 -2.867388968 1.729062979e-19)
(96.4953956 -3.35642185 2.03354912e-19)
(94.91198599 -3.997036935 9.804800074e-19)
(92.97090081 -4.865283698 0)
(90.34810624 -6.378121986 1.742454217e-18)
(87.52344597 -8.360814577 -1.789059553e-18)
(126.5333166 -20.70225983 0)
(118.4079345 -12.34315043 -7.535142349e-20)
(112.2470904 -7.483980913 0)
(107.6125097 -4.638064329 0)
(104.6526183 -3.113603367 -1.205266261e-18)
(102.6342346 -2.340672699 0)
(101.5883647 -1.772553956 -2.600738012e-20)
(100.5429759 -1.302431677 -1.324199389e-20)
(100.0868002 -0.9049861935 1.007623166e-21)
(99.81455527 -0.5323828989 -3.183579353e-21)
(99.67753567 -0.1760690528 4.663582631e-22)
(101.1775513 -0.2287698337 7.995290442e-21)
(101.0770266 -0.6913399365 0)
(100.8812783 -1.174709798 -2.147450385e-21)
(100.5564273 -1.706541228 0)
(100.0250452 -2.088258846 0)
(99.4096233 -2.722573217 -6.951844252e-21)
(98.56645835 -3.529692462 -2.419343955e-21)
(97.43324137 -4.198209445 -1.5772058e-18)
(96.105125 -5.018778693 5.442372741e-21)
(94.50181495 -6.070845489 0)
(92.30464365 -7.74865534 3.864501692e-18)
(89.75418808 -9.745095712 1.349768556e-18)
(116.5627596 -23.49727914 0)
(112.8404089 -15.00535481 -7.986461108e-19)
(109.1574813 -9.520666606 3.25626701e-19)
(105.8941463 -6.089400127 -1.065322869e-18)
(103.6156915 -4.160554495 -6.664132267e-20)
(101.913806 -3.04940794 2.078462057e-21)
(101.0301993 -2.282638282 -3.177288446e-20)
(100.0789042 -1.61808059 7.844384751e-21)
(99.67580524 -1.107893153 0)
(99.4303955 -0.6492886771 3.665215028e-21)
(99.30531391 -0.2143925163 0)
(101.640277 -0.2562716235 7.985007625e-21)
(101.5541622 -0.7754008838 1.25918195e-19)
(101.3865834 -1.316405648 -2.537050187e-19)
(101.1121312 -1.919922378 -4.542669305e-22)
(100.6516698 -2.371806669 -2.012566203e-21)
(100.1509204 -3.091146835 0)
(99.48475096 -4.006225884 1.463213815e-20)
(98.53248088 -4.773068192 7.693086313e-19)
(97.46992533 -5.686038987 -9.15918023e-21)
(96.19552275 -6.845697597 -7.397506022e-19)
(94.43700568 -8.716080959 1.502591551e-18)
(92.27801729 -11.02684439 0)
(103.2002727 -32.1161958 8.688652614e-19)
(107.7648945 -21.43458969 -1.256392413e-18)
(107.6827989 -15.07013864 0)
(105.983727 -10.14005749 2.359709815e-19)
(103.9486152 -6.817159097 0)
(102.3562741 -4.830672677 -2.431836099e-19)
(101.0277621 -3.545579202 -6.359012014e-20)
(100.3332701 -2.661155222 0)
(99.52446939 -1.858193457 0)
(99.18458018 -1.266391325 1.148423488e-20)
(98.97395895 -0.7427847736 2.116248167e-21)
(98.86560953 -0.2450595991 -6.87431207e-21)
(102.1466156 -0.2752716559 0)
(102.0766268 -0.8341530963 0)
(101.9411966 -1.41382177 0)
(101.7194717 -2.055075934 0)
(101.3270283 -2.572549552 0)
(100.9428769 -3.348129445 0)
(100.435543 -4.309940466 -2.699379169e-19)
(99.68610278 -5.112904359 -1.410843115e-18)
(98.87388386 -6.043067735 -7.563452309e-19)
(97.9273641 -7.219155701 0)
(96.69410911 -9.114003302 0)
(95.49445423 -11.77210448 -9.885997057e-19)
(96.61446929 -21.2318668 -4.818044833e-19)
(102.5735297 -17.6051757 0)
(103.8344009 -13.55360072 0)
(103.2600899 -9.751518399 0)
(102.0897872 -6.944950096 -3.673601635e-19)
(101.0430671 -5.146320908 1.312018472e-21)
(100.0723046 -3.826592331 -8.929856452e-20)
(99.56431245 -2.90455994 -3.359928234e-20)
(98.91098802 -2.013015379 -1.87095901e-20)
(98.63646826 -1.376483673 1.845371766e-20)
(98.46454602 -0.80877545 0)
(98.37520521 -0.2666731564 1.844994405e-20)
(102.6814071 -0.2858768395 0)
(102.6281865 -0.8671073555 0)
(102.5268667 -1.467620535 0)
(102.3588999 -2.119388682 0)
(102.0313299 -2.668833694 0)
(101.7670891 -3.455520917 0)
(101.4109128 -4.393926717 -2.376198921e-21)
(100.8352835 -5.241935646 -5.278590373e-19)
(100.224234 -6.162969543 -2.688307626e-20)
(99.56435084 -7.238225479 -6.619356758e-20)
(98.86463622 -8.795663178 7.453381118e-21)
(98.60165432 -11.2867031 0)
(98.12948922 -14.07956197 -1.931467782e-19)
(100.5295389 -13.62581662 -1.596678017e-19)
(101.4061251 -11.46688946 -3.160565111e-19)
(101.1713475 -8.84937891 -1.035293142e-18)
(100.4775497 -6.683328402 -3.167308807e-19)
(99.80614478 -5.188255838 -2.420921167e-20)
(99.11669834 -3.920793128 0)
(98.78068201 -3.018989516 0)
(98.26836294 -2.088528875 -3.493373091e-20)
(98.05623691 -1.437229439 1.723836174e-20)
(97.92270172 -0.8461564226 7.215531198e-22)
(97.85226695 -0.2789886514 -1.271467288e-20)
(103.2291703 -0.2886931745 0)
(103.191354 -0.8755570913 0)
(103.121245 -1.479980701 0)
(103.0024708 -2.123270515 0)
(102.7341097 -2.681659852 0)
(102.5652967 -3.446660225 0)
(102.3351183 -4.316502847 -1.522784265e-21)
(101.9003207 -5.185920119 -4.055999282e-19)
(101.4323855 -6.09049753 -1.373012213e-18)
(100.9552748 -7.035888154 0)
(100.5277073 -8.17047813 -8.264673651e-19)
(97.12947021 -9.09521293 -1.00880195e-18)
(99.2058562 -10.80154399 -2.775373208e-19)
(99.85281392 -10.72005962 -2.42313631e-19)
(99.9612872 -9.507836553 6.043308042e-19)
(99.63126171 -7.781245557 8.171255234e-19)
(99.15077718 -6.214090464 -2.783347925e-19)
(98.70370549 -5.016489435 0)
(98.22300386 -3.866129661 -2.990440518e-20)
(98.01852899 -3.025194863 4.516129683e-20)
(97.62457505 -2.096446245 1.089366139e-20)
(97.46745914 -1.453841873 1.857361927e-20)
(97.36779775 -0.857583435 -2.110305578e-20)
(97.31425598 -0.2827725796 0)
(103.7757924 -0.2849266598 0)
(103.7509628 -0.8633178875 0)
(103.706429 -1.45731198 0)
(103.6283176 -2.07665843 0)
(103.4123269 -2.626367738 0)
(103.3151674 -3.345887217 0)
(103.172387 -4.130739901 0)
(102.8396717 -4.949548634 -1.569314144e-19)
(102.4500876 -5.818720261 -3.441283466e-19)
(102.0208336 -6.634734039 -5.017767992e-18)
(101.8615642 -7.528294686 -1.195088533e-19)
(92.66695246 -7.172945606 0)
(99.72674599 -8.792500586 6.983108768e-19)
(99.42849821 -8.703460824 -1.989360805e-19)
(98.95663298 -7.891332913 0)
(98.49289538 -6.761594327 0)
(98.08867615 -5.678382152 7.60690152e-21)
(97.76005475 -4.716976944 0)
(97.42244419 -3.712500148 0)
(97.30141267 -2.944990836 0)
(97.00146376 -2.050510636 3.784582009e-20)
(96.88889318 -1.433590762 -3.541018175e-20)
(96.81642939 -0.8468180259 -2.386843868e-21)
(96.77662107 -0.2795877551 2.394961087e-21)
(104.3094241 -0.2759397237 0)
(104.294924 -0.8347834329 0)
(104.2699346 -1.407158898 0)
(104.222956 -1.991233587 0)
(104.0488747 -2.517967864 0)
(104.0008764 -3.178078794 0)
(103.9091709 -3.873042924 0)
(103.6323313 -4.586255842 0)
(103.2505601 -5.354947777 0)
(102.8159096 -6.067565989 8.587878168e-19)
(100.6556497 -6.584357427 1.410592676e-21)
(97.28315211 -7.190439948 5.80253058e-20)
(99.70379654 -7.419490764 1.283990576e-20)
(98.91051056 -7.213856032 -2.708964669e-21)
(98.18927452 -6.635355921 -4.584450022e-19)
(97.65208304 -5.904705332 -8.221320105e-20)
(97.25451338 -5.128635447 0)
(96.97220227 -4.354282969 0)
(96.71331633 -3.488042343 0)
(96.64215455 -2.801357224 0)
(96.41207911 -1.962422562 0)
(96.33290338 -1.38250576 0)
(96.28150151 -0.8190858592 0)
(96.25215341 -0.2714591516 0)
(104.8211165 -0.2630475118 0)
(104.8143253 -0.7941770316 0)
(104.8031217 -1.336863477 0)
(104.7780425 -1.879109657 0)
(104.6346023 -2.373172955 0)
(104.6147992 -2.96847423 0)
(104.5454187 -3.578205549 0)
(104.287215 -4.186171199 0)
(103.8922926 -4.809258103 0)
(103.4152562 -5.401436828 0)
(97.97737767 -5.568703224 -2.571243909e-19)
(100.0857204 -6.268990733 0)
(99.48263811 -6.279491428 5.787878318e-20)
(98.47784362 -6.09012583 -7.757962918e-20)
(97.6550764 -5.704681438 0)
(97.03880151 -5.186928634 0)
(96.60005175 -4.590314632 0)
(96.32065475 -3.965535198 0)
(96.09617514 -3.225434028 0)
(96.04907119 -2.620089813 0)
(95.86504348 -1.84731719 0)
(95.8083277 -1.310529048 0)
(95.77125155 -0.7783065493 0)
(95.75021464 -0.2585000674 0)
(105.3046124 -0.2475003508 0)
(105.3030539 -0.745486685 0)
(105.3003314 -1.253244744 0)
(105.2887552 -1.751050298 0)
(105.1661215 -2.207153177 0)
(105.1574456 -2.738150789 0)
(105.0886507 -3.27202456 0)
(104.8281621 -3.784861654 0)
(104.4043024 -4.291201825 0)
(103.8416746 -4.74841339 0)
(97.8315349 -4.847929173 0)
(100.4106528 -5.370352649 0)
(99.40221465 -5.375425708 0)
(98.23333559 -5.234331197 0)
(97.28124456 -4.949685349 0)
(96.5722003 -4.556019525 0)
(96.0810789 -4.088054733 0)
(95.78122497 -3.579017634 0)
(95.56358613 -2.94869113 0)
(95.52158464 -2.419876849 0)
(95.36441714 -1.717141764 0)
(95.32086402 -1.225776506 0)
(95.29227476 -0.7294989406 0)
(95.27655881 -0.2427096101 0)
(105.7560135 -0.2304166657 0)
(105.7575168 -0.6922746639 0)
(105.7587431 -1.1623376 0)
(105.7535188 -1.615562178 0)
(105.6441241 -2.031888887 0)
(105.6338457 -2.502697065 0)
(105.5506091 -2.968861294 0)
(105.2767532 -3.401022888 0)
(104.8157275 -3.816274759 0)
(104.1427807 -4.173465255 0)
(97.8972152 -4.242329991 0)
(100.5215572 -4.649011764 0)
(99.35408979 -4.643532395 -2.357667677e-35)
(98.05347191 -4.531610718 0)
(96.99697823 -4.312198517 0)
(96.20857898 -4.005231378 0)
(95.66399516 -3.631664259 0)
(95.33225945 -3.212463581 0)
(95.10518634 -2.674545161 0)
(95.05534005 -2.214393217 0)
(94.9105755 -1.580987055 0)
(94.87273454 -1.13465596 0)
(94.84786087 -0.6765199632 0)
(94.83516147 -0.2254871418 0)
(106.1733946 -0.2127126101 0)
(106.1761983 -0.63743227 0)
(106.1778479 -1.06903206 0)
(106.1733647 -1.479105013 0)
(106.0713089 -1.856116628 0)
(106.0508669 -2.272415939 0)
(105.9442327 -2.677059563 0)
(105.6508761 -3.044669662 0)
(105.1506662 -3.388812937 0)
(104.3651327 -3.673633188 0)
(98.00798867 -3.72913078 0)
(100.5752257 -4.054016312 0)
(99.30965145 -4.039495536 0)
(97.91131839 -3.946407602 0)
(96.77416284 -3.77154623 0)
(95.91928089 -3.52650871 0)
(95.32419331 -3.223365556 0)
(94.95612555 -2.874901505 0)
(94.70995878 -2.41377402 0)
(94.64431445 -2.013251311 0)
(94.50171525 -1.445371469 0)
(94.46392314 -1.042107071 0)
(94.43913454 -0.6223535944 0)
(94.42760785 -0.2078206147 0)
(106.5564332 -0.1950876179 0)
(106.5591801 -0.5831230127 0)
(106.5586969 -0.9769640784 0)
(106.550868 -1.346367415 0)
(106.4517086 -1.685887863 0)
(106.4156878 -2.053404802 0)
(106.2819407 -2.404380239 0)
(105.9652248 -2.719349335 0)
(105.427209 -3.007927794 0)
(104.5332449 -3.238868393 0)
(98.14746197 -3.292114516 0)
(100.5987676 -3.554318209 0)
(99.26732156 -3.533643357 -3.520109275e-35)
(97.79511602 -3.454015174 0)
(96.59493261 -3.310942526 0)
(95.68476469 -3.111281102 0)
(95.0438108 -2.861575922 0)
(94.63937822 -2.569409152 0)
(94.3678025 -2.172262105 0)
(94.28208936 -1.822430845 0)
(94.13469728 -1.314817309 0)
(94.09292662 -0.9517002415 0)
(94.06564947 -0.5691656886 0)
(94.05390105 -0.1904156792 0)
(106.9060044 -0.178053097 0)
(106.9076836 -0.5308889933 0)
(106.9032988 -0.8886802987 0)
(106.8893141 -1.220551854 0)
(106.7898327 -1.525155777 0)
(106.7350513 -1.84950453 0)
(106.5726889 -2.154619512 0)
(106.2317928 -2.426046539 0)
(105.6587084 -2.670772419 0)
(104.6634355 -2.860830031 0)
(98.30661697 -2.917696905 0)
(100.6040694 -3.130763993 0)
(99.22690451 -3.105839721 0)
(97.69777597 -3.0364661 0)
(96.44761586 -2.916987583 0)
(95.49145544 -2.751435528 0)
(94.80961788 -2.542939834 0)
(94.37025929 -2.295548153 0)
(94.07065611 -1.951986275 0)
(93.96249173 -1.645357227 0)
(93.80578117 -1.192251985 0)
(93.75735771 -0.8658330002 0)
(93.72586947 -0.5184376154 0)
(93.7128845 -0.1737606247 0)
(107.2237813 -0.1619676086 0)
(107.2236686 -0.4817851277 0)
(107.2142234 -0.8058821848 0)
(107.1922668 -1.103682103 0)
(107.0902276 -1.37632762 0)
(107.0151245 -1.662804985 0)
(106.8241985 -1.928946193 0)
(106.459864 -2.164108785 0)
(105.8548386 -2.37383374 0)
(104.7669424 -2.532414619 0)
(98.47862326 -2.595463255 0)
(100.5974769 -2.769637756 0)
(99.18837782 -2.741791076 1.300007669e-35)
(97.61476832 -2.680555827 0)
(96.32439713 -2.579165016 0)
(95.32978888 -2.439859714 0)
(94.611811 -2.263657608 0)
(94.13968961 -2.052220438 0)
(93.81152537 -1.753576563 0)
(93.67994455 -1.48378613 0)
(93.51110005 -1.079409573 0)
(93.45436897 -0.7860130483 0)
(93.41758516 -0.4711297462 0)
(93.402652 -0.1581788869 0)
(107.511946 -0.1470668959 0)
(107.5095498 -0.4364857947 0)
(107.4943531 -0.7296261179 0)
(107.4633531 -0.9969031248 0)
(107.3572728 -1.240653527 0)
(107.2613746 -1.494116021 0)
(107.0428932 -1.727195674 0)
(106.65671 -1.932004851 0)
(106.0227194 -2.113437956 0)
(104.8515955 -2.247513885 0)
(98.65845975 -2.317430043 0)
(100.5826971 -2.460707745 0)
(99.15171118 -2.430892912 0)
(97.54300536 -2.37629605 0)
(96.2198351 -2.289129851 0)
(95.19285739 -2.170430591 0)
(94.44301793 -2.019909362 0)
(93.94056919 -1.837635653 0)
(93.5843902 -1.576729129 0)
(93.42942778 -1.33833288 0)
(93.24686606 -0.9771571237 0)
(93.18090519 -0.7131018353 0)
(93.138209 -0.4278154469 0)
(93.12085378 -0.143868943 0)
(107.7730028 -0.1334902317 0)
(107.7680108 -0.3953724529 0)
(107.7467154 -0.6604882998 0)
(107.7061374 -0.9007464223 0)
(107.5950232 -1.118646872 0)
(107.4785656 -1.343475851 0)
(107.2340822 -1.548539434 0)
(106.8280241 -1.72784212 0)
(106.1677167 -1.88615004 0)
(104.9228982 -2.000986888 0)
(98.8426726 -2.077465678 0)
(100.5620561 -2.196245426 0)
(99.11683411 -2.165136616 0)
(97.48027978 -2.116039671 0)
(96.13002519 -2.040271717 0)
(95.07558229 -1.938007567 0)
(94.29763715 -1.808153019 0)
(93.76732834 -1.649725504 0)
(93.38425173 -1.420606688 0)
(93.20653475 -1.208926897 0)
(93.00945265 -0.8857765744 0)
(92.93384856 -0.6474992855 0)
(92.8849566 -0.3887819741 0)
(92.86488532 -0.1309351186 0)
(108.0096446 -0.1213060792 0)
(108.0018743 -0.3586143305 0)
(107.9743701 -0.5987015837 0)
(107.9240462 -0.8153202053 0)
(107.8072595 -1.010291506 0)
(107.6709077 -1.210413908 0)
(107.4022395 -1.391776153 0)
(106.9783465 -1.549593822 0)
(106.2940448 -1.688861905 0)
(104.9847496 -1.788506876 0)
(99.02908792 -1.870738852 0)
(100.5371369 -1.970208804 0)
(99.08361993 -1.938281194 0)
(97.42492119 -1.893770026 0)
(96.05204855 -1.827251914 0)
(94.97410735 -1.738247148 0)
(94.17129466 -1.62516806 0)
(93.61547545 -1.486344979 0)
(93.2068652 -1.284046483 0)
(93.00733743 -1.095052494 0)
(92.79543953 -0.8051633835 0)
(92.71011567 -0.5892853582 0)
(92.65496855 -0.3541143125 0)
(92.63201575 -0.1194144667 0)
(108.2245982 -0.110536123 0)
(108.2139576 -0.3262417842 0)
(108.1802878 -0.5442774532 0)
(108.120288 -0.7404829879 0)
(107.997424 -0.9152788355 0)
(107.842078 -1.094211728 0)
(107.5511179 -1.255576074 0)
(107.1113286 -1.39530032 0)
(106.4050696 -1.518849198 0)
(105.0398794 -1.606445069 0)
(99.21642579 -1.693395566 0)
(100.5091081 -1.777845056 0)
(99.05189923 -1.74542629 0)
(97.37562094 -1.704731562 0)
(95.98366719 -1.645771603 0)
(94.88544805 -1.567537883 0)
(94.06052729 -1.468141289 0)
(93.48134655 -1.345455318 0)
(93.04865137 -1.165787084 0)
(92.82838058 -0.9959808114 0)
(92.6016729 -0.7349994639 0)
(92.5067615 -0.538342461 0)
(92.44544013 -0.3237698523 0)
(92.41952893 -0.1093013142 0)
(108.4206411 -0.1011700027 0)
(108.4070917 -0.2981939798 0)
(108.3673854 -0.497086616 0)
(108.2979265 -0.6759306705 0)
(108.1686656 -0.8331403154 0)
(107.9953283 -0.9940540751 0)
(107.683811 -1.13849018 0)
(107.2300116 -1.263144176 0)
(106.5035488 -1.373721166 0)
(105.0902545 -1.451768902 0)
(99.40396668 -1.542359602 0)
(100.4788287 -1.615328242 0)
(99.02147065 -1.582622503 0)
(97.33130943 -1.545086385 0)
(95.92310117 -1.492314603 0)
(94.80722069 -1.422852598 0)
(93.96252023 -1.334637154 0)
(93.36182857 -1.225276658 0)
(92.90653595 -1.064632395 0)
(92.66659051 -0.9108991185 0)
(92.42518897 -0.6748357108 0)
(92.3209439 -0.4944346613 0)
(92.25360408 -0.2976262166 0)
(92.22470878 -0.1005621369 0)
(108.6002646 -0.09318579211 0)
(108.5838162 -0.2743714224 0)
(108.5382521 -0.4569229609 0)
(108.4596323 -0.6213542559 0)
(108.3238529 -0.7633316941 0)
(108.1335814 -0.9091208518 0)
(107.8029957 -1.038792764 0)
(107.33685 -1.151609331 0)
(106.5917432 -1.251403251 0)
(105.1373517 -1.321911399 0)
(99.59114181 -1.415132133 0)
(100.446921 -1.47955535 0)
(98.99213256 -1.44668471 -2.284581488e-36)
(97.29109644 -1.411739474 0)
(95.86890065 -1.364015682 0)
(94.73748351 -1.301673366 0)
(93.87498084 -1.222571227 0)
(93.2545234 -1.124403216 0)
(92.77769299 -0.9796001708 0)
(92.51920493 -0.838958424 0)
(92.26342318 -0.6242354743 0)
(92.15015843 -0.4572695664 0)
(92.07699659 -0.2755316739 0)
(92.04513836 -0.09315533132 0)
(108.7667227 -0.08653564752 0)
(108.7473451 -0.2546259467 0)
(108.6960621 -0.423541698 0)
(108.6085822 -0.5762350667 0)
(108.4656616 -0.7053161967 0)
(108.2594752 -0.8385008153 0)
(107.9116374 -0.9557622379 0)
(107.4338012 -1.059140875 0)
(106.6715335 -1.150104512 0)
(105.1823172 -1.214760213 0)
(99.77735432 -1.30968592 0)
(100.413878 -1.368018297 0)
(98.96369347 -1.335069062 0)
(97.2542247 -1.302213045 0)
(95.81985177 -1.258557886 0)
(94.67460665 -1.201921485 0)
(93.79596648 -1.130131755 0)
(93.15739587 -1.041070833 0)
(92.65968396 -0.9094663447 0)
(92.38374399 -0.7793688689 0)
(92.11337348 -0.5825981193 0)
(91.99141084 -0.4265307281 0)
(91.91258238 -0.257294804 0)
(91.87774023 -0.08701691446 0)
(108.9200375 -0.08123771261 0)
(108.8978721 -0.2389334891 0)
(108.8410927 -0.3967574848 0)
(108.7451267 -0.5407969989 0)
(108.5965113 -0.6584617964 0)
(108.3753447 -0.7813422594 0)
(108.0121112 -0.8896738036 0)
(107.522812 -0.9842393634 0)
(106.7446129 -1.068312514 0)
(105.2260596 -1.12859078 0)
(99.96198945 -1.224437623 0)
(100.3801328 -1.27869921 0)
(98.93596597 -1.24574014 0)
(97.22002468 -1.214520724 0)
(95.77489628 -1.174069057 0)
(94.61716063 -1.12189654 0)
(93.72369754 -1.055813358 0)
(93.06808583 -0.973499032 0)
(92.55065765 -0.8528396694 0)
(92.25787208 -0.731194344 0)
(91.97473611 -0.550019189 0)
(91.84442505 -0.4019549966 0)
(91.76015493 -0.2428483218 0)
(91.72248542 -0.08215073002 0)
(109.0719624 -0.07709229964 0)
(109.046577 -0.2268986706 0)
(108.9840798 -0.3762013763 0)
(108.8788435 -0.5122760412 0)
(108.7194625 -0.622513913 0)
(108.4832227 -0.7374796509 0)
(108.1054993 -0.8394325478 0)
(107.6057573 -0.9261400759 0)
(106.8125027 -1.004855515 0)
(105.2693024 -1.062035972 0)
(100.1444127 -1.158164958 0)
(100.3460906 -1.210044711 0)
(98.90877145 -1.177127113 0)
(97.18789473 -1.147122209 0)
(95.73309777 -1.109087227 0)
(94.56388929 -1.060268549 0)
(93.65662837 -0.998491793 0)
(92.98485635 -0.9213604759 0)
(92.44866274 -0.8092724372 0)
(92.13968442 -0.6947309165 0)
(91.83838351 -0.5237528546 0)
(91.69903017 -0.3831564615 0)
(91.60912741 -0.2317751658 0)
(91.56817955 -0.07834369006 0)
(109.1887512 -0.07468328968 0)
(109.1613294 -0.2195696792 0)
(109.094446 -0.3631771773 0)
(108.9832843 -0.4972817799 0)
(108.8336727 -0.596652841 0)
(108.5848112 -0.7061042199 0)
(108.193482 -0.8039486013 0)
(107.6840136 -0.884040414 0)
(106.8765338 -0.9587821926 0)
(105.3126725 -1.014006096 0)
(100.3240458 -1.109990414 0)
(100.3121258 -1.160898036 0)
(98.8819256 -1.128054536 0)
(97.15726644 -1.098850941 0)
(95.6935951 -1.06249021 0)
(94.51365875 -1.01600452 0)
(93.59339364 -0.9572558447 0)
(92.90622348 -0.8837829367 0)
(92.3520474 -0.7781766039 0)
(92.02769894 -0.6689612495 0)
(91.73051108 -0.5099649396 0)
(91.58522903 -0.3712511995 0)
(91.49100235 -0.2250703887 0)
(91.44805789 -0.0761839309 0)
(109.4083586 -0.07196001295 0)
(109.3765192 -0.2126730947 0)
(109.3011662 -0.3515472975 0)
(109.1741321 -0.4779041411 0)
(108.939195 -0.5817636107 0)
(108.6771255 -0.6875111097 0)
(108.2739393 -0.7835487479 0)
(107.7587842 -0.8572381702 0)
(106.9378681 -0.9292719221 0)
(105.356708 -0.9836926275 0)
(100.4999792 -1.079410504 0)
(100.2786393 -1.130483444 0)
(98.8552821 -1.097718676 0)
(97.12761437 -1.068887547 0)
(95.65560862 -1.033466177 0)