/*--------------------------------*- C++ -*----------------------------------*\
| =========                 |                                                 |
| \\      /  F ield         | OpenFOAM: The Open Source CFD Toolbox           |
|  \\    /   O peration     | Version:  v1912                                 |
|   \\  /    A nd           | Website:  www.openfoam.com                      |
|    \\/     M anipulation  |                                                 |
\*---------------------------------------------------------------------------*/
FoamFile
{
    version     2.0;
    format      ascii;
    class       pointVectorField;
    location    "1.84";
    object      pointDisplacement;
}
// * * * * * * * * * * * * * * * * * * * * * * * * * * * * * * * * * * * * * //

dimensions      [0 1 0 0 0 0 0];


internalField   nonuniform List<vector> 
26316
(
(0 0 0)
(0 0 0)
(0 0 0)
(0 0 0)
(0 0 0)
(0 0 0)
(0 0 0)
(0 0 0)
(0 0 0)
(0 0 0)
(0 0 0)
(0 0 0)
(0 0 0)
(0 0 0)
(0 0 0)
(0 0 0)
(0 0 0)
(0 0 0)
(0 0 0)
(0 0 0)
(0 0 0)
(0 0 0)
(0 0 0)
(0 0 0)
(0 0 0)
(0 0 0)
(0 0 0)
(0 0 0)
(0 0 0)
(0 0 0)
(0 0 0)
(0 0 0)
(0 0 0)
(0 0 0)
(0 0 0)
(0 0 0)
(0 0 0)
(0 0 0)
(0 0 0)
(0 0 0)
(0 0 0)
(0 0 0)
(0 0 0)
(0 0 0)
(0 0 0)
(0 0 0)
(0 0 0)
(0 0 0)
(0 0 0)
(0 0 0)
(0 0 0)
(0 0 0)
(0 0 0)
(0 0 0)
(0 0 0)
(0 0 0)
(0 0 0)
(0 0 0)
(0 0 0)
(0 0 0)
(0 0 0)
(0 0 0)
(0 0 0)
(0 0 0)
(0 0 0)
(0 0 0)
(0 0 0)
(0 0 0)
(0 0 0)
(0 0 0)
(0 0 0)
(0 0 0)
(0 0 0)
(0 0 0)
(0 0 0)
(0 0 0)
(0 0 0)
(0 0 0)
(0 0 0)
(0 0 0)
(0 0 0)
(0 0 0)
(0 0 0)
(0 0 0)
(0 0 0)
(0 0 0)
(0 0 0)
(0 0 0)
(0 0 0)
(0 0 0)
(0 0 0)
(0 0 0)
(0 0 0)
(0 0 0)
(0 0 0)
(0 0 0)
(0 0 0)
(0 0 0)
(0 0 0)
(0 0 0)
(0 0 0)
(0 0 0)
(0 0 0)
(0 0 0)
(0 0 0)
(0 0 0)
(0 0 0)
(0 0 0)
(0 0 0)
(0 0 0)
(0 0 0)
(0 0 0)
(0 0 0)
(0 0 0)
(0 0 0)
(0 0 0)
(0 0 0)
(0 0 0)
(0 0 0)
(-4.790977097e-07 -1.59239469e-06 2.775557562e-17)
(0 0 0)
(0 0 0)
(-2.645975767e-07 -1.783801875e-05 3.469446952e-16)
(1.220326684e-06 -1.516246549e-05 2.91433544e-16)
(0 0 0)
(0 0 0)
(0 0 0)
(0 0 0)
(0 0 0)
(0 0 0)
(0 0 0)
(0 0 0)
(0 0 0)
(0 0 0)
(0 0 0)
(0 0 0)
(0 0 0)
(0 0 0)
(0 0 0)
(0 0 0)
(0 0 0)
(0 0 0)
(0 0 0)
(0 0 0)
(0 0 0)
(0 0 0)
(0 0 0)
(0 0 0)
(0 0 0)
(0 0 0)
(0 0 0)
(0 0 0)
(0 0 0)
(0 0 0)
(0 0 0)
(0 0 0)
(0 0 0)
(0 0 0)
(0 0 0)
(0 0 0)
(0 0 0)
(0 0 0)
(0 0 0)
(0 0 0)
(0 0 0)
(0 0 0)
(0 0 0)
(0 0 0)
(0 0 0)
(0 0 0)
(0 0 0)
(0 0 0)
(0 0 0)
(0 0 0)
(0 0 0)
(0 0 0)
(0 0 0)
(0 0 0)
(0 0 0)
(0 0 0)
(0 0 0)
(0 0 0)
(0 0 0)
(0 0 0)
(0 0 0)
(-2.9847482e-05 -3.493001874e-05 4.857225733e-16)
(-0.0001717676829 -0.0002190517735 3.080868893e-15)
(-2.246153069e-06 -2.676078918e-06 4.163336342e-17)
(-0.0003261051151 -0.0005318524119 8.007483565e-15)
(-0.0008096155757 -0.00141505888 1.99146255e-14)
(-0.0009605742836 -0.001916273386 2.69784195e-14)
(-0.0004481230274 -0.0008336496991 1.255939797e-14)
(-0.0005451801321 -0.00175629448 2.645106356e-14)
(-0.0009549500594 -0.003310210998 4.660161146e-14)
(-0.0007962369176 -0.003657979651 5.150047055e-14)
(-0.0004692406284 -0.001998719743 3.010092176e-14)
(-1.966226705e-05 -0.002338573958 3.522182546e-14)
(-2.474175472e-05 -0.004137775546 5.821731985e-14)
(0.0002625368565 -0.004085390686 5.746791931e-14)
(0.0001536404699 -0.002300596389 3.463895837e-14)
(0.0005145212535 -0.001764332465 2.654820808e-14)
(0.0009112866999 -0.003324879349 4.674038934e-14)
(0.0009988548401 -0.002905366708 4.084232952e-14)
(0.0005411772517 -0.0014769944 2.223221607e-14)
(0.0003183325314 -0.0005389235586 8.10462808e-15)
(0.0007899489835 -0.001429148908 2.009503675e-14)
(0.0005942975119 -0.0009547278582 1.341982081e-14)
(0.0001859676673 -0.0002794117633 4.218847494e-15)
(0 0 0)
(3.131135583e-05 -3.761908514e-05 5.273559367e-16)
(0 0 0)
(0 0 0)
(0 0 0)
(0 0 0)
(0 0 0)
(0 0 0)
(0 0 0)
(0 0 0)
(0 0 0)
(0 0 0)
(0 0 0)
(0 0 0)
(0 0 0)
(0 0 0)
(0 0 0)
(0 0 0)
(0 0 0)
(0 0 0)
(0 0 0)
(0 0 0)
(0 0 0)
(0 0 0)
(0 0 0)
(0 0 0)
(0 0 0)
(0 0 0)
(0 0 0)
(0 0 0)
(0 0 0)
(0 0 0)
(0 0 0)
(0 0 0)
(0 0 0)
(0 0 0)
(0 0 0)
(0 0 0)
(0 0 0)
(0 0 0)
(0 0 0)
(0 0 0)
(0 0 0)
(0 0 0)
(0 0 0)
(0 0 0)
(0 0 0)
(0 0 0)
(-8.335935663e-05 -9.269850612e-05 1.026956298e-15)
(-0.0004553371782 -0.0005397630049 6.009082121e-15)
(-0.0001078655574 -0.0001212059031 1.415534356e-15)
(-0.001538331363 -0.002157275423 2.536859611e-14)
(-0.002459683407 -0.003640982013 4.062028491e-14)
(-0.00313678924 -0.005066003565 5.653810753e-14)
(-0.002114266889 -0.003233846693 3.805289417e-14)
(-0.003282301444 -0.006909847106 8.137934771e-14)
(-0.004339245767 -0.009658737657 1.07913678e-13)
(-0.004360663437 -0.01110986965 1.241229342e-13)
(-0.00337013138 -0.00811522181 9.559020242e-14)
(-0.002624916532 -0.01110869629 1.308120279e-13)
(-0.003256621362 -0.01463299659 1.634109514e-13)
(-0.002564703421 -0.01543561822 1.723204912e-13)
(-0.002087368298 -0.01180246541 1.389444115e-13)
(4.603503988e-06 -0.01273985571 1.497829638e-13)
(3.161042107e-05 -0.01651541091 1.840888553e-13)
(0.0009438197644 -0.01641032823 1.828120988e-13)
(0.000746298636 -0.01264546425 1.486033518e-13)
(0.002611072992 -0.01116903263 1.310757058e-13)
(0.003283564636 -0.01471910108 1.637301406e-13)
(0.00381455703 -0.01372543842 1.526140325e-13)
(0.003008381669 -0.01031347382 1.210143097e-13)
(0.003242488223 -0.006974475647 8.179568134e-14)
(0.004309720826 -0.009754637386 1.084132784e-13)
(0.004080102977 -0.00821959035 9.134359935e-14)
(0.002989407532 -0.005719991527 6.709910405e-14)
(0.001524451072 -0.002189383106 2.570166302e-14)
(0.002438159716 -0.003691042629 4.105049634e-14)
(0.001723417703 -0.002408453793 2.679800826e-14)
(0.0009568263902 -0.00126820193 1.489086632e-14)
(0 0 0)
(8.275636262e-05 -9.373957844e-05 1.040834086e-15)
(0 0 0)
(0 0 0)
(0 0 0)
(0 0 0)
(0 0 0)
(0 0 0)
(0 0 0)
(0 0 0)
(0 0 0)
(0 0 0)
(0 0 0)
(0 0 0)
(0 0 0)
(0 0 0)
(0 0 0)
(0 0 0)
(0 0 0)
(0 0 0)
(0 0 0)
(0 0 0)
(0 0 0)
(0 0 0)
(0 0 0)
(0 0 0)
(0 0 0)
(0 0 0)
(0 0 0)
(0 0 0)
(0 0 0)
(0 0 0)
(0 0 0)
(0 0 0)
(0 0 0)
(0 0 0)
(0 0 0)
(0 0 0)
(0 0 0)
(0 0 0)
(0 0 0)
(-3.586445558e-05 -4.0592885e-05 3.747002708e-16)
(0 0 0)
(-0.001526223487 -0.001961807868 1.890154699e-14)
(-0.002268200946 -0.003043247748 2.806088695e-14)
(-0.00354862925 -0.005079711438 4.6893045e-14)
(-0.002605949186 -0.003572416152 3.444466934e-14)
(-0.005949080987 -0.01020166174 9.860168237e-14)
(-0.007217951752 -0.01294134173 1.197653088e-13)
(-0.008066502943 -0.01579468049 1.462441279e-13)
(-0.00678805991 -0.01270995188 1.229155666e-13)
(-0.007706509374 -0.01994903446 1.93067784e-13)
(-0.008782143257 -0.02378669861 2.203792704e-13)
(-0.008382375329 -0.02602823111 2.411265632e-13)
(-0.007429015859 -0.02204203266 2.133293542e-13)
(-0.005082897414 -0.02678708552 2.589872761e-13)
(-0.005608593152 -0.03096032313 2.865069293e-13)
(-0.004300446981 -0.03198148853 2.957772915e-13)
(-0.003918391597 -0.02780259792 2.686600942e-13)
(0.0001301019254 -0.02914356153 2.810390809e-13)
(0.0001542005495 -0.0333117487 3.074207555e-13)
(0.001682194066 -0.03320647058 3.06213388e-13)
(0.001525779444 -0.02902977797 2.797345688e-13)
(0.005279540981 -0.02697332124 2.593758541e-13)
(0.00585373646 -0.03118087762 2.868816296e-13)
(0.006967162055 -0.02988510789 2.747801986e-13)
(0.006247473837 -0.02569786113 2.46955234e-13)
(0.00776124059 -0.0201836666 1.937616734e-13)
(0.008872343443 -0.0240621142 2.209760153e-13)
(0.008916316232 -0.02155233022 1.978972541e-13)
(0.007714301462 -0.01787696335 1.71612724e-13)
(0.005895906621 -0.01026902965 9.861556016e-14)
(0.007347326396 -0.01333186646 1.223326995e-13)
(0.006334091038 -0.0106199968 9.740819262e-14)
(0.005020813203 -0.008065273274 7.742417818e-14)
(0.001740605576 -0.002275087993 2.184363801e-14)
(0.002601300952 -0.003551935044 3.262667914e-14)
(0.001467934811 -0.001886819561 1.733335697e-14)
(0.0008388785367 -0.001032072944 9.908740495e-15)
(0 0 0)
(0 0 0)
(0 0 0)
(0 0 0)
(0 0 0)
(0 0 0)
(0 0 0)
(0 0 0)
(0 0 0)
(0 0 0)
(0 0 0)
(0 0 0)
(0 0 0)
(0 0 0)
(0 0 0)
(0 0 0)
(0 0 0)
(0 0 0)
(0 0 0)
(0 0 0)
(0 0 0)
(0 0 0)
(0 0 0)
(0 0 0)
(0 0 0)
(0 0 0)
(0 0 0)
(0 0 0)
(0 0 0)
(0 0 0)
(0 0 0)
(0 0 0)
(0 0 0)
(0 0 0)
(0 0 0)
(-0.0001657618182 -0.0002013492468 1.637578961e-15)
(-0.0003769637667 -0.0004752954071 3.719247132e-15)
(-0.001338866869 -0.001775467968 1.391942117e-14)
(-0.0009001292865 -0.001150002697 9.353628982e-15)
(-0.005288886316 -0.008005588099 6.530886942e-14)
(-0.0062566061 -0.009829353836 7.727152251e-14)
(-0.008064283472 -0.01350649245 1.06276099e-13)
(-0.006991791752 -0.01128267391 9.212075547e-14)
(-0.01103344716 -0.02224953214 1.821875983e-13)
(-0.01218426927 -0.02549724764 2.010197564e-13)
(-0.01283986464 -0.02931963666 2.312872116e-13)
(-0.01173741752 -0.02584043895 2.117750419e-13)
(-0.0115927644 -0.0353629388 2.902816876e-13)
(-0.0123088757 -0.03885003981 3.070738108e-13)
(-0.01136033619 -0.0411194775 3.25045546e-13)
(-0.01073738971 -0.03755010161 3.081979116e-13)
(-0.006752101858 -0.04200230601 3.443079155e-13)
(-0.006978931675 -0.04481396797 3.538280779e-13)
(-0.005239199945 -0.04526737485 3.572003804e-13)
(-0.005102426524 -0.04270872608 3.498729084e-13)
(0.0001517889759 -0.04348372673 3.554240235e-13)
(0.0001241237036 -0.04560634138 3.591016373e-13)
(0.001920108787 -0.04563575308 3.59060004e-13)
(0.001924933671 -0.04345922632 3.549521788e-13)
(0.00708019505 -0.04235093209 3.450434383e-13)
(0.007272850555 -0.04515091508 3.543276783e-13)
(0.008900105363 -0.04444550697 3.484851296e-13)
(0.008603528296 -0.04138789831 3.369110546e-13)
(0.01179020514 -0.03581899925 2.909200658e-13)
(0.01253641924 -0.03943091572 3.081424005e-13)
(0.01314650432 -0.03686809096 2.877836858e-13)
(0.0122374191 -0.03308891204 2.68410294e-13)
(0.01130908023 -0.02311713511 1.873501354e-13)
(0.01246254345 -0.02644152731 2.063627047e-13)
(0.01141668228 -0.02240157858 1.749017597e-13)
(0.0102405716 -0.01935904057 1.569577801e-13)
(0.005578601883 -0.008595137451 6.981915046e-14)
(0.006575377049 -0.01051612436 8.225364834e-14)
(0.004740706259 -0.007138649803 5.587197371e-14)
(0.003884215741 -0.005634517037 4.579669977e-14)
(0.0002564297607 -0.0003162214491 2.581268532e-15)
(0.0004405267656 -0.0005640221979 4.413136523e-15)
(1.11832987e-05 -1.363660582e-05 9.714451465e-17)
(0 0 0)
(0 0 0)
(0 0 0)
(0 0 0)
(0 0 0)
(0 0 0)
(0 0 0)
(0 0 0)
(0 0 0)
(0 0 0)
(0 0 0)
(0 0 0)
(0 0 0)
(0 0 0)
(0 0 0)
(0 0 0)
(0 0 0)
(0 0 0)
(0 0 0)
(0 0 0)
(0 0 0)
(0 0 0)
(0 0 0)
(0 0 0)
(0 0 0)
(0 0 0)
(0 0 0)
(0 0 0)
(0 0 0)
(-1.577742532e-05 -2.143061225e-05 1.387778781e-16)
(-4.305226037e-07 -5.6662697e-07 1.387778781e-17)
(0 0 0)
(-0.001183432356 -0.001655972108 1.169897512e-14)
(-0.001493678325 -0.002158960369 1.476596623e-14)
(-0.003098735329 -0.004710012425 3.222422329e-14)
(-0.002643753076 -0.003890444284 2.749189765e-14)
(-0.008584118261 -0.01495918298 1.059707877e-13)
(-0.00934331977 -0.01681515876 1.153244167e-13)
(-0.01134825542 -0.02176697598 1.494082635e-13)
(-0.01075228539 -0.01997188326 1.416089468e-13)
(-0.01485879485 -0.03445461963 2.447486658e-13)
(-0.01547074984 -0.03702799747 2.545880173e-13)
(-0.01587693829 -0.04143617358 2.849526171e-13)
(-0.01532417798 -0.03875507139 2.753491879e-13)
(-0.01381897731 -0.04799879315 3.409911242e-13)
(-0.01410483802 -0.05049919288 3.471389842e-13)
(-0.01268741916 -0.05182614877 3.561456685e-13)
(-0.01251382014 -0.04963802481 3.526345882e-13)
(-0.007286746368 -0.05055053418 0)
(-0.007392384587 -0.05229086152 0)
(-0.006487329844 -0.05229299716 0)
(-0.005532878525 -0.0522567379 0)
(-0.005472575144 -0.05139539616 0)
(-0.005447839139 -0.05055427275 0)
(2.40371426e-05 -0.05062731569 0)
(7.593112018e-06 -0.05146386234 0)
(0.0009240761001 -0.05148114419 0)
(0.0009355551009 -0.05064457864 0)
(0.007392271728 -0.05084073806 0)
(0.007402734803 -0.05170044982 0)
(0.007419436329 -0.05257360034 0)
(0.008330599722 -0.05261780283 0)
(0.009228854263 -0.05264518514 0)
(0.009223099489 -0.05091904792 0)
(0.01397204132 -0.04883973293 3.433642259e-13)
(0.01419014324 -0.05131448385 3.492206524e-13)
(0.01528091735 -0.04928225718 3.352179645e-13)
(0.01494893435 -0.04661655292 3.275851812e-13)
(0.01513493484 -0.03567285933 2.505634589e-13)
(0.01568077793 -0.03820559441 2.596256543e-13)
(0.01489220466 -0.03354774275 2.279981759e-13)
(0.01421611733 -0.03098288243 2.17659224e-13)
(0.009182500727 -0.01631036419 1.147276718e-13)
(0.01004258104 -0.01843139832 1.254552018e-13)
(0.007914383347 -0.01367495272 9.314771177e-14)
(0.007128088474 -0.01192066711 8.390510509e-14)
(0.001587778794 -0.002256961989 1.591782262e-14)
(0.00198464818 -0.002914384623 1.990074772e-14)
(0.0007110576864 -0.0009942751391 6.786238238e-15)
(0.0004837976828 -0.0006548604742 4.62130334e-15)
(0 0 0)
(0 0 0)
(0 0 0)
(0 0 0)
(0 0 0)
(0 0 0)
(0 0 0)
(0 0 0)
(0 0 0)
(0 0 0)
(0 0 0)
(0 0 0)
(0 0 0)
(0 0 0)
(0 0 0)
(0 0 0)
(0 0 0)
(0 0 0)
(0 0 0)
(0 0 0)
(0 0 0)
(0 0 0)
(0 0 0)
(0 0 0)
(0 0 0)
(0 0 0)
(0 0 0)
(0 0 0)
(-0.0001421629001 -0.0002171360358 1.276756478e-15)
(-8.101457929e-05 -0.0001203094089 7.21644966e-16)
(-6.627698779e-05 -9.562357102e-05 5.967448757e-16)
(-0.002146178017 -0.00339976197 2.120525977e-14)
(-0.002225793819 -0.003628696805 2.198241589e-14)
(-0.00412113632 -0.007063932071 4.281297539e-14)
(-0.004012333667 -0.006682896041 4.168887457e-14)
(-0.0107928988 -0.02126949618 1.330185961e-13)
(-0.01096477181 -0.02223247816 1.350725087e-13)
(-0.01305471704 -0.02820001841 1.714461906e-13)
(-0.01287171673 -0.02702557387 1.691424778e-13)
(-0.01670800954 -0.04371176393 2.739475313e-13)
(-0.01687857973 -0.04541124837 2.764455331e-13)
(-0.0171010269 -0.05012614305 3.051725539e-13)
(-0.01694812806 -0.04831712149 3.028410855e-13)
(-0.01454517806 -0.05671705093 3.552713679e-13)
(-0.01461461409 -0.0585424145 3.561456685e-13)
(-0.01294853466 -0.05906102319 0)
(-0.01291277066 -0.05735768365 3.591155151e-13)
(-0.007553639668 -0.05744321732 0)
(-0.007575555081 -0.05830630957 0)
(-0.006682880214 -0.05831861321 0)
(-0.006661069731 -0.05745687915 0)
(0.007378265525 -0.05770995283 0)
(0.00736661514 -0.05856486997 0)
(0.00825888466 -0.05858587236 0)
(0.008271449898 -0.05773223899 0)
(0.01445494333 -0.05760408834 3.573530361e-13)
(0.0144582622 -0.05943323958 3.582134589e-13)
(0.01590764283 -0.05825836699 3.509414981e-13)
(0.01584704641 -0.05627875124 3.489430966e-13)
(0.01720228943 -0.04606601211 2.854522174e-13)
(0.01740653908 -0.04803451716 2.891853423e-13)
(0.01680954217 -0.04285733761 2.580574643e-13)
(0.01657327941 -0.0410124771 2.541855615e-13)
(0.01178865016 -0.0237377814 1.473404732e-13)
(0.01205428917 -0.02499673644 1.507405312e-13)
(0.009789660023 -0.01910487877 1.152966611e-13)
(0.009538120747 -0.01807635773 1.122990589e-13)
(0.002879527021 -0.004635467106 2.886579864e-14)
(0.003251667541 -0.005389718469 3.258504577e-14)
(0.001550868122 -0.002447371734 1.480759959e-14)
(0.001276700932 -0.001956817218 1.21846977e-14)
(0 0 0)
(0 0 0)
(0 0 0)
(0 0 0)
(0 0 0)
(0 0 0)
(0 0 0)
(0 0 0)
(0 0 0)
(0 0 0)
(0 0 0)
(0 0 0)
(0 0 0)
(0 0 0)
(0 0 0)
(0 0 0)
(0 0 0)
(0 0 0)
(0 0 0)
(0 0 0)
(0 0 0)
(0 0 0)
(0 0 0)
(0 0 0)
(0 0 0)
(0 0 0)
(0 0 0)
(0 0 0)
(-0.0002333687552 -0.0003958707077 2.095545959e-15)
(-0.0002107786736 -0.000348657546 1.887379142e-15)
(-0.0001849127818 -0.0002980635438 1.651456749e-15)
(-0.002644622353 -0.004678958802 2.611799665e-14)
(-0.002734636549 -0.004964949842 2.700617507e-14)
(-0.004768870965 -0.009102008697 4.952982469e-14)
(-0.00465626843 -0.008660660666 4.836409051e-14)
(-0.01164824077 -0.02561376332 1.433297925e-13)
(-0.01178858108 -0.02659337112 1.44995127e-13)
(-0.01386053769 -0.03329445155 1.816463646e-13)
(-0.01372309807 -0.03213660382 1.799393967e-13)
(-0.01736962426 -0.05058515 2.835648383e-13)
(-0.01747362289 -0.0521720742 2.849526171e-13)
(-0.01759525349 -0.05718601134 3.12361248e-13)
(-0.01750724162 -0.05551126577 3.111955138e-13)
(-0.01476625177 -0.06382862451 3.575334473e-13)
(-0.01480582987 -0.06555032478 3.577416141e-13)
(-0.01307664509 -0.06583487511 0)
(-0.01304575711 -0.06414560608 0)
(-0.007695457208 -0.06424901127 0)
(-0.007711421669 -0.0650942231 0)
(-0.006821072889 -0.06511130648 0)
(-0.006804990974 -0.06426609696 0)
(0.007264953121 -0.06453015581 0)
(0.007248499775 -0.06538033219 0)
(0.008138675081 -0.06539827384 0)
(0.008155276599 -0.06454853119 0)
(0.01439310255 -0.06466628182 3.590738817e-13)
(0.01435956007 -0.0663701595 3.591155151e-13)
(0.01595875243 -0.06563899307 3.549799343e-13)
(0.01596896496 -0.06386487877 3.544387006e-13)
(0.01792669953 -0.05390288214 2.989691827e-13)
(0.01801140157 -0.0556547936 3.008010507e-13)
(0.01759511712 -0.05018933802 2.712968739e-13)
(0.01747728147 -0.04852236391 2.691596945e-13)
(0.01300718595 -0.02932956693 1.629113511e-13)
(0.01319543131 -0.03055388416 1.653677195e-13)
(0.0109528874 -0.02385574929 1.292022045e-13)
(0.01075694187 -0.02281823236 1.26815225e-13)
(0.003728668496 -0.006711765336 3.738676035e-14)
(0.003880251155 -0.007169665095 3.891331701e-14)
(0.002001044694 -0.003519428834 1.91235916e-14)
(0.00188645769 -0.003232442465 1.801336857e-14)
(0 0 0)
(0 0 0)
(0 0 0)
(0 0 0)
(0 0 0)
(0 0 0)
(0 0 0)
(0 0 0)
(0 0 0)
(0 0 0)
(0 0 0)
(0 0 0)
(0 0 0)
(0 0 0)
(0 0 0)
(0 0 0)
(0 0 0)
(0 0 0)
(0 0 0)
(0 0 0)
(0 0 0)
(0 0 0)
(0 0 0)
(0 0 0)
(0 0 0)
(0 0 0)
(0 0 0)
(0 0 0)
(-0.0003442512322 -0.0006420296976 3.094746681e-15)
(-0.0003103652803 -0.0005657366682 2.789435349e-15)
(-0.0002801948426 -0.0004989357531 2.525757381e-15)
(-0.002958730077 -0.005782513427 2.921274334e-14)
(-0.003049504179 -0.006100846978 3.010092176e-14)
(-0.005158878935 -0.01084760996 5.355438315e-14)
(-0.00504718685 -0.01036818265 5.240252676e-14)
(-0.0121340666 -0.02943792471 1.490751966e-13)
(-0.01227041035 -0.03046257721 1.5068502e-13)
(-0.01433302628 -0.03787052036 1.874334021e-13)
(-0.01419992106 -0.03666897963 1.857958232e-13)
(-0.01773625888 -0.05684294825 2.883110417e-13)
(-0.0178360809 -0.05845812707 2.896155538e-13)
(-0.01790462797 -0.06382504346 3.16219273e-13)
(-0.01782051994 -0.06213018367 3.151368055e-13)
(-0.01491521964 -0.07068096874 3.582134589e-13)
(-0.01495157062 -0.07239347222 3.583799923e-13)
(-0.01319733472 -0.07257778989 0)
(-0.01316743462 -0.07089296648 0)
(-0.00782061613 -0.07099614684 0)
(-0.007836007219 -0.07183807991 0)
(-0.0069468683 -0.07185494377 0)
(-0.006939093686 -0.07143393962 0)
(-0.006931325972 -0.07101328783 0)
(0.007123684172 -0.07132393642 0)
(0.007104709704 -0.07217085178 0)
(0.007993894675 -0.07218736404 0)
(0.008012981231 -0.07134072504 0)
(0.01424618383 -0.07145038099 3.590877595e-13)
(0.0142047911 -0.07312719689 3.590183706e-13)
(0.01577368651 -0.0721647344 3.541472671e-13)
(0.01583245554 -0.07059260479 3.546191119e-13)
(0.01785774772 -0.05966495466 2.995659276e-13)
(0.01776575618 -0.06085164957 2.984834602e-13)
(0.01734028227 -0.0547787248 2.687294831e-13)
(0.01743666524 -0.0537440155 2.698674617e-13)
(0.01303718538 -0.03256407088 1.637301406e-13)
(0.01294624149 -0.03312300927 1.626893065e-13)
(0.01071706399 -0.02577758087 1.266764471e-13)
(0.01080083264 -0.02536600102 1.276062589e-13)
(0.003775244983 -0.007515671457 3.788636072e-14)
(0.003725870768 -0.00759467432 3.740063814e-14)
(0.001887522771 -0.003661580357 1.804112415e-14)
(0.001922387499 -0.003642324467 1.837419106e-14)
(0 0 0)
(0 0 0)
(0 0 0)
(0 0 0)
(0 0 0)
(0 0 0)
(0 0 0)
(0 0 0)
(0 0 0)
(0 0 0)
(0 0 0)
(0 0 0)
(0 0 0)
(0 0 0)
(0 0 0)
(0 0 0)
(0 0 0)
(0 0 0)
(0 0 0)
(0 0 0)
(0 0 0)
(0 0 0)
(0 0 0)
(0 0 0)
(0 0 0)
(0 0 0)
(0 0 0)
(0 0 0)
(-0.0004929975357 -0.001002683254 4.427014311e-15)
(-0.0004527033964 -0.000901626752 4.066191828e-15)
(-0.0004137308862 -0.000806543424 3.719247132e-15)
(-0.003333357675 -0.007130664381 3.28903571e-14)
(-0.003433373719 -0.007503065805 3.388955783e-14)
(-0.005626206414 -0.01291955793 5.838385331e-14)
(-0.005505218812 -0.0123755417 5.71348524e-14)
(-0.01268785014 -0.03364621469 1.556116347e-13)
(-0.01283185016 -0.03474980241 1.573047248e-13)
(-0.01487910608 -0.04286128656 1.941224959e-13)
(-0.01473938662 -0.04158257166 1.92415528e-13)
(-0.01813805203 -0.06338031643 2.935290899e-13)
(-0.01824065849 -0.06504978062 2.948613576e-13)
(-0.01824317613 -0.07070452667 3.204936316e-13)
(-0.01815773437 -0.06896831971 3.194111642e-13)
(-0.01505659273 -0.07752417558 3.587685704e-13)
(-0.01509018253 -0.07923057248 3.588657149e-13)
(-0.01331521082 -0.07932103394 0)
(-0.01328603543 -0.07763521718 0)
(-0.007942501051 -0.07773809822 0)
(-0.007957398506 -0.07858082429 0)
(-0.007069787257 -0.0785976974 0)
(-0.007062240651 -0.07817633628 0)
(-0.007054656427 -0.07775505424 0)
(0.006965461981 -0.07808942021 0)
(0.006944083127 -0.07893511349 0)
(0.007832424402 -0.07895070841 0)
(0.007853994412 -0.07810525386 0)
(0.01404972935 -0.07801152061 3.581857033e-13)
(0.01397994709 -0.07953460482 3.574640584e-13)
(0.01538370197 -0.07764522054 3.488598299e-13)
(0.01551220092 -0.07644753408 3.508721091e-13)
(0.01713818734 -0.0630447714 2.892686091e-13)
(0.01677937136 -0.06314509758 2.836342272e-13)
(0.01630311325 -0.05652836395 2.539357613e-13)
(0.01659823556 -0.05626841229 2.5821012e-13)
(0.01199417681 -0.03287136258 1.510180869e-13)
(0.01169150436 -0.03275201034 1.473127176e-13)
(0.009481082089 -0.02495537726 1.122990589e-13)
(0.009763273844 -0.02514400214 1.155880947e-13)
(0.00304533846 -0.006641944754 3.058664433e-14)
(0.002881845961 -0.00642234417 2.894906537e-14)
(0.001281290388 -0.002717155283 1.225408663e-14)
(0.001390947829 -0.002886885586 1.329492072e-14)
(0 0 0)
(0 0 0)
(0 0 0)
(0 0 0)
(0 0 0)
(0 0 0)
(0 0 0)
(0 0 0)
(0 0 0)
(0 0 0)
(0 0 0)
(0 0 0)
(0 0 0)
(0 0 0)
(0 0 0)
(0 0 0)
(0 0 0)
(0 0 0)
(0 0 0)
(0 0 0)
(0 0 0)
(0 0 0)
(0 0 0)
(0 0 0)
(0 0 0)
(0 0 0)
(0 0 0)
(0 0 0)
(-0.0006230929568 -0.001372405656 5.592748487e-15)
(-0.0006443797918 -0.001392085993 5.800915304e-15)
(-0.0005882239686 -0.00124597345 5.287437155e-15)
(-0.003760351022 -0.008737449811 3.71092046e-14)
(-0.003888213938 -0.009213420889 3.83582055e-14)
(-0.00617007641 -0.0153587415 6.397660179e-14)
(-0.006018184626 -0.01469088597 6.242228956e-14)
(-0.01329132087 -0.03822804638 1.627031843e-13)
(-0.01346617723 -0.03948212452 1.647570969e-13)
(-0.01549119115 -0.04828680833 2.015887457e-13)
(-0.01532315472 -0.0468608029 1.995348331e-13)
(-0.0185615017 -0.07016969417 2.990108161e-13)
(-0.01867976181 -0.0719409132 3.005512506e-13)
(-0.01860407635 -0.07781012255 3.250733016e-13)
(-0.01850793053 -0.07599682335 3.238243007e-13)
(-0.01518660214 -0.08433184764 3.590738817e-13)
(-0.0152173816 -0.0860254294 3.591016373e-13)
(-0.01343058127 -0.08606232957 0)
(-0.01340176591 -0.08437689742 0)
(-0.00805911975 -0.08447913441 0)
(-0.008073271795 -0.08532179674 0)
(-0.007187340223 -0.08533844112 0)
(-0.00718018283 -0.08491695489 0)
(-0.007172992421 -0.08449578263 0)
(0.006788253269 -0.08483843478 0)
(0.006764462313 -0.08568130002 0)
(0.007652504178 -0.08569618407 0)
(0.007676569193 -0.08485332421 0)
(0.0137093199 -0.08369449265 3.537725668e-13)
(0.01358619573 -0.0848529058 3.517047764e-13)
(0.01474898493 -0.08153723313 3.378824998e-13)
(0.01494305777 -0.08080196689 3.414490912e-13)
(0.015767256 -0.06334183288 2.676470157e-13)
(0.01549937077 -0.06358965051 2.634836793e-13)
(0.01469312255 -0.05547013281 2.298716772e-13)
(0.01516020023 -0.05606657401 2.369354712e-13)
(0.0103297215 -0.03081306552 1.303679387e-13)
(0.009681813999 -0.02946244353 1.222494328e-13)
(0.007505842303 -0.02145245313 8.905376436e-14)
(0.008155614773 -0.02285089897 9.672818102e-14)
(0.002044577857 -0.004847825611 2.055300374e-14)
(0.001785599913 -0.004318586194 1.795785742e-14)
(0.0005799287068 -0.001334734017 5.551115123e-15)
(0.0007299393124 -0.001646964195 6.994405055e-15)
(0 0 0)
(0 0 0)
(0 0 0)
(0 0 0)
(0 0 0)
(0 0 0)
(0 0 0)
(0 0 0)
(0 0 0)
(0 0 0)
(0 0 0)
(0 0 0)
(0 0 0)
(0 0 0)
(0 0 0)
(0 0 0)
(0 0 0)
(0 0 0)
(0 0 0)
(0 0 0)
(0 0 0)
(0 0 0)
(0 0 0)
(0 0 0)
(0 0 0)
(0 0 0)
(0 0 0)
(0 0 0)
(-0.001107797847 -0.002626385062 9.950373858e-15)
(-0.001009966098 -0.002351832001 9.076073226e-15)
(-0.0008643618699 -0.001976496155 7.771561172e-15)
(-0.00429916004 -0.01077931283 4.239664175e-14)
(-0.004619037807 -0.01179177243 4.554689959e-14)
(-0.007004706533 -0.01877870811 7.256695245e-14)
(-0.006613580814 -0.0174158716 6.854239398e-14)
(-0.01405703998 -0.04355406261 1.71682113e-13)
(-0.01431729647 -0.04514862594 1.747491041e-13)
(-0.0162696768 -0.05451435994 2.110672748e-13)
(-0.01605536868 -0.05286351415 2.084582507e-13)
(-0.01906661283 -0.07745098909 3.056166431e-13)
(-0.01913204154 -0.07905593892 3.062827769e-13)
(-0.01902314993 -0.08529725757 3.304578833e-13)
(-0.01891404994 -0.08339332762 3.290423489e-13)
(-0.01530761027 -0.09108324733 0)
(-0.0153387325 -0.09276847764 0)
(-0.01354926196 -0.09280265954 0)
(-0.0135338632 -0.09196033496 0)
(-0.01351869782 -0.09111792747 0)
(-0.008170449177 -0.09122007834 0)
(-0.008177397011 -0.09164086369 0)
(-0.007734310704 -0.09164903157 0)
(-0.007727404321 -0.09122836292 0)
(-0.0004852427417 -0.091470532 0)
(-0.0004942352684 -0.09168028785 0)
(-0.0005018175455 -0.09189011049 0)
(-6.791369305e-05 -0.09189367275 0)
(-5.06755341e-05 -0.09147442058 0)
(0.006578469436 -0.09157087071 0)
(0.006548248353 -0.09241008504 0)
(0.006517679507 -0.09324905757 0)
(0.008298998023 -0.09327951569 0)
(0.008357885634 -0.09160046908 0)
(0.007468508788 -0.09158575472 0)
(0.01312630311 -0.08758260838 3.430450368e-13)
(0.01289965316 -0.08791835667 3.381739333e-13)
(0.01374066917 -0.08266944049 3.179262409e-13)
(0.01410462726 -0.08313365248 3.255590242e-13)
(0.01418127925 -0.06178554645 2.419592304e-13)
(0.01367072679 -0.0607161052 2.335076577e-13)
(0.01267256654 -0.05174030084 1.990352327e-13)
(0.01320689421 -0.0529078478 2.072508831e-13)
(0.008023715375 -0.02586665534 1.014327511e-13)
(0.007540627534 -0.02476399229 9.536815782e-14)
(0.005514714067 -0.01700424519 6.551703624e-14)
(0.005940042933 -0.01798059706 7.054079543e-14)
(0.0008443304352 -0.002162265956 8.493206138e-15)
(0.0006863600555 -0.001790417302 6.911138328e-15)
(5.441745321e-05 -0.0001351121534 5.273559367e-16)
(0.0001039679276 -0.0002534172786 9.992007222e-16)
(0 0 0)
(0 0 0)
(0 0 0)
(0 0 0)
(0 0 0)
(0 0 0)
(0 0 0)
(0 0 0)
(0 0 0)
(0 0 0)
(0 0 0)
(0 0 0)
(0 0 0)
(0 0 0)
(0 0 0)
(0 0 0)
(0 0 0)
(0 0 0)
(0 0 0)
(0 0 0)
(0 0 0)
(0 0 0)
(0 0 0)
(0 0 0)
(0 0 0)
(0 0 0)
(0 0 0)
(0 0 0)
(-0.001050559892 -0.002680326185 9.492406861e-15)
(-0.001187223857 -0.002978495181 1.071365219e-14)
(-0.001268621515 -0.003128870396 1.144917494e-14)
(-0.005115610268 -0.01383250155 5.066780329e-14)
(-0.004951199448 -0.01361793403 4.904410211e-14)
(-0.007384295214 -0.02132716276 7.68274333e-14)
(-0.007581184789 -0.02152690137 7.889522369e-14)
(-0.01496030616 -0.04996078575 1.833533325e-13)
(-0.0147193863 -0.0499858601 1.803418526e-13)
(-0.01664386882 -0.06004608578 2.167155344e-13)
(-0.01687888625 -0.05989115625 2.198935478e-13)
(-0.01950210331 -0.08535378286 3.135408599e-13)
(-0.01934615654 -0.08604228999 3.107097912e-13)
(-0.0190883916 -0.09213635463 3.326922071e-13)
(-0.01920033838 -0.09122141367 3.350653088e-13)
(-0.01523443412 -0.0978445677 0)
(-0.01526744097 -0.09953003526 0)
(-0.01347297592 -0.09956517664 0)
(-0.01345647633 -0.09872263861 0)
(-0.01343996907 -0.09787970907 0)
(-0.008056652222 -0.09798513168 0)
(-0.008073159485 -0.09882806122 0)
(-0.007175966112 -0.09884563114 0)
(-0.007167708647 -0.09842397061 0)
(-0.007159458849 -0.0980027016 0)
(-0.007608055536 -0.09799391664 0)
(-0.0008789107674 -0.09812569486 0)
(-0.0008871598151 -0.09854696389 0)
(-0.0008954169047 -0.09896862442 0)
(1.804036139e-06 -0.09898619489 0)
(1.831129867e-05 -0.09814326535 0)
(0.006298833261 -0.0982662581 0)
(0.006265826403 -0.09995172567 0)
(0.008031913639 -0.09960391301 3.577554919e-13)
(0.008087379668 -0.09822354326 3.588379593e-13)
(0.01223511933 -0.08874414672 3.239075674e-13)
(0.01193315634 -0.08832261626 3.169825513e-13)
(0.01250800012 -0.08150338299 2.92474378e-13)
(0.01287215052 -0.08226188867 3.002043059e-13)
(0.01190108293 -0.05586461413 2.03920214e-13)
(0.01142012543 -0.05457938593 1.958988527e-13)
(0.01017230544 -0.04462709047 1.602051825e-13)
(0.01086904355 -0.04686627599 1.711131237e-13)
(0.005690564195 -0.01971092914 7.203959651e-14)
(0.004958962131 -0.01747128438 6.278311204e-14)
(0.003368596134 -0.01114255327 4.005129561e-14)
(0.003838670966 -0.01248196489 4.563016631e-14)
(0.0001413066972 -0.0003888285948 1.415534356e-15)
(6.382673922e-05 -0.0001786904649 6.383782392e-16)
(0 0 0)
(0 0 0)
(0 0 0)
(0 0 0)
(0 0 0)
(0 0 0)
(0 0 0)
(0 0 0)
(0 0 0)
(0 0 0)
(0 0 0)
(0 0 0)
(0 0 0)
(0 0 0)
(0 0 0)
(0 0 0)
(0 0 0)
(0 0 0)
(0 0 0)
(0 0 0)
(0 0 0)
(0 0 0)
(0 0 0)
(0 0 0)
(0 0 0)
(0 0 0)
(0 0 0)
(0 0 0)
(0 0 0)
(0 0 0)
(-0.0002453902147 -0.0006679876588 2.220446049e-15)
(-0.0004452564649 -0.001193022221 4.024558464e-15)
(-0.0006615009258 -0.001744150719 5.967448757e-15)
(-0.003794123822 -0.01097015681 3.758104938e-14)
(-0.0032417444 -0.009526966684 3.212707878e-14)
(-0.005279167915 -0.01629386721 5.495603972e-14)
(-0.00597153486 -0.0181314874 6.21447338e-14)
(-0.01289893331 -0.04603863664 1.58012492e-13)
(-0.01195921087 -0.04339456498 1.465494393e-13)
(-0.01387326327 -0.05346450955 1.806194083e-13)
(-0.01482755388 -0.05620831729 1.929845173e-13)
(-0.01796981701 -0.08385831211 2.880889971e-13)
(-0.01717994992 -0.08147859602 2.754185768e-13)
(-0.0173087026 -0.08900397135 3.008704397e-13)
(-0.01798355321 -0.0910114609 3.126665593e-13)
(-0.01519269594 -0.1034607362 3.552436123e-13)
(-0.01496152349 -0.1033975898 3.493733081e-13)
(-0.01348336925 -0.1054099721 3.560762796e-13)
(-0.01356350354 -0.104560282 3.589073483e-13)
(-0.008188694988 -0.104727785 0)
(-0.008221709513 -0.106413644 0)
(-0.006427283616 -0.1064487847 0)
(-0.006394269091 -0.1047629256 0)
(-0.007291501615 -0.1047453549 0)
(-0.001010952246 -0.1048683482 0)
(-0.001043966772 -0.1065542073 0)
(0.0007504708715 -0.1065893481 0)
(0.0007834853966 -0.104903489 0)
(0.006118349285 -0.1040716446 3.559097461e-13)
(0.006002883017 -0.1040959012 3.503863866e-13)
(0.007537961922 -0.1009337588 3.396449788e-13)
(0.007732369585 -0.1017201922 3.477773625e-13)
(0.01093402852 -0.08521744166 2.911837438e-13)
(0.01046178479 -0.08283531594 2.785827125e-13)
(0.01067235563 -0.07427819266 2.498001805e-13)