/*--------------------------------*- C++ -*----------------------------------*\
| =========                 |                                                 |
| \\      /  F ield         | OpenFOAM: The Open Source CFD Toolbox           |
|  \\    /   O peration     | Version:  v1912                                 |
|   \\  /    A nd           | Website:  www.openfoam.com                      |
|    \\/     M anipulation  |                                                 |
\*---------------------------------------------------------------------------*/
FoamFile
{
    version     2.0;
    format      ascii;
    class       pointVectorField;
    location    "1.64";
    object      pointDisplacement;
}
// * * * * * * * * * * * * * * * * * * * * * * * * * * * * * * * * * * * * * //

dimensions      [0 1 0 0 0 0 0];


internalField   nonuniform List<vector> 
26316
(
(0 0 0)
(0 0 0)
(0 0 0)
(0 0 0)
(0 0 0)
(0 0 0)
(0 0 0)
(0 0 0)
(0 0 0)
(0 0 0)
(0 0 0)
(0 0 0)
(0 0 0)
(0 0 0)
(0 0 0)
(0 0 0)
(0 0 0)
(0 0 0)
(0 0 0)
(0 0 0)
(0 0 0)
(0 0 0)
(0 0 0)
(0 0 0)
(0 0 0)
(0 0 0)
(0 0 0)
(0 0 0)
(0 0 0)
(0 0 0)
(0 0 0)
(0 0 0)
(0 0 0)
(0 0 0)
(0 0 0)
(0 0 0)
(0 0 0)
(0 0 0)
(0 0 0)
(0 0 0)
(0 0 0)
(0 0 0)
(0 0 0)
(0 0 0)
(0 0 0)
(0 0 0)
(0 0 0)
(0 0 0)
(0 0 0)
(0 0 0)
(0 0 0)
(0 0 0)
(0 0 0)
(0 0 0)
(0 0 0)
(0 0 0)
(0 0 0)
(0 0 0)
(0 0 0)
(0 0 0)
(0 0 0)
(0 0 0)
(0 0 0)
(0 0 0)
(0 0 0)
(0 0 0)
(0 0 0)
(0 0 0)
(0 0 0)
(0 0 0)
(0 0 0)
(0 0 0)
(0 0 0)
(0 0 0)
(0 0 0)
(0 0 0)
(0 0 0)
(0 0 0)
(0 0 0)
(0 0 0)
(0 0 0)
(0 0 0)
(0 0 0)
(0 0 0)
(0 0 0)
(0 0 0)
(0 0 0)
(0 0 0)
(0 0 0)
(0 0 0)
(0 0 0)
(0 0 0)
(0 0 0)
(0 0 0)
(0 0 0)
(0 0 0)
(0 0 0)
(0 0 0)
(0 0 0)
(0 0 0)
(0 0 0)
(0 0 0)
(0 0 0)
(0 0 0)
(0 0 0)
(0 0 0)
(0 0 0)
(0 0 0)
(0 0 0)
(0 0 0)
(0 0 0)
(0 0 0)
(0 0 0)
(0 0 0)
(0 0 0)
(0 0 0)
(0 0 0)
(0 0 0)
(0 0 0)
(-4.134930673e-07 1.450873425e-05 2.775557562e-17)
(0 0 0)
(0 0 0)
(-2.284653493e-07 0.0001625206335 3.330669074e-16)
(1.053148085e-06 0.0001381524776 2.775557562e-16)
(0 0 0)
(0 0 0)
(0 0 0)
(0 0 0)
(0 0 0)
(0 0 0)
(0 0 0)
(0 0 0)
(0 0 0)
(0 0 0)
(0 0 0)
(0 0 0)
(0 0 0)
(0 0 0)
(0 0 0)
(0 0 0)
(0 0 0)
(0 0 0)
(0 0 0)
(0 0 0)
(0 0 0)
(0 0 0)
(0 0 0)
(0 0 0)
(0 0 0)
(0 0 0)
(0 0 0)
(0 0 0)
(0 0 0)
(0 0 0)
(0 0 0)
(0 0 0)
(0 0 0)
(0 0 0)
(0 0 0)
(0 0 0)
(0 0 0)
(0 0 0)
(0 0 0)
(0 0 0)
(0 0 0)
(0 0 0)
(0 0 0)
(0 0 0)
(0 0 0)
(0 0 0)
(0 0 0)
(0 0 0)
(0 0 0)
(0 0 0)
(0 0 0)
(0 0 0)
(0 0 0)
(0 0 0)
(0 0 0)
(0 0 0)
(0 0 0)
(0 0 0)
(0 0 0)
(0 0 0)
(0 0 0)
(-2.576048526e-05 0.0002267314008 4.996003611e-16)
(-0.0001482537094 0.001422187452 3.080868893e-15)
(-1.938576431e-06 1.87539463e-05 4.163336342e-17)
(-0.0002814997169 0.003728975505 8.007483565e-15)
(-0.0006990475828 0.009194118602 1.99146255e-14)
(-0.0008295826827 0.01245339963 2.69784195e-14)
(-0.0003868818717 0.005846132529 1.255939797e-14)
(-0.0004710707687 0.01231886899 2.646494135e-14)
(-0.0008258104571 0.02151513731 4.661548925e-14)
(-0.0006891901668 0.02377370238 5.151434834e-14)
(-0.0004056909222 0.01401916222 3.011479954e-14)
(-1.7935323e-05 0.01639647966 3.522182546e-14)
(-2.389124543e-05 0.02687491098 5.823119764e-14)
(0.000224114 0.02652861007 5.74817971e-14)
(0.0001316675424 0.01612805372 3.463895837e-14)
(0.0004435162501 0.01236334455 2.656208586e-14)
(0.0007848644208 0.02157601795 4.675426712e-14)
(0.0008608282012 0.01885186815 4.085620731e-14)
(0.000466686336 0.01034948873 2.223221607e-14)
(0.0002746903292 0.003776349996 8.10462808e-15)
(0.000681475019 0.009272992845 2.009503675e-14)
(0.0005127823318 0.006195456964 1.341982081e-14)
(0.0001604883408 0.001958059517 4.204969706e-15)
(0 0 0)
(2.702351294e-05 0.0002441738407 5.273559367e-16)
(0 0 0)
(0 0 0)
(0 0 0)
(0 0 0)
(0 0 0)
(0 0 0)
(0 0 0)
(0 0 0)
(0 0 0)
(0 0 0)
(0 0 0)
(0 0 0)
(0 0 0)
(0 0 0)
(0 0 0)
(0 0 0)
(0 0 0)
(0 0 0)
(0 0 0)
(0 0 0)
(0 0 0)
(0 0 0)
(0 0 0)
(0 0 0)
(0 0 0)
(0 0 0)
(0 0 0)
(0 0 0)
(0 0 0)
(0 0 0)
(0 0 0)
(0 0 0)
(0 0 0)
(0 0 0)
(0 0 0)
(0 0 0)
(0 0 0)
(0 0 0)
(0 0 0)
(0 0 0)
(0 0 0)
(0 0 0)
(0 0 0)
(0 0 0)
(0 0 0)
(0 0 0)
(-7.194517755e-05 0.0004597726316 1.040834086e-15)
(-0.0003930080963 0.002678156004 6.009082121e-15)
(-9.309627667e-05 0.0006399708308 1.429412144e-15)
(-0.001328103399 0.01140572604 2.536859611e-14)
(-0.002123903455 0.01809654491 4.062028491e-14)
(-0.00270926406 0.02519416915 5.655198532e-14)
(-0.001825703169 0.01710682973 3.805289417e-14)
(-0.002837207948 0.03659416035 8.139322549e-14)
(-0.003752386762 0.04808987314 1.079275558e-13)
(-0.003773244966 0.05532170349 1.241506897e-13)
(-0.002914670905 0.0429848477 9.5617958e-14)
(-0.002276760624 0.05882079338 1.308397835e-13)
(-0.002827495001 0.0728257214 1.634525848e-13)
(-0.002232199318 0.07678814816 1.723482468e-13)
(-0.001814264432 0.06247373748 1.389721671e-13)
(-1.080200275e-05 0.06733625659 1.498107194e-13)
(5.982514439e-06 0.08201625717 1.841304886e-13)
(0.0007935847603 0.08144266522 1.828537322e-13)
(0.0006295677183 0.06680147632 1.486311074e-13)
(0.002242229112 0.05891433188 1.311173392e-13)
(0.002817120575 0.07292029712 1.637578961e-13)
(0.003277611031 0.06796830319 1.526417881e-13)
(0.002586805015 0.054382871 1.210281875e-13)
(0.002794080945 0.0367606342 8.182343691e-14)
(0.003712206144 0.04827481325 1.084271561e-13)
(0.003516164559 0.04068075051 9.137135493e-14)
(0.002577094204 0.03015172047 6.711298184e-14)
(0.001315265529 0.01154961385 2.570166302e-14)
(0.00210323268 0.01828273191 4.105049634e-14)
(0.001486970399 0.01193450252 2.679800826e-14)
(0.0008256571543 0.006692295294 1.489086632e-14)
(0 0 0)
(7.142340222e-05 0.0004648180216 1.040834086e-15)
(0 0 0)
(0 0 0)
(0 0 0)
(0 0 0)
(0 0 0)
(0 0 0)
(0 0 0)
(0 0 0)
(0 0 0)
(0 0 0)
(0 0 0)
(0 0 0)
(0 0 0)
(0 0 0)
(0 0 0)
(0 0 0)
(0 0 0)
(0 0 0)
(0 0 0)
(0 0 0)
(0 0 0)
(0 0 0)
(0 0 0)
(0 0 0)
(0 0 0)
(0 0 0)
(0 0 0)
(0 0 0)
(0 0 0)
(0 0 0)
(0 0 0)
(0 0 0)
(0 0 0)
(0 0 0)
(0 0 0)
(0 0 0)
(0 0 0)
(0 0 0)
(0 0 0)
(-3.095341193e-05 0.0001601279152 3.747002708e-16)
(0 0 0)
(-0.001317421861 0.008194988929 1.891542478e-14)
(-0.001958004163 0.01205065725 2.807476474e-14)
(-0.003063815421 0.02013888265 4.690692279e-14)
(-0.002249742058 0.01493519378 3.445854713e-14)
(-0.005139695004 0.04275506206 9.861556016e-14)
(-0.006236884792 0.0514508532 1.197791866e-13)
(-0.0069728477 0.06283592086 1.462718835e-13)
(-0.005866704926 0.05330236124 1.229433222e-13)
(-0.006671399733 0.08374150878 1.931094173e-13)
(-0.007604418438 0.09471036022 2.204347815e-13)
(-0.007264288696 0.1036250455 2.411820743e-13)
(-0.006436358363 0.09252353929 2.133571098e-13)
(-0.004423127722 0.1123124338 2.590427872e-13)
(-0.004882503551 0.1230977203 2.865624404e-13)
(-0.003756202161 0.1270694847 2.958328027e-13)
(-0.003420809348 0.1164956439 2.687156053e-13)
(6.976142745e-05 0.1218200472 2.81094592e-13)
(8.504167643e-05 0.1320170278 3.074762667e-13)
(0.001404238882 0.1314786305 3.062688991e-13)
(0.001274762861 0.1212388823 2.7979008e-13)
(0.004520522479 0.1123697935 2.594174875e-13)
(0.005010526846 0.1231284596 2.869371407e-13)
(0.005974961921 0.1179225517 2.748357097e-13)
(0.00535930744 0.1069830778 2.470107452e-13)
(0.006678376192 0.08391926932 1.938033067e-13)
(0.007632786822 0.09480425428 2.210176486e-13)
(0.007675614878 0.08490233655 1.979388875e-13)
(0.006642195059 0.07432152074 1.716404796e-13)
(0.005083343088 0.04271610658 9.864331574e-14)
(0.006333677976 0.05247565776 1.223604551e-13)
(0.005461952494 0.04177668186 9.742207041e-14)
(0.004330079519 0.03353057803 7.743805597e-14)
(0.001501999536 0.009460896807 2.184363801e-14)
(0.002244553512 0.01399516466 3.262667914e-14)
(0.001266770657 0.007438989574 1.734723476e-14)
(0.0007239537022 0.004293879827 9.908740495e-15)
(0 0 0)
(0 0 0)
(0 0 0)
(0 0 0)
(0 0 0)
(0 0 0)
(0 0 0)
(0 0 0)
(0 0 0)
(0 0 0)
(0 0 0)
(0 0 0)
(0 0 0)
(0 0 0)
(0 0 0)
(0 0 0)
(0 0 0)
(0 0 0)
(0 0 0)
(0 0 0)
(0 0 0)
(0 0 0)
(0 0 0)
(0 0 0)
(0 0 0)
(0 0 0)
(0 0 0)
(0 0 0)
(0 0 0)
(0 0 0)
(0 0 0)
(0 0 0)
(0 0 0)
(0 0 0)
(0 0 0)
(-0.0001430642694 0.0006832525953 1.637578961e-15)
(-0.0003253494207 0.001538601434 3.73312492e-15)
(-0.001155603302 0.005750722434 1.393329896e-14)
(-0.0007769061188 0.00390410213 9.36750677e-15)
(-0.004566430678 0.02724620681 6.5336625e-14)
(-0.005402168851 0.03192411844 7.72854003e-14)
(-0.006964382471 0.04391086759 1.062899768e-13)
(-0.006037916197 0.03843743003 9.214851104e-14)
(-0.009536536403 0.07605680997 1.822153539e-13)
(-0.01053158284 0.08310146223 2.010613898e-13)
(-0.01110254015 0.09562925799 2.313427228e-13)
(-0.01014904647 0.08843120972 2.118166753e-13)
(-0.01004091654 0.121265157 2.903371987e-13)
(-0.01066035808 0.1270329553 3.07129322e-13)
(-0.009846161254 0.1344688177 3.251010572e-13)
(-0.009307184813 0.1287434431 3.082534228e-13)
(-0.005877420463 0.1437913408 3.443634267e-13)
(-0.006072232212 0.1463465186 3.538974669e-13)
(-0.004571588762 0.1477217309 3.572697693e-13)
(-0.00445519344 0.1460970539 3.499284196e-13)
(7.816231296e-05 0.1483474079 3.554934125e-13)
(5.705930315e-05 0.1484362862 3.59184904e-13)
(0.001607226413 0.1483892658 3.591293929e-13)
(0.001608743478 0.1481189852 3.550076899e-13)
(0.006061251076 0.1439023129 3.450989494e-13)
(0.006228621489 0.1463434816 3.543831895e-13)
(0.007634731471 0.1439012011 3.485545186e-13)
(0.00737837707 0.1404854241 3.369665658e-13)
(0.01014082147 0.1212443025 2.90975577e-13)
(0.01078356545 0.1271378679 3.081979116e-13)
(0.01131481215 0.1187037701 2.878391969e-13)
(0.01053206085 0.1118273797 2.684519274e-13)
(0.009746054058 0.07804181139 1.874056466e-13)
(0.01073980268 0.0851128098 2.063904603e-13)
(0.009841701206 0.07214278671 1.749295153e-13)
(0.008828148467 0.06538777681 1.569855357e-13)
(0.004812680715 0.02909850722 6.983302825e-14)
(0.005672388627 0.03394451578 8.226752612e-14)
(0.004090339872 0.02306230881 5.58858515e-14)
(0.003351461292 0.01909173785 4.581057755e-14)
(0.0002213126959 0.001073172151 2.581268532e-15)
(0.000380195541 0.001824807374 4.413136523e-15)
(9.651904669e-06 4.412046017e-05 1.110223025e-16)
(0 0 0)
(0 0 0)
(0 0 0)
(0 0 0)
(0 0 0)
(0 0 0)
(0 0 0)
(0 0 0)
(0 0 0)
(0 0 0)
(0 0 0)
(0 0 0)
(0 0 0)
(0 0 0)
(0 0 0)
(0 0 0)
(0 0 0)
(0 0 0)
(0 0 0)
(0 0 0)
(0 0 0)
(0 0 0)
(0 0 0)
(0 0 0)
(0 0 0)
(0 0 0)
(0 0 0)
(0 0 0)
(0 0 0)
(-1.361694174e-05 5.569022987e-05 1.387778781e-16)
(-3.715688167e-07 1.535615925e-06 0)
(0 0 0)
(-0.001021418821 0.004687099057 1.169897512e-14)
(-0.001289198438 0.005855767247 1.476596623e-14)
(-0.002674683837 0.01278521352 3.222422329e-14)
(-0.002281952659 0.0110198477 2.750577544e-14)
(-0.007411992169 0.04250293301 1.059985433e-13)
(-0.008067449346 0.04578581877 1.153382945e-13)
(-0.009800274672 0.05932993957 1.494221413e-13)
(-0.009285908641 0.05681243986 1.416367024e-13)
(-0.01284211247 0.09822942746 2.447902991e-13)
(-0.0133698013 0.1011528476 2.546296507e-13)
(-0.01372482426 0.113228008 2.850081282e-13)
(-0.01324857508 0.1105227374 2.75404699e-13)
(-0.0119616438 0.1368721848 3.410605132e-13)
(-0.01220597506 0.1379252217 3.472083732e-13)
(-0.01098431015 0.1414923575 3.562150575e-13)
(-0.01083761698 0.1415419589 3.526900993e-13)
(-0.006327646175 0.1441577267 0)
(-0.006414792539 0.1426554482 0)
(-0.005633656973 0.1426556994 0)
(-0.004809977282 0.1426892027 0)
(-0.004759924193 0.1434327452 0)
(-0.004740521648 0.1441587555 0)
(-1.770996347e-05 0.1441083768 0)
(-2.996649926e-05 0.1433863357 0)
(0.0007610675562 0.1433735411 0)
(0.0007690388524 0.1440955869 0)
(0.006342127075 0.1439412284 0)
(0.006353147013 0.1431992564 0)
(0.006369582303 0.1424457002 0)
(0.007156087446 0.1424096587 0)
(0.007931412347 0.1423881044 0)
(0.00792245098 0.1438778779 0)
(0.01202471713 0.1374434859 3.434336149e-13)
(0.01221548136 0.1383681468 3.492900413e-13)
(0.01315943264 0.1328006085 3.352734756e-13)
(0.01287094936 0.1311126885 3.276545701e-13)
(0.01304434884 0.1002721696 2.5061897e-13)
(0.01351619757 0.1028269627 2.596811655e-13)
(0.01283956407 0.09030149998 2.280398093e-13)
(0.01225577655 0.0871050034 2.177008573e-13)
(0.007921278146 0.04592545068 1.147554274e-13)
(0.008663319033 0.04970737823 1.254829574e-13)
(0.006828368445 0.03691566419 9.317546734e-14)
(0.006149955092 0.03359593778 8.391898287e-14)
(0.001370281427 0.0063771627 1.591782262e-14)
(0.001712775675 0.007888882789 1.990074772e-14)
(0.0006136765806 0.002692942394 6.786238238e-15)
(0.0004175423833 0.001851290402 4.62130334e-15)
(0 0 0)
(0 0 0)
(0 0 0)
(0 0 0)
(0 0 0)
(0 0 0)
(0 0 0)
(0 0 0)
(0 0 0)
(0 0 0)
(0 0 0)
(0 0 0)
(0 0 0)
(0 0 0)
(0 0 0)
(0 0 0)
(0 0 0)
(0 0 0)
(0 0 0)
(0 0 0)
(0 0 0)
(0 0 0)
(0 0 0)
(0 0 0)
(0 0 0)
(0 0 0)
(0 0 0)
(0 0 0)
(-0.0001226959469 0.0004808494092 1.276756478e-15)
(-6.992088965e-05 0.0002769969388 7.21644966e-16)
(-5.720138219e-05 0.0002290303798 5.967448757e-16)
(-0.001852368123 0.008151054441 2.120525977e-14)
(-0.001921072927 0.008362959642 2.198241589e-14)
(-0.00355707057 0.01629380755 4.282685317e-14)
(-0.003463205855 0.01603612247 4.170275236e-14)
(-0.009318103206 0.05119562589 1.330463517e-13)
(-0.009465986171 0.05143820343 1.351002643e-13)
(-0.01127140884 0.06530570856 1.714739462e-13)
(-0.0111142173 0.0651125079 1.691702334e-13)
(-0.01443358504 0.1055030838 2.740030425e-13)
(-0.01457873173 0.105345741 2.765010443e-13)
(-0.01477322755 0.1162977172 3.05228065e-13)
(-0.01464383441 0.1166387756 3.028965967e-13)
(-0.01257603919 0.1368093488 3.553407568e-13)
(-0.01263220973 0.1356903856 3.562150575e-13)
(-0.01119450259 0.1367994294 0)
(-0.01116757527 0.1382674292 3.59184904e-13)
(-0.006542044468 0.1382082027 0)
(-0.006558961789 0.1374632382 0)
(-0.005788487461 0.137454685 0)
(-0.005771657559 0.1381984771 0)
(0.006345935144 0.1380125447 0)
(0.006337858399 0.1372746596 0)
(0.007108003012 0.1372585978 0)
(0.007116872315 0.137995377 0)
(0.01245426609 0.1371980043 3.57422425e-13)
(0.01246092755 0.1360720931 3.582967256e-13)
(0.01371262909 0.1332824818 3.509970092e-13)
(0.01365681558 0.1339439322 3.490124856e-13)
(0.01483322068 0.1095539984 2.855077286e-13)
(0.01501169517 0.1098064321 2.892408535e-13)
(0.01449872831 0.09799392888 2.581129754e-13)
(0.01429311686 0.09755955087 2.542410726e-13)
(0.01017072913 0.05658179422 1.473682287e-13)
(0.01040051634 0.05726869775 1.507682867e-13)
(0.008447275376 0.04380922649 1.153105389e-13)
(0.00822989 0.04312817693 1.123129367e-13)
(0.002485075195 0.01109064068 2.886579864e-14)
(0.002806249845 0.01239049225 3.258504577e-14)
(0.001338468384 0.005630415463 1.480759959e-14)
(0.001101849822 0.0046850294 1.219857548e-14)
(0 0 0)
(0 0 0)
(0 0 0)
(0 0 0)
(0 0 0)
(0 0 0)
(0 0 0)
(0 0 0)
(0 0 0)
(0 0 0)
(0 0 0)
(0 0 0)
(0 0 0)
(0 0 0)
(0 0 0)
(0 0 0)
(0 0 0)
(0 0 0)
(0 0 0)
(0 0 0)
(0 0 0)
(0 0 0)
(0 0 0)
(0 0 0)
(0 0 0)
(0 0 0)
(0 0 0)
(0 0 0)
(-0.0002014122661 0.00075525485 2.095545959e-15)
(-0.0001819156831 0.0006898358272 1.887379142e-15)
(-0.0001595918144 0.0006119327842 1.665334537e-15)
(-0.002282515426 0.009615997376 2.611799665e-14)
(-0.002360183887 0.009833595866 2.700617507e-14)
(-0.004115899419 0.01804248655 4.952982469e-14)
(-0.004018784322 0.01781392228 4.83779683e-14)
(-0.01005433567 0.05283809443 1.433575481e-13)
(-0.01017484951 0.05286658487 1.450228826e-13)
(-0.01196342078 0.06624434952 1.81687998e-13)
(-0.01184576451 0.06635142674 1.799810301e-13)
(-0.01499581739 0.1046020425 2.836203494e-13)
(-0.01508316345 0.1039592453 2.850081282e-13)
(-0.01518860728 0.1139563485 3.124167591e-13)
(-0.01511555896 0.1147958664 3.11251025e-13)
(-0.01275157465 0.1318493527 3.575889584e-13)
(-0.01278186366 0.1304778967 3.57811003e-13)
(-0.01128939577 0.1309527869 0)
(-0.01126664635 0.1324108252 0)
(-0.006648694005 0.1323339601 0)
(-0.006660516584 0.1316044415 0)
(-0.005892038784 0.1315917577 0)
(-0.005880114829 0.1323212746 0)
(0.006263921038 0.132125932 0)
(0.006251688003 0.1313921275 0)
(0.007020018068 0.1313787025 0)
(0.00703237999 0.132112133 0)
(0.01241639106 0.131997584 3.591293929e-13)
(0.01239136521 0.1305491693 3.591710263e-13)
(0.01377170308 0.1290257024 3.550493233e-13)
(0.01377669957 0.1302731605 3.545080896e-13)
(0.01546803159 0.1098585029 2.990246939e-13)
(0.01554384277 0.1093060543 3.008565619e-13)
(0.0151847658 0.09858804613 2.71352385e-13)
(0.01508087409 0.09890980536 2.692013279e-13)
(0.01122483702 0.05989509893 1.629391067e-13)
(0.01138810185 0.06012419234 1.653954751e-13)
(0.009452784156 0.04698615173 1.292299601e-13)
(0.009283189828 0.04664101802 1.268568584e-13)
(0.003218012678 0.01375863297 3.738676035e-14)
(0.003348878657 0.01416187964 3.891331701e-14)
(0.001727023589 0.006957053809 1.910971381e-14)
(0.001628118532 0.00663127824 1.801336857e-14)
(0 0 0)
(0 0 0)
(0 0 0)
(0 0 0)
(0 0 0)
(0 0 0)
(0 0 0)
(0 0 0)
(0 0 0)
(0 0 0)
(0 0 0)
(0 0 0)
(0 0 0)
(0 0 0)
(0 0 0)
(0 0 0)
(0 0 0)
(0 0 0)
(0 0 0)
(0 0 0)
(0 0 0)
(0 0 0)
(0 0 0)
(0 0 0)
(0 0 0)
(0 0 0)
(0 0 0)
(0 0 0)
(-0.0002971097982 0.001063957566 3.094746681e-15)
(-0.0002678645022 0.0009705163414 2.789435349e-15)
(-0.0002418258018 0.0008863860416 2.525757381e-15)
(-0.002553516426 0.01028375004 2.921274334e-14)
(-0.002631829313 0.01047706162 3.011479954e-14)
(-0.004452164297 0.01864392999 5.356826094e-14)
(-0.004355861727 0.01845409016 5.241640455e-14)
(-0.01047104262 0.05254154335 1.491029522e-13)
(-0.01058799935 0.05250055967 1.507127756e-13)
(-0.01236702127 0.06531989161 1.874750355e-13)
(-0.01225324245 0.06550080699 1.858374565e-13)
(-0.01530235286 0.1016783565 2.883526751e-13)
(-0.01538592557 0.1009669762 2.896571871e-13)
(-0.01544359785 0.1102397108 3.162609064e-13)
(-0.01537406993 0.1111399354 3.151923167e-13)
(-0.01286463885 0.1262939866 3.582828478e-13)
(-0.01289212258 0.1248986159 3.584355035e-13)
(-0.01137795584 0.1251328627 0)
(-0.01135604875 0.1265870618 0)
(-0.006741101643 0.1265103827 0)
(-0.006752436945 0.1257836953 0)
(-0.005985003854 0.1257711981 0)
(-0.005979268047 0.1261345745 0)
(-0.00597353738 0.1264976467 0)
(0.006157717175 0.1262620591 0)
(0.006143300674 0.1255310633 0)
(0.006910772698 0.1255188696 0)
(0.006925286577 0.1262496272 0)
(0.01230527923 0.1261512025 3.591571485e-13)
(0.01227345906 0.124670948 3.590877595e-13)
(0.01362722887 0.1229583018 3.54216656e-13)
(0.01367417507 0.1245615879 3.546885008e-13)
(0.01541941923 0.1052001888 2.996214388e-13)
(0.01534267169 0.1036075227 2.985389713e-13)
(0.01497361265 0.09328442154 2.687711165e-13)
(0.01505465919 0.09477710904 2.699229729e-13)
(0.01125397524 0.05752676092 1.637578961e-13)
(0.01117625971 0.05650555249 1.62717062e-13)
(0.009251210937 0.04401287679 1.267042027e-13)
(0.009323040861 0.04485026956 1.276340145e-13)
(0.003258383757 0.01332536268 3.788636072e-14)
(0.003215810292 0.0130024483 3.740063814e-14)
(0.001629087111 0.006273280528 1.804112415e-14)
(0.001659168632 0.006462583419 1.837419106e-14)
(0 0 0)
(0 0 0)
(0 0 0)
(0 0 0)
(0 0 0)
(0 0 0)
(0 0 0)
(0 0 0)
(0 0 0)
(0 0 0)
(0 0 0)
(0 0 0)
(0 0 0)
(0 0 0)
(0 0 0)
(0 0 0)
(0 0 0)
(0 0 0)
(0 0 0)
(0 0 0)
(0 0 0)
(0 0 0)
(0 0 0)
(0 0 0)
(0 0 0)
(0 0 0)
(0 0 0)
(0 0 0)
(-0.0004254837771 0.001451979777 4.427014311e-15)
(-0.0003907086071 0.001349766541 4.066191828e-15)
(-0.0003570738354 0.001248611475 3.719247132e-15)
(-0.002876697641 0.01105102014 3.290423489e-14)
(-0.002962970777 0.01124470213 3.388955783e-14)
(-0.004855033341 0.01937797557 5.83977311e-14)
(-0.004750743369 0.0191950155 5.714873019e-14)
(-0.01094594004 0.05232670627 1.556393903e-13)
(-0.01106937586 0.05225974536 1.573324804e-13)
(-0.01283353164 0.06450716928 1.941641292e-13)
(-0.01271420441 0.06471883829 1.924571613e-13)
(-0.01563852426 0.0987697885 2.935846011e-13)
(-0.01572431026 0.09802251773 2.949029909e-13)
(-0.01572311683 0.1065436706 3.205491428e-13)
(-0.01565260577 0.1074787982 3.194666753e-13)
(-0.01297105866 0.120673728 3.588379593e-13)
(-0.01299614026 0.1192537917 3.589351039e-13)
(-0.01146408685 0.1193126608 0)
(-0.01144280754 0.1207677156 0)
(-0.006830695566 0.1206912873 0)
(-0.00684160299 0.1199639165 0)
(-0.006075488373 0.1199514078 0)
(-0.00606995018 0.1203150918 0)
(-0.006064379337 0.1206787076 0)
(0.006036815899 0.1204225693 0)
(0.006020321404 0.1196926226 0)
(0.006787063131 0.1196812188 0)
(0.006803723161 0.1204109599 0)
(0.01215123259 0.1200163493 3.582412145e-13)
(0.01209477421 0.1183229663 3.575334473e-13)
(0.01330498813 0.1154569097 3.489153411e-13)
(0.01341248894 0.117551081 3.509414981e-13)
(0.01480803802 0.09689058534 2.893102424e-13)
(0.0145001393 0.09385502339 2.836758606e-13)
(0.01408542118 0.08403713072 2.539912725e-13)
(0.01433861964 0.08649547848 2.582517533e-13)
(0.01035624148 0.05062040548 1.510458425e-13)
(0.01009545128 0.04877911574 1.473265954e-13)
(0.00818563799 0.03719800987 1.123268145e-13)
(0.008428954155 0.03875319158 1.156019724e-13)
(0.002628504325 0.01026292206 3.058664433e-14)
(0.002487406233 0.009596932985 2.894906537e-14)
(0.001105869759 0.004062675578 1.225408663e-14)
(0.00120051182 0.004463513852 1.329492072e-14)
(0 0 0)
(0 0 0)
(0 0 0)
(0 0 0)
(0 0 0)
(0 0 0)
(0 0 0)
(0 0 0)
(0 0 0)
(0 0 0)
(0 0 0)
(0 0 0)
(0 0 0)
(0 0 0)
(0 0 0)
(0 0 0)
(0 0 0)
(0 0 0)
(0 0 0)
(0 0 0)
(0 0 0)
(0 0 0)
(0 0 0)
(0 0 0)
(0 0 0)
(0 0 0)
(0 0 0)
(0 0 0)
(-0.000537757785 0.001744442925 5.606626274e-15)
(-0.0005561299019 0.001827482428 5.800915304e-15)
(-0.0005076665576 0.001689641114 5.287437155e-15)
(-0.003244998346 0.01186218651 3.71092046e-14)
(-0.003355278396 0.01210902466 3.837208329e-14)
(-0.005323783868 0.02020210587 6.399047958e-14)
(-0.005192876187 0.01996089365 6.243616735e-14)
(-0.0114631597 0.05207697576 1.627309398e-13)
(-0.01161304714 0.05206755293 1.647848524e-13)
(-0.01335626032 0.06372455045 2.016165013e-13)
(-0.01321271153 0.06388352036 1.995625887e-13)
(-0.01599259255 0.09577004931 2.990663273e-13)
(-0.01609164923 0.09504787016 3.006067617e-13)
(-0.01602119811 0.1027992624 3.25114935e-13)
(-0.01594165333 0.1037209717 3.238936896e-13)
(-0.01306762869 0.1149603573 3.591432707e-13)
(-0.01309028578 0.1135166671 3.591710263e-13)
(-0.01154805982 0.1134941464 0)
(-0.01152709035 0.1149488683 0)
(-0.00691574646 0.1148729938 0)
(-0.006926010686 0.1141456798 0)
(-0.006161346287 0.1141333647 0)
(-0.006156144304 0.1144971557 0)
(-0.006150913098 0.1148606758 0)
(0.005899489709 0.1145972497 0)
(0.005880906844 0.1138697383 0)
(0.006647388512 0.1138589473 0)
(0.006666207924 0.1145864547 0)
(0.01187195693 0.1128041613 3.538280779e-13)
(0.01176896146 0.1107203809 3.517602876e-13)
(0.01276924857 0.106353753 3.379380109e-13)
(0.01293407954 0.1088613849 3.415184802e-13)
(0.01363106658 0.08532394616 2.67688649e-13)
(0.01340124976 0.08293091792 2.635253127e-13)
(0.01269958562 0.0723640429 2.299271884e-13)
(0.01310216777 0.07554247559 2.369771046e-13)
(0.008920609829 0.04159080424 1.303956942e-13)
(0.008361220613 0.0385060021 1.222633106e-13)
(0.006480773263 0.02805963008 8.906764215e-14)
(0.007041782284 0.03086819001 9.674205881e-14)
(0.001764735203 0.006563375144 2.055300374e-14)
(0.001541198831 0.005660507697 1.795785742e-14)
(0.0005005265005 0.001750261165 5.551115123e-15)
(0.0006300000398 0.002230868493 6.994405055e-15)
(0 0 0)
(0 0 0)
(0 0 0)
(0 0 0)
(0 0 0)
(0 0 0)
(0 0 0)
(0 0 0)
(0 0 0)
(0 0 0)
(0 0 0)
(0 0 0)
(0 0 0)
(0 0 0)
(0 0 0)
(0 0 0)
(0 0 0)
(0 0 0)
(0 0 0)
(0 0 0)
(0 0 0)
(0 0 0)
(0 0 0)
(0 0 0)
(0 0 0)
(0 0 0)
(0 0 0)
(0 0 0)
(-0.000956052202 0.002939487476 9.964251646e-15)
(-0.0008716278331 0.002716980834 9.076073226e-15)
(-0.0007459740023 0.002356858098 7.771561172e-15)
(-0.003709677526 0.01286913208 4.241051954e-14)
(-0.003985570985 0.01363969675 4.554689959e-14)
(-0.00604309018 0.02173950778 7.258083023e-14)
(-0.005705926391 0.02080909711 6.855627177e-14)
(-0.01211954896 0.05217467287 1.717098685e-13)
(-0.01234279409 0.05239920675 1.747768597e-13)
(-0.0140214541 0.06331148804 2.111089081e-13)
(-0.01383830287 0.06337054639 2.08499884e-13)
(-0.01641604032 0.09294090432 3.056721543e-13)
(-0.01646950193 0.09190276948 3.063382881e-13)
(-0.0163685123 0.0991541164 3.305133944e-13)
(-0.01627804218 0.100065971 3.291117379e-13)
(-0.01315645844 0.1091563712 0)
(-0.01317941937 0.1077018181 0)
(-0.011634892 0.1076764577 0)
(-0.01162355098 0.1084034831 0)
(-0.01161241158 0.1091305795 0)
(-0.006996232526 0.1090547923 0)
(-0.007001255267 0.1086916067 0)
(-0.006618819405 0.1086855825 0)
(-0.00661383217 0.1090486674 0)
(-0.0003627391365 0.1088564167 0)
(-0.0003700149572 0.1086753607 0)
(-0.0003760734715 0.1084942504 0)
(-1.573420188e-06 0.10849218 0)
(1.233419569e-05 0.1088540662 0)
(0.005734010363 0.1087861634 0)
(0.005709869363 0.1080617881 0)
(0.005685427659 0.1073376206 0)
(0.007222910608 0.1073154552 0)
(0.007269849479 0.1087647356 0)
(0.006502216014 0.108775377 0)
(0.01138058884 0.1038390707 3.431144258e-13)
(0.01118695759 0.1009974867 3.382294445e-13)
(0.01190660467 0.09494228076 3.179956298e-13)
(0.01221984778 0.09853200498 3.256145353e-13)
(0.01226512292 0.07323298482 2.420008638e-13)
(0.01182435026 0.06973581769 2.335631688e-13)
(0.01095584575 0.05944879095 1.990629883e-13)
(0.01141728305 0.06273356018 2.072786387e-13)
(0.006929483978 0.03072699416 1.014605067e-13)
(0.006512298641 0.0285050023 9.53820356e-14)
(0.004761556159 0.01958704414 6.553091403e-14)
(0.005128812174 0.02137503838 7.055467321e-14)
(0.0007287430077 0.002575067112 8.493206138e-15)
(0.0005923951938 0.002065832445 6.911138328e-15)
(4.696590274e-05 0.0001559320307 5.273559367e-16)
(8.973146628e-05 0.000301880002 9.992007222e-16)
(0 0 0)
(0 0 0)
(0 0 0)
(0 0 0)
(0 0 0)
(0 0 0)
(0 0 0)
(0 0 0)
(0 0 0)
(0 0 0)
(0 0 0)
(0 0 0)
(0 0 0)
(0 0 0)
(0 0 0)
(0 0 0)
(0 0 0)
(0 0 0)
(0 0 0)
(0 0 0)
(0 0 0)
(0 0 0)
(0 0 0)
(0 0 0)
(0 0 0)
(0 0 0)
(0 0 0)
(0 0 0)
(-0.0009066457727 0.00264643864 9.492406861e-15)
(-0.001024583774 0.003034100312 1.071365219e-14)
(-0.001094829668 0.003288541039 1.146305273e-14)
(-0.004413684581 0.01455745947 5.068168107e-14)
(-0.004271804286 0.01388989393 4.904410211e-14)
(-0.006369691384 0.02177102363 7.685518888e-14)
(-0.00653962239 0.02267413361 7.890910148e-14)
(-0.01289329015 0.05275515702 1.833949659e-13)
(-0.012684976 0.05115267669 1.803834859e-13)
(-0.01433761624 0.06148739986 2.167571678e-13)
(-0.01454111837 0.0632818241 2.199351812e-13)
(-0.01677790702 0.09026413613 3.136102489e-13)
(-0.01664135521 0.08818588508 3.107653024e-13)
(-0.01641072219 0.09442267082 3.327615961e-13)
(-0.01650982422 0.09645859917 3.351346978e-13)
(-0.01307765509 0.1033210103 0)
(-0.01310224206 0.101866248 0)
(-0.01155340182 0.101840071 0)
(-0.01154111119 0.1025672832 0)
(-0.01152881485 0.1032948333 0)
(-0.006882361723 0.1032163035 0)
(-0.006894658062 0.1024887534 0)
(-0.006120271735 0.1024756655 0)
(-0.00611412071 0.1028396095 0)
(-0.006107975396 0.1032032156 0)
(-0.00649516856 0.1032097595 0)
(-0.0006871032565 0.1031115973 0)
(-0.0006932479228 0.1027479912 0)
(-0.000699398624 0.1023840472 0)
(7.501149727e-05 0.1023709589 0)
(8.730783597e-05 0.103098509 0)
(0.005508157432 0.1030068911 0)
(0.005483570466 0.1015521288 0)
(0.007007338067 0.1011381401 3.57811003e-13)
(0.007051775392 0.1028993719 3.589073483e-13)
(0.01061844462 0.09281982481 3.239630786e-13)
(0.01035835597 0.08956591755 3.170519403e-13)
(0.01084569389 0.08263534143 2.92543767e-13)
(0.01115998613 0.0860238224 3.00259817e-13)
(0.01029467978 0.05843657978 2.039479696e-13)
(0.009878936819 0.05535147133 1.959266083e-13)
(0.008794480383 0.04527628571 1.60232938e-13)
(0.009397061993 0.04904156936 1.711408792e-13)
(0.004914215273 0.0206620913 7.20534743e-14)
(0.004282218363 0.01775682671 6.279698983e-14)
(0.002908256611 0.01133071353 4.005129561e-14)
(0.003314179387 0.01309257582 4.56440441e-14)
(0.0001219579286 0.0004083618558 1.415534356e-15)
(5.508683987e-05 0.000181908219 6.383782392e-16)
(0 0 0)
(0 0 0)
(0 0 0)
(0 0 0)
(0 0 0)
(0 0 0)
(0 0 0)
(0 0 0)
(0 0 0)
(0 0 0)
(0 0 0)
(0 0 0)
(0 0 0)
(0 0 0)
(0 0 0)
(0 0 0)
(0 0 0)
(0 0 0)
(0 0 0)
(0 0 0)
(0 0 0)
(0 0 0)
(0 0 0)
(0 0 0)
(0 0 0)
(0 0 0)
(0 0 0)
(0 0 0)
(0 0 0)
(0 0 0)
(-0.0002117839908 0.0005823632175 2.220446049e-15)
(-0.0003842736831 0.001072913799 4.024558464e-15)
(-0.0005708939404 0.001618099884 5.967448757e-15)
(-0.003273622028 0.01018806536 3.759492717e-14)
(-0.002797108111 0.008575878869 3.214095656e-14)
(-0.004554138366 0.01467725408 5.496991751e-14)
(-0.005151221519 0.01685116509 6.215861159e-14)
(-0.01111588953 0.04288698232 1.580402476e-13)
(-0.01030652795 0.03917643035 1.465771948e-13)
(-0.01195069793 0.04829819191 1.806610417e-13)
(-0.01277222284 0.052394043 1.930261506e-13)
(-0.01545370638 0.07824794639 2.881445083e-13)
(-0.0147744409 0.07368473396 2.75474088e-13)
(-0.0148753289 0.08049287094 3.009259508e-13)
(-0.01545570596 0.08492202762 3.127220705e-13)
(-0.01302787411 0.09644566649 3.552991235e-13)
(-0.01282741553 0.09343413467 3.49442697e-13)
(-0.01154828487 0.0952049505 3.561456685e-13)
(-0.01161993318 0.09741700064 3.589767372e-13)
(-0.00698072101 0.0973965787 0)
(-0.007005313688 0.09594147854 0)
(-0.005456507241 0.09591530213 0)
(-0.005431914564 0.09737040229 0)
(-0.006206334683 0.09738349078 0)
(-0.0007854614328 0.09729187249 0)
(-0.0008100541102 0.09583677233 0)
(0.0007387624738 0.09581059575 0)
(0.0007633551512 0.09726569591 0)
(0.005366434759 0.09632144285 3.559791351e-13)
(0.005267836843 0.0934047697 3.504418977e-13)
(0.006587537064 0.09052121049 3.3970049e-13)
(0.006755636072 0.09409436249 3.478328736e-13)
(0.00949444459 0.07874596858 2.912392549e-13)
(0.009084322711 0.07421903631 2.786521014e-13)
(0.009255259792 0.06654805749 2.498556917e-13)
(0.009734771959 0.07107019267 2.628591789e-13)
(0.008170859145 0.04384272822 1.621064394e-13)
(0.007589998962 0.04010336397 1.505184866e-13)
(0.006431022036 0.0312239424 1.171701625e-13)
(0.0069996611 0.03451205412 1.275923811e-13)
(0.00273963303 0.01087847899 4.019007349e-14)
(0.00235366906 0.009204268641 3.452793607e-14)
(0.001203716684 0.004423286767 1.658395643e-14)
(0.00163525429 0.006101744543 2.25375274e-14)
(0 0 0)
(0 0 0)
(0 0 0)
(0 0 0)
(0 0 0)
(0 0 0)
(0 0 0)
(0 0 0)
(0 0 0)
(0 0 0)
(0 0 0)
(0 0 0)
(0 0 0)
(0 0 0)
(0 0 0)
(0 0 0)
(0 0 0)
(0 0 0)
(0 0 0)
(0 0 0)
(0 0 0)
(0 0 0)
(0 0 0)
(0 0 0)
(0 0 0)
(0 0 0)
(0 0 0)
(0 0 0)
(0 0 0)
(0 0 0)
(0 0 0)
(0 0 0)
(0 0 0)
(0 0 0)
(-5.202168678e-06 1.386468802e-05 5.551115123e-17)
(-0.001244755749 0.003644548992 1.430799923e-14)