/*--------------------------------*- C++ -*----------------------------------*\
| =========                 |                                                 |
| \\      /  F ield         | OpenFOAM: The Open Source CFD Toolbox           |
|  \\    /   O peration     | Version:  v1912                                 |
|   \\  /    A nd           | Website:  www.openfoam.com                      |
|    \\/     M anipulation  |                                                 |
\*---------------------------------------------------------------------------*/
FoamFile
{
    version     2.0;
    format      ascii;
    class       volScalarField;
    location    "0.38";
    object      k;
}
// * * * * * * * * * * * * * * * * * * * * * * * * * * * * * * * * * * * * * //

dimensions      [0 2 -2 0 0 0 0];


internalField   nonuniform List<scalar> 
12556
(
36.90869413
36.90873871
36.90880068
36.90885402
36.95438956
36.95470452
36.95524481
36.95653707
36.95912616
36.9637333
36.97068359
36.97883881
36.98506372
36.98616469
36.98173481
36.97434671
36.96713016
36.96143064
36.95811733
36.95600102
36.90993453
36.90911004
36.90869845
36.90842718
36.72745965
36.72765213
36.72782664
36.72813982
36.773609
36.7752034
36.77851482
36.80602084
36.81809251
36.83964997
36.87241023
36.91143602
36.94309303
36.95075906
36.93269624
36.89824366
36.86285746
36.83496706
36.79504549
36.78304164
36.73210427
36.72941367
36.72803529
36.72730276
36.54735957
36.54781412
36.54829185
36.54895546
36.5950218
36.59907922
36.60707482
36.64256599
36.67225149
36.72414876
36.80073109
36.88826051
36.9471029
36.96063604
36.9268808
36.85561433
36.77481852
36.71193272
36.64489419
36.61819234
36.55936794
36.55324142
36.55026931
36.54901309
36.36866501
36.36909835
36.3697931
36.37135845
36.41830411
36.42684194
36.44373848
36.49549797
36.55787772
36.66861524
36.81267408
36.94392089
37.02824179
37.04213734
36.98854866
36.88498165
36.75555657
36.63004431
36.51956299
36.4679426
36.39346195
36.38183628
36.37609027
36.37378619
36.19186555
36.1923801
36.19359561
36.19672537
36.24569933
36.26064785
36.29237326
36.36959654
36.49481121
36.69089545
36.91382799
37.12749975
37.25829683
37.26763293
37.16180759
36.99416954
36.80462201
36.61907105
36.43318194
36.33780339
36.23643866
36.21521257
36.20495779
36.20089013
36.01662522
36.01728045
36.01925511
36.02460733
36.07769734
36.10307072
36.15937437
36.27597929
36.48884792
36.77961919
37.15042522
37.57045045
37.8402891
37.81263237
37.53072771
37.22719007
36.9329104
36.6637504
36.39615399
36.23272226
36.09110942
36.05301829
36.03602744
36.02924544
35.84357655
35.84466617
35.84809215
35.85675774
35.91464227
35.95407752
36.0436986
36.21827018
36.52330038
36.95011896
37.57997068
38.61325928
39.42621004
39.18301884
38.24390137
37.63030221
37.15470133
36.7652546
36.40566259
36.15818487
35.95612892
35.89556563
35.86871938
35.85808104
35.6731184
35.67480444
35.68005274
35.69278491
35.75818059
35.81526931
35.94642521
36.18720988
36.5841908
37.17395854
38.16622631
40.37904424
41.65768992
39.44246941
38.22628032
37.47300265
36.92165729
36.44414257
36.11132759
35.83329557
35.74327725
35.70335391
35.68770416
35.50660707
35.5093585
35.51743582
35.53582349
35.61009738
35.68768653
35.8654338
36.17059746
36.65843085
37.39696034
38.66325512
41.89075412
45.68002162
40.95740811
38.96254143
37.86423179
37.1199952
36.50385561
36.086636
35.72289139
35.59792655
35.54183856
35.52009906
35.34470286
35.34859795
35.35963474
35.38480301
35.47022647
35.5707061
35.79649582
36.16000679
36.73302795
37.5883641
39.0113981
42.35069499
48.62286778
42.35787426
39.71539663
38.28288837
37.33963659
36.57772347
36.07695901
35.62565266
35.46188322
35.38740459
35.35856508
35.18890271
35.19445978
35.20958974
35.24405555
35.33742872
35.46345431
35.73627975
36.15339855
36.80696867
37.7616532
39.32356369
42.22503636
50.10248507
43.41533082
40.38298478
38.67924974
37.55643372
36.65455497
36.07716095
35.5403982
35.33770068
35.24350313
35.20679894
35.03905824
35.04609058
35.06488977
35.10835116
35.21150664
35.36432099
35.68171818
36.15091619
36.88279522
37.936907
39.63484172
41.84920634
50.71166531
44.12638197
40.91239785
39.01860699
37.74905298
36.7246804
36.07911073
35.4672598
35.22558721
35.11219143
35.06730761
34.89607641
34.90511028
34.92929735
34.98332362
35.09202702
35.27096407
35.62902303
36.15202549
36.96294245
38.12660543
39.98035459
41.33210981
48.60308434
50.45754992
44.56333546
41.29118943
39.28437799
37.90272293
36.78036578
36.07568847
35.40145678
35.12538723
34.99345833
34.94077359
34.75874617
34.76971146
34.79893553
34.86153168
34.98410118
35.19667457
35.60263676
36.17085502
37.07053019
38.36995002
40.389652
40.19669947
55.6076159
50.36558027
44.78007197
41.54082502
39.4670555
38.00772342
36.81864321
36.06337439
35.33694791
35.03377805
34.88517707
34.825383
34.62684312
34.63966053
34.67363026
34.74430715
34.87677281
35.11416659
35.55274993
36.16127989
37.13126536
38.54282218
40.66901719
36.08675462
54.83108708
49.85060181
44.7658465
41.64799635
39.56756927
38.06484902
36.83382053
36.03666345
35.2720763
34.94714708
34.78410407
34.71831481
34.49819099
34.51279378
34.55111363
34.62963446
34.77216858
35.03075446
35.49741907
36.13339704
37.14867575
38.64228719
40.67024298
30.70959944
52.86960363
49.06878275
44.62263077
41.65664355
39.58655627
38.0719605
36.81720482
35.99188256
35.20045864
34.85961458
34.68603565
34.61526592
34.37277162
34.38899891
34.43094977
34.516332
34.66804899
34.94418899
35.43410203
36.09059157
37.12227173
38.6300994
40.36576754
27.48743131
50.98563681
48.31754132
44.33333968
41.53975478
39.52140012
38.02783815
36.75970124
35.92799509
35.12217098
34.77067765
34.58807394
34.51318318
34.24771568
34.26541238
34.31050547
34.40226576
34.5627728
34.85297061
35.36086562
36.0360252
37.07004512
38.53435567
39.95506572
26.21377008
49.05838651
47.60127603
43.9672274
41.30619442
39.37118059
37.92615455
36.66966225
35.8415505
35.03145485
34.6736119
34.48652429
34.40846891
34.12420977
34.14315522
34.19064751
34.2874454
34.45514572
34.75643952
35.27767127
35.96526899
37.00956425
38.42391735
39.50491559
25.16663185
47.2177753
46.8199525
43.51674674
41.0161408
39.1815927
37.78808948
36.55652233
35.73827965
34.93098235
34.57031231
34.38039435
34.30048518
33.99884975
34.01887801
34.06847517
34.17004824
34.34463561
34.65467436
35.18555334
35.88067426
36.92789822
38.29326263
38.98940107
22.99019822
45.72360024
45.98317311
43.05756555
40.72174269
38.97420885
37.6284908
36.42659574
35.62141244
34.82078256
34.45935641
34.26782785
34.186618
33.87475225
33.89564181
33.94671168
34.05159618
34.23109676
34.54816228
35.08589674
35.78519156
36.82953327
38.12909932
38.41928178
21.22832956
44.36267403
45.19663547
42.62404677
40.43348804
38.76062987
37.45728537
36.28479871
35.49406548
34.70341381
34.34323933
34.15104719
34.06898531
33.74727685
33.76891926
33.82148721
33.93000788
34.1148468
34.43765962
34.98021832
35.68137903
36.71841219
37.93843583
37.8206937
20.0271401
43.10435578
44.45600922
42.21103543
40.15566858
38.54715854
37.28072459
36.13519668
35.35903479
34.57880873
34.22027097
34.02768831
33.94502192
33.62221043
33.64442262
33.69796023
33.80853932
33.9963022
34.32404261
34.86996109
35.57140231
36.59734126
37.72569655
37.21121691
19.17404315
41.93986361
43.7556387
41.81481486
39.88874733
38.33722601
37.10264927
35.98100614
35.21868423
34.45063087
34.09489946
33.90229207
33.81919558
33.49230249
33.5150677
33.56992223
33.68373928
33.87614267
34.20819632
34.75645372
35.45705797
36.46831106
37.49199948
36.59954528
18.54361329
40.85468393
43.09022941
41.43337916
39.63127298
38.13235914
36.92544076
35.82462959
35.07498945
34.31729182
33.96354359
33.77064074
33.68711926
33.36724681
33.39041786
33.44604397
33.56113798
33.75482634
34.09093551
34.64089735
35.33982611
36.33248281
37.23826968
35.99051286
18.01390737
39.83576719
42.4561149
41.06528597
39.38177647
37.93290245
36.75051266
35.66775933
34.92941655
34.18383162
33.83321305
33.64023033
33.55632072
33.23507594
33.25872523
33.31575003
33.43433305
33.63303486
33.97291729
34.52423782
35.22077842
36.19018197
36.97014491
35.3872763
17.56257056
38.87965643
41.8498839
40.70917395
39.13920648
37.73862377
36.57857367
35.51150359
34.78312341
34.04576734
33.69648443
33.50286601
33.41844498
33.11173996
33.13573213
33.1934824
33.31274392
33.51099056
33.85466747
34.40717898
35.10054176
36.04143362
36.69371947
34.79212319
17.18580992
37.98384745
41.26896525
40.36385371
38.90284496
37.54916115
36.40993224
35.35659156
34.6368491
33.91114957
33.56501704
33.37108891
33.28616659
32.97722302
33.00170553
33.0610589
33.18450558
33.3893471
33.73658436
34.29018492
34.97937492
35.8864308
36.41085214
34.20635851
16.8756424
37.14257765
40.71215131
40.02827678
38.6720987
37.36412406
36.24464914
35.20345946
34.4912626
33.77036859
33.42447492
33.22949913
33.14389199
32.857813
32.88263899
32.94274521
33.06623156
33.26799115
33.61897837
34.17356292
34.8573474
35.72570808
36.12284959
33.63074084
16.62437952
36.35153654
40.17941384
39.70159353
38.44647695
37.18316652
36.08268391
35.05238188
34.34662136
33.6378981
33.29531372
33.0998341
33.01358978
32.72004923
32.74543228
32.80737693
32.93602786
33.14770832
33.50211356
34.0575164
34.73443468
35.55993722
35.83100482
33.06569922
16.42614418
35.60686579
39.66840966
39.38303695
38.22551765
37.00595041
35.92391457
34.90350877
34.20341909
33.49446416
33.15077626
32.9539066
32.86679881
32.60748125
32.63324044
32.69602934
32.82404232
33.02796873
33.38619796
33.94219335
34.61060076
35.38989864
35.53656708
32.51141464
16.27511981
34.90491762
39.17612795
39.07197521
38.00881705
36.83216957
35.76819495
34.75692428
34.06156584
33.36776849
33.02776315
32.83024808
32.74240506
32.46428193
32.49070295
32.55552807
32.68965717
32.90997139
33.27145561
33.8277207
34.48583836
35.21623987
35.24031695
31.96803129
16.16542007
34.2428108
38.70024122
38.76794746
37.79605884
36.66156599
35.61536921
34.6126755
33.92164371
33.21936948
32.8769505
32.67783034
32.58895511
32.36271439
32.38954851
32.45539295
32.58861933
32.79258284
33.15810417
33.71421122
34.3601702
35.03958439
34.94279848
31.43561111
16.09219093
33.61835736
38.2403508
38.4705933
37.5869708
36.49389305
35.46523726
34.47084741
33.78323835
33.10406346
32.76543749
32.5655268
32.47589484
32.21003614
32.23766545
32.30568205
32.44492279
32.67809243
33.0466139
33.6019262
34.23366938
34.86047281
34.64455065
30.91439452
16.05097938
33.02998412
37.79591448
38.1797224
37.38136966
36.32897456
35.31771096
34.33180246
33.64763528
32.94430348
32.60316419
32.40157398
32.31073401
32.12515281
32.15324365
32.22247528
32.3627278
32.56492232
32.93789031
33.49179986
34.1064102
34.67920581
34.34615708
30.40511768
16.03681616
32.47723472
37.36723888
37.89527248
37.17912613
36.16666469
35.17264853
34.19671488
33.51484749
32.85071678
32.51095497
32.30845544
32.21692261
31.93164732
31.96090573
32.03314802
32.18001625
32.45906065
32.83431947
33.38717934
33.97887355
34.49684702
34.05059173
29.91079999
16.04516885
31.96249372
36.9583145
37.61944376
36.98102108
36.00726303
35.03013384
34.06917027
33.38991272
32.64564145
32.30360104
32.09890697
32.00576839
41.77227577
46.09834849
41.99699188
42.34375501
49.40574961
46.52130039
42.25887913
51.01968674
49.69066079
41.90747729
51.64575233
51.12801963
41.36746451
44.43716635
47.72722723
51.87961807
51.67848439
40.59174985
53.63364257
44.85114356
55.35908592
52.3040376
51.89052515
40.10732835
39.31910177
41.6126143
39.14627055
48.68242675
43.21326395
45.21851518
41.29939956
39.89463095
38.93130343
41.68512429
41.12990658
53.8908995
54.14740197
48.34667921
43.05955481
41.77178147
39.24614854
41.78515301
41.71830299
42.34601273
43.84735429
44.67640227
53.59072419
53.07971827
49.98400644
44.34871101
43.43387216
39.56547525
41.67067565
41.77805261
42.10334304
40.85041328
42.48769447
54.54474274
54.02787092
39.89831595
41.44193476
41.65069681
41.63927857
36.79648529
38.87592281
38.98116928
55.08907326
54.90000029
40.30766645
41.03688544
41.40303926
41.05678095
32.19531575
34.01220153
39.17510359
54.37141692
53.90987153
45.36862602
46.718655
42.33887266
45.06747707
53.97942972
48.96486387
44.27697228
48.23235992
52.75529472
44.77861277
45.42111508
42.27205829
45.94884252
44.86529809
46.71388735
46.07716891
53.12031799
53.77819618
48.1316042
54.33611434
54.05044529
52.9810707
54.35723746
47.90608046
42.64606226
43.71012241
42.33296741
43.47011851
41.95178862
44.79572932
43.56373316
53.92970006
53.64623553
50.57493573
54.48288876
54.64860267
54.0375435
54.4411772
50.39517647
38.9911918
40.74664326
42.05818248
39.96278707
37.82557132
41.84886117
40.08105023
54.87084597
54.59642351
34.13765003
36.64589153
41.60847872
39.11290572
35.05910083
32.75289411
37.70182154
35.23332408
39.35447589
55.34245526
55.11063549
39.08853035
40.20244717
32.1362509
41.01845055
50.92593166
32.16308418
69.10455466
32.68145849
32.15027123
50.33475587
38.55750921
41.0236715
39.84446497
41.1098407
44.29714231
42.00522283
56.24077007
45.00358834
42.20948134
45.50139881
45.79494829
42.83501502
50.67856725
45.16569448
44.59781619
45.85969852
50.36718656
49.2041054
52.89480591
55.54731903
55.40254991
45.70931137
44.5331024
41.30705132
50.8098017
43.85309424
49.23922671
42.92124702
47.42705488
43.72174465
48.87714161
45.81187395
51.46631529
54.78683613
54.86461154
54.65837001
54.77457378
51.40299837
40.37574145
42.1711576
47.17627941
40.75667613
40.34442916
41.99333208
42.84970213
40.82303291
40.81993703
59.69448672
46.14126757
55.92728205
44.41712471
53.32459691
45.42859326
54.59607398
54.61005472
53.30792621
53.27527824
41.15213259
42.03410668
54.36808508
41.42424918
44.37832084
43.20655599
41.33576815
54.30926875
37.92401726
41.30678875
41.0031433
52.47698214
50.98857833
43.07521593
33.18273964
39.37536393
38.9328833
39.93952066
39.533925
33.33279744
53.9626626
51.14757273
46.06364725
51.36742968
52.26226817
48.1076991
51.11766805
46.25600224
43.58700946
47.43868015
43.35551704
51.73056886
48.02664548
44.01196916
49.76214867
53.84379606
51.9258288
51.57420434
45.43450958
42.45702124
45.36547735
46.52489998
45.14875015
47.69146357
42.77255924
44.80902695
46.42573305
53.52046831
53.5836517
54.19842877
51.56139413
50.96083123
52.18344363
51.733451
54.17609416
54.0998419
49.66994148
48.71520301
50.73422294
49.95684887
54.19864345
42.78133039
42.68309324
44.2592007
44.18158038
54.01315674
43.6077012
53.97052752
39.1140683
38.96738666
41.02412703
40.90432467
44.91942996
48.31516083
54.73212835
45.17777716
41.40079003
35.6675431
40.44762085
40.07222807
40.89712072
40.56493868
35.78931568
39.73308679
34.29264492
34.20272392
36.83366888
36.70517218
46.75851671
42.17811277
53.84660448
52.88440614
38.76273344
38.36578641
31.93258731
33.83375739
41.0016704
39.93044044
32.29959706
56.79814057
39.91898523
50.9098693
32.25140215
48.08897919
40.8250928
39.67341385
53.67611051
39.50918968
39.37434554
40.61695056
40.6374096
40.96813943
39.73765341
32.44846243
40.66704902
55.3198464
51.7051149
52.22175011
47.80292045
39.49175166
40.67361662
54.73038459
54.1022236
43.11553548
55.59311821
55.57319343
53.30985076
42.11405027
41.63624655
43.54303912
44.43761638
41.98370265
42.12307399
54.28167211
55.77831057
55.00239694
54.49743778
53.4285932
46.22054329
46.96532778
47.95531397
47.24736605
53.04461238
41.59061901
42.61949678
42.40360403
42.89192595
42.68927718
41.70936584
41.67913623
41.4020214
38.04636478
32.44996303
36.40434994
36.02657394
61.84789335
46.89486822
54.18790139
53.23032974
56.54800452
55.98655682
50.39297363
46.82964328
45.559718
48.36518088
47.23319648
50.71345352
53.26873159
49.01900621
48.23972329
53.62070728
43.1226655
43.13324579
42.95555958
38.96409306
39.39846884
42.27127089
47.23996563
47.56823455
53.78528137
54.57830195
53.10039919
52.97160238
54.1132178
52.62421754
52.30718337
52.92028168
52.70768862
54.13077856
39.88105942
42.01831525
41.7668215
42.3295133
42.09856298
39.99909132
39.60800906
35.20680077
35.47396639
33.57652713
33.7312507
38.24358283
41.50596567
38.28324285
38.83525768
35.57321358
35.8639146
40.43459668
54.76679551
48.73326707
51.52627272
49.66674042
38.86851188
34.69928908
33.26440916
37.33261338
33.33940789
33.52619435
32.89978357
36.044911
43.53466751
39.70926757
37.22823453
36.57253216
35.90656762
35.54324969
32.03313454
39.84302365
42.48766003
52.49899973
32.24411802
73.50688045
42.55688299
41.31182233
47.73636384
32.50919544
32.17016819
51.12287699
49.6133255
50.28766057
43.28128165
43.49894347
41.1879794
39.79649321
46.11723633
49.30179157
49.21098021
45.80121256
52.47380721
45.81308226
52.74194635
46.43932058
40.64013671
39.66903595
47.32974249
41.87302393
44.0409161
42.28232279
39.15096363
41.98164144
43.27170024
49.9564604
39.13178231
41.70036555
54.47186119
38.85350783
38.93092111
39.68302418
38.95669105
49.22965921
60.38976245
51.46537
48.54081978
54.72933537
52.10690878
47.98045328
45.54338121
49.34812664
53.69493671
53.12942601
54.42571901
54.56303951
54.77125365
53.95078487
46.70931328
46.27929417
53.37725421
45.99655066
46.5974378
45.13820876
45.73922134
46.80166374
53.08887879
47.15540226
46.83006993
40.79115488
40.89544647
42.21777444
51.28723446
50.6524627
42.11460292
49.41349668
48.37624034
50.40723966
49.72305838
41.79015227
39.51934361
43.75601599
41.90848882
36.94038261
36.51962501
32.62172706
33.6148932
37.41119124
37.05972625
52.92991614
52.52133726
52.19873732
48.40133457
48.8443856
47.54825087
48.21087275
52.4423082
49.94671197
48.87484776
48.68974551
48.91609685
48.90613242
50.15712326
50.40549565
46.54740976
47.32322074
52.63209595
52.97915046
56.33885624
56.17897758
52.90439083
57.09714919
57.65210263
57.42076339
56.7125822
55.50444047
57.80506126
56.66872078
50.45537823
55.03198693
56.3302774
41.35821574
45.56262038
44.86067218
46.22830874
45.75374176
41.79308872
43.87207737
43.37534673
44.61528771
44.04243834
46.17301683
48.0402296
47.60347138
48.5774948
48.18104474
46.54000905
43.59145127
46.85206477
46.3876091
47.45538994
47.00487857
43.89028802
50.02980164
49.21821485
53.32903635
53.63893634
51.11507947
50.32019567
38.62464762
38.20933769
39.35634523
38.77003304
37.54117235
37.14161637
38.07736094
37.66509654
42.568248
42.086486
43.21385611
42.73286927
41.13585573
39.7529729
41.91105814
41.41833468
46.34612682
45.4631907
48.06884959
46.8457806
44.29106499
44.53567122
45.01467621
45.13388909
44.46350115
34.82082502
35.11875207
39.48881925
34.02924792
33.81492206
34.290601
34.09691746
33.72301972
38.42053334
33.79549403
34.67868971
36.49481274
38.02968237
41.38941411
36.22482485
35.08952217
37.04591172
36.51467692
34.6295324
34.37376505
35.01575695
34.72826425
40.55178987
35.96486102
36.30247725
44.13314493
43.45182906
43.57315215
41.69507654
43.5126363
42.87679988
51.25475435
38.94212561
49.69278634
45.45116143
34.60179465
33.59549388
33.11424434
33.28662968
37.20824068
36.26760443
32.97368408
33.07238528
46.55357249
31.99169213
35.40323202
34.65638772
57.30882864
63.36296841
32.18306712
66.52617593
49.95200789
40.16492631
32.44712431
56.71135147
40.89816619
65.03645859
41.87871007
32.26515992
41.30431125
39.46900766
38.43308435
45.36025921
45.1320683
51.0664567
45.63842008
45.32046213
45.34396423
42.60025312
38.92083603
38.76658714
54.86487853
54.65927004
51.78698174
43.45821873
43.10673654
44.94053954
48.15206757
43.47719433
43.57693693
40.37183567
40.67877682
42.56068336
47.50311375
50.12327741
52.42028862
44.22825868
43.50253714
43.3839779
43.62528257
43.53668958
44.34649409
46.05240033
44.38545843
39.20639357
52.00320353
53.08828947
55.02017789
37.85971209
37.5228669
33.72043221
53.08139547
54.70404466
50.11976526
43.33892418
43.1880006
43.27451523
43.17668028
40.73093206
41.28551823
41.55119105
42.35089514
43.84372827
34.83673686
38.3198869
37.97054553
41.8076927
40.61068263
38.93368026
32.45666011
32.46695182
32.85073568
40.03408213
47.42632006
44.14882547
40.01979278
48.30615883
46.53761023
32.18394517
32.62235862
32.45922182
32.46205402
32.14532738
56.54164129
43.01387934
39.47456036
40.03881945
45.57108347
40.54057865
42.01263571
50.48205212
50.24472457
45.12160787
43.79782106
45.27829435
47.75755868
39.6771029
40.10053763
52.36635783
53.98661282
55.15648828
48.04942572
52.96377367
41.74095273
41.98976102
44.00046411
57.67485555
54.16579072
52.20823139
60.56730728
58.65851979
40.9619449
41.10200636
40.76484916
43.66083104
43.03666878
41.47458508
52.06081405
51.50580029
42.64474763
43.12896132
42.23259718
42.25344845
41.14140879
39.05870393
39.2350161
53.71751574
54.32345863
51.64359565
51.66260423
50.90009869
50.75423351
48.54429483
49.31282082
49.01668053
50.6123611
50.43773705
50.78916545
45.3996108
46.30173754
49.97249184
50.9315196
54.81448735
52.10381292
55.0717832
55.37414597
53.44772245
40.13682688
41.74492979
41.30517779
44.6408852
44.45202528
42.2649292
39.61606858
39.42702735
40.95670882
40.68130713
45.48957493
47.16847991
46.90867905
48.7411784
48.47633056
47.2961353
43.00770114
45.13394504
44.91201529
46.64626131
46.39110604
44.49700374
40.12809502
40.5760687
43.0813461
42.37232704
39.54024829
39.98200205
43.14227442
43.56756697
44.50111544
38.2530729
38.12902987
39.2518841
39.0956425
36.86905877
37.94364071
37.83808473
43.92832353
42.54265237
42.99471061
44.27175635
44.4127017
42.44584073
42.6264868
43.71130272
44.58747766
44.90690793
53.82688643
47.72850516
48.89231119
38.75721156
38.43219279
35.12520741
36.15085605
39.14743635
38.85483392
32.9569119
33.02686704
34.40869894
34.04244458
32.81892584
32.9101656
46.87395769
32.07500501
32.46195542
32.06531381
107.6709999
32.8835715
40.34533484
46.84149643
43.70338681
32.33514778
32.34715724
32.33821397
55.99663093
60.06032889
58.32974332
46.1954374
32.22945926
32.32431283
32.33363183
39.47305436
41.74053935
40.13870274
45.1906555
44.93334817
40.72085463
40.10158882
39.36909368
49.58031634
49.65261789
52.88837891
39.7045485
44.19066758
42.17312643
44.54539882
43.95879405
40.02220318
42.89960814
43.31838004
45.90223271
52.45675401
52.69955814
52.08382317
52.28393687
55.52690338
55.25808598
55.42228371
54.93184087
55.10365257
55.26369305
47.69625062
48.75222549
48.91044015
48.52534933
48.59445512
47.53105438
56.32037604
55.71160136
55.6805121
55.55976948
55.67333015
56.14436277
48.68169457
49.45048426
49.62563959
49.08884109
49.2623755
48.46098066
51.55443288
51.72956922
51.09269121
51.23883933
35.28841284
37.09025666
36.97763594
33.63444097
34.45334204
34.36660842
34.70894119
34.55424626
33.6780098
47.86507379
48.67986943
44.67819535
48.34408037
32.82427609
32.8077291
32.87656219
32.84883828
32.94924544
33.00319713
32.49300782
32.59003331
33.4095935
34.14289934
34.06416431
34.29237852
34.21677493
33.46309187
32.96443037
32.91614241
33.22670586
33.08975252
33.23058766
48.11655004
46.99385438
41.16210811
48.60211223
33.48565262
32.95774039
39.98874956
32.05289141
32.96101661
32.84589675
32.1671098
70.88530231
71.65000718
63.50404494
60.93040377
54.1044683
32.4165178
32.4427601
32.56873004
32.15388855
53.76390677
58.44357637
54.28155456
54.69551827
52.0906754
46.65506114
57.02126036
52.57161
43.29220716
43.78000881
46.15334936
40.88088168
42.64303695
49.97333121
47.89566802
49.89219658
46.82377218
49.04657386
54.15571061
55.50301284
49.74962663
53.11164063
56.15148741
43.69816919
44.55043483
43.47863642
46.30012128
51.99822668
52.12153649
50.55718049
39.61128981
47.12408487
43.36311993
51.19402607
51.7880951
40.5153012
42.00750762
44.13733941
53.67625071
45.59270252
39.86477643
40.60921352
57.34741469
54.57834895
57.4745442
53.69612571
55.82110473
57.90431565
58.84307007
58.0375463
53.32427577
53.77404979
53.98205027
53.14905279
53.41124599
53.166441
54.47558164
54.57931498
54.76556334
54.19650855
54.38830843
54.23439821
46.55650843
49.40158681
49.40749055
46.17430767
46.44148394
45.28027788
45.86725609
45.6740622
45.64284621
47.11889059
47.36157201
46.90610012
48.82614829
48.56739243
49.36415197
49.17291818
46.89629815
42.77760607
41.75660918
40.81599123
43.67110979
43.26425194
43.2234517
41.19314994
43.06865487
42.76587868
42.59968719
42.34108028
42.49901546
53.36452814
52.03940993
49.92004625
49.62102933
48.9705509
50.55727541
50.28728447
50.07213997
55.83112419
55.52269587
51.9322812
55.85234144
57.61782567
53.30691785
55.70807391
55.82368952
56.31261461
55.14853304
54.96893563
55.47431452
55.34351276
56.2754257
57.28401018
57.44099723
56.31741718
58.71378171
58.67096557
58.42146326
58.6573725
56.14219392
57.90119311
58.44747679
59.372266
57.86853319
43.52527548
43.39561077
41.24585236
41.93113029
44.14263835
44.00581091
40.01468489
39.81077821
40.44534252
40.22530379
47.68963369
47.42735111
45.816498
46.91619482
48.21458923
47.95219038
45.63320367
45.39618011
43.3282583
44.17209527
46.1325612
45.88681813
49.80046914
50.18109612
50.3626882
49.81263262
49.99773525
49.48466251
50.85031739
50.79094326
50.85412794
50.53785999
50.68671656
50.62391365
38.48095316
36.53618416
36.65915439
36.30572631
36.42622001
38.34639493
39.11036285
37.06150157
37.22853662
36.78089028
36.91830202
38.92907141
37.39848472
35.64134821
35.75727502
35.44929887
35.56278074
37.28707415
37.93898835
36.07420935
36.19799671
35.84846451
35.97072047
37.80807464
38.57740444
38.43652981
42.40961412
40.73483292
40.89491316
40.40078346
40.54726492
42.24137108
38.91313086
38.75903511
37.34944687
37.23715025
40.87401549
39.20193799
39.31697583
37.44383277
37.76786477
40.3394147
41.76335397
40.07551484
40.19896512
39.74008606
39.83638886
41.5667854
37.64785954
37.5584915
43.7568181
43.99535858
43.96382201
42.89331512
43.21305705
44.69623386
45.06158625
44.94626058
45.44267752
45.34773916
44.85001999
44.71975417
44.06820387
43.82292548
44.66343512
44.54337245
44.47595257
34.93502424
36.60843554
36.48411014
36.85626015
36.74654807
35.03340557
33.96345576
33.88923416
34.22269687
34.15333563
33.67713486
33.82644629
33.95022461
35.47241629
34.98577727
36.26678302
36.04066209
34.36145222
35.4019086
35.01907476
35.02726174
35.19234389
36.87761304
35.26101556
35.37617016
35.07209233
35.18891812
36.77945191
34.54377644
34.45138021
34.9262267
34.82104201
43.13983486
40.1099029
40.44236091
39.85624156
39.89660091
43.2849638
42.99309203
42.94422477
40.81656159
41.70032271
43.93517489
48.98279676
40.81244976
42.13067026
39.21598193
39.90237145
49.4954621
32.735556
32.70055256
32.78825912
32.76476247
32.58107218
32.78455902
33.91616878
32.57593453
32.44365869
32.65601486
32.61258511
33.17243741
33.83134004
33.75812072
33.98717746
33.90905188
33.22075156
32.99961687
33.5168743
33.45513964
33.67743014
33.61323432
33.03235229
46.28216741
32.79534542
32.56048789
31.99746309
55.07581776
81.04539962
86.22565156
79.30623963
79.90499998
59.40886996
32.45937618
58.82360087
44.65563433
47.0390405
32.39049635
32.36014595
32.38865774
56.91690154
62.39997664
61.19382654
49.96000208
55.47598571
66.63424289
62.71999208
43.74809618
59.26008153
52.91852693
32.82906957
32.17825954
32.14867978
36.68219149
36.69904776
36.81414618
36.7063066
36.73669761
36.83290216
36.74876089
36.79521207
36.86283639
36.8118988
36.86819326
36.9012363
36.88611197
36.93117324
36.93658162
36.94046955
36.95406492
36.95135594
36.95306753
36.93367278
36.9398041
36.92292558
36.87519406
36.90788542
36.85879006
36.80716479
36.87160049
36.79204049
36.75005158
36.84135424
36.53045482
36.56633675
36.66320285
36.58255447
36.64728622
36.70915818
36.67446544
36.77091581
36.78033937
36.80285325
36.89422178
36.86887168
36.9210188
36.98444319
36.93653041
36.99839174
37.01497284
36.96187456
37.01223708
36.98178367
36.93894506
36.96498588
36.89760628
36.87573771
36.87119371
36.78414816
36.79337786
36.75344274
36.66852967
36.72465122
36.39917843
36.47172496
36.53843209
36.50473085
36.63270363
36.63573339
36.67927839
36.82743399
36.77674822
36.87783011
37.02234497
36.91413258
37.06462104
37.16227696
37.01357859
37.1849294
37.2027275
37.04468036
37.19036028
37.13191044
37.00760408
37.10379153
36.99847308
36.91406569
36.95776179
36.82903492
36.78906133
36.78540254
36.6573516
36.65763959
36.29593825
36.42751989
36.45519811
36.485741
36.67784109
36.63888472
36.74999476
36.99041793
36.85687443
37.07601929
37.34219266
37.07771455
37.42214836
37.61386987
37.24102542
37.66706121
37.66930632
37.27109765
37.61004261
37.47144262
37.19588034
37.4123735
37.22137977
37.04000238
37.15496361
36.9570683
36.8525461
36.89255196
36.70787562
36.66437766
36.2295841
36.43325287
36.42602999
36.51181459
36.79100983
36.6997626
36.90078004
37.29463833
37.05082431
37.45195105
38.03533931
37.46124399
38.25166609
39.08213678
37.8213519
39.10030947
38.8661948
37.81735708
38.60594389
38.17315272
37.60451565
38.02454278
37.62930756
37.30348196
37.51110617
37.1887791
37.00430821
37.09003223
36.8185673
36.72914385
36.19330883
36.46269691
36.43880943
36.56769577
36.95634098
36.8283123
37.11610083
37.73677551
37.39560817
38.01640858
39.61848331
38.28064302
39.11094236
39.75498602
38.8633942
40.40684382
40.44706705
39.40033725
39.90438968
39.29316837
38.91145673
39.09692058
38.27341521
37.76724039
38.06102706
37.53310387
37.26449392
37.38384882
36.99310899
36.85593109
36.17396815
36.50635134
36.47211702
36.63959391
37.13692839
37.00131655
37.3440406
38.17115465
37.85455456
38.30910888
38.73316232
38.54900096
40.6415122
41.2907631
40.96026915
43.15596014
41.94133582
40.83981605
40.57499454
39.11725562
38.46849236
38.77570832
37.97681125
37.63724128
37.76263944
37.22147511
37.04575418
36.16232995
36.55519096
36.51839985
36.71449193
37.30152058
37.18006393
37.54302499
38.49329478
38.26127264
38.75932972
39.28703581
39.17381041
41.99906937
42.95367174
42.82405704
46.97485549
44.59614726
43.62998422
42.03522695
40.00743567
39.33848299
39.53925397
38.46217038
38.09508564
38.17957103
37.47939223
37.28397998
36.154702
36.60559446
36.56764639
36.78835944
37.45083969
37.33981451
37.71883713
38.76084561
38.56219044
39.08997582
39.68149612
39.58624627
42.35383625
43.1924073
43.2454568
49.32536189
46.50686525
45.90236033
43.18269554
40.79618417
40.2132647
40.23227969
38.92879552
38.58050708
38.5853935
37.73879137
37.54490562
36.15115058
36.65878682
36.61864637
36.8633046
37.5979694
37.48740143
37.89185182
39.03409291
38.82674546
39.40390858
40.03908351
39.95305026
42.18748147
42.60284639
42.74782733
50.41535363
47.5675187
47.27711316
43.9695307