/*--------------------------------*- C++ -*----------------------------------*\
| =========                 |                                                 |
| \\      /  F ield         | OpenFOAM: The Open Source CFD Toolbox           |
|  \\    /   O peration     | Version:  v1912                                 |
|   \\  /    A nd           | Website:  www.openfoam.com                      |
|    \\/     M anipulation  |                                                 |
\*---------------------------------------------------------------------------*/
FoamFile
{
    version     2.0;
    format      ascii;
    class       volScalarField;
    location    "0.38";
    object      nut;
}
// * * * * * * * * * * * * * * * * * * * * * * * * * * * * * * * * * * * * * //

dimensions      [0 2 -1 0 0 0 0];


internalField   nonuniform List<scalar> 
12556
(
1.155889604
1.155860056
1.155829601
1.155803612
1.156026109
1.156019871
1.156025176
1.156042567
1.156077891
1.156141748
1.156238115
1.156352108
1.156433828
1.156448029
1.156392636
1.156288979
1.156189158
1.156121042
1.156063955
1.156045117
1.155821165
1.15583138
1.155855927
1.155884088
1.155149397
1.155061647
1.154972491
1.154903394
1.155107709
1.15510419
1.155144663
1.15533035
1.155498791
1.155799759
1.156255347
1.156794428
1.157233147
1.157333111
1.157092486
1.156612333
1.156121746
1.155730844
1.155370557
1.155225478
1.154942342
1.154976884
1.155046311
1.155126407
1.154374342
1.154225804
1.154081191
1.153981624
1.154193757
1.15421923
1.154324406
1.154632166
1.15505542
1.155791268
1.156862313
1.13788965
1.034577358
1.024891538
1.094611209
1.157577768
1.156446826
1.155587771
1.154841478
1.154501198
1.154116704
1.154121808
1.154221859
1.154358083
1.153587665
1.153384392
1.153194357
1.153081915
1.153294249
1.153383227
1.153609444
1.154157409
1.155051668
1.156629949
0.9731259563
0.7840231489
0.7038499917
0.7103134014
0.7846490473
0.9250484973
1.144206187
1.155990633
1.154647287
1.153957143
1.153343117
1.153306254
1.15340884
1.153581174
1.152771568
1.152513717
1.152289648
1.152181181
1.152434562
1.152623361
1.153090768
1.153998581
1.155783009
0.9526120009
0.6617372269
0.4900094827
0.418989458
0.4371522783
0.5207430078
0.6536455606
0.8517916855
1.151128727
1.154970813
1.153672334
1.152685009
1.152514535
1.152591464
1.152794915
1.151963961
1.151662507
1.151412822
1.151324479
1.151625556
1.151969356
1.152817365
1.154291639
1.121308319
0.7232003968
0.4496352045
0.276583669
0.207823445
0.2377316032
0.3295959237
0.4603040081
0.6395383202
0.9072455763
1.155967239
1.153708078
1.152185411
1.151774954
1.151782105
1.15198955
1.151139659
1.150796973
1.150534132
1.150482498
1.150877944
1.151434064
1.152765691
1.155080985
0.9716554083
0.5939656747
0.3298379367
0.1405533759
0.07376960857
0.1141050453
0.210140286
0.3354370797
0.4999713643
0.7325026325
1.111650759
1.154142313
1.151785178
1.15106555
1.150956508
1.151147904
1.15034413
1.149972649
1.149712534
1.149713126
1.150212419
1.151035121
1.152976067
1.156208729
0.9071272442
0.5698263473
0.3271892714
0.124544392
0.06150843517
0.1520099183
0.2669656313
0.4173990169
0.6269960259
0.9812181055
1.154928284
1.151545362
1.150428487
1.150151635
1.150302783
1.149563111
1.14916317
1.148913197
1.148981769
1.149654858
1.150779166
1.153396859
1.157454926
0.9122887134
0.6345954136
0.4748343702
0.3698801915
0.06983240324
0.1437794699
0.2428328409
0.3792215952
0.5698317822
0.9018622374
1.155958561
1.151448916
1.149855651
1.149371071
1.149465046
1.148851869
1.148434882
1.148203945
1.14837694
1.14919103
1.150656678
1.153954069
1.15867223
0.9481219008
0.7241524059
0.6594242446
0.7105919384
0.09491136712
0.1589055357
0.2482297401
0.3742230336
0.5503252043
0.8610938063
1.157105391
1.151535089
1.149429247
1.148702884
1.148721571
1.148174309
1.147740417
1.147542096
1.147858656
1.148773108
1.150647323
1.154587802
1.159811497
0.9822740952
0.7804729219
0.7418315944
0.6180508184
0.1288920569
0.1884949844
0.2741573382
0.394533024
0.5612722943
0.8556328756
1.158291155
1.151749201
1.149128736
1.148152832
1.148089931
1.147596294
1.147153068
1.146985026
1.147425833
1.148426278
1.15071711
1.155241013
1.160842636
1.004263814
0.7887405852
0.7022520137
0.5220632869
0.166672979
0.2307621723
0.3192105443
0.4384328849
0.6007343522
0.8811079477
1.159383488
1.152142819
1.149025569
1.147810597
1.147660438
1.147049101
1.146595225
1.146482973
1.14707124
1.148163428
1.150817733
1.155830552
1.16174443
1.025675212
0.7795800918
0.6201734311
0.4506935822
0.08889780113
0.214095658
0.2938603596
0.3905369126
0.5112486008
0.6759321654
0.93611552
1.160311523
1.152579226
1.149038631
1.147607906
1.147390559
1.146595037
1.146136475
1.1460718
1.146758269
1.148041557
1.15113379
1.156650041
1.162567188
1.071276112
0.8025210862
0.5851889265
0.2726944113
0.1432219296
0.3167950464
0.4090638797
0.5067057286
0.6219535675
0.777783085
1.017486799
1.161085208
1.15304724
1.149204154
1.147589273
1.147306034
1.146152739
1.145684148
1.14566139
1.146454633
1.147908742
1.151299532
1.157114892
1.162945609
1.158870781
0.910619467
0.6862897595
0.06458936873
0.2197321845
0.51460479
0.6286638325
0.6952564555
0.7887789854
0.9263294538
1.152180384
1.161617359
1.153450719
1.149374737
1.147628106
1.147316406
1.145788445
1.145309683
1.145313838
1.146184912
1.14777404
1.15139889
1.157417377
1.162947322
1.157637744
1.112186948
0.8455303858
0.03807874115
0.2385589488
0.5247888462
0.7847640258
0.9698047487
1.025201242
1.129445235
1.161491746
1.161884184
1.153772374
1.14956739
1.147744527
1.147406371
1.145398473
1.144899491
1.144914528
1.14586658
1.147604308
1.151398047
1.157510142
1.162579432
1.156052434
1.105915462
0.8079212158
0.0373869175
0.2357990197
0.5194998671
0.7779029671
0.9658749639
1.080072615
1.137167122
1.161180706
1.161850357
1.153940868
1.149677361
1.147817867
1.147477877
1.145066362
1.144546923
1.144553976
1.145544415
1.14737343
1.151275516
1.157363209
1.161812511
1.153604494
1.098532149
0.7839344754
0.04324426399
0.2238496491
0.5059625233
0.7685819944
0.962101819
1.07843688
1.136060496
1.160446975
1.161518257
1.153961026
1.149718846
1.147878827
1.14754845
1.144673889
1.144126545
1.144109927
1.145136046
1.14706812
1.151023696
1.156976624
1.16064736
1.150122363
1.087187844
0.74920984
0.04832751097
0.2159007768
0.4949060667
0.7640369341
0.9594771291
1.076179353
1.134436978
1.159387779
1.160941818
1.153799811
1.149622593
1.147829227
1.147517415
1.144332759
1.143763127
1.14371037
1.144723448
1.146684393
1.150647101
1.156368547
1.159132609
1.145955721
1.07197406
0.6877194224
0.04594866383
0.2190520185
0.4923207588
0.7606903447
0.9565583953
1.073584299
1.132495322
1.158094851
1.160178149
1.15355118
1.149493855
1.147760005
1.147464627
1.143909181
1.143316281
1.143222029
1.144225791
1.14623337
1.150159327
1.155563442
1.157318437
1.141168604
1.054707783
0.6270771847
0.04407103547
0.2233927048
0.4906462957
0.7559207172
0.9533316314
1.070796147
1.130366662
1.156642482
1.159283976
1.15316675
1.149239119
1.147569329
1.147291037
1.143543884
1.142938804
1.142803309
1.143758743
1.145731352
1.149582838
1.154592234
1.15524684
1.135785572
1.034942731
0.576847051
0.04370867195
0.2276666235
0.489610148
0.7506195562
0.9495188384
1.067845348
1.128126696
1.155092008
1.158307264
1.152764802
1.148997486
1.147388046
1.147117506
1.143081644
1.142466827
1.142295629
1.143224689
1.145201996
1.148944972
1.153490267
1.15295819
1.129786958
1.011119144
0.5366979754
0.04434748081
0.231879405
0.4889931947
0.745535018
0.9450025882
1.064666752
1.125798657
1.153484114
1.157284218
1.152269283
1.14864609
1.14708888
1.146822551
1.142692489
1.14207956
1.141879998
1.142755788
1.14466011
1.148270148
1.152287753
1.150470217
1.123026985
0.9823957045
0.5034781083
0.04560941639
0.2359483751
0.4886437173
0.7408769801
0.9400021545
1.061206074
1.123376178
1.151839856
1.15623893
1.151810754
1.148353459
1.146839228
1.146566429
1.142196144
1.141586572
1.141366678
1.142221529
1.144119631
1.147573802
1.151002176
1.14777247
1.11520107
0.9509207777
0.4752452357
0.04717462742
0.239813875
0.4884790613
0.7366124129
0.9348122595
1.057488797
1.120855135
1.150171435
1.155187412
1.151273099
1.147953566
1.146471943
1.146189716
1.14178985
1.141193243
1.14096118
1.141771813
1.143581475
1.146862058
1.149638112
1.144829005
1.105973573
0.919541702
0.4508629306
0.04897269912
0.2434995775
0.4884423399
0.7326829338
0.9296308334
1.053589624
1.118246591
1.148489167
1.154139715
1.150810525
1.147652445
1.146195902
1.145895364
1.141270473
1.140685967
1.140447013
1.141245047
1.143050861
1.146134974
1.148191643
1.141595217
1.095197019
0.8897040697
0.4296041675
0.05091695491
0.2470353106
0.4884882133
0.7290523972
0.9245625815
1.049587265
1.115571765
1.146802885
1.15310232
1.150263267
1.147233883
1.145794836
1.145475442
1.140852848
1.140288429
1.14005064
1.140815653
1.142521988
1.145389651
1.146652887
1.138008446
1.08299528
0.8616992004
0.4108049467
0.05293572072
0.2504422817
0.4886281794
0.7256939343
0.9196556146
1.045544828
1.112853245
1.145120387
1.152078991
1.149822733
1.146949399
1.145522962
1.145178141
1.140327556
1.139779966
1.13954395
1.140298448
1.14199887
1.144621976
1.145008116
1.134007548
1.069672857
0.8354957112
0.394113038
0.05508013588
0.253726184
0.488885288
0.7225798395
0.9149309605
1.04150997
1.110111689
1.143447491
1.151071895
1.149282495
1.146532958
1.145115379
1.14474725
1.139898399
1.139375114
1.139149859
1.139883043
1.141474049
1.143828097
1.143241247
1.129542004
1.055567008
0.8109713351
0.3792326384
0.0573772163
0.2568817625
0.4892316965
0.7196851385
0.910399212
1.037517742
1.107364293
1.14178853
1.150083093
1.148873916
1.146274226
1.144862478
1.14446533
1.139394253
1.138889389
1.138670442
1.13938643
1.140952506
1.143003537
1.141334154
1.124586776
1.040968988
0.7879834634
0.3658957415
0.05984100032
0.2599262736
0.4896438888
0.7170009892
0.9060693091
1.03359465
1.10462596
1.140147143
1.149112541
1.148357178
1.145882519
1.14447641
1.144054978
1.1389389
1.138460941
1.138258894
1.138966045
1.140426407
1.142143983
1.139267356
1.119137208
1.026101207
0.7664016618
0.35389839
0.06248524745
0.2629022654
0.4901284549
0.7145317827
0.9019496799
1.029761705
1.101910104
1.138526461
1.148163095
1.147970587
1.145637647
1.144235152
1.143782716
1.138498378
1.138038126
1.137844943
1.138522393
1.139900121
1.141244151
1.13702324
1.113208751
1.011125377
0.7460940353
0.3430216877
0.06532312539
0.2658494127
0.4907134325
0.7122820269
0.8980463326
1.026035609
1.099228251
1.1369297
1.147231181
1.147514766
1.145311507
1.143914217
1.143439541
1.137977127
1.137546105
1.137372965
1.138046143
1.13936942
1.140302111
1.134591478
1.106833042
0.9961597245
0.7269440951
0.3330485529
0.06836854589
0.2687850918
0.4914057752
0.7102525071
0.8943646205
1.022431579
1.09659285
1.13536389
1.146326498
1.147096134
1.145034978
1.143643427
1.143136051
1.137659768
1.137244406
1.137081951
1.137729467
1.138840465
1.139321497
1.131984568
1.10005175
0.9812909852
0.7088646675
0.3238526348
0.07161677604
0.271716564
0.4922075074
0.7084425793
0.8909102624
1.018963464
1.094014735
1.133849541
1.145450575
1.146799874
1.144847039
1.143461203
1.142936707
1.137001312
1.136622717
1.136485779
1.13710745
1.13834731
1.138331505
1.129291925
1.092942833
0.9666758876
0.6919340341
0.3154350286
0.07505940566
0.2746453986
0.4931239625
0.7068658697
0.8876985988
1.015648829
1.091504134
1.132454499
1.14466782
1.146284462
1.144527683
1.14315642
1.142594182
0.3104549622
0.06167179513
0.05369593854
0.7212238079
0.08577005797
0.06439620265
0.6299994851
0.1207625467
0.0898661834
0.5324434847
0.1530657018
0.1259967604
0.4569301058
0.0665064796
0.08354965934
0.1877782988
0.1570785378
0.3013587506
0.1031913346
0.06846043032
0.1287665269
0.254185573
0.1909562772
0.1193507613
0.07596277283
0.05576727276
0.1077954728
0.03125747142
0.0226747135
0.06754717178
0.1219094787
0.1303251476
0.618569328
0.8004278796
0.383958614
0.05385028615
0.04982851791
0.0915691391
0.1352742278
0.1233911181
0.735213149
0.7334377352
0.8039047136
0.6769854507
0.2332536644
0.2758125
0.08534480873
0.06473137854
0.1245585979
0.1633481436
0.141188429
0.7168653319
0.6441919265
0.7227649904
0.5818451253
0.1362833977
0.1866760251
0.1304076706
0.110354399
0.6378838274
0.5494684367
0.6336188666
0.5022318143
0.07335501237
0.1010982603
0.0269365037
0.1437408035
0.1377718299
0.5806386475
0.3598887636
0.5369102806
0.4056113258
0.0268414123
0.04496991823
0.2422168821
0.164698315
0.117566877
0.09623550845
0.3068987919
0.04320738712
0.08514730406
0.04829773701
0.03256188475
0.05462213293
0.0344053917
0.04678366686
0.2820744544
0.3303630377
0.7187960336
0.2496728788
0.2194230125
0.3126595891
0.2554270361
0.06423929104
0.0535943888
0.07571880532
0.0719976367
0.08228341416
0.0478359139
0.07039007659
0.07420028772
0.1905833025
0.2273581644
0.6654098007
0.17161882
0.1380819338
0.2165164324
0.1744639062
0.1059842124
0.08705180164
0.1075771673
0.09945467754
0.117445985
0.08289063524
0.09631145708
0.1029063238
0.1027409866
0.1342068138
0.5698194437
0.1049522946
0.07606429629
0.1362362588
0.1065890539
0.1368518398
0.1311808449
0.04591190086
0.07145737079
0.4989346494
0.01824491872
0.04871265996
0.028656196
0.07488900039
0.05028769714
0.01548622
0.1487863247
0.1450514037
0.03052356567
0.004729963358
0.02649458235
0.3987430333
0.08718140408
0.01678839323
0.008874177768
0.02832314648
0.0171140393
0.08577556175
0.4276355129
0.3306415451
0.1468968391
0.1684541664
0.09571474615
0.05162628173
0.01486350908
0.009650647525
0.6162570501
0.3373251377
0.3528145053
0.01013872247
0.1594010182
0.2007739726
0.1719153678
0.009701500377
0.0913244084
0.08060413692
0.09870246717
0.1642118308
0.1521424401
0.2811594495
0.1081964669
0.1938365174
0.04374512289
0.0158800191
0.02764477239
0.02608441957
0.03268537841
0.05344684683
0.07830107938
0.05810073888
0.1413547484
0.1299225598
0.1385343356
0.11870266
0.1286536614
0.1379140318
0.04445006677
0.01162407513
0.08120464126
0.02993628416
0.05230533029
0.04190688714
0.02317279103
0.03736602025
0.02847366739
0.01335443578
0.02542585818
0.02204367935
0.01157527228
0.01820662034
0.02412420056
0.0648467743
0.0630738841
0.07544436346
0.07400389521
0.02822281395
0.01233034025
0.1280402129
0.02394720096
0.04567846318
0.01115958182
0.02022128073
0.1238010766
0.08872746708
0.2756373556
0.2587073524
0.1128038061
0.09690093701
0.01035057231
0.04004469227
0.1882003765
0.1728616085
0.2096563581
0.1944714542
0.04042622971
0.05688524954
0.04414207351
0.1464517883
0.07465660358
0.07880390951
0.0406488579
0.07381624987
0.1683815072
0.05322242277
0.02939397971
0.01849826731
0.06583911241
0.03246668786
0.05880551886
0.03049949608
0.08220196518
0.03984198216
0.03964842729
0.2410634423
0.02946355555
0.2396112111
0.2863300872
0.0340538667
0.03937791937
0.02997705975
0.03341916786
0.2782900346
0.06214450522
0.06174502786
0.07948606753
0.07141998317
0.06668243185
0.078157526
0.07301642639
0.07979732853
0.05743855928
0.05923659908
0.0542251761
0.06499752057
0.06060483741
0.05905106603
0.1548772081
0.1527173881
0.1965724911
0.1939450992
0.1008474692
0.01084603214
0.09908092395
0.09390503727
0.09184051341
0.1205603442
0.1185544561
0.04882599728
0.07059879831
0.1349412747
0.05426774046
0.03052624744
0.06193382159
0.2312792005
0.2152498526
0.2530873268
0.2366654127
0.06329288193
0.04009594912
0.04418662772
0.04321016429
0.06715557238
0.06624291766
0.006679394974
0.05446188018
0.1254643464
0.1181937856
0.166858832
0.1550579142
0.02081899486
0.01095412257
0.03281444965
0.02219659415
0.02684141473
0.009679995143
0.01984810357
0.01033724354
0.02688761495
0.08413795002
0.01272871409
0.02992276331
0.00384615931
0.02829502414
0.02087974483
0.6436946991
0.3560933284
0.3422108134
0.2337170192
0.007838959974
0.005314585964
0.2123061297
0.4343248492
0.2873883393
0.00638848918
0.01794921866
0.01237116297
0.1261370156
0.1261905904
0.05910507609
0.2051642048
0.1704809924
0.1019992804
0.01178854106
0.0206905668
0.01603569468
0.01004082271
0.01543035781
0.01103450832
0.05779049414
0.02626911497
0.02481231412
0.05519314156
0.0806265192
0.0256775981
0.03513515197
0.0163440378
0.01604896229
0.06715730779
0.1540169502
0.3684241266
0.35026008
0.3932944145
0.3745750408
0.1580508137
0.298105278
0.2810530517
0.09017454102
0.02957849159
0.08946093915
0.08374835109
0.009594778744
0.01663710745
0.1376136514
0.04463937784
0.02947516307
0.02651670783
0.03959603244
0.04667083343
0.04262611196
0.05270167835
0.04805731739
0.04060985608
0.06316378181
0.0172514632
0.01645820129
0.05566806133
0.2059550825
0.418770619
0.399553689
0.05749882439
0.05971418698
0.1442659325
0.03723829452
0.04043081679
0.09176469142
0.109001228
0.1072188112
0.09904863366
0.0907670237
0.08614889412
0.08012144898
0.09606367311
0.08853286885
0.09215481428
0.1183198068
0.3209820156
0.3037290382
0.3443214823
0.3267862145
0.1204611334
0.1002719787
0.03357927902
0.0342850917
0.0193446825
0.02008653924
0.08091757911
0.1297232862
0.05299147825
0.05705265163
0.03458572938
0.03523893952
0.1115319649
0.1360847149
0.07373616732
0.09631217933
0.006646221281
0.02679597793
0.04638188237
0.03493300285
0.07150227218
0.01877693641
0.01922003556
0.01837749781
0.05959142103
0.01074528283
0.004424060045
0.1153363475
0.09460090171
0.08175643771
0.07708826168
0.02604254543
0.03225164214
0.04472128285
0.09189396586
0.01658406797
0.009950384905
0.03015196896
0.03756515676
0.002939194136
0.02780384059
0.01806096257
0.01346387247
0.006777730815
0.01300147839
0.01037860686
0.01023805763
0.04276595601
0.03193388131
0.006738813573
0.0394215829
0.04163367233
0.01857408167
0.01186121649
0.008387732415
0.01223442056
0.02029925506
0.01269116847
0.01910707467
0.06756753685
0.01068397434
0.009487106735
0.01112685915
0.01622164026
0.05411055468
0.01088896217
0.009684368881
0.0164939015
0.01113527099
0.009785805547
0.02909323064
0.01929747657
0.04152292376
0.03256824859
0.009936448264
0.0226607432
0.022872995
0.02002108564
0.03099897029
0.02423853865
0.01954382751
0.01765281418
0.01369852174
0.02301110311
0.01799911595
0.06082168984
0.05712568507
0.02442910149
0.0230799873
0.02383809754
0.02479604199
0.07893417151
0.01394545283
0.01458138059
0.01905811119
0.01413620604
0.01487963981
0.06876555539
0.01548005857
0.0232537538
0.01890600099
0.0166208375
0.03214018276
0.08240409178
0.07567520742
0.01517381161
0.0638589
0.05555931135
0.07322435816
0.06662412385
0.01623990793
0.01405297802
0.05767227928
0.04704124058
0.0986500214
0.09157867021
0.03291778575
0.04256336185
0.1066540564
0.1006271846
0.04940481658
0.04809724477
0.07887792261
0.107204324
0.1442311812
0.07830441974
0.09913786633
0.08039330231
0.0658644242
0.174729854
0.1556982933
0.1649988219
0.1803624217
0.06578881992
0.04620904274
0.05800995266
0.071754574
0.04100594786
0.04687134326
0.04075930409
0.03867343685
0.04353085952
0.02803484039
0.02822592974
0.02242972209
0.04073681129
0.0326401553
0.02928536865
0.04106345398
0.03635920305
0.0377275303
0.04271196077
0.02745148854
0.1035975706
0.08829359924
0.1126266672
0.1069574039
0.02867865691
0.07736426076
0.07441207927
0.08396961166
0.07843764391
0.0359961332
0.1386140292
0.1312202024
0.1510513078
0.1413079909
0.03675612848
0.03133674589
0.120393282
0.1146616415
0.1289103447
0.1224493444
0.03174945764
0.01859080172
0.01766834183
0.06288009915
0.05773906743
0.01865316855
0.01889063031
0.04061772258
0.0397817756
0.042952648
0.04090426906
0.03827840687
0.03717564087
0.03951040236
0.03856025853
0.07002929505
0.06758059278
0.07349977253
0.0709075542
0.0610989136
0.04587439173
0.0665384713
0.06402085159
0.04123458619
0.034891567
0.05314904636
0.04467699832
0.01043673035
0.02189274582
0.02039649461
0.03253654684
0.02286589446
0.03262111776
0.03324005904
0.09868113908
0.01931321661
0.01911867689
0.01994390919
0.01949036509
0.01849133145
0.08350195257
0.02063919472
0.03067503728
0.03733316604
0.05096193033
0.1274952349
0.03417898779
0.02199787937
0.03702191894
0.03408917714
0.02070953191
0.02017689312
0.02162217292
0.020935649
0.1132267413
0.03546456513
0.03631902536
0.007382253156
0.04420302238
0.009584572416
0.01089781725
0.009603675468
0.04085761008
0.006715062281
0.03016204083
0.009545783245
0.01045388785
0.04572180532
0.03931078122
0.01821546062
0.01868079511
0.07048050209
0.06186452153
0.01738805834
0.01815422966
0.009430803851
0.02497090709
0.07430975135
0.06524880337
0.01081770512
0.01038199956
0.01579099321
0.00995303984
0.01080385169
0.02790495885
0.02769008045
0.00679033867
0.0138298841
0.009826310016
0.01215908555
0.01882738831
0.06396567357
0.1385766604
0.1830970561
0.009491966513
0.009489738185
0.1956805104
0.2546330025
0.2122451087
0.006913030613
0.0571986458
0.01858737637
0.02780163532
0.1430662439
0.1487878729
0.1670517529
0.005629508777
0.009084873927
0.006500998911
0.00516786937
0.006833259053
0.005350766101
0.0692458193
0.04418759215
0.02666532948
0.02839824733
0.02473798032
0.02800259622
0.2512647878
0.4717630661
0.4515938909
0.4991502592
0.4785522336
0.2572922113
0.07031919008
0.06114687257
0.01657748544
0.1016602634
0.1172876679
0.1399672017
0.1147612205
0.1085799282
0.04304497916
0.02942255536
0.03486880029
0.034934472
0.4449413924
0.4252252458
0.2110271135
0.1640179651
0.06633845656
0.07079220657
0.07436582538
0.08698423886
0.1831810787
0.05342213948
0.124049172
0.1169065071
0.01114337074
0.01173675622
0.02075156811
0.01794495465
0.01820492562
0.02943627653
0.01325139286
0.009573910169
0.01016948003
0.04086892769
0.08342970154
0.07294311358
0.01676960082
0.02809645211
0.01756002489
0.01770434249
0.01711710917
0.01324464717
0.01060782547
0.01430378351
0.01270490601
0.009772484047
0.03534796811
0.04508530748
0.09059775618
0.04190052446
0.04140519086
0.03776433757
0.0279519618
0.07047223314
0.02244140858
0.03172954261
0.009758372255
0.006794259261
0.006806856454
0.01026119853
0.009561300611
0.02810309481
0.01770505814
0.01174183092
0.01951836594
0.02056691339
0.01913682169
0.02671072769
0.03309608378
0.02572306816
0.01355157206
0.01491903694
0.009353078639
0.01001690613
0.01431136615
0.09176064385
0.08467120887
0.03516460111
0.01068912049
0.02147831687
0.01922798992
0.01166632408
0.02028038175
0.01716911752
0.05398532269
0.04004693378
0.04555367369
0.07621064486
0.1136339569
0.1111902735
0.04259950359
0.07376729322
0.06888563996
0.1094118211
0.1061462311
0.07142061691
0.04378195662
0.05278519234
0.04237801322
0.03254215221
0.03563174666
0.02850706751
0.05405112548
0.05195219109
0.06680892359
0.02170479014
0.03213343131
0.030392317
0.05286373847
0.05239622587
0.02917650167
0.0264901952
0.02604395311
0.02932078297
0.02856659158
0.03474828053
0.06126485596
0.06038629074
0.06666880111
0.0655181436
0.03840979386
0.03036801024
0.05450365129
0.05383254688
0.0594905753
0.05862030333
0.03283648566
0.0632324368
0.0654925822
0.1616650636
0.1462616
0.06037493685
0.06252477317
0.09561393238
0.09978626603
0.204975002
0.0243764269
0.02424059697
0.02578886445
0.02556599572
0.01857703216
0.02395222069
0.02385768862
0.1858586799
0.08968246256
0.09406468192
0.01148186583
0.01166788498
0.01831731386
0.01740586687
0.01094299271
0.01162202674
0.01121379217
0.0934536977
0.04196357821
0.05111542065
0.1334060535
0.1264341709
0.05661156214
0.06639955477
0.1418914709
0.1355001514
0.02879800209
0.02887165505
0.0445627871
0.04283857438
0.02842784114
0.02839413706
0.009505479534
0.01984662487
0.03112181154
0.03115957883
0.008180810309
0.01291095628
0.03032422389
0.01158707496
0.0123464627
0.01675212619
0.01698528708
0.02728280527
0.009928505991
0.007007160119
0.00991776397
0.01033668035
0.02544447203
0.01630135574
0.01686179397
0.0190622487
0.05321767404
0.04454132676
0.009638085774
0.009754413704
0.01192535799
0.01276976519
0.02322304504
0.00712227439
0.004954404876
0.008723773172
0.01520886899
0.009480144957
0.01078151611
0.009440767261
0.00978317913
0.0132603301
0.01188835302
0.007927065142
0.005595651322
0.02279780112
0.02353571734
0.02193054601
0.02226503802
0.02561528354
0.03832238114
0.03883030485
0.03762132462
0.03809468761
0.02539205158
0.0159818047
0.02923744151
0.02919571817
0.03011897773
0.0293918956
0.01564130586
0.02813866957
0.0427270687
0.0471837807
0.03927756198
0.0404594934
0.0273024062
0.01714788873
0.02927803075
0.02926277637
0.02916725455
0.02923612645
0.01682943636
0.02106621018
0.02158996707
0.02031266703
0.02123219719
0.03373758279
0.05268641333
0.0521954464
0.01957492604
0.03234003187
0.0320976148
0.03358254714
0.03267722397
0.01975035928
0.009766826154
0.009493558274
0.01019720506
0.009698378701
0.01822270213
0.01805490959
0.01859249556
0.01839819906
0.01431554522
0.03129036097
0.01876018798
0.01961856605
0.0189443512
0.03163562397
0.03142173194
0.03195186941
0.03177245479
0.01905744009
0.0194178262
0.01886843387
0.0283602376
0.0203240427
0.0146279773
0.006718033045
0.009606436388
0.01164147446
0.006532107764
0.03744140405
0.02563215389
0.003115195233
0.02604546429
0.03966678642
0.03929282845
0.016532591
0.009844034725
0.007094553377
0.005178905148
0.01020872283
0.01070745538
0.01736975428
0.01750630453
0.02801121876
0.01751819941
0.008553949905
0.007516346509
0.01569582121
0.004196890764
0.009864367032
0.00752354378
0.005087580444
0.006331990081
0.01026003191
0.009895909461
0.009457233473
0.01176911161
0.01041695829
0.04160829278
0.03074463363
0.009754372644
0.01199674954
0.0136722606
0.01895386342
0.02161990869
0.01458098408
0.01803594543
0.01457983307
0.009716313737
0.007095327753
0.009850529694
0.01000915829
0.006602822526
0.009611749212
0.009688698336
0.01398365347
0.01040948551
0.01073508004
0.009830226379
0.009542435603
0.01233238176
0.01152466307
0.01069127289
0.009758643711
0.01058626544
0.01434248435
0.01288444979
0.02827395728
0.02239639267
0.02211503972
0.02784087805
0.03191670184
0.03410835015
0.03177448794
0.02791448353
0.02193054058
0.03405084868
0.03606904317
0.02505917263
0.034176304
0.02323636461
0.02395645461
0.03689990145
0.03739465004
0.03607135852
0.03673793064
0.02370180695
0.02412574485
0.04255191938
0.04199432096
0.01418268319
0.01436254762
0.01628221802
0.0126014668
0.01295653206
0.01359690968
0.01489315563
0.01436199809
0.0185559516
0.03582638065
0.03213502308
0.04104303078
0.03911821506
0.02172052625
0.009858590774
0.01180214481
0.022507333
0.008454225454
0.009720423979
0.009740684148
0.01576193474
0.009985908326
0.01028639299
0.02835250593
0.02512061151
0.01285033617
0.05137605209
0.04641092203
0.09511357255
0.08307601668
0.04494100071
0.07098542606
0.1046126354
0.09914362392
0.04039068808
0.03606669469
0.03652986107
0.02488692336
0.03008891392
0.05512789691
0.05579023972
0.045979719
0.04063202967
0.04462416124
0.04256090676
0.05228227063
0.04782294336
0.03835634997
0.02674363882
0.02846272461
0.03803496951
0.03073902721
0.02921872908
0.03272249674
0.03112243794
0.0351064992
0.03003085927
0.03080682832
0.02447068086
0.03203024006
0.0474143753
0.04765688882
0.02904121443
0.02861510321
0.05108178512
0.05107127069
0.02724089904
0.02680841387
0.02808136191
0.02761697693
0.06292614044
0.06205548777
0.03523364691
0.03758550621
0.06463809878
0.06378180226
0.05613720188
0.05539865081
0.03091406489
0.03223325319
0.05773336807
0.05693440698
0.01813862387
0.02933981301
0.02934437712
0.02934210521
0.02936202525
0.01800189879
0.01916740797
0.02717840858
0.02371189636
0.02917180779
0.0286243854
0.0190122603
0.04032381164
0.02310949158
0.02338233932
0.02270033132
0.02289828274
0.04005957682
0.04176847197
0.02430549296
0.02474542923
0.02364214855
0.02395309971
0.04125096347
0.037872696
0.02150470218
0.02174047398
0.02114710273
0.0213699685
0.03763168271
0.03920976771
0.02231918499
0.02250173527
0.02190101136
0.02213451638
0.03892454059
0.02482816379
0.02464896206
0.06922112147
0.04436129865
0.04472747057
0.04355102175
0.04386262678
0.0683042752
0.02529079362
0.02508503347
0.02276973678
0.02408037667
0.05871915934
0.03939778182
0.03911318802
0.02556640053
0.02687751127
0.05170729258
0.06597726804
0.04274414503
0.04296406515
0.04192394714
0.04186682739
0.06447460227
0.02351646255
0.02357901898
0.01136328162
0.01185449803
0.01079047362
0.01624076557
0.01373287856
0.02142901575
0.01264089685
0.01242501881
0.01286159365
0.01276323998
0.02099026071
0.0290437269
0.01472782787
0.01743889877
0.01268571908
0.01217517062
0.02512702922
0.03259118214
0.04999611937
0.04967369041
0.05145689822
0.05108156904
0.03312655637
0.01927025133
0.01905051405
0.01982410841
0.01955800568
0.0196031944
0.01537217229
0.02170268968
0.04030144009
0.03577692162
0.04748226729
0.04568840253
0.03072363689
0.0237826208
0.01670431952
0.02140272896
0.02264318508
0.03633380559
0.02081131507
0.02108652728
0.02019396608
0.02087412114
0.03638005146
0.02054723525
0.02032024741
0.02137405807
0.02112641643
0.009910254005
0.01510686294
0.01426226813
0.02073691459
0.0171586811
0.009709233918
0.009651165324
0.01003247394
0.01299493797
0.01137502428
0.007774832991
0.009793431271
0.0115901948
0.01120155028
0.01497395977
0.01296276262
0.009518395245
0.01767026501
0.01764170615
0.01787997331
0.01783320981
0.02701706212
0.02689523261
0.04097779329
0.01695274089
0.01787782554
0.01742976697
0.01750399566
0.01842101052
0.0308769895
0.0305486416
0.03127804516
0.03101285796
0.01849364055
0.01790028689
0.02989397761
0.02823488794
0.03041801276
0.02989925166
0.01788412232
0.00979770869
0.0377102054
0.03712673443
0.0248628349
0.01076616757
0.009560849364
0.009902334744
0.006981034256
0.00969631669
0.01032478765
0.01634714042
0.01025446627
0.0115200597
0.01096951931
0.02739992175
0.01708255087
0.01727120779
0.009759116435
0.009787327354
0.009897480516
0.01021505528
0.01031217902
0.007024812189
0.006988841648
0.01128854435
0.009736635918
0.01027611406
0.01393308856
0.01704184153
0.02562544943
1.154789262
1.155028333
1.155447656
1.155133585
1.155560729
1.155712895
1.155734643
1.15638113
1.156133253
1.156619808
1.157398
1.156666063
1.157661018
1.127934961
1.157153951
1.114098239
1.094986117
1.157341703
1.099027332
1.145499866
1.157183412
1.158117491
1.157456723
1.156733203
1.15721628
1.156513913
1.156232235
1.156299368
1.155722478
1.155815497
1.154249617
1.154763342
1.154924246
1.154996926
1.155916478
1.155575217
1.156303086
1.129273681
1.156574073
1.065275778
0.9067391157
1.157808997
0.8694307092
0.7965413933
1.04957129
0.7841853199
0.7812761169