/*--------------------------------*- C++ -*----------------------------------*\
| =========                 |                                                 |
| \\      /  F ield         | OpenFOAM: The Open Source CFD Toolbox           |
|  \\    /   O peration     | Version:  v1912                                 |
|   \\  /    A nd           | Website:  www.openfoam.com                      |
|    \\/     M anipulation  |                                                 |
\*---------------------------------------------------------------------------*/
FoamFile
{
    version     2.0;
    format      ascii;
    class       volScalarField;
    location    "0.38";
    object      omega;
}
// * * * * * * * * * * * * * * * * * * * * * * * * * * * * * * * * * * * * * //

dimensions      [0 0 -1 0 0 0 0];


internalField   nonuniform List<scalar> 
12556
(
31.93098546
31.9318403
31.93273529
31.93349946
31.96674303
31.96718799
31.96750865
31.96814558
31.96940833
31.97162751
31.97497393
31.97887439
31.98199742
31.98255673
31.98025796
31.97673537
31.97325446
31.97020841
31.96892106
31.96761135
31.93394934
31.93295379
31.93191954
31.93090688
31.79455379
31.79713587
31.79974149
31.80191522
31.8356537
31.83713098
31.83888219
31.85757291
31.86337606
31.87373044
31.88950461
31.90837985
31.92363883
31.92750532
31.91853434
31.90199743
31.884927
31.87157914
31.84696482
31.84057341
31.80427536
31.80099462
31.79788979
31.79505077
31.65988555
31.66435371
31.66873539
31.67204287
31.70613389
31.70894945
31.71298695
31.73527213
31.74934367
31.77403202
31.81081332
31.85297142
31.8853141
31.89327559
31.87372291
31.8385644
31.79983522
31.76905609
31.73153622
31.71776038
31.67735795
31.67190946
31.66658907
31.6617639
31.52657239
31.53250435
31.53830305
31.54273603
31.57763437
31.58260072
31.5910542
31.62090171
31.65042632
31.70297923
31.78030026
31.86725983
31.92917803
31.94061088
31.89418364
31.82421814
31.74842086
31.6871463
31.6283279
31.60251038
31.55475713
31.54568543
31.53789793
31.53118916
31.39552237
31.40299293
31.41015426
31.41582762
31.45141643
31.45923385
31.47399517
31.51615361
31.57583294
31.68113657
31.85178644
32.08466472
32.22957079
32.23989456
32.0842563
31.90762918
31.75476602
31.64084757
31.54467762
31.49750783
31.4365489
31.42278165
31.41178719
31.40271497
31.26540973
31.27416256
31.28265938
31.28970849
31.32762829
31.34030479
31.36609099
31.42704847
31.5302217
31.73866683
32.16903905
32.97307006
33.61103813
33.43272787
32.72629354
32.21308904
31.87039542
31.64445357
31.48545457
31.40545079
31.32404653
31.30213776
31.28719164
31.27567036
31.13746996
31.14768896
31.15778243
31.16671292
31.20629991
31.22547668
31.26715071
31.35561113
31.52230562
31.92581499
32.98094071
36.56140066
42.15370567
39.2569178
34.59515424
32.94643512
32.15803406
31.72062705
31.45277802
31.32905228
31.21773886
31.18464074
31.16427002
31.14984698
31.01082317
31.0223069
31.03389036
31.04494861
31.08832769
31.11570503
31.17707837
31.29816355
31.54624308
32.21740715
34.28628699
45.35448822
59.94474329
39.116351
34.34195046
32.67223078
31.89107222
31.45531313
31.26716011
31.11757187
31.06953423
31.04230158
31.02461776
30.8870446
30.90018844
30.9139419
30.92810039
30.97459826
31.01175932
31.0954842
31.2501132
31.59039212
32.51506061
35.32864224
52.53647712
106.458077
46.06208831
36.35814187
33.39940733
32.14552342
31.48158649
31.2179322
31.02429546
30.95860469
30.92285811
30.90141729
30.76523947
30.77980172
30.79560464
30.81288189
30.86538751
30.91339647
31.02072845
31.2081414
31.64004645
32.77112592
36.08635832
59.5991774
133.1149014
52.3464493
38.51100803
34.23081085
32.45375687
31.53309592
31.1786284
30.93753111
30.85173211
30.80640354
30.78079666
30.64770083
30.66412862
30.68261273
30.70417719
30.76101667
30.82043785
30.95154798
31.1717884
31.69568461
33.01934405
36.95627699
68.3196836
134.6925262
56.18792869
40.32636487
35.02155634
32.76968278
31.59445548
31.14688461
30.85775806
30.75173353
30.69582913
30.66554108
30.53256483
30.55049197
30.57135793
30.59749062
30.66065913
30.73241953
30.88681735
31.14196109
31.76151306
33.29494856
38.12391335
80.1611747
126.1339103
57.82191115
41.59673816
35.66901753
33.04949
31.65213492
31.11922077
30.78373551
30.65692198
30.59057959
30.55547306
30.42247832
30.44239984
30.4664772
30.49795201
30.56361679
30.64861016
30.82547263
31.11874226
31.83998496
33.6155524
39.67215102
91.70778428
546.7298822
110.1350415
58.09621684
42.3416268
36.14079997
33.26427412
31.69555575
31.09138172
30.71498773
30.56937015
30.49252115
30.45238024
30.31475374
30.33644963
30.36366093
30.40007002
30.47285264
30.57565931
30.78082004
31.11291578
31.96420722
34.08519991
42.15813001
145.9879589
346.7875352
103.2971813
57.80853871
42.75902764
36.4340027
33.4007531
31.7200094
31.06005842
30.64657429
30.48525183
30.39866082
30.35404849
30.21136883
30.23491299
30.26516435
30.30587181
30.38287933
30.49959251
30.72534124
31.09455817
32.04090221
34.45420051
45.0294612
558.7104399
249.535985
96.87162417
57.11028325
42.88494219
36.58766908
33.46762794
31.71837906
31.02283482
30.57961273
30.40535514
30.30956097
30.26045355
30.10869165
30.13402777
30.16737639
30.21295613
30.29530846
30.42451645
30.66950589
31.07053636
32.09006958
34.74441708
48.10027369
806.4762256
221.6207101
93.50195438
56.86120834
42.95363949
36.62434075
33.47057074
31.69820616
30.97716887
30.50901498
30.32411572
30.22104208
30.16827063
30.00944425
30.03669682
30.07294339
30.12247029
30.20906139
30.34935579
30.61234693
31.04354899
32.11123529
34.93042708
49.9625047
735.2152343
216.2249736
93.00780305
56.99083505
43.00738329
36.59142873
33.44085264
31.65717538
30.92308305
30.43671644
30.24385695
30.13376506
30.07742796
29.90893526
29.93797083
29.97718428
30.03136789
30.12338607
30.27335344
30.55295463
31.0170745
32.13410255
35.07804092
50.96735374
606.1791243
219.1577548
94.08063609
57.20564328
42.93328793
36.50763556
33.38392161
31.59960175
30.85750075
30.35757194
30.15834003
30.04369753
29.98432781
29.81129395
29.84211437
29.88405809
29.94180955
30.0375759
30.19611121
30.49125672
30.98724921
32.17880588
35.34248249
52.72877301
520.7516661
218.7012756
94.60371502
56.95633915
42.74842991
36.40805093
33.30999449
31.53088464
30.78386797
30.27473398
30.07100984
29.95253437
29.89103671
29.71063223
29.74293996
29.78767707
29.85004659
29.95125409
30.1175524
30.42762919
30.95476219
32.22454197
35.72219146
56.69376172
500.3453052
208.7339827
93.40084141
56.60327602
42.57109957
36.30288641
33.22617769
31.45389664
30.70339884
30.18572836
29.97785178
29.85626586
29.79317811
29.61314833
29.64677613
29.69389219
29.75950765
29.86398552
30.03771865
30.36258804
30.92078239
32.27352482
36.15133968
61.26722949
481.6843836
198.5860464
92.11653254
56.38692762
42.41282541
36.1979542
33.13728778
31.37079891
30.61723117
30.09401183
29.88345833
29.75946318
29.69515512
29.51113406
29.54569321
29.59519539
29.66535389
29.77560729
29.95665773
30.29659935
30.88636799
32.32864822
36.65752191
65.56450905
458.1960331
189.3310276
90.79879041
56.23492632
42.29054438
36.09807226
33.04657598
31.28339252
30.52647245
29.99641269
29.7827205
29.65665226
29.59158216
29.41365616
29.44892737
29.50020937
29.57296116
29.68585656
29.87440082
30.22995695
30.85229162
32.39313482
37.31083204
69.33362639
432.3592412
180.8692911
89.48107903
56.08698969
42.21019903
36.00866274
32.95673612
31.19332611
30.43218225
29.89807278
29.68268448
29.55506994
29.48947556
29.30998744
29.34565058
29.39881799
29.47588595
29.59493597
29.79106996
30.16299847
30.81962265
32.47322776
38.16384712
72.69341939
406.5742287
173.1509442
88.18332843
55.924776
42.16083207
35.9330389
32.87005855
31.10209237
30.33541645
29.7942103
29.57586215
29.44670877
29.38087007
29.21323714
29.24913334
29.30350485
29.38233707
29.50288188
29.70696564
30.09629179
30.7899231
32.57931127
39.16022297
75.73040223
381.8558483
166.111186
86.91491257
55.74883786
42.12800599
35.87073693
32.78792371
31.01081998
30.2370128
29.69220045
29.47263203
29.34239302
29.27641058
29.10787474
29.14381541
29.19972267
29.28285028
29.41026555
29.6224965
30.03052653
30.76509965
32.72246538
40.20496823
78.48788157
358.6196161
159.670324
85.68029527
55.56178816
42.10188074
35.8190921
32.71065073
30.92019028
30.13770601
29.58416404
29.3612274
29.22961593
29.16360954
29.01305234
29.04895221
29.10567701
29.18982563
29.31714739
29.53811569
29.96640778
30.74692434
32.90863015
41.24261169
80.98646573
337.526271
153.7587779
84.48303178
55.36481858
42.07702728
35.77516838
32.63791122
30.83057431
30.03796671
29.48120708
29.2573446
29.12483795
29.05882165
28.90576385
28.94154206
28.99964065
29.0884031
29.22424904
29.45424235
29.90459041
30.73735968
33.13627628
42.25471269
83.26666653
318.7949871
148.3079351
83.31928658
55.15862112
42.05063079
35.73651083
32.56911843
30.74214716
29.93827929
29.37006516
29.14206587
29.00814757
28.94212771
28.81436375
28.84998857
28.90870967
28.99787473
29.13136959
29.37125015
29.84569494
30.73819699
33.3987236
43.23523042
85.33272842
301.8216868
143.2707337
82.18577
54.94423088
42.02117822
35.70121036
32.50365192
30.65499917
29.83881502
29.26860738
29.03999706
28.90523934
28.83919555
28.7043558
28.73981702
28.79987798
28.89421687
29.03938845
29.28946548
29.7903146
30.7509013
33.68799609
44.18282529
87.19106923
286.2833933
138.6118868
81.08307361
54.72259304
41.9876436
35.66777599
32.44091831
30.56915344
29.73995471
29.15416886
28.92045857
28.78416161
28.71803799
28.61826024
28.65356438
28.71421627
28.80852488
28.94771565
29.20918166
29.7390499
30.7762829
33.99707298
45.09811275
88.85431272
271.9727231
134.2877622
80.00942899
54.4936141
41.94912759
35.63502342
32.38036787
30.48459534
29.64162745
29.05695991
28.8229924
28.6858233
28.61960806
28.50397149
28.53914596
28.60116292
28.70116919
28.85760202
29.13070164
29.69252171
30.81466519
34.32043508
45.98152471
90.33110121
258.7077867
130.249204
78.95938471
54.25643533
41.90484202
35.60199007
32.32148347
30.4012921
29.54427281
28.9374744
28.69751233
28.55866672
28.4922605
28.42578874
28.46086415
28.52356392
28.62360857
28.76794399
29.05434752
29.65129475
30.86588224
34.65404507
46.83430884
91.64321743
246.3475352
126.4563913
77.92807017
54.01033839
41.85415544
35.56786211
32.26376071
30.3192426
29.44762914
28.84848583
28.60831947
28.46850429
28.40193442
28.30464285
28.33965613
28.40377171
28.509321
28.68085791
28.98057769
29.61588099
30.92938871
34.99486272
47.65779223
92.82248566
234.7714022
122.8862207
76.91385894
53.75513922
41.79656575
35.5319371
32.20676751
30.23858938
29.35257568
28.71974067
28.47350938
28.33188493
28.26499434
28.23792642
28.27294068
28.33786539
28.44501152
28.59480615
28.91009289
29.58679898
31.00436883
35.34038968
48.45234734
93.8856579
223.9254131
119.5261498
75.91765327
53.49095832
41.73161731
35.4935834
32.15006838
30.15983482
29.25909526
28.64555317
28.3976408
28.25496427
28.18784488
28.08409013
28.11918613
28.18614066
28.29989044
28.51419806
28.84425083
29.5647021
31.08934202
35.68605307
49.2107485
94.82396461
213.7662657
116.3773138
74.94731002
53.22005967
41.65943387
35.45247335
32.09345046
30.08436127
29.16995843
28.47952889
28.22439469
28.07919058
28.01149254
51.90654883
122.9515862
66.31535721
58.71097785
157.8479518
127.5741331
67.07764075
158.5156719
159.5743803
78.70784129
145.3442136
157.0020062
90.53346231
668.1629613
571.243828
132.2052058
143.3658248
123.1250388
428.1621466
655.1396675
361.2271048
129.4549458
130.9188085
43.93963464
41.11992791
61.83067325
39.24511117
313.738574
120.9065452
101.1566447
49.20490358
41.66534504
35.90237893
51.2252999
46.87276777
1000.75419
690.9277427
131.4307504
58.58775395
51.81345233
36.73424864
56.97164326
51.89458687
62.5508461
187.9814167
161.9810642
627.9318565
819.9998127
135.3893072
64.01912593
60.3682886
37.8589003
64.68673999
57.80309391
72.36176984
299.746073
227.6012382
382.0584808
489.585113
39.32626266
75.42186592
65.7346222
82.90848447
501.6219629
384.5360218
1447.150295
255.5846162
295.2114234
41.68509715
98.73189896
77.11351553
101.2219786
1199.464298
756.3322965
161.7356447
330.1273417
421.7811303
115.3690849
144.5174071
76.42942906
111.1859941
670.9297338
328.2144072
97.48719162
272.6518115
487.5818726
158.747494
137.4884896
55.95734285
184.0361786
204.4694291
149.408139
180.3926852
826.9132042
1003.429601
144.8377054
720.7504894
656.8814121
503.0062435
716.437222
142.7276124
223.7659947
192.2522665
63.61939269
253.2945892
303.8180844
206.8929773
249.700549
508.8465426
616.2564648
160.9196599
482.0686124
390.2603347
651.9137336
496.9858162
161.1752175
379.5096103
303.6108384
73.80966541
380.7709706
497.2841815
307.1785847
376.0334554
303.5694982
369.6135442
743.5468667
512.8357107
83.39464651
2143.769798
719.712306
1142.960291
503.4360365
700.6350675
2541.257704
237.295472
251.5433525
1280.601709
8499.526133
1212.936686
102.8693848
487.4766741
1915.792877
7787.150141
1153.878101
1878.590476
500.3795879
35.11635414
46.42523048
41.66106369
48.89239561
92.63945992
68.09937469
1575.382719
289.8537982
55.14480764
134.8888468
115.2408998
4224.892748
127.5310852
65.89795583
64.78140123
4727.072797
551.5194398
610.4414399
437.0886513
212.7913413
229.9208151
111.7586279
95.04464189
49.75701553
1161.496376
155.8451261
365.927874
103.984565
243.001835
90.55060846
624.2205343
788.4903847
150.4408047
305.3632857
262.7413502
378.675097
313.316626
152.3432527
908.3392755
3627.915093
580.9554562
60.23221783
50.1381728
71.20792051
108.7335806
58.07337143
61.35959053
2083.575277
223.3620062
1480.542104
228.7937877
1099.227818
202.2489142
811.4377216
799.5182259
706.5859366
719.8982985
1458.115859
3408.998116
423.0249115
1729.815908
971.5370824
3871.700275
2044.171618
438.6817162
427.4213894
149.8591824
158.4923773
465.2057759
526.1928305
4161.626493
828.6426431
209.2204312
225.2257377
190.4999258
203.2890903
824.5339147
948.6231148
1158.703447
125.4041651
688.0493783
514.2567149
1183.494484
692.4988488
128.8852043
92.99037318
252.342541
124.2828562
439.4368287
276.1327265
98.59560711
387.5798887
655.0183557
480.467237
457.9602604
188.4753206
1441.001279
189.3295274
162.486941
1325.803925
1211.121977
1426.843046
1340.818154
166.8249929
861.2260749
867.8213219
681.8607393
254.7896923
247.7621858
257.8987619
256.3392713
678.9211514
598.5628228
225.8880256
207.6565817
244.3170887
231.3292414
611.0421007
276.227412
279.4907231
225.1546005
227.8045723
535.5925851
4020.613311
544.711589
416.5279035
424.2940856
340.2787816
345.0256196
919.9900146
684.3623686
337.7386778
832.4978481
1356.235814
575.8976628
174.8865474
186.1661115
161.5929223
171.4020575
565.4556181
990.9501498
776.0864924
791.5434825
548.4826884
554.0995699
4982.17316
774.4520137
403.8962532
447.4381278
232.3085507
247.4287534
1533.819837
3088.678
1036.03142
1752.361141
1203.349279
5867.579449
2011.22415
4924.89793
1199.48914
555.2375689
3207.322635
1288.515695
1734.757125
1396.329951
1885.767564
44.260182
114.1201094
102.5527235
170.0246458
4139.383609
7651.969372
260.5664117
119.0471026
127.0178518
532.9190987
2200.193357
3287.776315
359.1481573
390.3125849
729.4726329
197.3554941
207.2358828
426.0482216
105.8108449
78.80423631
144.0775217
242.1503063
97.12746169
110.3504574
939.2837511
2123.341827
2216.737894
744.1065903
662.6677393
1800.033754
1336.704842
2934.116683
2943.951465
789.8561471
270.0392325
115.6805261
121.063194
109.0580602
113.9672229
263.8984568
139.8134797
147.3103428
421.9191398
1097.079712
406.9301115
430.1765165
6445.994744
2818.691191
393.7683569
583.1310048
1918.496748
2111.369073
354.237207
169.0914676
143.6777843
200.3688657
177.6752183
368.3754644
843.3429739
2841.440499
2931.044678
963.2221061
209.3789819
102.9996944
107.5088549
677.650256
659.7840619
293.0093762
1268.585639
1176.534098
586.1217483
440.5949742
238.3215908
245.4613774
596.1770652
255.1062643
257.7090224
247.9320299
253.470602
587.3895898
337.0615665
130.9055125
137.5134289
122.9360219
128.8260065
332.0497675
395.0057591
1048.468038
1034.676141
1735.698021
1679.296284
472.6239125
319.9577106
722.4414965
680.6915466
1028.551782
1017.735354
362.5381899
327.9473615
660.9140242
534.9922832
5284.844209
1450.5353
748.1216222
952.2344615
522.1178606
1775.550982
1744.335708
1790.221058
604.867452
4051.514345
8975.752401
322.7797251
386.5981349
439.1894831
461.0721388
1230.030859
1182.83585
800.4917894
452.9303788
1944.282795
7387.340405
1111.044755
987.1602239
16241.31025
1169.233989
1781.198985
926.2592764
1045.608484
835.3403853
4170.240019
4248.749622
963.1020383
1246.215354
4935.48704
1250.629425
1181.999508
232.4403374
809.5052307
331.9711797
805.1099343
252.8142502
3202.237589
2076.14387
700.4805073
3919.236661
4642.186214
3800.023188
2413.502149
775.849401
3973.90491
5158.463191
2372.50006
3744.890053
5566.415654
1335.482756
2017.409943
955.6895466
1196.155542
4954.452325
2142.265715
654.0887909
421.3290528
1038.543004
715.1162146
383.9022293
250.4179634
632.0416299
2333.436014
2951.779752
894.840626
757.2499235
2242.049454
2337.556957
1959.439641
1866.398444
676.2249249
3298.318902
3195.680787
2368.451328
3235.607999
3145.349239
772.0271943
3046.20309
2013.871409
2157.577105
2460.492528
1313.551163
622.3869878
669.3402559
2775.479491
773.7918548
870.713462
688.3944213
746.3221353
2573.299827
2812.168606
758.7010005
890.8882569
374.4589417
398.7787213
991.0061177
789.7612344
350.7713866
368.2874204
1071.351334
1091.982244
661.7661266
215.9638733
240.4193368
189.7409762
209.0565649
652.3218563
758.3261006
279.7166405
312.7185563
248.5346738
271.154778
762.3958497
375.7139254
168.1835364
184.3091739
557.8740393
590.9781774
1382.233026
1452.650247
554.2630529
2036.649697
2042.522714
2560.030087
1392.170384
1153.014733
1973.854656
1380.02811
394.8743068
988.3711141
1318.840821
1506.592828
439.8039464
508.0852131
410.4561549
427.7753582
1457.288912
567.0845548
582.9073338
531.3265933
561.4961917
1282.721579
346.5755226
362.7754761
321.5959895
340.9647566
1266.183654
1391.065027
389.1584646
404.5608322
368.127089
383.8720314
1382.39489
2691.105116
2785.672551
848.1067471
928.988616
2740.289369
2663.764778
950.9309033
960.4734105
916.2728507
947.8236363
980.7401986
999.0847634
963.730022
976.7853737
607.8634373
622.7599413
587.9454401
602.6560887
673.2665658
866.5613079
629.877082
646.9506989
1123.962457
1302.985065
904.4160316
1048.543599
4243.768259
2034.266126
2206.981007
1387.175145
1944.533647
1067.432001
1056.518944
400.1658232
1761.966875
1768.685263
1719.352042
1749.424256
1823.720472
460.1153884
1637.442472
1130.518258
977.5440072
746.2370858
324.6349884
1059.856572
1595.132039
1000.64807
1071.151608
1672.154279
1703.620317
1619.437467
1658.810015
358.146754
1014.106923
999.544368
4712.537854
983.005838
4546.175902
3826.002544
4530.831601
1049.420164
5542.915075
1291.097172
5205.73169
4347.775877
756.7897725
854.6127253
1817.91968
1781.863645
527.922469
586.2423815
1896.340778
1821.74545
4936.331328
1281.15859
476.427809
531.1421196
5297.68819
6103.156531
2038.064781
6684.005791
4623.536988
1310.095422
1171.795957
5877.148961
2957.231305
6456.665062
3444.231878
1713.735298
56.48022796
39.58944494
35.27948634
4778.805229
4755.881292
120.1517468
65.80136659
66.0208345
4996.142215
744.7773025
2093.939201
1394.399527
256.7467511
219.2873616
138.4433298
206.1085973
155.4502064
288.6997043
898.7315324
206.4816026
223.2591955
48.13365267
55.08589759
93.69781651
275.0805819
484.5470846
689.2561773
176.0225102
92.21268103
96.06856685
87.3990983
90.97583612
172.3584785
654.9051586
725.8827241
2365.038637
511.5391382
452.6331747
276.3744667
329.8998731
345.5782989
783.3766648
746.0193364
949.107212
375.2822596
97.40366916
101.5649965
205.0661382
263.2436042
613.9867306
583.1929845
558.7404004
486.8801026
239.3463811
652.1029894
308.9088485
324.7941152
3751.799494
3460.128324
1876.180154
1808.67886
1783.41579
1115.994941
3021.122575
4953.70431
4341.306078
979.2229706
579.0043347
637.9986807
1919.183737
1161.084627
1848.472427
1833.564508
1877.964735
1655.128285
4054.919594
2759.728594
3151.445545
4663.203669
1146.899831
931.847603
557.2108433
1199.143095
134.62203
108.6199123
176.5996493
677.6790879
1768.030859
1263.823375
5366.300492
5744.597946
5879.631509
4682.632891
5539.390071
75.66614118
93.88411753
200.0660375
1712.489093
1128.175679
879.4449388
2267.527414
1772.370416
1592.420649
3033.006515
2732.404867
4595.725597
4296.403323
2898.017187
567.3544982
608.3035896
1212.718083
4034.846585
1966.289883
2197.496911
3526.510022
1925.93534
2285.208664
995.0392638
1356.49483
1133.686736
677.8922332
447.9303553
456.4628895
1139.550716
668.491667
711.5660181
462.5858576
475.1721898
711.1275097
147.2240733
163.728936
349.4478827
446.4404243
812.1043043
566.1612216
1018.883191
1065.867383
654.8212153
1849.215156
1299.112111
1359.066431
844.4519152
848.3821982
1448.594821
1495.499307
1513.864934
1396.849084
1424.08684
1309.117293
769.9108921
776.8100753
731.0942687
739.8916985
1231.356135
1416.217289
828.0903017
834.2911099
784.0949776
791.3829068
1355.108589
634.6125036
619.5521285
266.4851956
289.7023349
654.9116297
639.4585701
451.2132631
436.6088511
217.105086
1569.264973
1572.941043
1522.047788
1529.204766
1984.658177
1584.13874
1585.991222
236.3533603
474.3698061
457.0760218
3855.798089
3806.405514
2317.252467
2448.972356
3994.455984
3836.463182
4004.613894
575.9738539
1137.379299
956.5080473
290.5206363
303.9699831
620.459957
544.4442538
275.8970366
286.7512214
1144.416609
1143.920118
772.139742
794.6680083
1154.464234
1159.047924
4931.256495
1616.144066
1043.061243
1029.067626
11990.2923
2546.950884
1204.777737
4042.564373
3113.383279
1930.21157
1904.422167
1185.296514
5639.985611
6196.156968
5873.607986
4469.078641
1266.658598
1982.921748
1917.567721
2070.744904
784.3360331
901.156424
4688.758386
4606.463241
3414.644212
3140.35444
1695.259756
778.3601868
841.6470778
914.2994902
2610.618089
4661.391548
3911.613729
4718.408746
4493.303604
3018.190565
143.3733582
185.79298
500.3861416
2300.956735
2239.131163
2374.944205
2348.252755
2167.725503
1441.927259
1427.294582
1460.125113
1446.491782
2176.417013
2984.409553
1667.458675
1675.26073
1611.122056
1653.328379
3038.816247
2001.529457
1303.894769
1180.077376
1414.542214
1376.026378
2056.388816
2838.932263
1688.996254
1695.862312
1683.012058
1684.982981
2879.53676
2447.257121
2396.000376
2515.311807
2413.261278
1045.967432
703.9814312
708.4456306
1718.241024
1065.34657
1070.690412
1033.541055
1057.441302
1705.184667
4900.780769
5127.673736
4381.415796
4984.758986
1801.284785
1817.108468
1768.270542
1785.437703
2301.640973
1054.740058
1732.019309
1661.18325
1763.564936
1079.25481
1084.095695
1073.251085
1076.932052
1755.906969
1697.637522
1744.508454
1171.594763
1628.108788
2271.714468
5291.738013
4891.913347
3535.815695
5179.386688
894.3482082
1285.796759
12836.67525
1230.651566
830.94749
835.9259959
1945.678678
6984.749874
7210.617691
9205.954311
5396.154586
4868.582186
1866.262313
1853.204373
1162.70307
1835.456247
1393.34952
2027.575939
1391.018552
1784.627298
1338.33558
542.0170564
1974.718176
1322.889033
4219.500246
4424.051066
4880.216766
3473.574134
4093.616942
1201.042578
1557.854571
649.9045024
350.7968531
485.3851356
794.9340302
907.2861751
510.6537116
765.3605241
1033.930196
4497.402037
4791.879185
4413.837405
4625.775707
5488.547947
5422.690016
5218.160245
2832.685313
4527.033043
4039.384872
5207.817613
5427.135929
3285.277895
3645.009607
4128.352149
5500.380206
4306.778701
2779.488926
3151.800363
1618.626684
1167.909874
1638.637541
886.8984229
1267.421862
1697.658063
1851.896722
1694.811478
2431.507585
1579.227886
1496.631059
2120.942043
1562.815159
2288.070526
2273.941722
1479.118177
1464.529372
1502.480383
1480.440174
2288.196775
1929.743878
1160.971997
1176.527907
3255.682091
3233.512965
2780.964966
3639.834696
3525.17649
3356.85441
3163.794952
3297.70076
2527.819706
1362.854617
1511.353899
1202.741392
1257.033791
2159.077438
4339.119764
3538.052605
1813.453031
4699.739745
4450.860583
4437.414358
2613.457714
4312.943146
4157.519428
1502.501659
1685.511528
3307.229858
1038.704337
1121.275072
524.8467166
597.2966846
1089.663117
712.2204968
480.6999107
505.046497
925.6097678
884.341133
520.5388603
863.2223751
1187.041515
598.88299
998.5272369
971.8823383
1385.916851
961.8128625
944.4674924
1061.054041
1025.298367
1467.173643
2141.967687
2018.113094
1298.084643
1910.072863
2007.991703
1785.360809
1884.729359
1272.513318
1928.05649
1897.224738
2426.261302
1806.684342
917.9763565
910.5842166
1420.252326
1465.349609
864.1561419
861.6549054
1468.919393
1485.010579
1440.291345
1456.542615
757.8668158
764.2732789
1300.362069
1248.252307
745.9159557
751.8161714
812.8870364
819.4455902
1401.571047
1370.388989
799.0623576
805.9593586
2745.548366
1710.341375
1716.263664
1697.650263
1702.802679
2748.857945
2652.95743
1868.797546
2144.667266
1732.42126
1770.753008
2662.698325
954.298505
1581.003374
1567.813806
1599.34786
1590.783922
957.2341491
936.3608724
1524.819992
1504.461138
1555.733829
1541.27451
943.7130223
987.4788086
1657.374648
1644.733001
1676.319414
1664.14755
990.842595
967.5902349
1616.287036
1608.675788
1636.840597
1625.096291
971.3171708
1553.775977
1559.35693
612.6686944
918.2515878
914.31312
927.6655711
924.414881
618.4293876
1538.628303
1545.105975
1640.310875
1546.369094
696.0933356
995.0290644
1005.210207
1464.571938
1405.184594
780.1494275
632.9961092
937.5673513
935.6415641
947.9089821
951.5024506
644.7001445
1600.915081
1592.877615
3850.720201
3711.279756
4074.318102
2641.089481
3146.686024
2085.780998
3564.745982
3617.399803
3533.207374
3552.995888
2136.70619
1539.738833
2992.172659
2512.941101
3520.764952
3658.541948
1770.044209
1071.916449
732.2255408
734.475531
716.2549906
719.3699951
1057.562555
1762.481204
1778.914421
1726.317076
1746.258601
1717.941177
2200.498774
1564.332583
880.1773883
977.8867407
763.7963622
788.8361179
1118.40445
1488.562127
2096.408341
1636.579232
1554.213498
1014.966983
1694.319434
1677.666962
1736.760981
1685.767649
1010.978556
1681.188541
1695.421297
1634.047526
1648.222836
4353.050369
2655.078228
2835.61917
1921.994778
2325.155452
4458.12349
4454.704752
4280.521935
3140.958555
3665.954611
4795.550543
5001.59703
3521.291096
3761.146378
2618.945325
3078.230515
5199.979705
1852.578668
1853.593541
1833.79799
1837.289127
1205.944304
1218.972875
827.6719184
1921.573316
1814.742997
1873.57725
1863.150891
1800.793576
1095.681302
1105.061271
1086.614502
1093.386876
1796.333798
1843.524468
1121.191523
1184.886574
1107.154185
1124.216576
1847.021157
4723.774596
869.6676423
877.0092063
1286.959561
5115.638172
8199.679168
8569.376332
7851.351588
7947.288652
5754.00405
1985.630229
5736.388353
3876.33706
4288.158775
1182.138279
1894.339212
1875.297787
5832.17773
6375.589003
6118.892266
4890.820529
5379.656967
6757.626193
6416.24628
3875.441759
6086.299419
5149.663248
2356.19471
1888.191454
1254.560622
31.76526896
31.7732879
31.86137077
31.77667681
31.79123059
31.87028744
31.79688445
31.81927749
31.88459141
31.82713848
31.85437788
31.9031028
31.86261903
31.88539369
31.9201966
31.88992767
31.8971704
31.92778402
31.89677666
31.88718101
31.92216869
31.88184779
31.85881022
31.90699924
31.85125432
31.82595937
31.88944174
31.81878456
31.7983359
31.87477097
31.64866099
31.66565428
31.74511487
31.67329162
31.70409534
31.76700022
31.7170004
31.76318417
31.80111005
31.77981854
31.83660459
31.84365623
31.8535271
31.89619049
31.87902863
31.90688643
31.91734314
31.89411575
31.91379334
31.89209182
31.87996421
31.88032789
31.83711177
31.84808437
31.82129368
31.77254281
31.80866068
31.75739254
31.71642796
31.77525396
31.54163179
31.57605348
31.64124913
31.59162962
31.65358941
31.68742727
31.67974235
31.77817898
31.75809127
31.8178545
31.95314048
31.8459402
31.98597528
32.08772857
31.92136385
32.12488603
32.13697042
31.93999181
32.10698223
32.04648938
31.90815898
32.01185504
31.90978744
31.84260835
31.87452125
31.77486668
31.76538281
31.74625115
31.67015767
31.70048137
31.44763916
31.5100246
31.55697101
31.53812106
31.65714483
31.64823242
31.7134938
31.95137518
31.80197205
32.05592304
32.4750519
32.01242941
32.57918693
32.96824429
32.22746294
33.10592597
33.05720104
32.23691546
32.8988315
32.61192102
32.12135588
32.49290701
32.20089108
31.95114325
32.11380863
31.89022583
31.78987052
31.82837906
31.67865148
31.66606936
31.37191198
31.47291944
31.49838718
31.52115824
31.75030353
31.67091768
31.86686271
32.42394157
32.0335745
32.71582841
34.3061559
32.68494363
34.98062177
39.5371045
33.59232986
39.51634219
37.74609743
33.48682031
36.35671494
34.42454631
32.87227427
33.9379416
32.95450199
32.32382792
32.7218558
32.1979079
31.94357014
32.06710431
31.76956301
31.69192477
31.31156142
31.46039858
31.46763981
31.53820973
31.93065469
31.78800678
32.14044664
33.2621076
32.60521855
33.95185521
40.66889948
35.00482093
38.78981112
44.01363743
37.87555038
53.8476775
52.5209109
41.55009077
43.7797676
39.451458
37.53054295
37.66452815
34.53813609
33.24350779
33.94639669
32.77959142
32.31266258
32.52079586
31.96983979
31.80808938
31.26146679
31.46556335
31.46027548
31.57858745
32.14254033
31.98266952
32.44487503
34.08745505
33.49184443
34.59984428
35.9305323
35.46738436
46.68294461
52.27699237
50.3373811
77.28859666
57.42862293
49.14294621
44.25950441
37.05369628
35.0674298
35.85201678
33.6588012
32.97123115
33.20558782
32.28256111
32.03802473
31.21816452
31.48013061
31.46863687
31.62716504
32.33747142
32.19343562
32.70956528
34.68070406
34.24982959
35.52780911
37.25103019
36.97603921
53.26195409
62.5326288
61.29273118
120.0183221
77.49697389
70.23770364
50.96297856
39.88058827
37.73339095
38.03319613
34.70024582
33.90321317
34.02424396
32.6720434
32.37434179
31.18027332
31.50137987
31.48481259
31.68069269
32.52298192
32.38381049
32.95597696
35.24682957
34.81368702
36.29204501
38.41761985
38.08498698
60.53930643
79.10680959
76.37454327
135.853212
88.85741276
85.79664691
55.43611382
42.25641153
40.50278457
39.94751903
35.71109866
34.95403778
34.83611866
33.0804189
32.77435118
31.14823188
31.53153025
31.50830039
31.74326319
32.72315034
32.57097282
33.22283521
35.93889887
35.39536223
37.25340493
40.11533947
39.58708887
69.613492
96.37005585
92.70874055
132.1556695