/*--------------------------------*- C++ -*----------------------------------*\
| =========                 |                                                 |
| \\      /  F ield         | OpenFOAM: The Open Source CFD Toolbox           |
|  \\    /   O peration     | Version:  v1912                                 |
|   \\  /    A nd           | Website:  www.openfoam.com                      |
|    \\/     M anipulation  |                                                 |
\*---------------------------------------------------------------------------*/
FoamFile
{
    version     2.0;
    format      ascii;
    class       volScalarField;
    location    "0.38";
    object      p;
}
// * * * * * * * * * * * * * * * * * * * * * * * * * * * * * * * * * * * * * //

dimensions      [0 2 -2 0 0 0 0];


internalField   nonuniform List<scalar> 
12556
(
648.4240573
647.6631859
645.7978554
641.9334844
636.4316194
624.7180585
605.4704502
574.6179255
528.0890439
460.76442
368.5765241
250.7486143
112.2394839
-35.86013104
-179.4252431
-306.7669843
-411.6165959
-493.0398708
-553.3032976
-595.7350367
-631.3323203
-647.6497694
-657.0769716
-661.4366914
648.8992836
648.409304
647.0915377
644.2174581
638.777665
628.8138787
611.8427288
586.9648162
545.4035023
483.3587272
395.3639035
278.6512075
136.8645196
-18.02663202
-169.9601672
-303.8838308
-412.6581681
-495.9278348
-562.8980376
-602.7420337
-637.7119505
-652.0656509
-660.3759662
-664.2198544
650.0129021
650.1233201
650.0772759
649.3511815
645.5689731
639.6091814
628.09971
606.982312
572.7364128
517.528789
432.4113227
309.8279725
151.5554782
-24.68721799
-193.6626483
-336.4053604
-445.9381316
-524.7389241
-589.336156
-622.6110292
-652.4030831
-662.6055407
-668.4406359
-671.0730745
651.2868984
652.246173
654.0145007
656.1548005
655.5399638
655.1574609
651.9277089
639.1558995
618.2312059
577.4131956
501.3950496
371.1783863
179.9181442
-42.5476648
-245.3451037
-400.4886971
-508.2470413
-577.9699168
-630.5678495
-652.7200905
-673.7498602
-678.0953757
-680.2375932
-681.0739955
651.8472399
653.7728677
657.6279348
663.195214
666.190663
673.1759696
680.2881728
680.7588788
679.8763332
665.6920259
616.5594612
487.182432
232.5859636
-88.50213043
-349.252053
-515.3913994
-607.0973155
-653.4282944
-685.0954965
-691.530204
-698.5512487
-695.836383
-693.4780687
-692.151116
650.7394544
653.6258631
659.5379584
668.6351544
675.9324526
690.6407589
709.3940131
725.1461937
752.0415984
782.1652485
797.0788848
718.8806468
342.9013122
-220.2218675
-561.6984636
-700.176632
-744.5211309
-751.26329
-749.2874742
-734.5266347
-724.0016486
-713.2785106
-705.8296593
-702.1693268
647.0524648
650.7807499
658.454874
670.6270977
682.5191028
704.0776097
733.4052977
764.5782702
819.291382
901.4390088
1029.084483
1205.023755
695.652965
-676.207572
-962.9399113
-966.322827
-916.6654104
-861.0023899
-815.4852025
-776.2485567
-746.8407908
-727.3722762
-714.9324444
-709.0468998
640.0001906
644.3459839
653.2977925
667.6603187
683.5583766
710.1890379
746.9031804
790.0530588
863.4797454
977.2467546
1170.721625
1581.247315
-2071.124801
-1581.663263
-1279.847891
-1091.9712
-964.5867598
-871.3949125
-809.7564659
-761.2925125
-734.7899647
-718.4023293
-710.657372
628.9833016
633.6490457
643.2460133
658.6972099
677.6289317
706.81969
746.8532815
795.9630855
873.8988134
983.8045843
1128.340605
1265.04724
-3502.397646
-2089.119606
-1520.930512
-1219.34454
-1035.485029
-904.3098891
-826.609168
-763.7427717
-732.7999573
-714.0592768
-705.1464019
613.6665219
618.3252924
627.8791628
643.2316272
664.0002187
693.1971962
732.6622087
782.2608584
854.9353016
947.8699146
1049.030012
1126.079355
-3419.534699
-2156.118874
-1575.987884
-1251.594261
-1051.665522
-904.706
-821.866775
-751.7811382
-719.863924
-700.6085144
-691.4127691
594.0174536
598.3634585
607.223983
621.3309999
642.8326757
669.8060924
705.683172
752.0091405
815.6022545
894.1358131
979.1145096
1056.243955
-2642.050419
-1864.05131
-1444.784081
-1181.749661
-1007.999167
-870.3302849
-794.4056902
-725.0117749
-695.6448179
-677.7821277
-669.1947713
570.2834402
574.0542007
581.7253768
593.4264524
615.1859225
637.8409539
667.9315941
708.4973064
761.1438838
827.931865
909.4100789
1008.2717
-1767.475797
-1417.360454
-1200.663748
-1037.719279
-916.4036206
-807.0800294
-747.1755381
-685.1301173
-661.2530301
-646.3386155
-639.0929458
542.9726962
545.9851394
552.1919883
561.1254442
581.0321179
598.7348411
621.3789203
654.5307965
693.610152
745.1711982
817.5473056
935.0453598
-778.0907586
-927.161562
-965.5903395
-924.2299256
-860.9597093
-798.3768248
-725.6682634
-685.8731421
-635.7701312
-619.0112738
-607.884314
-602.44109
512.7352314
514.9009509
519.5114576
525.8570431
542.6508213
555.0908707
569.5286279
593.5955778
616.3012476
644.3909802
681.4090223
778.2165781
218.8959836
-395.722831
-607.7340672
-676.9293425
-687.4657343
-673.9371236
-637.8775222
-616.9915597
-581.7993929
-571.6817977
-564.4979098
-561.0294118
480.3252981
481.5534732
484.2611892
487.7673013
501.4724703
507.7726224
514.197911
527.5058691
532.5395731
531.9462909
515.6898145
452.6056472
173.2866394
-174.1303715
-381.5435828
-488.7727456
-539.7335308
-559.6995705
-551.6000795
-547.310522
-525.7666421
-521.6614235
-518.3303247
-516.7665073
446.529607
446.8583087
447.6593697
448.4156445
458.9914187
459.7868507
458.9163769
462.5641556
452.9498459
430.9842302
384.0515026
289.8947659
122.231999
-87.8704505
-250.7798791
-358.6839497
-424.5582289
-462.2015193
-472.6739234
-480.6324593
-470.3375123
-471.2824312
-471.3481879
-471.4226486
412.1461358
411.6967523
410.8254761
409.1817512
416.7623257
412.8891819
406.0420683
402.0052986
382.6144657
348.8151225
293.6813292
205.6874503
92.03417047
-49.86848954
-173.3058671
-268.4778711
-336.5420326
-381.3401401
-403.3549394
-419.3089018
-417.6686323
-422.4703238
-425.1913418
-426.4961358
377.9121859
376.8284833
374.5922765
371.0136789
375.8889888
368.4205318
357.1536812
347.610956
322.9307167
285.5759353
232.0269258
159.8842656
72.3914805
-31.38388992
-127.4562849
-208.4761944
-271.3251597
-316.7688478
-344.1413553
-364.4874421
-368.9704723
-376.3970046
-381.0109349
-383.167748
344.4301208
342.8563863
339.5640737
334.5312126
337.2038782
327.2121406
313.0705788
300.1213619
272.8868629
235.648591
186.9915163
128.0030599
57.14142533
-23.23792771
-100.0347147
-167.4412472
-222.5199283
-265.3454593
-294.3343241
-316.4189667
-324.7001007
-333.6945855
-339.5006057
-342.2446204
312.1640388
310.2433021
306.2003713
300.1726491
301.169022
289.6151691
273.8441026
259.2521022
231.6005135
195.9849187
152.3879541
102.2212408
43.95608271
-20.07726684
-81.8351626
-137.6135969
-185.1801641
-223.9996212
-252.540997
-274.6236401
-284.9604122
-294.6901155
-301.1170905
-304.1607314
281.4502836
279.3164348
274.8080417
268.189908
268.0028393
255.6683606
239.211527
224.2191267
197.465589
164.4855743
125.8270696
82.4583242
34.47419839
-17.89837913
-68.48390053
-115.0418282
-155.9121568
-190.4221054
-217.2729349
-238.3824587
-249.5695899
-259.412312
-266.0205057
-269.1580195
252.5090385
250.2760312
245.5486942
238.6763679
237.7165544
225.2014532
208.8290536
194.1524661
169.0303804
139.0600099
105.0128694
67.7418506
27.35953735
-16.11600177
-58.17496375
-97.34819134
-132.4311985
-162.7933663
-187.3365548
-206.9519862
-218.1710601
-227.704721
-234.1866537
-237.2708072
225.4547584
223.2128087
218.4648963
211.6117257
210.177568
197.9386069
182.1776417
168.2491827
145.1261818
118.2271897
88.35327058
56.264933
21.95120319
-14.54611311
-49.88950247
-83.06189696
-113.1891691
-139.7335949
-161.7711211
-179.6292164
-190.3535383
-199.3153308
-205.4709097
-208.404158
200.3143303
198.1318319
193.5119623
186.8834098
185.2175128
173.5638736
158.7864503
145.8100475
124.8365268
100.9151093
74.77446297
47.09312019
17.77628293
-13.10319793
-43.01905508
-71.23959606
-97.12287318
-120.2286142
-139.7701576
-155.7919393
-165.7086826
-173.9492084
-179.6562373
-182.3782597
177.049301
174.9763589
170.5906284
164.3306773
162.6185306
151.7499742
138.1576656
126.2719361
107.4547937
86.33719726
63.527025
39.62585249
14.50571552
-11.7480004
-37.18342089
-61.25758959
-83.49195784
-103.5325389
-120.6936986
-134.9060948
-143.8481132
-151.2962953
-156.4884833
-158.9660752
155.5751949
153.6468849
149.5679669
143.7719189
142.151128
132.1876262
119.8614601
109.1506604
92.4263311
73.90584143
54.07250835
33.44794793
11.90761896
-10.46331931
-32.13306577
-52.68782333
-71.76593368
-89.08492678
-104.028428
-116.5169291
-124.4123354
-131.049444
-135.7000656
-137.9193358
135.7737357
134.0130677
130.2880645
125.0146798
123.5886901
114.5914426
103.5585345
94.04390557
79.31345379
63.17964967
46.01662468
28.26041927
9.815849162
-9.242306821
-27.69795643
-45.22820516
-61.55702162
-76.45985622
-89.36405191
-100.2419076
-107.0741869
-112.9143082
-117.0227322
-118.9826668
117.5032524
115.9239116
112.5805435
107.8619824
106.7062069
98.69693903
88.94696509
80.61369386
67.76409479
53.81916117
39.0628079
23.84376342
8.108271759
-8.082398748
-23.75628649
-38.65660672
-52.57174702
-65.32405911
-76.36363835
-85.75301233
-91.53890096
-96.61482792
-100.1962224
-101.9036114
100.6084262
99.21737146
96.26928529
92.11867053
91.29035801
84.26541037
75.78021771
68.57516239
57.49450556
45.56008228
32.98465643
20.03133393
6.693180247
-6.982557949
-20.21775243
-32.805339
-44.58339563
-55.41309709
-64.74982636
-72.77059721
-77.54252408
-81.89644484
-84.97447021
-86.44031586
84.92744619
83.72686591
81.17790337
77.59536426
77.13806027
71.07721173
63.83692731
57.6942482
48.27270074
38.19057415
27.60362746
16.69416414
5.500611118
-5.941635233
-17.0120863
-27.54253582
-37.40994162
-46.50883874
-54.29028189
-61.05260673
-64.84882427
-68.5257597
-71.12777575
-72.36502181
70.2903973
69.28025979
67.12864788
64.10344763
64.0651143
58.93246982
52.89293884
47.77475782
39.90676151
31.53776412
22.7765889
13.72956991
4.476243343
-4.957935627
-14.08289429
-22.76212229
-30.90273603
-38.41837949
-44.78907277
-50.3877188
-53.24017533
-56.28586484
-58.43931034
-59.46056384
56.54887114
55.72567719
53.9664138
51.48516779
51.88394742
47.64732309
42.72915267
38.65188619
32.2332369
25.45668897
18.38518598
11.05391621
3.576459283
-4.029223064
-11.38335464
-18.37697065
-24.94256416
-31.00773999
-36.0558528
-40.58507914
-42.53779461
-44.99167426
-46.72258002
-47.54120571
43.47150587
42.83913275
41.47233574
39.51332086
40.46110893
37.05309608
33.16811297
30.15539921
25.10434142
19.82068433
14.32771128
8.595344564
2.764942342
-3.152376627
-8.872137609
-14.31099637
-19.42587075
-24.17835454
-27.92577764
-31.47273627
-32.50771652
-34.4179047
-35.74486132
-36.36552163
31.14741992
30.68509506
29.69955571
28.29483293
29.44111863
26.99242741
24.12303267
22.13529001
18.3893572
14.51807515
10.51491365
6.291294752
2.010695019
-2.323232616
-6.511595589
-10.49491134
-14.25129385
-17.76005949
-20.29520116
-22.8730159
-23.21828904
-24.57476567
-25.51904008
-25.96650582
18.52187625
18.30168358
17.71372754
16.86397523
18.91311662
17.3301233
15.43478628
14.46402275
11.97393881
9.446743062
6.859908343
4.081249056
1.286867281
-1.535937274
-4.265787369
-6.864625987
-9.327116201
-11.65103987
-13.0279192
-14.72764674
-13.83533699
-14.65445617
-15.21268752
-15.42462724
9.317439317
9.096271009
8.782660378
8.264672503
8.595699542
7.810228788
6.899145467
7.025368397
5.762521563
4.510707084
3.265270617
1.894230202
0.5753788624
-0.7805148088
-2.097998095
-3.360793176
-4.57040902
-5.734969435
-5.920214359
-6.705719437
-6.973974935
-7.424222239
-7.70368948
-7.910255557
1297.932867
-3713.935665
-2162.224008
1136.896837
-3716.029525
-3800.864571
1063.045308
-2871.697489
-3638.467628
1014.852242
-1924.119805
-2751.783606
941.7297123
-835.3810523
-868.2447494
-1039.865869
-1808.668548
803.7991022
305.6783321
-790.2588138
172.5357646
-409.9862417
-939.4473106
1581.018534
857.4116325
-1851.974792
-501.3635703
-4628.803414
-2500.41006
-3416.986078
-2205.349515
-1688.770119
1068.101012
1129.341227
1254.633365
-5231.353225
-5329.325909
-3483.442756
-2406.768578
-2313.013556
995.9036279
1053.955547
1117.857681
1096.054314
1118.197808
1157.117121
-3983.312652
-4672.692662
-2750.396338
-2119.433247
-2369.944494
927.9391189
1001.189212
1046.797829
1038.266147
1074.346175
1084.324253
-2689.78982
-3243.499478
844.1246285
930.3127194
994.0233104
979.9814465
1041.79096
1060.852167
-1581.361697
-1509.848162
-2016.906127
719.3140397
793.0324695
918.7307287
890.6306887
986.02477
1007.71816
520.5824007
276.2811677
316.4699821
1547.02651
1261.826882
2175.751085
1616.604126
-5321.704383
-4703.610098
-3247.847184
-4511.511359
-5178.282739
1160.785049
1181.1542
1176.216154
1178.621939
1164.25887
1243.333603
1181.865952
-4712.167267
-5209.85091
-3810.392597
-5089.458213
-4627.095897
-5187.758873
-5108.595656
-3825.55106
1086.921596
1112.833364
1086.912882
1116.115635
1088.855155
1162.287061
1119.100619
-3324.746171
-3931.913857
-3222.807298
-3835.789423
-3256.293571
-4588.266154
-3926.507183
-3335.0133
1062.414789
1074.172128
1032.66991
1077.228327
1066.471656
1087.429151
1077.106926
-2090.449304
-2612.979472
1009.996056
1040.413872
974.9685254
-1543.681637
1045.778741
1014.854783
1064.825599
1047.192067
-1582.332008
-981.9370018
-1437.278607
-1535.471388
1033.764603
986.3633976
881.0708914
-68.15072275
993.2437599
918.0489935
1012.568977
991.853928
-144.4199996
1147.248296
1283.275928
1494.898978
1473.815777
1607.448587
2055.045737
-5310.338548
-2747.042621
1193.579317
1185.669219
1256.807081
-3211.798157
-1874.971133
-1616.510707
-2004.610729
-1951.072204
-1880.752783
-2145.787403
-196.115764
-486.3297301
-848.7878941
1275.755773
1545.317216
1425.597504
1224.609074
2973.177927
2159.843014
-2427.824702
-4346.276757
-3020.702334
-2188.914574
-2474.488364
-2276.11297
-2570.339884
-2063.054541
-3178.375241
-2644.644634
-2394.846502
-1167.443341
-356.0602975
-485.9564318
1414.444292
1781.367584
2194.851472
-2102.519504
-335.7818611
1227.017046
-5450.933265
-3950.212582
-5319.438845
-2684.52939
-5138.08767
-3631.673234
-5293.947358
-5303.077552
-4314.548311
-4361.271929
-2855.925511
-3155.616092
-2923.282128
-3130.764324
-2829.236381
-3499.487102
-3175.499071
-3002.251838
1050.444451
1023.432059
1013.102365
-1551.686585
-1798.580745
-1883.754654
993.6206141
955.9057169
941.407972
974.1415792
960.500356
994.6507757
1429.065781
1245.17515
1383.727557
1265.858735
1467.254168
1170.447108
1247.195151
1344.082496
1966.302133
2144.376892
2825.124942
1517.299045
2041.484434
1873.68719
2039.883481
1485.900962
-5148.077405
-5113.941844
1171.492354
1169.372697
1170.833167
1205.135602
1155.811187
1169.948055
1165.965396
1156.162369
1197.157962
-4954.25075
-4984.151269
-4892.777578
-4342.391999
-4437.651334
-4153.52735
-4301.319973
-4862.853904
-5187.465254
-4484.611179
-4423.950958
-4458.943476
-4488.203801
-5178.898759
1100.414006
1098.484426
1144.363256
1140.989191
-3574.090314
-3532.606202
-3619.114399
1073.204234
1072.154597
1079.738219
1079.079932
-2784.955035
-2493.878198
-2386.709737
-2515.078984
-2808.217981
1020.259335
991.940089
978.516652
1009.302183
996.5302789
1023.58922
-1214.519464
1027.676258
1023.883306
1055.095534
1054.448249
-1893.396421
-1211.847552
-1223.626487
-1469.617973
935.5346044
915.4714534
964.7951294
978.6369275
457.1065699
145.8131639
1000.796184
-347.1823201
99.01158914
-266.2086757
1000.566373
-395.6588865
-293.9693892
67.58454867
-3019.193424
-2078.267175
-2215.822575
555.7399119
532.8347072
759.6017797
651.8153016
660.4585167
958.3477159
187.0354026
-128.9615776
-302.5711923
3970.846832
-2248.86411
-2396.028754
-904.2871569
-1141.524595
-1166.255079
-146.3317702
-384.3217071
-124.0485428
2297.589029
2540.128433
3009.727598
-2262.856563
-96.19841164
1742.394104
-5266.452606
-5776.879624
-5738.411003
-5331.24434
-4124.679817
-4313.140069
-4138.404387
-4925.634302
-4788.116817
-4546.402864
1077.176364
1062.736148
1056.569899
1073.059844
1065.062088
1078.201033
1035.563744
1026.571603
1051.404495
987.5422568
969.5262587
964.2713031
861.0290997
592.877291
337.7525241
-5263.47098
-5718.058471
-5793.43827
-4964.083412
-4118.886794
-3778.765772
-4385.060949
-4203.385903
-4991.361705
-4823.52636
-5088.069822
-4971.229105
-5125.739994
1095.832557
1086.236299
1076.073999
1093.946311
1096.003689
1092.393406
-4084.22515
-3932.17974
-3795.648608
-3578.476264
-3342.951136
-3557.70633
-4293.060929
-3907.99151
-4096.605343
-3629.367577
-3840.407356
-4248.21376
1068.871248
1046.023999
1038.397375
1054.621362
1048.365175
1069.901262
1076.919507
1090.070085
1086.629802
1078.399974
1088.886687
1070.511934
1083.646881
1087.617942
1092.693266
1085.050841
1082.330288
1077.120266
-2312.369006
-2453.728469
-2179.740889
-1413.066937
-1403.735777
1040.150397
1010.439539
1059.571805
1067.083784
1077.446178
1068.854992
1049.979391
-1710.750725
873.3537708
908.4153867
871.7500502
962.298243
954.1773712
982.3587716
112.9844481
363.0214631
127.1247369
992.9687957
428.5724241
669.1924488
492.5004573
646.6471873
1002.492462
995.8907228
-4586.040411
-3120.37131
-4230.532009
-3329.39793
-3382.577049
-1907.953905
-2035.589764
-2058.321954
1196.937449
1186.784103
2685.210262
2984.74343
3657.842674
2770.339571
2554.927105
-2548.437546
-2401.582688
-2349.915338
-2412.408166
-2568.731875
-1186.329556
-1021.601106
-1023.795416
-1027.620566
-1191.737936
-819.5183712
-980.6214151
-601.0296127
-614.1326302
-771.444278
-407.4497747
-562.2549869
-507.2337157
-5685.049449
-4991.831578
-4502.404903
-5424.212536
-5121.884529
-4311.286021
-3627.535988
-4306.886306
-5630.848781
-5583.560763
-5272.406286
-5326.305303
-5713.78808
-5651.525065
-4523.146642
-4367.17048
-4173.074524
-4421.669947
-4590.331702
-4192.939649
-4371.283518
-4634.710719
-4501.247977
-4742.36757
-4571.576379
-2986.38925
-3038.043133
-3006.030519
-2920.079591
-3043.117555
-3358.975598
-3255.943642
-3386.363988
-3084.346783
-3212.674827
-3310.395346
-1764.519121
-1732.785425
-1862.984098
976.3847264
971.5309666
985.0444048
996.5624249
983.5011304
978.7141124
1325.045379
1302.376192
1328.917785
1400.314474
1328.642914
1537.249087
1429.37065
1355.438041
1200.142087
1249.125305
1217.955542
1309.388135
1262.08377
1211.171133
1695.184565
1730.711453
1579.141329
1745.531
1665.11716
-5662.391733
-5686.845077
-5238.484391
-5813.303582
-5821.75768
-5818.188166
-5656.017001
-5510.643028
-5818.749303
-5682.490379
-4970.31878
-5498.335666
-5645.833275
1166.730659
1171.433098
1172.904264
1173.125196
1171.987181
1168.894069
1178.27942
1179.437963
1174.867241
1177.425265
1158.127195
1189.618414
1180.801812
1210.724397
1193.807191
1159.135676
1164.465906
1174.96975
1173.202239
1178.906663
1175.846423
1165.181797
-5224.155723
-5123.450615
-4858.230778
-5088.286971
-5364.040233
-5249.255007
1109.162842
1104.12579
1119.619955
1109.956279
1096.87188
1096.027487
1101.556819
1096.94235
1166.212916
1154.658877
1178.544956
1169.868462
1133.81337
1121.833749
1150.65394
1138.318711
-3601.496463
-3736.902416
-3429.810692
-3559.059148
-3659.113745
-3980.813215
-4135.187737
-3782.728412
-3932.976172
1082.82811
1089.16823
1076.309605
1094.521159
1085.210185
1089.415446
1095.960621
1084.624273
1070.504156
1086.935487
1081.72492
1085.642771
1086.088128
1082.313016
1089.152822
1088.679273
1094.703136
1089.6977
1082.988269
1086.973795
1084.387111
1082.459521
1077.381078
1082.038139
1084.120584
-2581.683573
-2641.359884
-2708.074773
-2569.098357
-2751.764632
-2681.317168
-1204.90023
-1359.564596
-1396.4857
-1203.064859
1038.265224
1014.856253
1064.102819
1065.066448
1058.042954
1051.542789
1070.916042
1065.350515
-1783.12617
977.7242197
950.4972642
943.2287578
637.7386774
531.3167381
990.7610396
230.7461688
398.657269
286.8059582
998.9402102
-500.9221332
-61.25613778
170.8603908
-108.8867525
984.8603549
-1814.593132
-1480.261679
-937.5354758
-2206.755078
-2256.896731
-1053.204732
-1088.106136
-1481.200865
-2270.05118
-978.3630204
-975.9367759
-821.5561279
-1991.717608
-1524.6072
-1467.448568
2978.847645
3356.997975
3939.309201
-2003.826575
258.7232763
2377.945238
-1086.11589
-635.0715395
-2094.618131
-4312.82111
-4882.23291
-5190.313046
1136.062198
1123.028775
1107.835608
1143.101989
1128.190905
1141.967987
-1559.702198
-1689.148107
-1711.29449
-2099.217618
-1858.25837
-1796.685716
991.8810745
986.0698785
999.2940255
-5279.347156
-5453.930951
-4922.939742
1103.040453
1090.08138
1099.491056
1108.653232
1110.349738
1119.179372
1121.681396
1132.563859
1128.079804
1009.902589
999.0536773
994.3123138
-1558.371493
-1515.534193
-1502.190392
1019.698984
1023.707846
1016.254409
-1644.1643
-1657.641394
-1574.076773
-1398.77636
-1382.02915
-1514.532524
994.1973282
1010.645051
1017.030706
1017.642677
989.0783397
-5153.352653
-3246.0356
-1932.062785
-1990.544673
-2000.080612
-2196.422244
-2065.275635
-2023.679371
1208.860728
-3634.49152
-3103.718945
-3677.515519
-2309.730095
-2369.069042
-2236.460214
-827.8086038
-844.6394214
-675.8076321
-679.4234163
-771.5114964
-1113.514337
-474.9234333
-2268.669254
-5487.802614
-5224.279506
-5054.214588
-5784.517052
-5727.237056
-2898.497282
-2928.162042
-2884.119379
-3171.818706
-3159.452811
-3131.585669
-2754.834182
-2877.225269
-2958.805659
-3465.242342
-3417.509941
-3461.201511
-1872.102439
-1849.038896
-1882.651798
1383.790631
1415.206152
1264.730103
1285.453538
1310.378424
1289.876392
1173.317417
1192.68934
1186.719876
1271.109502
1254.725999
1231.641648
1992.289936
1792.168399
1770.78582
1932.787324
1901.524594
2038.733531
1460.932549
1505.746321
1537.111319
1166.052281
1167.675525
1176.002032
1169.837488
1170.689161
1170.767225
1189.435559
1191.573702
1179.122105
1178.935135
1157.792058
1165.575991
1164.135722
1182.675677
1178.5428
1167.269835
1162.710331
1166.425987
1167.991
1163.742818
1165.068478
1159.795537
1103.243659
1108.645472
1106.262247
1093.854163
1096.676186
1101.146198
1152.025512
1162.692888
1153.001316
1164.037844
1159.539169
1192.327785
1189.220334
1124.141837
1155.066787
1150.632714
1131.478725
1136.619815
1148.267556
-3757.850048
-3809.030889
-3502.662847
-3549.742265
-3576.834071
-3858.175066
-3884.538592
-3748.059776
-3884.439221
-3741.509535
1008.035228
1001.512409
1011.966905
1032.640509
1017.679036
1010.987362
1031.479059
1036.77168
1031.76977
1020.604407
1024.065837
1027.180732
-1887.447948
951.3477538
950.8022243
955.1509883
718.597784
962.5568418
330.4372063
469.361567
601.5586271
1006.635975
1003.694461
999.7813875
-409.389015
-259.8359136
-233.5572799
-246.3429737
998.336641
1004.832816
1007.168319
-139.4095578
-208.2753817
-354.9507166
-2116.343106
-2155.030431
-2240.791348
-2196.829268
-2174.746623
3779.646842
4389.7607
3478.25012
-2297.084997
-2322.986101
-2258.011559
-2415.426902
-2366.87139
-2351.672668
-1073.759372
-184.2772946
-2060.24137
-5512.651007
-5505.461977
-5473.012386
-5496.644142
-5761.312088
-5629.162042
-5639.026282
-5609.091332
-5621.194359
-5754.362991
-4883.691872
-4806.318817
-4849.015396
-4713.350399
-4762.331336
-4839.585653
-5762.212897
-5604.720031
-5572.887125
-5640.765211
-5630.216031
-5789.415329
-5047.704501
-4968.045061
-5005.582664
-4890.982403
-4930.479036
-5010.380909
-5435.980626
-5454.696919
-5362.96143
-5402.780807
1089.503402
1084.952737
1085.053069
1079.865864
1076.651395
1074.769629
1080.950898
1079.378985
1083.824716
-1521.211659
-1568.79927
-1405.055346
-1474.050154
1050.330583
1051.531165
1052.723724
1049.963307
1011.702067
1013.679688
1021.730396
1008.269579
1070.491669
1068.083305
1065.444098
1073.241913
1071.002947
1074.641418
1057.974076
1057.938751
1061.894754
1048.164892
1054.221955
-1720.127828
-1708.841174
-1695.328594
-1576.530578
936.8593164
999.0522472
1162.346439
984.6917047
974.7393912
971.7081367
994.5039319
365.4391502
343.8272094
1138.114836
1000.840059
746.0434796
1003.767029
1012.285338
1007.345296
992.4066017
-4776.213339
-5084.912046
-4910.001414
-3883.935278
-3686.155345
-2949.015428
-4503.694875
-4152.32714
-3284.177265
-3416.283907
-2050.115395
-2036.262202
-2050.680541
1201.784972
1169.876784
3217.670944
3089.470087
2912.542718
2283.933203
2145.637078
2710.660523
2477.259523
2548.433167
-2475.166671
-2424.748757
-2518.780561
-1046.300723
-1043.802498
-1030.503278
-1137.155916
-858.3712292
-844.738999
-826.600093
-974.1279452
-921.9921541
-916.6366733
-603.1739712
-657.2550676
-658.5148085
-484.0339476
-485.6555532
-533.8481776
-5511.529841
-5378.290197
-5597.255903
-5329.703966
-5558.049536
-5644.866124
-5688.101018
-5631.555377
-5606.756279
-5513.327177
-5527.563743
-5501.431737
-5504.544556
-5587.655453
-5690.0575
-5576.639547
-5593.613022
-5543.683736
-5559.646398
-5669.915895
-4474.858013
-4402.363308
-4450.536666
-4476.269797
-4537.770965
-4249.320173
-4274.492201
-4234.369483
-4318.756522
-4683.799315
-4725.588605
-4688.856098
-4605.488785
-4660.736306
-4499.452723
-4551.657931
-4627.164599
-3021.748343
-2952.925601
-2936.325054
-2966.077379
-2900.716438
-2948.533263
-3089.40197
-3118.327079
-3068.427412
-3322.72317
-3366.686816
-3398.654434
1351.015104
1282.336317
1216.298884
1202.375393
1182.921015
1220.495519
1240.978014
1228.730308
1705.835074
1790.339089
1836.20577
2026.30739
1911.682226
1595.589326
1561.496641
1630.4862
-5672.628256
-5499.10407
-5481.114655
-5539.682335
-5517.089931
-5680.091656
-5828.549645
-5825.345946
-5628.37164
-5810.346176
-5821.107454
-5743.803874
-5792.556715
-5583.126919
-5799.856347
-5837.450718
-5874.441825
-5735.64719
1168.603826
1169.176972
1166.952055
1170.515922
1170.502099
1169.68055
1184.207043
1186.790617
1179.628393
1181.713711
1167.999317
1166.77836
1158.46167
1162.650342
1174.015174
1170.257779
1167.242258
1166.416842
1162.597762
1163.450981
1166.753414
1167.561295
-5194.489168
-5109.293502
-5138.857109
-5041.749852
-5075.930039
-5158.154185
-5317.235316
-5243.44708
-5312.932649
-5166.406763
-5197.563533
-5278.818108
1108.141867
1109.117719
1109.145668
1105.005126
1107.759287
1106.43957
1115.497971
1113.183282
1119.87851
1108.343493
1108.944467
1111.812961
1096.964884
1098.45967
1097.477203
1098.445964
1098.871739
1096.747934
1099.287658
1098.788061
1101.601547
1096.588258
1096.938786
1097.711334
1173.083129
1168.643543
1162.495459
1165.749367
1169.757063
1157.305223
1161.551092
1158.625739
1183.072294
1177.500305
1137.712425
1133.996628
1129.503149
1131.871535
1135.737323
1123.189216
1120.501584
1123.621426
1146.608578
1148.8202
1153.064632
1140.358962
1144.591369
1142.510064
1146.369938
1142.163825
-3684.610219
-3716.12124
-3628.893491
-3598.50185
-3636.674307
-4027.335108
-4060.093566
-4018.16931
-4174.92905
-4112.675489
-4078.378887
-3827.793581
-3865.478504
-3826.026737
-3973.880286
-3927.483693
-3881.126013
1084.344913
1081.105454
1079.595504
1084.360426
1082.873519
1086.819529
1090.478676
1086.871448
1092.07886
1094.427873
1085.565981
1078.079256
1074.234056
1074.815747
1078.3553
1078.15152
1077.434596
1082.412954
1079.999466
1082.960366
1091.543884
1088.413285
1092.97522
1094.708885
1096.837074
1091.985355
1093.159524
1091.403247
1083.736085
1085.023516
1082.008086
1081.917368
-2663.431527
-2643.582065
-2692.737918
-2554.124321
-2598.155214
-2630.433296
-2812.833077
-2851.673963
-2733.36927
-2751.238354
-2761.995018
-1336.740991
-1333.615587
-1386.873212
-1211.589946
-1269.043111
-1280.33194
1041.46017
1034.227506
1051.671973
1048.362741
1019.708188
1021.031456
1017.339474
1023.533904
1022.247021
1029.205828
1026.174548
1063.773194
1061.974295
1061.890281
1063.627959
1062.53888
1064.079593
1069.873585
1063.780144
1063.184717
1062.274942
1063.070086
1067.55588
-1836.063482
967.0264465
962.2954528
973.1783025
588.6690367
614.3501624
686.9092811
544.0266654
556.0901912
532.0551517
988.5685027
329.3531008
274.8591386
204.9276556
998.4831646
999.9810636
998.7633815
-476.4509221
31.57789852
-30.59175472
151.2262525
133.7337687
148.8623369
-53.05133637
-184.0479869
-167.1999565
-66.25647183
994.5147402
1003.481459
997.018513
600.6617544
575.013399
557.9994093
564.0395825
523.4347977
501.678161
506.4715976
445.1643241
420.4870054
420.2573119
333.2706829
310.5023113
299.4688327
187.5698598
173.4728528
146.6702945
20.42100864
19.62817029
-22.52509969
-146.313883
-133.9506416
-185.7973258
-293.1370544
-272.706241
-325.6706943
-410.3076366
-387.6328556
-435.0255108
-497.3751462
-476.7803077
630.1059106
612.972612
583.021739
605.2348768
573.8221915
533.8533017
559.8957765
504.543401
457.1173971
480.5868194
389.3466279
344.2864935
352.012944
220.4557985
193.8755885
171.1706229
15.65899807
19.79539039
-36.35711161
-183.8513101
-153.168995
-228.7115065
-346.8813656
-303.6348753
-380.7070522
-465.9701477
-421.5118083
-489.3814445
-547.0696184
-507.470327
669.784634
665.7245437
624.8909341
663.1009546
648.743778
590.2086929
640.8389437
602.1266579
524.7911782
582.3678068
492.8894594
409.6759765
450.7254319
283.5075775
232.5603617
216.002794
-1.347054072
13.10454574
-72.62224343
-262.8847067
-198.5964985
-316.2702011
-445.7892113
-366.4701161
-480.0905851
-559.5082435
-485.1005648
-579.0582315
-621.984802
-563.6127191
714.1996337
728.8848196
680.9945087
733.8817951
747.7869042
671.3335427
751.1272388
751.1283857
634.1460783
745.0789305
685.8223322
530.3136061
644.0305128
416.1888574
307.3988301
306.2022015
-59.6045138
-9.867615633
-172.0870221
-431.6598418
-293.5116474
-493.754224
-620.9553905
-481.2966026
-646.9876772
-696.6853099
-589.6393984
-706.4319208
-722.7148272
-644.7414381
755.7021233
790.1453041
744.8663547
803.9441199
853.7689421
774.8073777
873.7182544
944.6479003
796.9758945
971.4282378
1045.063953
756.9128154
1050.926294
765.8040669
472.2760031
634.4601158
-310.6925508
-91.92169471
-500.3501568
-800.0894497
-498.9694611
-841.0785786
-889.933363
-678.163108
-892.4030583
-879.587501
-738.2920131
-871.7280552
-843.5508372
-751.5946748
785.4335617
835.138523
803.4767212
855.5149535
932.400538
877.5227915
964.884707
1095.171501
991.6090867
1155.252411
1493.017824
1164.436962
1395.668011
1548.966925
1165.000633
980.0612357
-136.6589392
113.0292109
-977.3362712
-1037.899181
-812.8445877
-1417.372598
-1249.570639
-973.8196134
-1202.473791
-1083.511545
-930.5576131
-1050.208744
-965.0682832
-874.7356663
796.4058603
852.0482697
842.1644884
874.4235943
955.268277
943.6115437
987.586868
1102.935572