/*--------------------------------*- C++ -*----------------------------------*\
| =========                 |                                                 |
| \\      /  F ield         | OpenFOAM: The Open Source CFD Toolbox           |
|  \\    /   O peration     | Version:  v1912                                 |
|   \\  /    A nd           | Website:  www.openfoam.com                      |
|    \\/     M anipulation  |                                                 |
\*---------------------------------------------------------------------------*/
FoamFile
{
    version     2.0;
    format      ascii;
    class       surfaceVectorField;
    location    "0.38";
    object      Uf;
}
// * * * * * * * * * * * * * * * * * * * * * * * * * * * * * * * * * * * * * //

dimensions      [0 1 -1 0 0 0 0];


internalField   nonuniform List<vector> 
25162
(
(99.99908251 0.003771032958 -1.736185849e-21)
(99.99646837 0.003364526787 5.145345816e-21)
(99.99852705 0.009366728464 -1.714965836e-21)
(99.99476202 0.01171272998 1.735876861e-21)
(99.99744632 0.01903406229 -3.420854154e-21)
(99.99095257 0.02566938498 1.032276428e-20)
(99.99876125 0.0222176989 1.058421645e-21)
(99.98415717 0.04885577748 -6.799447136e-21)
(99.99298108 0.04971668515 -1.137254678e-21)
(99.99783668 0.04081737054 1.646880794e-21)
(99.99931961 0.024527114 8.162869749e-22)
(99.99176783 0.06949457153 1.637803145e-21)
(99.99810818 0.03962639298 8.012970336e-22)
(99.99860259 0.03082212016 -8.256714065e-22)
(99.99763985 0.0507196204 8.012643063e-22)
(99.98709266 0.11453361 1.595581697e-21)
(99.99739145 0.06452263426 0)
(99.99722681 0.07985814922 -2.9324552e-21)
(99.98288429 0.1770614443 -2.932439937e-21)
(99.99682415 0.098166118 -7.607164558e-22)
(99.99635207 0.1194618827 2.55583704e-21)
(99.97732598 0.2622164477 2.792563536e-21)
(99.99590069 0.1437374164 3.442381958e-22)
(99.99552007 0.1707131618 -2.285582766e-21)
(99.97278521 0.369961561 3.273502706e-22)
(99.99525545 0.1998371411 -2.336308156e-21)
(99.99517097 0.2302091896 2.433414907e-22)
(99.97179148 0.490782382 -1.555549991e-21)
(99.99534152 0.2603945414 2.074091488e-21)
(99.9958136 0.2886866893 1.772871866e-21)
(99.9772082 0.6032290356 -7.817606653e-22)
(99.99659637 0.3131274429 0)
(99.99766454 0.3317728878 0)
(99.98948234 0.6774321507 1.684126922e-22)
(99.99896437 0.3430508473 0)
(100.0003802 0.3462624878 3.770617742e-22)
(100.0051512 0.6897812036 -6.574414003e-24)
(100.0016886 0.3407782502 8.502546239e-22)
(100.002773 0.3278852504 -1.747364096e-22)
(100.017901 0.6386071751 -5.360270593e-22)
(100.0036181 0.3087331585 -9.543162765e-22)
(100.004185 0.2850631947 7.958478795e-23)
(100.0247703 0.5445857009 1.570541717e-21)
(100.0044797 0.2585851349 4.009776405e-22)
(100.0045261 0.2308880599 0)
(100.0257203 0.4344090633 0)
(100.004389 0.2033889833 0)
(100.004249 0.1770138889 6.80945801e-22)
(100.0227156 0.3297302984 1.407950546e-21)
(100.0043691 0.1527315319 -3.450070749e-21)
(100.00427 0.1291341289 -1.285938712e-21)
(100.0193498 0.2367486056 2.802542542e-21)
(100.0037093 0.108454579 2.802333413e-21)
(100.0027791 0.09090764258 -7.937169143e-22)
(100.0117339 0.1649880035 -4.506058311e-23)
(100.0007405 0.07837326616 1.544615521e-21)
(100.0076595 0.07762839187 -6.932056611e-21)
(100.0431178 0.1897978251 4.097353683e-22)
(100.015251 0.1691644532 -2.476722889e-21)
(100.0025455 0.07812294558 -1.455590981e-21)
(100.0055008 0.0454363342 -8.743450327e-22)
(100.030107 0.1183361049 1.385406209e-20)
(100.0046354 0.02150898712 -7.027005675e-21)
(100.0224823 0.06365973151 -1.477258701e-20)
(100.0202701 0.02020245612 1.296193599e-21)
(99.99144594 0.01042189247 8.591495183e-21)
(99.98667383 0.005261817558 2.011943274e-22)
(99.98602168 0.02615405448 1.372622041e-20)
(99.98001709 0.01887637076 -1.201342955e-20)
(99.97585995 0.05313287062 7.11579637e-21)
(99.96570608 0.042784476 -1.865242607e-20)
(99.9702206 0.08746474059 -1.213886874e-21)
(99.94138004 0.08341849453 3.58657883e-20)
(99.94937022 0.1103085717 -7.897822801e-21)
(99.9553791 0.113001561 -1.692652193e-21)
(99.96587917 0.1129397578 3.333746867e-21)
(99.97921805 0.07976769432 1.658692998e-21)
(99.96671808 0.1357457006 1.62109777e-21)
(99.95593596 0.1477362494 1.648352444e-21)
(99.92581848 0.1956715312 -3.330427089e-21)
(99.9446285 0.1914590705 -1.749269536e-23)
(99.9479989 0.2230025228 1.595832104e-21)
(99.93115441 0.245650458 -1.445530132e-23)
(99.88683319 0.3217890513 0)
(99.92396659 0.2899109873 0)
(99.90322457 0.3321920681 -1.982984442e-21)
(99.92766462 0.3376247005 -3.900950617e-21)
(99.91859612 0.3550057206 -4.309718476e-23)
(99.89520955 0.4109289114 -8.773639931e-21)
(99.9115769 0.3896617813 -3.016323544e-21)
(99.88842438 0.5328357697 2.792032051e-23)
(99.90310236 0.5038488577 -1.982668438e-21)
(99.85816687 0.6168283035 -1.087548764e-20)
(99.88209875 0.5808261199 -2.649718253e-21)
(99.86178985 0.7653407471 -4.975995848e-21)
(99.88257941 0.7174427229 -4.681440325e-21)
(99.82638781 0.8835099972 4.439204868e-22)
(99.85794717 0.8253456434 -5.970241797e-21)
(99.85017392 1.037436295 -4.937465141e-23)
(99.87760502 0.9622970761 -3.914991871e-21)
(99.81503817 1.192973803 -2.021815011e-21)
(99.85259207 1.104239527 -2.939102493e-21)
(99.86931126 1.306788651 -2.158617091e-21)
(99.90077275 1.196717777 -3.194746303e-21)
(99.84311876 1.49399162 -1.382724467e-21)
(99.88099196 1.368284176 -1.483585902e-21)
(99.92637773 1.505646748 2.282375298e-22)
(99.95506617 1.358844429 -1.273426323e-21)
(99.91743075 1.706478818 -6.400246186e-22)
(99.94575002 1.545755941 -6.400730192e-22)
(100.0059245 1.569933968 1.493181575e-22)
(100.0209386 1.394778179 -2.61138131e-22)
(100.0158141 1.758102139 -2.870211881e-23)
(100.025494 1.575215415 -5.865136307e-22)
(100.0793237 1.487595899 -2.128280052e-22)
(100.0665317 1.298584578 -1.978704626e-22)
(100.1000057 1.639321716 -7.232717067e-23)
(100.093162 1.451599185 1.747015976e-21)
(100.1243662 1.290447886 2.051491431e-21)
(100.0915665 1.110400918 3.570006642e-21)
(100.1479143 1.401388149 3.567506484e-21)
(100.1293143 1.230039266 4.6638067e-22)
(100.1365098 1.04196325 -5.824546688e-21)
(100.0950575 0.8866563388 -5.438503188e-21)
(100.1576936 1.117565784 -1.962620872e-21)
(100.1343471 0.9748653877 -1.934202448e-21)
(100.1237945 0.798737665 -4.657861759e-21)
(100.0811871 0.674371814 4.293287844e-22)
(100.1375449 0.8462630082 -1.251431125e-21)
(100.1176117 0.7384016086 5.104802014e-21)
(100.0779989 0.4693056119 -1.193594518e-20)
(100.1239902 0.6379776475 -1.193501778e-20)
(100.1748655 0.6928680839 1.206887435e-20)
(100.1080854 0.5343137396 -2.450644573e-20)
(100.0921536 0.4445430999 1.047201007e-20)
(100.1284953 0.4761622072 -1.507823073e-20)
(100.0758568 0.3677748407 2.145339164e-20)
(100.0566689 0.3242977458 2.384083082e-20)
(100.0724124 0.2265070392 2.057514793e-20)
(100.1632969 0.355653121 -1.954508602e-22)
(100.1241646 0.3963992406 4.296979057e-20)
(100.0731649 0.31246198 2.346614113e-21)
(100.0530969 0.1332713617 -7.09618942e-22)
(100.1175986 0.2208615909 2.955586148e-20)
(100.0432232 0.06165337685 -6.872829666e-21)
(100.0900038 0.1188630833 -1.567428996e-20)
(100.0784248 0.03765094417 7.025035917e-21)
(99.97724004 0.01276930085 -2.062178548e-20)
(99.9746212 0.004342851107 -1.030617808e-20)
(99.96229291 0.03355772335 -4.466496431e-20)
(99.96044773 0.0172414607 9.712797144e-21)
(99.93502761 0.07111505598 9.571000666e-21)
(99.93046896 0.04401607459 -3.781150116e-20)
(99.90544157 0.1288255198 2.283955303e-20)
(99.88147779 0.0920751421 4.111813667e-20)
(99.87341441 0.1415918895 -3.675863858e-20)
(99.91892518 0.1399690814 -6.762487997e-21)
(99.87457576 0.1573340661 -5.025080649e-20)
(99.88552252 0.1762718313 -3.392219298e-21)
(99.87049163 0.2460133946 -6.643243758e-21)
(99.8556841 0.235389538 -3.312363934e-21)
(99.80222601 0.283801929 2.321926073e-20)
(99.82043298 0.3085080284 6.550267825e-21)
(99.8035741 0.4090451399 -5.756485309e-21)
(99.77908546 0.3987333681 4.230297454e-21)
(99.69987291 0.4801827982 -3.274972904e-20)
(99.75323707 0.4920352438 2.286884949e-21)
(99.71321236 0.5272439499 -1.423268013e-20)
(99.73802956 0.6200654364 -5.896127117e-21)
(99.7183511 0.6169154914 0)
(99.66980056 0.6808797205 6.091367807e-21)
(99.69372685 0.6898467449 -5.879978158e-21)
(99.64428849 0.947752416 2.883118647e-21)
(99.61435085 0.9510043655 1.130478383e-20)
(99.55020532 1.048116019 5.604410149e-21)
(99.58773176 1.051593312 1.4049946e-20)
(99.55811985 1.382685942 -7.47906139e-21)
(99.51384865 1.400325361 3.40830856e-23)
(99.43749784 1.541424712 3.41302479e-23)
(99.49374958 1.529431617 5.313009846e-21)
(99.51999887 1.906713281 -1.715223511e-20)
(99.45953931 1.953600537 -1.032170806e-21)
(99.38377415 2.146014073 6.974418551e-20)
(99.46077177 2.099848584 -2.217132874e-21)
(99.58754863 2.433681862 1.934026199e-20)
(99.51775688 2.528565209 4.68971938e-20)
(99.46960703 2.757775364 1.750760348e-22)
(99.55636118 2.655524511 -4.988118132e-20)
(99.78603938 2.808748092 3.216347955e-20)
(99.72588506 2.962877582 5.708465915e-20)
(99.72547921 3.200170847 5.226494946e-20)
(99.79681635 3.028696278 -1.062285665e-20)
(100.0529037 2.900040676 -7.160161707e-21)
(100.0257294 3.103711881 -3.727698811e-21)
(100.0728597 3.305390016 4.387524418e-21)
(100.1007211 3.083573289 9.446095249e-23)
(100.2834902 2.690447219 1.94410505e-21)
(100.2975153 2.912280452 8.645460213e-23)
(100.3696103 3.053999759 -1.922101508e-21)
(100.3494923 2.821101149 7.053496352e-21)
(100.409541 2.2756763 7.875851888e-22)
(100.455963 2.486451751 -5.750578163e-23)
(100.5298079 2.571695199 1.642120746e-21)
(100.4748823 2.357873841 3.61992136e-21)
(100.4284568 1.788038565 -5.41093136e-21)
(100.4892668 1.964497699 -1.256694602e-20)
(100.5507395 2.008336434 -4.388863501e-21)
(100.4826626 1.833759565 4.908424922e-21)
(100.4413498 1.46719314 -1.554094154e-20)
(100.3815558 1.330332821 -1.04872899e-20)
(100.4878279 1.484238224 -1.050143243e-20)
(100.4252411 1.35342385 5.599778772e-21)
(100.3092802 0.902925733 -4.713650401e-20)
(100.4115324 1.100651904 -2.468708072e-20)
(100.482178 1.095216587 -7.148787031e-20)
(100.3605279 0.9166533132 -3.350604487e-20)
(100.2303132 0.616876278 -5.435485527e-20)
(100.311291 0.7572474519 2.153951935e-20)
(100.3583525 0.741479752 -2.579037594e-20)
(100.2651007 0.6209432699 -2.256935829e-20)
(100.2026302 0.3469840895 9.156792906e-21)
(100.3480419 0.4765547594 -2.339689764e-20)
(100.321422 0.5746286134 -1.633160273e-22)
(100.2403277 0.5130474515 -1.339507645e-20)
(100.1499383 0.2033355651 1.383305343e-20)
(100.2527566 0.2929200781 2.465476249e-20)
(100.1214087 0.09363604311 -1.765234866e-21)
(100.1935017 0.1568497853 -3.56761598e-21)
(100.1667323 0.04942836041 0)
(99.96147024 0.008120178184 2.070447966e-20)
(99.96697551 -0.0004478267761 -3.45287374e-21)
(99.93320803 0.02611654946 1.740279718e-20)
(99.94350856 0.003413599913 2.417723461e-20)
(99.88234148 0.06467703515 -6.921976993e-21)
(99.89417693 0.02348324097 -3.429068938e-21)
(99.81645731 0.1409019442 0)
(99.81272948 0.06694854423 5.272495162e-21)
(99.78018323 0.134905052 1.603183601e-20)
(99.82502603 0.1647321353 -4.691442249e-20)
(99.77106657 0.1603050264 1.205336637e-20)
(99.77282507 0.198353331 0)
(99.72342749 0.3063202677 2.347291509e-22)
(99.71431949 0.2718981524 -2.666903467e-20)
(99.63656956 0.3113876149 -2.665109366e-20)
(99.6442436 0.3648481188 5.408316427e-20)
(99.57974472 0.530054209 -8.042674576e-20)
(99.56144045 0.4810868465 2.878924836e-20)
(99.44628128 0.5523694771 -5.376208324e-20)
(99.49129037 0.6200637235 -2.677924577e-20)
(99.43688497 0.6307609286 -4.393897607e-20)
(99.42160566 0.8246496962 6.340390098e-21)
(99.4019412 0.7943597403 1.260602311e-20)
(99.32594494 0.8572923463 3.184361357e-20)
(99.34703303 0.8966416928 6.287017813e-21)
(99.20010868 1.303289352 5.267766977e-23)
(99.16547961 1.2680316 9.24422558e-23)
(99.06161121 1.369411359 2.324381514e-20)
(99.10122987 1.416299439 1.919117087e-20)
(98.97180037 1.979313124 -9.024315595e-20)
(98.91068936 1.946479629 5.749390628e-21)
(98.78151526 2.105933555 6.690356313e-21)
(98.85456658 2.151107814 -8.063885128e-20)
(98.84693572 2.842800845 -7.935363809e-20)
(98.74739788 2.833596182 -6.269898109e-22)
(98.61755603 3.065462692 -9.072606108e-20)
(98.73930878 3.081003389 -7.217842735e-20)
(98.9784661 3.7842722 6.26129275e-21)
(98.8403331 3.840852955 6.675423063e-20)
(98.75683686 4.150731171 1.09167205e-19)
(98.92460704 4.081071652 1.392653903e-20)
(99.47195742 4.501343739 -3.356682581e-21)
(99.33378432 4.666178456 0)
(99.35784468 4.993143064 0)
(99.51266975 4.79279606 3.138395349e-20)
(100.1680147 4.649841382 1.324407421e-20)
(100.0949749 4.908962471 9.730087794e-21)
(100.2185537 5.156363309 1.374806568e-20)
(100.2818663 4.860439482 2.354457387e-21)
(100.7330316 4.21435074 -4.484266846e-21)
(100.7479593 4.500351043 0)
(100.9007191 4.630651557 -4.504918817e-20)
(100.862517 4.326130083 -6.086892893e-21)
(101.0033744 3.46115803 0)
(101.0786564 3.717706543 1.443673671e-20)
(101.2089203 3.759291247 1.769043788e-20)
(101.1121814 3.500913792 1.783257167e-20)
(101.0226208 2.646275769 1.188017167e-19)
(101.1233973 2.85335594 8.880471707e-20)
(101.2174804 2.841817544 -1.571591124e-19)
(101.1023941 2.644062743 2.653881413e-19)
(100.9927008 2.066432333 0)
(100.8927391 1.911826918 4.172999621e-20)
(101.0555029 2.039726422 0)
(100.9472128 1.893392918 0)
(100.6923407 1.26298827 2.619241646e-20)
(100.8637382 1.47892796 1.684467352e-20)
(100.9375189 1.399095596 -1.514585338e-20)
(100.751238 1.21752391 3.292386858e-20)
(100.5130568 0.8453863318 -3.012633313e-20)
(100.6462741 0.9943038599 -1.34509449e-20)
(100.6911579 0.9248663019 -1.357331531e-20)
(100.5505759 0.8044948938 -6.527973358e-21)
(100.3863241 0.4193948144 -8.282145673e-21)
(100.5782989 0.5307429293 -1.767685861e-20)
(100.5935785 0.6781783454 -2.352984097e-21)
(100.4860904 0.6501713584 4.911606737e-21)
(100.2862958 0.2437165496 7.104044196e-21)
(100.4183974 0.3215899354 1.081250063e-20)
(100.230429 0.1113372672 -1.802062255e-21)
(100.3183556 0.1697696921 -3.185831271e-21)
(100.2717333 0.05301069376 -4.591820135e-22)
(99.95294337 -0.005409295923 0)
(99.9720913 -0.009649943659 0)
(99.90941496 -0.0001504562841 3.483243025e-21)
(99.93859842 -0.02430174005 0)
(99.83100828 0.02671829102 8.798583192e-21)
(99.86892298 -0.02229442541 -3.019895014e-21)
(99.72103951 0.1030143 1.519003653e-20)
(99.75242501 0.003536928701 1.945376905e-20)
(99.68580694 0.07879761912 -5.841834869e-21)
(99.71870719 0.1430745923 2.075477675e-20)
(99.66124131 0.1124193615 1.684414801e-21)
(99.64720495 0.1643520166 -8.350010668e-21)
(99.54536321 0.296945832 0)
(99.55188919 0.2413152734 -1.737853839e-20)
(99.45335212 0.2614577072 -1.424982866e-20)
(99.43768899 0.3396189675 3.543470661e-21)
(99.30199143 0.5442409648 0)
(99.30235341 0.465483516 3.543091286e-21)
(99.15336855 0.5054772616 -3.649507958e-21)
(99.16872237 0.6309426766 1.769634831e-20)
(99.10883552 0.6172031666 4.558420646e-21)
(99.01123426 0.8928250664 7.172692383e-20)
(99.00329167 0.833595935 -1.312146473e-19)
(98.89875423 0.8828988625 -1.043838467e-19)
(98.90543388 0.9532248649 2.75709953e-19)
(98.58753073 1.491637173 -9.070816057e-20)
(98.56410258 1.410460404 -4.153752663e-20)
(98.41503507 1.497770589 -1.826130442e-19)
(98.43705902 1.599014016 -1.171908299e-19)
(98.11250126 2.385329068 -1.059474594e-19)
(98.05200023 2.285376021 -1.093305593e-19)
(97.85512608 2.43774359 -1.998166419e-19)
(97.92553988 2.562867107 -9.726248511e-20)
(97.73355388 3.679463092 0)
(97.5994868 3.57754862 -1.002967108e-19)
(97.36328041 3.851284352 1.016734689e-19)
(97.53212852 3.977168822 -9.181008076e-20)
(97.83745103 5.335165019 1.362778405e-19)
(97.58955965 5.311521043 -1.297306525e-19)
(97.41540608 5.756306397 8.880537153e-20)
(97.73006991 5.768635879 0)
(98.88261628 6.738743171 5.876709568e-20)
(98.58764888 6.930478826 3.961739324e-20)
(98.66008249 7.446413731 -3.19148163e-21)
(98.99665309 7.177447066 -6.650182039e-20)
(100.476408 6.939295878 1.885953875e-20)
(100.3275282 7.328401768 2.965287664e-21)
(100.6179317 7.649873743 5.576999322e-21)
(100.7335917 7.189159882 6.957645059e-20)
(101.6121756 5.98721685 -4.775303153e-20)
(101.6540617 6.391752424 1.609630164e-21)
(101.9435039 6.472613178 -1.187391044e-19)
(101.8509353 6.050820864 -1.38703146e-19)
(102.0170356 4.628259007 -1.660661993e-20)
(102.1587778 4.952067426 -7.85513306e-20)
(102.3671069 4.906377563 1.442697558e-19)
(102.1851191 4.591791097 1.025256397e-19)
(101.9317309 3.36966397 7.320218101e-20)
(102.0975996 3.600443942 -4.613578142e-20)
(102.2146954 3.516552762 2.413376192e-20)
(102.0304107 3.301972214 1.22940694e-20)
(101.7762744 2.511850039 -1.954668974e-20)
(101.625755 2.351566169 -3.423319937e-21)
(101.8408268 2.424905294 1.638036521e-20)
(101.6807743 2.282528132 2.000985359e-20)
(101.2141218 1.496675734 -8.507211296e-20)
(101.4656262 1.71172566 -5.389077235e-20)
(101.518591 1.548828142 -3.021220286e-20)
(101.2621974 1.38747664 -1.552251402e-20)
(100.8886602 0.9756371851 1.04898407e-20)
(101.0779814 1.116192756 3.15688339e-20)
(101.1010002 0.9941733358 -3.566395909e-21)
(100.9153659 0.8900326773 -3.469175504e-21)
(100.5996976 0.4324230277 1.842925562e-21)
(100.8326858 0.4987761596 0)
(100.9129049 0.7016740005 -1.063188663e-22)
(100.7923336 0.7031875531 -9.464775103e-21)
(100.4407474 0.2453842939 4.097961517e-22)
(100.5947902 0.2965341131 1.842759415e-21)
(100.3510903 0.1103742718 -1.848157955e-21)
(100.4457041 0.1518661081 -1.850648543e-21)
(100.3758385 0.04668462202 -1.863602077e-21)
(99.96146978 -0.02842079296 0)
(99.99891679 -0.02324855216 1.706657561e-21)
(99.9027103 -0.04659599522 -6.981275811e-21)
(99.955806 -0.06576148404 -1.719126494e-21)
(99.79648486 -0.0447058286 7.2063978e-21)
(99.86726607 -0.0934561863 -3.476322723e-21)
(99.63668991 0.01329409141 9.459569814e-21)
(99.71779579 -0.09933360104 2.472995629e-21)
(99.61009948 -0.02859231421 1.514117902e-23)
(99.61654381 0.06695499285 -7.018836429e-21)
(99.56560007 0.008148728574 -7.074261282e-21)
(99.52958242 0.06747290252 0)
(99.36506656 0.2039501833 -1.424947689e-20)
(99.39605505 0.1329357631 0)
(99.28450231 0.1246549069 -8.104271075e-23)
(99.23452848 0.2190562321 -5.444803592e-23)
(99.00473786 0.4354608776 7.331835823e-21)
(99.03992594 0.3319252702 1.10152578e-20)
(98.86657646 0.3338112848 1.482384218e-20)
(98.83531286 0.4989337657 -2.091673646e-20)
(98.77873669 0.4600884865 -2.448933521e-21)
(98.55973189 0.7834474615 2.81244402e-20)
(98.57745398 0.7018473547 2.408147604e-20)
(98.44888652 0.7252667179 3.558185394e-20)
(98.42367815 0.8203984476 6.925280513e-21)
(97.87226816 1.398738941 2.229228083e-20)
(97.88192159 1.277754599 2.909874277e-20)
(97.69570525 1.324906838 -5.847660313e-20)
(97.67963063 1.467053761 4.351448377e-20)
(96.9963776 2.400022 0)
(96.97561108 2.212609077 3.751770939e-21)
(96.68947635 2.315623838 0)
(96.70969848 2.540674613 -1.142113013e-19)
(95.99535911 4.142774883 -3.081961849e-20)
(95.87204457 3.878108404 -3.107018116e-20)
(95.4576727 4.120621253 -6.362451619e-20)
(95.61273951 4.463059995 6.482876979e-20)
(95.59125304 7.027247332 -1.550709389e-19)
(95.18279793 6.764417467 -1.767334988e-19)
(94.71781989 7.394536576 4.660051806e-20)
(95.286181 7.705780831 -2.492767624e-21)
(97.63425226 10.2004856 8.51420531e-21)
(96.93669996 10.42804082 5.673960915e-21)
(97.0968578 11.43983749 -5.917618676e-20)
(97.92539828 11.0066301 4.980924984e-21)
(101.3987017 10.30203227 -1.347625587e-19)
(101.135985 11.02366013 3.163351067e-21)
(101.8568955 11.41820317 2.592682847e-21)
(101.9875696 10.55603314 -2.691556832e-20)
(103.3899677 7.992624519 0)
(103.5519614 8.598342359 0)
(104.073347 8.506999144 3.361686729e-19)
(103.7970453 7.90844497 1.123956476e-19)
(103.6696408 5.637107667 -6.206246819e-20)
(103.9483642 6.023083153 -8.805216324e-20)
(104.2000792 5.82180619 -2.466390124e-19)
(103.8749079 5.472689936 3.154304513e-20)
(103.2072377 3.827474847 2.3586748e-20)
(103.4721088 4.064987038 -3.267440154e-21)
(103.5846241 3.873264688 -7.6693569e-22)
(103.3032709 3.669934163 -1.22684675e-19)
(102.7698195 2.680387327 -9.014200388e-20)
(102.5523137 2.53482727 -3.005428252e-20)
(102.8129164 2.527572593 6.27332201e-20)
(102.5936597 2.40509938 -7.468216095e-20)
(101.843483 1.546749822 2.469654662e-20)
(102.1726179 1.724503649 -2.06313184e-22)
(102.1749123 1.481325297 1.509639275e-20)
(101.8532166 1.37136006 1.122282521e-20)
(101.3182326 0.9746262544 -1.482215871e-20)
(101.563833 1.082000943 -7.564147429e-21)
(101.5393542 0.912450517 -7.565612876e-21)
(101.3129687 0.8469219725 1.155938131e-20)
(100.8154801 0.3679428223 0)
(101.0793904 0.3730068819 1.232381798e-21)
(101.2314785 0.5999689114 -1.020627237e-20)
(101.1169619 0.6590458013 2.527628321e-20)
(100.5890229 0.2012421432 -4.671652512e-22)
(100.7519807 0.2100158955 -1.457005767e-21)
(100.4619206 0.08792336914 -1.873774455e-21)
(100.552566 0.1000286727 -2.127409101e-21)
(100.4587621 0.02969721521 2.403883134e-21)
(99.9964872 -0.06014800326 -1.192534702e-23)
(100.0556648 -0.04068855357 5.098447234e-23)
(99.92430582 -0.1117548787 1.783193431e-21)
(100.0045322 -0.1190909798 -6.106928009e-23)
(99.79368047 -0.1470260378 -9.343424948e-21)
(99.90064746 -0.186470279 1.397096421e-21)
(99.58554858 -0.1237965602 -8.483888806e-21)
(99.7244965 -0.2367333609 -1.421402277e-20)
(99.57591622 -0.1839693369 -1.208526816e-20)
(99.54049205 -0.0654615112 -6.680783928e-21)
(99.51002139 -0.150451909 -2.630561767e-21)
(99.44632437 -0.09136201741 3.027862461e-23)
(99.21621399 0.02459229374 1.073212697e-20)
(99.27812411 -0.05274327696 1.089481224e-20)
(99.163949 -0.09460402069 5.377389589e-21)
(99.0744823 0.002767439335 1.85172503e-20)
(98.74560763 0.2003106516 -2.246854252e-20)
(98.82669865 0.0805245207 -1.87542614e-20)
(98.64684459 0.03697396627 8.328092199e-21)
(98.54664977 0.2173104893 2.213106745e-21)
(98.50486777 0.1560944315 -1.760803241e-20)
(98.14496773 0.4763152554 2.946120002e-20)
(98.19806673 0.3826101406 -2.937020017e-20)
(98.05812941 0.3702111455 -2.209011379e-20)
(97.99187068 0.4753098395 7.416845469e-21)
(97.20760057 0.9705047115 -6.328308087e-20)
(97.27062108 0.8266157426 -6.276380798e-20)
(97.06826333 0.8112524547 6.116416632e-20)
(96.98174032 0.9759409307 1.262856996e-19)
(95.80932616 1.823633594 6.918818828e-20)
(95.88833231 1.583859669 1.186164857e-21)
(95.5532052 1.574381009 7.843881682e-20)
(95.43767311 1.858005887 -5.082203116e-21)
(93.71237245 3.479876508 -1.92280434e-20)
(93.76122946 3.035984585 -7.672638918e-20)
(93.17127843 3.043033195 -4.272725136e-20)
(93.07101643 3.61603531 1.652642942e-19)
(90.9134908 7.595303127 3.215182846e-20)
(90.55750956 6.626299032 5.50958884e-19)
(89.01234231 7.259587052 -7.445095568e-19)
(89.3467032 6.752117772 1.13510275e-19)
(89.99969695 8.654230495 2.426661058e-19)
(89.3071078 8.442088406 2.451177468e-19)
(92.25329016 16.85219732 0)
(93.34396356 16.80040957 0)
(92.29665536 18.30909561 -9.996635652e-20)
(93.73239086 17.99951772 0)
(104.3605308 16.95593133 1.688786364e-19)
(104.6879594 15.63495755 2.760521639e-20)
(106.0753349 15.54943411 2.160069166e-19)
(104.924671 17.77332075 -4.498849352e-20)
(106.7007884 17.02115838 6.00148947e-20)
(106.2844352 17.58238911 6.020244757e-20)
(107.4082588 10.62342711 -1.774909324e-20)
(106.845657 9.802372543 -1.332943221e-19)
(108.0535289 10.04339257 1.786794546e-19)
(107.3454512 9.358683841 -1.192622398e-21)
(106.0919415 6.058031445 2.321364837e-19)
(106.6056426 6.43882836 8.332082691e-20)
(106.8170071 5.986497914 6.140067853e-23)
(106.2733167 5.693998837 1.17126751e-20)
(104.8262811 3.771199203 -1.451595076e-19)
(105.2165168 3.956942202 -7.455055671e-20)
(105.2572921 3.641911278 -1.543118482e-19)
(104.8685068 3.506529559 -7.472470025e-20)
(103.8929852 2.435329157 2.769595409e-22)
(103.6054214 2.342968399 -3.552466441e-20)
(103.8733212 2.221162131 -3.426727832e-20)
(103.5943924 2.151397134 -3.526168443e-20)
(102.4995233 1.34626121 3.977781984e-21)
(102.8967207 1.435496257 0)
(102.8019763 1.137856924 -2.32212036e-21)
(102.4420748 1.114366641 -4.182493203e-21)
(101.7511088 0.8033443821 4.167818169e-21)
(102.0420504 0.8538413705 -1.157476294e-23)
(101.9522935 0.6507193596 -6.762451559e-21)
(101.6945138 0.640459986 8.444718351e-21)
(100.998077 0.2207110007 -1.713239171e-22)
(101.2607784 0.1538537114 -2.763943499e-22)
(101.5150902 0.3694906338 7.628436528e-22)
(101.4162992 0.4567852523 6.148044758e-21)
(100.704177 0.1086511149 -3.12440334e-21)
(100.8575889 0.06257438559 -2.232745781e-22)
(100.5407437 0.04257645194 2.326241617e-21)
(100.6148449 0.01562893237 -2.100582198e-21)
(100.4989109 0.002460535069 3.88666807e-22)
(100.0661531 -0.09894979674 1.254519138e-23)
(100.1490076 -0.06094500418 -2.530532592e-21)
(99.98385477 -0.1919987306 -4.602193931e-22)
(100.0923227 -0.1810694232 1.100036899e-21)
(99.83520281 -0.274431623 -3.630689146e-21)
(99.97845543 -0.2951458084 -2.391264442e-21)
(99.58733093 -0.3011931871 7.433425789e-21)
(99.78496409 -0.3984187705 -8.207999985e-22)
(99.59999776 -0.3757307324 7.771134696e-22)
(99.51399059 -0.2473163219 3.628899183e-21)
(99.51419592 -0.3509691902 7.546296248e-21)
(99.42218472 -0.3013314796 5.323204723e-21)
(99.13183275 -0.2292104797 -1.811824446e-21)
(99.22779829 -0.3013832041 2.8024879e-21)
(99.12207357 -0.3761917251 1.850506672e-21)
(98.99243724 -0.2909212453 5.609477555e-21)
(98.57615414 -0.1507544053 1.001365519e-20)
(98.70625507 -0.2663892149 -2.285664513e-20)
(98.53756771 -0.3565057964 -3.263384928e-20)
(98.36773413 -0.1837516376 -6.701258454e-21)
(98.34998559 -0.2657230592 -3.772081809e-20)
(97.86164689 -0.007281799089 0)
(97.95298867 -0.09669888582 6.025571119e-20)
(97.82050707 -0.1473963971 -3.748146439e-21)
(97.71491912 -0.0529944438 -3.873784609e-21)
(96.75768149 0.2366778302 -3.178453158e-20)
(96.88404423 0.1024738651 8.926106615e-20)
(96.6961616 0.024377951 1.000765886e-19)
(96.53744686 0.1669448088 3.354255349e-20)
(95.00724237 0.6274077358 1.852449864e-20)
(95.21006514 0.4099039876 0)
(94.9153922 0.2791405713 0)
(94.65556734 0.5051968837 1.01475305e-19)
(92.15738237 1.174577963 -1.430156026e-19)
(92.51727384 0.7916119839 -2.344700036e-19)
(92.09630651 0.49522003 -1.363848675e-19)
(91.58298655 0.8560154529 -2.204470258e-19)
(86.5760847 1.45373528 1.474393116e-20)
(87.15067463 1.002235347 1.178129748e-22)
(86.76190687 0.4230863455 1.465932791e-20)
(85.95906413 0.821288612 1.474271911e-20)
(117.6076009 22.25120843 2.056621298e-19)
(116.2511178 21.08208553 4.132274048e-20)
(118.4909291 20.73477102 1.119260091e-21)
(117.0969797 19.90475923 2.155854625e-20)
(113.7061028 10.09317687 1.563555301e-19)
(112.3953329 9.527168525 1.238771945e-19)
(113.8773646 8.795900347 1.124695564e-20)
(112.6071285 8.535223851 6.18845038e-20)
(109.0514895 5.164545551 0)
(109.8226166 5.342573449 -1.143456308e-19)
(109.7642883 4.664028514 -1.154405907e-19)
(109.036321 4.606519627 0)
(106.5201391 2.931812898 -6.243147946e-21)
(107.0182996 2.985718796 1.385213922e-19)
(106.9059362 2.582389233 1.333946387e-19)
(106.4431076 2.586592929 -2.754387747e-21)
(104.956219 1.672392506 1.602076902e-19)
(104.6173754 1.665316904 -5.662820588e-20)
(104.8428046 1.419515714 5.901278278e-20)
(104.529033 1.435783717 4.807650443e-20)
(103.0654967 0.858667165 -4.54365286e-21)
(103.5055084 0.8289822857 -4.623904878e-21)
(103.2776963 0.5166249637 7.298483597e-21)
(102.918472 0.6035567426 1.083132748e-21)
(102.1184861 0.4563249041 -1.818303901e-21)
(102.4240463 0.4271857158 1.275845071e-20)
(102.2526136 0.2239759297 4.696552833e-21)
(101.9972093 0.2848038856 9.304773474e-21)
(101.1078755 -0.001196520872 -2.969589008e-22)
(101.3454074 -0.1449605779 -9.886571641e-22)
(101.6971137 0.0213460844 -1.005589329e-21)
(101.6417669 0.1560541692 -1.159594778e-21)
(100.7585353 -0.02889042991 9.995562624e-22)
(100.8836266 -0.1342554876 1.234070534e-21)
(100.5652753 -0.02330012306 -3.999838482e-21)
(100.6095295 -0.09498507624 1.541437966e-21)
(100.4769191 -0.03323936956 -1.977142858e-21)
(100.176516 -0.1422718609 -1.443008837e-21)
(100.2832139 -0.0826616479 7.994584624e-22)
(100.0884768 -0.2818142009 -8.3904811e-22)
(100.2239729 -0.2474993956 -5.96109319e-22)
(99.93003055 -0.4173353697 4.293504886e-22)
(100.1063231 -0.4116783356 -2.118748201e-22)
(99.65487723 -0.5044117338 4.770014197e-22)
(99.90635251 -0.5723882819 7.233133007e-22)
(99.69284502 -0.5875339099 4.275270654e-22)
(99.55334458 -0.4627759972 1.255489786e-21)
(99.59041004 -0.5767618825 -1.126577551e-23)
(99.47271506 -0.5436322509 -1.126737785e-23)
(99.13667431 -0.5321036745 -1.847941799e-21)
(99.26423008 -0.5891415753 0)
(99.1764032 -0.6932515851 -9.076245628e-22)
(99.01235857 -0.6311543385 -9.575233003e-22)
(98.5336164 -0.5742172279 -4.994180151e-21)
(98.70752693 -0.668467036 1.929748369e-21)
(98.56487361 -0.7977176753 4.57957664e-22)
(98.33598483 -0.6560159574 1.968681274e-21)
(98.34600355 -0.7472872435 2.183526081e-20)
(97.77382946 -0.5931209006 -3.046907863e-20)
(97.89486543 -0.6630381087 -7.558517313e-20)
(97.78371202 -0.745023602 -3.014395037e-20)
(97.65081696 -0.6757892527 6.892508444e-22)
(96.63572359 -0.6341591909 -1.001375106e-19)
(96.80675898 -0.7316898388 -3.363850663e-20)
(96.65476847 -0.8511885023 -7.059950926e-23)
(96.45363464 -0.7569000329 3.443298848e-20)
(94.88619725 -0.7395873931 -2.385084929e-21)
(95.1521493 -0.8722108375 2.400490743e-21)
(94.94026965 -1.050558975 2.392600703e-21)
(94.63857626 -0.93602152 -1.190104846e-19)
(92.46584901 -1.172622238 9.095829887e-20)
(92.87670523 -1.299432431 -8.677839283e-20)
(92.66978595 -1.581803172 4.438299973e-20)
(92.2412702 -1.517734859 -3.594197385e-20)
(90.07002252 -2.872200384 -4.809468554e-20)
(90.36887208 -2.762663737 -4.706646908e-20)
(90.4223594 -2.975910596 -5.179675129e-22)
(90.19002965 -3.134395738 -2.324950111e-20)
(131.7049751 10.01085485 1.40328344e-20)
(130.070476 10.58131903 -1.268768465e-19)
(130.7923387 8.607905837 -1.269787515e-19)
(129.422584 9.251269701 -1.515405615e-21)
(118.9354532 4.660115394 1.98240667e-19)
(117.4220341 5.021433873 -3.45473279e-20)
(118.1235341 3.410832502 2.441446952e-21)
(116.8965103 3.923186787 1.6096748e-19)
(111.4754039 2.532639373 4.583386808e-20)
(112.3052811 2.322878022 -5.611474843e-20)
(111.8418455 1.663820911 9.891232835e-20)
(111.134539 1.940614125 1.604413161e-20)