/*--------------------------------*- C++ -*----------------------------------*\
| =========                 |                                                 |
| \\      /  F ield         | OpenFOAM: The Open Source CFD Toolbox           |
|  \\    /   O peration     | Version:  v1912                                 |
|   \\  /    A nd           | Website:  www.openfoam.com                      |
|    \\/     M anipulation  |                                                 |
\*---------------------------------------------------------------------------*/
FoamFile
{
    version     2.0;
    format      ascii;
    class       volScalarField;
    location    "2800";
    object      omega;
}
// * * * * * * * * * * * * * * * * * * * * * * * * * * * * * * * * * * * * * //

dimensions      [0 0 -1 0 0 0 0];


internalField   nonuniform List<scalar> 
12556
(
31.8693
31.8706
31.8719
31.8739
31.9377
31.9387
31.9393
31.9406
31.9432
31.9476
31.9541
31.9616
31.9669
31.9674
31.963
31.9561
31.9497
31.9449
31.9417
31.9399
31.8748
31.8723
31.8706
31.8691
31.7347
31.7377
31.7408
31.7448
31.8052
31.8094
31.8129
31.8467
31.8538
31.866
31.8838
31.904
31.9189
31.9212
31.9101
31.8919
31.8738
31.8599
31.8206
31.8134
31.7477
31.742
31.7382
31.7347
31.6014
31.6062
31.6109
31.6167
31.6747
31.6822
31.69
31.7257
31.7423
31.7704
31.8107
31.8542
31.8855
31.8903
31.8675
31.8291
31.789
31.7569
31.7065
31.6914
31.6237
31.6146
31.6083
31.6029
31.4702
31.4764
31.4824
31.4901
31.5455
31.5569
31.5709
31.6132
31.6478
31.7062
31.7874
31.8802
31.9455
31.9484
31.8943
31.8144
31.7362
31.6732
31.605
31.5767
31.5036
31.4899
31.4808
31.4733
31.3405
31.3481
31.3555
31.3651
31.4194
31.4355
31.4582
31.5112
31.579
31.6921
31.8783
32.1253
32.3115
32.2841
32.1072
31.9063
31.7401
31.6236
31.5218
31.4713
31.388
31.3678
31.3552
31.3454
31.2123
31.2212
31.2301
31.2417
31.2961
31.3185
31.3542
31.4265
31.5398
31.7628
32.225
33.1124
34.0372
33.6625
32.8306
32.2307
31.8505
31.6187
31.4615
31.3778
31.2769
31.2482
31.2311
31.2187
31.0859
31.0961
31.1066
31.1206
31.1754
31.2057
31.2589
31.359
31.5366
31.9551
33.0734
37.2787
43.0926
40.2285
34.9633
33.0055
32.1259
31.6795
31.4249
31.297
31.1709
31.1311
31.1083
31.0931
30.9615
30.9731
30.9854
31.0025
31.0585
31.0985
31.1724
31.3037
31.5624
32.23
34.3108
45.6294
65.5326
40.0533
34.443
32.6077
31.8165
31.4123
31.2284
31.0701
31.0167
30.9872
30.9687
30.8396
30.8527
30.8671
30.8877
30.9459
30.9969
31.0933
31.2558
31.6
32.4821
35.1755
52.3608
116.091
47.2057
36.4132
33.2622
32.0195
31.4205
31.1697
30.9747
30.906
30.8687
30.8466
30.7207
30.7354
30.7522
30.7767
30.8377
30.9007
31.0198
31.2122
31.6364
32.6792
35.7836
59.7858
140.646
53.0191
38.366
33.9644
32.2544
31.4417
31.1183
30.8849
30.7999
30.7542
30.7282
30.6053
30.6215
30.6408
30.6696
30.7341
30.8095
30.9507
31.1721
31.671
32.8559
36.5288
69.4421
141.317
56.4519
39.902
34.5883
32.4807
31.4656
31.0719
30.8004
30.6991
30.6448
30.6145
30.4934
30.5112
30.533
30.5662
30.6349
30.7227
30.8848
31.1359
31.7085
33.0495
37.607
83.3476
131.184
57.8201
40.8753
35.0528
32.6632
31.4819
31.0272
30.7199
30.6035
30.5407
30.5061
30.3849
30.4046
30.4294
30.4671
30.5391
30.6391
30.8212
31.1035
31.7516
33.2838
38.9738
97.6898
998.428
111.135
57.8262
41.3332
35.332
32.7805
31.483
30.9806
30.642
30.5122
30.4416
30.4027
30.2795
30.3009
30.3283
30.3702
30.4486
30.5622
30.7647
31.086
31.8304
33.6618
41.56
180.702
500.845
105.048
57.1078
41.4022
35.446
32.8287
31.4642
30.9286
30.5646
30.4235
30.3458
30.303
30.1763
30.1994
30.2294
30.2751
30.3582
30.4823
30.7017
31.0554
31.8763
33.9959
45.8872
774.795
337.687
98.8937
55.8568
41.2044
35.4297
32.8165
31.4255
30.8692
30.4856
30.3355
30.2518
30.2054
30.0746
30.0994
30.1319
30.1811
30.2686
30.4017
30.6358
31.0198
31.9169
34.4029
53.1565
873.234
293.373
93.8407
54.6608
40.8973
35.3246
32.7508
31.3689
30.8012
30.4034
30.2468
30.1577
30.1084
29.9737
30
30.035
30.0873
30.1788
30.3194
30.5657
30.9768
31.9471
34.9321
63.0401
839.365
262.069
89.9291
53.5649
40.5551
35.1831
32.6597
31.2958
30.7234
30.317
30.1557
30.062
30.0103
29.8727
29.9006
29.938
29.993
30.0881
30.2346
30.4911
30.9259
31.9698
35.594
74.9729
770.809
238.665
87.098
52.6249
40.2159
35.0172
32.5485
31.2079
30.6358
30.2248
30.0607
29.9642
29.9102
29.7713
29.8005
29.8402
29.8978
29.9959
30.1472
30.4121
30.8679
31.9919
36.4052
86.9468
698.706
220.417
85.0963
51.8306
39.8983
34.8434
32.4259
31.1099
30.5408
30.1277
29.9619
29.8629
29.8077
29.6691
29.6994
29.7413
29.8012
29.9021
30.0572
30.3292
30.8044
32.0201
37.3676
96.8567
632.636
205.709
83.4738
51.1905
39.6083
34.6703
32.298
31.0045
30.4395
30.0259
29.8591
29.7584
29.7024
29.5659
29.5971
29.6408
29.7029
29.8065
29.9649
30.2433
30.7371
32.06
38.505
104.264
574.792
193.535
82.0214
50.7273
39.3487
34.5026
32.1682
30.8941
30.3333
29.9199
29.7526
29.6507
29.5944
29.4619
29.4935
29.5389
29.6029
29.709
29.8703
30.1549
30.6677
32.1163
39.8949
109.781
524.901
183.242
80.6928
50.4099
39.1269
34.343
32.0388
30.7801
30.2231
29.8103
29.643
29.5404
29.484
29.357
29.3889
29.4355
29.5013
29.6095
29.7737
30.0646
30.5976
32.196
41.5086
113.797
481.97
174.384
79.4717
50.1731
38.9496
34.1943
31.9115
30.6641
30.11
29.698
29.5307
29.4277
29.3716
29.2515
29.2834
29.3309
29.3982
29.5083
29.6753
29.9728
30.5285
32.3139
43.1223
116.583
444.905
166.644
78.3435
49.9727
38.8138
34.0591
31.7878
30.5471
29.9949
29.5836
29.4165
29.3133
29.2575
29.1455
29.1773
29.2255
29.2939
29.4056
29.5753
29.8801
30.4628
32.4878
44.5725
118.362
412.721
159.796
77.2939
49.7895
38.7093
33.9381
31.6687
30.4301
29.8786
29.4677
29.3007
29.1976
29.1423
29.0393
29.0708
29.1194
29.1889
29.3019
29.4742
29.7873
30.4035
32.7224
45.8274
119.326
384.58
153.67
76.3097
49.616
38.6255
33.8301
31.5547
30.3139
29.7618
29.3508
29.184
29.0809
29.0262
28.933
28.9642
29.013
29.0835
29.1975
29.3726
29.6953
30.354
33.0033
46.9046
119.64
359.798
148.137
75.3794
49.4486
38.5549
33.7332
31.4456
30.1988
29.6449
29.2335
29.0666
28.9637
28.9095
28.8268
28.8576
28.9066
28.9778
29.0928
29.2708
29.6049
30.3168
33.3091
47.8273
119.442
337.818
143.096
74.4932
49.285
38.4923
33.6454
31.3411
30.0851
29.5283
29.116
28.949
28.8462
28.7925
28.7209
28.7511
28.8003
28.8722
28.988
29.1692
29.5169
30.2934
33.6216
48.6158
118.845
318.195
138.471
73.6431
49.1232
38.4346
33.5649
31.2407
29.973
29.4123
28.9987
28.8314
28.7287
28.6755
28.6153
28.6451
28.6942
28.7669
28.8834
29.0682
29.4321
30.2835
33.9288
49.2872
117.945
300.563
134.2
72.8222
48.9615
38.3796
33.49
31.1439
29.8626
29.2972
28.8817
28.714
28.6114
28.5587
28.5101
28.5394
28.5886
28.6619
28.7793
28.968
29.3512
30.2861
34.2236
49.8564
116.819
284.628
130.232
72.0249
48.7984
38.3255
33.4195
31.0505
29.754
29.1829
28.7652
28.5969
28.4943
28.4421
28.4055
28.4343
28.4835
28.5575
28.6757
28.8691
29.2747
30.2992
34.5027
50.3363
115.528
270.147
126.527
71.2465
48.6326
38.2712
33.3523
30.9599
29.647
29.0697
28.6493
28.4804
28.3778
28.3259
28.3014
28.3298
28.379
28.4536
28.5728
28.7714
29.2028
30.321
34.7645
50.7385
114.124
256.921
123.05
70.4831
48.4628
38.2156
33.2876
30.8719
29.5418
28.9576
28.5342
28.3645
28.2618
28.2102
28.198
28.226
28.2751
28.3505
28.4708
28.6755
29.1358
30.3495
35.0086
51.0732
112.647
244.787
119.774
69.7315
48.2881
38.1578
33.2246
30.7862
29.4383
28.8467
28.4199
28.2492
28.1463
28.0951
28.0957
28.1233
28.1724
28.2485
28.3696
28.5813
29.0737
30.3831
35.2357
51.3501
111.131
233.607
116.675
68.989
48.1075
38.0972
33.1625
30.7024
29.3364
28.737
28.3068
28.1352
28.0321
27.9812
27.9984
28.0257
28.0748
28.1514
28.2701
28.4895
29.0165
30.4205
35.4466
51.5777
109.601
223.265
113.734
68.2533
47.9203
38.0332
33.1009
30.6203
29.2366
28.6292
28.2
28.0275
27.9242
27.8733
51.6785
133.674
73.5265
58.8377
172.269
141.23
68.0421
170.758
173.679
81.2897
155.719
169.274
96.1613
1245.02
1053.14
138.754
153.543
151.666
696.045
1197.33
523.325
134.346
136.033
44.3092
42.5138
66.2827
40.2401
508.337
160.24
110.607
51.0647
43.217
35.6308
51.093
46.616
1317.56
1042.75
139.171
59.7957
53.5968
36.3158
57.1953
51.777
63.0012
212.474
181.724
859.963
1119.79
142.04
64.6195
61.352
37.3024
65.8713
58.11
74.0392
350.896
260.595
537.577
674.149
38.5959
78.0336
67.2182
86.6843
612.841
461.814
2239.28
326.32
405.995
40.939
109.625
79.9929
110.094
1250.28
887.66
435.747
528.272
666.803
121.891
162.692
79.3972
117.494
1027.79
542.71
108.049
403.148
806.745
177.975
153.28
56.1208
211.204
235.775
168.542
206.042
1131.29
1314.24
156.66
1026.21
916.275
825.074
1027.47
155.045
254.79
217.679
64.182
296.2
354.916
238.712
291.45
696.206
840.322
174.229
657.833
543.626
906.818
674.208
174.756
456.013
355.656
75.7194
450.306
598.733
358.944
445.296
418.539
520.703
880.176
624.328
87.3252
2615.32
849.9
1205.39
604.298
836.872
2761.17
301.421
317.411
2126.68
7834.36
1253.28
112.159
870.695
1732.26
6925.73
1207.92
1696.21
906.114
35.0027
46.1613
41.8067
48.8378
95.4619
69.7794
1760.88
663.67
55.124
149.794
125.58
3306.53
132.787
66.3229
65.2874
3509.52
897.076
988.341
733.309
267.334
291.548
121.516
98.2525
49.6473
1243
174.955
477.126
130.106
363.695
99.1834
1028.84
1415.69
161.977
422.404
345.519
528.699
434.389
163.94
1756.64
3271.03
1085.04
62.2742
52.588
74.1354
130.445
63.8775
64.2038
1886.11
343.842
1665.25
463.372
1497.67
290.832
1118.05
1106.05
984.189
1000.64
2146.56
3099.67
591.48
2284.78
1645.09
3333.68
2416.5
610.747
508.488
168.694
179.868
739.507
852.966
3315.64
938.378
245.52
266.415
220.766
238.704
924.176
1036.73
1223.35
135.429
795.885
693.229
1177.06
801.681
141.371
97.337
317.888
135.782
607.258
357.184
102.877
539.675
864.693
814.609
785.745
217.318
1491.43
218.267
185.146
1357.4
1204.52
1478.69
1376.21
190.477
1197.15
1206.16
976.017
338.382
332.5
338.246
339.154
969.617
910.431
305.347
278.462
329.013
312.643
921.682
324.23
328.037
260.056
263.171
714.184
3369.72
728.471
490.382
501.822
404.523
410.422
1576.1
1162.18
473.773
1481.14
2051.92
680.812
200.472
215.364
183.774
196.046
672.213
1845.45
881.506
888.7
642.41
648.908
3693.41
1505.11
622.754
707.108
273.263
327.284
2797.35
4892.59
1833.37
2525.84
1226.37
4228.32
2653.04
3975.16
1240.04
1033.55
3100.54
2182.57
1884.44
2140.94
2455.49
44.5464
165.195
116.386
261.204
3843.21
7230.73
352.063
123.851
131.349
1035.13
2582.66
3022.84
533.53
598.226
1434.95
244.306
260.542
706.652
124.121
86.9718
155.163
455.352
118.078
133.538
1277.69
2074.05
2219.4
1074.55
920.399
2085.08
1811.29
2984.09
2991.18
1076.21
311.03
125.89
132.46
117.748
123.785
302.283
155.773
165.264
502.161
1206.56
503.206
533.402
6024.29
3010.5
627.098
945.386
1915.34
2030.42
569.136
219.099
178.819
267.868
232.075
603.236
1162.08
2812.4
2959.63
1274.25
238.429
110.356
115.835
755.529
744.9
343.309
1751.07
1623.06
789.421
607.581
300.356
313.146
822.329
330.434
336.94
317.114
327.527
809.953
397.392
144.564
152.832
134.747
141.984
390.24
465.438
1095.82
1085.71
1600.43
1532.05
574.213
374.748
808.958
760.149
1082.93
1078.67
430.443
459.152
1115.66
825.319
3872.92
2249.54
865.86
1102.09
620.207
1671.13
1619.71
1827.14
721.75
3329.77
8933.39
463.111
646.563
542.42
571.842
1271.81
2082
1516.62
782.663
1824.62
5593.53
1889.98
1788.5
14258.5
1207.73
1609.67
1447.48
1669.87
1294.86
3466.42
3446.89
1756.03
2036.96
3691.63
1306.1
1333.49
272.657
1092.73
430.488
1173.34
317.266
2993.57
2532.73
1240.91
3211.8
3539.35
3257.31
2740.68
1489.7
3358.76
3843.15
2721.4
3199.27
4001.47
2207.84
2578.65
1827.1
2101.43
3803.02
1918.63
1073.4
802.532
1391.16
1152.39
711.098
452.161
1139.91
2439.53
2668.54
1230.46
1082.85
2264.9
2388.02
2283.81
2154.92
936.879
3173.07
3019.09
2608.31
3140.3
2918.14
1057.4
2829.02
2338.43
2510.62
2646.22
1979.32
920.125
1026.61
2854.8
1224.57
1365.8
1070.51
1182.87
2739.9
2806.88
1450.05
1672.01
457.23
492.184
1139.51
904.479
426.937
448.771
1121.82
1150.69
785.084
274.876
302.578
228.89
264.259
780.725
939.279
351.649
399.979
310.186
336.986
858.816
500.479
190.073
217.852
731.724
748.262
1565.65
1696.01
907.531
2128.4
1950.82
2263.19
1553.04
1461.34
1908.1
1624.6
683.03
1344.1
1550.88
1533
521.134
629.587
483.231
504.243
1520.13
673.212
680.9
651.337
670.591
1301.81
431.148
444.376
409.281
426.498
1278.2
1435.1
465.714
478.676
448.725
461.519
1424.38
2591.06
2761.59
1171.4
1252.56
2442.34
2520.55
1022.97
1023.93
1015.88
1023.14
1035.39
1046.95
1024.95
1031.94
693.904
703.635
683.302
691.034
760.442
990.3
707.463
732.125
1651.31
1847.48
1414.49
1583.22
3407.12
2326.64
2507.04
1923.32
2243.5
1124.43
1098.96
470.597
1712.05
1743.86
1651.11
1700.75
1757.55
558.796
1512.23
1164.37
1071.66
873.489
382.525
1213.27
1470.93
1051.65
1112.95
1577.01
1632.93
1493.47
1557.57
425.56
1078.58
1078.78
3583.15
1697.11
3539.66
3193.32
3540.55
1776.39
3909.56
2140.07
3838.41
3488.6
869.452
994.812
1735.46
1687.45
625.556
688.048
1805.26
1753.12
3532.46
1304.94
586.034
798.739
4875.29
5226.88
1894.2
4993.72
4132.49
2201.74
1210.03
4383.22
3101.29
5082.12
3282.27
1594.82
60.0287
40.897
35.8334
3655.68
3633.06
120.234
66.0974
66.4091
3651.14
1414.41
2606.19
2234.49
336.074
268.995
147.036
275.007
176.054
463.765
1642.81
280.048
305.865
50.6218
60.1946
110.834
422.123
890.884
1103.33
198.026
97.3071
101.962
91.4898
95.8142
193.773
1178.93
1366.22
2648.33
788.237
690.527
371.762
399.899
420.12
900.017
1167.85
1284.78
646.934
103.576
108.608
233.141
308.808
722.246
702.937
680.641
568.674
277.206
797.636
370.365
392.957
3196.17
3045.8
2486.87
1622.14
1593.08
1196.41
2927.02
3560.7
3381.37
1835.61
1011.48
1128.03
1754.67
1207.55
1675.31
1652.81
1671.68
1708.16
3451.3
2783.24
2941.86
3625.17
1960.29
1707.06
893.083
1269.29
165.444
127.419
253.781
1176.19
2396.33
2058.14
4003.37
4085
4160.94
3686.04
3897.7
83.441
107.842
325.663
1721.57
1437.34
1343.17
2005.09
1859.5
2249.31
2945.43
2815.12
3464.72
3414.56
2903.79
815.293
890.04
1889.87
3227.54
2360
2480.16
3120.39
2485.7
2627.13
1060.61
1320.22
1202.09
791.914
558.088
562.937
1147.89
810.45
834.995
568.693
576.698
811.291
161.648
182.669
479.631
635.412
988.674
809.503
1213.34
1173.74
794.88
1652.78
1301.69
1318.3
917.048
924.138
1503.82
1478.44
1499.13
1341.73
1367.21
1336.4
859.614
864.434
843.011
845.656
1229.74
1464.83
903.825
910.407
869.735
875.43
1394.89
731.219
724.702
312.709
339.493
741.717
733.505
525.686
513.35
250.793
1576.67
1585.59
1512.41
1524.76
1729.68
1594.2
1602.87
273.265
551.349
530.106
3352.24
3332.54
2580.74
2672.07
3375.5
3295.26
3318.4
773.342
1574.72
1410.59
344.119
362.921
748.752
652.697
324.892
338.931
1185.65
1183.14
876.737
902.071
1203.38
1190.82
3678.7
1750.71
1194.52
1708.42
14116.5
2832.87
2080.79
3903.8
3455.37
1803.6
1785.62
1219.25
4354.73
4588.41
4520.44
3705.94
1277.58
1840.8
1820.13
2652.35
1497.8
1723.85
3515.99
3637.99
3079.62
2953.9
2346.74
1242.93
1576.72
1389.33
2725.52
3428.52
3252.23
3558.13
3517.97
2871.92
177.473
250.164
1259.32
2257.66
2215.71
2337.68
2302.87
2121.51
1612.63
1609.43
1621.17
1615.81
2161.02
3045.31
1879.33
1894.54
1814.17
1855.28
3064.94
1937.2
1561.7
1494.52
1605.1
1593.58
1983.59
2841.36
1921.89
1931.95
1906.89
1915.78
2913
2421.2
2374.51
2332.36
2399.57
1092.9
792.547
795.878
1577.63
1133.1
1132.74
1124.54
1132.06
1554.52
3714.64
3757.53
3424.16
3610.37
1649.81
1676.35
1598.68
1623.79
1909.39
1168.08
1569.45
1553.62
1654.93
1131.7
1132.53
1131.92
1131.52
1637.84
1555.09
1575.38
1312.52
1541.37
1910.71
3740.53
3662.94
3110.32
3793.39
1685.96
2200.18
11644.5
1259.73
948.704
959.688
1776.83
5660.4
5616.47
9012.37
5337.08
4860.67
1715.51
1696.09
1206.92
1645.22
1731.68
1860.24
1645.66
1849.69
1628.08
1291.7
1888.55
1733.15
3494.15
3476.63
3660.82
3104.6
3309.74
1287.77
1431.4
1012.06
534.192
656.477
1038.27
1088.39
773.646
991.904
1278.05
3397.28
3597.75
3497.52
3555.04
4011.26
3981.18
3745.91
2876.58
3619.81
3380.47
3944.59
3840.66
3040.1
3263.84
3454.9
4096.41
3599.85
2938
3089.92
1683.86
1516.55
1770.37
1287.88
1559.14
1735.69
1795.69
1737.43
2478.96
1725.19
1671.78
2173.46
1863.61
2533.96
2303.52
1632.27
1626.62
1650.24
1639.9
2350.18
2243.62
1538.84
1562.35
3139.04
3092.54
2792.65
3153.81
3163.71
2996.42
2902.1
2951.09
2621.32
1687.74
1754.02
1590.61
1630.81
2435.6
3322.45
3129.94
2372.5
3537.69
3520.66
3509.54
2769.18
3443.85
3435.56
2125.59
2235.19
3035.28
1090.78
1178.57
667.814
755.608
1126.04
825.985
589.548
614.7
1060.26
1020.59
700.056
1143.15
1259.08
764.816
1140.92
1102.65
1577.97
1296.98
1275.05
1389.43
1329.03
1611.15
2068.01
1988.44
1523.12
1891.84
1940.42
1774.78
1828.92
1499.75
1866.73
1990.94
2142.46
1828.86
987.306
1085.11
1558.68
1511.87
932.536
947.98
1436.13
1457.31
1391.19
1414.11
853.029
856.173
1320.39
1253.89
847.509
849.935
891.316
897.288
1449.49
1412.21
881.157
886.258
2651.31
1958.74
1970.95
1940.27
1947.4
2687.17
2442.39
2077.21
2196.77
1988.91
2018.99
2486.4
1023.11
1515.02
1495.61
1545.48
1530.74
1023.32
1022.53
1428.34
1407.22
1474.51
1452.29
1023.43
1039.19
1631.56
1617.24
1654.07
1644.26
1043.08
1026.48
1572.44
1559.33
1602.75
1587.83
1028.92
1557.48
1567.34
696.96
983.819
980.797
990.538
987.059
700.191
1536.32
1547.2
1629.58
1648.49
823.615
1156.72
1058.84
1387.88
1374.47
927.648
712.16
999.165
994.426
1020.44
1006.1
719.124
1610.99
1619.34
3154.58
3299.34
3366.12
2785.16
2964.59
2388.11
3314.26
3348.21
3219.43
3275.35
2442.78
2021.58
2929.96
2732.88
3301.09
3145.48
2135.61
1109.79
810.931
824.248
799.475
803.981
1103.08
1722.73
1733.02
1669.62
1688.75
1779.39
1869.05
1496.9
1029.91
1096.91
853.602
919.607
1266.69
1436.99
1799.76
1715.76
1450.84
1058.81
1674.2
1664.16
1696.34
1684.65
1073.59
1595.95
1614.64
1515.84
1537.19
3507.02
2734.47
2859.78
2451.22
2595.38
3393.46
3378.44
3500.22
2993.68
3181.59
3569.44
3811.14
3078.1
3233.37
2764.66
2923.36
3703.1
1731.19
1747.28
1695.84
1714.12
1334.32
1239.42
930.905
1794.23
1818.54
1762.7
1777.87
1718.92
1139.28
1143.21
1134.11
1136.34
1703.33
1791.14
1172.6
1211.39
1148.61
1156.82
1771.57
3646.76
981.367
1035.75
1410.95
4653.34
7519.36
7608.04
6498.15
6827.68
4937.26
2100.63
4692.49
3638.96
3856.45
1213.8
1760.51
1737.3
4383.24
4664.18
4751.19
4092.37
4386.33
5123.21
4790.66
3485.53
4406.76
4147.56
1954.37
1871.41
1374.9
31.7552
31.7647
31.8509
31.7689
31.7852
31.8611
31.792
31.8163
31.8772
31.8254
31.8534
31.8972
31.8622
31.8838
31.915
31.8887
31.8944
31.922
31.8931
31.8806
31.9151
31.8742
31.8504
31.8984
31.8417
31.8159
31.8796
31.8079
31.7872
31.8641
31.6403
31.6605
31.7372
31.6694
31.7041
31.7622
31.7184
31.768
31.7998
31.7862
31.8435
31.8439
31.8616
31.9056
31.8798
31.915
31.9231
31.8919
31.9192
31.8904
31.8751
31.8766
31.8281
31.8393
31.811
31.7613
31.7985
31.7457
31.7036
31.764
31.5354
31.5759
31.6373
31.5937
31.6609
31.6893
31.689
31.796
31.7652
31.8387
31.9801
31.8578
32.0272
32.142
31.9343
32.1644
32.169
31.9539
32.1517
32.0621
31.9115
32.0251
31.9078
31.835
31.8685
31.7618
31.7547
31.7311
31.6544
31.6874
31.446
31.5162
31.5581
31.5462
31.6742
31.658
31.7343
31.9882
31.8243
32.1025
32.5502
32.0621
32.7287
33.2189
32.2815
33.3098
33.2317
32.3109
33.1149
32.7025
32.1571
32.569
32.2158
31.9559
32.1173
31.8749
31.7769
31.8098
31.655
31.6488
31.3744
31.4834
31.5057
31.5341
31.7745
31.6906
31.896
32.4851
32.0771
32.8034
34.5574
32.8447
35.5877
40.1012
33.8912
40.5927
38.7094
33.8617
37.525
34.8049
33.0243
34.2117
33.0227
32.3569
32.7547
32.1773
31.9293
32.0387
31.732
31.6661
31.3166
31.4734
31.479
31.5541
31.9494
31.8131
32.1594
33.2981
32.6681
34.0113
40.8489
35.5651
39.1695
45.068
38.3174
58.8617
55.8948
42.9024
44.7744
41.0852
38.4253
38.4739
34.6948
33.3485
34.0182
32.7405
32.2918
32.4674
31.9037
31.7658
31.2672
31.4777
31.4736
31.5904
32.1359
31.9978
32.4248
34.0007
33.5027
34.5772
35.9314
35.5374
46.8293
52.6562
50.7785
85.1438
58.736
50.594
45.4257
37.2272
35.2666
35.8987
33.5561
32.9248
33.0885
32.1653
31.962
31.2228
31.486
31.4797
31.6276
32.2906
32.1777
32.6335
34.4665
34.1317
35.3328
36.9927
36.7763
53.1493
62.7423
61.2481
128.923
79.7973
72.8199
51.7892
39.8674
37.9136
37.9072
34.469
33.7832
33.7922
32.4759
32.2406
31.1818
31.4951
31.4882
31.6623
32.4241
32.3249
32.8114
34.9048
34.571
35.9461
37.9755
37.6896
60.8004
81.8019
78.4942
142.936
89.6368
87.4069
55.8109
41.9532
40.4538
39.5681
35.2974
34.6894
34.4451
32.7817
32.5546
31.1446
31.5071
31.4977
31.6986
32.561
32.4572
32.9979
35.4769
35.0306
36.7632
39.495
39.0587
70.9052
102.522
98.0945
138.29
89.9061
90.4767
57.634
43.2747
42.3576
40.6838
35.9244
35.4759
34.9538
33.0367
32.8515
31.1113
31.524
31.5108
31.7403
32.7184
32.598
33.2208
36.2664
35.6536
37.9293
42.6819
41.0168
85.5141
132.815
125.994
126.345
93.9
94.6545
57.9097
43.8907
43.4893
41.2612
36.3107
36.0434
35.2791
33.2128
33.0885
31.093
31.5699
31.529
31.8174
32.9658
32.7618
33.5822
37.6803
36.5007
39.3957
47.0599
45.424
102.645
184.103
171.763
863.499
458.495
514.719
106.763
64.8736
65.8522
57.3248
43.9894
43.9552
41.4136
36.4791
36.3711
35.431
33.3026
33.2429
31.0634
31.5933
31.5765
31.8653
33.1737
33.0178
33.9085
39.3401
38.0221
42.4355
51.2449
51.9975
192.862
536.63
408.422
447.614
218.936
238.11
100.356
63.0615
64.5085
56.1666
43.7338
43.9588
41.2749
36.4804
36.4939
35.4468
33.3166
33.3123
31.0293
31.6105
31.5984
31.9077
33.3938
33.2267
34.2887
42.2275
39.9165
51.0898
324.706
211.278
867.727
518.74
610.963
302.931
115.815
121.619
94.9903
61.2847
62.6071
54.9579
43.3213
43.6329
40.9749
36.3608
36.4567
35.3549
33.2599
33.3069
30.9883
31.6168
31.6132
31.9405
33.6579
33.4561
34.7886
46.326
43.1416
60.355
412.751
353.082
853.173
434.653
494.405
269.011
109.953
114.155
90.8053
59.7058
60.8647
53.8241
42.879
43.2142
40.6416
36.1992
36.3237
35.2216
33.1685
33.2391
30.9393
31.6123
31.6166
31.9645
33.9736
33.731
35.4148
51.5206
47.528
71.8945
451.349
425.984
788.949
376.476
418.205
243.949
105.886
108.797
87.7102
58.385
59.3526
52.8458
42.4462
42.7682
40.2991
36.01
36.1536
35.0599
33.0523
33.1413
30.883
31.6008
31.6099
31.9861
34.3623
34.0634
36.1883
57.7234
52.9708
84.0764
461.692
455.99
716.355
333.879
364.638
224.597
102.773
105.05
85.5464
57.2967
58.0915
52.0158
42.0489
42.3432
39.9753
35.8133
35.961
34.887
32.9223
33.0208
30.8207
31.5871
31.5974
32.0122
34.8345
34.4723
37.1124
64.5326
59.4115
94.6355
456.218
461.447
648.407
301.332
324.953
209.117
100.068
102.067
83.8598
56.4583
57.0621
51.3343
41.6923
41.9558
39.6781
35.6198
35.7644
34.7132
32.7861
32.8886
30.7542
31.5756
31.5838
32.0487
35.3962
34.9662
38.2004
70.7816
66.1938
102.61
442.361
453.329
588.479
275.615
294.355
196.381
97.6436
99.4371
82.3722
55.8752
56.2907
50.827
41.3794
41.6097
39.4104
35.4344
35.5725
34.5439
32.6485
32.7517
30.6852
31.5702
31.5735
32.1004
36.0699
35.5523
39.5208
75.7518
72.1466
108.554
424.443
438.141
536.677
254.735
270.001
185.666
95.4615
97.0768
81.0143
55.4613
55.7603
50.4793
41.1204
41.3091
39.1783
35.2602
35.3897
34.382
32.512
32.6142
30.6151
31.5748
31.5703
32.1732
36.9133
36.2625
41.0954
79.6018
76.8072
112.918
404.936
419.648
492.11
237.402
250.11
176.483
93.4864
94.9498
79.7677
55.1246
55.3724
50.2277
40.9232
41.0654
38.9897
35.1006
35.2188
34.2303
32.3787
32.4783
30.5456
31.5959
31.5782
32.2797
37.9308
37.1543
42.7306
82.5867
80.4216
115.989
385.22
399.99
453.678
222.742
233.514
168.488
91.6841
93.0209
78.6176
54.8217
55.0466
50.0207
40.7791
40.8828
38.8444
34.9589
35.0634
34.0916
32.2503
32.3461
30.4787
31.6447
31.605
32.4385
39.0077
38.2
44.2284
84.867
83.2178
118
366.043
380.355
420.359
210.148
219.419
161.435
90.0253
91.257
77.5497
54.538
54.7493
49.8342
40.6713
40.7494
38.7332
34.8355
34.9263
33.9671
32.128
32.2191
30.4175
31.7321
31.6626
32.6586
40.0311
39.2714
45.5313
86.5603
85.3414
119.152
347.786
361.383
391.275
199.182
207.268
155.141
88.485
89.63
76.5502
54.2678
54.4693
49.6587
40.5851
40.6482
38.645
34.7287
34.8074
33.856
32.0123
32.0985
30.3653
31.8611
31.7606
32.9299
40.9556
40.2721
46.6507
87.7627
86.9034
119.615
330.619
343.389
365.71
189.523
196.655
149.47
87.0431
88.1161
75.6074
54.0079
54.2019
49.49
40.5115
40.5658
38.5716
34.6353
34.7042
33.7565
31.9031
31.9844
30.3249
32.025
31.8992
33.2314
41.7757
41.1702
47.6099
88.5573
87.9966
119.533
314.59
326.505
343.077
180.931
187.284
144.315
85.6827
86.6959
74.7111
53.7556
53.9442
49.3257
40.4449
40.4943
38.5074
34.5525
34.6137
33.6666
31.7997
31.8767
30.2979
32.2123
32.0701
33.5436
42.4984
41.9652
48.4302
89.0158
88.7009
119.026
299.679
310.758
322.902
173.219
178.926
139.592
84.3904
85.3537
73.8526
53.5084
53.6934
49.1636
40.3822
40.429
38.4487
34.4776
34.5331
33.5844
31.7015
31.7747
30.2848
32.412
32.2615
33.8529
43.1333
42.665
49.1295
89.1997
89.0853
118.194
285.833
296.12
304.802
166.242
171.41
135.238
83.155
84.0765
73.025
53.264
53.4471
49.002
40.3211
40.3668
38.3932
34.4087
34.4599
33.5082
31.6079
31.6777
30.2844
32.6155
32.4628
34.1513
43.6895
43.2794
49.723
89.1619
89.2092
117.118
272.98
282.529
288.466
159.887
164.599
131.198
81.9673
82.8539
72.2223
53.0205
53.2031
48.8394
40.2599
40.3058
38.339
34.3442
34.3922
33.4368
31.5181
31.5851
30.2951
32.817
32.6662
34.4345
44.1758
43.8173
50.2241
88.9473
89.1232
115.863
261.044
269.913
273.642
154.061
158.384
127.43
80.82
81.677
71.4395
52.7761
52.9596
48.6743
40.1976
40.2445
38.2848
34.2829
34.3287
33.3689
31.4317
31.4962
30.3148
33.0129
32.8666
34.7007
44.5998
44.2873
50.6446
88.5939
88.8706
114.483
249.949
258.195
260.12
148.689
152.678
123.899
79.7067
80.5387
70.6728
52.5292
52.7147
48.5057
40.1331
40.1817
38.2296
34.2236
34.2679
33.3036
31.3482
31.4106
30.3418
33.2009
33.0607
34.9492
44.969
44.697
50.9953
88.1338
88.4877
113.021
239.62
247.297
247.727
143.71
147.41
120.576
78.6224
79.4331
69.9185
52.2785
52.4669
48.3323
40.0655
40.1165
38.1725
34.1655
34.209
33.2402
31.2672
31.3277
30.3743
33.3801
33.2466
35.1805
45.29
45.0535
51.2859
87.5938
88.0053
111.512
229.989
237.149
236.319
139.073
142.521
117.434
77.5625
78.3553
69.1739
52.0228
52.2151
48.1532
39.994
40.048
38.1127
34.1079
34.1511
33.178
31.1881
31.2472
30.4108
33.5499
33.4234
35.3953
45.5688
45.3634
51.525
86.9968
87.4491
109.984
220.994
227.683
225.777
134.736
137.962
114.455
76.5235
77.3009
68.4366
51.7612
51.958
47.9677
39.9182
39.9755
38.0496
34.05
34.0935
33.1163
31.1108
31.1687
30.4483
33.7035
33.5909
35.5866
45.8037
45.6325
51.7155
86.3716
86.841
108.475
212.602
218.838
216.028
130.7
133.694
111.656
75.5255
76.2666
67.7239
51.5026
51.6948
47.7828
39.8412
39.8984
37.9859
33.9946
34.0355
33.0579
31.039
31.0917
60.0944
59.0898
51.0308
125.5
183.652
210.422
82.8961
94.6356
81.9694
77.3959
73.8459
57.9468
170.254
267.987
268.761
218.445
239.099
148.105
96.6867
92.6385
66.7005
172.187
243.118
234.157
268.277
264.928
174.532
123.867
117.868
79.3376
157.843
191.27
187.773
213.188
209.713
167.61
168.001
157.596
91.8534
1293.26
1582.15
1510.36
822.257
862.006
1113.06
144.901
260.661
238.931
184.263
180.888
151.372
377.733
312.953
139.395
757.5
1448.59
1416.51
2123.43
1825.57
1204.1
390.597
405.664
621.375
127.79
212.215
200.458
232.71
216.73
129.542
65.9104
48.4246
40.2965
1508.15
1055.5
1969.61
39.889
47.9439
56.9726
1722.58
1720.54
60.0896
65.7115
73.4539
42.0059
53.4814
47.1863
475.385
582.622
637.431
206.039
263.577
198.98
70.1965
61.6096
91.8596
48.418
55.0817
58.8886
47.5749
51.2369
45.7609
37.4361
37.2076
35.4824
49.0045
39.3487
39.9513
38.7366
39.1837
48.2961
1315.58
1727.53
1726.15
1296.88
1303.91
1054.86
86.3075
81.7111
132.152
57.9931
68.5359
70.9331
62.4834
65.7272
55.9265
38.6596
38.2983
36.1224
54.6834
41.291
42.2689
40.1843
40.9943
53.9213
86.4074
82.9264
61.8736
207.298
155.408
158.616
138.337
140.982
185.619
880.866
1082.45
1056.93
1411.57
1396.91
1107.22
90.5214
90.0511
143.077
63.7516
75.8266
76.7599
72.9382
74.5644
62.6695
40.4802
39.9684
37.0206
62.2194
44.132
45.4325
42.6143
43.7349
61.1182
108.927
104.067
72.4355
335.957
214.714
218.844
190.444
194.572
267.146
554.871
706.442
680.483
1058.76
965.17
652.493
44.8956
43.2807
38.2516
73.044
47.7293
49.5667
45.8999
47.2044
71.6053
142.902
135.252
87.7142
554.043
314.664
310.086
268.454
275.088
478.869
1816.51
1912.38
2363.09
358.058
662.116
586.761
495.08
478.852
394.152
51.2402
47.6774
40.0441
89.6781
53.283
58.4351
50.2403
52.436
86.8785
203.455
188.653
104.396
1247.38
920.36
929.003
659.262
667.174
892.293
2695.58
3486.6
302.38
600.76
2702.38
2070.96
1354.35
1192.79
689.473
126.069
193.606
165.123
293.93
266.902
155.946
85.1214
100.207
91.1034
153.473
144.952
112.811
1007.89
1269.67
1286.88
688.712
735.271
577.52
144.183
174.069
116.887
444.607
325.931
298.56
466.949
445.291
730.165
167.628
86.1264
90.0993
82.0856
84.9345
164.294
57.0777
72.4009
67.2277
216.658
388.486
372.602
493.709
481.543
227.212
174.199
317.186
300.89
368.486
356.363
200.903
1142.06
1435.62
1424.2
1719.85
1706.45
1306.72
261.081
266.962
160.66
1009.56
563.675
564.386
586.907
592.168
941.748
868.296
505.567
487.049
564.282
564.873
1001.83
149.827
244.796
258.043
249.245
182.775
186.543
161.881
165.186
222.798
65.4143
91.3455
87.6074
300.647
382.32
375.884
445.739
441.267
350.996
247.759
509.369
497.627
368.157
359.435
286.481
718.521
1203.08
1092.17
1033.05
1010.72
822.654
254.292
246.042
173.351
641.22
495.195
505.675
282.137
295.891
590.882
874.012
573.184
580.571
516.024
526.222
761.572
174.885
263.207
256.824
435.587
255.759
262.038
223.203
227.769
369.686
77.4833
115.976
110.622
455.337
591.956
587.358
815.619
811.836
592.524
363.35
455.991
450.492
582.818
578.341
440.313
431.501
530.012
512.154
655.325
632.121
504.533
866.492
636.855
649.694
311.483
320.791
646.466
90.5593
154.419
145.617
856.981
1179.23
1177.49
609.635
821.173
818.49
1169.47
1141.28
811.363
311.882
487.424
439.201
564.47
505.564
295.811
2023.57
1645.93
1728.07
11096.7
2308.75
3523
935.652
941.675
1255.55
125.316
246.275
208.67
1083.85
1038.98
838.768
4817.51
4861.27
8821.21
944.282
1188.19
1133.57
36.5402
36.2645
34.8061
44.7165
38.0942
38.5937
37.1548
37.895
44.1301
55.8151
54.3625
47.9071
86.0483
62.568
65.3002
58.9156
61.5478
82.318
940.325
1235.86
896.576
65.8634
64.3642
54.0963
139.455
77.519
80.9537
72.3375
76.3388
136.009
95.2608
89.579
137.072
66.1166
77.9811
78.0182
77.4026
77.7997
65.7774
944.172
1625.74
1403.38
1240.35
1187.75
954.44
407.264
442.591
826.498
274.727
351.832
339.963
425.242
364.879
282.83
109.47
68.9051
71.3361
66.0636
68.2122
106.427
50.367
58.1035
57.0394