/*--------------------------------*- C++ -*----------------------------------*\
| =========                 |                                                 |
| \\      /  F ield         | OpenFOAM: The Open Source CFD Toolbox           |
|  \\    /   O peration     | Version:  v1912                                 |
|   \\  /    A nd           | Website:  www.openfoam.com                      |
|    \\/     M anipulation  |                                                 |
\*---------------------------------------------------------------------------*/
FoamFile
{
    version     2.0;
    format      ascii;
    class       volScalarField;
    location    "0.54";
    object      nut;
}
// * * * * * * * * * * * * * * * * * * * * * * * * * * * * * * * * * * * * * //

dimensions      [0 2 -1 0 0 0 0];


internalField   nonuniform List<scalar> 
12556
(
1.15588419
1.155853198
1.155823803
1.155802782
1.156029047
1.156029869
1.15605222
1.156102463
1.156196566
1.156350244
1.156528478
1.091404012
1.023053568
1.057094241
1.156647976
1.156422897
1.156262329
1.156156402
1.156079236
1.156050952
1.15582873
1.15584036
1.155863971
1.155890126
1.155123897
1.155037103
1.154954235
1.154899437
1.155126167
1.155170831
1.155305172
1.155612904
1.156060617
1.15679043
1.157830486
1.017140939
0.9436806012
0.9590499357
1.061290344
1.157401614
1.156543149
1.155929032
1.155463392
1.155261987
1.154962086
1.155002635
1.155074117
1.15515389
1.154334573
1.154186364
1.154059295
1.15400054
1.154256489
1.154402927
1.154732427
1.155371944
1.156467628
1.128031251
0.9103396934
0.7889472158
0.7414554311
0.7599125763
0.8459310419
1.006518227
1.157519972
1.15611115
1.155085139
1.154599337
1.154173625
1.154172584
1.154272292
1.154404027
1.15352105
1.153328806
1.153176192
1.153135889
1.15345229
1.153788673
1.15455642
1.155754145
1.103600302
0.8216823121
0.6462764661
0.5463341719
0.5072700725
0.5256154402
0.6013109069
0.7370804123
0.9537407574
1.157122994
1.155161263
1.154176148
1.153422701
1.153380666
1.153483231
1.153654208
1.152691435
1.152450688
1.152291294
1.152321251
1.152762308
1.153407959
1.154853354
1.157024775
0.8365637299
0.5974804649
0.4410618413
0.3431571173
0.3030026715
0.323678023
0.3982240099
0.5223464427
0.7107873839
0.9989103388
1.155917681
1.154087507
1.152857429
1.152621176
1.152688949
1.152885866
1.151854146
1.151588878
1.15145047
1.151572409
1.152237967
1.153350867
1.155835527
0.9825786595
0.6631457966
0.4514813708
0.2977596273
0.1934817977
0.1516264086
0.177922896
0.2533874119
0.3694478001
0.5398647466
0.7916164483
1.157461117
1.154409554
1.152444984
1.151917428
1.151903088
1.152100011
1.15100882
1.150730213
1.150644641
1.150966154
1.151900494
1.153673141
1.157426567
0.8387116193
0.5601321728
0.3638934533
0.2125575268
0.09784685043
0.05563250464
0.08814590232
0.1642723968
0.2722779008
0.4272296909
0.6470704844
1.003505927
1.155214274
1.152183907
1.151267583
1.151111966
1.151288406
1.150217582
1.149943202
1.149942578
1.150522852
1.15170409
1.154398733
1.060082413
0.7610954205
0.5149986859
0.3358616051
0.1942579897
0.08020560806
0.05065493812
0.124407786
0.2211794387
0.3617729298
0.5635475392
0.8892411049
1.156413671
1.15213567
1.150715657
1.150349716
1.150474979
1.149486217
1.14923216
1.149357186
1.150248565
1.151796805
1.155508687
0.9953578147
0.7219462258
0.513672706
0.3616883852
0.248293468
0.1763760698
0.06220103208
0.1218926047
0.2061174939
0.3333049416
0.5179412405
0.8197554713
1.157889368
1.152301285
1.150281498
1.149659944
1.14971553
1.148897583
1.148678696
1.148950175
1.15019132
1.152205586
1.156933288
0.9635130832
0.7246584362
0.5385579121
0.4099218537
0.3306267377
0.3265040641
0.08758847616
0.1387531631
0.2154491978
0.3345653593
0.5075711726
0.7853134416
1.128153907
1.152715112
1.150050405
1.1491241
1.149085181
1.148447957
1.148280808
1.148740119
1.150406605
1.152897292
1.158601806
0.9531284971
0.7383904904
0.5733293052
0.4609228085
0.4008983642
0.4462614915
0.1189918597
0.1677909605
0.2426886092
0.3562548578
0.5188703403
0.780096948
1.087851422
1.153350542
1.150027832
1.148796941
1.148658693
1.148195802
1.148086345
1.148726195
1.150804024
1.153815092
1.160356067
0.9578260726
0.7638042187
0.6114748012
0.5029793021
0.4349338429
0.4496627215
0.1551728261
0.2087868876
0.2868301921
0.4009312162
0.555637835
0.8008810698
1.080189976
1.154233161
1.150267987
1.148723787
1.148476051
1.148079995
1.148043868
1.148935981
1.151484157
1.154865539
1.162132334
0.9737593914
0.8055287991
0.656653319
0.5441212843
0.4519144715
0.3877124569
0.05517530564
0.2014684674
0.2697241019
0.355270772
0.4676331591
0.6208588835
0.8433991138
1.090479157
1.155212451
1.150724404
1.148898433
1.148559229
1.148148348
1.148184404
1.149297636
1.152232446
1.156251929
1.164072591
1.031981359
0.8561430759
0.7208609322
0.6039410413
0.4959078031
0.2932133194
0.1114064407
0.2967520071
0.3761653994
0.4589329522
0.5654408285
0.705362966
0.9049197086
1.127082213
1.156263619
1.151357459
1.149286002
1.148876267
1.148278502
1.148377846
1.149696656
1.15301777
1.157496772
1.16583219
1.102200429
0.9420821102
0.8140838014
0.7057745933
0.6002685638
0.1045459973
0.1577315705
0.4228085279
0.5655445374
0.61499538
0.6978726078
0.8236714233
1.001677346
1.166800914
1.15729432
1.152079037
1.149822124
1.149342227
1.148519644
1.14867784
1.150174044
1.153828987
1.158697003
1.167422364
1.172673407
1.070048319
0.9573383558
0.8734505927
0.8246612761
0.05106711223
0.1842584511
0.4642844766
0.763744645
0.8336198671
0.8763238648
0.9758028104
1.138220787
1.168064663
1.158238182
1.152814138
1.150439075
1.149932303
1.148721434
1.148919884
1.150562394
1.154534484
1.159783659
1.168794609
1.174295176
1.166613921
1.131714604
1.032271784
0.6107272712
0.02848052369
0.2487636439
0.5310811504
0.8164710454
1.013253218
1.111298411
1.155138918
1.17133918
1.169048462
1.159030231
1.153491345
1.151043091
1.150499097
1.148965267
1.14919681
1.150951842
1.155168882
1.160698931
1.169894477
1.175540463
1.167497436
1.123950534
0.9557122214
0.2686485582
0.04091543546
0.3239366037
0.6056422496
0.8611236664
1.027554206
1.116387196
1.157626033
1.172466222
1.169683047
1.159638539
1.154074925
1.151617452
1.151062979
1.149099169
1.149345986
1.151180764
1.155618679
1.16141781
1.170715701
1.176347842
1.167867226
1.119515583
0.8730863226
0.1355709283
0.08434473959
0.3797547827
0.652318208
0.879901628
1.033105943
1.119250726
1.159143863
1.173069722
1.170005179
1.160028913
1.154493273
1.152055541
1.151499021
1.149249875
1.149512139
1.151400542
1.155980246
1.161934289
1.171270691
1.176796225
1.167773839
1.113883015
0.8148119296
0.1188236112
0.1076518539
0.3960006123
0.6605800466
0.8869316343
1.037061259
1.121089006
1.159943018
1.173252688
1.170058034
1.160282663
1.154833334
1.152430097
1.15187111
1.149258855
1.149527883
1.15144931
1.15615303
1.162266467
1.171595095
1.176973836
1.16733459
1.106709628
0.7548490335
0.1101587937
0.1222765576
0.4046720916
0.6655727936
0.8915986118
1.039799075
1.122176208
1.16022033
1.173108215
1.169895583
1.160346503
1.154997043
1.152634714
1.152075178
1.149292884
1.149578653
1.151525761
1.156287906
1.162442475
1.171733807
1.17694588
1.16661042
1.097856851
0.7029790689
0.1049225167
0.1343277768
0.4113726978
0.6689639101
0.8940051847
1.041452175
1.122679577
1.160116883
1.172716237
1.169570351
1.160332248
1.155113107
1.152789425
1.152222067
1.149173491
1.14947416
1.151442236
1.156269005
1.162500533
1.171730241
1.176762682
1.165619775
1.086659925
0.6637429912
0.1021415497
0.1440398293
0.4164731306
0.6711635447
0.894642141
1.042060549
1.122684469
1.159722364
1.172141802
1.169125943
1.160165317
1.155061251
1.152771101
1.152195221
1.149102845
1.149431506
1.151425977
1.156272534
1.162469364
1.171621019
1.17645378
1.164305661
1.072226366
0.6345752395
0.1011541247
0.1518260131
0.4202631742
0.6724060148
0.8940790707
1.041725389
1.122235694
1.159088183
1.171432195
1.168594328
1.159978194
1.155007931
1.152743581
1.152151361
1.14887384
1.149228598
1.151249456
1.156138745
1.16237649
1.17143366
1.176029821
1.16253161
1.054934941
0.6124909113
0.1016062925
0.1580737622
0.4230315456
0.6728700879
0.8927127486
1.040621673
1.121380508
1.15825021
1.170621429
1.167999189
1.159658855
1.1547938
1.152548666
1.151940602
1.148722334
1.14911465
1.151170485
1.156067551
1.162232907
1.171186621
1.175488585
1.160126709
1.036524631
0.5956045481
0.1032239677
0.1630723812
0.4249567749
0.6726942841
0.8907773619
1.038929544
1.120178769
1.157240609
1.169735292
1.167357728
1.159367993
1.154626419
1.152392937
1.151762046
1.148411137
1.148836196
1.150923781
1.15585385
1.162053825
1.170891668
1.174820158
1.156963551
1.018585876
0.582671459
0.1058057078
0.1670250167
0.4261775654
0.6719934609
0.8884177725
1.03679489
1.118692475
1.156090172
1.168794081
1.166682959
1.158947384
1.154296729
1.152071193
1.151419914
1.148202386
1.148670081
1.15079951
1.155735149
1.1618402
1.170556586
1.174008518
1.153020422
1.001913269
0.5727931051
0.1092205571
0.1701736055
0.4268253262
0.6708686549
0.8857331244
1.034325607
1.116976195
1.154826195
1.167813318
1.165984296
1.158597884
1.154057058
1.151832114
1.151153957
1.147839518
1.148341936
1.150504369
1.155463117
1.16160486
1.170185963
1.173034335
1.148391232
0.9867632823
0.5652974702
0.1133411724
0.1726878768
0.4270046864
0.6694020704
0.8827979088
1.031600862
1.115074254
1.15347108
1.166804599
1.165268794
1.158110274
1.15365009
1.151426508
1.150725998
1.147587048
1.148134276
1.150343186
1.155312558
1.161344806
1.169782421
1.171880014
1.143233008
0.9731434755
0.5596855559
0.1180837747
0.1747111913
0.4268163587
0.6676595833
0.8796687134
1.028677641
1.113020535
1.152041751
1.165776036
1.164542388
1.157728042
1.153361445
1.151130548
1.150400897
1.147206462
1.14778726
1.15002755
1.155006623
1.16107288
1.169345969
1.170534852
1.137718814
0.9609669944
0.5556242106
0.1233795038
0.1763641134
0.4263314944
0.6656910234
0.8763862935
1.025596695
1.110840566
1.15055066
1.164732992
1.163807691
1.157204474
1.152916006
1.150683769
1.149931886
1.146905468
1.147532121
1.149821825
1.154823411
1.160782458
1.16887547
1.168998148
1.13200572
0.9501177866
0.5528716086
0.1291661995
0.1777527844
0.4256133389
0.6635359678
0.8729833485
1.022389809
1.108554467
1.149006731
1.16367881
1.163069568
1.156790157
1.152575654
1.150331434
1.149549114
1.146552523
1.147209175
1.149527569
1.154523381
1.160484942
1.168367799
1.167278785
1.126215798
0.9404433535
0.5512046263
0.1353800085
0.1789304125
0.4247189751
0.6612379165
0.8694920209
1.019084099
1.106178652
1.147416731
1.162615637
1.162324901
1.156280696
1.152148052
1.149901232
1.149098757
1.146171675
1.146875475
1.149244627
1.154271873
1.160173659
1.167822919
1.165393486
1.120433761
0.9317795727
0.5503665485
0.1419137714
0.1799524936
0.4237084253
0.6588414596
0.8659440934
1.015703386
1.10372739
1.145787399
1.161547093
1.161583998
1.155782683
1.151711967
1.149452418
1.148618079
1.145911038
1.146639355
1.149034377
1.154058641
1.159862992
1.167247013
1.163379101
1.114713667
0.9239596784
0.5501164539
0.1486333581
0.1808773056
0.4226353332
0.656388086
0.8623642215
1.012266702
1.101212508
1.144122969
1.160487703
1.160845959
1.155405219
1.151396339
1.149132004
1.148281124
1.145390144
1.146175406
1.148632423
1.153687427
1.159583986
1.166676967
1.1613506
1.109104274
0.916891002
0.5502905332
0.1554197963
0.1817429386
0.4215454938
0.6539214445
0.8587808225
1.008794949
1.098644309
1.142423586
1.159505698
1.160185863
1.154708743
1.150785655
1.148507734
1.14761854
0.1574272658
0.05553567639
0.04366512212
0.3108747975
0.0803262529
0.05850864353
0.4335441261
0.1126169496
0.0841780244
0.4551169906
0.14234735
0.11734422
0.3964546044
0.04137198001
0.05169622026
0.1776780261
0.1461600273
0.3381053338
0.08198523985
0.04250415741
0.1056756501
0.2407785244
0.1806875555
0.0779912684
0.05592200669
0.04505706966
0.08377062974
0.02825081612
0.01884429953
0.05967458178
0.1032489162
0.1051097886
0.3100372508
0.3033086915
0.1814040698
0.02886552013
0.0425642641
0.08420049139
0.1189201089
0.105701315
0.3862040193
0.4164245995
0.3181938261
0.3715562256
0.208096884
0.2343563999
0.05130023945
0.03621472139
0.1149745537
0.1465147401
0.1248651165
0.4299903902
0.4481423606
0.4274014339
0.4655571116
0.1351018413
0.1757437259
0.09692161182
0.07066340697
0.4443344567
0.3989698927
0.4446320994
0.4299498261
0.07939879517
0.1050446832
0.01764973434
0.1334706475
0.1287347463
0.4820904947
0.3841748837
0.392000425
0.3675592623
0.03083845457
0.05094559464
0.2958347109
0.1133588273
0.08393779002
0.06421039906
0.1477603309
0.03071520932
0.05831203293
0.04369082052
0.02950073954
0.04736191218
0.03128734523
0.04800877298
0.2379077219
0.2631665054
0.2585387687
0.2050882381
0.1907246938
0.1669185745
0.2079733938
0.03583385075
0.02872640292
0.06992435428
0.04258962661
0.04864352525
0.04926058645
0.04279017043
0.06842019289
0.1785658391
0.2041711789
0.3874148311
0.1588053186
0.1338949157
0.1889358408
0.1608709332
0.06720410403
0.05259805358
0.100445569
0.07233527146
0.09344527478
0.04915688286
0.06958965752
0.09620108846
0.1064921941
0.1334091481
0.4656230049
0.1068277278
0.08088948161
0.1324580565
0.1082124536
0.1275387889
0.101033969
0.05193768339
0.07758658463
0.4185682816
0.01324050945
0.05419272245
0.03244632746
0.07980739599
0.05579373575
0.0122601963
0.1400144191
0.1353689388
0.01997862449
0.004727017624
0.03053690381
0.3613625729
0.06619226198
0.01907257882
0.01101031363
0.03209223658
0.01939829069
0.06340511332
0.2299683905
0.1644109804
0.09335459734
0.09983269272
0.06320819338
0.03604968351
0.01607254468
0.008212642618
0.238567505
0.266502577
0.162095976
0.009541657121
0.1483458261
0.1825832993
0.1546733555
0.01131621542
0.05696391451
0.04922373122
0.07910740596
0.1561810462
0.143805623
0.14702692
0.0704263731
0.1114964407
0.0416865486
0.01273224937
0.02223465728
0.02161283102
0.02960270381
0.0457778187
0.04767256762
0.03425490916
0.131418169
0.1225369242
0.1302032899
0.0968439766
0.120583383
0.1283512395
0.02864178062
0.01279461045
0.05007311393
0.02212251726
0.03759385653
0.02996696771
0.01901560228
0.02917913862
0.02110248798
0.01494339248
0.02246464772
0.01903523143
0.009777369468
0.01600038811
0.02128120188
0.03671357399
0.03731099366
0.04378182219
0.04272326857
0.01759227467
0.01012220155
0.08515943531
0.01475943048
0.02683958237
0.009525459435
0.01276332885
0.08130274204
0.09396777955
0.2649668647
0.252186542
0.0729002359
0.06103491925
0.01105197231
0.0459620135
0.1958423324
0.1830837518
0.2134469822
0.2010113992
0.0463108446
0.05016928521
0.04204738374
0.09361343476
0.06600101536
0.05633109171
0.04025611264
0.06553856233
0.1054194879
0.03722672564
0.02309573779
0.01455562383
0.05184364863
0.02574306419
0.04111432651
0.02475907565
0.0575498177
0.03943059299
0.03858368907
0.2026433433
0.03140089209
0.2019982397
0.2230621645
0.03509210035
0.03922981198
0.03181575361
0.03459779517
0.2191540514
0.03418628649
0.03390307768
0.04604371258
0.0676980581
0.06313289012
0.07404746674
0.06938294686
0.04634074803
0.05098801954
0.05538992045
0.05027248879
0.06150098839
0.05681658973
0.05006488869
0.1466437262
0.1450341157
0.176159673
0.17441582
0.06327071522
0.009369937787
0.06198399584
0.09726096911
0.09540441549
0.1198072086
0.1181670961
0.02853455337
0.04191585065
0.112817357
0.03196824204
0.01892939699
0.06841135145
0.2308231293
0.2179577845
0.2478369396
0.2350673353
0.06974996696
0.02600168109
0.04965029417
0.04862182265
0.07261672263
0.07174904158
0.007477483089
0.03436395169
0.0894987959
0.07707764951
0.1781264588
0.1689216107
0.02453306791
0.01224228591
0.01988078135
0.01403591882
0.03065105236
0.01241285274
0.01359536166
0.01282687135
0.03069198376
0.05361579856
0.01293588822
0.01680244917
0.003584975834
0.01852249874
0.01416015418
0.5646674594
0.3984218347
0.382373341
0.2679278463
0.008658219056
0.005325895367
0.1520519365
0.3485925378
0.2699921833
0.005801822606
0.01274419335
0.01088514711
0.1059361074
0.09398333198
0.03680042449
0.1927337149
0.1622937868
0.08239513971
0.009199672195
0.01560005608
0.01245219189
0.008353182183
0.01227931285
0.008691593885
0.03115521232
0.01310090718
0.01232101516
0.03987956734
0.04764732941
0.01371234824
0.01890574467
0.009146044603
0.009255393945
0.03793840376
0.1494764522
0.3291716252
0.3174177142
0.3445534768
0.3330517606
0.1527935736
0.2814328978
0.2689866701
0.09528399223
0.03393560373
0.0991518225
0.09381320271
0.01185059512
0.01675707242
0.09104475985
0.0456299485
0.01483638236
0.01321124182
0.03756287983
0.0420670201
0.03773520355
0.04863568864
0.04361188786
0.03921557789
0.0350030408
0.009329723406
0.009173470563
0.0300512991
0.1895559766
0.3594787198
0.3482927914
0.06067790386
0.06263819021
0.1386588991
0.02007006301
0.0219412144
0.05627041664
0.08077607584
0.1005484267
0.09310304042
0.05543764686
0.08144855256
0.07589709586
0.09039349894
0.0836247266
0.05658625124
0.1201390125
0.2976086492
0.2854654035
0.3134867599
0.3016226527
0.1219752986
0.1028170558
0.03733023342
0.03806437624
0.02151321203
0.02234632239
0.08535011064
0.1272658642
0.05644676634
0.06026821704
0.03836957396
0.039055445
0.1123675832
0.1168439353
0.04419502796
0.06054640187
0.008052290218
0.01751322722
0.05183216913
0.03964794918
0.0766912925
0.02089443421
0.02137076222
0.02050355544
0.06525719437
0.01144615254
0.004402004136
0.12966222
0.1123516715
0.0920017896
0.08770464994
0.03020419163
0.01796077106
0.02971834314
0.07486371419
0.01884576468
0.01175232304
0.01837063213
0.02356111952
0.002835587668
0.03162639082
0.02045809903
0.01191592066
0.006245842661
0.01151183157
0.009558456763
0.009377928764
0.02713800065
0.02078562208
0.007330637884
0.0387318932
0.0403777658
0.01480657598
0.01087561862
0.007019849187
0.01144719299
0.0161418384
0.01071838196
0.01313354908
0.04007421722
0.01049399161
0.01039077922
0.01183585101
0.01286087725
0.03414774381
0.01204306369
0.01190633685
0.01311906516
0.01191031533
0.01243618025
0.01790758118
0.0139915424
0.02544821773
0.0198498721
0.01246534692
0.01464346063
0.02153229156
0.01790101975
0.0268799086
0.02264041291
0.01745085332
0.01559424437
0.01225054906
0.01134592768
0.008870101227
0.03296274672
0.03925315418
0.01209632982
0.01145749122
0.01284447102
0.0133411152
0.04642134104
0.009043960033
0.009049370375
0.01110251577
0.009189742332
0.00904332322
0.03906727683
0.009035356344
0.01262207785
0.01249921395
0.01142274552
0.01948022067
0.0501546489
0.04520343524
0.01060880161
0.03661954986
0.03123564364
0.04340707463
0.03862725352
0.01095010669
0.01163525773
0.035356545
0.02956795831
0.1077340936
0.1010319546
0.03785807875
0.04850476127
0.115087978
0.1095554523
0.04523767681
0.04438407691
0.06801336852
0.07706607629
0.09333210753
0.05783871473
0.07233436075
0.06889395696
0.0604865584
0.1393746993
0.128208743
0.1010829048
0.133119886
0.06040143231
0.03828172154
0.04250434784
0.05294943241
0.033096358
0.03702054244
0.02086416817
0.01979562041
0.04436564912
0.01423321212
0.01429506737
0.01119089332
0.02079909041
0.02463468494
0.01481840638
0.02099587338
0.03420828418
0.02871713916
0.02187051391
0.02957181196
0.09604583605
0.08417409403
0.1023973733
0.09850426966
0.0307064923
0.07575223316
0.07354697182
0.0807885489
0.0765482256
0.03659921135
0.1184953282
0.11414135
0.1255367536
0.1200375473
0.03718772408
0.0329324577
0.1074462672
0.1037296362
0.1127460263
0.1087345793
0.03327714789
0.009653951299
0.009421698892
0.03476757823
0.03135403556
0.009425970922
0.009745514954
0.04379251376
0.04301995174
0.04598431246
0.04405791945
0.04159067819
0.04053212282
0.04276279423
0.04186594204
0.07018428645
0.06822122509
0.07286107854
0.07086519774
0.06271030453
0.04873084249
0.06740299412
0.06529787896
0.02290283604
0.01943996922
0.02967796065
0.02477487586
0.006659788096
0.01242286877
0.01160837635
0.01814683098
0.01273792938
0.03636048793
0.03697148786
0.1014473326
0.02152319824
0.02130920641
0.02218400194
0.02170944183
0.02063912331
0.08774455732
0.02301008321
0.03416402358
0.04122677523
0.05454366643
0.1254572726
0.03771081945
0.0243449303
0.04039231725
0.03738822255
0.02296398869
0.02242123707
0.02390043408
0.02318733799
0.1137755256
0.03928694107
0.0401826539
0.006880725166
0.02653560677
0.01020011278
0.01036460063
0.01015808015
0.02469951354
0.008397923976
0.01965703814
0.01162126239
0.01193585611
0.05117475141
0.04463092364
0.02029786238
0.02078638181
0.07573149185
0.06748981784
0.01941227169
0.02023654543
0.01135165978
0.0290995667
0.08505925876
0.07649382607
0.0132884743
0.01264220173
0.01806678502
0.0121659676
0.01361969233
0.01613910502
0.03151644895
0.008857742232
0.01322183796
0.01199710726
0.01314571816
0.02130698877
0.05195232707
0.1102168277
0.142529259
0.0109274578
0.01064141094
0.1843095557
0.2345158719
0.193535658
0.007223578703
0.03597451298
0.01370102087
0.01753439036
0.1343845248
0.1400483398
0.1570545579
0.00470866639
0.007182346944
0.005291226427
0.004820414371
0.005641617969
0.004411078309
0.05539971955
0.03457683575
0.02188200077
0.02503977811
0.02293168946
0.02681090365
0.2196831851
0.3635000846
0.377353208
0.3442588819
0.3562682753
0.2233971458
0.04296591093
0.03735683827
0.01249476937
0.06449665878
0.0764177029
0.131835526
0.1224445113
0.1168468108
0.04899804177
0.02772631009
0.02975044587
0.03265636323
0.3737822279
0.3631064085
0.1930781102
0.1533350396
0.06831255454
0.07213400222
0.07522914558
0.08608093796
0.1670694477
0.05977625795
0.1308377353
0.124393044
0.01142400949
0.0113755952
0.01432653673
0.02016384863
0.02046309827
0.03330841175
0.01159217406
0.01162984276
0.01137312247
0.02653441778
0.0518115081
0.04456303167
0.01902075649
0.03188334791
0.0197193674
0.01989726708
0.01942658259
0.01482095352
0.009737890184
0.01156151177
0.01107428013
0.01126401117
0.02270283657
0.0281802328
0.05667653395
0.04058163997
0.03637130766
0.0332039007
0.02448263119
0.04204206988
0.01483169506
0.02054647994
0.01216804835
0.008739458164
0.008861567717
0.01245145443
0.01231265303
0.02250509659
0.01427645797
0.00986633054
0.01744150417
0.01910309236
0.01762567372
0.01379561188
0.01717935879
0.01609592175
0.01054323641
0.01108870783
0.006613789589
0.009683731788
0.01054474857
0.05697107424
0.05175905412
0.02118681695
0.009407731825
0.01294248235
0.01189226998
0.01120488524
0.01406360745
0.01260799574
0.04810584608
0.03721019841
0.04280394507
0.06672757119
0.0939560289
0.09262959951
0.04181804194
0.06755780464
0.06393607183
0.09156944175
0.08990534821
0.06421725783
0.03205292648
0.03863257227
0.03467562448
0.02664939153
0.02729930295
0.02252754783
0.04689952875
0.04556934542
0.04902008666
0.02377092174
0.03423061018
0.03258216018
0.05276475236
0.05238936031
0.03114434225
0.02887624584
0.02846110088
0.03152803747
0.03081651977
0.03562248832
0.05877847045
0.05817285174
0.06233159847
0.06158243711
0.0384723906
0.03214627455
0.05398321767
0.05346784495
0.05754919492
0.05693329234
0.03414079638
0.06569770147
0.06760887699
0.1516196044
0.1401817209
0.0632278654
0.06508999731
0.092951443
0.09610009807
0.18162353
0.02684618305
0.02669908273
0.02822085038
0.02799901344
0.02045626439
0.02642743456
0.02632052533
0.1689324478
0.08831630479
0.09177727511
0.009264298437
0.009254744448
0.0115213478
0.01109836438
0.009356324874
0.009125553411
0.006806260978
0.05753776001
0.02283687916
0.0280830826
0.1391637253
0.132986568
0.06307950941
0.07274859669
0.1465482347
0.1410038215
0.03258297241
0.03264054264
0.05000702461
0.04830362957
0.03218557286
0.03213191368
0.01114757495
0.02318418435
0.03705754975
0.03650213706
0.008637074832
0.01472503201
0.01765134299
0.01374044735
0.01319647749
0.01879741132
0.0190418205
0.03110895476
0.01251530399
0.009124258071
0.01237773438
0.01271107122
0.02908601168
0.01829290922
0.0188857273
0.01366902881
0.03316942906
0.02779755149
0.01106713272
0.01104650051
0.010865835
0.01110238517
0.0154330785
0.006366910214
0.00406932089
0.007461743698
0.01166880817
0.01066914361
0.0108485484
0.01059262134
0.01077239299
0.01094915389
0.009962141715
0.006554228871
0.0051961451
0.01135623291
0.01167879339
0.01100986216
0.01110042758
0.01275785648
0.01957948867
0.01982134647
0.01921445573
0.01940828899
0.01263969656
0.009104249048
0.0150486688
0.01502758191
0.01555468094
0.01516593862
0.009005920471
0.0140856714
0.0219985104
0.02444177376
0.02009976066
0.02072720871
0.01364435877
0.00930907572
0.01504111451
0.01504225747
0.01499191562
0.01503208704
0.00923297211
0.01067125005
0.01085224947
0.01032271723
0.01082189956
0.03749503967
0.05701196471
0.05653804554
0.02175152456
0.03630258597
0.03604647097
0.03764524226
0.0366722592
0.02196237647
0.01183685361
0.01137497648
0.0115980388
0.01191176152
0.0204133114
0.02021690503
0.02085341364
0.02063157673
0.0159003219
0.03543672902
0.02106900945
0.02200424826
0.02107092009
0.03554672803
0.03532293132
0.03588568353
0.03569977534
0.02119865339
0.02176944238
0.02116579867
0.03186947879
0.0227508152
0.01630800298
0.007869898175
0.01140133997
0.01129710869
0.007763488745
0.04357117589
0.03025274876
0.002988651788
0.03020522648
0.04639997408
0.04606152355
0.01880922543
0.01167134798
0.008571762851
0.00344147685
0.01319888721
0.01349425714
0.01947910775
0.01964791717
0.03181569094
0.01985179948
0.01079411233
0.01139778569
0.01466449309
0.004515805311
0.009036495756
0.00693133697
0.006737423658
0.007391064405
0.00958984614
0.006581751126
0.01097707995
0.01099797691
0.0108759006
0.04032622783
0.03122802105
0.00823318999
0.01024679734
0.01131316611
0.01848772459
0.0207037421
0.01207801462
0.01496950985
0.01457689146
0.01061905551
0.007003927111
0.01056936202
0.01197205958
0.008336016159
0.0118773948
0.01216670929
0.01238042644
0.01233853859
0.01213145796
0.01229192672
0.01220411967
0.01214882496
0.01244710329
0.01243200406
0.01231540674
0.01262695159
0.01292915645
0.01268102459
0.01814967054
0.01956873983
0.01835232105
0.0259889193
0.02243685504
0.0174179626
0.01632798125
0.01759231542
0.01088283628
0.01737629162
0.01837875804
0.01252160126
0.01733657872
0.01168912719
0.01188286552
0.01885511451
0.01902632662
0.01844811614
0.01870030742
0.011717866
0.01302281227
0.02261133088
0.02220068291
0.009078645052
0.009059044693
0.0099310441
0.007314660513
0.009017176576
0.009020969678
0.008942021756
0.008546585811
0.01040141218
0.01866861374
0.01666666865
0.02158296084
0.02046383058
0.0118503332
0.009722503875
0.01026703242
0.01418832916
0.006664064382
0.009960685033
0.009916928229
0.01116397733
0.009723525627
0.00990552197
0.01686975157
0.01499242626
0.009867594762
0.04640592095
0.04339423544
0.08293694737
0.0744149752
0.04377266314
0.06395691873
0.08907777759
0.08565572457
0.03469520499
0.03196683809
0.03000241784
0.02267398004
0.02931266808
0.04254003464
0.04296188156
0.03773797656
0.02080456768
0.02993204121
0.0303731526
0.02722434265
0.02814747516
0.01961898514
0.01346539905
0.01445831554
0.02219377471
0.0156782009
0.01490646114
0.01676352779
0.01589846274
0.02250743629
0.01525284979
0.01589148313
0.01249888048
0.01630378367
0.04832767685
0.04851848559
0.03101950605
0.030684062
0.05141702684
0.05140963384
0.02957268427
0.02917715578
0.03035223645
0.02992651617
0.05988583726
0.05930853396
0.03602483442
0.03781285463
0.06100943906
0.06045364891
0.05517483402
0.0546276956
0.03258364369
0.03366715681
0.05630697833
0.05573563021
0.009554647873
0.0151030631
0.01512887961
0.01507977753
0.01510785703
0.009513860026
0.009784270072
0.01405082762
0.01222960706
0.01505528285
0.0148002621
0.00978106129
0.04352299566
0.02554447473
0.02581514329
0.02511809943
0.02532547396
0.043277169
0.04485607532
0.02676350353
0.02725343258
0.02608272725
0.02639511207
0.04437716353
0.04120752206
0.02389419593
0.0241341512
0.02352596014
0.02375717377
0.04097221077
0.04248269218
0.02472193517
0.02491378849
0.02429911259
0.02453344436
0.04220712047
0.02728813589
0.02710171767
0.06953888834
0.04661592686
0.0469379193
0.04591621888
0.04619801544
0.06882335087
0.02773752769
0.02752976947
0.02517113189
0.02644188557
0.06061340384
0.04215325747
0.0418485328
0.02816085678
0.02957804716
0.05411189166
0.06691962649
0.0452147712
0.04541522879
0.04449578556
0.04444460686
0.06568367459
0.02598997559
0.02603590369
0.009249499638
0.009402240357
0.009188890078
0.01067184724
0.009824929113
0.01206218482
0.009190428315
0.009185632393
0.009094184266
0.009143035299
0.01197453218
0.01623468099
0.009820398356
0.01081857088
0.009300585895
0.009130403586
0.01404569463
0.03628072918
0.05443436804
0.05412000701
0.0558457315
0.05548102172
0.03687303186
0.0214786867
0.02123693662
0.02205922781
0.02178479425
0.02174880611
0.01701269157
0.02420460771
0.04468572783
0.03999641539
0.05192731911
0.05008583613
0.03444180768
0.02644083686
0.01834554087
0.023627403
0.02512865201
0.03970982588
0.02317066601
0.02346127307
0.02248205156
0.0232260257
0.0397791586
0.02279715923
0.0225703629
0.02362979885
0.02338232956
0.01036271506
0.01132607348
0.011063504
0.01377294438
0.01218334477
0.01036702456
0.0099627421
0.0101312934
0.01062211083
0.01040782283
0.006759091958
0.01204044532
0.01153245339
0.01169101582
0.01229294779
0.0118404396
0.01198577894
0.01975392733
0.01970912171
0.02000925447
0.01994390397
0.03047883712
0.03044569299
0.04626071192
0.01893443644
0.01998573774
0.01947261959
0.0195416949
0.02051320638
0.03473169362
0.0343663252
0.0351617026
0.03487876906
0.0205926478
0.0199665288
0.03367372012
0.03178341568
0.03424472016
0.03364785065
0.01994991649
0.01147396397
0.04442090637
0.04387674438
0.02888640643
0.01345067801
0.01096256592
0.01070617461
0.008165708762
0.0112109229
0.01281462692
0.01863796851
0.01280999398
0.0138000602
0.01352162292
0.03122638322
0.01915378076
0.01935827447
0.01223126682
0.0122753003
0.01229191459
0.01303358066
0.01288693803
0.00876056114
0.009002918283
0.01308576001
0.01240748613
0.01282779451
0.01553187169
0.01917402012
0.0291165651
1.155382983
1.156013647
1.155928881
1.156280365
1.157302688
1.156587251
1.157729446
1.022125484
1.157528399
0.9823694632
0.8717255351
1.032576904
0.8513164348
0.8021354557
0.9467562938
0.7995169725
0.8080449921
0.9528888255
0.8162380901
0.8804804031
1.043438827
0.905726734
1.030382133
1.157680188
1.073877294
1.157539045
1.156729309
1.157165527
1.156231802
1.156056794
1.155583023
1.156908996
1.156136556
1.157499961
0.9538678207
1.157728443
0.8914090584
0.7441074771
0.9517991495
0.7073779533