/*--------------------------------*- C++ -*----------------------------------*\
| =========                 |                                                 |
| \\      /  F ield         | OpenFOAM: The Open Source CFD Toolbox           |
|  \\    /   O peration     | Version:  v1912                                 |
|   \\  /    A nd           | Website:  www.openfoam.com                      |
|    \\/     M anipulation  |                                                 |
\*---------------------------------------------------------------------------*/
FoamFile
{
    version     2.0;
    format      ascii;
    class       volScalarField;
    location    "0.54";
    object      omega;
}
// * * * * * * * * * * * * * * * * * * * * * * * * * * * * * * * * * * * * * //

dimensions      [0 0 -1 0 0 0 0];


internalField   nonuniform List<scalar> 
12556
(
31.93114319
31.9320526
31.93298258
31.93378049
31.96675901
31.96755694
31.96841659
31.970153
31.97350744
31.978878
31.98599169
31.99301445
31.99669068
31.99483083
31.98878504
31.98166516
31.9757669
31.97125716
31.96931186
31.96773305
31.93392088
31.93275551
31.93169845
31.93073495
31.79527763
31.79787937
31.80047344
31.80273404
31.83643593
31.83939733
31.84418644
31.86703532
31.88226791
31.90711345
31.94020213
31.97229901
31.99230829
31.98613425
31.95958751
31.92682716
31.89778005
31.87745682
31.8493099
31.8413008
31.80413421
31.80039748
31.79716559
31.7943043
31.6611243
31.66573527
31.67020621
31.6738389
31.70841104
31.71484817
31.726069
31.75865533
31.79458614
31.85092422
31.92359961
31.99322982
32.03448096
32.02115447
31.96529102
31.89430245
31.83038021
31.78356043
31.73729499
31.71979015
31.67733934
31.67099108
31.66531078
31.66051742
31.52862452
31.53460372
31.5405527
31.54601345
31.58283751
31.59519158
31.61870699
31.67056241
31.74273579
31.85413898
32.00048952
32.15009688
32.23825865
32.20309933
32.07918548
31.93454799
31.80627311
31.7157298
31.64021231
31.60701338
31.55517703
31.54457206
31.5360026
31.52909387
31.39799806
31.40583664
31.41367186
31.42177814
31.46157557
31.48291551
31.52712484
31.60976253
31.74559664
31.97090246
32.29412103
32.69516743
32.95610391
32.85118885
32.49549863
32.14308108
31.86186827
31.68915101
31.56585322
31.50552158
31.43762582
31.42126522
31.40909844
31.39973357
31.26861606
31.27783957
31.28754258
31.29922789
31.34549798
31.38105383
31.45729137
31.58334809
31.82758878
32.27486021
33.08824782
34.55391773
35.79337088
35.17760767
33.72625937
32.72009858
32.070366
31.71976612
31.51613448
31.41793417
31.32630864
31.30038848
31.28353428
31.27144372
31.14164702
31.15270897
31.165296
31.18199052
31.23551529
31.29022785
31.40696524
31.60099806
32.01457275
32.86674481
34.96973871
42.01243633
49.14588954
45.76545273
37.11714089
33.98863986
32.51447705
31.83896556
31.49470042
31.34594688
31.22076828
31.1824364
31.15947516
31.14412778
31.01651694
31.02929129
31.04498802
31.06816393
31.13306721
31.21120159
31.37681732
31.66069892
32.29457954
33.73140185
38.13548586
60.85269617
79.02515815
44.89816281
36.27139347
33.24689731
32.05496691
31.50439789
31.28713537
31.12198807
31.06762284
31.03704017
31.01811026
30.89602015
30.91121298
30.9314094
30.96362881
31.03792422
31.14392592
31.36514378
31.75279758
32.61913
34.60402202
40.79672982
74.51269783
153.4287909
56.10764866
39.37524706
34.22032987
32.34829433
31.54117992
31.23956165
31.03003143
30.95735858
30.91766903
30.89459055
30.77965648
30.79706734
30.82169923
30.86334957
30.95081839
31.08697456
31.36782661
31.85986252
32.9282316
35.28933289
42.24084814
79.8329025
190.9963206
65.67991117
42.45028991
35.22084904
32.66483503
31.59553407
31.20114638
30.94540536
30.85273735
30.80294802
30.77536622
30.67047143
30.69094924
30.72139145
30.77466895
30.87197468
31.03834542
31.37828124
31.96786016
33.19463465
35.79562851
43.20851428
88.80812963
189.4440888
70.92948855
44.62555849
36.03399461
32.95494578
31.65202141
31.16951575
30.8677552
30.75537639
30.69494001
30.66229148
30.56665835
30.5895489
30.62487834
30.68895135
30.7999225
30.99578604
31.39308083
32.06652926
33.4173314
36.19639648
44.12472244
99.71102445
173.9183919
72.3675518
45.7010141
36.54932253
33.17372617
31.69682262
31.14031754
30.79696494
30.66484035
30.59415015
30.5564996
30.47067296
30.49670271
30.53871277
30.61440335
30.73268134
30.95488668
31.40016412
32.15106378
33.59323443
36.52811227
45.24751907
108.7697726
800.4879212
148.4105071
71.31330797
45.86308397
36.72521508
33.29839048
31.72004227
31.10874228
30.72957719
30.58108131
30.50017514
30.45752834
30.37834692
30.40702726
30.45480766
30.53972426
30.67526932
30.93210707
31.43539563
32.24989607
33.78628237
36.92400766
46.95508566
152.5910895
494.1118203
137.8714782
69.25608481
45.26321135
36.65173494
33.34480692
31.71674989
31.07127553
30.66211592
30.50118213
30.41114768
30.36378272
30.29116896
30.32246067
30.37524644
30.46776802
30.61308476
30.89319576
31.43924718
32.34327378
34.02652349
37.38567553
48.54802494
392.8741444
353.505307
126.9328299
65.57431566
44.24161877
36.40776973
33.32329379
31.68752522
31.02401859
30.59431584
30.4230453
30.32489625
30.27392564
30.20373626
30.23738704
30.29449848
30.39430144
30.54947395
30.8478437
31.4291596
32.45096363
34.41852025
38.35692457
53.48385189
703.6791074
293.3134704
112.3486699
60.81048589
42.86654204
36.08169337
33.2374776
31.63064289
30.96535485
30.52111588
30.34243416
30.23837797
30.18377774
30.1183912
30.15438111
30.21487042
30.31971513
30.48214691
30.79420751
31.40244496
32.52445344
34.94908454
40.44862435
71.79143277
964.2195019
212.9551352
94.5283395
55.58601134
41.46420512
35.79046896
33.11729075
31.55212818
30.89548775
30.44338594
30.26001412
30.15064949
30.09356504
30.02891689
30.06691756
30.13025307
30.23990082
30.40960958
30.7309884
31.35922798
32.52019431
35.39070464
44.15985386
154.1950036
738.0376555
159.1649495
79.76654076
51.55965162
40.52779589
35.53438679
32.97427743
31.45512407
30.81156352
30.35627422
30.17004356
30.05810905
29.99888948
29.93983557
29.97975777
30.04527229
30.15745935
30.33103801
30.65814945
31.30026808
32.48891473
35.51250257
48.13220948
269.8953091
467.5053775
132.0445325
72.02648871
49.75131234
40.0191386
35.27206301
32.8153968
31.34504543
30.71680793
30.26273103
30.07576768
29.96225766
29.90197066
29.84416346
29.88551567
29.95297003
30.06815867
30.24642054
30.57658427
31.22779476
32.43777527
35.61090287
50.97157477
287.2949569
374.6753101
123.5310143
69.98748121
48.82617375
39.55995814
35.01473267
32.64855324
31.22559715
30.6127218
30.1605811
29.97349622
29.85935081
29.79862633
29.74925485
29.7917883
29.86061832
29.97666199
30.15595139
30.48742131
31.14418588
32.37132342
35.71431039
54.29123565
291.6958892
325.2135262
118.1309841
68.43928258
48.07091915
39.14890673
34.7680655
32.47891943
31.09952966
30.50091262
30.05364982
29.86807388
29.75413822
29.69342338
29.6464598
29.6895735
29.75960684
29.87763729
30.06020692
30.39175551
31.05159162
32.29346867
35.83670624
57.46081905
289.5944468
290.0553537
113.7068919
67.14654831
47.47250667
38.78725459
34.53503843
32.30996896
30.968905
30.3830369
29.93930075
29.75487368
29.6415559
29.58134117
29.54657198
29.58999094
29.66056431
29.77813187
29.95961192
30.29063045
30.95194391
32.2079599
36.00866352
59.94429166
282.9076958
264.1982534
110.0191477
66.04372088
46.99593173
38.47573505
34.31777928
32.14420526
30.83556672
30.260637
29.82313297
29.64130344
29.52911836
29.46963415
29.4376863
29.48090198
29.55195487
29.67083027
29.85504496
30.18506253
30.84712452
32.11960103
36.26859775
61.74613506
273.3773758
244.4199681
106.8960934
65.09097884
46.60445136
38.21042541
34.1175673
31.98338783
30.70113292
30.13515744
29.70069855
29.52017771
29.40910272
29.35060381
29.33510024
29.37795995
29.44882124
29.5660543
29.74709307
30.07609655
30.73905647
32.03439782
36.61335226
63.00442164
262.1021334
228.7541778
104.210863
64.25865816
46.27298862
37.98375896
33.93429171
31.82859273
30.56686009
30.00776526
29.5798169
29.40229264
29.29268053
29.23520593
29.2214948
29.26365592
29.33448893
29.45277908
29.63686343
29.96472154
30.62946025
31.95842292
36.99290872
63.82546074
249.976345
216.0107042
101.868068
63.52389961
45.98631616
37.78785173
33.76661286
31.68019333
30.43359941
29.87947831
29.4526315
29.27586923
29.16739064
29.11103648
29.11878725
29.16023921
29.23041535
29.34612777
29.52475653
29.85179287
30.51975537
31.89602782
37.35718863
64.29273207
237.6325302
205.3810159
99.7942425
62.86852808
45.73462872
37.61626636
33.61269962
31.53809491
30.30191142
29.75097946
29.33086051
29.1572411
29.05022893
28.99492213
29.00125203
29.04176534
29.11161903
29.22854932
29.41184509
29.73797837
30.41109702
31.84853759
37.67891275
64.47670251
225.4470919
196.2941544
97.93107222
62.27746076
45.51090796
37.46409693
33.47070492
31.40194208
30.17211883
29.62292201
29.20076326
29.02697222
28.92091147
28.86667679
28.90094245
28.94061962
29.00958537
29.12319196
29.29804405
29.62382078
30.30448016
31.81425666
37.94879956
64.43731195
213.6917654
188.3920984
96.23660174
61.73877145
45.30977781
37.32764877
33.33901836
31.27132337
30.04442259
29.49557489
29.08130865
28.91082215
28.80608352
28.75278445
28.77930948
28.8179535
28.88639961
29.00157631
29.184496
29.50977995
30.20070631
31.78988286
38.16637209
64.2230688
202.4918179
181.4095819
94.67879515
61.2430013
45.12698921
37.20411304
33.21628869
31.14583159
29.91894418
29.3694251
28.94842084
28.77666455
28.67266057
28.62031603
28.68404421
28.7218593
28.78937441
28.90073976
29.07057672
29.39626382
30.10032556
31.77167998
38.33432695
63.86782929
191.9043241
175.1471739
93.2323127
60.78283859
44.9592942
37.09135053
33.10140396
31.02510418
29.79577529
29.24445125
28.83463407
28.6663525
28.56342293
28.51184236
28.55702848
28.59378081
28.66058105
28.77368202
28.95781412
29.28366553
30.00363837
31.75624133
38.45616112
63.39720565
181.953973
169.4482186
91.87795882
60.35249152
44.80406489
36.9876423
32.99342919
30.90880674
29.67499247
29.12120182
28.69706613
28.5265735
28.4242239
28.37346901
28.46998458
28.50599683
28.57199247
28.68148711
28.84492201
29.17237463
29.91077265
31.74096887
38.53648758
62.83592192
172.6525999
164.2270945
90.60083648
59.94643535
44.65883747
36.89149284
32.89154287
30.79662001
29.55672111
28.99942658
28.59368288
28.42637749
28.32473772
28.27454853
28.3349361
28.36987118
28.43492281
28.54527058
28.7344199
29.06293837
29.8217965
31.72421655
38.58117931
62.21313683
164.0442151
159.4100662
89.38600783
59.55922452
44.52135787
36.80163103
32.79505581
30.68829976
29.44128675
28.88018569
28.44642942
28.27707723
28.17597864
28.12650799
28.26021913
28.29457626
28.35905693
28.46793393
28.6244979
28.95624829
29.73711072
31.70503989
38.59651956
61.55632022
156.1681061
154.9337558
88.22218588
59.18677871
44.38987591
36.71701501
32.70336848
30.5835764
29.32956474
28.76356076
28.36151716
28.1930354
28.09219554
28.04306853
28.08783936
28.12093192
28.18421574
28.29312493
28.52047935
28.85417971
29.65831269
31.6830779
38.58771411
60.88937354
149.0192388
150.7680592
87.11171422
58.82975266
44.26402953
36.63712357
32.61622825
30.48242417
29.22389979
28.65321822
28.17287521
28.00234396
27.901873
27.85343434
73.85329017
182.0041563
89.7245562
79.07816122
230.9387926
188.9860172
87.47428203
225.3752669
232.5980398
98.47674992
201.5730512
222.360985
107.7465533
981.5326889
836.3624691
180.1999566
198.2858852
133.8562757
608.7483933
961.1310268
515.9815555
174.7805147
178.1394685
57.71807834
48.71778382
81.67417839
45.34577804
581.8112023
194.3902829
144.9777638
61.83019702
49.56826937
41.96258592
67.78406948
64.4090033
1979.057534
1411.70139
188.8500233
76.10704081
65.91054173
43.01209883
72.81747248
68.27569928
82.57077166
236.3420453
214.4216264
1074.595737
1511.099495
190.9429739
83.69128128
78.69358287
43.95463453
80.7005734
73.67540342
92.73940888
334.2509183
269.446647
586.9352488
789.8747184
45.04249514
90.73228854
81.66000992
101.4458786
504.1124202
405.8040381
2313.473164
375.3856243
438.3052414
46.70630829
110.5409559
92.23416782
116.663049
1079.293885
716.2059477
147.9050673
461.5846846
599.6077671
186.0507747
215.2883256
114.425702
179.9764047
1374.760495
614.7282644
142.4339045
490.4382397
954.7731749
211.7647132
194.1938819
76.85346253
253.2589914
264.6849712
220.9274085
250.5029641
1530.601502
1979.120306
212.8248177
1365.409152
1165.54483
986.7310246
1362.509266
210.1411291
266.3729283
239.9891249
83.66470135
306.0268113
347.7268457
266.689946
302.8849944
827.5713558
1049.882877
231.189242
790.7271866
615.0099426
1151.845526
821.2618197
232.5910513
401.6420357
337.4754263
94.05466177
411.5079193
509.7374622
350.4712408
407.649819
451.7024471
564.2595699
705.7228786
513.4289967
101.735768
3294.204161
695.4317841
1049.552518
514.7233747
679.6566424
3710.778056
343.1298569
368.9313459
2022.05732
8586.533468
1087.949484
117.9515656
699.4711312
1692.755354
7761.866136
1058.016686
1665.858023
718.8764078
40.28038408
63.77050717
53.81296453
68.7150069
147.1038068
99.21576953
3604.227858
632.5672719
76.45253675
192.0042021
171.0125726
6072.845294
176.3528093
85.63377084
84.66436372
5986.123352
839.5081107
935.5514273
631.762754
302.6125677
330.9315914
168.4404397
150.68724
70.41856701
1425.010114
270.0194255
624.3177864
161.6150463
433.5005194
131.2726119
955.6844595
1228.074501
210.2807746
465.992127
395.1525514
593.8282126
479.2565242
213.6316844
1386.54917
4612.826631
846.8359946
81.80129287
64.84885636
104.0896105
169.1681315
77.5602831
83.39360117
5042.437844
406.4163761
3547.773408
463.9033802
2590.990178
365.5174405
1613.128173
1592.45439
1252.218495
1282.710454
2377.253776
5147.575852
663.0369556
2886.699693
1554.371345
5804.996755
3395.005414
692.7079202
441.0477857
173.6521036
180.9614781
703.9950055
799.9792802
5398.35419
771.4030371
223.2108535
235.9946258
207.8700509
218.3944443
768.4668671
1289.507113
1426.557238
199.1474466
915.9111152
753.4618763
1370.001698
916.079595
202.7776398
148.2388354
460.4004098
218.6301753
670.1223986
492.2940786
158.9660823
653.2534455
950.6697953
965.525347
913.8074111
252.9400971
1487.090875
253.2889257
235.5428165
1443.157098
1389.029297
1481.986053
1449.365976
239.4655816
1637.057744
1655.805302
1247.891213
416.1999031
406.7806221
416.9943203
417.7509692
1237.451426
1161.236077
371.7534981
340.8519503
401.6162811
380.8429187
1181.750375
325.064969
327.7634619
281.9360804
284.153443
882.3946775
6009.030642
899.3772697
440.8246095
447.4472711
378.3931125
382.3162099
1466.406328
1065.791968
508.2307292
1303.29903
2197.684983
564.4692476
194.8135744
204.2811455
183.6175806
191.8879646
555.9964397
1528.971696
739.6789029
752.019937
550.7888693
555.3037003
6154.226743
1157.405638
601.9227671
675.2653035
241.4692585
251.7723159
1330.751284
2693.655849
1902.579895
2967.97978
1092.381984
6747.01592
3233.062824
5808.957047
1088.456927
805.2405635
4221.638858
2381.544489
4387.352134
2201.684159
2987.486644
47.97853267
113.4487024
112.982416
164.9176069
4240.520044
7961.107372
369.7920299
159.5595335
171.0062122
1283.215357
3407.613115
4637.689255
524.7759304
578.6269374
1085.647847
276.610942
293.4783851
614.5896969
163.3952738
119.3239271
248.9138951
495.5126642
149.8517077
177.3299694
1865.688183
4719.378366
4869.855946
1504.020582
1152.380811
3268.726896
2361.949779
5560.672413
5443.576855
1437.204228
308.6280227
144.9053877
149.3867746
139.4360884
143.4863765
302.9744162
165.1599437
171.5005157
436.5361079
996.6358898
402.3883545
420.5242052
6590.978216
3441.965045
556.7087342
1194.121185
4320.14398
4716.261815
659.5301061
273.5442372
228.9736561
328.1598053
288.685236
690.7696373
1579.164533
5505.482456
5571.940697
1875.148017
254.3257343
134.4524016
138.1646873
699.4129347
686.5999133
338.8563573
2227.437281
2036.67153
984.9855023
709.6144722
368.414201
384.0384848
1019.778528
406.9248519
415.2646795
389.5444935
402.7522708
999.2117981
365.4646884
157.6434894
163.2181489
150.9495895
155.8903601
361.2017296
423.1313199
1002.925278
993.4933477
1579.379478
1533.721677
489.2566906
361.1958037
735.5733013
701.5559774
989.4413449
982.9088716
396.6315473
491.4419408
1025.60008
828.3369338
6201.959775
2331.931795
718.1573092
888.4020214
529.6617875
1611.740614
1586.662612
1617.391783
597.6507573
5249.457091
8701.029555
316.9550764
358.0562901
427.2328287
443.3827717
1094.629736
2174.499442
1314.273844
646.7796153
1708.329784
8377.028977
1980.148835
1786.96774
15945.01189
1067.825002
1586.505543
2195.509427
2664.570634
1989.379046
6036.524792
6124.012044
1479.007958
1949.919189
6198.292072
1471.602268
1408.236433
421.7645985
1597.281576
639.4304046
1577.358873
461.6799836
4638.517817
3284.271134
1081.492058
5342.095993
6171.559676
4831.16704
3542.632091
1163.349657
4976.979555
6077.758255
3499.207689
4744.400814
6458.477172
2294.634372
3150.614066
1573.758798
2048.664646
5801.040251
5176.056356
1456.096267
885.265246
2389.011075
1605.744301
795.0628976
494.7178133
1464.673169
5028.143915
6389.915014
1774.425974
1524.761208
4921.030414
5038.824682
3609.551879
3385.152838
1181.585988
5753.365659
5658.110707
4206.104801
5587.990193
5619.6256
1396.781155
5574.505025
3713.472284
3496.856126
3929.937933
2146.357848
998.7183297
1081.508094
4465.959243
1269.024392
1441.272557
1115.262248
1218.059936
4190.499032
4042.190583
1142.821231
1357.562928
376.194032
396.2080965
907.6418086
741.769291
356.9862742
371.2240616
1391.523992
1402.314981
908.2025283
339.0733564
359.2573164
314.2020439
333.1497014
901.7323333
961.0167779
402.5315928
436.3806873
366.3497267
392.6206257
968.0971689
607.6540301
288.4429753
308.5248485
871.4450648
903.0406875
3088.018127
3209.157186
1132.000178
4587.860614
4670.894582
5882.27039
3185.851715
2655.467652
4537.976681
3144.211119
765.6854331
2209.011203
2953.633182
1523.517057
535.0331254
598.2096988
511.4009543
524.5258302
1489.763356
645.9109191
655.7125715
618.8443059
642.3643567
1425.573959
464.5610735
476.6799591
444.5107276
460.2822766
1417.779286
1468.106777
495.9761633
507.1040815
480.6220316
492.1846376
1465.892251
5376.362757
5455.506305
1594.618643
1797.182543
5661.80489
5352.273866
955.4016861
959.7046265
930.7772836
954.054706
971.45666
983.5070728
961.3638209
968.9620086
671.2743954
681.0294268
658.7819736
667.9774779
720.3010274
888.7350817
685.803466
697.9509733
1898.390244
2234.909281
1503.689313
1762.945223
6252.998898
3576.741047
3945.712854
2395.329249
3452.757571
1015.984473
1008.632619
427.3386008
1609.109767
1613.75903
1577.51201
1599.895009
1658.180727
478.4869332
1498.151818
1068.512331
953.9056866
755.9709261
365.1805373
1031.074138
1484.031556
984.1931404
1040.873969
1542.954562
1565.971267
1503.4573
1533.319727
393.0537852
980.9516876
971.7702076
6240.155528
1555.900932
6156.828456
5313.50672
6135.569089
1670.712504
6414.605637
2054.240849
6145.945011
5362.90589
724.7543867
804.5811876
1644.710052
1616.947944
534.3529249
581.9396043
1708.057676
1647.314619
6092.473965
1133.994732
454.8412194
496.3257914
6273.106711
7098.643144
1779.538178
7692.204149
5630.047215
2456.771896
1069.360069
6726.725816
4023.315749
7472.987893
4454.01465
1529.779196
72.77254156
45.97513369
38.41222649
6150.845456
6125.293694
163.3499321
84.34785286
85.55268059
6392.633003
1108.631934
3215.626555
2340.578394
384.9439965
319.7355085
190.2848628
405.9475219
269.7210665
645.3293182
2388.71947
392.4833891
439.9195288
59.25467144
70.88927439
146.1846049
507.3761111
1029.231477
1526.935886
226.1482019
125.207011
128.759507
120.3142554
124.0209409
223.0667622
975.8930864
1089.578116
3544.840355
790.2905424
693.4229427
409.2483591
339.8619698
352.7299876
736.8024156
1661.883966
2124.979579
719.4589022
129.8830153
133.2772847
250.7467406
314.3545665
654.7982617
630.0944344
608.8635356
544.7410395
293.9188022
628.7326877
322.2834254
335.5946348
4880.770424
4587.469458
2961.406559
1624.762157
1603.379928
1027.594181
4209.315836
6046.551262
5462.716606
1501.325593
859.8345557
951.5326217
1695.740653
1062.893282
1657.482275
1644.751905
1665.10038
3873.607928
5884.770092
4007.622297
4430.536246
5922.220229
1790.283031
1432.795162
851.8819587
1442.064074
213.3092007
167.6630943
308.9332356
1044.280477
2840.573168
1986.148757
6232.090962
6565.640758
6704.960851
5578.323943
6400.002928
109.0121093
141.9012185
384.5899486
4086.427473
2662.943547
2048.926948
5415.387675
4156.476497
2617.069606
4599.138992
4209.036502
6401.774742
6073.265187
4532.745973
904.4762557
975.617713
1967.829681
5957.699814
3354.872216
3711.28984
4762.145734
3019.231847
3481.256486
1337.065588
1752.924215
1419.699034
912.9315465
632.5241375
639.8848272
1335.465764
845.2613811
885.874592
645.1927101
654.1809536
926.6421123
256.2998944
282.3361157
581.7930202
731.9498102
1286.287863
950.3226238
1423.030859
1473.575723
957.3578496
1812.830379
1335.046839
1384.087279
947.6419027
949.0512589
1490.308923
1475.846764
1487.331755
1414.019542
1433.286865
1435.787537
914.8890743
917.595253
901.7638244
906.0372161
1400.383915
1477.684708
939.6542428
942.4950808
920.6237192
923.7570503
1455.07735
668.9931491
658.6469725
317.0621677
336.137047
683.0955383
672.3354934
516.051102
505.1899028
275.2014977
1516.409794
1518.214417
1491.32266
1495.13441
1854.889044
1524.349239
1525.101589
291.3518233
533.9941456
520.466257
5961.861376
5899.603478
3896.369539
4113.6655
5967.88775
5952.747495
6159.877499
964.6728531
1959.432476
1629.662905
306.7828409
318.0901104
601.6002568
539.0888356
294.5344704
303.6083412
1056.009999
1056.030688
736.6470932
754.3475587
1063.257634
1067.493173
6111.983016
1406.721749
924.1513407
911.8809968
12166.25593
2203.334721
2266.916094
5092.448678
4280.142734
1721.959195
1701.800357
1078.746914
6516.584763
7095.485248
6786.946714
5368.670811
1144.275598
1765.148967
1711.641124
3254.316233
1210.646744
1441.197665
6029.753077
5949.496924
4730.261551
4421.259792
2697.444521
1482.78254
2152.591863
1777.677231
3893.125466
6094.064975
5270.67601
6173.095271
5918.564297
4357.119238
247.1355547
358.4002078
1257.812412
4823.067926
4727.845788
4910.789946
4898.044806
4802.177668
3109.416999
3091.639867
3121.78291
3111.105284
4796.831162
5593.275772
3125.391582
3152.084473
2991.645334
3082.700626
5684.480404
4493.385475
2837.227265
2557.371191
3071.758168
2995.910622
4600.719589
5483.279168
3218.721991
3244.226214
3181.868342
3196.895358
5531.947576
5012.830897
4926.207835
5106.796123
4878.153547
1001.311006
704.1338882
707.4983567
1566.017279
1006.866556
1010.394873
981.5770909
1000.951621
1554.955128
5938.558215
6143.16437
5445.283359
6011.332127
1625.39043
1638.254036
1598.348274
1612.303182
2056.712522
975.7527965
1560.404715
1500.715113
1602.278734
1015.450421
1018.622105
1011.860104
1014.029399
1595.870811
1537.937184
1577.668036
1087.767092
1479.402001
2032.430176
6372.261017
5994.760137
4705.335545
6181.196895
823.5083621
1146.484341
13066.31067
1096.8383
759.314186
762.0632836
1712.90744
8034.578098
8317.56762
9635.298871
6210.576858
5904.150174
1672.523621
1661.330424
1063.525345
1631.882783
3203.668258
4710.584349
3281.575688
4272.984091
3243.952035
1335.533938
4384.071843
3280.919207
6094.946777
6320.607904
6145.687226
4749.124145
5390.273434
1439.704403
1750.979811
1477.249196
732.8685269
943.2034786
1401.745878
1484.385614
969.468017
1376.808071
1797.017697
5995.479196
6254.777551
5908.354853
5567.104411
6328.862947
6280.278362
6144.200623
3921.464
5453.053929
4996.121067
6096.181902
6301.345742
4327.440809
4617.563273
5053.617115
6360.954339
5231.052513
3855.419586
4168.918379
3861.281878
2752.690312
3856.228255
2022.820864
2962.845456
4012.545739
4407.23807
4044.769964
5191.277584
3289.772144
3129.333951
4476.817867
3242.547868
4791.342576
4950.615302
3133.195597
3125.322967
3152.195215
3128.622042
4978.339659
3528.280435
2077.992054
2116.717589
5690.447419
5684.093715
4899.248705
6027.425284
5829.367557
5717.07356
5704.245884
5940.347683
4672.240411
2495.252952
2787.648354
2174.963462
2286.243394
4000.329238
6095.561705
5167.612551
3008.547754
6419.155868
6142.025692
6122.483377
4132.588535
6095.235362
5893.536257
2527.87196
2862.780127
5161.302854
1372.484852
1415.950407
699.9265654
773.9298264
1291.143431
924.2938036
657.7251731
680.3693671
1391.628619
1361.619276
825.9194203
1435.267604
1770.475645
904.3831055
1429.308366
1420.257721
3084.788971
2089.008531
2057.942026
2294.902442
2220.678306
3254.914129
4881.367817
4575.672353
2981.967208
4472.99136
4686.00325
4195.256944
4421.034781
2932.713335
4434.484774
4359.835352
5674.085952
4161.118836
1001.191208
993.3247522
1451.623311
1496.741809
958.3872623
954.6951117
1460.633697
1470.088631
1443.808906
1453.469016
911.3352153
913.3928758
1433.420367
1409.416846
907.8835121
909.4935713
932.6939063
935.5599211
1471.853903
1461.491606
927.1397294
930.0106484
5424.954083
3310.093819
3332.444082
3261.004637
3282.015283
5408.371757
5388.287829
3674.966361
4256.618851
3377.194942
3463.248814
5374.630634
956.9388809
1498.453224
1489.633165
1511.125351
1505.170447
958.2024176
947.0635276
1459.020164
1442.535239
1481.168592
1471.168564
951.9225698
975.8176289
1549.551339
1541.006049
1561.997769
1553.666839
977.9364043
963.4044441
1522.575713
1517.390382
1536.007067
1528.284025
965.6039755
1508.124268
1511.125941
674.3922803
954.8195605
952.9377041
959.6151347
958.0896656
678.1142285
1500.274504
1503.696213
1563.344564
1485.818867
740.1043771
1008.935784
1018.154273
1409.969458
1360.333228
814.0080554
687.8224686
964.9771879
964.3567623
970.7915971
974.5275973
696.6955395
1533.893169
1527.253543
5886.913918
5755.344699
6056.096748
4399.769907
5091.906848
3712.086613
5824.484342
5892.80359
5813.245342
5824.080411
3784.538291
2680.724243
5034.246307
4318.006544
5710.727289
5850.825532
3114.41023
1020.047975
725.7456822
727.3078435
713.2963378
715.5904383
1009.060478
1609.519645
1621.996417
1582.570309
1597.399656
1569.082372
1979.173933
1438.526307
851.9712813
934.7124905
751.8951834
773.1833553
1058.195987
1396.093406
1911.837192
1523.992096
1450.114302
994.7680571
1574.08634
1562.484312
1607.217436
1567.080595
990.9901263
1549.642067
1559.939769
1514.859619
1525.357253
5920.646776
4032.468987
4269.091204
3101.827516
3622.561708
6022.151263
6122.673763
5928.900286
4633.63377
5208.209843
6440.793995
5969.83378
4612.437206
4859.361815
3761.779469
4202.429961
6145.943207
1667.749557
1668.840438
1651.968794
1655.259446
1106.379387
1117.624883
781.841638
1725.918459
1633.93236
1685.270432
1676.501089
1631.517702
1026.721403
1033.758128
1020.339871
1025.129454
1628.013196
1664.015522
1045.770109
1099.070789
1035.127357
1048.579973
1667.241876
5904.542924
787.2562788
791.5861225
1136.02981
6124.478691
8924.981892
9251.985263
8896.371767
8833.231542
6740.950514
1729.457505
6714.81937
4895.856673
5277.445805
1076.829639
1694.161231
1679.644906
6682.347282
7331.296021
7088.137723
5825.024324
6336.877925
7782.241811
7396.58671
4826.623748
6992.263009
6065.946166
2086.964321
1682.646967
1133.518076
31.78428973
31.80521723
31.87714195
31.81365693
31.84825767
31.89912649
31.86057153
31.90549429
31.93058322
31.92131779
31.96794791
31.96378877
31.98006702
32.00898445
31.98864571
32.01251352
32.01118911
31.99086612
32.00478745
31.97107141
31.96831182
31.95851427
31.91137115
31.93605554
31.89769061
31.85561045
31.90506986
31.84404862
31.81262707
31.88215193
31.69038241
31.73353897
31.78412634
31.75147789
31.8200003
31.83569963
31.84634143
31.93594194
31.90591046
31.96711664
32.06370668
31.97747335
32.08448621
32.13980674
32.03007007
32.14885572
32.15289596
32.02669226
32.13383171
32.06263086
31.98105176
32.03576473
31.94099405
31.91205567
31.91184885
31.83106277
31.8442811
31.80581279
31.74619707
31.79266864
31.62284912
31.70347935
31.72155839
31.73934663
31.87208199
31.82344621
31.92606242
32.11814554
31.96265935
32.1889028
32.42485472
32.10781263
32.46461266
32.63135541
32.22412152
32.6429313
32.66285457
32.21198932
32.59652364
32.42330723
32.11685931
32.35440237
32.12736551
31.97053809
32.05832808
31.88320542
31.83481521
31.83548312
31.72197473
31.73465561
31.58622669
31.73176184
31.70443181
31.79708313
32.05972365
31.90487895
32.17454065
32.62628523
32.20492649
32.81682822
33.57972252
32.56146771
33.74043499
34.47778759
32.9001321
34.51142956
34.4952727
32.86526082
34.16766158
33.54397413
32.59108699
33.30756819
32.67727964
32.22863061
32.50379845
32.10057971
31.92168947
31.99782384
31.76469668
31.72503018
31.59218437
31.84223618
31.75163854
31.95710539
32.45285019
32.13765308
32.68821985
33.78300926
32.83662303
34.34855818
37.4922233
34.01542512
38.77790418
45.88414293
35.52418056
46.00566959
43.12454931
35.30372816
40.58793229
36.90626154
34.03856974
35.96794885
34.00005787
32.93801128
33.5457731
32.59452845
32.20067331
32.37400123
31.90636459
31.7889999
31.64135662
32.03044055
31.88316087
32.21483331
33.05907821
32.58891262
33.49501222
35.83524548
34.22137923
37.30055465
51.59125947
38.95745263
47.02034919
54.32128363
44.13054148
69.25264101
66.5031548
49.21768897
52.66400037
45.83739762
42.63786632
42.48746566
36.64627481
34.55596242
35.54006848
33.46919475
32.78624879
33.03450312
32.17293043
31.96166453
31.72646329
32.2752999
32.08998734
32.53763545
33.75950373
33.23875458
34.40439939
37.97960338
36.42842634
38.94206489
41.86005471
40.78130875
63.84055327
73.35634684
69.14392375
107.6592693
74.51058927
61.45745371
53.28973227
40.62940411
37.59770415
38.47348944
34.69674523
33.76116512
33.95639239
32.55302863
32.2602049
31.83322943
32.52747637
32.33944104
32.85526516
34.35777006
33.9178921
35.13925135
39.35387451
38.38859598
41.24984845
44.91302144
44.3397707
75.25692765
89.66138235
88.50081802
173.3807087
104.7719171
93.96992189
63.69988887
44.82642199
41.78929866
41.61384588
36.03801277
35.05819949
34.97217252
32.98416937
32.65984617
31.94317229
32.75724864
32.58685353
33.13430207
34.82373778
34.48410727
35.68477908
40.22673285
39.59678503
42.52455185
46.52227926
46.15696598
80.66086632
107.3358107
104.2022575
193.4203672
120.6103489
116.5250279
70.07272427
48.00494686
45.84147212
44.09579454
37.17202497
36.38479235
35.84710012
33.37788578
33.08391397
32.04784135
32.95530299
32.80797901
33.36846997
35.19049369
34.91925385
36.10877851
40.93358058
40.39894727
43.47684245
47.84937013
47.44989551