/*--------------------------------*- C++ -*----------------------------------*\
| =========                 |                                                 |
| \\      /  F ield         | OpenFOAM: The Open Source CFD Toolbox           |
|  \\    /   O peration     | Version:  v1912                                 |
|   \\  /    A nd           | Website:  www.openfoam.com                      |
|    \\/     M anipulation  |                                                 |
\*---------------------------------------------------------------------------*/
FoamFile
{
    version     2.0;
    format      ascii;
    class       volVectorField;
    location    "0.54";
    object      U;
}
// * * * * * * * * * * * * * * * * * * * * * * * * * * * * * * * * * * * * * //

dimensions      [0 1 -1 0 0 0 0];


internalField   nonuniform List<vector> 
12556
(
(99.99832069 0.004032706782 -4.480099913e-21)
(99.99782086 0.0134433872 3.162927042e-25)
(99.99643177 0.02795919245 -4.469986092e-21)
(99.99413137 0.05090454997 -4.438733433e-21)
(99.99976704 0.03967067974 4.279993878e-21)
(99.99710793 0.06448029347 0)
(99.995626 0.1025783665 0)
(99.99522583 0.1542802339 -7.439606768e-21)
(99.99401493 0.2213471305 8.632460474e-22)
(99.99332798 0.3007154966 -5.563030971e-21)
(99.99390319 0.3819414597 7.448832935e-22)
(99.99465211 0.4472963339 0)
(99.99934634 0.4774707973 0)
(100.0042881 0.4621340114 1.225448496e-21)
(100.0061679 0.4085711499 -1.768023202e-21)
(100.0064535 0.3347592571 9.92870214e-22)
(100.0060484 0.2582819304 0)
(100.0053079 0.1902045864 1.57113133e-21)
(100.0048365 0.1333102292 6.440514284e-21)
(100.0025796 0.09261141802 -1.789989777e-21)
(100.0100118 0.1042502871 -1.5486875e-20)
(100.0067507 0.06371291721 0)
(100.004901 0.03370562171 -1.937241428e-21)
(100.0046769 0.01055506461 -1.363330546e-20)
(99.98500046 0.01073567616 1.795335949e-20)
(99.9792332 0.03628580823 4.482241017e-21)
(99.9662848 0.07625494675 3.12943682e-20)
(99.94423481 0.139793097 -1.340280279e-20)
(99.94816354 0.187604597 4.312867711e-21)
(99.91476047 0.308246308 -5.524396617e-23)
(99.87195361 0.4907375867 0)
(99.8500862 0.652606377 -7.528577377e-21)
(99.8056693 0.9472298553 -6.931622686e-21)
(99.77529969 1.306898631 -1.19348627e-20)
(99.77906636 1.686492242 -4.860747315e-21)
(99.8305696 2.001671781 -6.04029909e-21)
(99.93011347 2.163422325 -1.389100866e-21)
(100.0382546 2.112461425 3.570922037e-22)
(100.1232038 1.878902176 -5.879051067e-22)
(100.1627324 1.545994826 5.121171763e-21)
(100.1621251 1.191080391 -9.813051826e-21)
(100.1366071 0.8787920796 0)
(100.1395353 0.6498608091 -2.721043833e-20)
(100.0977124 0.4378424063 5.228782689e-20)
(100.0939912 0.2959280708 1.499378295e-20)
(100.0644271 0.1802157643 3.080089784e-20)
(100.047643 0.09573986537 -3.089213132e-20)
(100.0412313 0.03005277415 1.557073347e-20)
(99.95995819 0.01370312399 -1.791334948e-20)
(99.94366814 0.04750208955 -3.598011346e-20)
(99.90831818 0.1028603345 -8.061700553e-20)
(99.84946469 0.1934417882 1.072478614e-19)
(99.82108351 0.2949450415 -8.864653941e-21)
(99.7209656 0.4996511052 -8.600473021e-21)
(99.58852574 0.8127183321 -1.491572819e-20)
(99.51817729 1.149921927 0)
(99.37515815 1.713559328 2.875036534e-20)
(99.2782808 2.418150053 -1.257279865e-20)
(99.30439455 3.185313181 -4.18739577e-20)
(99.50261036 3.874276823 -1.014977326e-19)
(99.88004014 4.251204149 -1.069673826e-20)
(100.2953086 4.151589665 -3.37615588e-20)
(100.5780699 3.636035299 0)
(100.6770701 2.928468511 1.989048807e-21)
(100.6490238 2.221730843 -1.054358218e-20)
(100.5423235 1.598939365 -2.445740666e-20)
(100.4597342 1.101013079 -1.6344222e-19)
(100.3305945 0.7313719712 -3.609425796e-20)
(100.2579473 0.4444180351 -1.534116213e-20)
(100.1804437 0.2681331959 3.48474002e-20)
(100.1339861 0.1426348633 -3.911053222e-21)
(100.1136475 0.04452836737 0)
(99.93130896 0.01064988584 -9.034365341e-21)
(99.90007841 0.03992193837 6.323368289e-20)
(99.83333222 0.09615023654 -1.809382177e-20)
(99.72445718 0.1928020517 0)
(99.6388818 0.3350000246 0)
(99.44254724 0.5978130923 -6.969761337e-20)
(99.17191858 1.014608231 -1.393692864e-19)
(98.96361882 1.516031324 3.275510899e-20)
(98.63405298 2.334780614 5.442441639e-20)
(98.39256038 3.4097635 1.188357796e-19)
(98.37779337 4.716718492 4.748620238e-20)
(98.80328642 6.007239912 -1.258269504e-19)
(99.74196456 6.769428323 4.399239666e-20)
(100.8022491 6.570287453 -7.064208219e-20)
(101.458018 5.570353916 0)
(101.5987912 4.295765299 1.549528369e-19)
(101.448023 3.125681315 9.55721393e-20)
(101.1973214 2.194759721 0)
(100.9470888 1.436097656 5.918076864e-20)
(100.6787096 0.9316074877 -4.554910801e-20)
(100.4851789 0.5232391324 -3.923202385e-20)
(100.3416332 0.3123218194 1.983593461e-20)
(100.2523907 0.1637572511 -3.977854116e-21)
(100.2116613 0.0506295637 0)
(99.91351875 0.000128708488 0)
(99.86489076 0.008709806516 0)
(99.76189747 0.04771956605 9.145187039e-21)
(99.59280083 0.1271202526 1.380588678e-20)
(99.43644385 0.2896396146 2.285160049e-20)
(99.11309703 0.5702011109 0)
(98.66334112 1.021720847 0)
(98.23999848 1.647556627 0)
(97.63968491 2.664318744 0)
(97.06862951 4.156314321 -1.372693332e-19)
(96.79812374 6.201690672 4.822256398e-19)
(97.41266875 8.57951642 0)
(99.42416103 10.19503313 1.034434114e-19)
(101.8414768 9.738470324 -2.964797514e-19)
(103.1022822 7.755859859 2.07343647e-20)
(103.1528848 5.555535404 0)
(102.65177 3.813141588 -4.031061051e-19)
(102.077032 2.555435268 -4.434565177e-22)
(101.5687197 1.591846312 -9.723490713e-20)
(101.1092721 1.002947958 8.07341093e-21)
(100.7459151 0.510949105 0)
(100.520323 0.2991547812 4.04912577e-21)
(100.3795159 0.1518852306 -3.041105176e-21)
(100.3142163 0.0461665555 -1.008275716e-21)
(99.92276712 -0.01835634025 0)
(99.8563483 -0.04776021726 0)
(99.71741766 -0.04773040392 -1.831463912e-20)
(99.48501035 -0.008224882475 3.735641875e-20)
(99.24769106 0.1443820097 0)
(98.78535738 0.3885634301 0)
(98.12611271 0.8055488288 2.928610438e-20)
(97.46388461 1.452133725 -7.02947624e-19)
(96.46041884 2.539705234 -1.303666349e-18)
(95.28183982 4.307082696 -6.415429933e-19)
(94.17907981 7.206854686 1.234489791e-18)
(94.34820887 11.66863416 -4.703213361e-19)
(98.51967814 15.69170335 -7.114528861e-20)
(104.1898321 14.26520747 5.988975663e-19)
(106.1354602 9.983570429 0)
(105.5603042 6.449161355 5.140930976e-19)
(104.2831956 4.092965777 0)
(103.1404865 2.590971447 -1.348930731e-19)
(102.2608888 1.501950661 2.498198423e-20)
(101.5701827 0.9062823001 -1.666889192e-20)
(101.0041218 0.394669385 0)
(100.6855148 0.2198617401 0)
(100.489605 0.1027454691 -1.020967595e-21)
(100.3981343 0.02998384568 -3.060688011e-21)
(99.97466127 -0.04434237941 4.478088534e-21)
(99.89228497 -0.1274951024 -4.512646599e-21)
(99.72245224 -0.1868477123 9.215254556e-21)
(99.43461223 -0.2131129189 -3.37091978e-20)
(99.10851438 -0.1024394194 7.599094429e-23)
(98.52115073 0.05048776408 2.89355519e-20)
(97.67851886 0.3475584412 2.153934701e-20)
(96.76064776 0.8954408431 -6.696580931e-19)
(95.30075452 1.846257684 2.250468098e-18)
(93.28457051 3.489625801 -3.924286665e-19)
(90.4067833 6.521951609 8.160071618e-19)
(86.92516413 13.7308546 -4.225747678e-19)
(94.76700402 26.38013382 0)
(110.9262157 20.45347395 4.016233579e-19)
(111.3719042 11.32473866 1.557994114e-18)
(108.7918842 6.328503786 -3.401615202e-19)
(106.2113061 3.657775606 1.237930308e-18)
(104.2783016 2.163244304 0)
(102.9125579 1.115006423 0)
(101.9954538 0.6125761178 9.042785047e-21)
(101.2128766 0.1752328346 2.675987559e-21)
(100.8032705 0.0704458565 -3.166536543e-21)
(100.5566769 0.0164962582 -3.60245888e-21)
(100.4400874 0.002278338657 8.683420824e-21)
(100.0825923 -0.07629053502 -4.478557514e-21)
(99.98821361 -0.2255436808 4.51426245e-21)
(99.79617429 -0.3598620988 -5.733962887e-21)
(99.46869441 -0.4719493855 -3.863079927e-21)
(99.06745937 -0.4340382941 1.649296005e-20)
(98.38562866 -0.4169113928 9.846334585e-21)
(97.42615355 -0.3206914136 1.723122902e-19)
(96.29035539 0.01359651289 1.592720091e-18)
(94.48251245 0.5776338417 -2.02970736e-18)
(91.80552967 1.511967419 -8.808282966e-19)
(87.3156871 2.929423496 -2.048255404e-18)
(78.48721917 5.641340433 -3.917221551e-18)
(127.0863513 22.49470481 0)
(118.3854484 8.966849931 0)
(112.2389181 4.384912581 -1.834601788e-18)
(108.018886 2.286520941 1.790514571e-18)
(105.2738762 1.207738653 0)
(103.40485 0.4303851707 -4.793133655e-21)
(102.2984773 0.1385319447 2.039830643e-20)
(101.3217605 -0.1395890618 -3.256592534e-21)
(100.8408573 -0.1382743137 2.665698835e-21)
(100.5554967 -0.1012371114 -5.020598615e-22)
(100.4181901 -0.03570351095 -8.14988366e-21)
(100.2562362 -0.1118323052 -2.158638448e-21)
(100.1553017 -0.3345785153 -1.62227165e-21)
(99.95239814 -0.5528363028 -5.565408203e-22)
(99.60572917 -0.7623464286 1.687034148e-21)
(99.15065082 -0.8189946754 -3.287967599e-23)
(98.4250189 -0.964899494 0)
(97.42771443 -1.108065564 7.93745229e-21)
(96.17356874 -1.057871242 -1.373815985e-18)
(94.24690644 -0.988305408 2.53707897e-18)
(91.50595389 -0.9382682926 -1.169583073e-19)
(87.35949135 -1.41506502 -1.047949476e-18)
(81.76639979 -3.590645086 -2.337262435e-18)
(139.4000664 5.121105579 0)
(122.901029 1.763845776 3.040910969e-18)
(114.421019 0.5501599307 -9.829564434e-19)
(109.1306872 0.05255156497 -7.99520428e-19)
(105.8472676 -0.1792361714 1.619092025e-19)
(103.6216866 -0.4685679646 -4.881346628e-21)
(102.397885 -0.4729585308 1.144270906e-20)
(101.2939901 -0.5188603694 1.116208727e-21)
(100.7726676 -0.3869697963 0)
(100.465277 -0.2402845269 4.107649147e-21)
(100.3151779 -0.08074929973 4.06104133e-21)
(100.5001519 -0.14812989 4.252067176e-21)
(100.3987085 -0.4458557049 6.629838294e-23)
(100.1973384 -0.7493463471 0)
(99.85366996 -1.058621753 2.183017231e-22)
(99.37172604 -1.219956911 -2.263194419e-21)
(98.65713233 -1.533022655 2.418438295e-21)
(97.69815453 -1.908842207 -7.636388037e-20)
(96.44944663 -2.137573913 9.052703003e-20)
(94.63068931 -2.49674535 -8.555515857e-19)
(92.18875722 -3.064868599 8.718257125e-19)
(88.93015011 -4.298039665 1.901422485e-18)
(85.47624015 -6.42228457 -1.342392351e-21)
(135.5019905 -11.53526149 -5.707115961e-20)
(122.1798065 -6.349556839 -7.546160499e-18)
(114.2969607 -3.901176123 1.48377006e-18)
(109.0869702 -2.506996224 -1.538857673e-18)
(105.8023784 -1.746835285 -8.256548041e-20)
(103.4866825 -1.456856399 4.125112078e-20)
(102.2541078 -1.143281347 0)
(101.1090084 -0.9206642861 -1.090773784e-21)
(100.5841575 -0.6501429686 -4.533205523e-21)
(100.2743049 -0.3873385468 5.06288448e-22)
(100.1209554 -0.1284975208 0)
(100.8132828 -0.182440169 -2.093243886e-21)
(100.716982 -0.5507513186 2.112120305e-21)
(100.5283829 -0.9333732799 2.058837352e-21)
(100.2100179 -1.336189275 -1.930643863e-21)
(99.72524455 -1.600622009 -2.2308759e-21)
(99.06903142 -2.061804679 0)
(98.20627615 -2.63727553 -2.428649309e-21)
(97.04526782 -3.099889111 1.585018337e-18)
(95.43520902 -3.765262552 1.617478821e-18)
(93.36549083 -4.684049849 -2.715106533e-20)
(90.73005658 -6.170603695 2.576104795e-18)
(88.02010769 -8.019383755 1.724287842e-18)
(125.861335 -20.2928598 3.078027172e-18)
(117.8886102 -12.08218788 -1.269288033e-18)
(112.1954086 -7.488365924 5.151865238e-20)
(107.9920009 -4.756103964 1.402939853e-18)
(105.1442616 -3.211876328 1.291583163e-18)
(102.9986892 -2.387317831 0)
(101.8695044 -1.786096737 -2.7022793e-20)
(100.7658656 -1.302228992 -1.367490307e-20)
(100.2749841 -0.9008055924 1.035067899e-21)
(99.98164214 -0.528268427 -3.276734335e-21)
(99.8343299 -0.1744280179 4.798627474e-22)
(101.1892447 -0.2123825268 7.659309001e-21)
(101.1029594 -0.6416778248 0)
(100.9355466 -1.089218979 -2.05479429e-21)
(100.6574422 -1.581098746 0)
(100.1865477 -1.931812433 0)
(99.62888699 -2.506860199 -6.627166237e-21)
(98.90181064 -3.234911292 -1.473005753e-19)
(97.88092288 -3.871688265 0)
(96.51968018 -4.73687761 -7.551272172e-19)
(94.8011352 -5.86698246 2.408099363e-20)
(92.58479946 -7.535139201 0)
(90.10602794 -9.423031679 1.330804996e-18)
(115.9928817 -23.13782297 4.240114749e-18)
(112.3842141 -14.7707658 9.58057047e-19)
(109.0805217 -9.59091289 4.982891504e-19)
(106.1893931 -6.30009393 -1.528047521e-19)
(104.021297 -4.339580613 3.719991832e-20)
(102.2256228 -3.1428773 2.159843397e-21)
(101.2816004 -2.328327179 -3.29607605e-20)
(100.288476 -1.633943551 8.095168453e-21)
(99.85889136 -1.114524587 0)
(99.59646628 -0.6509384262 3.773237817e-21)
(99.46282463 -0.2146163011 0)
(101.6177927 -0.237094247 7.649483515e-21)
(101.5443935 -0.7172612423 1.206458105e-19)
(101.4020505 -1.216662983 -2.430644764e-19)
(101.1682228 -1.774057801 -4.80722373e-22)
(100.7574403 -2.187413919 -1.927130114e-21)
(100.2996442 -2.84119206 0)
(99.73089429 -3.669943664 2.793380966e-19)
(98.87184476 -4.413321508 -1.56319417e-18)
(97.77922646 -5.389944488 2.129692616e-18)
(96.41439359 -6.648562663 -1.292105772e-18)
(94.64023966 -8.532149347 -8.035307964e-19)
(92.50929467 -10.76027621 1.099537366e-18)
(102.6409882 -31.92677671 2.327577558e-19)
(107.2045237 -21.13276967 1.773584094e-18)
(107.241442 -14.88823347 2.560947061e-19)
(105.8547373 -10.24834759 -5.163423468e-19)
(104.1442485 -7.062770792 1.052551892e-18)
(102.6595897 -5.039530788 2.507635368e-19)
(101.2775082 -3.656520764 -6.591849722e-20)
(100.5482547 -2.721427931 0)
(99.71599154 -1.883668291 0)
(99.35880829 -1.278084388 1.182666024e-20)
(99.13569809 -0.7474602971 2.179289658e-21)
(99.02087435 -0.2463194593 -7.073836138e-21)
(102.0855528 -0.2541894321 0)
(102.0266848 -0.7702413174 0)
(101.9131787 -1.304587683 0)
(101.7260531 -1.896992954 0)
(101.3744181 -2.370145713 0)
(101.0187329 -3.077836668 0)
(100.5980365 -3.958112812 -7.873993524e-21)
(99.92358852 -4.743429639 8.764098072e-21)
(99.09287594 -5.752490143 -1.646147684e-19)
(98.08991316 -7.042014208 0)
(96.86808772 -8.981794049 5.168544252e-19)
(95.70184362 -11.70192278 -7.311823238e-19)
(95.90258755 -20.94315352 -7.131303246e-20)
(101.9873213 -17.30336134 2.092370555e-19)
(103.3750834 -13.39276416 -5.678986584e-21)
(103.0910957 -9.856544833 0)
(102.198814 -7.176023165 -8.275163953e-19)
(101.2481342 -5.335868419 -1.443627921e-19)
(100.2637814 -3.929481376 -9.211321807e-20)
(99.74219253 -2.961982792 -3.466212853e-20)
(99.08505997 -2.038430726 -1.926251665e-20)
(98.80100437 -1.388163878 1.899146249e-20)
(98.62077548 -0.8138292131 0)
(98.52706504 -0.2680907786 1.897949861e-20)
(102.5789774 -0.2637077234 0)
(102.5353742 -0.7999824302 0)
(102.4528294 -1.353251211 0)
(102.3137433 -1.955476165 0)
(102.0199362 -2.459250744 0)
(101.771818 -3.181971556 0)
(101.4939937 -4.042577135 8.398106691e-20)
(100.9967058 -4.859716538 3.469176565e-20)
(100.398829 -5.843970452 0)
(99.7201768 -7.03055742 0)
(99.05327361 -8.665187188 0)
(98.91401952 -11.16625642 1.501115478e-19)
(97.47609526 -13.75032134 -3.045394098e-19)
(99.92491001 -13.32394807 1.521894899e-19)
(100.9547161 -11.30666868 1.784886883e-19)
(100.9878433 -8.916592716 -5.708384422e-19)
(100.5246987 -6.858606838 0)
(99.93845161 -5.328993436 -2.481735049e-20)
(99.26229577 -3.998273259 0)
(98.92828875 -3.062818474 0)
(98.42805409 -2.106334801 -3.5910968e-20)
(98.21237389 -1.444879912 1.772115834e-20)
(98.07421344 -0.8492514168 7.41940242e-22)
(98.0012756 -0.2797734524 -1.307734596e-20)
(103.0840396 -0.2661201995 0)
(103.0546156 -0.8073570898 0)
(103.0007762 -1.364160957 0)
(102.9061048 -1.958466118 0)
(102.6656769 -2.472028507 0)
(102.5086349 -3.177072464 0)
(102.3437519 -3.982615947 0)
(102.0011741 -4.797589009 -3.859897987e-19)
(101.5810809 -5.727347104 3.955931797e-19)
(101.12186 -6.750506509 -9.787990462e-20)
(100.7517571 -7.969916662 -6.168194581e-19)
(98.05175293 -9.069570327 -2.505609811e-19)
(98.51788467 -10.50938775 -2.253168901e-19)
(99.2790252 -10.45774751 2.068669481e-19)
(99.55899748 -9.363850403 2.785645479e-19)
(99.47377431 -7.807724745 4.662666361e-19)
(99.16793417 -6.316367158 2.871256492e-19)
(98.7924907 -5.096063867 0)
(98.33840084 -3.907409421 -3.055352607e-20)
(98.14866222 -3.048427751 4.628388691e-20)
(97.77456159 -2.102130632 1.11861822e-20)
(97.61825172 -1.45443796 1.908163799e-20)
(97.51690714 -0.8568397386 -2.167841247e-20)
(97.46232631 -0.2823123115 0)
(103.5878032 -0.2624574025 0)
(103.5704616 -0.7955973774 0)
(103.540413 -1.342697084 0)
(103.482863 -1.914785345 0)
(103.2902127 -2.421409495 0)
(103.204213 -3.086107006 0)
(103.1195252 -3.818504483 0)
(102.884675 -4.579909817 1.334736385e-19)
(102.5839816 -5.430934021 -6.192583182e-19)
(102.2236239 -6.287242965 1.157008891e-18)
(102.0014784 -7.179093297 -5.615136509e-20)
(93.98384699 -6.94149261 0)
(99.10065543 -8.479755887 -2.604102182e-19)
(98.9255592 -8.447551148 1.977388934e-19)
(98.66322679 -7.764290935 -4.501373314e-19)
(98.38558204 -6.74880454 2.88406957e-19)
(98.0987845 -5.702879977 0)
(97.83014329 -4.736598862 0)
(97.52443886 -3.716363398 0)
(97.42404952 -2.944415042 0)
(97.14752401 -2.041613683 3.881243366e-20)
(97.03857147 -1.425195548 -3.631210903e-20)
(96.96644514 -0.8410027913 -2.450448673e-21)
(96.92661648 -0.2774983447 2.458758388e-21)
(104.0792679 -0.2539261716 0)
(104.0716373 -0.7686016308 0)
(104.0599448 -1.295499195 0)
(104.0311103 -1.83468529 0)
(103.8776218 -2.320872913 0)
(103.8421115 -2.931975924 0)
(103.8079981 -3.582208774 0)
(103.630539 -4.251895591 0)
(103.3773491 -4.987223987 0)
(103.0059596 -5.691647466 -1.083686506e-19)
(102.5416643 -6.368314612 5.003701913e-21)
(94.88674033 -6.42610251 5.212541874e-19)
(99.20370406 -7.093773316 -1.494408299e-20)
(98.56492928 -6.984730343 0)
(98.00230038 -6.508277077 -4.528400572e-19)
(97.59015563 -5.836872053 5.84308141e-20)
(97.27360348 -5.085706951 0)
(97.04212452 -4.32224139 0)
(96.81555388 -3.457468506 0)
(96.76602453 -2.776269636 0)
(96.5602387 -1.93815436 0)
(96.48611602 -1.364263613 0)
(96.43621582 -0.8076194282 0)
(96.40748944 -0.2675489827 0)
(104.550013 -0.2417081511 0)
(104.549722 -0.7301785755 0)
(104.5511313 -1.229179667 0)
(104.5427168 -1.728978705 0)
(104.4187105 -2.18542591 0)
(104.4143362 -2.737064587 0)
(104.4053478 -3.306769168 0)
(104.2509456 -3.881793672 0)
(103.9974874 -4.477246544 0)
(103.5920932 -5.045047213 0)
(101.7029392 -5.443528471 -2.292796974e-19)
(97.77147956 -5.821337991 0)
(99.13016164 -5.979153091 1.836624426e-20)
(98.25250902 -5.860150078 -3.219572736e-20)
(97.53569034 -5.53712931 0)
(97.01044539 -5.063347711 0)
(96.63853047 -4.496276304 0)
(96.40212222 -3.89095028 0)
(96.207992 -3.1638707 0)
(96.18143083 -2.571896232 0)
(96.02086041 -1.808148361 0)
(95.96962604 -1.28245296 0)
(95.93456873 -0.7611377453 0)
(95.91449153 -0.2527411536 0)
(104.9940597 -0.2269383976 0)
(104.9988359 -0.683956303 0)
(105.0084629 -1.149963196 0)
(105.0128531 -1.60752651 0)
(104.9095102 -2.028864187 0)
(104.9201665 -2.52037496 0)
(104.9164226 -3.017835473 0)
(104.7637863 -3.503870568 0)
(104.4867728 -3.985309118 0)
(104.0408667 -4.426656118 0)
(101.5431917 -4.660184136 0)
(98.64311208 -5.000974831 0)
(99.11459359 -5.079193058 0)
(98.06249584 -4.986443985 0)
(97.2067868 -4.747815706 0)
(96.57729094 -4.393135096 0)
(96.14378573 -3.955892647 0)
(95.88081325 -3.470674281 0)
(95.69183643 -2.860624855 0)
(95.66817932 -2.351092096 0)
(95.5327052 -1.664355067 0)
(95.49440686 -1.188444368 0)
(95.46792451 -0.7069179197 0)
(95.4533008 -0.2351884968 0)
(105.407596 -0.2106484107 0)
(105.4154116 -0.6332185869 0)
(105.4290113 -1.063400921 0)
(105.4396446 -1.478353133 0)
(105.3499086 -1.862372572 0)
(105.3632239 -2.296738057 0)
(105.3501852 -2.729724698 0)
(105.1873673 -3.137837471 0)
(104.8759644 -3.528976327 0)
(104.3755252 -3.874815947 0)
(101.4573115 -4.025764531 0)
(99.05288087 -4.317286679 0)
(99.10292778 -4.348914572 -2.622325012e-35)
(97.92117619 -4.271496997 0)
(96.95926152 -4.087981932 0)
(96.24505611 -3.814944574 0)
(95.75273213 -3.471374658 0)
(95.45392448 -3.078092069 0)
(95.25412023 -2.564989404 0)
(95.2204195 -2.128090473 0)
(95.09535293 -1.516185992 0)
(95.06215861 -1.089000326 0)
(95.03923191 -0.6490281217 0)
(95.02762662 -0.2163583454 0)
(105.7886454 -0.1936990692 0)
(105.7978241 -0.5806920258 0)
(105.8120169 -0.9741014544 0)
(105.8236269 -1.347601317 0)
(105.7420491 -1.694346832 0)
(105.7492613 -2.076370326 0)
(105.717301 -2.450931407 0)
(105.5379496 -2.794662379 0)
(105.1887367 -3.114516334 0)
(104.6299787 -3.389508114 0)
(101.3851614 -3.490415083 0)
(99.30566643 -3.740623672 0)
(99.08181168 -3.74590336 0)
(97.80823996 -3.678094256 0)
(96.76695776 -3.532126524 0)
(95.98455936 -3.316824788 0)
(95.43930682 -3.042338475 0)
(95.10254784 -2.721228085 0)
(94.88203665 -2.28748669 0)
(94.83094991 -1.912386637 0)
(94.70617882 -1.370272033 0)
(94.67229883 -0.9892092028 0)
(94.64919686 -0.5905479826 0)
(94.63869642 -0.197272012 0)
(106.1367508 -0.1767591515 0)
(106.1459791 -0.528460044 0)
(106.1582673 -0.885581826 0)
(106.1669366 -1.219817622 0)
(106.089294 -1.530743394 0)
(106.0847025 -1.86565216 0)
(106.0291573 -2.187900242 0)
(105.8288351 -2.479249379 0)
(105.4428183 -2.742784499 0)
(104.8262493 -2.964228067 0)
(101.3343836 -3.033668686 0)
(99.46374979 -3.250404918 0)
(99.05472938 -3.240478543 -3.41209137e-35)
(97.71501977 -3.179863862 0)
(96.61364002 -3.060797709 0)
(95.77645651 -2.887601968 0)
(95.18492095 -2.665096688 0)
(94.81148989 -2.400361324 0)
(94.56485228 -2.03245925 0)
(94.49245306 -1.709625695 0)
(94.36135079 -1.231079714 0)
(94.32279911 -0.8926385234 0)
(94.29693814 -0.5336586133 0)
(94.28612215 -0.1786440809 0)
(106.4526158 -0.1603251293 0)
(106.4608995 -0.4780299534 0)
(106.4695293 -0.8003505246 0)
(106.4725237 -1.0981735 0)
(106.3956907 -1.375525038 0)
(106.3757391 -1.668418215 0)
(106.2946077 -1.945425198 0)
(106.0714433 -2.193220312 0)
(105.6514417 -2.412046335 0)
(104.9790684 -2.592151856 0)
(101.3086427 -2.64213797 0)
(99.56189533 -2.831834536 0)
(99.0242068 -2.812714961 0)
(97.63639818 -2.757990724 0)
(96.48887821 -2.65906262 0)
(95.607566 -2.517485222 0)
(94.97606145 -2.334877789 0)
(94.56836575 -2.114662384 0)
(94.29389706 -1.801414134 0)
(94.19817534 -1.52289516 0)
(94.05659365 -1.101393357 0)
(94.0108152 -0.8016122533 0)
(93.9805089 -0.4798133852 0)
(93.96836533 -0.1609560915 0)
(106.7377351 -0.1447513518 0)
(106.7443475 -0.4304499137 0)
(106.7481474 -0.7201145591 0)
(106.7436705 -0.9847407917 0)
(106.6654044 -1.231191703 0)
(106.6281207 -1.48700178 0)
(106.5208587 -1.725274416 0)
(106.2748413 -1.936580293 0)
(105.8244111 -2.119609597 0)
(105.0989628 -2.267233108 0)
(101.3076184 -2.305474274 0)
(99.62138295 -2.473416937 0)
(98.9919144 -2.448528882 1.112825632e-35)
(97.56910236 -2.398814931 0)
(96.38575622 -2.315483627 0)
(95.46872827 -2.198271854 0)
(94.80290144 -2.046866657 0)
(94.36381484 -1.862250346 0)
(94.06158767 -1.594513135 0)
(93.94206906 -1.353583241 0)
(93.78761159 -0.9827520229 0)
(93.73310361 -0.7175354366 0)
(93.69733026 -0.4299219808 0)
(93.68316809 -0.1445156441 0)
(106.994119 -0.1302770666 0)
(106.9985537 -0.3864089813 0)
(106.9968007 -0.6459664421 0)
(106.9837663 -0.8807450793 0)
(106.9025364 -1.099130231 0)
(106.8470561 -1.322459448 0)
(106.7141214 -1.527699765 0)
(106.4462487 -1.708302989 0)
(105.9689884 -1.862405108 0)
(105.1936949 -1.984149752 0)
(101.3289378 -2.015564602 0)
(99.65543454 -2.166057844 0)
(98.95889447 -2.137437973 0)
(97.51086377 -2.092056424 0)
(96.29948136 -2.021126108 0)
(95.35339011 -1.923105016 0)
(94.65813936 -1.796504521 0)
(94.1906219 -1.640689516 0)
(93.86164776 -1.411005688 0)
(93.71879057 -1.201970079 0)
(93.55026665 -0.8758214104 0)
(93.48626943 -0.641153256 0)
(93.44449016 -0.3844940444 0)
(93.42786597 -0.1295006262 0)
(107.2241136 -0.117049454 0)
(107.2260377 -0.3463157923 0)
(107.2183452 -0.5785347746 0)
(107.1961873 -0.7868080578 0)
(107.1109366 -0.979992116 0)
(107.0371362 -1.175048271 0)
(106.8795884 -1.352184877 0)
(106.5914076 -1.506887097 0)
(106.0905796 -1.637396979 0)
(105.2690258 -1.738300277 0)
(101.3693203 -1.765903932 0)
(99.67242155 -1.90238505 0)
(98.92582375 -1.871423549 0)
(97.46004296 -1.82984879 0)
(96.22662315 -1.768980852 0)
(95.25675874 -1.68633728 0)
(94.53626697 -1.579714582 0)
(94.04316036 -1.447415519 0)
(93.68891026 -1.2496798 0)
(93.52369917 -1.067692397 0)
(93.34065614 -0.7806932221 0)
(93.26691445 -0.572746965 0)
(93.21892774 -0.3437485816 0)
(93.19958154 -0.1159933083 0)
(107.4302696 -0.105146431 0)
(107.4294792 -0.3103708876 0)
(107.4156979 -0.5181092236 0)
(107.3842127 -0.7031270482 0)
(107.294233 -0.8738895588 0)
(107.2024594 -1.044482176 0)
(107.0216848 -1.197768298 0)
(106.7149641 -1.330597913 0)
(106.1933468 -1.441716617 0)
(105.3292778 -1.525703975 0)
(101.4251241 -1.551236861 0)
(99.6778607 -1.676527291 0)
(98.89316807 -1.64422577 0)
(97.41539659 -1.606022445 0)
(96.16462128 -1.553434245 0)
(95.17520835 -1.483268305 0)
(94.43300806 -1.392888995 0)
(93.91692602 -1.279911899 0)
(93.53903443 -1.109066392 0)
(93.35270584 -0.9499825245 0)
(93.15514929 -0.6970926879 0)
(93.07173139 -0.5122848353 0)
(93.01755553 -0.3077049372 0)
(92.99535543 -0.1040095584 0)
(107.615196 -0.09459886518 0)
(107.6115795 -0.2786347563 0)
(107.5917187 -0.4647548759 0)
(107.5509416 -0.6296392679 0)
(107.4557575 -0.7806253935 0)
(107.346634 -0.9301905 0)
(107.1441597 -1.06330686 0)
(106.8206908 -1.17768902 0)
(106.2805822 -1.272810446 0)
(105.3777503 -1.343030997 0)
(101.4927966 -1.367517654 0)
(99.67548773 -1.483936028 0)
(98.86121283 -1.450974444 0)
(97.37593659 -1.415730565 0)
(96.11150578 -1.369999548 0)
(95.10593369 -1.310032624 0)
(94.34498561 -1.232929393 0)
(93.80826526 -1.135860508 0)
(93.40837587 -0.9876562581 0)
(93.20224031 -0.8479006239 0)
(92.99042747 -0.6245531355 0)
(92.89759342 -0.459549424 0)
(92.83737883 -0.2762609798 0)
(92.81227881 -0.09352442904 0)
(107.7815566 -0.08540480905 0)
(107.7750597 -0.2510735319 0)
(107.7492224 -0.4183891347 0)
(107.6993391 -0.5661097728 0)
(107.5985753 -0.6998224067 0)
(107.4728642 -0.8314681943 0)
(107.2501641 -0.9475377002 0)
(106.9117384 -1.04648861 0)
(106.3549945 -1.128429041 0)
(105.4170472 -1.187472381 0)
(101.5692024 -1.211521061 0)
(99.66785232 -1.32094552 0)
(98.83008279 -1.287772131 0)
(97.34082616 -1.255081989 0)
(96.06569529 -1.215029881 0)
(95.04668985 -1.163418894 0)
(94.26945307 -1.097183235 0)
(93.71408724 -1.013184272 0)
(93.29383214 -0.8840196749 0)
(93.06914939 -0.760459646 0)
(92.84341009 -0.5625053315 0)
(92.74152456 -0.4142185072 0)
(92.67548769 -0.2492427936 0)
(92.64749069 -0.08448775882 0)
(107.9317964 -0.07754805897 0)
(107.9224154 -0.2276077565 0)
(107.8907618 -0.3788441221 0)
(107.8320464 -0.5122716672 0)
(107.7254922 -0.631011034 0)
(107.5840333 -0.7475882123 0)
(107.3423634 -0.8489078255 0)
(106.9907112 -0.9355798534 0)
(106.4188462 -1.0066294 0)
(105.4492474 -1.056646832 0)
(101.6516918 -1.080612213 0)
(99.6567421 -1.184534407 0)
(98.79979995 -1.151455621 -1.372205976e-36)
(97.30933977 -1.120934586 0)
(96.02588533 -1.085561195 0)
(94.99564157 -1.040774072 0)
(94.20416504 -0.9834175788 0)
(93.63191166 -0.9103970804 0)
(93.19260127 -0.7970291865 0)
(92.9506142 -0.6866790685 0)
(92.71140284 -0.5104050317 0)
(92.60087402 -0.3759261208 0)
(92.52926125 -0.2264531664 0)
(92.49841071 -0.07684256361 0)
(108.0689425 -0.07098773108 0)
(108.0566485 -0.2081071573 0)
(108.0193146 -0.3458995619 0)
(107.9520561 -0.4676833582 0)
(107.8391309 -0.5737067378 0)
(107.6827685 -0.6777407419 0)
(107.4236047 -0.7665073238 0)
(107.0596976 -0.8435555293 0)
(106.4740507 -0.9057138323 0)
(105.4760203 -0.9485298242 0)
(101.7380789 -0.9726242575 0)
(99.64345215 -1.072185445 0)
(98.77034362 -1.039446262 0)
(97.28084793 -1.010751644 0)
(95.9909734 -0.9791929011 0)
(94.95124625 -0.9399146878 0)
(94.14724021 -0.8897139908 0)
(93.55978095 -0.8257470702 0)
(93.10215535 -0.7254693129 0)
(92.84409415 -0.6256588009 0)
(92.59145791 -0.4675990988 0)
(92.47268205 -0.3442970438 0)
(92.39569793 -0.2076681385 0)
(92.36200405 -0.07051530278 0)
(108.1935194 -0.06573500908 0)
(108.1784313 -0.1925405199 0)
(108.1356365 -0.3193821726 0)
(108.0601829 -0.4324446062 0)
(107.9419076 -0.527330489 0)
(107.7714225 -0.6211045719 0)
(107.4965616 -0.7004865924 0)
(107.1206185 -0.7689838459 0)
(106.5223095 -0.8241867392 0)
(105.4987372 -0.8613935073 0)
(101.8265625 -0.8857423265 0)
(99.6289804 -0.9818217002 0)
(98.74168609 -0.9496562088 0)
(97.25479772 -0.9224883463 0)
(95.95999607 -0.8939823323 0)
(94.91214919 -0.8590529442 0)
(94.09696006 -0.8144542582 0)
(93.49551179 -0.7571893783 0)
(93.02057342 -0.6678260713 0)
(92.74723265 -0.576416668 0)
(92.48271764 -0.4339799161 0)
(92.35609284 -0.3190213497 0)
(92.2739952 -0.1927728195 0)
(92.23760779 -0.06548888213 0)
(108.3150965 -0.06161562039 0)
(108.2968559 -0.1805436175 0)
(108.2484187 -0.2989245976 0)
(108.1642068 -0.404364761 0)
(108.0366325 -0.4915892424 0)
(107.8520373 -0.5773961489 0)
(107.5624225 -0.6502599582 0)
(107.1754884 -0.7109918905 0)
(106.5651589 -0.7608568667 0)
(105.5185384 -0.7938437422 0)
(101.9156211 -0.8185313958 0)
(99.61417344 -0.9118482754 0)
(98.71380178 -0.8804795167 0)
(97.23069703 -0.8545582405 0)
(95.93209817 -0.8284144501 0)
(94.87714954 -0.7967938119 0)
(94.05178929 -0.7564315845 0)
(93.43716647 -0.7042506351 0)
(92.94601751 -0.6234050837 0)
(92.65807894 -0.5389629363 0)
(92.37773276 -0.4073121565 0)
(92.24282646 -0.2996772988 0)
(92.1555027 -0.1813633088 0)
(92.11607884 -0.06157234196 0)
(108.4080019 -0.05913474086 0)
(108.3876555 -0.1730691869 0)
(108.3348185 -0.2857133648 0)
(108.2445799 -0.3886365959 0)
(108.1232126 -0.4657609399 0)
(107.9264206 -0.5459527514 0)
(107.6228465 -0.6145839883 0)
(107.2257505 -0.6688537022 0)
(106.6039426 -0.7147984595 0)
(105.5364105 -0.7448180905 0)
(102.0040313 -0.7699813483 0)
(99.59977538 -0.8610947292 0)
(98.68664075 -0.8306993406 0)
(97.20808737 -0.8057528054 0)
(95.90649731 -0.7813322431 0)
(94.84516219 -0.7520661656 0)
(94.01038405 -0.714692726 0)
(93.38333091 -0.6661027647 0)
(92.87669129 -0.5916446131 0)
(92.57497879 -0.5123147801 0)
(92.29564772 -0.3923223386 0)
(92.1549778 -0.2872119667 0)
(92.06360424 -0.1742805237 0)
(92.0222278 -0.0592465473 0)
(108.5797445 -0.0563934146 0)
(108.5550388 -0.1659841358 0)
(108.4939151 -0.2737605823 0)
(108.3892786 -0.3700216579 0)
(108.2023311 -0.450442624 0)
(107.993011 -0.5269679415 0)
(107.6770165 -0.5935081857 0)
(107.2727411 -0.6419083577 0)
(106.6398692 -0.6852633735 0)