/*--------------------------------*- C++ -*----------------------------------*\
| =========                 |                                                 |
| \\      /  F ield         | OpenFOAM: The Open Source CFD Toolbox           |
|  \\    /   O peration     | Version:  v1912                                 |
|   \\  /    A nd           | Website:  www.openfoam.com                      |
|    \\/     M anipulation  |                                                 |
\*---------------------------------------------------------------------------*/
FoamFile
{
    version     2.0;
    format      ascii;
    class       volScalarField;
    location    "0.39";
    object      k;
}
// * * * * * * * * * * * * * * * * * * * * * * * * * * * * * * * * * * * * * //

dimensions      [0 2 -2 0 0 0 0];


internalField   nonuniform List<scalar> 
12556
(
36.90869409
36.90873849
36.90879988
36.90885236
36.95439148
36.95471442
36.95526807
36.95658264
36.95920755
36.96385268
36.97080987
36.97888019
36.98496515
36.98587062
36.98128149
36.97392997
36.96681759
36.96123406
36.95800212
36.95594948
36.90986806
36.90908958
36.90869508
36.90842704
36.72746176
36.7276553
36.72783396
36.7281586
36.77362763
36.77525604
36.77862639
36.80620754
36.81841429
36.84010513
36.87284657
36.91147223
36.94227779
36.94906954
36.93032507
36.89604338
36.86117364
36.8338784
36.79436505
36.78272497
36.7319937
36.72935156
36.72800552
36.72728853
36.54736225
36.54781738
36.5482984
36.54897492
36.59506788
36.59919511
36.60730526
36.64295087
36.67287791
36.72494946
36.80110569
36.8873722
36.94465122
36.95688001
36.9219773
36.84999044
36.77071781
36.70922324
36.64324107
36.61737668
36.55892799
36.55304311
36.55016429
36.54894128
36.36867005
36.36910845
36.36981744
36.37141817
36.41840063
36.42705545
36.44414103
36.49618302
36.55895879
36.66917752
36.81139667
36.94055392
37.02315051
37.03619058
36.98142904
36.87689372
36.74783555
36.6243875
36.51609358
36.46619598
36.39271899
36.38140618
36.37584249
36.37360674
36.19186584
36.19238748
36.19362174
36.19680065
36.24585702
36.26098256
36.29306628
36.37073574
36.49609826
36.68977665
36.90907904
37.11972059
37.24921881
37.25770406
37.15175108
36.98311738
36.7934226
36.60935241
36.4264646
36.33446338
36.23485243
36.21442006
36.20450381
36.20057058
36.01661421
36.01728287
36.01929438
36.0247276
36.07792109
36.10354991
36.16038069
36.27760123
36.48905226
36.77512808
37.13993728
37.555562
37.82367277
37.79728413
37.51640067
37.2122306
36.91734711
36.64980877
36.38432959
36.22695955
36.08848052
36.05175391
36.03534581
36.02879428
35.84353821
35.84464522
35.84811795
35.85687197
35.9149214
35.95468666
36.04499264
36.22007826
36.52156824
36.9407652
37.56100612
38.58639046
39.40062544
39.15582528
38.22331934
37.60973677
37.13344376
36.74601223
36.39090537
36.1488848
35.95212228
35.89372115
35.86780877
35.85753734
35.67303991
35.67475019
35.68006006
35.69290432
35.75847644
35.81593431
35.94783566
36.18867498
36.58022275
37.15912532
38.13669708
40.33151012
41.60886894
39.41243746
38.19850196
37.44428691
36.89582362
36.42474743
36.09762931
35.82751133
35.74072777
35.70221189
35.68710967
35.5064647
35.50924213
35.51738141
35.53587829
35.61035009
35.68827624
35.86667767
36.17112168
36.65159456
37.37576479
38.62179031
41.82113542
45.60582475
40.91604311
38.92603739
37.82703229
37.08656605
36.47934824
36.06867023
35.71495431
35.59450108
35.54040573
35.51943471
35.34447419
35.348397
35.35949308
35.38476253
35.47032024
35.57103163
35.79713778
36.15903543
36.72278139
37.56048724
38.95939852
42.2619899
48.53797152
42.30588203
39.66908441
38.23567119
37.29791596
36.547827
36.0546569
35.61525527
35.45732353
35.38552075
35.35770638
35.18854435
35.19412229
35.2092887
35.24377364
35.33726164
35.46328525
35.73589506
36.15035168
36.79254604
37.72673902
39.26232558
42.1295858
50.01559669
43.35415407
40.32485881
38.62106139
37.50620706
36.61929573
36.0500425
35.5272639
35.33170753
35.24088535
35.20549138
35.0385186
35.04556214
35.06436226
35.10775188
35.21095022
35.36340816
35.67993593
36.14541729
36.86369517
37.89482909
39.56419917
41.75306156
50.62679859
44.05620631
40.84168438
38.94943908
37.69094889
36.68430424
36.04770801
35.45111051
35.21782071
35.10848929
35.06520727
34.89527386
34.90429945
34.92842678
34.98225457
35.09086062
35.26901492
35.62534585
36.14350599
36.9387905
38.07725425
39.89973309
41.23964793
48.8084665
50.37693739
44.48348284
41.20844803
39.20423402
37.8376907
36.73526956
36.04026309
35.38219449
35.11552512
34.98830417
34.93750268
34.7575801
34.76851013
34.79759894
34.85983523
34.98210302
35.19333907
35.5968734
36.1591089
37.04070787
38.3121743
40.29875945
40.11890984
55.67971187
50.28821699
44.69209482
41.44393664
39.37753961
37.93741497
36.76920919
36.02429466
35.3145349
35.02159469
34.87825161
34.82059731
34.62519526
34.63794275
34.67168242
34.74180511
34.87372872
35.10918742
35.54472418
36.14753575
37.09971576
38.48196789
40.57033046
36.04336785
54.89369726
49.77738337
44.66252323
41.53858307
39.47035984
37.99065531
36.7803987
35.99419234
35.24653293
34.93249848
34.77518802
34.71175838
34.49592397
34.51041401
34.54839181
34.6261329
34.76784287
35.02382349
35.48666634
36.11811617
37.11888727
38.58637264
40.57549477
30.65836318
52.94279446
48.98139775
44.5036792
41.53590645
39.48392643
37.99504419
36.76047147
35.94614819
35.17196951
34.84248412
34.67499106
34.60676987
34.36974964
34.3858151
34.42729734
34.51164173
34.66220899
34.93501181
35.42014842
36.07267375
37.09434541
38.58155683
40.26860405
27.0982752
51.07768079
48.19810046
44.19400643
41.41069286
39.4169886
37.94770281
36.69955861
35.87937023
35.09088441
34.75104949
34.57486251
34.50267841
34.24379817
34.26127679
34.3057617
34.39620212
34.55520021
34.84128426
35.34339969
36.01378286
37.04079463
38.49044491
39.85111417
25.30074151
49.23572039
47.45738448
43.81424145
41.17576283
39.26696287
37.84414436
36.60690256
35.79048138
34.99764324
34.65162825
34.47115745
34.3959383
34.11927991
34.13794721
34.18468377
34.27985684
34.44565121
34.74202815
35.25645999
35.9383691
36.97447287
38.37412572
39.38225609
23.94247013
47.47270227
46.67681581
43.36574012
40.88855266
39.0774673
37.7047694
36.49163296
35.68510999
34.89484766
34.5460847
34.36294594
34.28597262
33.99279388
34.01247801
34.06116365
34.16079401
34.33306292
34.63737305
35.16043672
35.84893791
36.88644643
38.23274831
38.8454801
22.04873235
45.96974173
45.85419729
42.91168389
40.59565494
38.86984416
37.54402876
36.3598919
35.56639505
34.78250182
34.43299299
34.24836845
34.17017666
33.86749618
33.88797447
33.93797436
34.04058176
34.21732289
34.52785381
35.05677899
35.7485065
36.78147678
38.05804387
38.2597035
20.70891654
44.5818335
45.07679009
42.48137888
40.3078266
38.65565751
37.37165152
36.21645699
35.43737668
34.66316384
34.31487265
34.12968407
34.05070961
33.73874338
33.75990187
33.81123378
33.91713648
34.09878008
34.4142689
34.94706215
35.63968368
36.66361757
37.85723169
37.65160572
19.789386
43.2898742
44.34105967
42.07017969
40.02963867
38.44121678
37.19379879
36.065295
35.30080967
34.53674873
34.19001547
34.004511
33.92498943
33.61237188
33.63402902
33.6861639
33.79377035
33.97787488
34.29752182
34.83275624
35.52467042
36.53575863
37.63522787
37.03865437
19.11387165
42.08944069
43.64249056
41.67454398
39.76181204
38.22999103
37.01428927
35.90958914
35.1590397
34.40692759
34.0628971
33.87742467
33.79752215
33.48110851
33.50324127
33.55651568
33.66700307
33.85530877
34.17851669
34.7151996
35.40526375
36.39993463
37.39292778
36.42920669
18.54477208
40.97028003
42.97684116
41.29273013
39.50306814
38.02359173
36.83553902
35.75173853
35.0140305
34.27206677
33.9298822
33.74415218
33.66386839
33.35471039
33.37717584
33.43104652
33.5424412
33.73155497
34.05808325
34.59559554
35.28294297
36.25736741
37.13188582
35.82727507
18.0515465
39.918606
42.34084639
40.92356723
39.25203909
37.82245576
36.65901018
35.59343785
34.86723314
34.13720965
33.79801198
33.61223351
33.53160491
33.22115476
33.24401617
33.2990943
33.41360969
33.607311
33.93689159
34.47489629
35.15879252
36.10849135
36.85801014
35.23492797
17.6296973
38.93017652
41.73182351
40.56592468
39.00774596
37.62641483
36.48544752
35.43579816
34.71978755
33.99780685
33.65977831
33.47338541
33.3922887
33.09648406
33.11961386
33.17523427
33.29004906
33.48280691
33.8154791
34.35381602
35.03346878
35.95343275
36.5769757
34.65330797
17.27298321
38.00392424
41.14716691
40.21877531
38.76952536
37.4351438
36.31518035
35.27954616
34.57241361
33.86194841
33.5269185
33.34023844
33.25868527
32.96057325
32.98410437
33.04111992
33.15974426
33.35870755
33.69425231
34.23282813
34.90726685
35.79246734
36.29031606
34.0827541
16.97571113
37.13479661
40.5861532
39.88115784
38.53682493
37.24827319
36.14827726
35.12510786
34.42576361
33.719944
33.38498363
33.19726752
33.11507191
32.83985976
32.86365882
32.92123879
33.03952175
33.23489838
33.57352718
34.11224968
34.78028986
35.62616827
35.99948313
33.52342556
16.7295508
36.31790831
40.0482831
39.55227873
38.30919059
37.06547019
35.98469761
34.97274422
34.28008057
33.58636264
33.25457634
33.06636938
32.98357642
32.7006853
32.72494287
32.78413275
32.90719709
33.11217437
33.45357023
33.99228766
34.65254117
35.45522744
35.70575703
32.97501544
16.52931616
35.54936532
39.53237041
39.23144236
38.08619648
36.88640683
35.82431825
34.82259528
34.1358497
33.44179478
33.10875187
32.91915266
32.83553019
32.58685596
32.61141402
32.67125921
32.7933138
32.98999409
33.33458843
33.87309325
34.52400363
35.28041496
35.41022949
32.43717131
16.37096255
34.82572902
39.03531672
38.91807987
37.86746866
36.71078757
35.66699685
34.67474517
33.99297951
33.31411869
32.98465088
32.79440655
32.71007731
32.44219961
32.46730842
32.52893552
32.656704
32.86956829
33.21680092
33.75478916
34.39468381
35.10236654
35.1135779
31.90969595
16.24990865
34.14391393
38.55476708
38.61176375
37.65271368
36.53836933
35.51258896
34.52925049
33.852058
33.16464052
32.83262755
32.64076252
32.55542558
32.33943185
32.36487997
32.4273445
32.55387002
32.74974004
33.10041856
33.63749171
34.26460081
34.92171155
34.81624195
31.39234245
16.16143638
33.50133481
38.09020181
38.31215183
37.44168187
36.36892616
35.36091468
34.38621146
33.712679
33.04849103
32.72018165
32.52751438
32.4414364
32.18518629
32.21130382
32.2756538
32.40774377
32.63282632
32.98591122
33.52146083
34.13382096
34.73891652
34.51861722
30.88509947
16.10177551
32.89643351
37.64117579
38.019083
37.23421368
36.2023035
35.21190108
34.24600568
33.57613777
32.88765715
32.5567182
32.36234371
32.27507476
32.09927134
32.12577926
32.19117988
32.32401027
32.51722847
32.87420123
33.4076584
34.00241013
34.55424279
34.22114639
30.38871128
16.06750199
32.32872187
37.20803826
37.73251787
37.03019621
36.03837122
35.06542167
34.10982491
33.44245522
32.79342899
32.46378751
32.26847845
32.18051909
31.90356352
31.93106874
31.99909863
32.13795328
32.4090553
32.76775398
33.29955967
33.87085467
34.36877629
33.92669556
29.90639897
16.05417419
31.80029927
36.79478101
37.45467437
36.83042491
35.87744127
34.92156654
33.98128268
33.31671771
32.58700603
32.2549437
32.05737424
31.96780863
41.70516355
46.01909642
41.94532991
42.2561321
49.3167842
46.44091252
42.16395425
50.93072486
49.6013879
41.81104296
51.55982572
51.03932584
41.27467427
44.70695207
47.94632802
51.79816389
51.59289931
40.50853051
53.78977493
45.11820499
55.43768041
52.22979893
51.80935571
40.0631657
39.2906259
41.56764376
39.11957927
48.56717333
43.14762801
45.14640738
41.2562277
39.86147309
38.88174711
41.6064214
41.06652842
53.83392408
54.02432897
48.26243492
43.00461858
41.7251149
39.18719798
41.69596978
41.63727192
42.25429078
43.74312158
44.56676174
53.57139744
53.0587969
49.89707993
44.28535964
43.37613888
39.49701404
41.57723127
41.68784578
42.0069133
40.77319212
42.39438545
54.5124917
54.00704545
39.82007493
41.34801355
41.55701819
41.54435164
36.75868769
38.81862019
39.16306247
55.05209166
54.86436276
40.21912687
40.94619838
41.30926739
40.96720601
32.22218548
34.00145103
39.11553407
54.4957202
54.06085535
45.26929561
46.60396994
42.27602344
44.97167565
53.85430871
48.84853154
44.20674055
48.12439797
52.63148236
44.6684378
45.30945871
42.19284161
45.83164503
44.75501141
46.59843238
45.9594937
53.096856
53.72472879
48.04611986
54.25794866
54.00259879
52.85815548
54.27624235
47.82117014
42.5514606
43.6069133
42.24004224
43.37147812
41.86597888
44.68598172
43.46428058
53.91048043
53.62557213
50.485392
54.43101345
54.59658839
53.99127157
54.38984565
50.30558551
38.93277295
40.67044936
41.96161044
39.8956919
37.77930184
41.76393787
40.01278832
54.83422981
54.56329494
34.12519042
36.60944276
41.51371972
39.27616919
35.03799694
32.77113892
37.65663676
35.21037286
39.4914191
55.30726607
55.07203152
39.28405953
40.25887679
32.16283328
40.92916727
51.11514889
32.2056418
68.93982545
32.70052176
32.19183976
50.53287026
38.51894071
40.96241226
39.80123998
41.05311152
44.21073526
41.94513135
56.00036251
44.90445824
42.1334146
45.38992658
45.68989906
42.90194961
50.59341867
45.09620108
44.53201836
45.77024891
50.48081151
49.32968935
53.02237948
55.50580958
55.36532484
45.60601614
44.44411689
41.24757164
50.65389409
43.77238712
49.08900804
42.86644065
47.32441694
43.65404191
49.00735979
46.00031162
51.37903019
54.74069254
54.81429931
54.60510097
54.72861462
51.31536778
40.63376271
42.20601922
47.4293795
40.71782918
40.30658194
41.93745813
42.79213416
40.78388597
40.78015809
59.42706998
46.03943969
55.69824708
44.33065923
53.12691503
45.33070855
54.50255156
54.51388153
53.29246518
53.25979581
41.33725245
42.14550988
54.34013543
41.59146223
44.5816786
43.30345721
41.49548054
54.28423607
37.87560308
41.21839731
40.91817028
52.55078086
51.09145651
43.0747142
33.18268493
39.30947723
38.87249406
39.86693204
39.46610332
33.33039459
53.77329762
50.98820484
45.95656589
51.20286107
52.09150503
47.97972465
50.95520017
46.14691486
43.50694434
47.30415781
43.27308579
51.56497754
47.88724274
43.92750815
49.60689246
53.65581997
51.79562373
51.44465721
45.32010624
42.38930066
45.25146617
46.40705071
45.05275243
47.56800666
42.70167349
44.71669278
46.30764398
53.47634904
53.53654369
54.13130464
51.4587592
50.85758094
52.08270645
51.63121476
54.11223973
53.98907042
49.56762747
48.61495569
50.63090936
49.85409627
54.09129205
42.68840493
42.59095608
44.15377739
44.07679199
53.98635769
43.69665322
53.94477612
39.05531072
38.91009476
40.94692148
40.82823391
45.11778943
48.45177399
54.69667506
45.37700473
41.5951402
35.64047507
40.36911927
39.99806264
40.81347518
40.48507072
35.76108083
39.97650688
34.27981984
34.19114449
36.79627948
36.66854812
46.6667197
42.44779961
53.88558375
52.94671259
38.70464906
38.31310497
31.96560164
33.89728556
41.28006826
40.14886606
32.319973
56.477053
40.12967959
50.71658584
32.27390223
48.32245386
40.91508006
39.91072619
53.30702005
39.69590956
39.53215462
40.5195889
40.55243224
40.87869622
39.66745165
32.44746593
40.67169347
55.37754115
51.64258133
52.14845772
47.63957543
39.63208691
40.76521973
54.7540192
54.13671798
43.38294364
55.55135851
55.53080477
53.43169265
42.0549269
41.58889255
43.46711069
44.34883855
41.93403933
42.06951818
54.21166468
55.67516347
54.91147165
54.38324698
53.41141011
46.34478845
47.09429259
48.01805726
47.3245987
53.02862522
41.50604531
42.51903142
42.30461374
42.79003958
42.58840476
41.62355475
41.58679904
41.312601
37.99689916
32.47169195
36.36980059
35.99593465
61.67751182
46.98653554
54.3445199
53.09975203
56.42489926
55.8818706
50.27430744
46.73591362
45.47180149
48.26594287
47.13780247
50.59344222
53.2368649
49.06076316
48.29778893
53.57174017
43.02405081
43.03059196
42.8534039
38.90994335
39.33978978
42.18263731
47.36659684
47.69158269
53.76285407
54.52596814
53.00793092
52.87690717
54.07127234
52.52598942
52.20702224
52.82488363
52.61013899
54.08891414
39.81367905
41.92263449
41.67359059
42.23109079
42.0021379
39.93051185
39.54441821
35.19193432
35.45644348
33.59847359
33.7500033
38.19337952
41.42420696
38.23619218
38.78202132
35.55468905
35.8430535
40.36293795
54.73063918
48.86002119
51.60150442
49.49129976
39.05435786
34.68229176
33.26949537
37.29074618
33.36580895
33.55033626
32.9299905
36.0137159
43.52057845
39.77960039
37.18756323
36.54172327
35.87729378
35.51765478
32.05976303
40.08963375
42.80201572
52.66532101
32.29153285
72.94127627
42.83711668
41.59799229
47.82920464
32.52901405
32.20807392
50.93992283
49.38585657
50.11430133
43.36305177
43.58663801
41.43323823
40.00332622
46.03976914
49.16317768
49.071954
45.68454088
52.28219169
45.69611868
52.54372243
46.31416458
40.74008897
39.82577885
47.49051713
41.92154798
44.02591072
42.31005808
39.29962196
42.26108048
43.26354767
49.77834583
39.28549867
41.74086066
54.19971195
39.05793601
39.10867722
39.95172786
39.17790169
49.07684313
60.12875437
51.30949964
48.40872999
54.55367146
51.94396487
47.85311913
45.43984896
49.19106957
53.62703097
53.07254528
54.34773289
54.45511347
54.68395716
53.87637465
46.81354453
46.40000142
53.36141527
46.09273207
46.6892512
45.25897712
45.83916361
46.89042112
53.07342962
47.23519748
46.92909574
40.95026491
41.03661168
42.41679648
51.34708713
50.72100262
42.24008549
49.50678213
48.49269337
50.4789102
49.80902067
41.92903849
39.63501845
43.9996471
42.15511467
36.90037452
36.48383606
32.63771179
33.60894374
37.36651428
37.0185497
52.75107676
52.34690214
52.02675012
48.2669663
48.70731822
47.42008345
48.07771255
52.26852714
49.79619671
48.73607905
48.55090943
48.77853098
48.76783573
50.00465578
50.24863617
46.42752093
47.19672441
52.45368216
52.79845913
56.20437964
56.05901644
52.7727157
56.96840906
57.51117756
57.28109829
56.54871417
55.32528375
57.65969505
56.50940206
50.33120171
54.87492285
56.18486027
41.30247716
45.45075649
44.75645367
46.10999664
45.63991823
41.73139011
43.77814615
43.28642428
44.51374786
43.94679469
46.06594895
47.90599745
47.47276822
48.4392976
48.04571771
46.42885981
43.51219856
46.72795632
46.26776094
47.32591803
46.87939209
43.80804707
50.05082674
49.25630936
53.29402597
53.5895055
51.11382665
50.33575939
38.57117414
38.16285051
39.29171187
38.71437924
37.50326404
37.10890436
38.03275524
37.62589961
42.48721226
42.00996079
43.12656898
42.65028491
41.06580278
39.6846117
41.83591481
41.3485643
46.49972352
45.62311994
48.19256617
46.99310793
44.38812196
44.68109772
45.14255293
45.2943464
44.61366955
34.81000763
35.10501646
39.42641993
34.04785427
33.83508957
34.30477565
34.11402829
33.74501284
38.36848973
33.81305215
34.67048485
36.46906678
37.98470607
41.3087083
36.20027033
35.08947152
37.01320158
36.49102937
34.63885395
34.38650717
35.01762891
34.73614907
40.4790135
35.94325496
36.27851731
44.13285121
43.66426761
43.57965936
41.75824273
43.52338671
43.09025614
51.04913816
39.13789551
49.51687434
45.38323066
34.58589688
33.58684598
33.14443908
33.31471425
37.16736031
36.23574012
33.00826731
33.10393729
46.44608584
32.01968955
35.38030646
34.63481925
57.04680689
62.9941644
32.23217643
66.03686664
49.7995012
40.40554161
32.46751798
56.39305457
41.01324637
64.5784437
41.95262689
32.30172772
41.26202602
39.43939804
38.41164452
45.29673767
45.07792694
50.98446487
45.56311414
45.24833559
45.29756104
42.87940403
39.09600215
38.9632476
54.81383846
54.59588447
51.70309077
43.37698792
43.03574369
44.83698644
47.932468
43.40531138
43.49850242
40.33614163
40.64211803
42.50083377
47.39370437
49.98357404
52.26549708
44.12145314
43.40056278
43.28144836
43.52457175
43.43496862
44.23897784
46.26414948
44.62113936
39.36019894
52.07156558
53.12874595
54.98505
37.81059712
37.4770861
33.71301283
52.9219447
54.54270071
49.99702555
43.23627936
43.08528563
43.1746932
43.08049425
40.6600789
41.21095745
41.47523631
42.26868375
43.74183947
34.81563235
38.2661576
37.92030541
41.85007171
40.68410532
39.09675286
32.49216152
32.502093
32.86773369
40.14084512
47.30315846
44.11245261
40.26216224
48.47847441
46.74293593
32.22866362
32.64164772
32.49841793
32.50004771
32.18508984
56.29622535
43.09806934
39.60376978
40.13533132
45.49923165
40.75880068
42.25217101
50.58422153
50.09523209
45.03602258
43.72792131
45.18710427
47.90922861
39.84039612
40.30632605
52.14383992
53.73298148
54.87242021
47.92412001
52.7189337
41.69348665
41.94000086
43.92186976
57.43961203
53.96968206
52.02983425
60.35236279
58.45453875
41.13502656
41.23324707
40.90469681
43.72780012
43.10600444
41.59709649
52.10629705
51.56151339
42.84816819
43.22106575
42.39476741
42.41126966
41.19580392
39.20673945
39.37855825
53.5302127
54.13069589
51.47864264
51.49533509
50.7418604
50.59666918
48.41155696
49.16829932
48.87529365
50.45562247
50.28239639
50.63016084
45.29057804
46.1843604
49.81871204
50.76687084
54.61009344
51.92087702
54.8675541
55.16849416
53.26408176
40.09901265
41.6815153
41.24585468
44.5436051
44.35655635
42.19902779
39.57483887
39.38810752
40.90127971
40.62900875
45.38986062
47.04540998
46.7882088
48.60256245
48.34032797
47.17706877
42.93434847
45.03166116
44.81193853
46.52848194
46.27598368
44.40813033
40.06245697
40.50640943
42.98591942
42.28283347
39.48025842
39.91769751
43.05325299
43.47445533
44.39364374
38.22490315
38.10213673
39.21460072
39.05989521
36.89729601
37.9187259
37.81414912
43.82572372
42.45956091
42.90698354
44.37264315
44.51521402
42.59351826
42.76909376
43.81001877
44.69235285
45.00745417
53.80342671
47.8493925
48.99250872
38.69905542
38.37732223
35.10353041
36.11916866
39.08524164
38.79566988
32.96993279
33.038791
34.39496918
34.03143733
32.8342419
32.92323745
46.7755895
32.11015749
32.48092271
32.09276714
107.6937968
32.94211488
40.592215
46.79616031
43.79260574
32.38050315
32.39079838
32.35983817
55.69821073
59.66674819
57.97453256
46.12351769
32.25023681
32.37211713
32.38006406
39.66907477
42.05242441
40.42445072
45.1275671
44.8750647
40.80308204
40.20158959
39.53979551
49.39050931
49.43492792
52.6943992
39.83711063
44.15858021
42.20274569
44.51265088
43.93409713
40.14493519
42.83711098
43.25078888
45.77364393
52.41953113
52.65687187
52.05517432
52.25083518
55.42711389
55.16354229
55.32295634
54.84694851
55.01428018
55.16878174
47.76502192
48.82378552
48.97748852
48.6047433
48.67064318
47.60136315
56.20709457
55.59289174
55.55670623
55.45473411
55.5624264
56.0368677
48.73075827
49.50223973
49.67217221
49.1508189
49.31939591
48.51396062
51.53703338
51.70959829
51.08746648
51.23079264
35.27282988
37.05329468
36.94154942
33.65485498
34.44778839
34.36184238
34.69938793
34.54739877
33.69731326
47.73318126
48.52950262
44.62561787
48.1965536
32.85635481
32.84170816
32.9067455
32.87965012
33.00206188
33.01619023
32.52709588
32.62281954
33.43585732
34.14028011
34.06237586
34.28840691
34.2134611
33.48728605
32.99226196
32.94507054
33.23842883
33.11595148
33.27757715
47.98322959
46.88428194
41.21947186
48.45374212
33.49122621
32.97405464
40.04941368
32.07953695
32.96481354
32.85176097
32.21224407
70.3757109
71.09984897
63.64498718
60.50253239
53.88972224
32.45717104
32.48300782
32.5884137
32.19299498
53.52039207
58.15906069
54.052886
54.37659223
51.83484369
46.51684194
56.7094914
52.31130349
43.35919871
43.86615297
46.07260387
40.95344873
42.65109849
49.8266047
47.77537999
49.70927606
46.68825414
48.88347117
53.9551252
55.29558182
49.58060987
52.9147941
55.9410346
43.67882624
44.52899888
43.47180588
46.21624052
51.78392782
51.90251002
50.35847786
39.74012699
47.0230005
43.35948291
50.99546079
51.56844942
40.59585508
42.04932243
44.11702299
53.4248046
45.52872271
39.99688484
40.70252019
57.13094913
54.38077551
57.24596056
53.5226555
55.62919611
57.7051522
58.62710629
57.80318292
53.26288613
53.71786255
53.92076674
53.09672321
53.36054054
53.10857024
54.39251545
54.50380861
54.68566918
54.1302987
54.31722813
54.15632049
46.66683324
49.47571671
49.48118161
46.26989478
46.53286332
45.39128656
45.96639415
45.77431846
45.74467893
47.203472
47.44032322
46.99378686
48.90659875
48.64861648
49.43807264
49.24972552
46.98915807
42.83329644
41.85216602
40.98145475
43.71310574
43.29713619
43.26030673
41.33104056
43.13406718
42.82855642
42.77957713
42.51023582
42.61369499
53.18082434
51.87050248
49.7690829
49.47315952
48.83325399
50.40038004
50.13296768
49.91972022
55.61924097
55.31272852
51.75934938
55.64212087
57.39345283
53.12423946
55.49733535
55.61176672
56.1840166
55.00838963
54.82570524
55.34339149
55.20840222
56.1526639
57.14990729
57.30543981
56.14329784
58.54268622
58.50380587
58.23417889
58.4770449
55.9691765
57.75201121
58.28787416
59.19972614
57.70854169
43.43954773
43.31090036
41.18776613
41.86869478
44.05036111
43.91474495
39.96932162
39.76766836
40.39549919
40.17785804
47.56135436
47.30169801
45.71330709
46.80096192
48.08111388
47.82129732
45.52587087
45.29120712
43.25169969
44.08683868
46.02012721
45.7769247
49.8265721
50.21091761
50.38679411
49.85377598
50.03334566
49.51683585
50.85509987
50.79815104
50.8565362
50.55612009
50.6993627
50.63307313
38.43005855
36.53762261
36.66067752
36.30712532
36.427512
38.29775607
39.04909029
37.06205539
37.22716073
36.78202562
36.91948832
38.87065116
37.3625872
35.64507518
35.75998077
35.4544044
35.56661351
37.25200678
37.89630129
36.07595058
36.19942361
35.85101626
35.97256366
37.76696657
38.54630233
38.40667841
42.3300651
40.67410912
40.83272672
40.34276135
40.48813179
42.16334568
38.87901542
38.72633276
37.33390463
37.22745621
40.81151008
39.14782838
39.26637904
37.43537102
37.74530577
40.26980659
41.68985884
40.01992575
40.14253482
39.68649429
39.782783
41.49433992
37.62637076
37.53789835
43.86438138
44.09644041
44.05888834
43.02378432
43.33253871
44.83631448
45.16439242
45.0469208
45.5460709
45.44766116
44.98426856
44.87768036
44.18840758
43.95349235
44.76701903
44.65187046
44.6289884
34.92327862
36.57646251
36.45196413
36.82163362
36.71246582
35.02029701
33.98222986
33.90970575
34.23764033
34.1698733
33.69782279
33.8553032
33.96592692
35.44880545
34.97199135
36.23905882
36.01181935
34.35782049
35.40267053
35.03313967
35.0363784
35.19138825
36.8482902
35.26758
35.38106791
35.07910738
35.19495526
36.74901958
34.55419407
34.46319526
34.93124427
34.8276181
43.15409259
40.24702976
40.57287739
40.01395753
40.04447622
43.28758124
43.0205282
42.97967056
40.93718574
41.77782289
43.9470585
48.82735472
40.87668365
42.16379761
39.35209678
40.00956299
49.32492217
32.77218291
32.73811829
32.82303373
32.80044905
32.60611499
32.8010018
33.90746774
32.6170612
32.48087502
32.69439761
32.65305347
33.20218513
33.83167027
33.7599997
33.98598172
33.90898439
33.24920843
33.03332879
33.52114963
33.46502021
33.67939037
33.61766436
33.06431753
46.19512084
32.80221278
32.57024969
32.02528192
54.80747326
80.60931358
85.74776868
78.7881639
79.35649817
59.04139712
32.50881585
58.48250673
44.65709018
46.95579101
32.41115123
32.40301792
32.43005743
56.59607021
61.97197498
60.78855336
49.79973792
55.1892553
66.14322824
62.28805453
43.74199993
58.87503454
52.68470285
32.88970294
32.22327167
32.17464916
36.68251866
36.69953527
36.81442918
36.70684635
36.73738628
36.8333276
36.74947353
36.79582496
36.86330473
36.81238148
36.86783958
36.90142595
36.88541663
36.92955921
36.93599259
36.93855543
36.95111774
36.94987926
36.94985278
36.92951323
36.93750775
36.91845867
36.87034175
36.90560842
36.85442334
36.80351443
36.8697629
36.78867535
36.74758326
36.84011507
36.53105455
36.56720357
36.66376894
36.58351113
36.64825454
36.70994455
36.67529771
36.77070492
36.78089594
36.80225928
36.89207983
36.86832079
36.91844181
36.98052801
36.93450019
36.99404351
37.00999867
36.95839974
37.00701563
36.97557354
36.93432645
36.95844349
36.89033955
36.87037703
36.86373417
36.77682335
36.78893352
36.74613422
36.66321406
36.72162721
36.40019141
36.47307925
36.53942719
36.50603587
36.63291165
36.63667907
36.67874628
36.82456876
36.77603479
36.87413548
37.01645317
36.91125058
37.05815641
37.15441358
37.00891539
37.17694601
37.19390439
37.0391384
37.18198206
37.12291412
37.00079838
37.09459733
36.98845978
36.90616966
36.9475031
36.81854801
36.78107736
36.7751456
36.64820651
36.65129715
36.29746
36.42880804
36.45662167
36.48639085
36.67555621
36.63852293
36.74651268
36.98286078
36.85305224
37.06722197
37.33003874
37.07056094
37.40914676
37.59907363
37.23225893
37.65286969
37.65515874
37.26148893
37.5969054
37.45841949
37.18600269
37.39930287
37.20774054
37.02916755
37.14108847
36.94266977
36.84116977
36.87821637
36.69443637
36.65417658
36.23140831
36.43322139
36.42695956
36.51057064
36.78491382
36.6966387
36.89277197
37.28009016
37.0417933
37.43532789
38.01352144
37.44711321
38.22808778
39.05535674
37.80566144
39.07531031
38.83975268
37.80185371
38.58363499
38.15393255
37.59008143
38.00581628
37.61060084
37.28880379
37.49219964
37.16905115
36.98875386
37.07035205
36.79990746
36.71453082
36.1948489
36.46084238
36.43834765
36.56412687
36.94566539
36.8212357
37.10247982
37.71325743
37.37901245
37.98959324
39.5783637
38.25566596
39.07794556
39.72075018
38.83454996
40.37301059
40.4117948
39.3735406
39.87237703
39.26564574
38.88677746
39.06949581
38.24751678
37.74703371
38.03500888
37.50670789
37.24322333
37.35749486
36.96796712
36.83583309
36.17478726
36.50255698
36.46997178
36.63351221
37.12137638
36.98970072
37.32446962
38.13751658
37.82861263
38.27656251
38.69645767
38.5154819
40.59065783
41.23583774
40.90851083
43.09429288
41.89508015
40.80143524
40.53659817
39.08217689
38.44088183
38.74046626
37.94145409
37.60852142
37.72750997
37.18862166
37.01885839
36.16178261
36.54878969
36.51400756
36.70517762
37.28038033
37.16315187
37.51686513
38.4496591
38.22506848
38.71505702
39.23692993
39.12687477
41.9275883
42.87536481
42.74660256
46.89517121
44.53399105
43.57334938
41.98597409
39.96214508
39.30188915
39.49359035
38.41676916
38.05775646
38.13468293
37.43793829
37.2491318
36.15228871
36.5958698
36.56047297
36.77505756
37.4235588
37.3171767
37.68571075
38.70817387
38.51620904
39.03562167
39.62102849
39.52818451
42.26364479
43.09382099
43.14822265
49.23899682
46.43494223
45.83331239
43.1243761
40.74056611
40.16677123
40.17597084
38.87225388
38.53300257
38.52977084
37.68818187
37.50122765
36.14634177
36.6451885
36.60797715
36.84546873
37.56427209
37.45850557
37.85163169
38.97274787
38.77192266
39.34026304
39.96806832
39.88478062
42.09159767
42.50234511
42.64699652
50.32892279
47.4909553
47.20170465
43.90307876