/*--------------------------------*- C++ -*----------------------------------*\
| =========                 |                                                 |
| \\      /  F ield         | OpenFOAM: The Open Source CFD Toolbox           |
|  \\    /   O peration     | Version:  v1912                                 |
|   \\  /    A nd           | Website:  www.openfoam.com                      |
|    \\/     M anipulation  |                                                 |
\*---------------------------------------------------------------------------*/
FoamFile
{
    version     2.0;
    format      ascii;
    class       volScalarField;
    location    "0.39";
    object      omega;
}
// * * * * * * * * * * * * * * * * * * * * * * * * * * * * * * * * * * * * * //

dimensions      [0 0 -1 0 0 0 0];


internalField   nonuniform List<scalar> 
12556
(
31.93101721
31.93187281
31.93276418
31.93352702
31.9667548
31.96719651
31.96751962
31.9681676
31.9694471
31.97168424
31.97503246
31.97889973
31.98187792
31.98233181
31.98004135
31.97653077
31.97310301
31.97012211
31.96886353
31.96758741
31.93391184
31.93291792
31.93188519
31.93087646
31.79464515
31.79724089
31.79984509
31.80198202
31.83569658
31.83716285
31.83892355
31.85764305
31.86348858
31.87386866
31.88958242
31.90821022
31.92294097
31.92637465
31.91719454
31.90076554
31.88401488
31.87099845
31.84655485
31.84040012
31.80412874
31.80086959
31.79777476
31.79494579
31.66007059
31.66453298
31.66887582
31.67214522
31.70619674
31.70899811
31.71304849
31.73536612
31.74945878
31.77407461
31.81046673
31.85186896
31.88260421
31.88986829
31.87049831
31.83534515
31.79747238
31.7675221
31.73052876
31.71730997
31.67709494
31.67167872
31.66636363
31.66156655
31.52679802
31.53273605
31.53849917
31.54285178
31.57771295
31.58265895
31.59111637
31.62097709
31.65043908
31.70237047
31.77807807
31.86277769
31.92277341
31.93317719
31.88700521
31.81771331
31.74375679
31.68386965
31.62624832
31.60153111
31.55416536
31.54528883
31.53757483
31.53085079
31.39582758
31.40328153
31.41037256
31.41596072
31.45149333
31.45927523
31.47401619
31.51612825
31.57526871
31.67843382
31.84467009
32.07167028
32.21404621
32.22154822
32.06915627
31.89518289
31.74538553
31.63457519
31.54066749
31.49557897
31.43566622
31.42216865
31.41120227
31.40224792
31.26574302
31.2744666
31.28286399
31.2898044
31.3276748
31.3402838
31.36595032
31.42667888
31.52799054
31.73101489
32.14935538
32.93501634
33.56426396
33.38937496
32.69411894
32.18896448
31.85201534
31.6332728
31.47882076
31.40205941
31.32248549
31.30124804
31.28648011
31.27506679
31.13784424
31.14801513
31.15798018
31.16679302
31.20627122
31.22530226
31.26665259
31.35438423
31.51722595
31.90795853
32.93134608
36.44079148
41.96903937
39.10950179
34.52449728
32.89998318
32.12486697
31.70047938
31.44349973
31.32361601
31.21540258
31.18344699
31.16346587
31.14919801
31.01122509
31.0226369
31.03406957
31.04493551
31.08814721
31.11523
31.17590462
31.29542783
31.53654787
32.18337108
34.18327772
45.00608848
59.46232175
38.96247409
34.25735105
32.61566257
31.85767049
31.44006611
31.25924582
31.11420872
31.06793565
31.04135844
31.023894
30.88741189
30.90046028
30.91402714
30.92793591
30.97415882
31.01079502
31.09322406
31.24520916
31.57362271
32.45922265
35.15797489
51.90335915
105.2828556
45.77634778
36.21835317
33.31156861
32.09496512
31.45981598
31.20724338
31.01973035
30.95656365
30.92179298
30.90066895
30.76553155
30.7799875
30.79557068
30.81252103
30.86454541
30.91171806
31.01694206
31.20050132
31.61434583
32.69066978
35.84734562
58.73105239
131.420012
51.91704201
38.3055341
34.1052755
32.38342454
31.50324781
31.16486189
30.93157358
30.84906598
30.80508787
30.77995222
30.64790024
30.6641752
30.68234518
30.70338332
30.7597115
30.81780105
30.94586861
31.16073403
31.65940002
32.91344909
36.6556549
67.27412123
132.8035862
55.63674063
40.0500423
34.85647498
32.67945611
31.55653943
31.13008215
30.85030318
30.74830358
30.69415729
30.66445244
30.53260761
30.5503333
30.57080709
30.59627689
30.65874738
30.7285942
30.87899552
31.12698967
31.7141078
33.16479213
37.77316822
78.9922142
124.2370778
57.17732344
41.25386275
35.46894455
32.94232951
31.60697174
31.099352
30.77461996
30.65250774
30.5882496
30.55391219
30.42220383
30.44187737
30.46546252
30.49603288
30.56092173
30.64336773
30.81528091
31.09936435
31.78169849
33.463865
39.27717925
90.51848084
536.1409242
108.4376644
57.37963723
41.94752656
35.9116789
33.14474313
31.64446336
31.06859504
30.7042213
30.56378439
30.48937662
30.45013951
30.31402971
30.33544671
30.36207365
30.39739071
30.46919852
30.56864751
30.76778885
31.08841969
31.89400183
33.91008662
41.70726904
144.7165358
339.91482
101.6610016
57.02897728
42.31640903
36.1877732
33.27521665
31.66505837
31.03486054
30.63421164
30.47836283
30.39444968
30.35083502
30.21010421
30.23332865
30.26288707
30.30231008
30.37807639
30.4908439
30.70987914
31.06661002
31.96668239
34.274777
44.53636062
557.8690738
244.7262177
95.27535699
56.2675513
42.41486176
36.33408061
33.34165716
31.6614504
30.99533757
30.56570451
30.39710664
30.30410545
30.25611136
30.10682706
30.13178503
30.16431803
30.20841956
30.28925285
30.41395905
30.65148435
31.03972519
32.0176821
34.58257953
47.74646586
813.0768864
216.9575472
91.64401157
55.90551426
42.45872803
36.37416403
33.34761144
31.64084486
30.94791784
30.49376683
30.31455239
30.21434795
30.16276444
30.00690553
30.03371382
30.06902562
30.11689105
30.20168711
30.33696986
30.59164111
31.0093601
32.04244124
34.80675127
50.04906014
759.9422551
209.4540366
90.71637255
55.91944111
42.49974148
36.35502017
33.32290785
31.60062586
30.89272715
30.42033227
30.23304811
30.12591353
30.0707985
29.90565385
29.93418531
29.97236099
30.02470956
30.11465889
30.25917048
30.52956792
30.97828994
32.06340429
34.97907682
51.4408331
643.2981955
210.2228385
91.30463974
56.08245059
42.45412322
36.29066239
33.27230844
31.54430046
30.8265464
30.34031396
30.14645977
30.03475902
29.9766321
29.8072171
29.83748858
29.87831546
29.93407743
30.02751386
30.18020975
30.46526883
30.94385717
32.09958746
35.23862875
53.35643396
555.7009439
209.4901967
91.88523954
55.93801565
42.3247686
36.21008292
33.20523364
31.47722346
30.75264008
30.25681909
30.05824744
29.94264105
29.882406
29.70574969
29.73747818
29.78103727
29.8412796
29.93992419
30.10004804
30.39918176
30.90696196
32.13587565
35.59153478
57.15047113
520.6124739
201.9823832
91.19810644
55.730774
42.19944709
36.12251544
33.12822073
31.40224882
30.67231441
30.16737895
29.96441973
29.84561332
29.78379851
29.60747161
29.64050445
29.68640113
29.74977897
29.85148936
30.01875134
30.331814
30.86875929
32.17510132
35.98649718
61.35601198
490.5245828
194.1146094
90.39593474
55.64837264
42.08623339
36.03321448
33.04563303
31.32128754
30.58663402
30.07545049
29.86957916
29.74827937
29.68523427
29.5047073
29.5386632
29.58691335
29.6547418
29.76206231
29.93637562
30.26364501
30.83027388
32.22035753
36.45123056
65.2230311
459.9224526
186.5997654
89.49124256
55.617983
42.00151595
35.94695519
32.96060624
31.23599994
30.49656737
29.9778422
29.7685987
29.64513458
29.58129299
29.40652848
29.44119444
29.49120518
29.56155952
29.67137817
29.85294383
30.19501419
30.79243669
32.2749088
37.05311854
68.5867928
430.8752972
179.3547981
88.49433433
55.57212211
41.95190369
35.86907125
32.87578698
31.14795787
30.40306081
29.87965658
29.66850207
29.54339223
29.47897539
29.30223606
29.3372898
29.3891658
29.46377413
29.57962992
29.7685551
30.12622003
30.75622996
32.34466928
37.84687882
71.60140964
403.8470513
172.4188936
87.43645653
55.49219839
41.92777673
35.80306132
32.79348515
31.05858566
30.30710807
29.77607014
29.56175645
29.43499993
29.37027874
29.20492224
29.24020649
29.29327637
29.36960534
29.48684149
29.68348184
30.05775336
30.72299697
32.43938058
38.78529891
74.36007363
378.9388051
165.8653422
86.34824808
55.38057047
41.91611256
35.74893337
32.71517342
30.96901632
30.2095446
29.6744292
29.45872008
29.33077395
29.26585023
29.0990779
29.13440062
29.18899001
29.26956346
29.39357361
29.59811241
29.99026374
30.6944634
32.56965501
39.77775276
76.89090569
355.9961977
159.7254776
85.24954906
55.24416484
41.90815373
35.7044027
32.6412859
30.87997396
30.1111046
29.56682688
29.34758548
29.21816783
29.15316376
29.00381438
29.03909514
29.09449688
29.17605759
29.29987209
29.51288009
29.92442759
30.67249414
32.74147932
40.7685169
79.21117234
334.984103
153.9955929
84.15247232
55.08883267
41.89915208
35.66673271
32.57156977
30.79184787
30.01223707
29.46435607
29.24404748
29.11364525
29.04858367
28.89616356
28.93131839
28.98807644
29.07419521
29.20644284
29.42817666
29.86084714
30.65873887
32.95367035
41.73533882
81.32269034
316.3116699
148.6527067
83.0658043
54.91768716
41.88657523
35.63360116
32.50547952
30.70480004
29.91339837
29.35373118
29.12915714
28.99725914
28.93215231
28.8044258
28.83942783
28.89680018
28.9832845
29.11306843
29.34435439
29.80009201
30.65517466
33.20023261
42.67326753
83.24931567
299.59244
143.6682648
81.99320963
54.73229409
41.86906618
35.60324015
32.44243567
30.61890448
29.81474024
29.25280512
29.02750961
28.89469826
28.82953273
28.69416657
28.72899809
28.78768086
28.87926442
29.02062054
29.26173045
29.74273536
30.6625736
33.47377824
43.58245223
85.00733958
284.3690406
139.0138772
80.93417271
54.53396872
41.84592431
35.57430176
32.38189066
30.53419423
29.71663997
29.13891596
28.90842469
28.77400362
28.70872555
28.6078255
28.64249662
28.70175066
28.79325755
28.92849838
29.1805906
29.68935462
30.68246423
33.76748356
44.46272158
86.59536815
270.3570189
134.6722003
79.89098409
54.32424631
41.81671023
35.54571694
32.32335009
30.4506863
29.61903827
29.04222637
28.81138693
28.67603161
28.61063219
28.49336473
28.52789455
28.58847172
28.6855799
28.83794638
29.10122272
29.64055474
30.71498499
34.07594154
45.31484685
88.02330607
257.4004182
130.6201811
78.8660001
54.10408237
41.7809695
35.51660046
32.26635383
30.36837617
29.52238133
28.92330887
28.68640464
28.54931107
28.48368968
28.41498949
28.44941447
28.51064831
28.60774287
28.7478465
29.02393469
29.59686587
30.75998397
34.39515568
46.13957264
89.29979734
245.3608606
126.8233521
77.85750099
53.87336285
41.73818154
35.48619454
32.21044505
30.28727908
29.42641374
28.83477871
28.59759308
28.45948246
28.39367216
28.29368339
28.32803478
28.39063937
28.49312747
28.66031228
28.94917995
29.55881342
30.81711384
34.72220138
46.93753001
90.43872671
234.117876
123.2483402
76.86236489
53.63168262
41.68788016
35.45385407
32.15522841
30.20754749
29.3320092
28.70664958
28.46334285
28.32336701
28.25720638
28.22682223
28.26116906
28.32455791
28.42858459
28.57379715
28.87765996
29.52706533
30.88570886
35.05489959
47.70957135
91.4691631
223.5703294
119.8766244
75.88038789
53.37916751
41.62972424
35.41901034
32.10030066
30.12968849
29.23915528
28.6328104
28.38777155
28.24671301
28.18030729
28.07272849
28.10714111
28.17249761
28.28297115
28.49273469
28.81075296
29.50228233
30.96444807
35.38911719
48.45005917
92.40147149
213.6744667
116.7096067
74.92037627
53.11853883
41.56397213
35.38136257
32.04545696
30.05507312
29.15060931
28.46753564
28.21520343
28.07155286
28.00453536
51.30245699
121.5082463
65.73694057
57.86578594
155.7724143
126.0711934
66.05193735
156.2507738
157.433659
77.54606597
143.1342807
154.7361487
89.34698145
656.1777475
560.3372551
130.1046819
141.1671612
121.8831351
419.8410738
643.2809429
354.0726908
127.3373484
128.8314038
43.63332475
40.9449383
61.35456497
39.09840996
309.018252
119.5129481
100.0695967
48.87433762
41.46972164
35.67967549
50.56105137
46.37496802
980.9435104
677.240931
129.7913853
58.06593963
51.43158734
36.44718899
56.13342311
51.20289784
61.61261685
185.6679977
159.8020605
615.8024663
803.6076112
133.51424
63.34552648
59.7999905
37.51782234
63.73136229
56.94745347
71.26160351
297.4138525
225.2131513
374.8151368
480.1329347
38.94015065
74.40258808
64.76996038
81.73283897
500.4701674
382.5891003
1423.717839
250.5381047
289.4325784
41.24430138
97.62244298
76.0917209
100.0257002
1203.563295
757.1855936
160.5208471
323.6090394
413.5780464
113.7166391
142.4003088
75.60023487
109.6287309
657.7998301
323.2068331
96.41695524
268.7042066
478.7829087
156.5898113
135.5254057
55.21662305
181.5966357
201.9597158
147.2434076
177.975016
810.3974794
983.5180415
143.0346534
706.6515795
644.2529077
493.7799967
702.4266518
140.9670524
221.3785538
189.9230697
62.65818274
250.6581244
301.2366022
204.372846
247.0692311
498.9910651
604.3657482
158.692477
472.9547499
382.869731
639.4022844
487.5845681
158.9604874
377.5306033
301.2897881
72.69395663
378.5004937
495.724031
304.6054965
373.7363551
297.6514113
362.597537
744.2950004
511.773052
82.22274828
2108.471647
719.9063429
1146.424326
501.9274315
700.6596721
2504.463947
232.6613648
246.5989508
1259.796419
8506.460576
1217.16373
101.6761794
478.0472757
1923.656834
7794.515936
1157.452486
1886.34557
490.7486686
34.96271024
45.95147732
41.38961659
48.42648834
91.41580149
67.38175548
1541.607037
285.1163897
54.43117093
132.9505251
113.5355744
4178.345042
125.631326
65.12399405
64.070124
4684.601793
540.402094
598.4355797
428.4105972
208.7879722
225.4701914
110.0884461
93.76233271
49.25450493
1154.714544
153.8637748
360.8536332
102.9470406
239.5389414
89.56508267
612.0683349
773.9420414
148.1982755
299.4359579
257.6220901
371.4820343
307.2556957
150.0909534
893.0579069
3589.802311
570.1158629
59.81611286
49.82001943
70.50999379
107.6560372
57.78080742
60.9120403
2039.832578
220.0552526
1448.747544
225.3592102
1076.050949
199.2613229
795.3878095
783.7222607
692.597218
705.5854061
1433.240027
3363.377146
414.9703859
1700.218904
953.8675896
3824.915163
2009.642052
430.2999708
425.7732183
148.1310049
156.7618763
455.6883979
515.5132659
4120.940602
830.2133741
207.5836765
223.6424203
188.8081866
201.635826
826.0585118
941.0255526
1151.815247
123.513144
682.16692
508.7127775
1178.037573
686.6650046
126.9235717
91.80733846
248.6201418
122.4829177
434.2050859
272.1476199
97.3080754
382.291082
648.3167022
471.9880234
450.0056191
185.9978811
1439.156765
186.8565505
160.2085614
1322.038971
1205.859255
1424.732018
1337.272401
164.5122071
844.2839252
850.7983183
668.5784519
250.8776098
244.039824
253.8181761
252.3535043
665.7250535
586.9700019
222.6519281
204.7474848
240.6896402
227.9764479
599.0765069
273.5986864
276.8646684
222.5737925
225.2159164
525.3585218
3972.222377
534.3176218
414.4732198
422.2829164
337.7917026
342.5604381
903.147929
671.187111
331.3232576
817.2483256
1332.955897
575.3787347
173.1650463
184.4653489
159.8626838
169.6767854
564.8490176
974.3765084
776.8573527
792.4653006
547.3725743
553.0444523
4940.206944
760.9496181
395.8347788
438.3476543
230.7471294
245.9464623
1539.776265
3098.800139
1017.547985
1716.983336
1207.487681
5835.068026
1971.59009
4890.59687
1203.624277
544.8214609
3169.764186
1265.127798
1681.955806
1373.310284
1854.800986
43.77259542
113.0575779
101.4190833
168.8097037
4139.866895
7657.304752
255.5750294
117.0904295
124.9281896
524.653502
2164.100355
3246.773096
352.0165871
382.5796026
716.6356308
193.7698107
203.3788022
417.5777101
104.6547192
78.19996641
142.2758159
238.515222
96.12425664
109.1931833
920.691794
2083.732006
2174.65325
729.3830634
649.769751
1765.816726
1310.88395
2884.035462
2894.103984
774.0496185
267.6730257
114.0634656
119.4146391
107.4878231
112.3611947
261.5347149
138.0983208
145.5841171
420.2298979
1100.449255
405.8859148
429.2977422
6448.680565
2798.214164
386.1807007
572.047624
1882.484492
2071.505392
348.6866792
166.8053658
141.7644916
197.5906911
175.2518579
362.4935354
826.5845337
2791.863198
2880.874301
944.2192256
207.0090146
101.4828742
105.9511741
675.8378735
657.7730817
290.4049859
1244.046317
1153.789966
574.8711644
432.2706921
234.3891251
241.4318894
584.9228006
250.982088
253.6110135
243.8734765
249.354316
576.3197421
334.8723644
129.2138869
135.8028606
121.2776495
127.1418704
329.8395859
392.8192281
1049.831335
1035.819527
1742.291421
1685.425233
470.8837258
317.4174795
721.003517
678.9169607
1029.595673
1018.568479
360.1667236
321.6748539
648.1106695
524.115183
5245.123655
1426.941507
748.5832553
954.3360955
520.771933
1782.507551
1751.014543
1797.532414
604.2187792
4011.60106
8986.75399
321.5454116
385.6419949
438.3793972
460.4294866
1234.454548
1161.714476
787.0818536
444.1034751
1952.245523
7362.587233
1090.78344
969.8613391
16256.20304
1173.031882
1788.498464
906.6912278
1017.32664
817.9833744
4123.322257
4201.671728
946.4739231
1225.45413
4893.742518
1244.548718
1175.731283
228.8949546
799.1835606
326.7017317
794.5264154
249.0050345
3160.782738
2041.471848
687.1994257
3876.434527
4598.309378
3764.934883
2376.26952
762.4233148
3937.69877
5119.076939
2337.352243
3706.005476
5531.306001
1313.354716
1982.903356
939.6786608
1176.368539
4918.944637
2097.134283
641.8627119
414.1312558
1017.331795
701.4461857
377.4395281
246.2591191
619.6836067
2288.701419
2896.016776
877.1634375
742.2413842
2199.725277
2292.633041
1922.611663
1831.057512
662.9832691
3245.60718
3142.799853
2326.978937
3184.081444
3092.35056
756.5623444
2994.245932
1976.26818
2121.738772
2419.823218
1290.49846
609.8790158
655.969397
2733.675525
758.5924175
853.8578068
674.6725181
731.6275431
2532.013389
2774.569088
745.0901598
875.4775361
373.2021425
397.6797826
993.6915352
790.9534022
349.3582439
366.9884594
1063.777853
1084.478912
655.8070018
212.797192
237.1415314
186.8418676
205.9446591
646.3759829
752.6383591
276.2913362
309.1242745
245.2438288
267.7846943
756.6521652
370.8677598
165.5888299
181.4775076
551.2592656
584.2652832
1354.49205
1423.724917
543.9264783
1998.236633
2003.624245
2514.350822
1363.568661
1129.291169
1935.896837
1351.708029
388.4563849
968.2764738
1292.370694
1505.6281
436.0691918
504.3905329
406.7018678
424.0360872
1455.828393
563.5926356
579.5309805
527.6775282
557.9656953
1278.313472
342.8730617
359.0384968
317.9655897
337.2764424
1261.59083
1388.365484
385.3957667
400.80232
364.3802144
380.1108255
1379.523473
2642.786513
2736.511552
831.2962177
910.6601225
2691.50474
2615.801741
950.0026109
959.7697621
914.9391807
946.8245723
980.4211662
999.0564519
963.096209
976.3970787
604.7083526
619.7386244
584.6148022
599.4539743
670.5932446
864.9132311
626.9214217
644.1432585
1102.649543
1278.505627
886.9360338
1028.541826
4193.439364
1997.248732
2167.598093
1361.23867
1908.913599
1069.104157
1057.998668
398.0105098
1768.399532
1775.246874
1725.276668
1755.687905
1830.768155
458.2993671
1643.231954
1132.703221
977.8524685
744.9635436
322.1052101
1060.47695
1599.67409
1000.663958
1071.827301
1677.523218
1709.362305
1624.212915
1664.021349
355.751434
1014.860955
1000.049138
4668.483816
965.4866289
4501.272468
3781.450243
4486.42116
1030.860561
5501.750137
1269.983185
5165.78395
4307.612117
757.3487035
856.0542304
1825.242875
1788.884416
526.6290073
585.4452803
1904.243396
1829.113693
4893.755227
1285.904533
475.8983519
530.9937876
5268.417896
6075.535684
2046.326868
6656.693157
4592.256704
1284.205632
1175.638814
5845.676522
2919.413083
6429.576041
3404.812914
1720.55584
56.0875074
39.4322286
35.20017413
4736.393597
4713.677166
118.2780972
64.94669855
65.21093804
4955.586043
731.7195558
2061.300338
1371.998858
251.7590796
215.2590133
136.2869354
202.9394107
153.2298775
284.3158628
871.594087
203.6254968
219.7688825
47.8575343
54.71113514
92.57984768
270.9808613
476.0760414
676.0850794
173.7633396
90.82197272
94.62758656
86.07969962
89.60249648
170.1184264
642.7479215
712.7882724
2327.988547
501.0642253
443.4454298
270.9025359
328.3534658
344.1309827
784.5049684
731.5214774
929.8607931
369.2901513
95.94647406
100.0623593
202.7023034
260.6065801
611.4931522
580.5013791
555.9402839
483.8388673
236.7316349
652.1711646
307.2412317
323.2173033
3713.477766
3421.363097
1845.505235
1816.183469
1790.769417
1119.230677
2980.733205
4912.535933
4300.475812
962.8193914
567.8139483
626.0159957
1927.06835
1164.755124
1856.16046
1841.163272
1885.700551
1619.680114
4008.802053
2721.84813
3110.256709
4621.107915
1127.507747
915.6858181
546.0469249
1192.627287
132.8451492
107.335705
174.1164378
664.7253673
1738.668147
1242.61922
5329.548809
5708.239158
5844.876038
4645.672614
5503.055195
74.91686164
92.91291218
197.2482204
1675.933761
1104.650989
861.7371421
2223.54758
1734.896082
1565.395174
2988.621367
2691.965464
4552.699208
4252.592948
2853.524249
555.8876425
596.0230335
1191.292585
3987.635461
1931.639749
2158.889684
3486.576897
1894.674413
2248.215703
987.3166797
1347.870993
1126.58336
671.9809124
443.2390925
451.7332292
1133.89203
663.3474478
706.3917743
457.8500485
470.3947598
705.3195861
144.9658825
161.2058658
344.7873126
440.6146925
803.3142744
558.816647
1010.32526
1057.211492
647.9610289
1850.230906
1297.404548
1357.698284
840.4869334
844.4742133
1446.868163
1495.728191
1514.335469
1395.757855
1423.273125
1305.119905
765.0914193
772.0608561
725.9309645
734.7744821
1226.329902
1413.947251
823.9315512
830.2099029
779.4222019
786.7908388
1351.796114
632.3263464
617.1074114
263.8473074
287.0918652
652.8480551
637.2249459
448.0280814
433.3585242
214.5489773
1570.862665
1574.618273
1522.695051
1529.975324
1989.792771
1586.049555
1587.959778
233.7452407
471.2876405
453.9151777
3805.691686
3756.471472
2278.641139
2407.61949
3946.270337
3785.304511
3951.789458
564.9098162
1115.355972
937.784123
288.753308
302.2762149
620.3010532
543.6451799
274.0430437
284.9624849
1147.80299
1147.276642
772.8644278
795.6301412
1157.990719
1162.585029
4889.414203
1622.460101
1046.263087
1032.156117
11990.82972
2556.412852
1182.34726
4008.940025
3075.707114
1938.222193
1912.310429
1189.281416
5606.984507
6167.477323
5843.077498
4433.045886
1271.228461
1991.17669
1925.50881
2033.740933
771.2248864
886.1236782
4645.692696
4563.689883
3371.979916
3099.495936
1667.440464
766.1481782
828.6466191
903.7214886
2573.110553
4617.680841
3870.174386
4675.679517
4450.061829
2977.143546
141.6383432
183.253047
489.4022244
2255.986949
2195.379971
2328.744179
2302.356306
2126.745689
1413.488775
1399.349848
1431.129629
1417.939574
2135.604497
2934.007237
1633.093891
1640.659051
1578.133489
1619.402012
2987.78088
1963.284766
1278.003234
1156.711009
1386.655813
1349.015083
2017.988892
2789.438379
1653.681108
1660.335598
1648.118764
1649.920933
2829.644454
2399.896875
2349.457874
2467.729391
2366.486393
1047.281991
703.0726056
707.5852914
1724.692137
1067.301494
1072.736707
1035.169956
1059.291927
1711.524885
4860.04883
5086.769809
4341.264351
4943.883444
1808.679583
1824.569157
1775.48508
1792.687014
2311.576131
1057.544205
1739.069025
1667.720087
1770.412827
1081.493656
1086.419769
1075.359576
1079.115811
1762.684611
1704.349159
1751.506676
1174.846745
1634.240218
2281.720475
5250.51809
4850.824369
3495.349869
5138.103964
895.3954632
1287.980621
12847.74838
1235.060428
832.7174381
837.7458771
1953.639468
6958.200078
7183.412243
9211.736547
5370.28284
4837.374805
1874.022387
1860.882686
1166.415003
1843.023934
1361.282909
1985.05907
1360.782919
1739.049382
1304.941905
530.6235033
1931.619982
1289.014872
4172.37404
4376.029945
4838.253239
3432.873163
4052.224275
1194.672597
1552.596625
639.835385
345.0356377
478.1045928
785.5630346
897.595838
503.1913021
755.9639543
1023.558195
4453.306573
4749.15785
4369.562788
4586.05268
5449.10934
5383.89083
5179.352454
2793.556585
4488.665849
4000.656398
5169.282991
5388.922194
3246.778657
3607.334503
4091.287711
5465.230642
4269.590946
2741.830992
3114.520794
1584.26586
1143.391367
1603.396429
869.1217722
1240.717188
1662.680366
1813.021577
1658.270245
2384.473031
1547.582595
1466.643381
2079.599145
1531.499884
2243.67396
2230.380928
1449.604954
1435.437153
1472.397994
1450.868684
2244.671046
1893.358429
1137.800748
1152.981789
3203.249222
3180.725014
2734.725712
3582.557685
3471.437303
3303.680631
3109.162876
3240.249468
2483.171715
1335.232753
1480.559162
1178.577073
1231.68456
2119.528964
4294.535952
3493.135079
1782.973608
4658.595365
4407.69153
4394.37083
2573.169283
4268.979943
4113.786387
1475.625279
1655.548767
3260.934291
1030.977242
1114.041595
519.9458013
592.2652492
1083.964788
706.459263
475.9222664
500.1961264
916.4164015
875.2092259
514.2110989
853.4748662
1176.647662
592.1958904
989.6394376
962.8116069
1358.101832
942.4492101
925.4728981
1039.682952
1004.626753
1437.915336
2101.818783
1979.829884
1271.348354
1872.166745
1968.821131
1749.079176
1846.721754
1246.331753
1890.861239
1859.886914
2382.038642
1771.351505
914.5389141
907.1630609
1418.782403
1463.92924
860.4080055
857.9314471
1468.734961
1485.057
1439.687397
1456.166827
752.9133527
759.386573
1296.217015
1243.410254
740.8449587
746.8039004
808.5487766
815.1857302
1399.054005
1367.294391
794.5535541
801.5336561
2696.551468
1674.19525
1679.873997
1661.976446
1666.84611
2700.12648
2605.09141
1829.406586
2100.750902
1695.664891
1733.178763
2614.726561
953.448147
1584.129258
1570.74168
1602.777391
1594.063939
956.4528927
935.1863922
1527.160366
1506.575851
1558.48592
1543.822344
942.6343391
987.2680339
1661.728856
1648.89626
1680.973617
1668.614987
990.6923845
967.0373096
1620.004874
1612.251919
1640.8769
1628.952763
970.8342171
1555.045363
1560.748779
609.5564021
916.1077996
912.0980833
925.6845363
922.3709798
615.3714212
1539.592042
1546.200509
1643.011944
1548.390608
693.5372375
993.7639944
1003.972496
1466.343999
1406.518263
778.0135227
630.0728494
935.7506641
933.7764283
946.2647318
949.8535907
641.8615122
1603.163473
1595.072497
3801.886065
3662.90911
4025.238322
2598.940043
3099.635082
2048.190676
3512.813548
3565.373518
3480.176615
3500.44729
2098.22992
1511.132414
2944.339774
2470.78287
3469.81155
3607.380465
1737.478767
1073.60061
731.62629
733.9122689
715.4884473
718.6435357
1059.077236
1768.928652
1785.559738
1732.327497
1752.480607
1724.31182
2209.963655
1569.527067
880.6658384
979.0871965
763.4633264
788.6954032
1120.51846
1492.206129
2104.343872
1641.276683
1558.404214
1015.161079
1699.276203
1682.381091
1742.169652
1690.658825
1011.167187
1686.670708
1701.066811
1638.979853
1653.310188
4308.317523
2617.534934
2794.396979
1890.682344
2287.559145
4414.740782
4410.476487
4236.910093
3099.527761
3620.420195
4751.458105
4961.994485
3482.877486
3722.019836
2582.738981
3037.854975
5160.939173
1860.273267
1861.289486
1841.379252
1844.878593
1209.858865
1222.964187
828.9019248
1929.671212
1822.338052
1881.400072
1870.905027
1807.979379
1098.195921
1107.691262
1088.989085
1095.856754
1803.473816
1851.040561
1124.03386
1188.219408
1109.82382
1127.060807
1854.5776
4681.949921
871.7535165
879.1538715
1291.744897
5085.34849
8182.588118
8553.842476
7828.978036
7926.661976
5725.552076
1993.799304
5708.395312
3840.264565
4254.087336
1186.081615
1902.208645
1883.069871
5799.879653
6347.138226
6089.839021
4858.429743
5348.754698
6732.256136
6388.325018
3838.940121
6056.940257
5116.502404
2365.968211
1896.056975
1259.061284
31.76535924
31.77340727
31.86147145
31.77679896
31.7913418
31.87042337
31.79697194
31.81919482
31.88470029
31.82692415
31.85374151
31.90301633
31.86166243
31.88402135
31.91963882
31.88839487
31.89505939
31.92677003
31.89454851
31.88441415
31.92083578
31.87891537
31.85614475
31.90570277
31.84867731
31.82387359
31.88843206
31.81686301
31.79695217
31.87410322
31.64874834
31.66572989
31.74523076
31.67335025
31.70392092
31.76708013
31.71664181
31.76211996
31.80087322
31.77799151
31.83370031
31.84253587
31.85032013
31.89166912
31.87661165
31.90150663
31.91190308
31.89083515
31.9083488
31.88594345
31.87653465
31.87446301
31.83141881
31.84465713
31.815368
31.76791742
31.80606436
31.75308185
31.71334284
31.77354553
31.54164559
31.57589988
31.64129908
31.5913076
31.65228852
31.68704451
31.67745285
31.77379313
31.75606935
31.81238281
31.94425002
31.84222857
31.97645797
32.07578493
31.91511094
32.11204225
32.12171403
31.9333884
32.09363042
32.03322497
31.90105709
31.99930172
31.89829037
31.83603298
31.86358758
31.76622328
31.76039233
31.73824381
31.66441383
31.69676054
31.44739601
31.50895701
31.55667192
31.53650034
31.65268639
31.64600069
31.70747025
31.93863708
31.79620094
32.04052256
32.44954608
32.00139281
32.55176892
32.93357443
32.21140786
33.06957488
33.02141869
32.21927916
32.86669854
32.58299673
32.10609734
32.4662755
32.17789692
31.93808566
32.09226964
31.87305181
31.77941343
31.81264588
31.66724101
31.6585465
31.37096083
31.46986381
31.49689049
31.51655417
31.73928698
31.66528568
31.85213066
32.39192542
32.01757875
32.67586402
34.23099757
32.65312323
34.89061954
39.38401634
33.54366534
39.37142531
37.62119332
33.44295929
36.26132808
34.35888925
32.83880971
33.88017986
32.90918393
32.29815806
32.68009768
32.16600039
31.92375925
32.03830789
31.74913577
31.67875531
31.30920922
31.45414265
31.46396243
31.52967296
31.90842796
31.77482959
32.11055507
33.19434808
32.56605988
33.86377917
40.42916515
34.91180524
38.6128268
43.78126763
37.72523443
53.50497156
52.14536141
41.43025644
43.56425259
39.30529773
37.41419509
37.53753506
34.45174739
33.19278572
33.86854619
32.72395705
32.27619653
32.47119932
31.93550591
31.78480645
31.25715738
31.4548547
31.45313095
31.56378673
32.10512824
31.95744393
32.39487184
33.97050976
33.41291265
34.48008226
35.77115508
35.33022169
46.2935045
51.79461565
49.89871631
76.53666551
57.00986461
48.85072384
44.01208075
36.90369675
34.97196822
35.71941955
33.5676926
32.90824118
33.12537423
32.22919197
31.99954508
31.2112696
31.46314209
31.45649615
31.60388615
32.28148848
32.15156565
32.63543083
34.51168823
34.11993269
35.33946983
36.99812176
36.74670733
52.59425078
61.69272864
60.47190862
118.6193875
76.74218562
69.61165964
50.57190163
39.65295609
37.57224352
37.83344901
34.56673557
33.80424791
33.90754093
32.59595313
32.31570446
31.17016532
31.47644535
31.46597295
31.64724514
32.44688831
32.3228547
32.85645206
35.0267688
34.63193698
36.03617398
38.07798737
37.76592623
59.64767695
77.90433317
75.22125135
134.071593
87.83547791
84.86406565
54.91911652
41.95215541
40.26474224
39.68164297
35.53152689
34.81184958
34.68017154
32.98039805
32.69226259
31.13442245
31.4981232
31.4811302
31.69881371
32.6270148
32.4897029
33.09866347
35.67389013
35.16350346
36.93790588
39.70196418
39.1933852
68.54869961
94.95167078
91.32472793
130.2491752
89.94776737