/*--------------------------------*- C++ -*----------------------------------*\
| =========                 |                                                 |
| \\      /  F ield         | OpenFOAM: The Open Source CFD Toolbox           |
|  \\    /   O peration     | Version:  v1912                                 |
|   \\  /    A nd           | Website:  www.openfoam.com                      |
|    \\/     M anipulation  |                                                 |
\*---------------------------------------------------------------------------*/
FoamFile
{
    version     2.0;
    format      ascii;
    class       volScalarField;
    location    "0.39";
    object      p;
}
// * * * * * * * * * * * * * * * * * * * * * * * * * * * * * * * * * * * * * //

dimensions      [0 2 -2 0 0 0 0];


internalField   nonuniform List<scalar> 
12556
(
647.291885
646.5001141
644.5717251
640.5994013
634.9833973
623.0581808
603.5242838
572.2907631
525.2848994
457.4143807
364.7002298
246.5259242
108.0424639
-39.54543238
-182.1676599
-308.3353833
-411.9955027
-492.3625092
-551.7715598
-593.5623407
-628.5897082
-644.639946
-653.9057876
-658.1908336
647.786259
647.2679783
645.8931042
642.9175665
637.35925
627.1964045
609.9503918
584.7471338
542.7106175
480.0878199
391.4747605
274.2744081
132.387218
-22.06650152
-172.9938971
-305.6341841
-413.1186963
-495.2633273
-561.2504758
-600.4769829
-634.8722186
-648.9863304
-657.1495467
-660.9244127
648.9478479
649.0348988
648.9450496
648.1378699
644.2305174
638.107925
626.3532419
604.903582
570.1697132
514.2954998
428.5332589
305.571739
147.2425456
-28.69851869
-196.8781809
-338.1528244
-446.1825582
-523.7847114
-587.3541078
-620.0619504
-649.3344914
-659.3576484
-665.0764209
-667.6584571
650.2941646
651.2366503
652.9719116
655.0625786
654.3486644
653.8417611
650.4289739
637.3470404
615.9670147
574.6616891
498.3815139
368.2248913
177.19627
-45.03414776
-247.4530393
-401.6832928
-507.9666101
-576.3879802
-628.0127774
-649.7256347
-670.3449961
-674.5859069
-676.6683856
-677.4813339
650.9412924
652.8595231
656.6998305
662.2349853
665.2038715
672.0981251
679.1134268
679.3757036
678.1918884
663.7435167
614.6676405
486.0546934
232.6473978
-87.9048166
-348.8216594
-514.6826622
-605.4778356
-650.8117507
-681.6993275
-687.9206479
-694.7364826
-692.0202422
-689.6704785
-688.3519434
649.9265057
652.81561
658.7358135
667.844808
675.0951487
689.8240091
708.5849897
724.2831717
750.9602673
780.6397617
795.4511304
718.5193455
345.9952779
-215.2531309
-557.6240311
-696.5912474
-740.674319
-747.0650865
-744.8389946
-730.1919648
-719.7414944
-709.1437493
-701.7839064
-698.1675622
646.3297757
650.070096
657.7716599
669.9885721
681.8806289
703.5204063
732.9735684
764.173605
818.4969922
899.5291363
1025.69398
1201.821912
700.7254358
-666.31377
-955.3063475
-959.7883291
-910.1573551
-854.7717813
-809.8280102
-771.1622225
-742.1576174
-722.9545999
-710.6855643
-704.878653
639.356793
643.7216109
652.7143561
667.144559
683.0836571
709.8466352
746.7631182
789.9708508
862.7328649
974.6983486
1165.297169
1571.572414
-2053.662598
-1572.052595
-1271.127058
-1083.11873
-956.4326347
-864.6250599
-804.0602972
-756.3132511
-730.1824248
-714.0312403
-706.3924758
628.4015327
633.0909876
642.7383153
658.2730665
677.2735175
706.6295736
746.8977233
796.0410065
873.1698749
981.1999988
1123.429438
1257.171485
-3487.333945
-2080.309261
-1511.630753
-1209.172139
-1026.116717
-896.9091029
-820.5658334
-758.6479151
-728.1516343
-709.6768134
-700.8860034
613.1245533
617.8092782
627.418101
642.861323
663.7175417
693.0914502
732.7982071
782.4210092
854.3271623
945.8380734
1046.013479
1122.907437
-3411.476423
-2149.786712
-1567.535773
-1241.544967
-1042.190466
-897.3394198
-815.8509614
-746.8093945
-715.3389798
-696.3456103
-687.2720049
593.4915696
597.8631226
606.7776226
620.9741134
642.5721137
669.7199044
705.8328374
752.1938467
815.1916235
892.8772092
977.8574871
1056.036843
-2638.768101
-1860.083975
-1438.03615
-1173.004956
-999.4734574
-863.6164913
-788.8263398
-720.3965155
-691.4073885
-673.7689464
-665.2879281
569.7503066
573.543776
581.2622706
593.0457136
614.8964605
637.7123367
668.0167138
708.6392699
760.8897324
827.2730827
909.2398549
1009.655276
-1766.661913
-1414.996954
-1195.826935
-1031.078193
-909.5969215
-801.4723092
-742.3303954
-681.0555986
-657.4356
-642.6847143
-635.518063
542.4115555
545.4424187
551.6856845
560.6780449
580.686754
598.5059988
621.3146427
654.5171534
693.3384611
744.7358057
817.6517655
936.5691819
-780.2883485
-927.1048601
-964.4774928
-921.4333234
-856.6478784
-793.5524399
-721.337923
-681.9351754
-632.3003217
-615.693849
-604.6637686
-599.2676237
512.1300384
514.3087493
518.9450258
525.3285226
542.1993225
554.7171211
569.2438852
593.3196387
615.8184306
643.8440755
681.1554077
778.1656857
217.8909136
-395.7418531
-607.530769
-675.936108
-685.3185088
-670.9539057
-634.784
-613.9376981
-578.9673018
-568.8992891
-561.745424
-558.2936531
479.6656923
480.9005451
483.6215622
487.145161
500.89794
507.2267066
513.6766346
526.9674545
531.8450029
531.2102821
515.0267198
451.4987638
172.5062647
-174.5085312
-382.1484522
-489.1422829
-539.0894034
-558.0946794
-549.5362161
-545.0559506
-523.5409398
-519.4016693
-516.0457613
-514.4740951
445.8113775
446.1406483
446.9421596
447.6953664
458.2964517
459.0724947
458.1644301
461.753541
451.981754
429.9414682
383.0430308
289.4346282
121.1288007
-89.14597208
-252.4134239
-359.9532155
-424.8528262
-461.5106053
-471.3890338
-479.0424806
-468.6498099
-469.5003245
-469.5049128
-469.5543758
411.3711388
410.9174217
410.0363978
408.3744165
415.9538504
412.0306119
405.0996567
400.9455726
381.3375142
347.3372702
292.0159284
205.1586153
89.65698666
-52.07947643
-175.5376554
-270.2008344
-337.2885266
-381.2058473
-402.647288
-418.2466774
-416.4325361
-421.1063531
-423.7463464
-425.0159535
377.0874885
375.9961003
373.7431115
370.1367535
374.9922254
367.455067
356.0825702
346.3959418
321.4492338
283.7671725
229.879307
157.258205
69.48538481
-34.08626707
-129.8378684
-210.1823571
-272.2139471
-316.9676311
-343.8295293
-363.8276854
-368.1025092
-375.3890664
-379.9135235
-382.0300331
343.5665031
341.9832376
338.6701824
333.6049913
336.2459861
326.179745
311.9309021
298.841028
271.3766996
233.8278689
184.864857
125.3592193
54.31642695
-25.74973105
-102.0900592
-168.9239804
-223.4220545
-265.7231685
-294.2745651
-316.0533251
-324.1260027
-332.9814922
-338.6979664
-341.400349
311.2744417
309.3436363
305.2787456
299.2179519
300.1776545
288.5519924
272.6771234
257.9717914
230.1394259
194.3030645
150.4781703
99.96304774
41.70508104
-22.12286677
-83.52818797
-138.8984462
-186.0437239
-224.4728635
-252.6439168
-274.4704268
-284.612991
-294.2145009
-300.557946
-303.5618809
280.5485064
278.4050496
273.8756605
267.226278
267.0031125
254.6043028
238.0578242
222.9765016
196.0884159
162.9527492
124.1236856
80.60660854
32.58550469
-19.59245047
-69.90544998
-116.1611428
-156.7178858
-190.9266403
-217.4866129
-238.3801301
-249.3947213
-259.1244594
-265.6581473
-268.7596619
251.608704
249.3671886
244.6213656
237.7219473
236.7269878
224.1588916
207.7141458
192.9699279
167.75122
137.6717302
103.4950397
66.12415394
25.7545315
-17.5467868
-59.38886173
-98.33083199
-133.1752352
-163.3047302
-187.616305
-207.0555427
-218.1261405
-227.5628302
-233.9801334
-237.0327429
224.5685904
222.3195527
217.5563182
210.6812643
209.2145049
196.9342636
181.1192507
167.1379564
143.9485785
116.9724285
86.99926774
54.84113107
20.57274374
-15.7717855
-50.93969903
-83.93091795
-113.8734073
-140.2364964
-162.0894651
-179.8050903
-190.4042774
-199.2843963
-205.3851055
-208.2913746
199.4537024
197.2656422
192.6337182
185.9885673
184.2931121
172.6091295
157.7982014
144.7770079
123.7594635
99.78204723
73.56538742
45.84143412
16.58463096
-14.16310622
-43.93593778
-72.0124427
-97.7506784
-120.7138938
-140.1078836
-156.015086
-165.8274338
-174.0001429
-179.6614085
-182.3607801
176.2240922
174.1470783
169.7523913
163.4807305
161.742079
150.8528012
137.2380011
125.3208518
106.4754439
85.31619656
62.44855167
38.52768631
13.47139237
-12.66991184
-37.98846636
-61.94708971
-84.06646511
-103.9942111
-121.0368999
-135.1573857
-144.0127393
-151.4051698
-156.5597135
-159.0185355
154.7937937
152.8627776
148.7777103
142.9742374
141.3297949
131.3538131
119.0146947
108.2821792
91.54107131
72.9893641
53.11310058
32.4855325
11.00784988
-11.26765124
-32.84171123
-53.30322533
-72.28953614
-89.51869149
-104.3666368
-116.7815019
-124.605063
-131.1966468
-135.8166133
-138.0204817
135.0431519
133.2809579
129.552232
124.2750408
122.8277256
113.8246559
102.7862842
93.25759235
78.51870416
62.36165179
45.16710186
27.41918912
9.033370103
-9.944278444
-28.32136592
-45.77611603
-62.0313265
-76.86232286
-89.68906708
-100.5079676
-107.2806095
-113.0837283
-117.1674014
-119.1147854
116.8292428
115.2493492
111.9042748
107.1848425
106.0094812
97.9996159
88.24978897
79.90888424
67.05658568
53.09447574
38.31551605
23.11191349
7.429973222
-8.693114179
-24.30252009
-39.14168892
-52.9976632
-65.69234803
-76.66882404
-86.01101776
-91.74724551
-96.79319471
-100.3547547
-102.0519864
99.99570221
98.60485568
95.65666555
91.50751192
90.66070954
83.63920138
75.15436568
67.95136035
56.87107299
44.92378789
32.33248719
19.4010895
6.109482355
-7.510152989
-20.69267081
-33.23079169
-44.96123334
-55.74461378
-65.02966071
-73.01270429
-77.74311151
-82.07279411
-85.13505573
-86.59272969
84.37977183
83.17997294
80.63214335
77.05289309
76.57764083
70.52355246
63.28513349
57.14864001
47.73016677
37.63854053
27.04127778
16.15772504
5.004170512
-6.392084371
-17.4198206
-27.91037696
-37.73948692
-46.80111819
-54.54007008
-61.27227421
-65.03359199
-68.69097108
-71.2805727
-72.51129685
69.81108211
68.80208741
66.65247452
63.6320286
63.57531092
58.45213224
52.41651769
47.30506973
39.4423526
31.0665818
22.29945264
13.28063596
4.061122017
-5.335538924
-14.4261396
-23.07341952
-31.18335589
-38.66895056
-45.00473743
-50.57942098
-53.40250217
-56.43243018
-58.57623943
-59.59235654
56.13981542
55.31800911
53.56125987
51.08587562
51.46588595
47.2407417
42.3357922
38.25569209
31.84495764
25.06378479
17.98979654
10.68759376
3.238234964
-4.336934077
-11.66374334
-18.63208458
-25.17330058
-31.21462776
-36.23363447
-40.7441125
-42.67154931
-45.11287622
-46.83645494
-47.65108413
43.13759667
42.50638015
41.14199711
39.19007978
40.11399314
36.72023909
32.84729365
29.83445917
24.79122597
19.5043833
14.01168703
8.30866605
2.500775132
-3.392088028
-9.090547658
-14.50975126
-19.60545656
-24.33847406
-28.06277173
-31.59493056
-32.6098634
-34.50964702
-35.83133288
-36.44917421
30.88062135
30.41986364
29.43628922
28.03778535
29.173448
26.73382973
23.87627563
21.888477
18.15053865
14.27719863
10.27569189
6.081566933
1.818928124
-2.496074684
-6.668286627
-10.63665841
-14.37831785
-17.87216131
-20.38780565
-22.95572001
-23.27778611
-24.62683473
-25.56773686
-26.01294656
18.35928839
18.13764766
17.55045224
16.70395666
18.72518846
17.14515993
15.26083637
14.29074523
11.80874862
9.281118609
6.697347315
3.947554868
1.166287545
-1.642526892
-4.360386253
-6.948136125
-9.399781873
-11.7126408
-13.07347283
-14.7659339
-13.86729246
-14.68234647
-15.23910208
-15.45155911
9.100567606
8.884590821
8.573807854
8.065624774
8.484567551
7.705584569
6.794495458
6.925416706
5.669829462
4.422073442
3.182506156
1.836611515
0.5240782936
-0.8214069029
-2.129559985
-3.384190389
-4.586487138
-5.744440122
-5.919794151
-6.702158732
-6.8844708
-7.330079852
-7.608713596
-7.811955759
1289.436366
-3696.621089
-2142.842417
1133.232344
-3706.900898
-3784.582823
1062.545778
-2868.103024
-3630.239667
1016.108207
-1923.317936
-2748.66846
943.2972705
-837.8225774
-870.4262207
-1040.130471
-1808.081926
803.9426162
304.4938614
-792.6966039
171.3881111
-410.2867472
-939.7837126
1572.349328
861.0162741
-1833.634632
-491.6727183
-4596.860254
-2467.514764
-3401.068055
-2195.235813
-1678.21043
1064.588729
1125.620882
1247.233622
-5216.330902
-5307.198065
-3474.5871
-2399.494318
-2303.442638
994.2571667
1053.264345
1114.603621
1094.167281
1117.047132
1154.131867
-3977.851063
-4663.495202
-2746.659185
-2115.162954
-2363.51052
927.5738098
1002.164259
1046.384304
1038.810018
1075.966105
1084.873873
-2688.952347
-3240.998437
844.2329715
931.6819868
995.118048
981.5704101
1044.630185
1063.301287
-1583.735247
-1510.925709
-2017.414311
719.1972221
793.2561551
920.0440944
891.7777852
988.3753068
1010.556919
519.5017517
275.3402331
315.3293582
1532.09709
1251.516319
2161.245639
1601.078477
-5298.925299
-4672.237461
-3228.078533
-4481.941028
-5155.968225
1157.49498
1175.364027
1170.866387
1172.82201
1161.113297
1233.620967
1175.634538
-4702.672392
-5195.232366
-3798.287346
-5074.971785
-4617.654285
-5165.989482
-5093.72737
-3812.892691
1087.306957
1111.902838
1085.405939
1115.189471
1089.395182
1159.290426
1118.040091
-3321.97
-3926.624276
-3217.517091
-3830.675299
-3253.524736
-4579.109678
-3921.013444
-3329.058665
1064.829469
1075.849871
1033.422456
1078.988206
1068.977677
1088.046038
1078.806429
-2090.846714
-2612.328954
1012.858334
1043.267798
976.5662311
-1546.304288
1048.74075
1017.817054
1067.366764
1050.141882
-1585.021023
-983.2098146
-1438.361954
-1537.945614
1033.635711
988.6709591
882.1128618
-70.02095492
995.6269161
917.7648718
1015.502553
994.2993856
-146.4255468
1141.993824
1275.358037
1486.278153
1463.732266
1592.905886
2041.737499
-5257.636776
-2696.601034
1187.617152
1179.466791
1247.305972
-3210.675135
-1873.921927
-1614.262154
-2000.948506
-1953.4068
-1882.021517
-2146.738765
-197.985857
-487.4183465
-850.0649244
1265.669905
1531.209375
1415.698377
1210.442059
2954.89246
2136.059705
-2398.134666
-4315.84399
-3000.54083
-2189.789483
-2474.998575
-2274.515244
-2569.591853
-2063.253431
-3175.884052
-2643.713745
-2392.921587
-1170.085284
-359.3561836
-488.273053
1420.929415
1776.731468
2181.72541
-2071.816757
-318.8272277
1235.777119
-5399.653903
-3915.326908
-5269.75226
-2637.856039
-5087.208024
-3596.871664
-5275.852865
-5284.489331
-4307.518521
-4354.006852
-2855.735434
-3155.066124
-2921.797557
-3130.000326
-2828.941173
-3497.676238
-3174.578563
-3000.53638
1053.127908
1025.553725
1015.330795
-1553.204581
-1799.879998
-1886.380848
996.2444946
957.9080601
943.1589761
976.345076
962.5660548
997.3042853
1410.455235
1230.495332
1370.628778
1251.423646
1448.966152
1159.440108
1233.240026
1331.688548
1949.981038
2121.931493
2805.261567
1498.473918
2019.202504
1857.302309
2016.698794
1466.618597
-5121.290324
-5086.542078
1166.947282
1163.545595
1166.489477
1197.025396
1147.541537
1159.349492
1159.918133
1148.226633
1189.534827
-4942.502068
-4972.058318
-4880.865469
-4330.910126
-4424.321095
-4144.269392
-4290.426103
-4851.263208
-5169.133765
-4467.841574
-4404.943699
-4444.963165
-4472.156459
-5161.117407
1100.233987
1098.392369
1142.370416
1139.119402
-3570.269976
-3530.672433
-3615.146477
1075.343294
1074.342042
1080.905941
1080.317701
-2784.752068
-2494.209596
-2386.558151
-2515.548311
-2808.188451
1023.130133
994.2215916
980.7497276
1011.556226
998.8152831
1026.464843
-1217.155871
1030.64258
1026.843791
1057.844022
1057.220274
-1896.460888
-1214.309144
-1225.406099
-1471.231636
937.1730318
916.6728917
966.6634722
980.5595906
455.5339968
143.4347004
1003.53986
-350.570616
96.51710078
-269.7744985
1003.297211
-397.9543662
-297.242715
65.19474644
-2944.969808
-2079.991511
-2217.327608
555.1665686
532.1428979
759.6217218
651.1900399
659.2193968
957.9576653
186.2210133
-129.248405
-302.7899164
3950.722757
-2250.469308
-2397.259574
-906.1898904
-1143.401028
-1168.70124
-147.0634823
-385.3172636
-125.8090433
2307.354952
2535.276892
2993.197539
-2214.166794
-69.00486695
1760.048287
-5250.189893
-5753.454864
-5716.607356
-5310.959823
-4118.534633
-4307.32629
-4133.127952
-4916.537828
-4779.56761
-4538.041336
1078.328022
1063.444266
1057.650737
1073.192849
1065.635082
1079.294195
1037.465263
1028.646975
1054.064515
990.0361922
971.7163204
966.3211434
860.5898097
591.7497926
336.6147405
-5239.021206
-5692.128782
-5768.954419
-4937.407214
-4096.245073
-3754.378621
-4365.302
-4181.42593
-4965.303028
-4813.109983
-5077.477052
-4961.681189
-5112.210807
1095.684355
1085.703046
1076.049744
1094.705747
1096.499056
1092.668974
-4079.154984
-3927.81037
-3790.972268
-3574.47842
-3338.666238
-3552.402422
-4285.805331
-3900.660075
-4087.859202
-3623.694081
-3833.512187
-4241.205832
1070.97547
1047.615255
1040.230168
1055.815089
1049.86552
1071.958576
1078.855953
1092.266483
1088.652965
1081.173981
1091.608844
1072.910696
1084.509887
1088.699485
1093.535436
1087.013276
1084.104665
1078.632718
-2312.350603
-2454.112941
-2180.450088
-1416.345301
-1406.431348
1043.121874
1013.359808
1062.208336
1069.983382
1080.258683
1071.970693
1052.833518
-1713.529357
875.0305063
909.4236736
871.9987197
964.2920251
955.9667108
984.4217294
110.6731634
361.4261504
125.6377257
995.130223
426.5992176
668.0438603
490.9997203
648.1949451
1005.351479
998.543844
-4529.794222
-3053.175218
-4173.858191
-3328.218359
-3381.221021
-1909.780292
-2037.326736
-2060.309922
1184.202539
1174.473806
2662.38934
2955.266671
3635.14681
2740.55402
2531.315182
-2549.202777
-2402.781902
-2350.608607
-2413.818678
-2569.280058
-1189.418617
-1024.677516
-1026.364399
-1030.782232
-1195.123136
-822.6880024
-983.7656204
-604.3924887
-617.10152
-774.5136547
-410.1307602
-565.1600864
-510.8657457
-5638.79963
-4951.586405
-4460.70217
-5387.061021
-5082.385671
-4269.206952
-3585.934918
-4254.970159
-5612.001345
-5566.243301
-5255.694974
-5306.252693
-5692.456887
-5632.319773
-4516.266779
-4361.129189
-4166.720911
-4415.64494
-4583.554958
-4187.715842
-4365.50048
-4627.625646
-4493.1625
-4734.348839
-4564.369213
-2986.130277
-3037.605887
-3005.418732
-2919.048868
-3041.815778
-3357.373906
-3254.093486
-3384.144749
-3082.972131
-3210.940841
-3308.895919
-1766.972239
-1734.681378
-1864.850871
978.7255695
973.765217
987.5358156
999.2977668
985.9554285
981.0901374
1308.056002
1286.01547
1312.909013
1385.343009
1314.985046
1520.536813
1413.947024
1338.851007
1187.978431
1237.419084
1207.282183
1296.164906
1250.02893
1198.577135
1674.519007
1712.202454
1561.984727
1723.266406
1643.568749
-5633.465641
-5660.293789
-5213.447389
-5786.281517
-5791.984953
-5791.710519
-5622.339164
-5474.211127
-5788.495115
-5649.734259
-4941.2011
-5466.566191
-5616.188235
1161.821475
1166.410894
1168.516388
1167.237275
1166.758372
1163.770318
1174.835528
1176.479601
1170.677667
1173.8001
1148.913932
1180.543327
1172.606849
1200.386648
1184.426308
1149.584044
1157.633007
1168.11609
1167.083751
1170.991112
1168.740369
1158.087744
-5212.364663
-5112.978615
-4847.474922
-5075.117929
-5350.569895
-5237.182265
1108.971729
1104.237814
1119.008191
1109.659377
1097.449918
1096.868228
1101.756783
1097.428826
1164.048578
1152.906919
1175.783217
1167.557317
1132.684894
1121.071974
1149.032653
1137.071517
-3598.597521
-3733.444365
-3427.440108
-3556.282152
-3656.731752
-3976.675167
-4130.172972
-3779.118032
-3928.995404
1085.221206
1091.417025
1078.296171
1096.844108
1087.679942
1091.515178
1098.233137
1087.141634
1072.827314
1089.59933
1084.165381
1087.087477
1087.254619
1083.249986
1090.411667
1090.237655
1095.626815
1090.862236
1084.837948
1089.012341
1085.981304
1084.242373
1078.826936
1083.745998
1085.634286
-2582.709542
-2641.567656
-2708.625694
-2570.17408
-2751.738346
-2681.47332
-1208.273569
-1362.210744
-1399.401917
-1206.443519
1041.240267
1017.796572
1067.111667
1067.991351
1060.708542
1054.376828
1074.009752
1068.379976
-1785.602504
979.7640618
952.2043375
944.7079165
636.5642856
529.3687221
992.9015872
228.249867
396.5928034
284.7832271
1001.76443
-504.6191547
-64.17562355
168.2149477
-111.9776722
987.4283349
-1797.955123
-1470.009603
-929.3259409
-2208.469489
-2258.935613
-1053.220371
-1086.938361
-1479.29754
-2272.064559
-980.9572877
-978.9263594
-824.558295
-1992.030182
-1525.34048
-1467.357043
2995.300385
3355.099432
3925.971366
-1933.453291
298.7463683
2404.153539
-1071.670062
-618.2413829
-2065.80963
-4279.66308
-4844.473593
-5154.515389
1134.1798
1120.850632
1106.328997
1139.911783
1125.772887
1139.825001
-1561.71938
-1691.074932
-1713.885733
-2100.019103
-1859.334005
-1797.447215
994.417922
988.5520393
1002.056377
-5244.269941
-5421.381237
-4893.188151
1101.742031
1089.366736
1099.155337
1108.028998
1109.974788
1118.482649
1120.871643
1131.372519
1126.692825
1012.753577
1001.631737
996.8686926
-1561.11079
-1518.271715
-1504.803506
1022.750119
1026.809813
1019.235245
-1646.663135
-1660.264036
-1576.977262
-1401.268131
-1384.019219
-1516.521145
996.5396877
1013.55846
1020.019874
1020.653534
991.6117055
-5099.179738
-3244.971496
-1934.272152
-1992.566448
-2002.339131
-2197.807094
-2066.77757
-2024.691959
1195.180711
-3609.704553
-3078.285195
-3645.555667
-2310.455401
-2370.179301
-2237.840268
-831.1795586
-848.2950523
-679.527196
-683.0916527
-774.926312
-1089.296224
-447.9861011
-2225.739894
-5438.895811
-5178.021356
-5007.072495
-5744.203769
-5685.866014
-2898.257979
-2928.007409
-2883.908317
-3171.244699
-3158.64308
-3130.822148
-2754.138022
-2876.266972
-2958.330507
-3463.448518
-3415.756098
-3459.291931
-1874.108688
-1851.147946
-1885.00647
1365.630048
1395.877501
1249.503228
1270.506726
1295.744171
1275.711627
1161.960162
1181.361379
1175.775787
1257.39263
1241.445069
1218.146036
1973.218068
1773.015507
1749.538822
1909.596515
1877.546294
2013.382621
1440.897911
1484.912526
1517.066137
1161.530095
1163.169351
1171.744331
1163.984323
1165.075742
1165.183225
1186.474481
1188.783834
1175.075332
1175.064577
1149.221362
1157.031582
1155.902228
1172.119392
1168.346888
1157.019155
1156.482578
1160.138866
1161.911327
1155.773972
1157.394528
1152.138114
1103.273768
1108.373973
1105.763713
1094.046428
1097.083796
1101.271437
1150.2077
1160.462398
1150.593945
1162.287056
1157.921318
1189.710828
1186.752494
1123.345311
1153.578843
1149.272271
1129.957057
1135.306985
1146.580551
-3754.837473
-3805.764028
-3500.536005
-3547.343977
-3574.672463
-3854.595482
-3881.028348
-3743.551315
-3880.257394
-3737.797123
1010.633218
1004.101785
1014.819481
1035.518095
1020.273666
1013.592793
1034.539824
1039.841185
1034.741221
1023.558466
1027.110912
1030.232372
-1889.268924
953.2426006
952.5644177
956.8966938
718.0767844
964.5405926
328.5271748
467.3754064
600.11424
1009.460886
1006.548809
1002.553615
-412.7407217
-263.452952
-236.8784419
-249.5470883
1001.021173
1007.58768
1009.965641
-142.2763569
-210.6545867
-357.5215048
-2118.253458
-2156.864835
-2242.390279
-2198.305079
-2176.252303
3753.280287
4370.753505
3448.827848
-2298.644201
-2324.702384
-2259.982567
-2416.540357
-2368.505102
-2353.079629
-1036.372582
-144.3753832
-2002.936248
-5496.722018
-5489.320846
-5457.479858
-5480.718518
-5738.626904
-5606.72573
-5616.297969
-5587.741632
-5599.536244
-5732.376317
-4874.858995
-4797.504342
-4839.961562
-4705.093173
-4753.770632
-4830.938036
-5736.550792
-5579.674057
-5547.39913
-5616.873253
-5605.721927
-5764.215246
-5037.633702
-4958.037779
-4995.189571
-4881.568955
-4920.613855
-5000.748006
-5421.39731
-5439.697184
-5349.11502
-5388.601664
1091.643413
1087.000615
1087.15966
1082.604564
1079.315024
1077.466351
1083.551053
1082.016665
1086.548144
-1524.096924
-1571.780588
-1408.206969
-1476.960459
1053.471543
1054.683159
1055.866934
1053.095652
1014.751938
1016.638224
1024.822206
1011.241212
1073.364386
1070.87668
1068.264224
1075.974865
1073.768121
1077.48547
1061.121422
1061.104932
1064.935516
1051.168118
1057.299909
-1722.884283
-1711.579809
-1697.817666
-1579.429012
938.0867528
1000.053841
1163.360811
986.9228764
976.8215518
973.6937112
996.8025692
363.2808419
341.3996155
1139.066643
1000.797873
745.2532461
1006.725379
1015.261811
1010.237934
995.0299901
-4717.17979
-5026.515192
-4854.867996
-3815.316449
-3622.148082
-2886.628608
-4441.901217
-4089.91514
-3283.062618
-3414.789417
-2052.25856
-2038.259734
-2052.890114
1188.584321
1157.919605
3191.040229
3064.472176
2885.939072
2256.696422
2118.886905
2683.676346
2450.500721
2519.31743
-2476.421449
-2425.944426
-2519.93808
-1049.8017
-1047.502995
-1033.651358
-1140.439803
-861.7082376
-848.3933847
-829.9003758
-977.2989911
-925.3647358
-919.9238799
-606.4720115
-660.6180333
-661.9100128
-487.3632385
-488.8939848
-537.1752842
-5467.121807
-5333.094284
-5550.187124
-5291.832661
-5518.575742
-5606.399921
-5645.826072
-5587.85405
-5588.338029
-5495.218997
-5509.000595
-5484.331552
-5486.872103
-5569.717112
-5669.482853
-5556.544786
-5572.861212
-5524.70099
-5540.100657
-5649.81521
-4468.266213
-4395.707388
-4443.612415
-4469.878361
-4531.232832
-4244.120303
-4269.279039
-4229.186706
-4313.142988
-4676.329908
-4717.987339
-4681.359991
-4597.873374
-4652.850723
-4492.235095
-4544.197832
-4619.692414
-3021.488523
-2953.10683
-2936.146511
-2966.300636
-2900.704061
-2948.732679
-3088.722032
-3117.761975
-3068.073898
-3321.088077
-3365.05347
-3397.233153
1333.388514
1266.562613
1204.250106
1190.683812
1171.183575
1207.454817
1228.121999
1216.286591
1682.751262
1766.900413
1813.38514
2000.541984
1886.633688
1574.779562
1539.913249
1608.206011
-5644.191125
-5471.50697
-5452.916099
-5513.599877
-5490.201793
-5652.315745
-5800.047822
-5796.157332
-5593.673622
-5774.259438
-5786.082997
-5706.320814
-5755.894502
-5547.52892
-5768.670029
-5803.445441
-5841.493391
-5703.879891
1163.659128
1164.447618
1162.252882
1165.167365
1165.120311
1164.521777
1180.89073
1183.654147
1175.938334
1178.211562
1158.817655
1157.918686
1149.57646
1152.749691
1164.165929
1160.746683
1160.400645
1159.830718
1156.008473
1156.079111
1159.37584
1160.459144
-5182.904794
-5097.814121
-5127.103248
-5030.720509
-5064.759371
-5147.182264
-5304.056044
-5230.460956
-5299.538887
-5154.348413
-5185.026987
-5266.045546
1108.054853
1109.099649
1109.023115
1105.194025
1107.844984
1106.454475
1114.995706
1112.752458
1119.366237
1108.11307
1108.60665
1111.410884
1097.632694
1099.195219
1098.123685
1099.354619
1099.694627
1097.50335
1099.603853
1099.15853
1101.896064
1097.141631
1097.395847
1098.105563
1171.055962
1166.756451
1160.472451
1163.798776
1167.665311
1155.625107
1159.737276
1156.739879
1180.751674
1175.328499
1136.713221
1133.129187
1128.499079
1130.951053
1134.68213
1122.558483
1119.68133
1122.727765
1145.114797
1147.398359
1151.515086
1139.184411
1143.294146
1141.140892
1145.134547
1141.049748
-3681.913735
-3713.433602
-3626.537396
-3595.960223
-3634.296741
-4022.881789
-4055.530139
-4014.134694
-4170.027081
-4108.005629
-4073.653944
-3824.106586
-3861.996595
-3822.459203
-3970.009696
-3923.594384
-3877.268692
1086.689047
1083.361043
1081.899555
1086.517692
1085.079939
1089.116476
1092.851026
1089.292536
1094.238336
1096.644757
1088.138536
1080.635433
1076.729554
1077.254085
1080.879626
1080.501524
1079.837289
1084.915698
1081.295459
1084.302842
1092.866137
1089.887178
1093.979148
1095.781524
1097.828755
1093.218887
1094.313458
1092.487553
1085.649733
1086.999885
1083.651916
1083.62942
-2664.28803
-2644.275112
-2693.169272
-2554.956011
-2598.964868
-2631.266204
-2813.125507
-2851.844561
-2733.578713
-2751.884447
-2762.730738
-1339.711909
-1336.496365
-1389.757255
-1214.680003
-1272.041042
-1283.397768
1044.611657
1037.374615
1054.829181
1051.516899
1022.753547
1024.070128
1020.284364
1026.631351
1025.361353
1032.341804
1029.296432
1066.751209
1064.869564
1064.834603
1066.474286
1065.410889
1067.030296
1072.949127
1066.778726
1066.208225
1065.228065
1066.040741
1070.607145
-1838.264044
968.9499385
964.1548872
975.170975
587.1292665
612.8152562
685.5836912
542.1880265
554.5481993
530.4067942
990.6587226
326.8336775
272.4244738
202.4218991
1001.280042
1002.869344
1001.688825
-479.8900334
28.66642806
-33.62354195
148.562837
130.7681018
145.9489178
-56.29859216
-187.1423819
-170.3868216
-69.54048192
997.1813641
1006.217204
999.6790654
598.5346302
572.5378082
555.4357048
561.4268111
520.3540956
498.5561873
503.2134932
441.3695607
416.7352576
416.3011861
328.9435436
306.1996327
295.0599831
183.0535147
168.9422282
142.173324
16.13950925
15.45498095
-26.67597373
-149.8292143
-137.2472015
-189.0146209
-295.2775961
-274.769356
-327.4243381
-410.9664472
-388.3965288
-435.3438281
-496.7888302
-476.3777845
628.2169629
610.7474565
580.5935855
602.8704244
571.0247032
530.8018537
556.9693815
501.3152171
453.3799007
477.2955182
385.9771382
340.0955576
348.6493366
217.1729132
189.5452425
167.9342148
12.6017081
15.67625668
-39.3654014
-186.5422857
-156.6454646
-231.2343674
-348.6738725
-305.7838153
-382.1770053
-466.2633548
-422.1071168
-489.2794727
-545.9551201
-506.785456
668.2677136
663.971346
622.7584777
661.2583708
646.6591811
587.5652345
638.6964901
599.9409825
521.810389
580.2308323
491.1261794
406.6820394
449.1555931
282.5700761
229.7763067
215.249455
-1.734335354
10.54417211
-72.97008104
-263.2197917
-200.8378049
-316.5962856
-445.8725517
-367.9533261
-479.9860402
-558.6105092
-485.227768
-577.8698311
-619.917953
-562.3007158
713.2074601
727.7507845
679.3909543
732.6758177
746.310815
669.435194
749.5456343
749.444979
632.1849582
743.5117305
685.008599
528.9228369
643.7169352
417.9309471
307.1799403
308.6406723
-55.88875832
-9.225456569
-168.3059494
-428.3229011
-293.0375116
-490.6270399
-618.1294753
-480.7474148
-644.1576063
-693.5941025
-588.2690623
-703.2036977
-719.0644488
-642.3481865
755.1985061
789.4380644
743.8607802
803.0985782
852.2919937
773.3952369
871.9666509
942.0438862
795.127728
968.5928307
1042.441601
755.9806164
1048.878237
769.1336686
474.459059
638.9697887
-302.2853436
-87.05913606
-491.87219
-792.7558799
-494.6342695
-834.2314186
-883.9838444
-674.5409618
-886.5274099
-873.7763733
-734.5515106
-865.8884714
-837.7615088
-747.4376999
785.280703
834.6369014
802.8539423
854.7842809
930.4886631
875.9503953
962.4603175
1090.882098
988.5616529
1150.229151
1484.883938
1160.829326
1390.47576
1544.947443
1163.622604
988.0136273
-122.7500333
121.6147882
-964.7491918
-1027.261252
-803.4334873
-1408.015041
-1241.220127
-967.1981676
-1194.170746
-1075.167341
-924.0414408
-1041.887729
-957.1305051
-868.3909307
796.4505956
851.6106069
841.678754
873.6828727
953.1714346