/*--------------------------------*- C++ -*----------------------------------*\
| =========                 |                                                 |
| \\      /  F ield         | OpenFOAM: The Open Source CFD Toolbox           |
|  \\    /   O peration     | Version:  v1912                                 |
|   \\  /    A nd           | Website:  www.openfoam.com                      |
|    \\/     M anipulation  |                                                 |
\*---------------------------------------------------------------------------*/
FoamFile
{
    version     2.0;
    format      ascii;
    class       surfaceScalarField;
    location    "0.39";
    object      phi;
}
// * * * * * * * * * * * * * * * * * * * * * * * * * * * * * * * * * * * * * //

dimensions      [0 3 -1 0 0 0 0];
oriented        oriented;


internalField   nonuniform List<scalar> 
25162
(
0.0004335859297
0.9162164141
0.0005328870899
0.9166006988
0.0006174466116
0.9165654405
0.0002972001322
0.9166029327
0.0003673137784
0.4583401345
0.0003070655858
0.4583119354
0.000372329953
-0.0003842653856
-0.0004702206326
0.4582904807
0.0005297399524
-0.0005857579088
0.4582412576
0.0006795003253
-0.0007809396615
0.4582208784
0.0008900612182
-0.001015452399
0.4582007416
0.001149710816
-0.001284009019
0.4582021177
0.001416891315
-0.001546270869
0.4582299265
0.001647844359
-0.001726337489
0.4582882151
0.001771622368
-0.001778262876
0.4583653521
0.001747910774
-0.001686432716
0.458422863
0.00159356974
-0.001487075874
0.4584530339
0.001369041947
-0.001236057772
0.4584567458
0.001114312006
-0.0009925320725
0.4584627671
0.0008447649277
-0.0007949667121
0.4584373795
0.0007075872323
-0.00058346135
0.4584529534
0.0004805079883
-0.001794894685
0.9185877051
0.0002865031538
-0.0004293135417
-0.001116630533
0.9186717359
-1.838805919e-05
0.9157517575
0.9137816119
0.001193026894
0.9150233872
0.001881525284
0.9159122005
0.002117499976
0.9163294658
0.0005825280751
0.9171547473
0.0009831572909
0.4580933006
0.0006928868902
-0.4582036594
-0.4581961877
-0.0008434823887
0.4580072569
0.001032413192
-0.4580601572
-0.001266391551
0.4577782745
0.0007282726858
0.0008200015574
-0.2289741031
-0.0008834290067
0.2288994799
0.0009580522171
-0.001280369149
-0.2289185211
0.2288204258
0.001378464381
-0.001783187793
-0.2288729379
0.2287445226
0.001911603097
-0.00237240927
-0.2288689808
0.2287265821
0.002514807924
-0.002947067851
-0.2289248819
0.2287958846
0.003076132269
-0.00334971897
-0.2290538096
0.2289717049
0.003431712323
-0.00349413625
-0.2292086586
0.2292046521
0.003498142794
-0.003300007342
-0.2293107202
0.2293936481
0.003217079491
-0.002866706552
-0.2293703749
0.2295045156
0.002732565825
-0.002327268693
-0.2293769056
0.2295243043
0.002179869976
-0.001801441619
-0.2293495403
0.2294821176
0.001668864403
-0.4588022545
-0.002491748349
0.4601409848
0.001153018049
7.579688547e-05
0.4608272102
-0.001697065956
-0.4592059411
-0.001936297274
0.9179205023
0.0007232654767
0.001880234597
-0.001173510199
0.9179089488
0.0002716703391
0.914306577
0.9140532823
0.001515283495
0.9135081037
0.004049292069
0.9133781919
0.006826055205
0.9135527027
0.00276340424
0.9149986423
0.006218756025
-0.4580747289
0.4579195668
0.002918566363
-0.4578515439
-0.002874383783
0.4585347496
0.002191178015
-0.457394392
-0.002231192275
0.4572154245
0.001166823316
0.001243336414
-0.2285377851
-0.001445788812
0.2283807301
0.001602843829
-0.2283246231
-0.002169096943
0.2281037088
0.002390011261
-0.2281339264
-0.003112730254
0.2280409861
0.003211220952
-0.2283618534
-0.003504064501
0.2282477724
0.003642528703
-0.2284718839
-0.004149522118
0.2283133954
0.004326006527
-0.228655869
-0.004840626076
0.2285112399
0.004982552587
-0.2290142584
-0.005300313781
0.2289352195
0.00535792873
-0.2295666613
-0.005448394676
0.2295422182
0.005450638304
-0.2301158085
-0.005351172523
0.2303552079
0.005110646311
-0.2301530357
-0.004269663714
0.2304349843
0.003987715152
-0.002915059567
-0.23008889
0.2307110607
0.002292888926
-0.4626414868
0.0008957544546
0.4613152519
0.0004304804256
-0.4598344064
-0.0007022767299
0.4597146311
0.000822051982
-0.0002715966154
0.9194318889
-0.0007745543428
-0.0004652356252
0.001370026724
0.9162673254
0.0006416529719
0.9150349507
0.9146949353
0.0005264812942
0.9129816224
0.00113852565
0.9127661475
0.002328208401
0.9123630199
0.003118911681
0.9121144997
0.002093439249
-0.4571895417
0.4567891836
0.003519269824
-0.4601207748
-0.004688685705
0.4571230061
0.007686454418
-0.4587542736
-0.008881941393
0.4603886303
0.001943570502
0.00530401418
-0.2278042752
-0.001881119445
0.227628603
0.002056791576
-0.2274158002
-0.002760545211
0.2274227347
0.002767068396
-0.2278562867
-0.002974378084
0.2277612598
0.003129563357
-0.227724247
-0.003876682622
0.2274405349
0.004224563098
-0.2275495861
-0.005461187738
0.2271571132
0.005889835523
-0.2279182193
-0.007002693651
0.2276565698
0.007259638576
-0.2287329812
-0.007590592122
0.228719443
0.007559957967
-0.229587093
-0.007206360909
0.2296812708
0.007045591509
-0.230514805
-0.006557045232
0.2306279386
0.006391244408
-0.2338189913
-0.001199631598
0.237597805
-0.002581389396
-0.002893655286
-0.2313979374
0.2313434713
0.002948121342
-0.4611209896
-0.004487920511
0.4621251002
0.003483809939
-0.4603117907
-0.002443866183
0.4611615501
0.001594106766
0.002494015989
0.9190927716
-0.001161182763
-0.0009937159615
0.001809518852
0.9169518226
0.0008405268558
0.9160039427
0.9155354621
0.0001607874349
0.912820835
0.0003638414079
0.9125630936
0.0007040103347
0.912022851
0.001260302485
0.911101933
0.0004562746169
-0.4565459003
0.4557831544
0.002023048389
-0.4557501527
-0.002405866617
0.4551747955
0.002981223809
-0.4543812591
-0.003775302783
0.4536962039
0.002370526517
0.00208983144
-0.2283576883
-0.004150630859
0.2265687067
0.005940395057
-0.22824706
-0.008138750972
0.23046257
0.005996183948
-0.2272871046
-0.002874204897
0.2271037192
0.003164638501
-0.2260449191
-0.004887364436
0.2253386792
0.005680308678
-0.2252732964
-0.008510155436
0.224314761
0.009509154779
-0.2265854776
-0.01199151077
0.2260922634
0.01248006143
-0.2290504518
-0.01256559581
0.2295286452
0.01203645588
-0.2305162915
-0.009060697159
0.2312224891
0.008259804975
-0.2389624312
0.001426813053
0.2351612775
0.002274048937
-0.2319232229
-0.005421864685
0.2320113491
0.005276555791
-0.0045126535
-0.2325100956
0.2329696868
0.004053062278
-0.4635626611
-0.005315527646
0.4649242097
0.003953978975
-0.4619491402
-0.003006363938
0.4627557928
0.002199711374
0.003301301524
0.9206679698
-0.002812238247
-0.002064261463
0.00182116845
0.9184319557
0.0008312274876
0.9169938837
0.9163666896
-8.728686801e-05
0.9129081218
-8.638932497e-05
0.912562196
0.0001376526007
0.9117988091
0.0002732609344
0.9106745008
0.0002918238595
-0.4549279702
0.4546419195
0.000559311601
-0.4547169343
-0.001490003489
0.4539969843
0.002209953491
-0.4529613246
-0.002697644527
0.4520255086
0.00178447303
0.001848987569
-0.2263227826
-0.001980223478
0.2264313081
0.001909407873
-0.2269980801
-0.002018910011
0.226935612
0.002198843596
-0.227472787
-0.005376000444
0.2253848213
0.007593788716
-0.2237409933
-0.01198001797
0.2244621238
0.01133589767
-0.2203535118
-0.01564896714
0.2198003059
0.01622128744
-0.2238890183
-0.0217136299
0.2229208679
0.02268076912
-0.2336363036
-0.01917667066
0.2343536301
0.01843010628
-0.2406175032
-0.007913055065
0.2385865196
0.009850466118
-0.2329774793
-0.009253145194
0.2338243937
0.008276529259
-0.2327954158
-0.006074986277
0.2332677945
0.005496591056
-0.003905831843
-0.2344579415
0.2347063333
0.003642725355
-0.4660948442
-0.00566018154
0.4672881992
0.004466826519
-0.4631754375
-0.003602212467
0.4635554208
0.003222229184
0.002800912121
0.9226787526
-0.002332255729
-0.002479439225
0.001544375031
0.9196884927
0.0006395407705
0.917898718
0.9170062304
-0.000460673834
0.9133687957
-0.0007981446647
0.9128996668
-0.0009957781398
0.9119964425
2.738666489e-05
0.9103306993
-0.0006793633767
-0.4545241871
0.454233362
0.0003182118467
-0.4529867172
-0.0005363173872
0.4526458945
0.000877140071
-0.4517167722
-0.001807533375
0.4513817368
0.001024043304
0.001118805693
-0.2265814712
-0.0009416366864
0.2266851936
0.0009077288863
-0.2272031882
-0.001105550305
0.2267158106
0.001740033621
-0.2230613072
-0.002697120602
0.2226086921
0.0032784801
-0.2169776295
-0.007006678993
0.2144813916
0.009547189312
-0.2139907919
-0.02281610002
0.109026601
0.1035038811
0.0101381463
0.01413826354
-0.01783728318
-0.1088064212
0.1081873568
0.01845634763
-0.01475542632
-0.2441882
0.02848684207
-0.01505215176
0.1222805393
0.1232283967
-0.02066819355
-0.2415920458
0.2445873533
0.01761034645
-0.2376386631
-0.01036426164
0.2391622103
0.008703059703
-0.2348333746
-0.005869528324
0.2353287778
0.005241827908
-0.003916846584
-0.235070853
0.2353223217
0.003614268654
-0.4684908232
-0.004990194204
0.4691772437
0.004303773692
-0.4643996489
-0.003249133858
0.4652536081
0.002395174617
0.001699307496
0.9241489518
-0.001500027389
-0.001669479292
0.0008076266222
0.9205801736
0.0003044714854
0.9184018731
0.9173107019
-0.0008452283175
0.914214024
-0.001639911747
0.9136943503
-0.002243942553
0.9126004733
-0.001134744737
0.9108769011
-0.001655399594
-0.454200168
0.4541994277
-0.001134004513
-0.45249742
0.001182908543
0.4524022608
-0.001087749353
-0.4501902416
0.0009334101097
0.4500359145
-0.0003100061941
-0.000462247964
-0.2269298002
-0.0001454017858
0.226982491
0.0001797257989
-0.2267152653
-0.0001662343557
0.2270054415
2.876264382e-05
-0.2216196265
-0.0002695120204
0.221475863
0.0005348321618
-0.2111175012
-0.001633433132
0.2107550136
0.002010370741
-0.09884309083
-0.001608065727
0.09906215428
0.001389002272
-0.0232331988
-0.1325186752
0.1349555532
0.02079632083
-0.02109842902
-0.2549426984
0.2583929622
0.01761514548
-0.2434392536
-0.01062141784
0.2448697139
0.009059702869
-0.2373340063
-0.005794861754
0.2379748397
0.005005501008
-0.002848051239
-0.2362327799
0.2364437295
0.002564738745
-0.4702554749
-0.003231520282
0.471155799
0.002331196135
-0.4659487311
-0.001687884744
0.4665501605
0.001086455365
-0.0001319806415
0.9249001916
-7.470439309e-05
-0.000544554754
-0.0003086484233
0.9207568414
-0.0002039675931
0.9182971923
0.9171067343
-0.001218744606
0.9154327686
-0.00236442573
0.9148400314
-0.003576532408
0.91381258
-0.002061905117
0.9119317504
-0.002569476603
-0.4543772717
0.4545458668
-0.002230500302
-0.4524686171
0.00242670868
0.4526503732
-0.002608464835
-0.4500034871
0.002771040514
0.4502475209
-0.001403675093
-0.00159581531
-0.2277071947
0.00179450985
0.2278969774
-0.00189112711
-0.2274482755
0.002176411404
0.2276824399
-0.002258014184
-0.2216116962
0.002500536025
0.2218332768
-0.002607439156
-0.2113072657
0.003196694815
0.2117239774
-0.003607236176
-0.1025573501
0.003061632877
0.1029386903
-0.003442973072
-0.01051897273
-0.1478141251
0.1486044333
0.00972866448
-0.009927100828
-0.266629003
0.2682515454
0.008286257365
-0.2484811342
-0.004692930751
0.2491918102
0.003858424134
-0.2392093237
-0.002036081039
0.2393922422
0.001702496542
-0.000967026761
-0.2369972336
0.2370726457
0.0008100154783
-0.4723307774
-0.0006468895373
0.4733175174
-0.000339850503
-0.4668686748
0.0008024838707
0.4670720358
-0.001005844836
-0.002349224794
0.9244803437
0.001583001816
0.001186070857
-0.001684857262
0.9200924739
-0.0008826648802
0.9174949999
0.9162240694
-0.001554746992
0.9169875156
-0.003214761318
0.9165000457
-0.004798485198
0.9153963039
-0.002980038474
0.9136101828
-0.003496879025
-0.4548973164
0.4552431953
-0.003325917293
-0.452897983
0.003723154489
0.4533576164
-0.004182787963
-0.4506530482
0.004608874276
0.451348255
-0.002463949564
-0.002817289826
-0.2286314596
0.003070265017
0.2289337192
-0.003276743306
-0.2286185189
0.003939652852
0.2289982218
-0.004168387702
-0.2227694943
0.004865939074
0.2231346322
-0.005121245663
-0.2129908762
0.006000275498
0.2133744875
-0.006380501274
-0.1042824794
0.003807580684
0.1043852633
-0.001946372391
-0.001963992232
0.005579225676
-0.1480370534
0.1473118892
-0.004854061397
0.005261841343
-0.269041385
0.268140135
-0.004379897426
-0.2494011144
0.00283035889
0.2489898183
-0.002541992962
-0.2393878281
0.001989753699
0.2391229398
-0.001873780806
0.001608993581
-0.2370959897
0.2369732535
-0.001566513868
-0.4733579672
0.003227929719
0.4729609808
-0.002830943303
-0.4669413188
0.002775350172
0.4673393328
-0.003173364176
-0.004834787657
0.9228277069
0.003517143419
0.002970281013
-0.003188737022
0.9184464232
-0.001620902286
0.9159271652
0.9146031671
-0.001978232552
0.9189657482
-0.003936931801
0.918458745
-0.006017430644
0.9174768028
-0.003872148274
0.9158421275
-0.004377227157
-0.4557608294
0.4562740094
-0.004385328348
-0.4538747949
0.005018087262
0.4544431128
-0.005586405147
-0.4524045049
0.006249098507
0.4537221348
-0.003673717434
-0.003860107268
-0.2300062113
0.004225491111
0.2304102173
-0.00453055265
-0.2302864276
0.005488488915
0.2307592542
-0.005811710433
-0.2243291927
0.006790934469
0.2247583962
-0.007115379871
-0.2144477393
0.00806628507
0.214797664
-0.008414972653
-0.1049431793
0.004617215224
0.1049915182
-0.002321394685
-0.002344159499
0.01492024013
-0.1402790877
0.1391170485
-0.01375820093
0.01681846252
-0.2627834257
0.2602555567
-0.01432325472
-0.2461591772
0.0088173691
0.2452981635
-0.008081239229
-0.2377156978
0.00585779836
0.2370302034
-0.0053166605
0.004279650742
-0.2364867468
0.2362285502
-0.004091021488
-0.4722415795
0.006970405162
0.4712357163
-0.005964542
-0.4676171988
0.005063979128
0.4668011104
-0.004247890731
-0.007148908761
0.9201440738
0.005098880691
0.00473366118
-0.004659025566
0.91595654
-0.002295018128
0.9135631577
0.912308149
-0.002365960476
0.9213317087
-0.004736905925
0.9208296905
-0.007212396844
0.9199522937
-0.004685639922
0.9183293146
-0.005013943924
-0.4569294226
0.45757488
-0.005331097384
-0.4552026641
0.006074892329
0.4559972295
-0.006869457729
-0.4550554609
0.007728649994
0.4564277782
-0.004533299914
-0.004522599616
-0.2317480074
0.005254136596
0.2322415606
-0.005645526236
-0.2322978189
0.006834799455
0.2328503801
-0.00723947333
-0.2261442075
0.008426997022
0.2266370206
-0.008820671763
-0.2159573316
0.009970831688
0.216413239
-0.01042663075
-0.1053064236
0.005726329098
0.1053636235
-0.002873790174
-0.002909738839
0.01846828872
-0.1311043047
0.1299278891
-0.01729187314
0.02230255931
-0.2521766927
0.2493658006
-0.01954469304
-0.2408923667
0.01377427326
0.2386274281
-0.01163991009
-0.2344330468
0.008000584518
0.2333734204
-0.007077387668
0.006305301857
-0.2351595747
0.2347538792
-0.005952443916
-0.4699877233
0.01011882284
0.4685049916
-0.008636091143
-0.4659283052
0.007343526985
0.4648293023
-0.006244524046
-0.00923721476
0.9181332322
0.005879162358
0.00536889409
-0.005950898922
0.9126702242
-0.002888659712
0.9105009185
0.9094194893
-0.006392814746
0.9277245234
-0.01294552638
0.9273824021
-0.01956426406
0.9265710314
-0.005600466569
0.9253183937
-0.02095287662
-0.4583574107
0.4591710461
-0.006414101951
-0.4568174542
0.007295882412
0.4578133896
-0.008291817753
-0.458219424
0.009256596128
0.4597238216
-0.005356792577
-0.005333074004
-0.2337026693
0.006497827532
0.2343947418
-0.007085066661
-0.2345823434
0.008070103796
0.2350742483
-0.008417101759
-0.2282047972
0.009461444881
0.2290484502
-0.01021052463
-0.2180981416
0.0117012031
0.2187777817
-0.006149290079
-0.006231553147
-0.05309119614
0.003560190416
0.05312120873
-0.003590203005
-0.05791823319
0.006662267162
0.05744254323
-0.01300435155
0.006817774343
0.01724116059
-0.1228585188
0.2424229424
-0.03092592665
0.01691532648
-0.122794984
-0.2415732836
0.02222773518
0.2383655798
-0.0190958813
-0.2332001175
0.01413128865
0.2316693481
-0.01273956488
-0.2307611845
0.00994152676
0.2299807994
-0.009283128446
0.007840238085
-0.2338316957
0.2334303594
-0.007466777588
-0.466702484
0.01222877788
0.4649038815
-0.01043017538
-0.4636941809
0.009084416263
0.4624493601
-0.00783959536
-0.01088389843
0.9150079292
0.007217235326
0.006791966076
-0.00701132376
0.9087976496
-0.003452314968
0.9069419098
0.9059671743
-0.002827245967
0.9305517694
-0.005731770444
0.9302869266
-0.008794637596
0.9296338986
-0.005981501554
0.928633713
-0.006128455283
-0.4619911719
0.4628462521
-0.006836581715
-0.4606072285
0.007794545391
0.4616335653
-0.008820882118
-0.4620373635
0.009931446265
0.4628028387
-0.005355800905
-0.005257335703
-0.2362435673
0.005800251615
0.2366341121
-0.006080178592
-0.2370859375
0.007161786963
0.2376964859
-0.007628397594
-0.230590464
0.009451997481
0.231453362
-0.01022899639
-0.2216354905
0.01315317587
0.2225525209
-0.007020539927
-0.00704966629
-0.05457422637
0.00890043671
0.1095394639
-0.05449451709
-0.004658072721
-0.00471308447
-0.1116476789
0.009412905316
0.111592436
-0.01852737658
0.009169714138
0.03080994661
-0.2360130141
0.2338672771
-0.02866751661
-0.2311993721
0.01777130447
0.2296197757
-0.01628695152
-0.2283939091
0.01301407032
0.2269008175
-0.01165702187
-0.2280445407
0.008917141984
0.2283326893
-0.009303355061
0.008371268732
-0.2328188372
0.2324512918
-0.008007884443
-0.4633564468
0.01302202015
0.4620008698
-0.01166644316
-0.461186578
0.01034477683
0.4596865803
-0.008844779078
-0.0103132129
0.9110481833
0.007063071184
0.007209887654
-0.007687432692
0.9061718694
-0.003760715638
0.9030151927
0.9022064587
-0.002977175023
0.9335289444
-0.006032216439
0.933341968
-0.009244999624
0.9328466818
-0.006293662496
0.9320858184
-0.006403442591
-0.4637913462
0.4647173048
-0.0072196211
-0.462683426
0.008223830715
0.4637485296
-0.009288934324
-0.4630885537
0.01043614477
0.4632356227
-0.005241774778
-0.005308827654
-0.2372207433
0.004909705527
0.2371997011
-0.004794930618
-0.2392594529
0.004876664579
0.2396335381
-0.005114281589
-0.2344816464
0.006776593939
0.2355021374
-0.007698310742
-0.2265119161
0.01175892017
0.2283446025
-0.01357115035
-0.1124604709
0.01772497792
0.2233776213
-0.01705095138
-0.111591177
-0.2258569256
0.02307560564
0.2264619364
-0.02368061642
-0.2284972305
0.02150688985
0.227053101
-0.02010005507
-0.2244823399
0.01623408481
0.2233131417
-0.01517767497
-0.2226955056
0.01282041923
0.2220231033
-0.01228182656
-0.2267250068
0.01120801297
0.225815085
-0.01036849339
0.01005596939
-0.232221185
0.2299677341
-0.007802518496
-0.4608366078
0.01470950457
0.4580133091
-0.01188620595
-0.4581551329
0.0106749517
0.4563686144
-0.008888433156
-0.01069226166
0.907179997
0.007357179775
0.007203268249
-0.007735638216
0.9032152459
-0.0039629265
0.899242481
0.8982435322
-0.003053627813
0.9365825722
-0.006179428945
0.9364677692
-0.009450025029
0.9361172778
-0.006440770074
0.9355774921
-0.00650092859
-0.4656655373
0.4666132448
-0.007388477599
-0.4648134964
0.008396519184
0.465872006
-0.009455028745
-0.4638065875
0.01058539148
0.4650036726
-0.005882052401
-0.005900303516
-0.2364295981
0.004873023149
0.2359402212
-0.004326560011
-0.240080925
0.003021833233
0.2399613597
-0.002789497713
-0.2380098057
0.003028257636
0.2385541094
-0.0034685029
-0.2328694854
0.005824958591
0.2339663373
-0.006866704771
-0.2227641185
0.009781344811
0.2229137219
-0.009919216409
-0.2263802672
0.01260002218
0.2263209875
-0.01256016859
-0.223970406
0.0113581418
0.2233616799
-0.01081620427
-0.2209619634
0.009465809621
0.2205895868
-0.009203917618
-0.2210757787
0.009082113504
0.2211231077
-0.009234768259
-0.2257672127
0.01002090354
0.2260248232
-0.01031583925
0.00953886547
-0.2282769735
0.2277602806
-0.009022172529
-0.4575665514
0.01512966711
0.4551464717
-0.01270958745
-0.4537473996
0.009555479649
0.4523993724
-0.00820745249
-0.009899171954
0.9018307658
0.007890306061
0.007358097059
-0.005328236618
0.8986443106
-0.004022790857
0.8979370353
0.8942207413
-0.003062277908
0.9396448502
-0.006187644031
0.9395931353
-0.009436618082
0.9393662519
-0.006441114833
0.9390144943
-0.006432505506
-0.4675405111
0.4684705081
-0.007371111841
-0.4669105106
0.008348300062
0.4679255617
-0.009363351259
-0.466183768
0.01043453742
0.4673199384
-0.005805619896
-0.005765087914
-0.233877611
0.006400459703
0.2332700277
-0.005785150653
-0.2387293903
0.003246899134
0.2380478051
-0.002496612336
-0.2390912024
0.0008879934753
0.2389059909
-0.0006185722856
-0.235998287
0.0006285912025
0.2362841913
-0.0008554682474
-0.2237985077
0.001676362683
0.224162042
-0.002022644143
-0.2265169851
0.003352131062
0.2267011157
-0.003562615376
-0.2227227704
0.004099849048
0.2228689225
-0.004312140955
-0.2206926748
0.005318381375
0.2211010011
-0.005810776536
-0.2222713238
0.007714020445
0.2229404912
-0.008441105285
-0.2269739767
0.01045937787
0.226597212
-0.01008296276
0.00880389502
-0.2263837525
0.2259666817
-0.008386824254
-0.4517243113
0.01427573148
0.4502528667
-0.01280428687
-0.4510548422
0.0113926573
0.4496889021
-0.01002671713
-0.009124969229
0.8955672096
0.008594535281
0.006793990183
-0.004957536655
0.894476878
-0.003669856971
0.8966493556
0.8905508844
-0.003014079795
0.94265893
-0.006080146073
0.9426592016
-0.009244330277
0.9425304361
-0.006312329474
0.9423268237
-0.006244330228
-0.4693648115
0.4702508608
-0.007198378716
-0.4689071859
0.008121082609
0.4698549641
-0.009068860809
-0.4684059425
0.0100555817
0.4694369094
-0.005577679839
-0.005508868758
-0.2339735833
0.006122508775
0.2342535621
-0.006402487611
-0.235422936
0.006641186143
0.2344408519
-0.005646655199
-0.2374363706
0.002897503665
0.2367169764
-0.002135612336
-0.236183628
0.0004955814833
0.2358973708
-0.0001704474954
-0.2251055786
-0.0002849863182
0.2253076334
9.603802504e-05
-0.2275485681
0.000807487121
0.2279042388
-0.001181851111
-0.2241531907
0.002783583524
0.2247915045
-0.003462942462
-0.2231819848
0.005912440704
0.2240728145
-0.006841438773
-0.2254963804
0.009754682348
0.2259413653
-0.0102038356
-0.2254728307
0.009290124361
0.2251489824
-0.008966276073
0.007976773655
-0.2248626345
0.224527799
-0.00764193813
-0.448891031
0.0131828788
0.4476364053
-0.01192825304
-0.4484280631
0.01069627076
0.4472123499
-0.009480557525
-0.01205153555
0.8912163015
0.008096304687
0.008306138969
-0.007918140884
0.8903434834
-0.001089311869
0.8898205266
0.8894615725
-0.002920339761
0.9455792697
-0.005880554224
0.9456194161
-0.00891164763
0.9455615295
-0.006080002687
0.9454639466
-0.005968767818
-0.4710961929
0.4719251677
-0.006908977543
-0.4707618551
0.007764099395
0.4716299976
-0.008632241977
-0.4704108659
0.009523864869
0.4713277401
-0.005263354985
-0.005177384084
-0.2350326454
0.005739256798
0.2352730646
-0.00597967598
-0.2347523834
0.006704086618
0.2349929662
-0.006944669477
-0.2343059011
0.007656414373
0.2344310722
-0.007781042198
-0.2345979513
0.006230341783
0.2340966881
-0.005720595317
-0.2253862644
0.004674666103
0.2252015918
-0.004485718736
-0.229064613
0.005473696968
0.2294514309
-0.005866080296
-0.2269958684
0.007648416047
0.2277418644
-0.008401478449
-0.2264570409
0.009700227864
0.2263259959
-0.009569182969
-0.2252275192
0.009059010985
0.2250243133
-0.008855805079
-0.2243017788
0.008172275837
0.2240551835
-0.007925680586
0.007151102079
-0.2236434114
0.2233720697
-0.006879760312
-0.4464818722
0.01200368595
0.4454204729
-0.01094228671
-0.446099838
0.009878592374
0.4450314658
-0.008810220086
-0.01130478696
0.8872482551
0.007511858784
0.007760974583
-0.007465672315
0.8865043687
-0.003708087727
0.886062942
0.8857534848
-0.002792822554
0.9483720923
-0.005613623614
0.9484402171
-0.008479533819
0.9484274397
-0.005775933407
0.9483966706
-0.005636324381
-0.4727114832
0.4734766214
-0.006541071626
-0.4724546952
0.007323177417
0.4732396594
-0.008108141543
-0.4721900419
0.00890366858
0.4729970517
-0.004898747517
-0.004811930923
-0.2359381826
0.005312464699
0.2361428737
-0.00551715584
-0.2356441592
0.006120401839
0.2358398367
-0.006316079357
-0.2350420619
0.006880328628
0.2352210349
-0.007059301616
-0.2341663044
0.007556444594
0.2343119683
-0.007702108558
-0.2245667807
0.007816224494
0.2244508281
-0.007700271845
-0.2299938339
0.008498181908
0.2300297764
-0.008534124368
-0.2279333319
0.008553052871
0.2279050431
-0.008524764034
-0.225989574
0.008333672669
0.2258926925
-0.008236791203
-0.2244970113
0.007857547381
0.2243441992
-0.007704735223
-0.2234031393
0.007181926721
0.2232110728
-0.006989860237
0.006373971773
-0.2226592134
0.2224376418
-0.006152400165
-0.4444439605
0.0108370442
0.4435445661
-0.009937649829
-0.444058132
0.009021848767
0.4431236047
-0.008087321472
-0.01046804293
0.8836680912
0.00689431762
0.007153889138
-0.006945384839
0.8829817107
-0.003458882545
0.8825764397
0.8822946022
-0.002642984295
0.9510150766
-0.00530323285
0.9511004657
-0.007985798538
0.9511100054
-0.005427757247
0.9511116675
-0.00527303823
-0.4741994462
0.4748999567
-0.006128267685
-0.4739818598
0.006837591939
0.4746861426
-0.007541874756
-0.4737514356
0.008246916584
0.4744562392
-0.004513940919
-0.004437779273
-0.2367085562
0.004876181779
0.2368826712
-0.005050296859
-0.236370673
0.005553619239
0.2365307117
-0.005713657962
-0.235696369
0.006165838469
0.2358368465
-0.006306315959
-0.2346880243
0.006688555077
0.234795509
-0.0067960398
-0.2242257143
0.006815666678
0.2241859591
-0.006775911504
-0.2301109129
0.007383992996
0.2301305677
-0.007403647791
-0.2278247104
0.007400223513
0.2277991836
-0.007374696699
-0.2256367542
0.007221094896
0.225561033
-0.007145373739
-0.2239402511
0.006850440215
0.2238210247
-0.006731213758
-0.2226974095
0.006319360391
0.2225443143
-0.006166265247
0.005668257494
-0.2218576813
0.2216756871
-0.005486263257
-0.4427146
0.009736201761
0.4419483632
-0.008969964972
-0.4422743132
0.008180107682
0.441457625
-0.007363419445
-0.009604306498
0.8804562569
0.006279736005
0.006536404847
-0.006397522069
0.8797749262
-0.003193377039
0.8793722947
0.8791012252
-0.002480341888
0.9534954185
-0.004968802245
0.953588926
-0.007460679223
0.9536018824
-0.005056643688
0.9536070331
-0.004899401081
-0.4755588623
0.4761974171
-0.0056951985
-0.4753503683
0.006335394729
0.4759797257
-0.006964752157
-0.4751144538
0.00758816255
0.4757292665
-0.004133735275
-0.004069240037
-0.2373640935
0.004450939914
0.2375125044
-0.0045993508
-0.2369666635
0.005021459956
0.2370986665
-0.005153463019
-0.2362131836
0.005520432185
0.2363253821
-0.005632630655
-0.2350728821
0.005932211707
0.2351520506
-0.006011380169
-0.2241476194
0.005986160458
0.2241567674
-0.005995308441
-0.230171681
0.006462276227
0.2301802587
-0.006470853899
-0.227725593
0.006453296438
0.2277019273
-0.00642963077
-0.2253565335
0.006300603294
0.2252948122
-0.00623888198
-0.2235007309
0.006000932695
0.2234047381
-0.005904939923
-0.2221302811
0.005571817031
0.2220055377
-0.005447073562
0.005037111821
-0.221196882
0.2210451993
-0.004885429104
-0.4412397807
0.008721145615
0.4405837044
-0.00806506928
-0.4407159559
0.007381326188
0.4400012598
-0.006666630099
-0.008754481635
0.8775839224
0.005691984749
0.005934831396
-0.005850826816
0.8768712714
-0.002926297893
0.8764477658
0.8761749273
-0.002313577828
0.9558089963
-0.004627792222
0.9559031404
-0.00693079052
0.9559048807
-0.004684427003
0.9558911685
-0.004530498997
-0.476795037
0.4773751178
-0.005264507824
-0.4765727839
0.005841027583
0.4771346202
-0.006402863879
-0.4763038557
0.006954238513
0.4768410567
-0.003773135256
-0.003718304271
-0.2379237045
0.004051405779
0.238050842
-0.004178543236
-0.2374601064
0.004535245587
0.2375701278
-0.004645266989
-0.2366287127
0.004947296543
0.236719986
-0.005038569798
-0.2353561737
0.005277303958
0.235414397
-0.005335527288
-0.224233274
0.005291523836
0.2242720673
-0.005330317153
-0.2301935521
0.005693781026
0.2301944119
-0.005694640839
-0.2276330814
0.005667562313
0.2276107856
-0.005645266572
-0.2251252999
0.005533440684
0.225073356
-0.005481496744
-0.2231432584
0.005283689175
0.2230638589
-0.005204289731
-0.2216646686
0.004928438932
0.2215609424
-0.004824712746
0.004481381031
-0.2206440127
0.2205157994
-0.004353167782
-0.4399747484
0.007806560808
0.4394087662
-0.007240578608
-0.4393518028
0.006645412658
0.4387242453
-0.006017855138
-0.007948146087
0.8750172068
0.005145332216
0.005369529397
-0.005326522193
0.8742496475
-0.002668607618
0.8737898512
0.8735063197
-0.002148949582
0.9579579459
-0.004292627416
0.9580468183
-0.006414265401
0.9580265186
-0.004323295319
0.9579774683
-0.004177269838
-0.4779160372
0.478442297
-0.004849555152
-0.4776641754
0.005368694535
0.478166288
-0.005870807227
-0.4773436712
0.006359809703
0.4778152254
-0.003441007627
-0.003390356316
-0.2384039979
0.003684218767
0.2385135339
-0.003793754771
-0.2378729879
0.004097730814
0.2379657168
-0.004190459693
-0.2369689336
0.004442705999
0.237044528
-0.00451830039
-0.2355645373
0.004711237602
0.2356074062
-0.00475410655
-0.2244182786
0.004705200765
0.2244750464
-0.004761968552
-0.230188234
0.005047607528
0.2301836467
-0.005043020178
-0.2275456256
0.005009424298
0.2275244478
-0.004988246483
-0.2249288957
0.00488915423
0.224884105
-0.004844363497
-0.2228450965
0.004675948676
0.222777926
-0.004608778227
-0.2212749549
0.004375678204
0.2211871449
-0.004287868251
0.003995821627
-0.2201749238
0.2200651341
-0.003886031881
-0.4388813301
0.00699270561
0.4383891257
-0.006500501279
-0.4381532186
0.005979251253
0.4375997874
-0.005425820034
-0.007201572975
0.8727214321
0.004647293113
0.004850054575
-0.004836937347
0.8718850119
-0.002426814463
0.8713797283
0.8710795052
-0.001991317625
0.9599492635
-0.003972847252
0.9600283479
-0.005924701563
0.959978373
-0.003982204715
0.9598824809
-0.003847509422
-0.4789318588
0.4794094504
-0.004459796328
-0.4786400484
0.004927981617
0.4790898984
-0.005377831572
-0.4782580486
0.005812874042
0.478674367
-0.003137545949
-0.003091646494
-0.2388186596
0.003350455827
0.2389136869
-0.003445483121
-0.2382223436
0.003706846583
0.2383013977
-0.003785900625
-0.2372523189
0.003999644617
0.2373159202
-0.00406324595
-0.2357180908
0.004221109763
0.2357497642
-0.004252783184
-0.2246628158
0.004206236881
0.2247299616
-0.00427338273
-0.2301637182
0.004499317545
0.2301552961
-0.004490895497
-0.2274624369
0.004452932526
0.2274422416
-0.004432737225
-0.2247583613
0.004343518463
0.2247190165
-0.004304173638
-0.2225911452
0.004158051201
0.2225332662
-0.004100172228
-0.2209431958
0.003899816906
0.2208677067
-0.003824327792
0.003572504963
-0.219771818
0.2196767227
-0.00347740962
-0.437928555
0.006275904446
0.4374969858
-0.005844335209
-0.4370952334
0.005384800021
0.4366046815
-0.004894248121
-0.006524018896
0.8706630332