/*--------------------------------*- C++ -*----------------------------------*\
| =========                 |                                                 |
| \\      /  F ield         | OpenFOAM: The Open Source CFD Toolbox           |
|  \\    /   O peration     | Version:  v1912                                 |
|   \\  /    A nd           | Website:  www.openfoam.com                      |
|    \\/     M anipulation  |                                                 |
\*---------------------------------------------------------------------------*/
FoamFile
{
    version     2.0;
    format      ascii;
    class       surfaceVectorField;
    location    "0.39";
    object      Uf;
}
// * * * * * * * * * * * * * * * * * * * * * * * * * * * * * * * * * * * * * //

dimensions      [0 1 -1 0 0 0 0];


internalField   nonuniform List<vector> 
25162
(
(99.99905106 0.003914886418 -1.736580081e-21)
(99.99633365 0.003501422241 5.147016786e-21)
(99.99849118 0.009664107202 -1.715115697e-21)
(99.99461829 0.01212895916 1.737015885e-21)
(99.99740338 0.0195286643 -3.420881524e-21)
(99.99076795 0.0264258945 1.032452614e-20)
(99.99874905 0.02267910268 1.057554422e-21)
(99.98394412 0.04997506086 -6.798060332e-21)
(99.9929017 0.05069973774 -1.137164886e-21)
(99.99783854 0.04160299145 1.646162986e-21)
(99.99931673 0.02498645329 8.155811651e-22)
(99.9916876 0.07059088856 1.636815939e-21)
(99.99808973 0.04023200036 8.005205491e-22)
(99.99858892 0.03134194988 -8.253755297e-22)
(99.99761913 0.0514247717 8.004878535e-22)
(99.98698913 0.116021696 1.593828218e-21)
(99.99737237 0.06533843781 0)
(99.99720928 0.0807766865 -2.925401944e-21)
(99.98278029 0.1789625809 -2.925386718e-21)
(99.99680657 0.09919580992 -7.586950488e-22)
(99.9963371 0.1205911811 2.549549742e-21)
(99.9772533 0.2644951199 2.783943808e-21)
(99.99589056 0.1449444398 3.430797721e-22)
(99.99551802 0.1719581362 -2.271817368e-21)
(99.97280734 0.3723567422 3.256899373e-22)
(99.99526453 0.2010581265 -2.317699668e-21)
(99.99519481 0.2313233995 2.502813616e-22)
(99.9719907 0.4927127331 -1.540278219e-21)
(99.99538275 0.2612949272 2.060109612e-21)
(99.995872 0.289256824 1.755537027e-21)
(99.97762029 0.6038278698 -7.726692844e-22)
(99.9966696 0.3132556505 0)
(99.99774637 0.3313745851 0)
(99.98999979 0.6759532757 1.629802541e-22)
(99.99905195 0.3420976373 0)
(100.0004637 0.3447031964 3.95889178e-22)
(100.0056061 0.686030919 -6.919097377e-24)
(100.0017579 0.3387309626 8.661903541e-22)
(100.0028254 0.3254413241 -1.93212222e-22)
(100.018148 0.6333065442 -5.443589528e-22)
(100.0036493 0.3060241673 -9.72835928e-22)
(100.0041958 0.2822221477 7.894421131e-23)
(100.0247791 0.5387769876 1.579714519e-21)
(100.0044727 0.2557339054 4.03796351e-22)
(100.0045052 0.228128096 0)
(100.025565 0.428975603 0)
(100.0043585 0.2007946938 0)
(100.004211 0.1746342146 6.808066445e-22)
(100.0224916 0.3251601118 1.407329905e-21)
(100.0043237 0.1505912134 -3.449011445e-21)
(100.0042215 0.1272518759 -1.28622513e-21)
(100.0191148 0.2332133605 2.801020484e-21)
(100.0036629 0.1068234096 2.800811468e-21)
(100.0027442 0.0895088379 -7.920951803e-22)
(100.0115872 0.1623972924 -4.433970469e-23)
(100.0007381 0.07713112744 1.542152547e-21)
(100.0075423 0.07633410244 -6.915242182e-21)
(100.0424582 0.1866210195 3.983861738e-22)
(100.0150443 0.1664483474 -2.469991633e-21)
(100.002514 0.07684308196 -1.450726635e-21)
(100.0054125 0.04464958721 -8.718068438e-22)
(100.0296323 0.1163264646 1.381472696e-20)
(100.0045549 0.02112363928 -7.0057555e-21)
(100.0221051 0.06254867995 -1.473059187e-20)
(100.019907 0.019848454 1.286482302e-21)
(99.99116491 0.01082964062 8.593840033e-21)
(99.98615576 0.005517242567 2.025994639e-22)
(99.98569214 0.02700079969 1.372756864e-20)
(99.9794615 0.01964483361 -1.201805804e-20)
(99.97545018 0.05452803266 7.113263635e-21)
(99.96500789 0.04418745626 -1.865355557e-20)
(99.96982921 0.08924281656 -1.214952801e-21)
(99.94051031 0.08551940649 3.587037e-20)
(99.94875379 0.1127245326 -7.897272212e-21)
(99.95484211 0.1151991625 -1.692660465e-21)
(99.96549324 0.1150073265 3.332327544e-21)
(99.97895209 0.08129901694 1.658082992e-21)
(99.96639704 0.1378712509 1.619773947e-21)
(99.95549333 0.1501601535 1.647336777e-21)
(99.92511183 0.1987404712 -3.329172861e-21)
(99.94412203 0.1942950039 -1.793845769e-23)
(99.94759293 0.2258691031 1.594078349e-21)
(99.93058864 0.2489479533 -1.469320786e-23)
(99.88596159 0.3259212026 0)
(99.92336625 0.2934497698 0)
(99.90250915 0.3362434854 -1.979835161e-21)
(99.92722784 0.3412912137 -3.893814083e-21)
(99.91806424 0.3589804203 -4.376034844e-23)
(99.89458938 0.4154158902 -8.757411291e-21)
(99.91105505 0.3938318015 -3.010775591e-21)
(99.88798397 0.5376614107 2.768782599e-23)
(99.90278885 0.5082703018 -1.976834153e-21)
(99.85767532 0.6222800148 -1.08424597e-20)
(99.88172263 0.58584117 -2.641980029e-21)
(99.86174046 0.7706465524 -4.951674789e-21)
(99.88266231 0.7221873405 -4.660219948e-21)
(99.82643754 0.8894367294 4.476156551e-22)
(99.85806262 0.8306854823 -5.940263242e-21)
(99.85097359 1.042090781 -4.777479465e-23)
(99.87848966 0.9662627183 -3.885618335e-21)
(99.81617175 1.198039004 -2.006553594e-21)
(99.85365437 1.108625749 -2.915595503e-21)
(99.87120349 1.30890508 -4.686716389e-21)
(99.90263219 1.198147926 -6.579092357e-21)
(99.84565502 1.495922653 -2.476435741e-21)
(99.88311663 1.369673731 -1.405118338e-21)
(99.929039 1.503196342 -6.193721288e-22)
(99.95747772 1.356041025 -1.252602408e-21)
(99.92085042 1.702999262 1.405062269e-22)
(99.94843929 1.54222217 -2.496115236e-22)
(100.0084627 1.562455258 4.736316983e-23)
(100.0225078 1.387310307 -2.467604994e-22)
(100.0188365 1.748677848 6.998953886e-23)
(100.02792 1.566179822 -6.054483423e-22)
(100.0809646 1.475902855 -2.170145681e-22)
(100.0673921 1.287760741 -1.986418893e-22)
(100.1017102 1.625526621 -7.133030066e-23)
(100.0944487 1.439002578 1.773511594e-21)
(100.1246851 1.277046321 2.065743859e-21)
(100.091563 1.098455635 3.594792724e-21)
(100.1480929 1.386159455 3.591555319e-21)
(100.1293388 1.216443165 4.681003501e-22)
(100.135838 1.029090308 -5.844337688e-21)
(100.0944614 0.8754602567 -5.454616857e-21)
(100.1567885 1.103321609 -1.969468625e-21)
(100.1335145 0.9623238063 -1.940290059e-21)
(100.1226649 0.7876964473 -4.663135791e-21)
(100.0803822 0.6649268484 4.295573304e-22)
(100.1362312 0.8343091287 -1.251716829e-21)
(100.1164423 0.7279052565 5.10509403e-21)
(100.0770376 0.4621908867 -1.192118751e-20)
(100.1225244 0.6284051491 -1.192026125e-20)
(100.1726718 0.6821621443 1.205221968e-20)
(100.1066972 0.5260596069 -2.446445834e-20)
(100.0909052 0.4374535413 1.049408404e-20)
(100.1266796 0.4685045334 -1.503616847e-20)
(100.0747981 0.3618095498 2.141881216e-20)
(100.0559057 0.3191564034 2.38014763e-20)
(100.0712724 0.2226639922 2.051945498e-20)
(100.1607176 0.3495428554 -1.927317619e-22)
(100.1223348 0.3898459013 4.287685576e-20)
(100.0720902 0.3072443152 2.340170224e-21)
(100.0522236 0.1309456616 -7.092169949e-22)
(100.1156998 0.2170235247 2.947168199e-20)
(100.0424715 0.06057026815 -6.854245885e-21)
(100.088455 0.1167315617 -1.562950339e-20)
(100.07704 0.03697492832 7.004164418e-21)
(99.97646387 0.01338981291 -2.062876624e-20)
(99.97351684 0.004692066072 -1.030968503e-20)
(99.96140972 0.03483660725 -4.467511173e-20)
(99.95927053 0.01828385871 9.712020096e-21)
(99.93393473 0.07309491383 9.455852379e-21)
(99.92911062 0.04589671998 -3.781945035e-20)
(99.90431035 0.131697581 2.284288037e-20)
(99.87972317 0.09490989601 4.112310963e-20)
(99.87189348 0.1445649264 -3.658310871e-20)
(99.91804541 0.1427757144 -6.761269966e-21)
(99.8732484 0.1606453912 -5.024662544e-20)
(99.88432036 0.1796217897 -3.392206198e-21)
(99.86926746 0.2499178974 -6.63980434e-21)
(99.85426635 0.2393595486 -3.310559251e-21)
(99.80035807 0.2884140273 2.320877036e-20)
(99.81882021 0.3131667371 6.54567026e-21)
(99.80205939 0.4143382055 -5.752493612e-21)
(99.77729444 0.4041683122 4.228489892e-21)
(99.69756137 0.4864733818 -3.273128068e-20)
(99.7514349 0.4980963828 2.282065866e-21)
(99.7111211 0.5337558541 -1.421967184e-20)
(99.73644613 0.6268397922 -5.885691521e-21)
(99.71657452 0.6238213559 0)
(99.66778751 0.6883570775 6.082832552e-21)
(99.69195316 0.6972113467 -5.868738971e-21)
(99.64298931 0.95622564 2.875924824e-21)
(99.61280144 0.9597525208 1.127475821e-20)
(99.54851211 1.057569619 5.588934706e-21)
(99.58636817 1.060761811 1.401141574e-20)
(99.5580823 1.392248323 -1.184767969e-21)
(99.51350785 1.410439519 -3.776940383e-21)
(99.43736073 1.552128767 -1.398580344e-20)
(99.4939686 1.539579743 -3.807458762e-21)
(99.52269697 1.914633403 -1.178449946e-20)
(99.46210731 1.962275747 -1.1140359e-21)
(99.38707068 2.154305243 -8.692625399e-21)
(99.46425171 2.10744184 5.233133908e-21)
(99.593631 2.435814625 1.441928108e-20)
(99.52403158 2.531424489 1.44269005e-20)
(99.47690542 2.759230438 1.774083544e-20)
(99.56341214 2.65637042 -9.444017936e-21)
(99.7941607 2.802043074 -6.693438222e-21)
(99.7346387 2.956640507 -2.349281384e-22)
(99.73517517 3.191639527 3.709442751e-21)
(99.80569786 3.019921537 -3.428434617e-21)
(100.060534 2.883953794 2.222240922e-21)
(100.0342557 3.087578251 2.01503961e-21)
(100.0819711 3.286592379 2.667460395e-21)
(100.1088266 3.065038606 -7.475149333e-22)
(100.2879586 2.666850713 -6.216999531e-21)
(100.303005 2.88779343 -5.379968584e-21)
(100.3749242 3.026890155 -3.509971708e-21)
(100.3538354 2.795192393 -3.512999994e-21)
(100.4096049 2.249285128 2.493341507e-21)
(100.4566159 2.458165298 1.642856933e-21)
(100.529815 2.541408469 1.642584084e-21)
(100.4743646 2.329627476 5.341075633e-21)
(100.4256503 1.763997467 -5.424919706e-21)
(100.4862983 1.938233787 -1.260610759e-20)
(100.5469597 1.980759603 -4.399417228e-21)
(100.4791611 1.808535119 4.912746313e-21)
(100.4369185 1.445609965 -1.554089985e-20)
(100.3776176 1.310720025 -1.048527144e-20)
(100.4826784 1.461984315 -1.049941125e-20)
(100.4206514 1.333136255 5.59515655e-21)
(100.3052898 0.8886615453 -4.707899272e-20)
(100.4063488 1.083319335 -2.464999045e-20)
(100.4757436 1.077458516 -7.140088123e-20)
(100.3556881 0.9019141506 -3.34917536e-20)
(100.2270065 0.6067709043 -5.424180761e-20)
(100.3068933 0.7448368904 2.150428406e-20)
(100.3530992 0.7290604965 -2.573637819e-20)
(100.2612038 0.6106031407 -2.252135251e-20)
(100.1993609 0.340843628 9.156290577e-21)
(100.3424665 0.4680476787 -2.333751629e-20)
(100.3164761 0.5646046703 -1.617331159e-22)
(100.2366635 0.5044084323 -1.336116677e-20)
(100.1474109 0.1996996932 1.379386466e-20)
(100.2485005 0.2876440238 2.458154985e-20)
(100.1192791 0.09193984215 -1.75993604e-21)
(100.1901226 0.1539343754 -3.556467328e-21)
(100.1637478 0.04851279884 0)
(99.95999542 0.008895487915 2.071226404e-20)
(99.96513992 -3.509215381e-05 -3.454372576e-21)
(99.93156116 0.02773025961 1.740975551e-20)
(99.9415399 0.004645381817 2.418650532e-20)
(99.88035829 0.06726268987 -6.924753788e-21)
(99.89190107 0.02567467654 -3.429138106e-21)
(99.81411452 0.1443540142 0)
(99.81002162 0.07013589492 5.275282896e-21)
(99.77731219 0.1386505195 1.603549864e-20)
(99.82292819 0.1684521555 -4.691469486e-20)
(99.76825457 0.1643250465 1.205612009e-20)
(99.77026385 0.2025634821 0)
(99.72080359 0.3115100058 2.277737258e-22)
(99.71145331 0.2769067815 -2.666457003e-20)
(99.63309715 0.3170256224 -2.664663203e-20)
(99.64102778 0.3707588112 5.406974158e-20)
(99.57640517 0.53720518 -8.039678943e-20)
(99.55782323 0.4879930251 2.884142208e-20)
(99.44189457 0.5601841627 -5.374651552e-20)
(99.48758464 0.6280993442 -2.677474598e-20)
(99.43275363 0.6387842726 -4.392302328e-20)
(99.41796594 0.8339701942 6.334628189e-21)
(99.39804492 0.8036037113 1.259339035e-20)
(99.32164735 0.867103133 3.181730504e-20)
(99.34304759 0.9065884499 6.281176065e-21)
(99.19672869 1.315469897 4.911611207e-21)
(99.16163855 1.280278372 1.833791334e-20)
(99.05754922 1.382218338 6.419810028e-21)
(99.09772869 1.429130218 -1.057054036e-21)
(98.97130924 1.991518209 4.435183735e-20)
(98.90960895 1.958988628 2.220395569e-20)
(98.78101308 2.117697843 7.50231208e-20)
(98.85474676 2.162670585 1.007153338e-22)
(98.85193919 2.84895491 -7.672056326e-20)
(98.75198659 2.83999571 -3.474855349e-20)
(98.62317165 3.069543504 -3.3443225e-20)
(98.74541104 3.084990271 4.588770314e-20)
(98.98878316 3.779655579 2.767385276e-20)
(98.85047924 3.836099569 -1.388211254e-20)
(98.76779502 4.142429412 1.362144515e-19)
(98.93575934 4.073150134 1.327189371e-20)
(99.48487239 4.484082114 -3.423258787e-20)
(99.34671094 4.648595526 -7.353181757e-21)
(99.37087842 4.97187463 -4.266138203e-20)
(99.52577189 4.77195197 7.920798129e-21)
(100.1795723 4.621668749 4.545005574e-21)
(100.1068623 4.880673049 -6.090403643e-22)
(100.2297179 5.124459435 3.343310636e-23)
(100.2927905 4.829182998 -2.565442393e-22)
(100.7389449 4.176115192 -6.476198482e-20)
(100.7545318 4.461435228 -2.162629131e-20)
(100.9058286 4.588843736 -3.990330891e-20)
(100.8672806 4.285200057 -3.760749355e-20)
(101.0018637 3.418719895 -1.457634288e-20)
(101.0775507 3.673331693 0)
(101.2059722 3.712788468 -1.520782946e-20)
(101.1091597 3.45651339 2.578413832e-20)
(101.0150134 2.607833941 3.947560093e-20)
(101.1156401 2.812277054 2.888623369e-20)
(101.2080068 2.799816387 -7.560924007e-20)
(101.093342 2.604879616 1.857464674e-19)
(100.9814391 2.03354214 0)
(100.8824326 1.881470927 4.172991417e-20)
(101.042971 2.006686866 0)
(100.9358719 1.862862188 0)
(100.6827946 1.241902758 2.613762173e-20)
(100.8520239 1.454112911 1.68055067e-20)
(100.9241387 1.374971939 -1.508887659e-20)
(100.7405132 1.196792541 3.285375657e-20)
(100.5053927 0.8308749051 -3.005086585e-20)
(100.6366923 0.9771476402 -1.341661944e-20)
(100.680583 0.9085748616 -1.353784079e-20)
(100.5421718 0.790438627 -6.514838243e-21)
(100.3799301 0.4117448364 -8.268387215e-21)
(100.5687347 0.5207725613 -1.762375189e-20)
(100.5841296 0.6659120192 -2.347929886e-21)
(100.4784563 0.6386616727 4.936224432e-21)
(100.2813567 0.239182484 7.082218722e-21)
(100.4112028 0.3154849717 1.07775961e-20)
(100.226322 0.1092355774 -1.796213459e-21)
(100.3126822 0.1664492494 -3.175110017e-21)
(100.2667667 0.05197844509 -4.575625171e-22)
(99.95064612 -0.00454028304 0)
(99.96943605 -0.009208000137 0)
(99.90686045 0.001644131191 3.485945952e-21)
(99.93575647 -0.02298400576 0)
(99.82797529 0.02956421975 8.809576071e-21)
(99.86565515 -0.01997692407 -3.015467249e-21)
(99.7173881 0.1075003789 1.514673009e-20)
(99.7483917 0.006807680082 1.946940521e-20)
(99.68182499 0.08281684981 -5.845133932e-21)
(99.71511088 0.1472995196 2.075876218e-20)
(99.6573095 0.1167322656 1.683766361e-21)
(99.643191 0.1691960673 -8.367159181e-21)
(99.54101725 0.302878661 0)
(99.54738886 0.2469053318 -1.738592552e-20)
(99.44812905 0.267492101 -1.425742318e-20)
(99.43258893 0.3461440994 3.544884652e-21)
(99.29643482 0.5524227593 0)
(99.29657539 0.4731042544 3.544505125e-21)
(99.14662267 0.5137141635 -3.651869646e-21)
(99.16238663 0.6396987545 1.769388174e-20)
(99.10200976 0.626222558 4.559406882e-21)
(99.00452975 0.9036979049 1.247922131e-19)
(98.9963579 0.8441115812 -7.83795354e-20)
(98.89119853 0.8938827755 -1.319443061e-19)
(98.89820185 0.9646351498 1.249480054e-19)
(98.58162816 1.504538489 -4.546742424e-20)
(98.55751201 1.423284327 -5.241312395e-20)
(98.40875236 1.509972773 -5.285371456e-20)
(98.43144873 1.611363721 -9.786864981e-21)
(98.11270256 2.392794102 6.236032541e-20)
(98.05147464 2.292953618 -1.954363904e-20)
(97.85597327 2.442914013 -5.372618913e-20)
(97.92713725 2.567740318 9.783302642e-21)
(97.74208097 3.672602819 -1.837376026e-19)
(97.60781285 3.570591059 1.011083791e-19)
(97.37349877 3.83929282 7.83198718e-20)
(97.54228766 3.965339711 -9.230056075e-20)
(97.84933942 5.309658602 -7.421347092e-20)
(97.60182077 5.284540628 -1.824614641e-19)
(97.4276576 5.722865 -6.635845492e-20)
(97.74166604 5.737163645 -1.676001463e-20)
(98.88999578 6.700902892 -3.100665374e-20)
(98.59417206 6.889836851 2.370575269e-20)
(98.66382503 7.400603629 1.265730726e-20)
(99.00091211 7.135276817 -7.228606833e-20)
(100.4788871 6.894721604 -1.883212406e-20)
(100.327719 7.282251687 5.358213383e-21)
(100.6149878 7.601433169 2.910561197e-20)
(100.7332242 7.142238156 3.215767716e-20)
(101.6101629 5.936196646 1.704156859e-19)
(101.6508352 6.340483783 5.30722961e-20)
(101.9372757 6.419498325 5.45345872e-20)
(101.8462543 5.997581814 9.416568203e-21)
(102.0064056 4.571532378 -1.548426226e-19)
(102.1477156 4.894271107 8.652346609e-22)
(102.3525995 4.847243789 1.832049472e-20)
(102.1715779 4.533625561 -2.434559403e-19)
(101.9133288 3.31702683 4.63137908e-20)
(102.0781186 3.545108766 2.462024021e-20)
(102.1924031 3.461067538 -7.803497146e-20)
(102.0096981 3.249092882 3.751287389e-20)
(101.7547175 2.469615943 -1.301816915e-20)
(101.6055504 2.311918629 -3.412015075e-21)
(101.8176676 2.383444558 1.633406896e-20)
(101.6593695 2.24343945 1.994974998e-20)
(101.1961185 1.469966352 -8.481151773e-20)
(101.4441651 1.680951248 -5.372056594e-20)
(101.4953182 1.520168176 -3.0079317e-20)
(101.2429513 1.362304593 -1.548638168e-20)
(100.8747343 0.9579556748 1.045800792e-20)
(101.0611228 1.095755129 3.147550442e-20)
(101.0833333 0.9755797008 -3.555036108e-21)
(100.9007306 0.8735763574 -3.458903391e-21)
(100.5894804 0.4240283553 1.836435772e-21)
(100.8184493 0.4887152181 0)
(100.8977835 0.6881495663 -1.043956287e-22)
(100.7793866 0.6900075341 -9.43432854e-21)
(100.4329547 0.2405244978 4.08982647e-22)
(100.5842612 0.2904398358 1.83627021e-21)
(100.3446869 0.1081506881 -1.841525835e-21)
(100.4375439 0.1486290139 -1.844024974e-21)
(100.3687745 0.04568971657 -1.8565735e-21)
(99.95830301 -0.0275322005 0)
(99.99542324 -0.02280852639 1.708210644e-21)
(99.89920747 -0.04477668279 -6.985879483e-21)
(99.95208553 -0.0644561081 -1.720747683e-21)
(99.79235238 -0.04188654647 7.214648089e-21)
(99.86305419 -0.091208264 -3.477443072e-21)
(99.631868 0.01718327549 9.468139822e-21)
(99.71274935 -0.09618170561 2.481542123e-21)
(99.60482624 -0.02469516512 1.490292607e-23)
(99.61188494 0.07125996906 -7.02270529e-21)
(99.56023896 0.01235448879 -7.080859039e-21)
(99.52425696 0.07210723359 0)
(99.35898363 0.2098825711 -1.425707122e-20)
(99.38996457 0.1383662639 0)
(99.27760816 0.1303141913 -8.198870671e-23)
(99.22756052 0.2253515821 -5.538565254e-23)
(98.99682971 0.4434281208 7.338490122e-21)
(99.03195281 0.3392349884 1.102281333e-20)
(98.85748493 0.3412529236 1.483700941e-20)
(98.82631771 0.5077432242 -2.095645164e-20)
(98.76937068 0.4684213076 -7.23178692e-21)
(98.54991581 0.793816755 3.00505368e-20)
(98.56739631 0.7118129645 1.605718673e-20)
(98.43849286 0.7351193309 1.878934106e-21)
(98.41351497 0.8307009848 -1.389823799e-20)
(97.86611088 1.407059197 -1.407939556e-20)
(97.87490599 1.286124388 2.859551732e-20)
(97.69002861 1.331631426 0)
(97.67477365 1.473598951 0)
(97.0017067 2.396524187 0)
(96.98023906 2.209453769 0)
(96.69741171 2.308756118 0)
(96.71824506 2.532503034 -1.185730203e-19)
(96.01443914 4.112547627 1.205103874e-19)
(95.89265272 3.850639307 1.282630582e-19)
(95.48298885 4.084285399 6.273497071e-20)
(95.63571266 4.426016072 1.227959398e-19)
(95.60883796 6.964552806 -1.989036124e-21)
(95.20413176 6.700461028 -5.528324825e-20)
(94.74020287 7.321505899 -2.096559765e-19)
(95.30282151 7.634189209 -1.059950014e-19)
(97.62463427 10.12471479 -2.033700232e-20)
(96.92931745 10.34612661 0)
(97.08379567 11.35189803 -3.454129492e-20)
(97.90932391 10.92631047 0)
(101.3715958 10.24156795 2.454294649e-20)
(101.1044839 10.95851695 -5.138834654e-21)
(101.8195948 11.3537365 2.462505957e-20)
(101.9553961 10.49582875 -4.222609163e-20)
(103.3652035 7.937106121 0)
(103.523002 8.543330952 0)
(104.0407885 8.452464611 -1.966847171e-19)
(103.7685687 7.852511576 3.468576595e-20)
(103.6404163 5.57489097 2.981367355e-20)
(103.9172503 5.961789918 2.278878486e-21)
(104.1650215 5.760099783 1.89019309e-19)
(103.8418992 5.409977628 2.277556775e-21)
(103.1706367 3.766575386 0)
(103.4335006 4.002661889 0)
(103.5423652 3.811857185 6.34005532e-20)
(103.2635659 3.609706439 0)
(102.7310785 2.630701793 2.934040991e-20)
(102.5169359 2.488444711 2.932595692e-20)
(102.7723799 2.480330162 2.932429665e-20)
(102.5566154 2.360490232 -3.055871387e-20)
(101.8147761 1.517321912 2.460573801e-20)
(102.1394942 1.691811264 -2.029031243e-22)
(102.1404813 1.452452779 1.50416933e-20)
(101.8235746 1.344759171 1.118226141e-20)
(101.2965964 0.9557430614 -1.476793823e-20)
(101.538153 1.060744877 -7.534831908e-21)
(101.513542 0.8940036222 -7.536291675e-21)
(101.2910565 0.8301030174 1.151084337e-20)
(100.8011407 0.3600906857 0)
(101.0603419 0.364470591 1.22711003e-21)
(101.2103008 0.5873220328 -1.016474314e-20)
(101.0980123 0.6457881114 2.517678763e-20)
(100.5782966 0.1968008446 -4.654132061e-22)
(100.7382345 0.2049707353 -1.450953815e-21)
(100.4532348 0.08592442135 -1.866589126e-21)
(100.5421022 0.0974457836 -2.118958647e-21)
(100.4498127 0.02891539051 2.396636794e-21)
(99.99247105 -0.0592905912 -1.199293758e-23)
(100.0513624 -0.04027053479 5.150296683e-23)
(99.9199156 -0.1100312586 1.7850534e-21)
(99.99999445 -0.1178586794 -6.161128153e-23)
(99.78859508 -0.1444296757 -9.350940516e-21)
(99.89561197 -0.184405761 1.398670748e-21)
(99.57955673 -0.1202738108 -8.480981206e-21)
(99.71860666 -0.2338937184 -1.422699294e-20)
(99.56961047 -0.1805133107 -1.20984036e-20)
(99.53458622 -0.06145023063 -6.685163882e-21)
(99.50352595 -0.1466998132 -2.633968092e-21)
(99.43971448 -0.087216151 2.986296431e-23)
(99.20861871 0.02983685168 1.074257963e-20)
(99.27067167 -0.04801714177 1.090690601e-20)
(99.15579341 -0.08988451383 5.382600203e-21)
(99.06601184 0.00808578614 1.854041329e-20)
(98.73562595 0.2070124649 -1.867389442e-20)
(98.81699374 0.08648085815 -1.494883089e-20)
(98.63622047 0.04275112972 -5.339726407e-20)
(98.53558088 0.2241461459 -1.504084096e-20)
(98.49354839 0.1625566415 -1.505112256e-20)
(98.13350094 0.4839171651 -3.085511717e-20)
(98.18629902 0.3898924364 -4.460592149e-20)
(98.04659536 0.3769171713 -2.941450845e-20)
(97.98068573 0.482242753 -5.971956001e-20)
(97.20421759 0.9727950044 6.219150317e-20)
(97.26598894 0.8293884365 -3.086324938e-20)
(97.06596159 0.8122571297 -6.596715251e-20)
(96.98097051 0.9760998449 6.354086477e-20)
(95.8275261 1.808941779 -1.644888383e-21)
(95.9050725 1.571006624 1.666811421e-20)
(95.57531136 1.558348597 -7.021385601e-20)
(95.46182242 1.838941183 -1.167661678e-19)
(93.75910549 3.432089333 -4.035747797e-20)
(93.80871321 2.992000798 -2.030414802e-22)
(93.2265353 2.994654829 -1.292425426e-19)
(93.12515405 3.561607808 -8.379226905e-20)
(90.96594612 7.495698423 0)
(90.61837479 6.532691296 0)
(89.08187075 7.149601292 1.287131791e-19)
(89.41779487 6.648789956 -4.11037058e-19)
(90.05325628 8.544938684 1.38233382e-19)
(89.3674772 8.325950983 -2.469246375e-19)
(92.24205186 16.70035166 0)
(93.32614602 16.65532361 0)
(92.27682236 18.14868154 1.011742637e-19)
(93.70640895 17.8497018 0)
(104.2826779 16.86970543 -3.871454812e-20)
(104.6144419 15.55887612 4.260900785e-20)
(105.9955407 15.47992752 1.573159118e-19)
(104.8399109 17.68530446 -9.7408977e-20)
(106.6105296 16.94663615 2.813311374e-20)
(106.1934733 17.50250776 2.684176798e-19)
(107.3441603 10.57980949 1.476416951e-19)
(106.7883169 9.75660946 2.812119231e-19)
(107.9881498 10.00231767 1.463037899e-19)
(107.2857142 9.315046182 -1.789747412e-20)
(106.0379586 6.002391153 2.264373538e-19)
(106.5486929 6.386136448 3.15700858e-19)
(106.7559958 5.934438487 1.196529257e-19)
(106.214853 5.638763824 2.37671174e-19)
(104.7656544 3.712268411 -7.094993837e-20)
(105.153179 3.898792991 7.831931474e-20)
(105.1905411 3.58579767 0)
(104.8045648 3.449608837 1.448868921e-19)
(103.8326965 2.387576416 9.356107335e-23)
(103.5493142 2.296724946 -3.47474916e-20)
(103.8119562 2.176578297 -3.473390712e-20)
(103.5372528 2.107987919 -6.822461089e-20)
(102.4595511 1.319037395 3.960678236e-21)
(102.8501835 1.406229014 -3.554925689e-20)
(102.7563763 1.113816701 -2.307992459e-21)
(102.4020381 1.091070715 -4.161662665e-21)
(101.7210969 0.7861838915 4.147043387e-21)
(102.0073045 0.8353053616 -1.153444948e-23)
(101.9182621 0.6357406839 -6.739052009e-21)
(101.6650857 0.6261844284 8.399181668e-21)
(100.9799395 0.2148543513 -1.720544431e-22)
(101.237829 0.1485426576 -2.748056866e-22)
(101.488134 0.3601128139 7.609112957e-22)
(101.3913933 0.4461758722 6.120384732e-21)
(100.6908883 0.1054710359 -3.111567479e-21)
(100.8413193 0.05964942472 -2.226495897e-22)
(100.5301597 0.04119375789 2.317449737e-21)
(100.6026864 0.01427711216 -2.089355256e-21)
(100.4886574 0.00206764263 3.855078948e-22)
(100.0613521 -0.0981517237 1.261331925e-23)
(100.1439525 -0.06055427827 -2.532965335e-21)
(99.97869129 -0.1904240626 -4.608547164e-22)
(100.0870524 -0.1799255658 1.100971976e-21)
(99.82937198 -0.2721231339 -3.634644037e-21)
(99.97272775 -0.2932913258 -2.393762549e-21)
(99.58055264 -0.2981416734 7.440732796e-21)
(99.77846142 -0.3959586659 -8.216993208e-22)
(99.5930575 -0.3728658119 7.786047323e-22)
(99.50714718 -0.2438793443 3.633912833e-21)
(99.50701433 -0.3478642715 7.555775064e-21)
(99.41476587 -0.2979212724 5.330559838e-21)
(99.12328928 -0.2250804519 -1.813534711e-21)
(99.21955289 -0.2976802637 2.806784466e-21)
(99.11330977 -0.372673415 1.853120547e-21)
(98.98319967 -0.2869842916 5.61803852e-21)
(98.56514818 -0.145988263 -2.449872361e-21)
(98.69580045 -0.2622924063 3.042292139e-20)
(98.52652066 -0.3528091641 2.850958623e-20)
(98.35590327 -0.1792528968 -9.503272419e-22)
(98.33807647 -0.2618983908 2.155181776e-20)
(97.85048181 -0.00315250178 5.206122392e-20)
(97.94136861 -0.09261274349 7.551768214e-21)
(97.80980682 -0.1440784521 5.747692594e-20)
(97.70478197 -0.04986798699 -6.954948929e-20)
(96.75950069 0.2347981815 1.674679072e-20)
(96.88390696 0.1013540588 -8.042033484e-21)
(96.69914105 0.02204063545 3.382393721e-20)
(96.54297947 0.163521655 0)
(95.04083744 0.6114186377 1.554752571e-19)
(95.24053415 0.3963589469 9.69611543e-20)
(94.9520779 0.2644532023 7.848320219e-20)
(94.69663715 0.4873338169 -1.314544083e-21)
(92.23694458 1.13579516 -2.370864778e-20)
(92.59409832 0.75817332 -8.647908975e-20)
(92.18079114 0.4627139418 9.214742014e-20)
(91.67122073 0.8172173156 -1.297063834e-20)
(86.70860063 1.37360461 -3.896112761e-20)
(87.28583074 0.9318118321 -1.447503521e-19)
(86.90495522 0.3542493095 -9.306281296e-20)
(86.10769422 0.7397261325 1.333997315e-21)
(117.4448764 22.1988798 -8.199121034e-20)
(116.099416 21.02894677 -8.214253825e-20)
(118.3319795 20.69275903 1.65615197e-19)
(116.9476119 19.85998395 -8.189750998e-20)
(113.6141735 10.0776953 -1.245650966e-19)
(112.3101374 9.507019797 -1.244547314e-19)
(113.7881664 8.78412169 1.030673651e-20)
(112.5232665 8.51892089 -1.46989932e-22)
(108.9734209 5.129196924 -2.399238537e-20)
(109.7430371 5.312976472 -7.08502903e-21)
(109.6811865 4.635367478 0)
(108.9547649 4.572567196 0)
(106.4353838 2.888179486 0)
(106.9308633 2.94476835 0)
(106.8154205 2.544489414 0)
(106.3552321 2.545621909 0)
(104.8748586 1.637363909 1.72710116e-19)
(104.540674 1.629912053 9.642670463e-20)
(104.7616064 1.388510698 9.282408942e-20)
(104.4522982 1.404057483 1.168762493e-19)
(103.0145124 0.8394492792 -4.516679511e-21)
(103.4458931 0.8094700657 3.480906914e-20)
(103.2220528 0.5033784756 7.249420791e-21)
(102.8692673 0.5889909191 1.075603787e-21)
(102.0812331 0.444424338 -1.81455178e-21)
(102.3821109 0.4157100714 1.269166916e-20)
(102.2128504 0.2160002271 4.673998577e-21)
(101.9615666 0.2759923371 9.258068669e-21)
(101.0870091 -0.003585925113 -2.967924367e-22)
(101.3199972 -0.1455560824 -9.843685911e-22)
(101.6659954 0.01733678805 -1.001016806e-21)
(101.6119493 0.150062774 -1.151165824e-21)
(100.7435776 -0.02998408418 9.953898351e-22)
(100.8661357 -0.1341567597 1.228642035e-21)
(100.5535769 -0.02368291952 -3.983530601e-21)
(100.5967009 -0.09463684759 1.536412625e-21)
(100.4663046 -0.03309479136 -1.968453389e-21)
(100.1710066 -0.141529349 -1.444574597e-21)
(100.2774583 -0.0822900274 8.002451164e-22)
(100.0826595 -0.2803819448 -8.400107337e-22)
(100.218052 -0.2464204101 -5.968904951e-22)
(99.92365239 -0.4153180796 4.299734098e-22)
(100.1000435 -0.4099885557 -2.121163018e-22)
(99.64767609 -0.5019279677 4.772493018e-22)
(99.89948658 -0.5702443886 7.244777625e-22)
(99.68560339 -0.5852128212 4.281033917e-22)
(99.54599817 -0.4600106421 1.25709227e-21)
(99.58292668 -0.5742974926 -1.128392473e-23)
(99.46496465 -0.5410031385 -1.128552965e-23)
(99.12786062 -0.5291800768 -1.850741533e-21)
(99.25579882 -0.5864856752 0)
(99.16769108 -0.6908702645 -9.092235497e-22)
(99.00313229 -0.6286057828 -9.593561718e-22)
(98.52283782 -0.5715728798 9.346469069e-22)
(98.69737047 -0.6661879622 -2.332711064e-23)
(98.55457856 -0.7959919844 6.88192524e-22)
(98.32479827 -0.6540120937 -3.692522064e-20)
(98.33508848 -0.7457200214 -4.177391245e-20)
(97.76463673 -0.591972726 -4.596278486e-20)
(97.88500933 -0.6618990882 2.855543982e-20)
(97.77511691 -0.7443961785 -1.521522205e-20)
(97.64304764 -0.6752808761 0)
(96.64291434 -0.6367610349 0)
(96.81148049 -0.7336756563 -3.31898451e-20)
(96.6631836 -0.853509478 -3.302669359e-20)
(96.46520836 -0.7600060428 0)
(94.93015248 -0.7480308147 2.522889824e-21)
(95.19176547 -0.8788834677 -6.543485949e-20)
(94.98561235 -1.056537453 -8.329539247e-20)
(94.68936514 -0.9435726058 -8.583115111e-20)
(92.55609132 -1.183394584 -1.452368232e-21)
(92.96194774 -1.307156361 -1.352673681e-19)
(92.75928658 -1.586587057 -3.649896435e-21)
(92.33709824 -1.524666365 -2.006337302e-20)
(90.21347882 -2.871911748 -7.145705951e-21)
(90.50639319 -2.760781119 -1.727334008e-22)
(90.56156985 -2.969875797 1.346083271e-23)
(90.3350479 -3.12809249 9.218788481e-20)
(131.5473763 10.05286274 -5.988981745e-20)
(129.915422 10.61611426 1.669365972e-20)
(130.642767 8.650133238 1.494291758e-19)
(129.2748495 9.287355125 2.682641194e-19)
(118.8407896 4.679342567 2.874673655e-19)
(117.3308439 5.03436891 0)
(118.0345589 3.430891423 -8.756641938e-20)
(116.8098676 3.938475665 -2.64265439e-21)
(111.3845371 2.526824498 -6.471711386e-20)
(112.2164529 2.323575961 7.583083424e-22)
(111.750563 1.665590049 1.463804158e-21)
(111.041667 1.936822369 -1.229131028e-19)
(107.7118837 1.220621907 1.009666775e-19)
(108.2215322 1.082336007 3.11854016e-19)
(107.9057443 0.7024152838 2.086885413e-22)