/*--------------------------------*- C++ -*----------------------------------*\
| =========                 |                                                 |
| \\      /  F ield         | OpenFOAM: The Open Source CFD Toolbox           |
|  \\    /   O peration     | Version:  v1912                                 |
|   \\  /    A nd           | Website:  www.openfoam.com                      |
|    \\/     M anipulation  |                                                 |
\*---------------------------------------------------------------------------*/
FoamFile
{
    version     2.0;
    format      ascii;
    class       volVectorField;
    location    "2.83";
    object      U;
}
// * * * * * * * * * * * * * * * * * * * * * * * * * * * * * * * * * * * * * //

dimensions      [0 1 -1 0 0 0 0];


internalField   nonuniform List<vector> 
12556
(
(99.99778088 0.005312538932 -4.628795139e-21)
(99.99724468 0.01742694153 6.160559759e-25)
(99.99566747 0.03536119277 -4.61385739e-21)
(99.99304727 0.06285186347 -4.574591691e-21)
(99.99986329 0.04814476059 4.398496897e-21)
(99.9966976 0.07673062328 0)
(99.99508751 0.1199608701 0)
(99.99476108 0.177560809 -7.501279047e-21)
(99.99363118 0.2502883261 8.622505989e-22)
(99.99324139 0.3329772838 -5.417480003e-21)
(99.99352455 0.4125978438 7.971130077e-22)
(99.99585514 0.4698472652 0)
(100.0010338 0.4860239612 0)
(100.0057101 0.4565110632 1.555702685e-21)
(100.0063164 0.3929273409 -2.030952912e-21)
(100.0065818 0.314673984 1.040901837e-21)
(100.0059027 0.2381412921 0)
(100.0050217 0.1725439413 1.56647956e-21)
(100.0044794 0.1191190312 6.404745637e-21)
(100.0023881 0.08155147003 -1.758740071e-21)
(100.0088866 0.09038986237 -1.515883621e-20)
(100.005901 0.05465335861 0)
(100.0041884 0.02858097747 -1.888029805e-21)
(100.0039172 0.008909801258 -1.327759068e-20)
(99.98013081 0.01440755978 1.856486608e-20)
(99.97363334 0.04780176527 4.630635795e-21)
(99.95888587 0.09766778441 3.229852662e-20)
(99.93362459 0.1745313603 -1.383172481e-20)
(99.93983525 0.22913179 4.434681756e-21)
(99.9021506 0.3688861611 -6.557750375e-23)
(99.85548412 0.5772191365 0)
(99.83339409 0.7561815443 -7.641590912e-21)
(99.79011909 1.078816834 -6.958932251e-21)
(99.76796765 1.458557523 -1.174709657e-20)
(99.78609306 1.832928359 -4.666889594e-21)
(99.85496073 2.115120325 -5.418117179e-21)
(99.96202081 2.212780558 -6.204761621e-22)
(100.0714908 2.09532666 7.214310442e-22)
(100.1445509 1.812711711 -6.622735404e-22)
(100.1704231 1.455249921 5.370366012e-21)
(100.1604531 1.099236933 -1.002151666e-20)
(100.1305603 0.7977807982 0)
(100.1293695 0.5800110291 -2.691252089e-20)
(100.0890889 0.3853361949 5.154425513e-20)
(100.0834476 0.2556666024 1.467495493e-20)
(100.0563725 0.1540648288 3.003623289e-20)
(100.0407206 0.08082480925 -3.01252534e-20)
(100.0346912 0.02523271453 1.516573286e-20)
(99.94627499 0.01927159911 -1.852349909e-20)
(99.92780127 0.0650733743 -3.722860816e-20)
(99.88751062 0.1354756386 -8.326775947e-20)
(99.82016564 0.2471842037 1.107325024e-19)
(99.79097796 0.3652598905 -9.148683441e-21)
(99.67797168 0.6044706753 -8.828290113e-21)
(99.53238994 0.9659837308 -1.528870489e-20)
(99.46246675 1.345658641 0)
(99.3226685 1.972254265 2.891642187e-20)
(99.25721192 2.720243992 1.248275594e-20)
(99.33084143 3.48943849 1.215359204e-20)
(99.59055093 4.109493845 0)
(100.0041264 4.362256097 -1.51897127e-20)
(100.4111172 4.124513178 0)
(100.6463435 3.497957133 -2.304102397e-20)
(100.6968478 2.745663847 4.319525679e-21)
(100.6353935 2.041129548 -1.072450217e-20)
(100.5143699 1.445304516 -2.441864585e-20)
(100.4251373 0.9780609875 -1.616954923e-19)
(100.3005678 0.6409040478 -3.548265374e-20)
(100.2288424 0.3810412493 -1.497049183e-20)
(100.157323 0.2273687088 3.398138285e-20)
(100.1142726 0.1191408296 -3.808461241e-21)
(100.0954695 0.0370163529 0)
(99.90527572 0.01728163779 -9.354175995e-21)
(99.86967509 0.06104117406 6.544152405e-20)
(99.79334843 0.1355840131 -1.872905322e-20)
(99.66867531 0.2578021882 0)
(99.57387403 0.4256147464 0)
(99.35218268 0.7365793181 -7.180775437e-20)
(99.05074293 1.225149342 -1.434096469e-19)
(98.83259485 1.799551595 3.350046615e-20)
(98.51024513 2.715913088 -3.119011155e-20)
(98.31711839 3.862180986 4.801433445e-19)
(98.40045399 5.154970254 7.289754751e-19)
(98.93653716 6.354903867 -1.205672422e-19)
(99.95257345 6.9616034 -2.9113462e-19)
(101.0163359 6.56791037 5.203445924e-20)
(101.5915163 5.382998639 -4.770576575e-19)
(101.6254678 4.009671192 0)
(101.4072727 2.848817739 -2.814725171e-19)
(101.1279735 1.967176182 0)
(100.8711537 1.264759615 5.815850366e-20)
(100.6146165 0.8089267354 -4.455583699e-20)
(100.4294091 0.4418781566 -3.821511172e-20)
(100.2965242 0.2603045377 1.929102561e-20)
(100.2142636 0.1340088336 -3.865019798e-21)
(100.176717 0.04118164611 0)
(99.87380534 0.006724020903 0)
(99.81814573 0.02992696892 0)
(99.69978308 0.0880558767 9.496997904e-21)
(99.50548349 0.1936790657 1.430901408e-20)
(99.32946968 0.3886387672 2.366193613e-20)
(98.96095702 0.7265488847 0)
(98.45358245 1.266228043 0)
(98.00689238 1.98444268 0)
(97.38948812 3.134514797 -1.245470946e-18)
(96.89652455 4.684921685 0)
(96.75621417 6.69976262 1.14012038e-18)
(97.49850254 9.004666598 3.266670909e-19)
(99.63004325 10.50721189 -4.996404238e-19)
(102.1082324 9.840008486 -4.715053937e-19)
(103.2930406 7.588362963 -5.457179062e-19)
(103.1706727 5.209973984 0)
(102.5475104 3.444477513 2.141547462e-19)
(101.9454212 2.267966181 -3.537719825e-22)
(101.4345693 1.38373553 -9.46709731e-20)
(100.9993185 0.8576226554 7.8447797e-21)
(100.6571923 0.4198974568 0)
(100.4488384 0.2407126157 3.924125664e-21)
(100.3194497 0.1187465066 -2.947511915e-21)
(100.2593421 0.03568259647 -9.768528281e-22)
(99.8705345 -0.01300522818 0)
(99.79418399 -0.03040741805 0)
(99.63379606 -0.01387828991 -1.900219648e-20)
(99.36567751 0.0491955874 3.884789137e-20)
(99.09651654 0.2363611908 0)
(98.56457706 0.5383100946 0)
(97.82142252 1.038388024 3.047356395e-20)
(97.09053989 1.799574187 -3.346897378e-19)
(96.06726587 3.000272424 -1.537532421e-18)
(94.98294013 4.802816237 -3.834485835e-19)
(94.01290659 7.67244081 0)
(94.28652522 12.14513863 2.176754599e-18)
(98.63337505 16.19306636 0)
(104.4788867 14.57209766 0)
(106.3813387 9.920670641 -3.827310355e-19)
(105.5705349 6.120156611 0)
(104.0828872 3.67980737 0)
(102.9027463 2.257776857 0)
(102.0581843 1.281496248 2.42711066e-20)
(101.4063754 0.7519892067 -1.613961604e-20)
(100.8787292 0.3039690019 0)
(100.5856603 0.1608766998 0)
(100.4063318 0.0696421253 -9.867714744e-22)
(100.3222243 0.01951184057 -2.953828558e-21)
(99.91352257 -0.04148774728 4.654983898e-21)
(99.81847234 -0.1178672255 -4.692335245e-21)
(99.62177812 -0.1665761468 9.588219848e-21)
(99.28860743 -0.1763147703 -3.504475632e-20)
(98.91589156 -0.03436268159 7.12389131e-23)
(98.23675076 0.1660631942 3.018764146e-20)
(97.28932856 0.5278920127 -6.28784051e-20)
(96.24942356 1.179517995 -3.732176151e-19)
(94.76386287 2.219600667 0)
(92.86675125 3.874619579 2.097165731e-18)
(90.10100623 6.913957757 1.770159293e-18)
(86.62999412 14.39993553 5.801496122e-20)
(94.94294165 27.29407441 1.411372697e-19)
(111.4712735 20.90156885 4.092943596e-19)
(111.749014 11.38019058 0)
(108.7759172 6.035049292 -9.478691616e-19)
(105.9044178 3.267905354 -5.468891784e-19)
(103.9186193 1.835917746 5.426663517e-19)
(102.635816 0.909944714 0)
(101.7765412 0.4702656382 8.677652742e-21)
(101.0517381 0.09479600094 2.576291614e-21)
(100.6762817 0.01803262572 -3.050506792e-21)
(100.4511858 -0.01291412138 -3.469191843e-21)
(100.3442333 -0.007169034598 8.374371294e-21)
(100.0183359 -0.07692785398 -4.65547179e-21)
(99.90917013 -0.2266959995 4.694013745e-21)
(99.68622855 -0.3588546008 -5.967576332e-21)
(99.30609579 -0.4647504667 -4.02769998e-21)
(98.8460106 -0.4043271089 1.721054975e-20)
(98.06009916 -0.3612001357 1.030029905e-20)
(96.97293818 -0.2334564485 -9.287043905e-20)
(95.68005107 0.1762643053 -1.617923307e-18)
(93.85146203 0.7996012923 -1.937961869e-18)
(91.30071166 1.747568871 -2.548082971e-19)
(86.85081226 3.20364019 0)
(77.69622347 6.176218315 -2.599954108e-18)
(128.0918599 22.7404217 -5.410385388e-18)
(118.9194711 8.969745565 0)
(112.2161678 4.1596163 0)
(107.6079021 1.983681786 -1.913906022e-18)
(104.7997211 0.9528774699 -1.506291587e-19)
(103.0580929 0.2765461749 -4.574132423e-21)
(102.0355934 0.02964337373 1.954179608e-20)
(101.1316591 -0.1994476905 -3.125956909e-21)
(100.691678 -0.1782122188 2.560604584e-21)
(100.4313689 -0.1236980533 -4.749663307e-22)
(100.3056771 -0.04301250297 -7.844562193e-21)
(100.1963205 -0.1165756314 -2.246212818e-21)
(100.0793094 -0.3484064474 -1.688479162e-21)
(99.843204 -0.5745678068 -5.795022836e-22)
(99.43979497 -0.7899802393 1.758882952e-21)
(98.91765077 -0.8367625965 -3.504620452e-23)
(98.08996912 -0.9832288439 0)
(96.94834749 -1.129728196 -9.173191453e-20)
(95.5267669 -1.044852892 0)
(93.59436689 -0.9357210348 -1.028611852e-18)
(90.98843692 -0.857635428 1.054407965e-18)
(86.84629122 -1.314720722 1.096120645e-18)
(80.93539927 -3.542303023 2.427868597e-18)
(140.3594426 4.8125401 0)
(123.4676977 1.605848027 1.545604329e-19)
(114.3949257 0.3962388923 2.339833499e-18)
(108.6594644 -0.1043393423 0)
(105.2998526 -0.3119194714 3.045936714e-19)
(103.2302343 -0.5460440081 -4.638249474e-21)
(102.1104092 -0.5323486866 1.092335723e-20)
(101.0858991 -0.551725727 1.067474674e-21)
(100.6091535 -0.4102767723 0)
(100.3284621 -0.2537230705 3.948180699e-21)
(100.1909738 -0.08521568427 3.905382567e-21)
(100.4528991 -0.1571707414 4.424581997e-21)
(100.3349575 -0.4729191433 6.912188927e-23)
(100.0999293 -0.7946752656 0)
(99.69891483 -1.122043475 2.270255582e-22)
(99.14677806 -1.287687439 -2.36261725e-21)
(98.34087757 -1.624579999 2.532391129e-21)
(97.23399957 -2.035255896 -6.148092428e-23)
(95.82811383 -2.258453762 -1.691764886e-18)
(94.02120207 -2.578609151 -1.022497908e-18)
(91.71987752 -3.089684086 0)
(88.47357284 -4.311056361 -9.686705637e-19)
(84.8438023 -6.539745953 2.066343111e-18)
(136.1725838 -11.98148217 8.821869922e-18)
(122.6700626 -6.607246884 -3.056733584e-18)
(114.2701932 -3.97282894 0)
(108.623547 -2.498657276 3.406673826e-19)
(105.2454804 -1.736734378 7.600151893e-20)
(103.0896158 -1.448862714 3.911665523e-20)
(101.9646275 -1.149563296 0)
(100.8967434 -0.9252985297 -1.041399943e-21)
(100.4155694 -0.6555526824 -4.342778077e-21)
(100.1318177 -0.3912150825 4.853636021e-22)
(99.99098293 -0.1299390899 0)
(100.7870007 -0.1955722491 -2.17817519e-21)
(100.6745338 -0.5903425392 2.198436621e-21)
(100.4533497 -1.000749309 2.142935253e-21)
(100.0800372 -1.432623187 -2.012685504e-21)
(99.52675373 -1.714475884 -2.328312182e-21)
(98.79237318 -2.217309008 0)
(97.78980312 -2.850261465 2.400880957e-21)
(96.48955118 -3.323087331 -4.138117495e-19)
(94.90417626 -3.93219749 -9.823238963e-19)
(92.9661784 -4.760467916 0)
(90.34670051 -6.225613591 8.929683104e-19)
(87.53003883 -8.155941269 -2.767608492e-20)
(126.3633199 -20.6944491 0)
(118.2955225 -12.34277588 2.432199377e-18)
(112.1747173 -7.465104022 0)
(107.5699923 -4.599643226 4.068884851e-20)
(104.6337298 -3.069981129 0)
(102.6355128 -2.303992119 0)
(101.5996328 -1.743787472 -2.568290221e-20)
(100.5627658 -1.281558024 -1.307738381e-20)
(100.1102734 -0.8902619675 9.933430711e-22)
(99.84034402 -0.5236072024 -3.142307795e-21)
(99.70447313 -0.1731447872 4.601985073e-22)
(101.1914846 -0.2290934582 7.9630526e-21)
(101.0899455 -0.6921241062 0)
(100.8920545 -1.175285097 -2.13871651e-21)
(100.5632872 -1.70557522 0)
(100.0287097 -2.084520759 0)
(99.40695023 -2.713712771 -6.917682528e-21)
(98.55382486 -3.512033599 -1.615503087e-19)
(97.41016696 -4.162737767 3.530203051e-20)
(96.07284851 -4.950107692 -9.228591769e-19)
(94.4642558 -5.959953343 0)
(92.2581792 -7.586398601 2.28530561e-18)
(89.70804268 -9.523835188 -1.947909703e-19)
(116.4317626 -23.43670038 0)
(112.7510607 -14.96990771 8.643731145e-19)
(109.1017587 -9.478555469 -6.052969064e-19)
(105.8644004 -6.037205093 2.141164593e-18)
(103.6072168 -4.109316795 -6.927103009e-20)
(101.9236678 -3.008899636 2.054792288e-21)
(101.0488609 -2.251165083 -3.139353984e-20)
(100.1049621 -1.595155643 7.743411427e-21)
(99.70515189 -1.092462672 0)
(99.46197462 -0.6399984407 3.617695431e-21)
(99.33796983 -0.2112991827 0)
(101.654848 -0.2567634746 7.952810581e-21)
(101.5672771 -0.776677539 1.253858198e-19)
(101.3966565 -1.317855115 -2.526127349e-19)
(101.1168238 -1.920094121 -4.211687171e-22)
(100.6516911 -2.369382753 -2.003324206e-21)
(100.1421511 -3.084424884 0)
(99.4613484 -3.991299184 0)
(98.49281095 -4.740539723 1.451099637e-18)
(97.41425066 -5.620901941 8.730184634e-19)
(96.12528424 -6.739172187 -8.226176575e-19)
(94.34184945 -8.558059583 -5.985989249e-20)
(92.16869786 -10.8014539 -5.52981633e-19)
(103.1240675 -31.94180794 -1.072958474e-18)
(107.6935886 -21.34550595 2.921806525e-21)
(107.6281762 -15.01214049 -1.640067042e-20)
(105.9511464 -10.08317448 -4.84184647e-19)
(103.9351372 -6.756886502 6.974249467e-19)
(102.3601754 -4.775882282 -5.586596201e-19)
(101.0469965 -3.503516386 -6.290107699e-20)
(100.3605923 -2.628762577 0)
(99.55697317 -1.834994478 0)
(99.22013526 -1.250579316 1.134609871e-20)
(99.0115994 -0.7332218091 2.090158049e-21)
(98.90422487 -0.2418960278 -6.789459026e-21)
(102.1622397 -0.2760354553 0)
(102.090383 -0.8362401264 0)
(101.9510944 -1.416722695 0)
(101.7227128 -2.057358869 0)
(101.3239882 -2.572761711 0)
(100.9286649 -3.345233684 0)
(100.4023024 -4.300291956 2.540971276e-19)
(99.63198578 -5.087008559 8.247115009e-20)
(98.79809889 -5.987421546 9.524646722e-19)
(97.82854262 -7.126708988 8.145144661e-19)
(96.55432595 -8.980739204 -2.873462011e-20)
(95.29389417 -11.58613167 -1.228833576e-18)
(96.64107822 -21.07237594 -3.103382892e-19)
(102.5588242 -17.51465889 -1.335029473e-19)
(103.8168092 -13.4894605 -3.329419502e-19)
(103.2507773 -9.689616552 3.4770073e-19)
(102.0927096 -6.88263667 3.797876732e-19)
(101.0592638 -5.091624546 1.302469586e-21)
(100.1010866 -3.784584298 -8.835427329e-20)
(99.60055491 -2.871951111 -3.32273086e-20)
(98.95019167 -1.990322151 -1.848678732e-20)
(98.67839045 -1.360743819 1.824073731e-20)
(98.50830108 -0.7992653077 0)
(98.41983159 -0.2635453074 1.822563803e-20)
(102.6986805 -0.2869954268 0)
(102.6432265 -0.8702564433 0)
(102.5373374 -1.472416515 0)
(102.3616985 -2.124496686 0)
(102.0266671 -2.672736547 0)
(101.7493855 -3.457907737 0)
(101.3705195 -4.391992292 -6.042180871e-20)
(100.7693259 -5.227582892 3.237664779e-18)
(100.1313276 -6.124861548 6.004139379e-19)
(99.44278507 -7.170550937 -1.097901561e-18)
(98.70059579 -8.699506388 -4.678901147e-19)
(98.36239247 -11.17118727 -8.735871439e-19)
(98.19849511 -13.98784642 3.299938478e-19)
(100.5567221 -13.55428619 0)
(101.4171886 -11.40916931 3.605874216e-19)
(101.1807608 -8.790537632 5.566578698e-19)
(100.4943351 -6.624327137 6.511133831e-19)
(99.83284945 -5.137246063 -2.397700043e-20)
(99.15441798 -3.88104118 0)
(98.82454544 -2.988271758 0)
(98.31412806 -2.06706101 -3.453548792e-20)
(98.10434243 -1.42206898 1.704170895e-20)
(97.97240726 -0.8370277324 7.129802286e-22)
(97.90276893 -0.275991782 -1.256145196e-20)
(103.2488259 -0.2902241872 0)
(103.2084613 -0.8799418694 0)
(103.1331836 -1.486956314 0)
(103.0059856 -2.131645605 0)
(102.7292514 -2.68980875 0)
(102.5460677 -3.454959371 0)
(102.2901396 -4.322846065 1.514588034e-21)
(101.8256159 -5.185100262 8.263675988e-19)
(101.3242794 -6.073860336 1.860373177e-18)
(100.8154123 -6.998434244 -1.855355756e-18)
(100.3482355 -8.11178953 -1.360454301e-18)
(96.72295923 -8.945746577 -1.020900861e-18)
(99.29343725 -10.74464643 2.820605555e-19)
(99.89842808 -10.66887375 0)
(99.98907234 -9.459373204 5.042429511e-19)
(99.65259448 -7.728852261 -8.043198576e-19)
(99.17760468 -6.161981084 -1.352488661e-19)
(98.73885715 -4.971382208 0)
(98.26882633 -3.830843119 -2.96016613e-20)
(98.06893335 -2.996731705 4.468317285e-20)
(97.67637309 -2.076630859 1.077219529e-20)
(97.52128255 -1.439706277 1.835870097e-20)
(97.42309857 -0.8490959527 -2.085926013e-20)
(97.37032001 -0.2799810793 0)
(103.7986481 -0.2869042762 0)
(103.7710041 -0.8690396408 0)
(103.720806 -1.466608585 0)
(103.6337355 -2.088501153 0)
(103.4086549 -2.63896215 0)
(103.2960502 -3.360076647 0)
(103.1254102 -4.144756724 0)
(102.7589395 -4.960433167 -2.929569955e-19)
(102.3277856 -5.82048427 9.995204809e-19)
(101.8604775 -6.623486156 -1.523636033e-19)
(101.6755929 -7.515034918 -6.671987584e-20)
(92.5261407 -7.125948077 -1.467334218e-18)
(99.80393404 -8.767658125 -1.062654726e-18)
(99.47592156 -8.670088499 -1.537984488e-19)
(98.98593411 -7.851119907 0)
(98.51967568 -6.717123808 -6.949765238e-19)
(98.12158743 -5.63517851 0)
(97.80169275 -4.678995125 0)
(97.47443997 -3.681798982 0)
(97.35726347 -2.919640254 0)
(97.05855425 -2.032758509 3.742081753e-20)
(96.94782387 -1.420801821 -3.501293127e-20)
(96.87683013 -0.8391475481 -2.359245964e-21)
(96.83778911 -0.2770521859 2.36726818e-21)
(104.3363366 -0.2783766444 0)
(104.3188001 -0.8418814442 0)
(104.2877396 -1.418810517 0)
(104.2314149 -2.006580032 0)
(104.0476257 -2.534987243 0)
(103.9830995 -3.197912843 0)
(103.8618181 -3.89406537 0)
(103.5485468 -4.605365288 0)
(103.1167171 -5.370158067 -4.742222268e-19)
(102.6583078 -6.079820225 0)
(99.91528734 -6.513328989 0)
(97.84050564 -7.226950733 0)
(99.76187038 -7.407507606 1.568992195e-19)
(98.94312464 -7.190858987 -2.818511557e-19)
(98.21499953 -6.603509154 0)
(97.679808 -5.87016501 2.000332177e-20)
(97.29042352 -5.09508484 0)
(97.01815189 -4.323516653 0)
(96.76973376 -3.462247951 0)
(96.70244236 -2.779570565 0)
(96.47368102 -1.947033399 0)
(96.3962949 -1.37129382 0)
(96.34641786 -0.812344161 0)
(96.31786642 -0.2692125446 0)
(104.8529481 -0.2659396004 0)
(104.8429346 -0.8026430153 0)
(104.8253248 -1.350831579 0)
(104.7906052 -1.897892936 0)
(104.6368749 -2.394492769 0)
(104.5994516 -2.993705577 0)
(104.4987736 -3.606006495 0)
(104.2019358 -4.213041857 0)
(103.7556601 -4.83453433 0)
(103.2405107 -5.424220522 0)
(97.09820984 -5.498747829 2.532781907e-19)
(100.3848885 -6.272920556 3.567110488e-21)
(99.51296283 -6.275808878 0)
(98.4962513 -6.076524386 -7.454442225e-22)
(97.67535457 -5.684214896 0)
(97.06552442 -5.163039506 0)
(96.63690844 -4.565513531 0)
(96.36892589 -3.941689621 0)
(96.15557571 -3.204671422 0)
(96.11274172 -2.60206179 0)
(95.9303451 -1.834426232 0)
(95.87549009 -1.301020447 0)
(95.84005156 -0.7725679443 0)
(95.81985859 -0.2565757558 0)
(105.3422071 -0.2508316651 0)
(105.3372686 -0.7552784265 0)
(105.3278607 -1.269440628 0)
(105.3064042 -1.773122845 0)
(105.17293 -2.232567462 0)
(105.1455528 -2.768495057 0)
(105.0437542 -3.306052314 0)
(104.7427588 -3.819038228 0)
(104.2676865 -4.325577009 0)
(103.6421176 -4.778122797 0)
(97.00834516 -4.808740872 0)
(100.6180982 -5.383702007 0)
(99.41965451 -5.381510184 0)
(98.24405075 -5.231011626 0)
(97.29644667 -4.939465044 0)
(96.59635352 -4.541312836 0)
(96.11733184 -4.071061556 0)
(95.83040841 -3.561604487 0)
(95.62468563 -2.932845133 0)
(95.58762896 -2.405596692 0)
(95.43259782 -1.706763029 0)
(95.39108157 -1.218015177 0)
(95.36429293 -0.7247896805 0)
(95.34949516 -0.2411205146 0)
(105.8001793 -0.2341631026 0)
(105.7981674 -0.703326176 0)
(105.7924743 -1.180640695 0)
(105.7771573 -1.640714515 0)
(105.6563927 -2.061132668 0)
(105.6263452 -2.537799471 0)
(105.5084342 -3.008437794 0)
(105.1924579 -3.441953584 0)
(104.6801695 -3.858756152 0)
(103.9137534 -4.209402916 0)
(97.1282547 -4.222530962 0)
(100.6982967 -4.669069566 0)
(99.3612614 -4.658066517 -2.386460322e-35)
(98.05664165 -4.537026434 0)
(97.00659223 -4.310501681 0)
(96.2291767 -3.998375088 0)
(95.69850306 -3.621563208 0)
(95.38118341 -3.200880154 0)
(95.16696227 -2.663282596 0)
(95.1228482 -2.203704365 0)
(94.98084668 -1.573062614 0)
(94.94530386 -1.128618268 0)
(94.92243181 -0.6728284456 0)
(94.9107447 -0.2242318506 0)
(106.224891 -0.2168446283 0)
(106.2240618 -0.6496594989 0)
(106.2185947 -1.089296712 0)
(106.2038189 -1.507095623 0)
(106.0898483 -1.888882733 0)
(106.0485921 -2.311842881 0)
(105.905781 -2.721703682 0)
(105.5687753 -3.091697841 0)
(105.0165917 -3.438393157 0)
(104.1044607 -3.714814947 0)
(97.29953015 -3.724724803 0)
(100.7344249 -4.080767625 0)
(99.30744217 -4.061181916 0)
(97.90694766 -3.959211664 0)
(96.77783811 -3.77708567 0)
(95.93565549 -3.526425073 0)
(95.35610457 -3.219333267 0)
(95.00385501 -2.868469953 0)
(94.7715589 -2.406675072 0)
(94.71248366 -2.005933458 0)
(94.57335435 -1.439789969 0)
(94.53817853 -1.037724756 0)
(94.51561467 -0.6196432524 0)
(94.50520789 -0.2068888269 0)
(106.6159628 -0.1995725152 0)
(106.6149721 -0.5964298065 0)
(106.6072011 -0.9990265704 0)
(106.5888786 -1.376939467 0)
(106.4772417 -1.721848191 0)
(106.4193584 -2.096722584 0)
(106.247974 -2.453629894 0)
(105.8863044 -2.771843073 0)
(105.2946369 -3.06365273 0)
(104.2398669 -3.284591399 0)
(97.49931747 -3.30098909 0)
(100.7474627 -3.58713855 0)
(99.25631939 -3.561523215 -3.642242151e-35)
(97.78319549 -3.473180342 0)
(96.59242035 -3.322722594 0)
(95.69643173 -3.117097624 0)
(95.07246759 -2.862910016 0)
(94.68509827 -2.567669219 0)
(94.42852849 -2.168952341 0)
(94.35022417 -1.818240038 0)
(94.20705035 -1.311436454 0)
(94.16824748 -0.9488814146 0)
(94.14342919 -0.567385851 0)
(94.13291674 -0.189791796 0)
(106.9742078 -0.1828569561 0)
(106.9720544 -0.5451736615 0)
(106.9602263 -0.9123686103 0)
(106.9355342 -1.253444018 0)
(106.8229946 -1.56398193 0)
(106.7452982 -1.896298855 0)
(106.5438857 -2.207980099 0)
(106.1568683 -2.483384133 0)
(105.5273424 -2.731758104 0)
(104.3375576 -2.910654502 0)
(97.71376223 -2.938051992 0)
(100.7463805 -3.168825984 0)
(99.20757834 -3.13912651 0)
(97.67828678 -3.06118084 0)
(96.43872561 -2.934217076 0)
(95.49804686 -2.762437208 0)
(94.83450914 -2.549039119 0)
(94.41339242 -2.298032319 0)
(94.12984841 -1.952153903 0)
(94.02997329 -1.644042547 0)
(93.87825384 -1.190913766 0)
(93.83316867 -0.8644744143 0)
(93.80437863 -0.5175297998 0)
(93.79275049 -0.1734259952 0)
(107.3012357 -0.1670565867 0)
(107.2972021 -0.4969451604 0)
(107.280166 -0.8310236956 0)
(107.2472674 -1.138636483 0)
(107.1315727 -1.417698244 0)
(107.0324934 -1.712674476 0)
(106.801154 -1.985938598 0)
(106.3895899 -2.225700317 0)
(105.7242034 -2.439289735 0)
(104.4098295 -2.586060131 0)
(97.93300738 -2.625817953 0)
(100.7359289 -2.812213614 0)
(99.16114084 -2.779840782 1.372273151e-35)
(97.58769046 -2.710159644 0)
(96.30897465 -2.601195932 0)
(95.33101312 -2.455448024 0)
(94.6325214 -2.274001097 0)
(94.17974095 -2.058499223 0)
(93.86864624 -1.756905227 0)
(93.7462254 -1.48510094 0)
(93.58315267 -1.079953295 0)
(93.5301401 -0.786006842 0)
(93.49629507 -0.4710315322 0)
(93.48284145 -0.1581133524 0)
(107.5991644 -0.1524079977 0)
(107.5927639 -0.4524205981 0)
(107.5698314 -0.7560519348 0)
(107.5276307 -1.033670857 0)
(107.4072821 -1.284260252 0)
(107.2863386 -1.546680177 0)
(107.0261286 -1.787370182 0)
(106.5916037 -1.997311173 0)
(105.8923183 -2.182702057 0)
(104.4652544 -2.304785049 0)
(98.15052493 -2.356578847 0)
(100.7189314 -2.507205118 0)
(99.11691872 -2.473161422 0)
(97.50831711 -2.410229667 0)
(96.19775071 -2.315414369 0)
(95.18847584 -2.190095061 0)
(94.45920142 -2.034044408 0)
(93.97711471 -1.84732413 0)
(93.63897652 -1.582924201 0)
(93.49402494 -1.34204495 0)
(93.31801105 -0.979427059 0)
(93.2561519 -0.714340614 0)
(93.21663275 -0.4284638247 0)
(93.20087925 -0.1440520708 0)
(107.8704362 -0.1390518117 0)
(107.8613599 -0.4119851022 0)
(107.8321829 -0.6880361707 0)
(107.7801192 -0.9390917469 0)
(107.6541099 -1.164197645 0)
(107.5115335 -1.398377035 0)
(107.2240572 -1.61147871 0)
(106.7684966 -1.796373799 0)
(106.0371432 -1.958678699 0)
(104.5097961 -2.061734232 0)
(98.36236203 -2.124393395 0)
(100.6972302 -2.246140887 0)
(99.07479641 -2.211130159 0)
(97.43796543 -2.153809699 0)
(96.1011727 -2.070334354 0)
(95.06539832 -1.961306056 0)
(94.30900249 -1.825684407 0)
(93.80000214 -1.662483892 0)
(93.4358991 -1.429400011 0)
(93.26901965 -1.21482115 0)
(93.07925011 -0.8896258359 0)
(93.00812941 -0.6498799066 0)
(92.96264787 -0.3901159988 0)
(92.94429836 -0.1313470998 0)
(108.1176859 -0.1270582924 0)
(108.1057531 -0.3758130534 0)
(108.070217 -0.6272179707 0)
(108.0080959 -0.8550221957 0)
(107.8757759 -1.057513195 0)
(107.7122323 -1.267319109 0)
(107.3993593 -1.457092031 0)
(106.9247207 -1.620894337 0)
(106.1630166 -1.764173658 0)
(104.5476067 -1.852563828 0)
(98.56644337 -1.924566758 0)
(100.6721162 -2.02301382 0)
(99.03462726 -1.987531904 0)
(97.37498312 -1.934930906 0)
(96.01634691 -1.860674115 0)
(94.95795975 -1.764793454 0)
(94.17759541 -1.645749739 0)
(93.64396077 -1.501873831 0)
(93.25521696 -1.295197625 0)
(93.06732704 -1.102933217 0)
(92.86349147 -0.8104562762 0)
(92.78302855 -0.5927112902 0)
(92.73151902 -0.3560767058 0)
(92.71040492 -0.120036628 0)
(108.3435838 -0.1164512655 0)
(108.3287032 -0.3439410423 0)
(108.2868449 -0.5736192575 0)
(108.2147098 -0.7813382588 0)
(108.0756665 -0.9639188787 0)
(107.892061 -1.152814701 0)
(107.555729 -1.322904544 0)
(107.0638464 -1.468940652 0)
(106.2734261 -1.596504908 0)
(104.5815732 -1.673617055 0)
(98.76196994 -1.753369788 0)
(100.6445256 -1.833095161 0)
(98.99625622 -1.797487512 0)
(97.31809375 -1.748878337 0)
(95.94106407 -1.682181711 0)
(94.86320826 -1.596991664 0)
(94.06155578 -1.491468261 0)
(93.50536903 -1.363489833 0)
(93.09339076 -1.179081005 0)
(92.88553046 -1.005671192 0)
(92.66761881 -0.7416124869 0)
(92.5779401 -0.5427248321 0)
(92.5204768 -0.3263077654 0)
(92.49651767 -0.1101163626 0)
(108.5508611 -0.1072226795 0)
(108.5329932 -0.3163152042 0)
(108.4849332 -0.5271223448 0)
(108.4029758 -0.7177528036 0)
(108.2568811 -0.8829687701 0)
(108.054228 -1.054080961 0)
(107.6961837 -1.207455036 0)
(107.1888454 -1.338748763 0)
(106.3712362 -1.453337425 0)
(104.613679 -1.521826824 0)
(98.94904992 -1.607828321 0)
(100.6151475 -1.672605109 0)
(98.95951158 -1.637093257 0)
(97.26626458 -1.591857649 0)
(95.87357202 -1.531382558 0)
(94.77878918 -1.454911963 0)
(93.9581019 -1.360438645 0)
(93.3811505 -1.245578789 0)
(92.94738081 -1.079875615 0)
(92.72058995 -0.9222407699 0)
(92.48869998 -0.6826570034 0)
(92.39005248 -0.4996928881 0)
(92.32678446 -0.3006915119 0)
(92.2999507 -0.1015542276 0)
(108.7419459 -0.09935355995 0)
(108.7210998 -0.2928443105 0)
(108.6670074 -0.4875337649 0)
(108.5755027 -0.6639799618 0)
(108.4222434 -0.8141404847 0)
(108.2016203 -0.9703154952 0)
(107.8234214 -1.10910051 0)
(107.3021034 -1.228833911 0)
(106.4588067 -1.332666352 0)
(104.645259 -1.394623915 0)
(99.12830268 -1.485561978 0)
(100.5845023 -1.538512263 0)
(98.92420564 -1.503223938 -2.541606004e-36)
(97.21863497 -1.460817616 0)
(95.81244471 -1.405448155 0)
(94.70278632 -1.336069015 0)
(93.86497009 -1.250605638 0)
(93.2689355 -1.146761722 0)
(92.81439397 -0.996619047 0)
(92.56977353 -0.851810156 0)
(92.32420432 -0.6331654541 0)
(92.21689427 -0.463331146 0)
(92.1480116 -0.2790809901 0)
(92.11832065 -0.09431018178 0)
(108.9201131 -0.09279770433 0)
(108.8962519 -0.2733867691 0)
(108.8362517 -0.4546212506 0)
(108.7354755 -0.6195043093 0)
(108.5743903 -0.7569197776 0)
(108.3368336 -0.9006287237 0)
(107.9403794 -1.027236583 0)
(107.4055616 -1.137676415 0)
(106.5381145 -1.232744965 0)
(104.6772245 -1.289888483 0)
(99.30062266 -1.384655976 0)
(100.5529964 -1.428375405 0)
(98.89014714 -1.393381706 0)
(97.17446927 -1.353316896 0)
(95.75648839 -1.302092968 0)
(94.63359301 -1.238412522 0)
(93.78024474 -1.16018335 0)
(93.16672027 -1.065297725 0)
(92.69201876 -0.9281080344 0)
(92.43062957 -0.7936090109 0)
(92.17113571 -0.592544216 0)
(92.05547868 -0.4333315217 0)
(91.98113104 -0.2612889493 0)
(91.94855728 -0.08832144173 0)
(109.0851127 -0.08758040246 0)
(109.0583845 -0.2579345663 0)
(108.992691 -0.4282166631 0)
(108.8830088 -0.5846264231 0)
(108.715696 -0.7106900837 0)
(108.4621629 -0.8442029597 0)
(108.0492894 -0.9621929547 0)
(107.5011956 -1.063794918 0)
(106.61092 -1.152068099 0)
(104.7102419 -1.205853131 0)
(99.46698306 -1.303510029 0)
(100.5209679 -1.34021708 0)
(98.85714532 -1.305568598 0)
(97.1331133 -1.267401482 0)
(95.70466146 -1.219473488 0)
(94.56980011 -1.160268647 0)
(93.70217037 -1.087691121 0)
(93.07216912 -0.9994327041 0)
(92.57842919 -0.8729717591 0)
(92.30084305 -0.7467058169 0)
(92.02927743 -0.5609168579 0)
(91.90562095 -0.4094341621 0)
(91.82602688 -0.2472522987 0)
(91.79072474 -0.083593887 0)
(109.2495448 -0.08349303596 0)
(109.2194779 -0.2460848427 0)
(109.1478312 -0.4079570195 0)
(109.0283298 -0.5563677115 0)
(108.8492764 -0.6752358544 0)
(108.5796069 -0.8009455816 0)
(108.1511981 -0.9126786701 0)
(107.5908145 -1.006488452 0)
(106.6787601 -1.089468735 0)
(104.7448217 -1.141125148 0)
(99.62829308 -1.240863152 0)
(100.488733 -1.272519638 0)
(98.82501662 -1.238249864 0)
(97.09397737 -1.201560649 0)
(95.65604281 -1.156154121 0)
(94.51017101 -1.10033229 0)
(93.62922452 -1.032028021 0)
(92.98357265 -0.9488570529 0)
(92.47169514 -0.8307837828 0)
(92.17853316 -0.711439949 0)
(91.88928822 -0.5354953185 0)
(91.75691258 -0.3912676031 0)
(91.67187926 -0.2365609506 0)
(91.63338926 -0.07991485714 0)
(109.3762538 -0.08115849183 0)
(109.3441095 -0.2389447712 0)
(109.2679177 -0.3952294388 0)
(109.1422583 -0.5419343249 0)
(108.973942 -0.6497230947 0)
(108.6907983 -0.7700084936 0)
(108.2477712 -0.8776940602 0)
(107.6757732 -0.9649382632 0)
(106.7429764 -1.044020267 0)
(104.7813919 -1.094668219 0)
(99.78540631 -1.195876978 0)
(100.4565723 -1.224178998 0)
(98.79356284 -1.190283064 0)
(97.05649942 -1.154652011 0)
(95.6097845 -1.111034932 0)
(94.45359013 -1.057592763 0)
(93.56006281 -0.9923057927 0)
(92.8994632 -0.9127170506 0)
(92.37020071 -0.8009693177 0)
(92.06224668 -0.6867835092 0)
(91.77832493 -0.5225402785 0)
(91.64039164 -0.379909745 0)
(91.55120114 -0.2301876816 0)
(91.51080267 -0.07787081435 0)
(109.6158375 -0.07845460658 0)
(109.5790983 -0.232153634 0)
(109.4940228 -0.3837752903 0)
(109.351298 -0.52234345 0)
(109.0894963 -0.6351553925 0)
(108.7922316 -0.7517448269 0)
(108.3364341 -0.8574703675 0)
(107.7572454 -0.9384706332 0)
(106.8047787 -1.014920446 0)
(104.8203111 -1.065737286 0)
(99.93866456 -1.168153664 0)
(100.4247777 -1.194478342 0)
(98.76261339 -1.160896319 0)
(97.0201647 -1.12587019 0)
(95.56512653 -1.083318189 0)