/*--------------------------------*- C++ -*----------------------------------*\
| =========                 |                                                 |
| \\      /  F ield         | OpenFOAM: The Open Source CFD Toolbox           |
|  \\    /   O peration     | Version:  v1912                                 |
|   \\  /    A nd           | Website:  www.openfoam.com                      |
|    \\/     M anipulation  |                                                 |
\*---------------------------------------------------------------------------*/
FoamFile
{
    version     2.0;
    format      ascii;
    class       volScalarField;
    location    "2.04";
    object      omega;
}
// * * * * * * * * * * * * * * * * * * * * * * * * * * * * * * * * * * * * * //

dimensions      [0 0 -1 0 0 0 0];


internalField   nonuniform List<scalar> 
12556
(
31.93074577
31.93156608
31.93250709
31.93336352
31.96664798
31.96718866
31.9676199
31.96850107
31.97028276
31.97349388
31.97847337
31.98455622
31.98943366
31.99026709
31.98786134
31.98246867
31.97702883
31.97226377
31.9699761
31.96810443
31.93459921
31.93330312
31.93219712
31.93117064
31.79390152
31.7964424
31.79904057
31.80137756
31.83543156
31.83734633
31.83979573
31.85943389
31.86776333
31.8828517
31.90627049
31.93479318
31.95842232
31.96504493
31.95485718
31.93048458
31.90400402
31.88287777
31.85316611
31.84350782
31.80595938
31.8021416
31.79879961
31.7957813
31.65877572
31.66319478
31.6678427
31.67163861
31.70608873
31.70989691
31.71567241
31.74059292
31.76106693
31.79728129
31.85229691
31.91990643
31.96393552
31.98014959
31.9546148
31.90246994
31.84384925
31.79590184
31.74588034
31.72490103
31.68126466
31.6742494
31.66842767
31.66343384
31.52518791
31.53114184
31.53718735
31.54236976
31.57815425
31.58507696
31.59728206
31.63333365
31.6767777
31.75722491
31.87733848
32.02159784
32.11989511
32.12774751
32.04970648
31.94426373
31.83300233
31.73964376
31.6571514
31.61720552
31.56172487
31.55000669
31.54106586
31.53384565
31.39371178
31.40131656
31.40930171
31.41623435
31.45313022
31.46457218
31.48702595
31.54110405
31.63126259
31.80058994
32.0850191
32.44459611
32.724719
32.6731494
32.41079069
32.14640604
31.91420451
31.73475517
31.5970006
31.52440321
31.44877523
31.42953198
31.41641251
31.40664337
31.26359203
31.27256103
31.28205096
31.29099486
31.33144569
31.35036532
31.39031768
31.4736449
31.63588538
31.9966862
32.7173275
33.99571087
35.06980046
34.59010859
33.46576939
32.68879643
32.16662562
31.80838452
31.56950007
31.44966577
31.34375409
31.3118897
31.29318216
31.28036063
31.13589435
31.14665153
31.15827484
31.17013787
31.21354213
31.24273506
31.30735334
31.43160872
31.71312933
32.4281763
34.26294955
40.11434874
46.7861492
43.54103185
36.33211761
33.87689248
32.6824238
32.0000865
31.58210278
31.39478863
31.24580924
31.1975451
31.17117585
31.15468083
31.01014722
31.02233749
31.03599792
31.05123338
31.10082982
31.143268
31.23922942
31.40915855
31.85431106
33.06307911
36.82144221
55.52324169
72.51370569
42.96581774
36.00441291
33.53055658
32.32746008
31.6396138
31.35617634
31.15565979
31.08623413
31.05025515
31.02951451
30.88790627
30.90221361
30.91905706
30.9392
30.99472876
31.05305704
31.18391391
31.40731217
32.03592235
33.72903193
38.98777783
66.92872772
136.8224321
52.76622839
38.9427168
34.65313398
32.76282756
31.73751952
31.33178691
31.07286842
30.97963144
30.93195305
30.90630493
30.76908483
30.78526081
30.80499597
30.83064698
30.89511513
30.97178988
31.13834366
31.42213505
32.22282701
34.28424392
40.31415508
73.88891988
171.1563236
61.37781074
41.98735789
35.87226336
33.23869915
31.85699949
31.31912653
30.99748851
30.87865492
30.81831473
30.78731262
30.65596705
30.67460082
30.6982893
30.73150692
30.80156365
30.89871605
31.10084276
31.44972696
32.40812298
34.75715436
41.39875541
83.77876968
171.5149366
66.45072812
44.46119864
36.96197386
33.69056281
31.97400084
31.31369218
30.9289339
30.78566174
30.71187744
30.67489917
30.54699841
30.56757796
30.59470842
30.63518148
30.71402982
30.83252493
31.06997354
31.48611902
32.58787433
35.1929503
42.58192092
95.08988716
158.8657537
68.44043788
46.07400856
37.76425411
34.04296919
32.06843528
31.30867488
30.86672562
30.69979307
30.6136528
30.57085016
30.44459761
30.46777378
30.49969567
30.54842923
30.63210635
30.77178569
31.04425427
31.52636877
32.75999845
35.61678502
44.09925927
105.3165635
725.004641
136.7629093
68.57463522
46.85923847
38.24998771
34.26678529
32.12689578
31.2967174
30.8084012
30.62159312
30.52335009
30.47464888
30.34557234
30.37110315
30.40756821
30.46355837
30.55916066
30.72601541
31.03826215
31.58881247
32.97460524
36.17299281
46.47386949
154.393497
451.9862818
127.6272819
67.80411517
47.06925272
38.41507721
34.35756756
32.14877086
31.27380058
30.74903845
30.54748492
30.4390018
30.38502764
30.25174833
30.2797016
30.32045089
30.38292152
30.48635427
30.67347121
31.01843597
31.62522955
33.10959302
36.54966089
48.94540132
469.5959022
323.5059326
119.1144418
66.26232779
46.73950552
38.33151734
34.34255933
32.13183007
31.23822902
30.68893083
30.47607234
30.35800456
30.29964707
30.15891926
30.18920236
30.23412347
30.30349834
30.41562055
30.62055911
30.99781926
31.66182602
33.24358433
36.93936057
51.90668539
697.1077833
283.0975416
112.9063647
64.60579929
46.14572671
38.07973386
34.2425425
32.08031159
31.18773942
30.62251789
30.40171695
30.27720344
30.21502878
30.06952643
30.10217785
30.15080762
30.22583895
30.34524822
30.56575487
30.97376439
31.69586727
33.40436937
37.49530769
56.08029478
768.5514635
252.4677877
106.9989791
62.59792237
45.37420937
37.77148887
34.10401098
32.00290467
31.12431873
30.55137285
30.32578826
30.19537622
30.12989839
29.97827507
30.01309443
30.06534688
30.14652112
30.27400828
30.50798818
30.9445391
31.72080526
33.579716
38.28420253
64.10127458
786.4722876
221.784433
100.6388308
60.37409318
44.56396847
37.44331708
33.93955481
31.904173
31.04463675
30.46997094
30.24171018
30.10852907
30.04056383
29.88920955
29.92610315
29.98152957
30.06742621
30.20094373
30.44674115
30.90991852
31.73745873
33.73510355
39.2054775
77.62572025
715.2518098
196.3514784
94.9559714
58.51322583
43.862888
37.1186954
33.76009122
31.79165061
30.95330004
30.38189693
30.15316679
30.01818027
29.94885522
29.79602263
29.83462603
29.89320067
29.98470398
30.12558599
30.38201646
30.87048654
31.74779777
33.89090566
40.18677169
90.78740912
635.0889955
180.393216
91.10604648
57.11245433
43.23915962
36.80771814
33.57488594
31.66989023
30.85242027
30.28493627
30.05627642
29.92042477
29.85043038
29.70510857
29.74515821
29.80630342
29.90175194
30.04754581
30.31404968
30.82707731
31.75391939
34.0553337
41.40182147
102.5396105
566.2636588
168.1497603
87.84006096
55.99151044
42.69006067
36.51437543
33.38946048
31.54191564
30.74394608
30.18314234
29.95609322
29.82018417
29.74997032
29.60845064
29.64950895
29.71321197
29.81382708
29.96678239
30.24313423
30.78056386
31.75783182
34.23567517
43.04947948
113.1072495
506.2948788
157.9880644
84.99976283
55.06186588
42.2169763
36.24099224
33.20709713
31.41003576
30.6296033
30.07365254
29.84774721
29.71221668
29.64232271
29.51551414
29.55728586
29.62282698
29.72644607
29.8832307
30.16962493
30.73185112
31.76170389
34.44600855
45.17074324
122.6302402
453.9102414
149.3779894
82.49916266
54.25162111
41.81432233
35.9897547
33.0300205
31.27617363
30.51087966
29.9622626
29.73889045
29.6042393
29.53490929
29.41525467
29.45741151
29.52495738
29.63336677
29.79734511
30.09406217
30.68210794
31.76861566
34.71513587
47.47147761
131.0383756
407.6826602
141.9616782
80.27346681
53.52258768
41.46687136
35.76106601
32.85981228
31.14189196
30.38914309
29.84427268
29.62209054
29.48834074
29.41987976
29.32135141
29.36368192
29.43247118
29.54297648
29.70943789
30.01715732
30.63276541
31.78280187
35.07534666
49.72710409
138.2343869
366.3307508
135.4849275
78.27280068
52.8553892
41.15867316
35.55278857
32.69718856
31.0083002
30.26547576
29.72773027
29.50840841
29.37590454
29.30835266
29.21784005
29.26018732
29.33068067
29.44599882
29.62031436
29.93964898
30.58525243
31.80930803
35.53528805
51.87455567
144.391917
329.8647264
129.762933
76.45818833
52.23835217
40.87813529
35.36140063
32.54194936
30.87603286
30.14080434
29.60448457
29.38577985
29.25424843
29.18773704
29.12461259
29.16684961
29.2382442
29.35495905
29.53024017
29.86224195
30.54087729
31.85318087
36.07529605
53.90405947
149.5818255
298.0971517
124.6553333
74.79911096
51.66322538
40.61782791
35.18340956
32.3933746
30.74540384
30.01571268
29.48649109
29.27079031
29.14055516
29.07500514
29.01802282
29.06013051
29.1331595
29.25514741
29.44009018
29.7855613
30.5008788
31.91883071
36.66707072
55.82110189
153.8477645
270.7318696
120.0523661
73.27077885
51.12331115
40.37286808
35.01589646
32.25055797
30.61650252
29.8907569
29.35968334
29.14370506
29.01431936
28.94978898
28.92737674
28.9692787
29.04307066
29.16592282
29.34980965
29.71016341
30.46662965
32.00868766
37.28710928
57.62716899
157.200275
247.4266735
115.8704679
71.85303947
50.61301408
40.13987513
34.85661347
32.11264696
30.4893283
29.76612151
29.24331718
29.03054833
28.90236547
28.83871233
28.81725668
28.85902571
28.93451693
29.06340356
29.26038398
29.63655412
30.4392683
32.12292913
37.92007251
59.32829507
159.753634
227.7204498
112.043683
70.52936458
50.12757902
39.91630817
34.70380886
31.97888007
30.36383399
29.64222965
29.11297282
28.89892086
28.77144683
28.7087291
28.73141445
28.77300283
28.84927816
28.97869937
29.17134597
29.56520554
30.41994367
32.26000043
38.55604461
60.92669523
161.5903267
211.0883559
108.5201104
69.28631787
49.66303011
39.70016223
34.55609665
31.84861074
30.23997511
29.51900594
29.00151168
28.79092318
28.66447146
28.60249121
28.61645021
28.65798701
28.73608985
28.8723348
29.08401828
29.49661062
30.40931907
32.41724336
39.18780811
62.41836744
162.6888632
197.0431307
105.2596698
68.11250506
49.21586244
39.48974845
34.41235453
31.72129205
30.11772274
29.39696001
28.86569498
28.65301215
28.52719434
28.46605611
28.53825472
28.5797079
28.6587465
28.79570827
28.99739629
29.43124636
30.40965238
32.59174203
39.81126836
63.80729806
163.2050455
185.1198228
102.2280485
66.99724152
48.78259451
39.28350512
34.27162775
31.59643388
29.99712281
29.27580136
28.763784
28.55439681
28.42930508
28.36873921
28.41606584
28.45758477
28.53861385
28.68252945
28.91363574
29.36968292
30.41798472
32.78094327
40.42541772
65.10834756
163.6376765
174.8807607
99.39442476
65.93075948
48.36002142
39.08009918
34.13315624
31.47368241
29.87845769
29.15657282
28.61752545
28.40635868
28.28193197
28.22212928
28.34903737
28.39063291
28.47280736
28.61918146
28.83128242
29.31267565
30.4368326
32.98253491
41.02973242
66.3311356
163.8262506
165.9653197
96.7354987
64.90603818
47.94581242
38.87853447
33.99633255
31.35268789
29.76258788
29.03933872
28.53299719
28.32295936
28.19890077
28.13948648
28.19387891
28.23579605
28.32090147
28.47620666
28.75467417
29.26158846
30.46450054
33.19307748
41.61809938
67.46986643
163.7549979
158.1098877
94.25084018
63.92724514
47.54180219
38.6791972
33.86118349
31.23344976
29.65182456
28.92767059
28.34452322
28.13306643
28.00970903
27.95111831
66.25116205
160.8517322
81.6633358
72.8346753
205.6705062
166.9826701
82.53935689
203.2513349
207.2146323
93.737571
183.8533942
200.8918008
104.2140067
884.5526154
757.2509697
165.6103484
181.0855346
133.5671023
557.8098326
867.2513779
471.7415719
161.3754242
163.8312373
53.0842809
46.20169425
74.51869167
43.31227029
474.1428175
166.3396739
129.5353025
57.55744137
46.83106605
40.03776893
62.37297237
58.32800794
1603.774828
1131.637914
169.1921493
70.31307098
61.11075991
41.16212125
69.07331765
63.04930511
77.47276459
223.5639848
199.2600049
914.1699517
1254.537375
172.6432039
77.39862752
72.61876328
42.34413105
77.37025385
70.05206927
87.6847951
328.2329604
260.0177553
520.3537992
687.5854286
43.78705217
87.99849188
78.41927549
97.22544619
508.6497895
404.603239
1998.429831
339.0572786
394.3014612
46.0773345
109.4766438
89.5998234
114.0361131
1116.949322
732.3011218
157.79798
425.397367
549.4639128
160.8420927
191.9113933
101.2917224
155.1192356
1100.683561
499.4755858
126.3322731
403.0802756
773.152225
196.2650891
176.3349297
69.82418102
231.903835
247.5802361
197.8616706
228.6400934
1268.783281
1605.853339
188.8693241
1122.326703
977.753591
799.6600979
1119.122272
186.3174232
256.5831227
227.5634707
78.78132176
292.8382535
338.4040885
249.8138178
289.4637749
718.3231815
894.5590463
207.4879574
684.271915
541.0824372
967.7836378
708.4889185
208.2709944
400.1539713
331.7161529
89.0590366
407.1516415
511.1554461
341.4052858
402.9854109
405.9665681
501.5188331
721.196359
518.5179332
97.59413412
2937.42913
706.7940677
1078.358918
516.4858989
690.1554131
3366.59813
311.4154723
333.2772302
1756.162683
8527.259445
1127.1136
115.4839346
638.4069267
1757.646512
7538.912777
1087.492571
1726.450685
655.6813864
38.55632088
57.71485837
49.4105168
61.75243325
127.4205584
88.31586977
2768.176192
486.0013392
69.25820307
173.9383912
152.2020136
5460.203921
160.8760598
79.63763754
78.29055364
5656.700161
749.7407589
832.1069709
575.4876118
275.8500319
300.7173574
149.1783583
130.6750272
63.15247295
1348.731364
224.910123
529.3922235
139.828156
357.327348
116.7523
849.904701
1082.020026
191.1200817
415.1745452
353.5876886
523.5041123
426.6294191
193.8792073
1225.170939
4351.671373
766.6342471
74.6048668
59.78610231
92.67358541
145.4016415
71.0590844
75.77326594
3808.123683
333.4822469
2706.02434
365.4711146
1991.378469
300.7409004
1303.165126
1286.145108
1052.555549
1076.305335
2051.934368
4602.286653
583.3447744
2460.954567
1353.159045
5151.077888
2923.842807
607.8004693
442.3076401
169.720145
177.7297057
630.9365353
715.132871
5060.319821
792.3296753
223.9102264
238.0119986
207.1128417
218.6243298
789.0482008
1183.915515
1349.212232
173.5863339
845.4078314
673.4971186
1317.456961
847.1862579
177.3076156
128.3345521
381.22228
182.9615403
591.0963506
411.2440868
137.0985839
556.5277465
854.8058114
772.8223764
732.544767
233.8232807
1475.766317
234.3546212
212.0523345
1411.282979
1339.245853
1468.158462
1420.056277
216.0169268
1344.202232
1357.772384
1036.165767
357.1035255
347.7783806
359.2652603
358.4891605
1028.858322
948.9477528
317.0959404
290.6637725
343.2699208
324.8495877
966.8849644
313.6444972
316.5959601
266.6620194
269.1072246
761.5652491
5332.708837
775.4927529
438.6643453
445.6586052
371.3962508
375.622248
1278.978265
940.5673309
454.41476
1145.738488
1901.250729
573.0200309
192.8638754
203.1874977
180.6121503
189.6653728
563.9928628
1344.095193
754.3297276
767.492472
555.1616854
559.9944585
5882.642482
1034.118429
541.5160685
605.5920379
244.136635
256.2631654
1394.199572
2815.180519
1586.38727
2624.198763
1126.285757
6477.429813
2895.942359
5549.063427
1122.427527
730.7971991
3958.682021
2025.923532
3439.310625
1921.239506
2619.203166
48.28753113
117.9782429
112.6088531
171.7492401
4199.017026
7808.025872
337.8927508
147.8041309
158.0820044
1105.623934
3018.744086
4247.411514
474.792395
521.2503908
972.0579729
253.1416005
267.8183964
560.2363909
141.3953945
103.9253207
206.3548749
387.2300022
129.7851325
152.5886563
1507.65621
3691.312521
3860.995827
1209.871295
974.9494571
2695.733285
1980.364262
4536.3173
4464.314736
1198.137482
300.8261085
137.7841183
142.8299884
131.57095
136.1783968
294.9250597
160.370754
167.3534086
437.4830751
1028.880333
409.8533957
429.6374692
6393.506902
3267.679615
510.1042254
954.8759455
3327.622508
3681.099026
537.9282075
234.0953015
196.9696618
279.9711448
246.7988245
562.6221948
1303.794197
4488.845746
4545.423369
1528.249132
243.3671531
125.8661729
130.1157722
697.6426275
683.3377427
328.7267225
1873.525143
1723.610447
843.5768287
618.7665465
323.1556313
335.3291478
866.7741059
352.6361058
358.3970236
339.5796854
349.5651121
851.0783719
361.7976428
152.0484044
158.2253108
144.5841181
150.100395
357.2566184
419.6814253
1018.115517
1007.590552
1620.73551
1572.335791
489.4519834
352.9632311
736.2231418
700.0521434
1003.01986
995.4062434
391.0859866
440.1816904
906.7283569
735.3014956
5993.348667
2006.35115
731.0534702
909.8982786
532.5185956
1655.070579
1628.334557
1663.384352
604.6432737
4927.472453
8755.798521
325.1874156
374.433423
437.0848198
455.0708754
1137.248644
1842.32065
1124.684642
591.7245709
1777.807455
8066.766509
1672.804166
1489.74839
15973.00718
1098.915958
1642.342063
1694.058626
2065.913369
1526.798778
5411.132731
5480.873061
1307.482904
1708.251007
5866.864025
1409.47951
1344.531815
350.5478982
1295.201638
529.0756518
1291.345696
380.7028556
4184.450528
2891.054279
957.3110686
4922.393348
5740.741045
4578.145675
3241.772314
1036.61192
4732.489257
5843.327204
3200.730405
4499.097465
6184.878802
1957.421684
2844.46615
1338.660841
1728.093613
5566.403378
3870.595902
1130.094607
696.7295324
1833.147016
1243.535046
628.2221139
397.9779687
1129.489316
4042.915235
5105.181332
1433.503193
1228.143908
3906.693119
4051.639301
2954.138477
2797.340022
998.034712
4851.078742
4759.987096
3492.240747
4718.382937
4720.779827
1166.534165
4615.352085
3038.863764
3051.885736
3435.136318
1848.407346
873.2865016
942.5638042
3891.364458
1098.272304
1241.585167
970.8547847
1056.511064
3640.291773
3673.163184
1019.573888
1203.774261
381.6077842
403.0195586
935.3555672
760.0813159
360.9040286
376.2460634
1295.422751
1310.002299
830.3040735
296.6457365
319.1902462
269.8138219
290.042902
822.2533975
900.7001346
362.9078687
396.8442213
327.6159093
353.5390968
906.8237275
525.1484308
244.6463058
263.9368873
764.8324426
798.9301104
2377.288526
2482.08112
904.9474783
3539.95037
3564.80123
4525.055601
2429.558832
2031.48359
3438.549852
2401.783006
617.0100832
1710.484962
2269.579214
1520.403493
508.7134065
574.1152234
482.6172813
497.5340555
1482.465964
625.8779058
637.7707223
595.7165795
621.6047012
1386.073475
428.0733084
442.131597
405.4811495
423.1400857
1375.675592
1447.993574
464.6407085
477.6401111
446.7268902
460.1992518
1443.840527
4393.904524
4451.805914
1314.603983
1467.30836
4647.673736
4375.596999
957.7613874
963.5358759
930.274692
955.9072871
977.5662904
991.2519466
965.6290779
974.6850504
656.5010761
667.9922538
641.5004341
652.5689767
710.8369913
886.1397473
673.5108723
687.2530299
1619.696915
1893.210429
1292.881929
1507.560889
5566.581871
2988.462636
3268.55518
2022.105915
2874.211402
1032.638202
1024.402517
424.2141278
1648.639618
1653.756395
1614.274691
1638.621428
1700.724051
478.1736614
1535.308541
1087.644919
963.5914482
757.4995724
357.232331
1042.037664
1513.706348
992.1692642
1052.221079
1576.562701
1601.680183
1534.06702
1566.004423
387.2170369
993.0259499
982.4717196
5816.228157
1360.113692
5682.248062
4885.065948
5660.183886
1456.705509
6187.898516
1775.55717
5930.803527
5125.508549
738.2164715
822.695799
1690.400911
1660.475091
537.5359716
588.1559516
1757.931831
1693.389685
5814.169443
1180.131055
467.7625727
513.3396764
5994.030206
6795.665323
1856.697544
7379.384088
5333.751418
2109.275052
1100.764633
6443.722221
3731.407277
7154.790339
4176.331686
1582.900259
66.98904831
43.81146162
37.34961546
5779.946813
5755.910542
150.0945397
79.1451727
79.64899263
6021.695434
993.3126717
2902.216366
2004.827713
344.7083182
288.0972376
174.2552067
324.3020605
222.2440507
510.6465258
1831.709365
321.7971925
348.5741104
55.49993831
65.3773359
127.4140573
414.0484543
807.6483432
1187.299245
212.3455038
115.6192079
119.3037924
110.8791698
114.4490229
208.9241063
875.5677872
973.4721328
3175.017426
702.2985945
618.2156086
368.708668
342.5034953
356.3334457
754.7142559
1289.925547
1644.168905
581.5951903
120.5707053
124.5120954
239.4175278
301.9175838
647.1666347
620.5261789
598.2959208
531.5993329
279.7885814
640.4604653
323.7347346
337.9465289
4578.508275
4281.058426
2603.437439
1675.257016
1652.844371
1055.12375
3865.465106
5788.576411
5181.529346
1324.503011
774.0344015
853.8981901
1760.685421
1093.028029
1710.204611
1696.917279
1726.649497
2969.757975
5283.62337
3634.970343
4057.09496
5589.098946
1571.287004
1266.396345
759.2411572
1372.846525
183.764758
145.8994006
257.0496934
925.4030473
2459.344471
1737.690314
5979.737226
6306.532972
6432.643006
5342.991736
6142.514814
98.02028172
124.1508249
308.764305
3103.53054
2039.380548
1577.022318
3994.347882
3140.352646
2251.947059
4094.760668
3736.598375
5793.361485
5493.220554
3995.910983
793.3135074
853.4678637
1700.340368
5309.487867
2845.742899
3179.827582
4392.782698
2670.909695
3097.519575
1231.974915
1633.615826
1335.661181
839.2783974
573.0418491
581.2626477
1280.314755
792.456104
834.3227845
586.1537118
597.2210726
861.2533606
216.2385184
239.0048172
497.524823
629.9959351
1128.539012
815.4018315
1296.951308
1347.251777
859.0537269
1823.628115
1327.070964
1379.22664
920.5985394
922.8405846
1480.192139
1483.448314
1496.910286
1411.221584
1432.766532
1401.119067
874.0845435
878.2276604
851.9268935
857.7807992
1353.230334
1461.958299
909.9326166
913.8697693
882.6865846
887.2173561
1428.253432
663.4015537
651.5743429
304.8758912
325.755416
679.4092111
667.2167891
500.3724839
488.111695
259.2360816
1533.174693
1535.472709
1502.080572
1506.850545
1889.997278
1542.893482
1543.9087
276.9979591
520.2317903
505.3206074
5235.611646
5178.021072
3324.812963
3527.845673
5296.26248
5221.52439
5425.136237
827.2400366
1661.881857
1389.580887
307.1925402
319.2744399
612.1699279
545.9044609
294.0804574
303.8012299
1082.941446
1082.816984
751.0465606
770.0407512
1090.938369
1095.242733
5826.808109
1471.641362
963.9825476
951.1991377
12435.38024
2309.467042
1915.908673
4789.348663
3951.677231
1780.360073
1758.580974
1111.368768
6245.869334
6807.144304
6504.606039
5113.335253
1181.283428
1826.309937
1769.475416
2932.615672
1061.267536
1242.273465
5679.069615
5584.372262
4352.669298
4034.22791
2353.086352
1339.948241
1602.313024
1465.669667
3487.826386
5706.701592
4868.019168
5767.256525
5519.189552
3957.900081
206.4943316
293.3045206
962.7258612
3893.130739
3806.290448
3983.02316
3967.236147
3780.111265
2441.279912
2419.056448
2462.724879
2444.486719
3784.557057
4570.785439
2592.582488
2612.510643
2487.863925
2561.041356
4647.426658
3479.899632
2213.409284
1993.978627
2401.645934
2336.062748
3570.236062
4467.140758
2659.627897
2678.312821
2633.930376
2644.634224
4511.034019
4080.438053
4007.046211
4180.012718
3985.19441
1016.278122
708.5200344
712.1859151
1606.155463
1025.569531
1029.590249
998.6247463
1019.136307
1594.705109
5697.812838
5918.549468
5188.776854
5770.816692
1672.644349
1686.465599
1643.823326
1658.823883
2122.086894
1000.955306
1607.656592
1545.375669
1644.869009
1035.594844
1039.213837
1031.353784
1033.934595
1638.199522
1581.061813
1622.703729
1112.977506
1520.14313
2094.646262
6139.347299
5734.891561
4375.86064
5965.733364
850.4784492
1196.740459
12909.95618
1138.88805
785.379683
788.8395521
1781.154865
7704.848544
7966.044821
9290.239205
5996.705449
5608.61239
1726.015241
1714.42053
1093.964022
1690.199566
2553.578478
3599.27946
2535.969151
3390.825199
2534.678642
1020.300352
3472.945305
2575.315467
5467.599853
5667.603663
5817.823178
4402.78561
5013.480242
1371.588742
1697.826686
1140.342959
576.1277941
770.1827593
1186.984314
1289.86609
800.0444761
1160.742453
1514.253412
5576.860103
5844.990376
5485.782727
5338.442254
6088.403595
6041.861754
5901.550814
3649.437464
5224.041059
4758.425849
5855.941992
6053.927582
4066.572354
4373.806837
4815.28618
6099.16859
4982.233604
3580.263062
3910.547045
2919.611266
2108.571662
2949.76759
1559.72473
2259.959365
3013.487151
3305.43271
3062.23152
4199.985487
2635.839358
2496.373611
3592.282093
2600.24481
3923.323382
3953.808103
2484.077325
2466.591422
2511.740005
2481.95386
3978.517912
2902.329646
1746.316216
1776.037494
4795.369066
4787.111544
4082.13311
5215.234797
5030.051239
4858.418059
4802.904503
5023.573699
3817.633527
2083.933324
2323.231689
1822.5756
1912.592797
3260.037147
5525.385199
4671.095437
2580.704911
5867.053983
5617.213182
5596.595169
3635.672621
5515.726685
5340.34513
2150.367481
2424.189099
4546.040966
1271.308206
1329.018704
645.622866
720.0824841
1233.741242
860.0929577
601.68656
625.5634372
1242.119793
1206.130234
720.5100797
1242.743067
1583.378313
803.0978513
1293.81078
1278.149772
2377.588187
1632.815341
1606.930142
1794.087334
1736.296003
2513.350876
3749.225199
3502.535323
2275.521782
3346.88069
3513.878662
3144.467363
3314.718695
2236.307409
3362.385492
3288.68574
4252.914354
3141.806194
980.3476369
972.611296
1444.680698
1489.624673
934.1773757
930.8812835
1464.959248
1476.327583
1444.766433
1456.292567
867.6140463
871.1715815
1396.734387
1364.787601
861.1633747
864.2919114
900.2932408
904.3798165
1453.667226
1437.299466
892.0167595
896.230153
4427.780218
2724.189231
2739.95602
2689.425948
2704.281072
4410.050274
4417.642535
3010.263504
3485.547122
2772.847829
2840.661818
4395.893143
959.8197737
1521.999635
1512.131833
1535.87994
1529.381838
961.5521777
947.6188095
1478.645135
1461.337875
1502.84556
1491.794246
953.2042866
982.5478666
1578.843748
1569.304355
1592.832507
1583.558951
984.9910745
968.163759
1548.506006
1542.825816
1563.63604
1554.936498
970.7682497
1522.994683
1526.695758
660.1954125
948.1148254
945.6047413
954.2853022
952.2364626
664.5740634
1513.159145
1517.433084
1586.085363
1504.553024
731.5322579
1008.67816
1018.170175
1426.975067
1374.79438
808.2388655
675.8910179
960.9824124
959.9693709
968.1143784
971.7845236
685.6746875
1554.201406
1547.213406
5189.904986
5049.371989
5373.756382
3769.305903
4420.148617
3084.279788
5031.509509
5095.957908
5017.768372
5029.675084
3149.46956
2254.051608
4294.335232
3637.261298
4936.565718
5069.504463
2604.026532
1036.789519
731.9002597
733.6491354
718.5236698
721.0405117
1024.988507
1649.044332
1662.496171
1619.822987
1635.978575
1607.434377
2035.118517
1472.360134
863.3341701
949.6552603
759.4339654
781.6060122
1076.886226
1421.632248
1957.972626
1554.048138
1478.290071
1003.679333
1606.08543
1593.376882
1641.244123
1598.648027
999.8628349
1583.818544
1595.107872
1546.121089
1557.454097
5461.799233
3577.179829
3819.013684
2690.325067
3207.305306
5554.416614
5603.76966
5425.961333
4157.364546
4751.019674
5947.214451
5741.194373
4328.802051
4582.553257
3450.161313
3905.149327
5913.917825
1717.579485
1718.632841
1701.001231
1704.317545
1136.137106
1147.811387
798.9322964
1778.736203
1682.808091
1736.104947
1726.943187
1676.059366
1048.219949
1055.86045
1041.139156
1046.451613
1672.438138
1711.703123
1068.945326
1124.77169
1057.424839
1071.794772
1714.870394
5610.62291
816.5274375
821.8120806
1183.453762
5833.078892
8706.948525
9055.181195
8545.134322
8553.65867
6450.472779
1806.087404
6413.685889
4606.177422
4989.82401
1109.069521
1749.825173
1733.919596
6407.568843
7040.033032
6790.682051
5552.758817
6047.202609
7456.921234
7093.325701
4560.785783
6717.489772
5787.984247
2162.529464
1740.55895
1170.229782
31.7694716
31.78109184
31.86487722
31.78602651
31.80729516
31.87780825
31.81559443
31.84913266
31.89893286
31.86130864
31.90318398
31.92677759
31.91639842
31.9496962
31.9530118
31.95562013
31.96935381
31.9647791
31.96955838
31.95699656
31.96011342
31.94951888
31.91540877
31.93795459
31.90367078
31.86646357
31.91105148
31.85551967
31.82345117
31.88797869
31.65889233
31.68374074
31.75489823
31.69491702
31.74179147
31.78687046
31.76083153
31.83420722
31.83831495
31.86064763
31.95119858
31.90479225
31.97651867
32.0356063
31.95633281
32.05189171
32.07068482
31.98048907
32.0615667
32.03296101
31.96349949
32.01379378
31.94749629
31.91656773
31.92412095
31.85266043
31.8572736
31.82978894
31.76741766
31.80561694
31.562835
31.61462036
31.66311512
31.63847136
31.73589176
31.73300213
31.77789577
31.9422643
31.8441933
32.00625355
32.21566458
31.98384286
32.25812059
32.43456251
32.10586554
32.45981482
32.49162229
32.12676176
32.43534787
32.34630781
32.06998602
32.29144493
32.1309079
31.97213736
32.07778113
31.92628175
31.85987859
31.88068392
31.76287633
31.75920708
31.48783674
31.58309591
31.60282972
31.62896975
31.83216031
31.74760013
31.9280468
32.32831981
32.0034783
32.49765446
33.16681521
32.33261794
33.31809029
33.8896439
32.6775551
33.99379509
34.01415132
32.66348077
33.74043
33.30202633
32.46931318
33.11785803
32.65352404
32.2128764
32.51810557
32.1767129
31.9675144
32.0810472
31.84950116
31.77347985
31.44009257
31.60240229
31.58381441
31.68839369
32.09461802
31.87966424
32.29722582
33.26365804
32.49239225
33.75809332
36.38583427
33.53756005
37.43014101
43.87763368
34.89044381
43.83856466
41.31856661
34.68014294
39.09464014
36.12047067
33.69096629
35.37531097
33.87115145
32.85770661
33.51868013
32.72529352
32.27724338
32.52360082
32.0622905
31.88728198
31.41347314
31.67683644
31.61562503
31.81843994
32.52191445
32.1845814
32.90025884
34.92711414
33.61473513
36.1562365
47.65187455
37.58361129
44.12264249
51.02015645
42.17340313
63.91680995
61.74473769
46.58147734
49.65014816
43.62577248
40.82523925
40.91483247
36.28713834
34.31864787
35.42093698
33.67456437
32.91796641
33.28097609
32.43762736
32.13801655
31.40609901
31.78557771
31.69815504
31.98927343
33.01255211
32.63712053
33.57189893
36.65193888
35.3953307
37.46981725
39.84433188
38.9613804
57.87866001
65.97458242
62.63110537
97.0115779
68.66689121
57.27268868
50.27688631
39.96575427
37.06754496
38.25171646
35.04524153
33.98039827
34.36709995
32.9653746
32.55449023
31.41712644
31.91447538
31.81723847
32.17580933
33.46354293
33.13097271
34.15506125
37.83812919
36.99187773
39.38044456
42.42033477
41.91040316
67.76417809
80.56539408
79.26561034
154.7722326
95.5061043
85.87152183
59.53815248
43.96231367
40.91460412
41.36979526
36.58151932
35.39654639
35.5877392
33.5722728
33.11084515
31.44187644
32.04936694
31.94815306
32.36131597
33.85890332
33.56712458
34.64416195
38.72424882
38.06847585
40.6118644
44.04460998
43.64431502
75.01022088
99.84902718
96.86494364
174.1422626
110.1036009
106.2632195
65.50345367
47.19154818
44.79677958
43.98251798
37.9870146
36.92353318
36.71902932
34.15442046
33.71641955
31.47593109
32.1853722
32.08442685
32.54251712
34.22112493
33.95196912
35.08724167
39.56777208
38.91925481
41.7292594
45.69362591
45.17321136
85.04438666
116.2500515
112.8114655
167.6336587
112.620212