/*--------------------------------*- C++ -*----------------------------------*\
| =========                 |                                                 |
| \\      /  F ield         | OpenFOAM: The Open Source CFD Toolbox           |
|  \\    /   O peration     | Version:  v1912                                 |
|   \\  /    A nd           | Website:  www.openfoam.com                      |
|    \\/     M anipulation  |                                                 |
\*---------------------------------------------------------------------------*/
FoamFile
{
    version     2.0;
    format      ascii;
    class       surfaceScalarField;
    location    "2.04";
    object      phi;
}
// * * * * * * * * * * * * * * * * * * * * * * * * * * * * * * * * * * * * * //

dimensions      [0 3 -1 0 0 0 0];
oriented        oriented;


internalField   nonuniform List<scalar> 
25162
(
0.0004273703111
0.9162226297
0.000524385376
0.9166029849
0.000612705382
0.91656168
0.0003014667986
0.9165826592
0.0003785793767
0.4583375608
0.0003139060295
0.4583054425
0.0003903606144
-0.0003958031313
-0.0004967224356
0.4582795546
0.0005671678721
-0.0006358875519
0.4582259658
0.0007449217448
-0.0008647695868
0.4581991312
0.0009956383511
-0.001146244425
0.458172056
0.00130918839
-0.001475248884
0.458168396
0.00164185286
-0.001804965789
0.4581981897
0.001938276059
-0.002044310881
0.4582664241
0.00211138678
-0.002133420486
0.4583564918
0.002111928728
-0.002048758928
0.4584343401
0.001944418778
-0.001819329479
0.4584772475
0.001677081933
-0.001515991066
0.458486566
0.00136442508
-0.00121265549
0.4584912814
0.001036374125
-0.0009583411988
0.4584625941
0.0008457470963
-0.0007000306999
0.4584685423
0.0005814884479
-0.001592873805
0.9187031001
7.234543587e-05
-0.0005325716987
-0.0009965154319
0.9187536416
3.789171936e-05
0.9158155929
0.9138378917
0.001174079906
0.9150485498
0.001854050608
0.9159230142
0.002101222557
0.916314508
0.0005999280988
0.9171025945
0.0009813591649
0.4580666663
0.000725126037
-0.4581918642
-0.4581698551
-0.0009007112905
0.4579480364
0.001122530006
-0.4580156999
-0.001399038103
0.4576804513
0.0008154329743
0.0009188537916
-0.2289414994
-0.0009972081523
0.2288524067
0.001086300881
-0.001471014253
-0.228871898
0.2287531478
0.001589764404
-0.002080335259
-0.2288104144
0.2286546555
0.002236094148
-0.002807336305
-0.2287912601
0.2286173093
0.002981287065
-0.003537966839
-0.228845884
0.2287432671
0.003640482007
-0.003462654066
-0.2290052442
0.2288108774
0.003657192011
-0.004282809889
-0.2291997531
0.2291675479
0.004315015109
-0.004110236988
-0.229334413
0.2294146656
0.0040299844
-0.003619381151
-0.229418989
0.2295756097
0.003462760515
-0.002958242924
-0.2294352528
0.2296159918
0.002777503913
-0.002296362475
-0.2294027477
0.2295685134
0.002130596753
-0.4589041994
-0.003294321448
0.4603708864
0.001827634447
-0.0004870497772
0.4609968997
-0.001227233179
-0.4592826167
-0.001353981383
0.9183582713
0.0002239423098
0.001474867806
-0.0008285129984
0.9182281732
0.0004314140269
0.9145556658
0.9142693058
0.001477950534
0.9135705993
0.003990557313
0.9134104075
0.006782222217
0.9135228431
0.002784517304
0.91487432
0.006225979412
-0.4580086157
0.4578294571
0.002963675914
-0.457747012
-0.002959835747
0.4583743254
0.002332522375
-0.4572242889
-0.00244435912
0.4569538172
0.001314378746
0.001400452146
-0.2284200824
-0.001645153073
0.2282322692
0.001832966244
-0.2281567478
-0.0025111452
0.2278919554
0.002775937557
-0.2279761838
-0.002857273638
0.2319378472
-0.001115617555
-0.2355906587
0.0147696652
0.2392767598
-0.01850630797
-0.2342160157
0.02664015564
0.2358213044
-0.02828222043
-0.2275418093
0.0300565705
0.2270719836
-0.0295803348
-0.2217941937
0.02506668434
0.2193274986
-0.02255517651
-0.223197291
0.01211874867
0.2189038047
-0.007779333163
-0.2303020206
-0.005934758776
0.2297455575
0.00649337515
-0.2304036255
-0.005467206356
0.2307548022
0.005116029625
-0.003828648243
-0.2303307596
0.2310225714
0.003136836471
-0.4630461476
-0.0004882859119
0.4619487758
0.001585657732
-0.4601413927
-0.001656636551
0.4601945889
0.001603440312
0.0006029120213
0.9203583558
-0.001494396329
-0.001108600163
0.001885811736
0.9169452735
0.0008802376349
0.9155612399
0.9151495434
0.0004595221066
0.9131110772
0.001024789975
0.9128451396
0.002208856678
0.9123387764
0.003111235276
0.9119146159
0.00205732549
-0.4570667425
0.4566348893
0.003543088449
-0.4598955572
-0.004763984147
0.4568268516
0.007832689783
-0.4583885774
-0.009122824605
0.459900518
0.002123455664
0.005487428319
-0.2275431503
-0.002136322782
0.2273236953
0.00235577775
-0.2291792615
-0.001702138738
0.2342648999
-0.003411464886
-0.2463281098
0.01796573014
0.2503747686
-0.02213666826
-0.2482755807
0.03159890867
0.2502044811
-0.03365805134
-0.2389629531
0.03693020551
0.2392154145
-0.03725232804
-0.2257388995
0.03690625816
0.2253437404
-0.03649512714
-0.2135756397
0.03429965515
0.2124882883
-0.03311579591
-0.2078347017
0.02732477677
0.2051459589
-0.02449575779
-0.2147934116
0.01322678775
0.2103750242
-0.008699014087
-0.2344094137
-0.001377177635
0.2367700919
-0.0009786760795
-0.004177126815
-0.2319667492
0.2320141818
0.004129694221
-0.4620402822
-0.006336595427
0.4633741492
0.005002728424
-0.4609986855
-0.003682650854
0.4620863615
0.002594974921
0.003538304336
0.9206237205
-0.002004248374
-0.0017994206
0.002418230075
0.9180653478
0.001119649307
0.9168598207
0.9162691927
4.75693179e-05
0.9130635078
0.0001600107294
0.9127326982
0.0004517081456
0.912047079
0.001153684299
0.9108810745
0.0003315652925
-0.4563611718
0.4555443849
0.001970471163
-0.4553777255
-0.002412006449
0.4547240008
0.003065731174
-0.4537635526
-0.003965953925
0.452937359
0.002542983355
0.002249164099
-0.2279088126
-0.004409256812
0.2265551847
0.005760998477
-0.2484861813
0.002897728974
0.2542911864
-0.008853811345
-0.2588291441
0.02129014833
0.2603118969
-0.02299206265
-0.2515919687
0.02380317375
0.2504211562
-0.02280547432
-0.2367685965
0.01746296091
0.2346853468
-0.01545499619
-0.2244209267
0.01127022323
0.2241949052
-0.01102562979
-0.2127072262
0.01329981221
0.2142912911
-0.01476978059
-0.2014256952
0.01889592538
0.2019495725
-0.01921757021
-0.2113034436
0.02772026719
0.2035062253
-0.01970575019
-0.2168802873
0.00622736388
0.2131384311
-0.002364768545
-0.006030733194
-0.2335300438
0.2341360651
0.005424711894
-0.4651747053
-0.00739633247
0.4669156616
0.005655376162
-0.4631351736
-0.004372109739
0.4642227658
0.003284517593
0.00435193789
0.9228495935
-0.003661148954
-0.002916661962
0.002420284596
0.9199970011
0.001102208752
0.9181778966
0.9173714014
-0.0002638736806
0.9133273815
-0.0004174796482
0.9128863042
-0.0003022636562
0.911931863
7.087361584e-05
0.9104804256
2.751161576e-05
-0.4546673282
0.4543522239
0.0003859779106
-0.4541907736
-0.00135925744
0.4534031048
0.002146926229
-0.4520598644
-0.002732514307
0.4509906668
0.001875484125
0.001926227758
-0.2348633625
0.0002108507901
0.2374699918
-0.002896748845
-0.257726009
0.009659620037
0.2589833583
-0.01116274713
-0.2604288669
0.0102589596
0.2575517415
-0.007650473187
-0.2417533758
-0.00317651967
0.2413019393
0.003472826598
-0.2242432486
-0.01881822243
0.2204514095
0.02257384619
-0.2231303394
-0.03321237191
0.2227810586
0.03356537814
-0.2257098456
-0.0223831863
0.2300091514
0.01814896446
-0.215258108
0.001437436012
0.217004324
-0.002980578093
-0.1981298949
0.00596978743
0.1990215239
-0.006584250176
-0.2054994544
0.004818763685
0.2042233802
-0.003318872367
-0.003373124923
-0.2329779848
0.2314343128
0.004946971366
-0.4684749243
-0.007632003331
0.4700564334
0.006050494257
-0.4649213044
-0.004869805983
0.4655738929
0.004217217552
0.003655804073
0.9254601618
-0.003021476493
-0.00324489587
0.002016475669
0.9216363295
0.0008478013905
0.9193465708
0.9182192028
-0.0007175271545
0.9140449087
-0.001292494369
0.9134612714
-0.001689645729
0.9123290144
-0.0003496121549
0.9102700819
-0.001129689875
-0.4542319201
0.4539310734
-4.876541608e-05
-0.4523367056
-0.000186260054
0.4519549142
0.0005680514697
-0.4505553587
-0.0015686319
0.4502469361
0.0009728042606
0.0009032282809
-0.2420837569
0.001817305103
0.2431979156
-0.003080180707
-0.2622829311
0.005252476507
0.2586926187
-0.001970463683
-0.2508465784
-0.0003406849201
0.2485958425
0.002324256254
-0.2232838468
-0.01283142282
0.2169993855
0.01902524405
-0.2080828705
-0.0391409615
0.1055920868
0.09981377151
0.01873019149
0.02308778214
-0.02840014161
-0.1087655621
0.1081865301
0.02897917355
-0.02306120596
-0.2494130342
0.04378867227
-0.02346223077
0.125655498
0.1264923007
-0.02637239585
-0.2287270912
0.234678135
0.02055556819
-0.2052689706
-0.009259979135
0.2095466456
0.005274281979
-0.2044048044
0.0008996295015
0.2046008856
-0.0008097695779
-0.00142054817
-0.2252169281
0.2241323241
0.002615086375
-0.4716396917
-0.006477961947
0.4726772429
0.005440410744
-0.4666614552
-0.004142912751
0.467723316
0.003081051981
0.002153143521
0.9273236434
-0.001863260656
-0.002153364448
0.001034779736
0.9227546933
0.000394831904
0.9199865187
0.9186140347
-0.001196356322
0.915241265
-0.002328419129
0.9145933342
-0.003243504234
0.9132440995
-0.001720472369
0.9110798653
-0.00233281522
-0.4539286851
0.4539544792
-0.001746266409
-0.4517868648
0.001818639392
0.451698019
-0.001729793567
-0.4493713995
0.001559713449
0.4496875147
-0.0006790169029
-0.001213464422
-0.2440171898
0.0002290176304
0.2435572076
4.603844197e-05
-0.2561269046
-0.001682113332
0.2551550333
0.002329778546
-0.2418442905
-0.005465040629
0.2402443124
0.006807466706
-0.2063085569
-0.01130778117
0.204711375
0.01287443421
-0.09227265229
-0.008368225701
0.09215994015
0.008480937844
-0.03027589951
-0.1385633139
0.1413520035
0.02748720986
-0.03067155759
-0.2534272686
0.2585914693
0.02557879608
-0.2180359766
-0.01504605844
0.2208070772
0.01255761639
-0.2078200044
-0.007094950129
0.2094395011
0.005794320105
-0.0007909474784
-0.2234658393
0.2233592311
0.00105851779
-0.4740522231
-0.003822571197
0.4751625562
0.002712238116
-0.4685562825
-0.001944933416
0.4692340985
0.001267117425
-0.0002456176806
0.9281690112
2.557816044e-05
-0.0006253283626
-0.0004257047491
0.9229347803
-0.0002759062038
0.9198367201
0.9183381285
-0.001673071585
0.9169143366
-0.003266548807
0.9161868114
-0.004915847431
0.9148933981
-0.00288920891
0.9125516997
-0.003498472946
-0.4542057486
0.4544470262
-0.003130486478
-0.4518004593
0.003403911647
0.4520511214
-0.003654573728
-0.449848212
0.003877105931
0.4503147659
-0.002081946546
-0.002297958346
-0.2429290371
0.0023666767
0.2424875566
-0.002134598962
-0.2514680606
0.0004836446424
0.2503479268
0.0002948452472
-0.2360961641
-0.002710396463
0.2351787639
0.003371998435
-0.2038099395
-0.00416006543
0.2042342264
0.003722032145
-0.09584091232
-4.596996038e-05
0.09643492855
-0.0005480462773
-0.0134983102
-0.1543978002
0.154992948
0.01290316247
-0.01722765064
-0.2702054435
0.2722806604
0.01519346199
-0.2288985496
-0.009556306684
0.2308636021
0.007869869744
-0.214073825
-0.00351999404
0.2154637417
0.002470141458
-0.0004217003401
-0.224687173
0.2251301931
0.0001634423527
-0.4764455089
-5.549565267e-05
0.4774096656
-0.0009086610898
-0.4695545739
0.001327706291
0.4696902286
-0.001463361053
-0.003122219402
0.9274785168
0.002203303716
0.001609410147
-0.002199703662
0.9220122646
-0.001141770983
0.9187787874
0.9171963576
-0.002113932044
0.9190282686
-0.004334394388
0.9184072738
-0.006483524492
0.9170425283
-0.004059531388
0.9148080253
-0.004680318704
-0.4549201902
0.4553888998
-0.004528241008
-0.4524019136
0.005060874583
0.4529992169
-0.005658177811
-0.4509238322
0.006229114718
0.4518935691
-0.003420362052
-0.003834317705
-0.2411791968
0.003834353868
0.2408098175
-0.003692295936
-0.2473645672
0.002537249596
0.2464840765
-0.002013828057
-0.2331973216
0.0005952866323
0.2326753935
-0.0003321847867
-0.2061412285
0.0006979184397
0.2068321487
-0.001396822534
-0.09936303225
0.002174599401
0.09966774561
-0.001223554606
-0.001255758161
0.004323851848
-0.1527887023
0.1518373531
-0.003372502594
0.0002101174655
-0.272421205
0.271043607
0.001212220103
-0.2338170995
-0.002550749717
0.2343150777
0.002338095527
-0.2192259837
-0.0008133230784
0.2202291729
0.0001562464333
0.001565870578
-0.2273389252
0.2279484205
-0.001988704599
-0.4773068214
0.005019112069
0.4766509313
-0.004363222038
-0.4694117558
0.004088146426
0.4696066101
-0.004283000739
-0.006275676982
0.925185585
0.004651332606
0.003917276145
-0.004108140373
0.919844728
-0.002070725194
0.9167413723
0.9151256324
-0.002636953953
0.9216652226
-0.005262212843
0.9210325327
-0.008025885627
0.919806201
-0.005193556168
0.9177636581
-0.005787962325
-0.4560742723
0.4567561074
-0.005875391245
-0.4536871957
0.006697772516
0.4544571807
-0.007467757541
-0.4532106481
0.008353836741
0.4547726783
-0.004888435092
-0.005111747309
-0.2398104004
0.005172229436
0.2395036695
-0.005113322839
-0.2440875348
0.004335061525
0.2433567162
-0.003977644339
-0.2314382434
0.003167276781
0.2311153099
-0.003104848787
-0.208995157
0.003912087102
0.2097404164
-0.004660439941
-0.1014444198
0.00351299938
0.10164607
-0.001841721812
-0.00187292778
0.01405539227
-0.143425183
0.1420946676
-0.01272487683
0.01256560061
-0.2637473653
0.2604729732
-0.009212906801
-0.2335969938
0.002635611372
0.2344086125
-0.003149735328
-0.2226397536
0.003176457159
0.2233007715
-0.003490119797
0.00469792062
-0.2302838934
0.230787435
-0.005033757992
-0.4755731066
0.009765615927
0.4741288836
-0.00832139286
-0.4696148252
0.007054403474
0.468475028
-0.005914606286
-0.0091761444
0.9215617784
0.006661614573
0.006138336498
-0.005940644332
0.9166092279
-0.002917078501
0.9137178065
0.9122085539
-0.003112280429
0.9247775031
-0.006244395435
0.9241646477
-0.009505926292
0.9230677319
-0.006219381643
0.9210610603
-0.006583946784
-0.4576219704
0.4584694822
-0.007066893506
-0.4554455102
0.008044578189
0.4564921996
-0.009091267554
-0.4563220759
0.01023270004
0.4576941643
-0.00593981766
-0.005784184004
-0.2386384147
0.006318018976
0.2383735195
-0.006323328632
-0.2413265599
0.005795619003
0.2406955899
-0.005554166105
-0.2303629346
0.005105354084
0.2301680123
-0.005170432654
-0.212119718
0.006327041088
0.2129835177
-0.007191135379
-0.1029588817
0.004823721572
0.1031524543
-0.002488632203
-0.00252866194
0.0174918118
-0.1330891973
0.1317942066
-0.0161968211
0.01817197722
-0.2510175777
0.2479043176
-0.01492566245
-0.2324012817
0.0101089063
0.2301310896
-0.007511475311
-0.2245469932
0.005426647624
0.2246898849
-0.005235405467
0.007345896986
-0.2321900571
0.2324803681
-0.00750502119
-0.4723861687
0.01357313408
0.4703750877
-0.01156205301
-0.4672381645
0.009820816379
0.4657444265
-0.008327078441
-0.01171450563
0.918433509
0.00772160879
0.007121166274
-0.007518186485
0.9124129088
-0.003648475588
0.9098480956
0.9085600783
-0.007227192956
0.932004696
-0.01462926209
0.9315667168
-0.02212884809
0.9305673179
-0.007307274336
0.9289884636
-0.022748977
-0.4595193154
0.460570191
-0.008358149887
-0.4575835755
0.009506306637
0.4588677459
-0.01079047696
-0.4597157514
0.01207195265
0.4611117122
-0.006890271643
-0.006781420593
-0.2373757691
0.007659211529
0.2372961531
-0.007877480348
-0.2388699659
0.006884423999
0.238123462
-0.006541060101
-0.2297385137
0.005872849113
0.2300639064
-0.00645869694
-0.2158480025
0.008044266144
0.2168763859
-0.004515467269
-0.004557182242
-0.05246877778
0.003090285607
0.05253719612
-0.003158703938
-0.05820541199
0.006461391002
0.05771396534
-0.01257520747
0.006605263117
0.01597028483
-0.1241113606
0.2446748832
-0.0280421715
0.01557445555
-0.1240660914
-0.2402476936
0.0181447287
0.2370106836
-0.01471105714
-0.2277299607
0.01105046332
0.2273993653
-0.01035769697
-0.225694959
0.009845995434
0.2260584895
-0.00989030981
0.009909960694
-0.2334285512
0.2333137436
-0.00972210766
-0.4680333202
0.01598887483
0.4656983284
-0.01365388303
-0.4641958898
0.01183450106
0.4625292858
-0.01016789696
-0.01365640401
0.9141026884
0.009225249942
0.008761974647
-0.008772997758
0.9075295026
-0.004307569707
0.9053826676
0.9042525086
-0.003699334798
0.9357040308
-0.007493455135
0.9353608372
-0.01148259822
0.934556461
-0.007792984826
0.9332860238
-0.007987173657
-0.4636503595
0.4647655281
-0.008908153445
-0.4619487436
0.01014629688
0.4632750776
-0.01147263087
-0.4630379176
0.01291225358
0.4634654163
-0.006786740947
-0.006788695048
-0.2364211756
0.00657833218
0.235881725
-0.006351787655
-0.2365533817
0.005540898943
0.2359653271
-0.005360344431
-0.2296108276
0.005651777642
0.2298611895
-0.006145656301
-0.2205372537
0.009101528543
0.2216588317
-0.005098532629
-0.005124573922
-0.05442889955
0.007209005687
0.1092541683
-0.054377863
-0.003818911626
-0.00383749976
-0.1120886435
0.00874238266
0.1119894861
-0.01714215826
0.008498932955
0.02756106292
-0.2376665016
0.2353812706
-0.02526694393
-0.2314952407
0.01463665378
0.2306564205
-0.01353686654
-0.2275895759
0.01202165564
0.2271144254
-0.01117626188
-0.2271348148
0.01020779926
0.2283162077
-0.01112679985
0.01082488221
-0.2331973416
0.2327351591
-0.01035197756
-0.4636235541
0.01682855619
0.4617582156
-0.01496321766
-0.4608487794
0.01317488067
0.458936983
-0.01126308421
-0.01323260039
0.9089198411
0.009142312638
0.009273135158
-0.009550336157
0.9038472384
-0.004668421319
0.9005007527
0.8995840873
-0.00388202563
0.9395860565
-0.00785815187
0.9393369634
-0.01202500548
0.9387233146
-0.008172760011
0.9377421845
-0.008308406102
-0.4659745821
0.4671681108
-0.009366288771
-0.4646264755
0.01065493589
0.4659924269
-0.01202088726
-0.4639437387
0.01348965199
0.4648623921
-0.007164805799
-0.007329136478
-0.2341441078
0.006961680016
0.2336244948
-0.006705886123
-0.234089871
0.005755630663
0.2334562486
-0.005507301499
-0.2305630136
0.005497385499
0.2306461706
-0.005860977894
-0.2254927252
0.008336132537
0.2267417769
-0.009643691584
-0.1123583015
0.01350562997
0.2241282759
-0.01324071326
-0.1120348911
-0.2264890922
0.0194622791
0.2270766296
-0.02004981647
-0.2306113708
0.0186016754
0.2297762905
-0.01766181682
-0.2282945895
0.01535262412
0.2281180579
-0.01485690552
-0.2263400993
0.01414459208
0.2266556596
-0.01407944654
-0.2282993294
0.013919591
0.2279284413
-0.01335129597
0.01241138622
-0.2320775827
0.2296799055
-0.01001370899
-0.4601058026
0.0183655161
0.4568090686
-0.01506878203
-0.4570170051
0.01343626331
0.4548640581
-0.01128331621
-0.01363182696
0.903868517
0.009415592024
0.009267559062
-0.009622276557
0.899837688
-0.004885378378
0.8957638546
0.8946987089
-0.00397243364
0.9435584901
-0.008030838405
0.9433953682
-0.01226040562
0.9429528819
-0.008344856684
0.9422345369
-0.008407901323
-0.4683811237
0.4695935603
-0.009557293383
-0.4673544076
0.01084496229
0.4687049947
-0.01219554944
-0.4662676699
0.0136331507
0.4677965328
-0.007588073928
-0.007574126633
-0.2326858346
0.008204658733
0.2326716578
-0.008350107958
-0.2317520192
0.008321782206
0.2313511938
-0.008237188151
-0.2303197703
0.008105726283
0.2300968889
-0.008176718093
-0.2288318911
0.00891912881
0.2290963648
-0.009341010055
-0.2233285345
0.01081484709
0.2229026971
-0.01042390446
-0.2282300378
0.01366333891
0.2286686928
-0.01404876844
-0.2291248153
0.01446437252
0.2293140504
-0.01446557622
-0.2285053195
0.01437136857
0.2288021163
-0.0143536658
-0.22766899
0.01431636507
0.2279196519
-0.01426529713
-0.2278050874
0.01376760201
0.2275703745
-0.01342582602
0.0116705652
-0.2276290869
0.2270005822
-0.01104206056
-0.4559353991
0.01847954095
0.453131788
-0.01567592984
-0.4519149807
0.01217765385
0.4502536576
-0.01051633076
-0.01276643575
0.8974103328
0.009863276509
0.009361343365
-0.007187799282
0.8942590515
-0.004929920455
0.8935059757
0.8897687885
-0.003978961476
0.9475374516
-0.00803212146
0.9474485282
-0.01222905214
0.9471498126
-0.008334310442
0.9466520765
-0.008312281333
-0.470783059
0.4719691107
-0.009520362155
-0.4700281157
0.0107662021
0.4713202012
-0.01205828758
-0.4692787775
0.01341542108
0.4707032174
-0.007449041937
-0.007390818996
-0.2338275278
0.008207535091
0.2345371068
-0.00893820132
-0.2310941119
0.01095241827
0.231415344
-0.01146414919
-0.2296254073
0.01260523542
0.2296743477
-0.01288829644
-0.2293567107
0.01360666516
0.2294296165
-0.01384445068
-0.2210629098
0.01410231467
0.2203044384
-0.01339196597
-0.2299246006
0.01592070419
0.230256019
-0.01617659149
-0.2302094582
0.016631405
0.2304406963
-0.01667255776
-0.2295186386
0.01642475101
0.2295537678
-0.01621706661
-0.2279530593
0.0151877935
0.2276311484
-0.01469827923
-0.2260653778
0.01277380529
0.2255344063
-0.0122419054
0.01069565706
-0.2253240279
0.2248155634
-0.01018719258
-0.4493600265
0.01731941549
0.4475766001
-0.01553598915
-0.4486228641
0.01383606376
0.4469798711
-0.01219307078
-0.01185424478
0.8901353597
0.0104385504
0.008690667473
-0.006740445995
0.8891452527
-0.004540828477
0.8913063583
0.88522796
-0.003915860489
0.9514533121
-0.007891976788
0.9514246445
-0.0119796555
0.9512374912
-0.008165093038
0.9509105757
-0.008073061702
-0.4731157635
0.4742469484
-0.009296277972
-0.4725696965
0.01047353013
0.4737766753
-0.01168050898
-0.4720629238
0.01293003503
0.4733534689
-0.007154265527
-0.007066314578
-0.2357200964
0.007824142751
0.2360607154
-0.008164761766
-0.233768809
0.009658168218
0.2349870847
-0.01091058432
-0.2308823127
0.01420026974
0.2316805471
-0.01511404688
-0.2301270175
0.01730268584
0.2305889802
-0.01786866308
-0.2181255453
0.01801885955
0.2175976428
-0.01752204758
-0.2308037483
0.01973224368
0.230820297
-0.01968978151
-0.2304297768
0.01900623676
0.2301351117
-0.01858928644
-0.2286379377
0.01676493828
0.22795999
-0.01597459237
-0.2254964279
0.01312694005
0.2247395626
-0.01235780313
-0.2241805995
0.01123904691
0.2237890605
-0.01084750793
0.009648593354
-0.2234744389
0.2230683344
-0.009242488821
-0.4459302527
0.01592940588
0.4444158865
-0.01441503965
-0.4454655086
0.01293633691
0.4440069435
-0.01147777181
-0.01457938312
0.8848648035
0.009792159262
0.01005778008
-0.009573437104
0.8841393067
-0.001923256723
0.8836561779
0.8833047033
-0.003797339452
0.9552506516
-0.007639948998
0.9552672541
-0.0115607003
0.9551582426
-0.007871514729
0.954950863
-0.007729472857
-0.475331821
0.4763933207
-0.008933014448
-0.4749329074
0.01002702918
0.4760413173
-0.01113543914
-0.4745734963
0.01226699035
0.4757241082
-0.006762304879
-0.006655297389
-0.2370099238
0.007348766703
0.2373034184
-0.007642261247
-0.2363338056
0.008519050913
0.2366233606
-0.008808605848
-0.235085609
0.009658752816
0.23546794
-0.01004278099
-0.2327006524
0.01305116788
0.2335996969
-0.01397202818
-0.2170862729
0.01469970599
0.2172734871
-0.01489530281
-0.2304156678
0.01636590549
0.2301642725
-0.01609516611
-0.2284138541
0.0144340746
0.2276242806
-0.01362272182
-0.2253812461
0.01178542233
0.2252078359
-0.01161201216
-0.2238599735
0.01096372924
0.2236072538
-0.01071100951
-0.222759506
0.009870097055
0.2224580177
-0.009568608842
0.008624452276
-0.2219946794
0.2216649919
-0.008294764758
-0.4430241893
0.01445630331
0.4417460162
-0.01317813025
-0.4426740308
0.01190414954
0.4413949663
-0.01062508505
-0.01362238919
0.8800759747
0.009051298494
0.00935991952
-0.008990245542
0.8795071631
-0.004463412005
0.8791293443
0.8788412913
-0.00363788386
0.9588885354
-0.00730658491
0.9589359551
-0.01102226602
0.9588739237
-0.007492439327
0.9587392161
-0.007318179803
-0.4774049672
0.4783890926
-0.008476564799
-0.4770963056
0.009481352599
0.4781026005
-0.0104876476
-0.4768068205
0.01150080245
0.4778222092
-0.006310191756
-0.006205999451
-0.2381175871
0.006824377686
0.2383688861
-0.007075676682
-0.2374096582
0.007810397317
0.2376468023
-0.008047541377
-0.2361982236
0.008728547548
0.2364142193
-0.008944543273
-0.2346501759
0.009549565219
0.2348024441
-0.00970183349
-0.2181261255
0.009269476628
0.2184118468
-0.00955519801
-0.2298537136
0.01055451609
0.2298757527
-0.01057655518
-0.2271426475
0.01051562137
0.2270805169
-0.0104534908
-0.2247502429
0.01015274164
0.2246147965
-0.01001729526
-0.2229426287
0.009516414658
0.2227472807
-0.009321066662
-0.221655682
0.008665216104
0.2214176785
-0.00842721266
0.007669973391
-0.2207963853
0.2205257495
-0.007399337639
-0.440570762
0.01301423856
0.4394887761
-0.01193225264
-0.4402310045
0.01083665806
0.4391139814
-0.009719634953
-0.01256815199
0.8757689271
0.008278439218
0.008596760298
-0.008332295081
0.8752713062
-0.004147531233
0.8749445805
0.8746937601
-0.003451411025
0.9623399465
-0.006920753971
0.9624052981
-0.01040986228
0.962363032
-0.007060194094
0.9622596102
-0.006870062209
-0.47932243
0.4802290385
-0.007966802564
-0.4790565448
0.0088830117
0.4799641168
-0.009790583757
-0.4787736874
0.01069300025
0.4796649037
-0.005837405302
-0.005746811228
-0.2390654296
0.006290226492
0.2392805232
-0.006505320075
-0.2382926202
0.00712264229
0.2384881549
-0.007318176988
-0.2369932257
0.00787073051
0.2371660338
-0.008043538635
-0.2351559235
0.008505247439
0.2352434652
-0.008592789155
-0.21942309
0.008173395658
0.2197951551
-0.008545460801
-0.2299075021
0.009217546447
0.2299085761
-0.009218620384
-0.2269001035
0.009133009496
0.2268416374
-0.009074543416
-0.224248106
0.008817496458
0.2241369734
-0.008706363856
-0.2222238938
0.008302321498
0.2220672673
-0.008145695005
-0.2207766936
0.007618594526
0.2205842482
-0.007426149113
0.006807949744
-0.2198151099
0.2195916374
-0.006584477152
-0.4384901129
0.0116628642
0.4375678477
-0.01074059901
-0.4380997423
0.009796056636
0.4371246825
-0.00882099686
-0.01149051153
0.8719161691
0.007515262595
0.007828006991
-0.00764694987
0.8714277445
-0.003814841666
0.8711124723
0.8708789184
-0.003249321821
0.9655892683
-0.006505640254
0.9656616165
-0.009759576335
0.965616968
-0.006601816282
0.965510893
-0.006409042849
-0.4810837902
0.4819149516
-0.007432977733
-0.4808225755
0.008264669979
0.4816382447
-0.009080339161
-0.4804994093
0.009882569129
0.4812810291
-0.005370230198
-0.005293958758
-0.239877175
0.005769251412
0.2400617452
-0.005953821621
-0.2390232222
0.006475501951
0.2391860517
-0.006638331498
-0.2376333681
0.0070933878
0.2377740148
-0.007234034471
-0.2354298735
0.007585656713
0.2354696699
-0.007625453148
-0.2209604224
0.007266851703
0.2213545355
-0.007660964856
-0.2298900783
0.00810407298
0.2298779042
-0.008091898877
-0.2266705176
0.007990526415
0.2266147906
-0.007934799376
-0.2238302884
0.007707743631
0.2237357562
-0.007613211505
-0.2216410253
0.007276088409
0.221511606
-0.007146669158
-0.2200601141
0.006711929317
0.2199010572
-0.006552872397
0.006038970657
-0.2190014059
0.2188140717
-0.005851636542
-0.4367146132
0.01042124574
0.4359242573
-0.009630889864
-0.4362398376
0.008813328502
0.4353873221
-0.007960813038
-0.01043661058
0.8684803341
0.006788827274
0.007083618246
-0.00696767222
0.8679588061
-0.003482560171
0.8676273602
0.8673963582
-0.003042042489
0.9686313108
-0.006082159027
0.9687017331
-0.009102848444
0.9686376575
-0.006141695257
0.9685027821
-0.005953042378
-0.4826945263
0.4834543028
-0.006901471776
-0.482409284
0.007655092967
0.4831418667
-0.008387675712
-0.4820134549
0.009101248977
0.4826996759
-0.004926423346
-0.004861046632
-0.2405748546
0.005278614083
0.2407340549
-0.0054378144
-0.2396342888
0.005882305817
0.2397715349
-0.006019551963
-0.2381572975
0.006400284007
0.2382734254
-0.00651641194
-0.2355331947
0.006781805365
0.2355380277
-0.006786638322
-0.2225197899
0.006508795344
0.2228962139
-0.006885219404
-0.2298273759
0.007168698696
0.2298066245
-0.007147947286
-0.226451173
0.007036971286
0.2263977873
-0.006983585559
-0.2234711714
0.006778559354
0.2233885931
-0.006695981085
-0.2211548005
0.006407091623
0.2210451515
-0.006297442613
-0.2194634623
0.005930759024
0.2193293928
-0.00579668958
0.005362257036
-0.2183165112
0.2181572736
-0.005203019417
-0.4351903102
0.00930416734
0.4345078717
-0.008621728812
-0.4346131936
0.00791015343
0.4338653447
-0.007162304572
-0.009440116508
0.8654190459
0.006114881256
0.006386523469
-0.00631880431
0.8648374939
-0.00316332719
0.8644718831
0.864233031
-0.002836977833
0.9714682886
-0.005664990857
0.9715297461
-0.008461036258
0.9714337028
-0.0056941774
0.971250816
-0.00551489269
-0.4841640745
0.4848577897
-0.006387892632
-0.4838345889
0.007070790332
0.4844932739
-0.007729475279
-0.4833447809
0.008366033349
0.4839514996
-0.004517843446
-0.00445490861
-0.2411776148
0.004826076935
0.2413156702
-0.004964132357
-0.240151705
0.005346296711
0.2402689045
-0.005463496193
-0.2385915546
0.005786856544
0.2386884074
-0.005883709403
-0.2355117948
0.006080870667
0.2354911739
-0.006060249831
-0.2239708131
0.0058666047
0.2243076383
-0.006203429871
-0.2297351498
0.006376406322
0.2297087326
-0.006349989048
-0.2262408792
0.006233491052
0.2261896334
-0.006182245245
-0.2231551057
0.005994330468
0.2230815467
-0.005920771441
-0.2207397091
0.005668042563
0.2206449075
-0.00557324101
-0.2189574063
0.005258116921
0.2188424798
-0.005143190501
0.004770461894
-0.2177321026
0.2175950482
-0.004633407489
-0.4338716619
0.008310046358
0.4332777942
-0.007716178663
-0.4331854422
0.007093201119
0.4325267548
-0.006434513684
-0.00851900593
0.8626897398
0.005501365556
0.005746946415
-0.005714166047
0.8620326541
-0.002864481705
0.8616221988
0.8613685493
-0.002639913329
0.9741082019
-0.005265487689
0.9741553204
-0.007850293459
0.9740185086
-0.005269777191
0.9737742111
-0.00510391141
-0.485503988
0.4861375148
-0.005903304013
-0.4851166659
0.006522885292
0.4857101716
-0.007116391064
-0.4845227961
0.007685654678
0.4850613546
-0.004140802642
-0.004083410483
-0.2417016277
0.00441233841
0.2418222591
-0.004532969829
-0.2405955913
0.004864862361
0.2406969947
-0.004966265763
-0.238954554
0.005244333092
0.2390358182
-0.005325597331
-0.2354002772
0.005468121908
0.2353617352
-0.005429579899
-0.2252454909
0.005314292672
0.2255329488
-0.005601750582
-0.2296233659
0.005699154087
0.2295931879
-0.005668976105
-0.2260389911
0.005549685143
0.2259897702
-0.005500464332
-0.222872047
0.005326490868
0.2228055859
-0.005260029857
-0.2203786914
0.005035434316
0.2202954079
-0.004952150749
-0.2185213906
0.004677196236
0.2184214879
-0.00457729351
0.004253478511
-0.2172273671
0.2171081391
-0.004134250412
-0.4327219964
0.007433250494
0.4322012014
-0.006912455501
-0.4319268924
0.006363698653
0.4313440553
-0.005780861564
-0.007683139167
0.860251684
0.004951582409
0.005169612502
-0.005161991209
0.8595115061
-0.002590557855
0.8590507654
0.8587779915
-0.002454397595
0.9765625995
-0.004890487917