/*--------------------------------*- C++ -*----------------------------------*\
| =========                 |                                                 |
| \\      /  F ield         | OpenFOAM: The Open Source CFD Toolbox           |
|  \\    /   O peration     | Version:  v1912                                 |
|   \\  /    A nd           | Website:  www.openfoam.com                      |
|    \\/     M anipulation  |                                                 |
\*---------------------------------------------------------------------------*/
FoamFile
{
    version     2.0;
    format      ascii;
    class       surfaceScalarField;
    location    "1.95";
    object      meshPhi;
}
// * * * * * * * * * * * * * * * * * * * * * * * * * * * * * * * * * * * * * //

dimensions      [0 3 -1 0 0 0 0];
oriented        oriented;


internalField   nonuniform List<scalar> 
25162
(
0
0
0
0
0
0
0
0
0
0
0
0
0
0
0
0
0
0
0
0
0
0
0
0
0
0
0
0
0
0
0
0
0
0
0
0
0
0
0
0
0
0
0
0
0
0
0
0
0
0
0
0
0
0
0
0
0
0
0
0
0
0
0
0
0
0
0
0
0
0
0
0
0
0
0
0
0
0
0
0
0
0
0
0
0
0
0
0
0
0
0
0
0
0
0
0
0
0
0
0
0
0
0
0
-4.476144188e-10
1.030961733e-07
-1.154505846e-06
0
2.349845499e-09
9.81506426e-07
0
0
0
0
0
0
0
0
0
0
0
0
0
0
0
0
0
0
0
0
0
0
0
0
0
0
0
0
0
0
0
0
0
0
0
0
0
0
0
0
0
0
0
0
0
0
0
0
0
0
0
0
0
0
0
0
0
0
0
0
0
0
0
0
0
0
2.36105608e-09
-1.656925294e-06
-1.37325712e-07
1.046388116e-05
4.285991142e-07
-9.232272277e-05
-7.693682115e-07
0.000130529971
1.618348814e-06
-0.0002423219546
-3.970671393e-06
0.0002716705458
1.514631531e-06
-0.000315469862
-4.408356683e-06
0.0003125617163
-1.01373544e-06
-0.0002518223998
1.061500459e-06
0.0002172653234
-7.953584494e-07
-9.720429695e-05
2.480591098e-06
6.060068301e-05
0
-1.7891626e-06
3.653336271e-08
0
0
0
0
0
0
0
0
0
0
0
0
0
0
0
0
0
0
0
0
0
0
0
0
0
0
0
0
0
0
0
0
0
0
0
0
0
0
0
0
0
0
0
0
0
0
0
0
0
0
0
9.136836607e-08
-3.4568284e-06
-1.80509659e-07
2.461840404e-05
-1.619602293e-06
-0.0002128704555
3.958819492e-06
0.0003037470877
4.377534846e-06
-0.0006069511242
-7.911791822e-06
0.0007067504775
2.558717989e-05
-0.0009621039581
-3.928820837e-05
0.001024951008
3.075366759e-05
-0.001124239487
-4.674932936e-05
0.001124338345
7.956655866e-06
-0.001020658803
-1.594583419e-05
0.0009526827492
-1.246522194e-05
-0.0006694297886
1.616216431e-05
0.0005581929535
-6.050771313e-06
-0.0002333867794
1.160123754e-05
0.0001448542315
0
-3.527601062e-06
5.567351487e-08
0
0
0
0
0
0
0
0
0
0
0
0
0
0
0
0
0
0
0
0
0
0
0
0
0
0
0
0
0
0
0
0
0
0
0
0
0
0
0
0
0
0
0
0
0
-3.348029216e-08
1.275715156e-06
-4.291057994e-06
-0.0001533893675
9.547665701e-06
0.0002618423144
-1.452652431e-05
-0.0006898330701
1.793531181e-05
0.0008499614901
3.106653986e-05
-0.001318041242
-4.311786024e-05
0.001456768873
9.703197486e-05
-0.001782085216
-0.0001186864105
0.00185563267
0.0001102170858
-0.001969156164
-0.0001322559385
0.00197226177
5.719582153e-05
-0.001873016756
-7.53332999e-05
0.001800395106
-2.05586712e-05
-0.001454990873
1.81995472e-05
0.00130128601
-2.435773295e-05
-0.0008023682713
3.302217268e-05
0.0006328745195
-6.999572495e-06
-0.0001896675502
1.284083517e-05
9.390652358e-05
0
0
0
0
0
0
0
0
0
0
0
0
0
0
0
0
0
0
0
0
0
0
0
0
0
0
0
0
0
0
0
0
0
0
0
0
0
0
0
0
0
0
-1.676428869e-08
-1.774080505e-05
6.40367043e-07
7.620631396e-05
-2.625399368e-05
-0.0004554853905
3.324533648e-05
0.000630963795
-3.444503596e-05
-0.001237623108
2.450702916e-05
0.001444821697
8.810384453e-05
-0.001950136392
-8.700515484e-05
0.002061477922
0.0001723117128
-0.002298091839
-0.0001811075963
0.002332257536
0.0001784386473
-0.002365205625
-0.0001828297165
0.002365929111
0.0001378948424
-0.002345487819
-0.0001546885614
0.0023110762
5.382662345e-05
-0.002111308362
-6.463445285e-05
0.001967281638
-7.99334045e-05
-0.001380291759
8.740771101e-05
0.001164544963
-3.939790469e-05
-0.0005298917038
4.957392257e-05
0.0003524728719
-2.376083634e-05
-3.531429242e-07
7.355357105e-07
3.601848612e-07
0
0
0
0
0
0
0
0
0
0
0
0
0
0
0
0
0
0
0
0
0
0
0
0
0
0
0
0
0
0
0
0
0
0
0
-3.014030113e-08
1.28491373e-08
4.843916411e-07
-4.224413963e-06
-8.660881671e-05
6.057294776e-06
0.000194231976
-5.947686009e-05
-0.0007108171121
5.628715938e-05
0.0009428697262
-4.273894087e-06
-0.001614519566
1.286353117e-06
0.001815133261
0.0001278901322
-0.002270299336
-0.0001580879052
0.002367123325
0.0001578161826
-0.002450310403
-2.753856643e-05
-7.874131134e-05
0.001187016469
0.001211757628
-0.001181263927
9.212149779e-05
-9.251493815e-05
0.001181657368
-0.001215680937
0.0002285801713
0.002438725503
-0.001234124824
-9.59446797e-05
-0.0001215552338
-0.002318686615
6.120620523e-05
-7.703226971e-05
0.002233224605
-9.207836384e-05
-0.00175679935
8.65368517e-05
0.001543210066
-7.819594361e-05
-0.000828946134
8.929607158e-05
0.0006085156867
-0.0001209320143
-5.656452177e-06
8.021110727e-06
3.824503294e-05
0
0
0
0
0
0
0
0
0
0
0
0
0
0
0
0
0
0
0
0
0
0
0
0
0
0
0
0
0
0
0
0
0
1.266322623e-07
0
-2.762257838e-07
4.375106302e-06
6.626660923e-06
-1.045085575e-05
-0.0001423310853
1.103436232e-05
0.0002782348207
-6.675250751e-05
-0.0008802976602
6.806607683e-05
0.001117985902
1.278700436e-05
-0.001807800154
-1.593033479e-05
0.002000331493
0.0001914215189
-0.002359279412
-0.0001978508032
0.00238809069
9.407128929e-05
-0.00121071075
-9.218249491e-05
0.001208821956
-0.001200028585
8.936336463e-05
-8.749104754e-05
0.001198156268
-0.002370095545
0.0001103065442
-0.0001175223557
0.002324815272
-9.186901079e-05
-0.001920531325
9.047366619e-05
0.001714556151
-0.0001105070962
-0.0009994460563
0.0001126428184
0.0007635374874
-0.0002080294114
-1.434280044e-05
1.73109683e-05
9.096557588e-05
0
0
0
0
0
0
0
0
0
0
0
0
0
0
0
0
0
0
0
0
0
0
0
0
0
0
0
0
0
0
0
0
0
3.670938641e-07
0
-4.552004133e-07
1.167033844e-05
1.307070323e-05
-1.387677842e-05
-0.0001738201157
1.451879321e-05
0.0003200368848
-7.125751562e-05
-0.0009414367929
7.195044648e-05
0.001180738342
2.341542346e-05
-0.001858561167
-2.466966759e-05
0.002039697894
0.0002061267022
-0.002344534152
-0.0002071793007
0.002355230834
9.872065551e-05
-0.001178822602
-9.870735047e-05
0.001178809297
-0.001185719607
8.365313488e-05
-8.303710856e-05
0.00118510358
-0.002364609748
0.000126751034
-0.0001282508722
0.002337179342
-8.155230052e-05
-0.001983891576
7.92912799e-05
0.001790368342
-0.0001239673664
-0.001090965149
0.0001256740322
0.0008511810897
-0.0002531134403
-2.140246499e-05
2.27549112e-05
0.0001229502063
0
0
0
0
0
0
0
0
0
0
0
0
0
0
0
0
0
0
0
0
0
0
0
0
0
0
0
0
0
0
0
0
0
5.270775357e-07
0
-6.171726814e-07
1.727556971e-05
1.912205317e-05
-1.614569985e-05
-0.00019252731
1.681565113e-05
0.0003436071202
-7.391673656e-05
-0.0009708096441
7.46246515e-05
0.001208796336
2.722830641e-05
-0.001873601564
-2.840258704e-05
0.002047941414
0.0002092577275
-0.002328819477
-0.0002098621234
0.002334733923
9.86941962e-05
-0.001167105776
-9.82961641e-05
0.0005832217248
0.0005834860192
-0.001173721027
8.138564861e-05
-8.099849214e-05
0.001173333871
-0.002340338634
0.0001254644914
-0.0001233402576
0.002307900218
-7.908476284e-05
-0.001944689488
7.906180693e-05
0.001751064217
-0.0001240067039
-0.001060783133
0.0001227834511
0.0008267586669
-0.0002451415983
-2.18736978e-05
2.143806388e-05
0.0001186344409
0
0
0
0
0
0
0
0
0
0
0
0
0
0
0
0
0
0
0
0
0
0
0
0
0
0
0
0
0
0
0
0
0
7.079708235e-07
0
-7.968863234e-07
2.519176002e-05
2.74482053e-05
-1.894933497e-05
-0.0002154501667
1.971361771e-05
0.0003722688282
-7.670230055e-05
-0.001007169743
7.740022731e-05
0.001244215653
3.215204796e-05
-0.001896374258
-3.35090484e-05
0.002063724127
0.0002117368967
-0.002319356405
-0.0002122334653
0.00232179371
9.830874745e-05
-0.00116105764
-9.817354091e-05
0.0005805174338
0.000580405
-0.001164625231
8.005310033e-05
-7.971872615e-05
0.001164290857
-0.002314170328
0.0001107199528
-0.0001046755448
0.002257144963
-8.461799564e-05
-0.001829091292
7.801639967e-05
0.001639910372
-0.0001129484041
-0.000954043133
0.0001091890496
0.0007294441368
-0.0001914761895
-1.578294743e-05
1.447644863e-05
8.239176207e-05
0
0
0
0
0
0
0
0
0
0
0
0
0
0
0
0
0
0
0
0
0
0
0
0
0
0
0
0
0
0
0
0
0
8.734805332e-07
0
-8.941654875e-07
3.558310182e-05
3.665529536e-05
-2.225179861e-05
-0.0002415830686
2.325884531e-05
0.0004041759117
-7.947711669e-05
-0.00104565221
8.0203759e-05
0.001281118326
3.81076263e-05
-0.001918430453
-4.000833531e-05
0.002078148382
0.0002134025452
-0.002306691878
-0.0002134636224
0.002306917809
9.772888583e-05
-0.001153844753
-9.770531016e-05
0.0005768063399
0.0005770148375
-0.001153366151
7.880866478e-05
-7.879430212e-05
0.001153351788
-0.002256458939
8.699848612e-05
-7.964549459e-05
0.002166233819
-8.217773713e-05
-0.001689505204
9.388233646e-05
0.001472063085
-9.413244718e-05
-0.0007901040273
8.768442743e-05
0.0005809513335
-0.0001225673069
-8.514955925e-06
6.903618374e-06
4.009322682e-05
0
0
0
0
0
0
0
0
0
0
0
0
0
0
0
0
0
0
0
0
0
0
0
0
0
0
0
0
0
0
0
0
0
9.010547114e-07
0
-2.879906835e-07
5.354125341e-05
6.082182406e-05
-2.5784464e-05
-0.0002772233741
2.872825264e-05
0.000443289321
-8.237545889e-05
-0.001094631845
8.11991152e-05
0.001328337803
4.69380562e-05
-0.001950142659
-4.250697687e-05
0.002097165023
0.0002138558094
-0.002292056686
-0.0002132257124
0.001146229469
0.001145197119
4.892460685e-05
-0.0005727080415
-4.87686519e-05
0.0005725520866
3.799001166e-05
-0.0002850649853
-3.750291732e-05
0.0005697845743
-0.0002852066834
-0.001140783116
7.902301299e-05
-0.0001581357349
0.002281687881
-0.001139538907
7.774686456e-05
6.220385592e-05
-0.002153034052
-4.809588465e-05
0.002020951421
-9.608968634e-05
-0.00148395588
9.379963086e-05
0.001266695259
-6.889337305e-05
-0.000615117511
6.301722781e-05
0.0004264354706
-4.887571275e-05
-2.124713855e-06
1.539982201e-06
4.839795057e-06
0
0
0
0
0
0
0
0
0
0
0
0
0
0
0
0
0
0
0
0
0
0
0
0
0
0
0
0
0
0
0
0
0
7.416552611e-07
0
-9.189032713e-07
7.077163885e-05
6.456873657e-05
-3.318852846e-05
-0.0003195048839
3.163850751e-05
0.0004997632575
-8.383004319e-05
-0.001169445261
8.297791089e-05
0.001403364817
6.103403512e-05
-0.001998373621
-5.604559154e-05
0.002133003942
0.0002145284718
-0.002277787898
-0.0002145284718
0.001139607907
0.001138179991
4.993675413e-05
-0.001139607907
-9.961882465e-05
4.968207052e-05
0.0005696517018
0.0005699562056
9.147163718e-05
-0.0005696517787
-9.147152182e-05
0.001139607907
-0.0005699562441
-0.002277787898
0.0001650266657
-0.000162781255
0.002270526429
2.843872328e-05
-0.001996701356
-2.401923018e-05
0.001842751932
-8.221822461e-05
-0.00123959873
8.779336885e-05
0.001018087112
-4.290482976e-05
-0.0004134188027
3.348917961e-05
0.0002660819126
-6.537145804e-06
-1.910298149e-07
7.851873072e-08
0
0
0
0
0
0
0
0
0
0
0
0
0
0
0
0
0
0
0
0
0
0
0
0
0
0
0
0
0
0
0
0
0
0
9.206662434e-07
0
-4.771864723e-07
3.191089432e-05
1.986560307e-05
-2.124209006e-05
-0.0002260549764
1.671598747e-05
0.0003822042851
-7.332592965e-05
-0.001005476423
6.74069284e-05
0.001234386782
2.750690005e-05
-0.001848409232
-1.655518268e-05
0.002001834999
0.0001945959486
-0.002250681177
-0.0001754169939
0.002266688151
9.961882466e-05
-0.002263930553
-0.0001982231953
0.002263930553
9.860437065e-05
0.0001819238213
-0.002263930553
-0.0001819238213
0.002263930553
0.0001467062424
-0.002219905995
-0.0001369886721
0.002153577811
2.031849036e-07
-0.001763051336
5.813097177e-06
0.001580162817
-7.66490341e-05
-0.0009577373432
7.034712947e-05
0.000750157867
-1.757199135e-05
-0.0002311852072
1.469937292e-05
0.0001207648087
0
0
0
0
0
0
0
0
0
0
0
0
0
0
0
0
0
0
0
0
0
0
0
0
0
0
0
0
0
0
0
0
0
0
0
0
0
1.363734551e-08
0
0
1.711691293e-07
0
-4.631681036e-06
-7.501370205e-05
2.078162153e-06
0.0001697687503
-4.280023469e-05
-0.0006359575883
3.352124385e-05
0.0008297331955
-8.104246998e-06
-0.001414070615
1.194880412e-05
0.001585221825
0.0001120269779
-0.001962998807
-9.146895051e-05
0.002040344558
0.0001771108982
-0.002154415312
-0.0001595700151
0.00216351253
0.0001685826144
-0.002125094467
-0.0001533506003
0.002086633396
9.486417288e-05
-0.001862206017
-7.793993742e-05
0.001746717714
-2.095036092e-05
-0.00129425034
2.355506487e-05
0.001119594746
-4.60264539e-05
-0.0005914369817
3.701858104e-05
0.0004320387928
-4.470269866e-06
-8.024280189e-05
2.266243369e-06
2.214515178e-05
0
0
0
0
0
0
0
0
0
0
0
0
0
0
0
0
0
0
0
0
0
0
0
0
0
0
0
0
0
0
0
0
0
0
0
0
0
0
0
0
0
0
2.123276023e-07
-1.640898023e-07
-5.729717053e-08
1.243175044e-05
-9.831521667e-06
-0.0002194098705
4.835843208e-06
0.0003359433326
-1.122815305e-05
-0.0007546732278
8.526081881e-06
0.0008975760829
4.074510923e-05
-0.001266129657
-2.875208497e-05
0.001358078835
9.297633836e-05
-0.001521746347
-7.107544191e-05
0.001538605182
8.901770944e-05
-0.001480967723
-6.705115761e-05
0.001427178128
3.034742345e-05
-0.001172897161
-1.84497215e-05
0.001062164599
-2.141079137e-05
-0.0006863473293
1.79414669e-05
0.0005573913043
-1.306818898e-05
-0.0002120618888
7.483216599e-06
0.0001243828062
-1.603821526e-08
-5.443121338e-07
0
0
0
0
0
0
0
0
0
0
0
0
0
0
0
0
0
0
0
0
0
0
0
0
0
0
0
0
0
0
0
0
0
0
0
0
0
0
0
0
0
0
0
0
0
0
0
0
2.805154759e-07
-5.408055475e-06
-9.532587261e-08
2.525635944e-05
-9.669135622e-07
-0.0001778280998
-1.571891979e-07
0.0002480398992
7.573987156e-06
-0.0004634082688
-4.404131248e-06
0.0005254878694
2.215516141e-05
-0.0006489896777
-1.280701772e-05
0.000664969461
1.855091848e-05
-0.0006335463318
-9.80831955e-06
0.0005985675068
-8.30781324e-08
-0.0004381536963
1.471917563e-06
0.0003725019414
-5.742951713e-06
-0.0001723780355
2.796461312e-06
0.0001139074546
-1.861863266e-07
-6.644891256e-06
4.056895892e-10
7.184261881e-08
0
0
0
0
0
0
0
0
0
0
0
0
0
0
0
0
0
0
0
0
0
0
0
0
0
0
0
0
0
0
0
0
0
0
0
0
0
0
0
0
0
0
0
0
0
0
0
0
0
0
0
0
0
0
1.719274181e-08
0
0
8.700412551e-07
5.326586195e-07
-2.394741164e-05
-9.950400757e-08
3.711659869e-05
1.082621228e-06
-7.215227795e-05
-2.767806791e-07
7.821598666e-05
3.250212437e-07
-7.225390887e-05
-1.922085762e-08
6.291185576e-05
-3.361076703e-07
-2.495634893e-05
2.521637357e-08
1.376902448e-05
0
0
0
0
0
0
0
0
0
0
0
0
0
0
0
0
0
0
0
0
0
0
0
0
0
0
0
0
0
0
0
0
0
0
0
0
0
0
0
0
0
0
0
0
0
0
0
0
0
0
0
0
0
0
0
0
0
0
0
0
0
0
0
0
0
0
0
0
0
0
0
0
0
0
0
0
0
0
0
0
0
0
0
0
0
0
0
0
0
0
0
0
0
0
0
0
0
0
0
0
0
0
0
0
0
0
0
0
0
0
0
0
0
0
0
0
0
0
0
0
0
0
0
0
0
0
0
0
0
0
0
0
0
0
0
0
0
0
0
0
0
0
0
0
0
0
0
0
0
0
0
0
0
0
0
0
0
0
0
0
0
0
0
0
0
0
0
0
0
0
0
0
0
0
0
0
0
0
0
0
0
0
0
0
0
0
0
0
0
0
0
0
0
0
0
0
0
0
0
0
0
0
0
0
0
0
0
0
0
0
0
0
0
0
0
0
0
0
0
0
0
0
0
0
0
0
0
0
0
0
0
0
0
0
0
0
0
0
0
0
0
0
0
0
0
0
0
0
0
0
0
0
0
0
0
0
0
0
0
0
0
0
0
0
0
0
0
0
0
0
0
0
0
0
0
0
0
0
0
0
0
0
0
0
0
0
0
0
0
0
0
0
0
0
0
0
0
0
0
0
0
0
0
0
0
0
0
0
0
0
0
0
0
0
0
0
0
0
0
0
0
0
0
0
0
0
0
0
0
0
0
0
0
0
0
0
0
0
0
0
0
0
0
0
0
0
0
0
0
0
0
0
0
0
0
0
0
0
0
0
0
0
0
0
0
0
0
0
0
0
0
0
0
0
0
0
0
0
0
0
0
0
0
0
0
0
0
0
0
0
0
0
0
0
0
0
0
0
0
0
0
0
0
0
0
0
0
0
0
0
0
0
0
0
0
0
0
0
0
0
0
0
0
0
0
0
0
0
0
0
0
0
0
0
0
0
0
0
0
0
0
0
0
0
0
0
0
0
0
0
0
0
0
0
0
0
0
0
0
0
0
0
0
0
0
0
0
0
0
0
0
0
0
0
0
0
0
0
0
0
0
0
0
0
0
0
0
0
0
0
0
0
0
0
0
0
0
0
0
0
0
0
0
0
0
0
0
0
0
0
0
0
0
0
0
0
0
0
0
0
0
0
0
0
0
0
0
0
0
0
0
0
0
0
0
0
0
0
0
0
0
0
0
0
0
0
0
0
0
0
0
0
0
0
0
0
0
0
0
0
0
0
0
0
0
0
0
0
0
0
0
0
0
0
0
0
0
0
0
0
0
0
0
0
0
0
0
0
0
0
0
0
0
0
0
0
0
0
0
0
0
0
0
0
0
0
0
0
0
0
0
0
0
0
0
0
0
0
0
0
0
0
0
0
0
0
0
0
0
0
0
0
0
0
0
0
0
0
0
0
0
0
0
0
0
0
0
0
0
0
0
0
0
0
0
0
0
0
0
0
0
0
0
0
0
0
0
0
0
0
0
0
0
0
0
0
0
0
0
0
0
0
0
0
0
0
0
0
0
0
0
0
0
0
0
0
0
0
0
0
0
0
0
0
0
0
0
0
0
0
0
0
0
0
0
0
0
0
0
0
0
0
0
0
0
0
0
0
0
0
0
0
0
0
0
0
0
0
0
0
0
0
0
0
0
0
0
0
0
0
0
0
0
0
0
0
0
0
0
0
0
0
0
0
0
0
0
0
0
0
0
0
0
0
0
0
0
0
0
0
0
0
0
0
0
0
0
0
0
0
0
0
0
0
0
0
0
0
0
0
0
0
0
0
0
0
0
0
0
0
0
0
0
0
0
0
0
0
0
0
0
0
0
0
0
0
0
0
0
0
0
0
0
0
0
0
0
0
0
0
0
0
0
0
0
0
0
0
0
0
0
0
0
0
0
0
0
0
0
0
0
0
0
0
0
0
0
0
0
0
0
0
0
0
0
0
0
0
0
0
0
0
0
0
0
0
0
0
0
0
0
0
0
0
0
0
0
0
0
0
0
0
0
0
0
0
0
0
0
0
0
0
0
0
0
0
0
0
0
0
0
0
0
0
0
0
0
0
0
0
0
0
0
0
0
0
0
0
0
0
0
0
0
0
0
0
0
0
0
0
0
0
0
0
0
0
0
0
0
0
0
0
0
0
0
0
0
0
0
0
0
0
0
0
0
0
0
0
0
0
0
0
0
0
0
0
0
0
0
0
0
0
0
0
0
0
0
0
0
0
0
0
0
0
0
0
0
0
0
0
0
0
0
0
0
0
0
0
0
0
0
0
0
0
0
0
0
0
0
0
0
0
0
0
0
0
0
0
0
0
0
0
0
0
0
0
0
0
0
0
0
0
0
0
0
0
0
0
0
0
0
0
0
0
0
0
0
0
0
0
0
0
0
0
0
0
0
0
0
0
0
0
0
0
0
0
0
0
0
0
0
0
0
0
0
0
0
0
0
0
0
0
0
0
0
0
0
0
0
0
0
0
0
0
0
0
0
0
0
0
0
0
0
0
0
0
0
0
0
0
0
0
0
0
0
0
0
0
0
0
0
0
0
0
0
0
0
0
0
0
0
0
0
0
0
0
0
0
0
0
0
0
0
0
0
0
0
0
0
0
0
0
0
0
0
0
0
0
0
0
0
0
0
0
0
0
0
0
0
0
0
0
0
0
0
0
0
0
0
0
0
0
0
0
0
0
0
0
0
0
0
0
0
0
0
0
0
0
0
0
0
0
0
0
0
0
0
0
0
0
0
0
0
0
0
0
0
0
0
0
0
0
0
0
0
0
0
0
0
0
0
0
0
0
0
0
0
0
0
0
0
0
0
0
0
0
0
0
0
0
0
0
0
0
0
0
0
0
0
0
0
0
0
0
0
0
0
0
0
0
0
0
0
0
0
0
0
0
0
0
0
0
0
0
0
0
0
0
0
0
0
0
0
0
0
0
0
0
0
0
0
0
0
0
0
0
0
0
0
0
0
0
0
0
0
0
0
0
0
0
0
0
0
0
0
0
0
0
0
0
0
0
0
0
0
0
0
0
0
0
0
0
0
0
0
0
0
0
0
0
0
0
0
0
0
0
0
0
0
0
0
0
0
0
0
0
0
0
0
0
0
0
0
0
0
0
0
0
0
0
0
0
0
0
0
0
0
0
0
0
0
0
0
0
0
0
0
0
0
-0.001181508717
0.001181550299
9.867907418e-05
-8.616003358e-05
0.001184790285
8.683704613e-05
-0.0005936415317
-0.0005918257656
9.75765021e-05
-0.001205195521
-9.240956676e-05
-0.001168057169
9.898415112e-05
0.0005843215576
0.0005834456567
-8.178463212e-05
0.001176056025
8.233907166e-05
-0.0005881043782
-0.0005885060863
-8.415949191e-05
-0.0005938235681
-0.0005938965801
-0.001161839614
9.849369126e-05
0.0005810745639
0.0005805801058
-8.095766858e-05
0.001164541831
8.015279748e-05
-0.0005815305637
-0.0005822063959
-8.14013173e-05
-0.0005861807311
-0.0005879236112
-0.001154412581
9.796702605e-05
0.0005772509099
0.0005769235313
-7.872381476e-05
0.001153782682
7.941537495e-05
-0.001154474242
-0.001165114357
-8.046854216e-05
-0.0005734695606
0.0005734733826
4.892078488e-05
0.0002857218744
-1.92499161e-05
1.934664324e-05
-0.0002858186015
-0.0002857611708
0.0005708498465
3.862321029e-05
-7.905041492e-05
0.001143034568
7.889399051e-05
-0.001142878143
-0.00115352615
-7.85638155e-05
-0.0005704060301
0.0005704060301
4.993675414e-05
0.0005704062439
-4.611827482e-05
4.61188682e-05
-0.0005704068373
-0.0002854259252
-1.888897621e-05
0.001140507139
-0.0005188096547
1.588587725e-05
2.429451976e-05
-0.0001485791654
0.002254237351
-0.001137002026
-0.001131233843
8.243967184e-05
8.013801247e-05
-0.001140593537
-7.923999388e-05
-0.001211349933
0.00121086469
9.455653182e-05
9.191455938e-05
-0.00118149948
-9.16790061e-05
0.001206838454
9.574272895e-05
-0.001205004681
0.000107104411
-0.001206632245
-0.0001161531031
-2.198895429e-05
0.0003007210957
2.213228995e-05
-0.0003008644314
0.0006094302108
5.27923342e-05
-0.0006111664801
-5.10560649e-05
0.00118432276
8.412065944e-05
-0.0001536031939
0.002364322499
0.0001565250643
-0.002367870743
0.0001580098715
-0.002383113215
-0.0001539953134
-0.002331659489
0.002338529727
0.0002086879328
-9.971160777e-05
9.97801234e-05
-0.001168125685
9.976400981e-05
-0.00117872258
-9.986403095e-05
-2.456340649e-05
0.0002951881796
2.43524737e-05
-0.0002949772468
2.154103927e-05
0.0002970168312
-0.0002968825664
-2.1675304e-05
0.001175780364
8.166130978e-05
-0.0001502550377
0.0023491089
0.0001511865881
-0.002350171592
-0.002365918594
-0.0001525075289
-0.002322362862
0.002325529026
0.0002112026569
-9.946655492e-05
9.9535134e-05
-0.001161908193
-0.001167178636
-9.963874802e-05
-9.834148697e-05
-0.00116588766
9.842255234e-05
0.0005829095851
0.0005828970092
-4.76069167e-05
0.0002915080639
4.744902633e-05
-0.0005829343834
0.0002915842099
4.759863172e-05
0.0002911788879
-0.000582965764
-4.734793482e-05
0.0002915361792
-2.110307718e-05
0.0002929488626
2.122539228e-05
-0.0002930711777
2.280625019e-05
0.0002936780489
-0.0002930487278
-2.343557125e-05
0.001164680999
7.991393222e-05
-0.0001433866751
0.002320366527
0.0001463302605
-0.002327860357
-0.002341821173
-0.0001491922851
-0.002309413199
0.002310195006
0.0002131272213
-9.911858607e-05
9.918749564e-05
-0.001154481491
-0.001161076738
-9.944745772e-05
-9.84225356e-05
-0.001158445491
9.823072964e-05
0.0005795095862
0.0005791277109
-2.385088533e-05
0.0002893534323
2.397482799e-05
-0.000289477375
4.693442686e-05
0.000290154365
-0.0005804697735
-4.695058959e-05
0.0002903315712
-4.090482789e-05
0.0005793469191
4.110903087e-05
-0.0005795511221
4.19020465e-05
0.0005825413335
-4.066211847e-05
-0.0002921582354
-0.0002916230261
-0.002295940022
0.0002135195317
0.001148578307
0.001147697993
-9.880686888e-05
0.0005741827588
9.891599168e-05
-0.001147761442
-0.00115390924
-9.905409933e-05
-4.897802369e-05
-0.0005758007232
0.0005758492796
4.89294673e-05
-2.623221229e-05
0.0002887536769
2.574672307e-05
-0.0002882681876
2.511600062e-05
0.0002876422833
-0.0002879108213
-2.484746256e-05
-0.0002898832754
-2.099837481e-05
0.0002889156319
2.196601832e-05
-4.008210924e-05
0.0005747950632
3.989802129e-05
-0.0005746109752
4.061855358e-05
0.0005768393198
-0.0005768175228
-4.064035054e-05
-0.00226742011
0.0002175306654
0.001123910778
0.001140507139
-0.0001006419729
0.0005701011086
0.0001006419729
-0.001140507139
0.0005735846082
-0.001146276841
-9.882267754e-05
-4.895248856e-05
-0.0005716432374
0.0005715899757
4.900575026e-05
-2.411073984e-05
0.000282514474
2.531446728e-05
-0.0002837182015
2.698994718e-05
0.0002841068577
-0.0002847964683
-2.630033658e-05
-0.001133314124
0.001133314124
9.961882465e-05
0.001133314124
-9.249030192e-05
9.249030192e-05
-0.001133314124
-0.0005696521054
-4.611794813e-05
4.738070729e-05
-0.0005939971383
-4.693134567e-05
0.0002964600933
0.0002970876834
-4.799132105e-05
-0.0005902015191
4.781890578e-05
0.0002956878059
0.0002946861285
-0.0006093268256
3.616052674e-05
-3.493771316e-05
0.0006081040121
-0.0005958760317
0.0005963353331
4.69214059e-05
0.0002972617036
2.139823996e-05
-0.0002971189043
0.0002997883853
-0.0003000518516
-2.172548807e-05
8.898984656e-05
0.001192772482
-8.767419233e-05
-0.0005980143425
-0.0005960737939
4.641307752e-05
-0.0002989059189
-4.532789346e-05
0.0005976091202
-2.165709011e-05
0.0002973375731
2.15812206e-05
0.0002911050665
4.789538971e-05
-0.0005831895289
0.0002917877044
0.0005857265495
4.758591795e-05
-0.0005857935907
-4.75188767e-05
9.88170771e-05
-0.001172144503
-9.874887956e-05
0.001172076306
4.735492713e-05
-4.692159803e-05
0.0002927234471
0.0002925697733
-2.390920869e-05
0.0002910921225
2.392215262e-05
-0.0005891686509
-4.771073145e-05
0.0002944648099
0.0002944232515
-0.0005865292726
4.730651708e-05
0.0002934898166
0.0002930878661
0.0002932314166
2.211790664e-05
-0.0002925430731
0.0002960145545
-0.0002956112188
-2.496674219e-05
4.155668597e-05
0.0005910546017
-0.0005911704913
-4.144079639e-05
2.399483379e-05
-2.41025208e-05
0.0002961222415
-2.222428409e-05
0.0002936324838
2.182321686e-05
-2.170826666e-05
0.0002970680077
0.0002953850446
2.379796878e-05
0.0005904770493
4.15601076e-05
-0.000590480471
0.0002900612208
4.723004866e-05
-0.0005803451391
0.0002899882965
0.0002917711956
-0.000583158336
-4.788210871e-05
0.0002916623324
-0.001165425369
-9.859362282e-05
0.000583059505
0.0005826179996
2.43708383e-05
-2.44665325e-05
0.0002918668898
-2.321108504e-05
0.0002899385649
2.333374086e-05
-2.382052759e-05
0.0002910902068
0.000291796526
2.408237623e-05
0.0005820296929
4.177087702e-05
-0.0002909195138
-0.0002909790097
0.0002927644829
-0.0002926916339
-2.117592617e-05
8.005483921e-05
0.001167732157
-8.02588803e-05
-0.000583187532
-0.0005843405843
4.20916458e-05
-0.0002918572491
-4.164180159e-05
0.0005841718878
-4.155976054e-05
0.0005819651124
4.162434108e-05
-2.261800109e-05
0.0002940717659
-0.0002925812251
0.0005849737018
2.119284288e-05
2.145518886e-05
0.001169225488
8.104511404e-05
-0.000584873346
-0.0005853424166
0.0002877466084
2.530365639e-05
-0.0002879342641
0.0002892439035
-0.0002893220651
-2.377272372e-05
-0.001156699882
-9.802266776e-05
0.000578526616
0.0005777733984
2.417066319e-05
-2.386692641e-05
0.0002889401668
-2.61071961e-05
0.0002873537799
2.65000246e-05
-2.317600199e-05
0.000290119282
0.0002891580759
2.436601964e-05
0.0005774562533
4.064844169e-05
-0.0005774861414
0.0005795138109
-0.0005794966606
-4.092197819e-05
0.0002858356752
2.742647e-05
-0.0002862721981
0.0002876808645
-0.0002878477328
-2.606534394e-05
-0.0005754155302
-4.897746532e-05
0.0005754149718
1.909723449e-05
0.0002875372804
-0.0002864362999
-2.019821503e-05
2.71729841e-05
-2.682500744e-05
0.0002873328878
-2.627114355e-05
0.0002849428355
2.716398328e-05
-2.563198737e-05
0.0002871670745
0.000289132577
2.679408401e-05
2.092418761e-05
-0.0002917102285
-8.12302237e-05
0.001141952291
8.081588271e-05
-0.0005702912036
-0.0005712467463
0.0005740421045
-0.0005738256084
-4.029860537e-05
-2.099017216e-05
0.0002875290778
0.000575263309
-4.646677014e-05
-0.0005724286625
2.139596182e-05
2.223616183e-05
0.0002823713425
-0.0002831582184
-2.332386394e-05
-0.0005711888002
-4.885061637e-05
0.000571086928
3.423979402e-05
0.0005627754969
-0.0005630899561
-3.392533481e-05
1.986320779e-05
-1.948703629e-05
0.000281995171
-4.778418267e-05
0.0005755592931
2.205115618e-05
2.543704242e-05
-2.539236164e-05
0.0002832280758
2.070660651e-05
0.0002816710753
0.0005633808942
3.493238493e-05
-0.0005640734852
-0.002348524062
0.0023618453
0.0002042134229
9.966802822e-05
-0.001181412736
9.551090231e-05
-0.001209033199
-9.718845368e-05
-9.735819109e-05
-0.001192840161
0.001192746293
9.745205879e-05
-4.738328329e-05
4.730000319e-05
-0.0005957927516
4.414342075e-05
-0.0006110429818
-4.242726456e-05
-5.465487383e-05
0.0002980604538
5.06011328e-06
-0.0002484656932
0.0003134534227
3.03103418e-05
-0.0003178024296
-2.596133494e-05
-0.001173693409
0.001173784326
9.872616062e-05
4.761533332e-05
-0.000586558688
4.772845862e-05
-0.0005891685684
-4.772854119e-05
-9.908642591e-05
0.0002934499842
4.551107504e-05
-0.0002398746334
0.001153504006
7.908734078e-05
-0.0001282290151
0.002275765431
0.0001335833451
-0.002309545579
-0.002324292259
-0.0001415306002
-9.837368878e-05
0.0002891954984
4.414333047e-05
-0.0002349651401
-4.071656187e-05
0.0005759053016
4.10917706e-05
-0.000288085727
-0.0002881947833
2.05980378e-05
0.0002884680606
-0.0002884121149
-2.06539835e-05
-3.643492609e-05
0.0005631348001
3.668102026e-05
-8.759553853e-05
0.001134104467
8.490504499e-05
-0.001131413974
0.001139868319
-8.174438326e-05
-0.0005693163863
-0.0005700377734
4.76947578e-05
-0.0005901678183
-0.0005940283119
-4.735210971e-05
-0.001184661639
-9.8111023e-05
0.001185414471
1.99468872e-05
-0.0002945422229
-2.040328109e-05
0.0002949986168
-0.000314511939
1.126992394e-05
-1.546348359e-05
0.0003187054987
-0.000303252533
-1.940982394e-05
0.0003034448821
1.921747479e-05
5.618798805e-05
-5.111280883e-05
0.0006043550316
-0.0002997673732
0.0005991963045
4.770524188e-05
0.001193134576
8.681426699e-05
-0.0005956765065
-0.0005952824897
0.0002890464288
2.082952701e-05
-0.000289277918
2.408567136e-05
0.0002897695194
-0.000290686209
-2.316898181e-05
8.006112574e-05
0.001157267356
-0.001157595681
-7.973280023e-05
4.110563929e-05
-4.091103168e-05
0.0005793192033
-4.063310822e-05
0.0005773338258
4.075553571e-05
-4.118541319e-05
0.0005821669861
0.0005793717501
4.108080828e-05
0.001159907721
8.012103513e-05
-0.00115996763
2.250011689e-05
0.000287283904
-0.0002883946622
-2.138935875e-05
-0.0002824262176
-2.507090519e-05
0.0002825639333
2.49331895e-05
-3.5821954e-05
0.0005673891978
3.598778747e-05
-0.0002834404197
-0.0002841146116
0.0005894513861
4.441594358e-05
-0.0005894468938
-4.442043588e-05
-0.001259785611
6.696679885e-05
-1.518902911e-05
-3.122012227e-05
0.000614940071
0.0006242878926
-0.0006043217783
0.0006164504064
2.403189867e-05
0.0006084231024
5.372187091e-05
-0.0006093526391
0.001237819366
0.0001314122474
-0.0006205733757
-0.0005970318714
-6.469554195e-05
-8.693082405e-05
5.615032576e-05
-5.706062125e-05
0.0005903616816
0.0003776596903
-0.0004323145641
4.778551844e-05
0.0006040374539
-4.652116905e-05
-0.0003023701733
-0.0003029316299
2.886689685e-05
4.31904138e-05
0.0003056023797
2.671575457e-05
-2.453793188e-05
0.0003112756
0.0003051516282
2.17757224e-05
0.0006022815203
4.598874775e-05
-0.0003006366825
-0.0002998480671
2.148853677e-05
0.0002960291016
-0.0002960671629
-2.14504755e-05
0.0002965287502
2.156876501e-05
-0.0002966089784
2.073813639e-05
0.0002940245618
-0.0002939072682
-2.085542995e-05
0.0002949736288
2.115848463e-05
-0.000295393977
0.0002891677392
-2.414973306e-05
2.19123267e-05
-0.0002869303329
0.0002981226263
-0.0003806537668
-1.655528536e-05
4.140187119e-05
0.0005799449357
-0.0005799199598
-4.142684708e-05
2.682988628e-05
-2.244123857e-05
0.0002937339786
-2.387763544e-05
0.0002897869553
2.325841932e-05
2.400724137e-05
-4.466738267e-05
0.0002880206627
-0.0002673605214
0.0002916787367
2.860113381e-05
0.0005806508378
4.145189469e-05
-0.00029022678
-0.0002904740813
0.0002877111485
2.274773589e-05
-0.0002879651267
-2.24937577e-05
4.757134858e-05
-0.0005758535733
-4.750040155e-05
0.0005757826262
-4.748231306e-05
-0.0005757236948
0.0005757682632
4.743774469e-05
-3.97951694e-05
0.0005743875707
3.995464307e-05
-0.0005745470444
0.0005754473476
-4.031921392e-05
-0.0002879831802
-0.0002878615153
-0.0003760339335
-1.67854915e-05
0.0002944457362
2.055093428e-05
0.0002848848538
-0.0002856563721
-1.977941599e-05
4.693220674e-05
-0.0005721065672
-4.690017231e-05
0.0005720745328
-4.690873024e-05
-0.0005715281817
4.719566012e-05
0.0002856477199
0.0002855935319
4.725942276e-05
-0.0005724269604
-4.706085419e-05
0.0005722283918
-0.0005722733574
0.000572190038
4.701552607e-05
0.0002837595692
2.146179553e-05
-0.0002846704304
-0.0003073872452
1.752482712e-05
-0.0001016981648
0.0003915605829
-0.0002932612637
2.029951432e-05
0.0002929086366
-4.705734018e-05
-0.0005926534387
4.732138278e-05
0.0002957906181
0.000296598778
-2.260603102e-05
2.347161144e-05
-0.0002941268441
2.286530296e-05
-0.0003032897941
-2.696275408e-05
-2.60268039e-05
4.517050418e-05
-0.0002961504966
0.0002770067963
-0.000295236189
-2.191206492e-05
-0.0005929348319
-4.768091606e-05
0.0002971496919
0.0002964087158
-4.550866404e-05
-0.0006083193058
0.0006087477539
4.508021591e-05
-2.19942658e-05
2.231083876e-05
-0.0003035691059
4.893636011e-06
-0.0003051126752
-1.429289986e-05
0.0003029752545
2.13533451e-05
-0.0003014632967
0.0003030957352
-0.0003029259744
-2.21640266e-05
-0.000603231964
-4.592205061e-05
0.0006036453505
-2.1425168e-05
0.0003051110793
0.000302303924
1.819615768e-05
2.245915939e-05
0.0002987268593
-0.0002980528682
-2.313315051e-05
0.0002980707295
2.25227321e-05
-0.0002981343022
-2.402484667e-05