/*--------------------------------*- C++ -*----------------------------------*\
| =========                 |                                                 |
| \\      /  F ield         | OpenFOAM: The Open Source CFD Toolbox           |
|  \\    /   O peration     | Version:  v1912                                 |
|   \\  /    A nd           | Website:  www.openfoam.com                      |
|    \\/     M anipulation  |                                                 |
\*---------------------------------------------------------------------------*/
FoamFile
{
    version     2.0;
    format      ascii;
    class       volScalarField;
    location    "1.95";
    object      nut;
}
// * * * * * * * * * * * * * * * * * * * * * * * * * * * * * * * * * * * * * //

dimensions      [0 2 -1 0 0 0 0];


internalField   nonuniform List<scalar> 
12556
(
1.155879152
1.155848052
1.155818019
1.155794763
1.156030829
1.156032481
1.156060129
1.15611616
1.156221039
1.156382461
1.156594786
1.061963377
1.012476617
1.063345291
1.156595368
1.156401053
1.156242184
1.156143218
1.156072936
1.156047535
1.155826178
1.155843598
1.155868492
1.155894635
1.155108319
1.155021179
1.154943322
1.154903335
1.155131243
1.155188156
1.155349676
1.155679059
1.156181496
1.156983992
1.141780721
0.9848833223
0.9303848121
0.9587353783
1.077156364
1.157279197
1.15643805
1.155859971
1.155423498
1.155243744
1.154969727
1.155014816
1.155089368
1.155168616
1.154301623
1.154155365
1.15403695
1.153986405
1.154270017
1.154445792
1.154841966
1.155533917
1.156750362
1.066013466
0.8701192741
0.7636426383
0.7289630268
0.7566178947
0.8547887501
1.031218715
1.157285709
1.15595884
1.15499746
1.154556378
1.15416492
1.154190378
1.154298705
1.154430453
1.153473378
1.153284898
1.153150765
1.153149932
1.153483949
1.153875953
1.154748012
1.156076767
1.027933659
0.7728073595
0.6187652399
0.5296673303
0.4975790104
0.5213776424
0.6049061576
0.7541100238
0.989637484
1.156830494
1.155001606
1.154091193
1.153418424
1.15340041
1.153520985
1.153694899
1.152618919
1.152390517
1.152260807
1.152320463
1.152828316
1.15357164
1.15522196
1.108918996
0.7741093021
0.5635703675
0.4240765273
0.3337460103
0.2966418696
0.3194475905
0.3983004564
0.5330010507
0.7381217245
1.047499259
1.155642671
1.1539342
1.152810617
1.152641152
1.152737021
1.152939725
1.151761821
1.151516281
1.151421586
1.151626023
1.152370769
1.153635074
1.156448768
0.895581191
0.6158219906
0.4282254491
0.2881897691
0.1889890407
0.1484348387
0.1747214553
0.2517858699
0.3746218583
0.5611222299
0.8348230309
1.157030423
1.154160658
1.152370647
1.151930321
1.151963421
1.152175235
1.150898003
1.150649007
1.150626001
1.151061862
1.152049161
1.154116688
1.075560743
0.7644088342
0.5215714294
0.3478662608
0.2068743791
0.09579073921
0.05456620775
0.08660514355
0.1623952863
0.2750896283
0.442811339
0.6827869475
1.059098435
1.154854154
1.1520689
1.151276372
1.151186816
1.151383595
1.150088776
1.149858004
1.149942803
1.150657057
1.151963227
1.155025841
0.9712995864
0.696627128
0.4823938689
0.3227147713
0.1893201605
0.07824602081
0.05003220933
0.1230578136
0.2225897021
0.3741238543
0.5951661193
0.9413844286
1.155964386
1.15196995
1.150712353
1.150437048
1.150598297
1.149365766
1.149165136
1.149398089
1.150464291
1.152215249
1.156285757
0.913500195
0.6668722808
0.485567351
0.3487983372
0.2422745053
0.1710965782
0.06205339891
0.1210527331
0.2072284471
0.3440368973
0.5456086736
0.8679009312
1.157377113
1.152080862
1.150265216
1.149759956
1.14985735
1.148791364
1.148642558
1.149049309
1.150512269
1.152792094
1.157763994
0.8882821635
0.672824379
0.5129398693
0.3992652836
0.3247161718
0.3191454096
0.08782417287
0.1384614154
0.2171501222
0.3451985218
0.5343601875
0.8293442137
1.159011767
1.152435687
1.150005208
1.14922118
1.149244775
1.148370878
1.148296381
1.14892925
1.150883142
1.153685274
1.159375483
0.8837432246
0.6913379747
0.5509631879
0.4527674878
0.3977645807
0.4435869142
0.1197828695
0.1683978815
0.2455113884
0.3676330567
0.5450740726
0.8205774784
1.135376222
1.15301118
1.14995289
1.148888888
1.148815867
1.148172535
1.148176771
1.149027243
1.151452299
1.154849082
1.141780421
0.8929220413
0.7205183988
0.5920540642
0.4981651978
0.4358867761
0.444944958
0.1569099956
0.2108362328
0.2914788614
0.4145193278
0.5817879394
0.8380905909
1.12302241
1.153829758
1.150148166
1.148792202
1.14863333
1.148132953
1.148236341
1.149390248
1.152371857
1.156233589
1.132374958
0.9155497696
0.7651656914
0.6394557318
0.5432498262
0.4606337167
0.399840039
0.04778067109
0.2058621406
0.2747538429
0.3629957318
0.4831548984
0.6465425287
0.8776945413
1.128484737
1.154755805
1.150565161
1.14895063
1.148697375
1.148305173
1.148506288
1.149932815
1.153379134
1.15777283
1.152673765
0.9780991377
0.8189044917
0.7061444454
0.6065995086
0.5112893394
0.2827021504
0.09825829952
0.3062567532
0.386330407
0.4700788128
0.5831314975
0.7300887054
0.9349498046
1.15984663
1.155758802
1.151164513
1.14932591
1.149013788
1.148559238
1.148852085
1.150543036
1.154463895
1.159321322
1.166261998
1.049524304
0.9072054268
0.7995781385
0.7093532705
0.6192760114
0.1066491394
0.1420780022
0.3984080517
0.5840416957
0.6285214588
0.7145319157
0.8459326778
1.026505283
1.166661001
1.156758579
1.151866149
1.149853839
1.149478028
1.148953531
1.149336475
1.151269557
1.155617471
1.16087383
1.167945589
1.158230108
1.037082619
0.9445660635
0.8788896183
0.7623032002
0.04799344551
0.171345351
0.4476457799
0.7641493267
0.8452744424
0.8891775294
0.9927246015
1.157434582
1.167793926
1.15768294
1.15260302
1.15049639
1.150096252
1.149329952
1.149786682
1.151938899
1.156706159
1.162337284
1.169494052
1.166929571
1.145833017
1.088020418
0.9486365787
0.4560736497
0.02848372389
0.2516377682
0.5363563104
0.8332976153
1.031673208
1.113247253
1.160243031
1.17238586
1.168646488
1.158475293
1.153305104
1.151121372
1.150696573
1.149782727
1.15030727
1.152649828
1.157765011
1.163653313
1.170778988
1.167960238
1.144007781
1.061502826
0.7852446252
0.1141563443
0.06659344141
0.3468121439
0.6382027396
0.8903024255
1.04723525
1.126535528
1.161774485
1.173104601
1.169150848
1.1590976
1.153929907
1.151747453
1.151317416
1.150150581
1.150724534
1.153229535
1.158674586
1.16482206
1.171931792
1.168460147
1.141928788
1.042446321
0.5907259493
0.04939619288
0.1757787684
0.4290507137
0.7016397206
0.9130682454
1.051768063
1.127872812
1.162328667
1.173303384
1.169353639
1.159515631
1.154404719
1.152254456
1.151825704
1.15057304
1.151195992
1.15383805
1.159531059
1.165826364
1.172870832
1.168985954
1.140053902
1.022514372
0.4937574836
0.04712485186
0.208588097
0.4548223471
0.7143142505
0.9201450596
1.053888306
1.128068069
1.162191541
1.173096566
1.169298916
1.159803273
1.154806249
1.152703016
1.152272671
1.150876935
1.151538853
1.154297171
1.160222054
1.166679096
1.173643368
1.169295441
1.138296864
1.0024632
0.4396906429
0.04714161556
0.2231188891
0.4664271963
0.7195731993
0.9228162207
1.054192779
1.127541738
1.161573585
1.172585118
1.16903958
1.159909922
1.155040434
1.152989322
1.152558285
1.151241211
1.151952692
1.154817563
1.160900547
1.167402948
1.174284606
1.169491991
1.136375275
0.9797595566
0.410852616
0.0478949269
0.2307084103
0.4717276953
0.7198051838
0.9222643792
1.053406458
1.12652291
1.160620651
1.17185033
1.168626272
1.159939623
1.155227618
1.153227131
1.152790467
1.151466703
1.152225866
1.155190804
1.161436923
1.168030842
1.174825881
1.169596042
1.134089747
0.95316184
0.3927606554
0.04886227433
0.2349949796
0.474066527
0.7180825142
0.9199174034
1.051761937
1.125100909
1.159422588
1.17095359
1.168100738
1.159821381
1.155252897
1.153298288
1.152856959
1.151770641
1.152592778
1.155661296
1.162014897
1.168584844
1.175288527
1.169590597
1.131070765
0.9257324829
0.3805527479
0.05001683876
0.2377495324
0.4750675015
0.7155179775
0.9165144491
1.049357942
1.123313421
1.158028375
1.169938996
1.16749311
1.159679513
1.155273825
1.153359426
1.152907911
1.151918197
1.152801615
1.155972127
1.162455884
1.169086915
1.175685576
1.169429795
1.126926256
0.9007917968
0.3727307611
0.05135474736
0.2394598096
0.4751264173
0.712390729
0.9124756164
1.046345142
1.121198828
1.156468121
1.168837312
1.166824808
1.159407623
1.155137731
1.153257217
1.152796475
1.152168603
1.153127551
1.156407678
1.162974825
1.169543122
1.176023539
1.169055484
1.121458543
0.8795008733
0.3680176501
0.0528960708
0.2405193047
0.4744867082
0.7088612535
0.9080340829
1.042879406
1.118806672
1.15476737
1.167670482
1.166110804
1.159158695
1.155044245
1.153192387
1.152717151
1.15224603
1.153274656
1.156658736
1.163336975
1.169964933
1.176303837
1.168408699
1.114849352
0.8616533427
0.3654596745
0.054628203
0.2411741782
0.4733379823
0.7050487832
0.903320897
1.039083223
1.116188359
1.152950364
1.166454996
1.165362619
1.158782876
1.154792565
1.152965159
1.152477699
1.152452684
1.153564158
1.157062409
1.163811397
1.170349182
1.176525452
1.167443196
1.107471921
0.8466482459
0.3646375851
0.05655975977
0.2415219834
0.4718277482
0.7010426397
0.8984185525
1.035042741
1.113387869
1.151038421
1.165203035
1.16458873
1.158472101
1.154627326
1.152819922
1.152315424
1.152474065
1.153657099
1.157255874
1.164099071
1.17070698
1.176685857
1.166143432
1.099745989
0.8340542938
0.3651857507
0.05867866192
0.2416532634
0.4700873927
0.6969107176
0.893381633
1.030816053
1.110439245
1.149048795
1.163923457
1.163795414
1.158027535
1.154299042
1.152510595
1.151992548
1.152644571
1.153914007
1.157629574
1.164540612
1.171032086
1.176781692
1.164522272
1.092008559
0.8235022029
0.366801895
0.06097496484
0.2416286547
0.4681521954
0.6926910081
0.8882458371
1.026444297
1.107368246
1.146994455
1.162622413
1.162987865
1.157680905
1.154086185
1.152311891
1.151775206
1.152631086
1.15396881
1.157776803
1.164762984
1.171337598
1.176808048
1.162609023
1.084446277
0.8145969181
0.3692171723
0.06345435544
0.2414842145
0.4660487204
0.6884115913
0.8830433542
1.021961864
1.104196161
1.144885616
1.161304285
1.162168324
1.15719864
1.153719452
1.151961335
1.151410917
1.152764278
1.1541908
1.158118117
1.165179735
1.171612681
1.176760098
1.16044579
1.077156921
0.8070092426
0.3722007448
0.06611915039
0.2412651088
0.4638251317
0.6841091009
0.8778098271
1.017400653
1.100942148
1.142730729
1.159972418
1.16134162
1.156816767
1.153457326
1.151710698
1.151140696
1.152746928
1.154234174
1.15824251
1.165355485
1.171870876
1.1766334
1.158085884
1.070212961
0.8005739936
0.375664839
0.06897295711
0.241011847
0.4615445651
0.6798242332
0.872581438
1.012790394
1.097623829
1.140537314
1.158629862
1.160505102
1.156345877
1.153105928
1.151373533
1.150791285
1.152826863
1.154406627
1.158538731
1.165739668
1.172097736
1.176428403
1.155585018
1.063673332
0.7952069928
0.3796129854
0.0720202536
0.2407685564
0.4592591796
0.6755981647
0.867394586
1.008160063
1.094258581
1.138313551
1.157281952
1.159669764
1.155879098
1.152754355
1.151035714
1.150433403
1.152842443
1.154471617
1.158669881
1.16590569
1.172310146
1.176150867
1.153007921
1.057541549
0.7907287372
0.3838625845
0.07527653452
0.2405702391
0.4570212632
0.6714702583
0.8622829829
1.003536064
1.090862295
1.136065623
1.155946327
1.158836461
1.155530167
1.152501272
1.1507937
1.15018204
1.152926494
1.154669256
1.159019722
1.166360548
1.172509979
1.175827913
1.150485043
1.051793442
0.786923305
0.3881477446
0.07873818855
0.2404556557
0.4549031427
0.6675063738
0.8572967255
0.9989528381
1.087453061
1.133798437
1.154695703
1.158077827
1.154882592
1.152014362
1.150330449
1.149696997
0.1527789089
0.05547605226
0.04306723925
0.3031062798
0.08088935127
0.05852611161
0.4306035788
0.1134405422
0.08471306541
0.4509225634
0.1438967941
0.118241964
0.409333397
0.03605113657
0.04489609168
0.1813016584
0.1478595842
0.3253184149
0.07080491074
0.03701952925
0.09303269763
0.2481299264
0.1845401795
0.07610392369
0.05494031657
0.04442561362
0.08232579174
0.02806954542
0.0186621833
0.05946342931
0.1024135585
0.1037740751
0.3037669667
0.2959932649
0.1761727597
0.02639749178
0.03947744914
0.08440761252
0.1187471481
0.1050019737
0.3819497409
0.4121049927
0.3108721302
0.3655246858
0.1988122364
0.223081131
0.04654082107
0.03286074844
0.1156852996
0.1467776995
0.1248038255
0.4303665223
0.4531102058
0.4241883492
0.4662663678
0.1310618424
0.1689524263
0.08854060847
0.06417363406
0.4515243882
0.4106295481
0.4503828493
0.4358513245
0.07838525971
0.1027843744
0.01554726363
0.1350430937
0.1211274
0.4957921363
0.3963016069
0.404667774
0.3766181595
0.0310580136
0.05088509018
0.2865065104
0.09935771948
0.07251134921
0.06298638531
0.143760867
0.03008084812
0.05715503763
0.04054362706
0.02936518339
0.04705113426
0.03110638978
0.04907449019
0.2263686064
0.2501007248
0.2505172536
0.1955759643
0.1822804379
0.1619313303
0.1982617578
0.03252663029
0.02625034152
0.07011288375
0.03918991397
0.04452223556
0.05023360998
0.03940021884
0.06855857436
0.1715637118
0.1951932121
0.3817184374
0.1527316778
0.129621463
0.1806248398
0.1546494228
0.06097399078
0.0477160124
0.1010723643
0.06651719648
0.08596199803
0.04498206627
0.06393330185
0.0967693149
0.1041506964
0.1294753649
0.4677576686
0.1042841187
0.079689726
0.1282818016
0.1055868938
0.1173398645
0.09237955867
0.05185496497
0.07665208321
0.4260296244
0.01265380673
0.0540044963
0.03263423763
0.07865965615
0.05555449538
0.01202889684
0.1421277581
0.1370769461
0.01727841759
0.004759689411
0.03076379427
0.3723330829
0.05704234291
0.01927408311
0.01144346228
0.03228492927
0.01960080209
0.05465439863
0.2243073051
0.159729006
0.09109805224
0.09719770495
0.06188632026
0.03531200682
0.01470751634
0.00821541529
0.231083022
0.2531949004
0.1573171866
0.009923025037
0.1499698467
0.1841302196
0.1552096786
0.01202701434
0.04999275725
0.04315763921
0.06866913626
0.159233892
0.1461616995
0.142870776
0.06889866141
0.1084562665
0.04120992659
0.0126171338
0.02212007264
0.02137977955
0.02940394256
0.04540923353
0.04181017883
0.03030307624
0.1326108421
0.1142341575
0.1315423181
0.08912189922
0.1110196238
0.129478581
0.02471938107
0.01369737032
0.04317365318
0.02172065256
0.03690221283
0.02932603912
0.01881421532
0.02872698753
0.02076232558
0.01415655802
0.02229281924
0.01820104546
0.00976133963
0.01571848701
0.02114847763
0.03383894362
0.03442028675
0.03970172183
0.03874306395
0.01583983135
0.01025380195
0.07756928208
0.0133829492
0.0239842869
0.009761132412
0.0118973706
0.07398213074
0.09229460576
0.2535123062
0.2416609434
0.06433132488
0.05364883711
0.01165784926
0.04602289127
0.1892402187
0.1773273842
0.2056326558
0.1940630254
0.04635909171
0.04934476526
0.04156814188
0.09136089657
0.06462403259
0.05554636809
0.03984165289
0.06417540427
0.1028997516
0.03645648405
0.02290808474
0.01440593801
0.05126860466
0.02549983485
0.04024828171
0.02462698557
0.05663498738
0.04017837731
0.03928091488
0.1931864094
0.03127865345
0.1926017311
0.2122806902
0.03485106867
0.03885035512
0.03167780515
0.0343711993
0.2086829358
0.03114875449
0.03090411476
0.04226044671
0.06819998634
0.06352913298
0.07454391724
0.0698896479
0.04251613726
0.04729014574
0.05560086764
0.05039526671
0.06186715524
0.05706047877
0.04640518929
0.1414720973
0.1399771789
0.168808129
0.1671927453
0.05749009864
0.009628333432
0.05630200699
0.09525467587
0.09349326216
0.1164394342
0.1149086635
0.02545011842
0.03679739859
0.103443661
0.02840030938
0.01699474677
0.06784312613
0.2217986437
0.209833389
0.2376264577
0.2257476861
0.06913150449
0.02228791491
0.04958731804
0.048585799
0.07179122837
0.07096036221
0.007949416979
0.0300858212
0.07952251632
0.06816451149
0.1726764245
0.1641385514
0.02475559934
0.01237055247
0.01749230481
0.0138680988
0.03087084308
0.01290958555
0.01380885799
0.01346078388
0.0309097108
0.04621779892
0.01394917438
0.01499855123
0.003699536898
0.01636575806
0.01302795913
0.5827830376
0.382717729
0.387207485
0.2592598863
0.008979947933
0.005364970177
0.1365781894
0.3258795378
0.2789246011
0.005863501095
0.01198757542
0.01101404728
0.09483414752
0.08369333238
0.03217224127
0.1941996378
0.1657176394
0.07163925072
0.00907743436
0.01536818626
0.01226353258
0.008320787697
0.01211578491
0.008607320171
0.02858570881
0.01208432665
0.01138937743
0.0369249902
0.04319982
0.01227160915
0.0169380477
0.008620476049
0.008762230615
0.03439336468
0.1445578755
0.313004363
0.3020989524
0.3273049001
0.3166068464
0.1476706563
0.2687636392
0.2572342956
0.09354429002
0.03414228905
0.09760780962
0.09252158884
0.0124185954
0.01789188086
0.07834272008
0.04606175656
0.01370128921
0.01218910175
0.03800748965
0.04196562038
0.03750460717
0.04872048078
0.04356236592
0.03989869547
0.03181966967
0.008672701841
0.008612730654
0.02742407947
0.1817225242
0.3411852014
0.330783992
0.05995756427
0.0618245294
0.1340558581
0.01797802024
0.01959522846
0.05107338026
0.07424321348
0.1013753618
0.09382644098
0.05074947176
0.08207767318
0.07647553111
0.0910851954
0.08426906946
0.05181784398
0.1170181483
0.2837408759
0.2724949648
0.2984539316
0.2874586683
0.1187463651
0.1005051636
0.03735725545
0.03807125722
0.02166973858
0.02249726118
0.08393383769
0.1234333764
0.05589770014
0.05956406909
0.03836710587
0.03903300086
0.1094874177
0.107208818
0.03878996522
0.05349109754
0.00864779241
0.01545557185
0.05171040018
0.0397777373
0.07568816326
0.02106354016
0.02152977773
0.02067842473
0.06471642567
0.01202261903
0.00440093678
0.1269923032
0.1107775843
0.09079771427
0.08669690527
0.03044296431
0.0156969397
0.02528957491
0.06466023295
0.01904416983
0.01210305594
0.01748033638
0.01980222427
0.002824449125
0.03183216269
0.02066362315
0.01198728942
0.006371308995
0.01154755571
0.009919553262
0.00972221623
0.02402088219
0.018348938
0.007775386558
0.03835797272
0.03993274102
0.01471050179
0.01091598116
0.007013119772
0.01145333923
0.01598248544
0.01077771959
0.0122201671
0.03520640095
0.01090271677
0.01088271029
0.01254420564
0.01279456125
0.02964672361
0.01280359213
0.01263555565
0.01309007916
0.01267009014
0.01301577855
0.01590445558
0.0136060642
0.0208020411
0.01725536587
0.01312707164
0.01367039378
0.02158497463
0.01789241587
0.02506386754
0.02248729847
0.01738895267
0.01549195968
0.01233396417
0.01046372483
0.008179097726
0.03027264742
0.03630921659
0.01117212223
0.01056979113
0.01154188279
0.0120027676
0.04209587122
0.008901884321
0.008807726975
0.01031327828
0.009008006541
0.008759825103
0.03541826583
0.00861465789
0.01138575205
0.01172379951
0.01088453546
0.01750310995
0.04453903017
0.04002380138
0.01032280378
0.03236024126
0.02770556937
0.03841498525
0.03415414997
0.01048600748
0.01166138583
0.03124468681
0.02620140498
0.1057790589
0.09940052188
0.03803983579
0.04850430619
0.1127545674
0.1075083224
0.04462122744
0.04379896416
0.06653085227
0.07573383725
0.09144244688
0.05678081455
0.07112346648
0.06736244305
0.05934739883
0.133924526
0.1235444688
0.09892863377
0.1292221133
0.05926940805
0.03798045879
0.04177098435
0.05208298051
0.03290604519
0.03677129847
0.01931429037
0.01829681054
0.04502241154
0.01325504
0.01325250913
0.01031406269
0.01929316342
0.02293029294
0.01369771731
0.01947201221
0.03451715801
0.02669114422
0.02025461138
0.02949885311
0.09326912941
0.08205592718
0.09927078831
0.09558837863
0.03060331343
0.07408522887
0.07199919296
0.07885463003
0.07483614525
0.03630496212
0.1144644984
0.1103678996
0.121052685
0.1159112322
0.03687643783
0.03276114064
0.1040451962
0.100530155
0.1090508412
0.1052630566
0.03309361236
0.008892988961
0.008738265682
0.03162054747
0.02860969947
0.008680887169
0.008947815391
0.04355075929
0.04281017512
0.04566659954
0.04380565857
0.04143549824
0.04041503128
0.04256321712
0.04170095772
0.06882504162
0.06697242499
0.07135120706
0.06946771556
0.06173793363
0.04832225314
0.06620069649
0.06420487866
0.02055485022
0.01752415126
0.02635902715
0.02217967615
0.006553875217
0.01135770796
0.01070064582
0.01637655952
0.01161315256
0.03641653415
0.03700903284
0.09921253008
0.021695752
0.02148047162
0.02235094507
0.02187891815
0.02081128877
0.08621193349
0.02317459598
0.03426081525
0.04114540195
0.05406544708
0.1217386627
0.03767025123
0.02449064404
0.04028010921
0.03735487222
0.0231220296
0.02258424228
0.02404967173
0.0233419802
0.1108061212
0.03925688221
0.0401277969
0.007221621236
0.02371289838
0.01077457971
0.01069431602
0.01052714831
0.02211424398
0.009017714781
0.01698650398
0.01232846791
0.01272226986
0.05107221358
0.04467543907
0.02047427293
0.02095554702
0.07477168868
0.06686196186
0.01959660055
0.0204133527
0.01212129702
0.02934674561
0.0841705362
0.07595915878
0.01382052341
0.01308924076
0.01826915324
0.0125115064
0.01423438833
0.01483610633
0.03172407697
0.009407515319
0.01398810049
0.01237831049
0.01415809396
0.02150599855
0.05127692519
0.1086579226
0.1404283756
0.01160643099
0.01115446345
0.187914138
0.2384531022
0.1954755799
0.007659490429
0.03139908656
0.01329728579
0.01566497461
0.1359412902
0.1417908033
0.1594793676
0.004687750132
0.007099306764
0.00527348336
0.004859788087
0.005604727432
0.004381648926
0.05454574821
0.03405827528
0.02165856385
0.02481343469
0.02302390961
0.02667597713
0.2094987062
0.3589183315
0.3578610066
0.3373354975
0.3503627888
0.2129280498
0.03763454168
0.03291684588
0.01205409658
0.05707558488
0.06792612228
0.1300831098
0.1197114586
0.1144201784
0.0489858174
0.02724406433
0.02766412906
0.03280901933
0.3545695533
0.3445886473
0.184965917
0.14767155
0.06721321642
0.07084028775
0.07377950306
0.08406001975
0.1603913394
0.05948780149
0.1276299728
0.1215528368
0.01198161801
0.01191092576
0.01334706993
0.02036781593
0.02066596103
0.03348717014
0.01176338392
0.01236074174
0.01211713834
0.0229278616
0.0451974423
0.03897794433
0.01921994799
0.03208169013
0.01991773898
0.02009848822
0.01963312112
0.01416423855
0.01008993535
0.01141474995
0.01126875773
0.01194783453
0.02016340867
0.02504753186
0.04986963122
0.04015039442
0.0361074723
0.03293001562
0.02429080116
0.03688464122
0.01356536463
0.01827228601
0.01291976987
0.009355292436
0.009412723838
0.01315958253
0.01294711527
0.02221285113
0.01410704797
0.009818596893
0.01645335271
0.01877811621
0.01748263412
0.01274923992
0.01600835837
0.01454999375
0.0104328724
0.0107825761
0.006772982929
0.01013121489
0.01032451691
0.05074476923
0.04597679521
0.01903346869
0.009694675004
0.01197850128
0.01111033987
0.01162445946
0.01295624903
0.01199121441
0.04736349041
0.03685430553
0.04228133678
0.06531301158
0.0912369435
0.08999181843
0.0413616149
0.06616375721
0.06269378495
0.08899769065
0.08741094111
0.06292144307
0.03147784586
0.03803702679
0.03438915932
0.02649795693
0.027241821
0.02249804922
0.04617224847
0.04490093122
0.04846780748
0.02380463627
0.03407169311
0.03245846769
0.0519843087
0.05162250041
0.03102567469
0.02885697381
0.02845532135
0.03142618383
0.03073354956
0.03536166265
0.05774653516
0.05716638723
0.06115690389
0.06043624623
0.0381168137
0.03200032611
0.05315150766
0.05265691308
0.05656895047
0.05597881543
0.03393015803
0.06473257376
0.06654587893
0.1460796859
0.1354723862
0.06238560691
0.06415578052
0.09052408171
0.09347458126
0.1738792073
0.02689692051
0.02675264316
0.02822435187
0.02800989754
0.02058455802
0.02649209886
0.02638568527
0.1621183846
0.08616838807
0.08942258391
0.009386786728
0.009353936596
0.01087105493
0.01051652114
0.009594801119
0.009198929268
0.006511758316
0.05222005293
0.02038689293
0.0249059985
0.1354612407
0.1296556595
0.06268961221
0.07201383853
0.1423653238
0.1371866486
0.03278087964
0.03283595665
0.04993578424
0.0482740276
0.03238827846
0.0323279353
0.01169516689
0.02341840378
0.03736068831
0.03666752492
0.009061229848
0.01490550299
0.01583587878
0.01439539642
0.01405147728
0.01898953584
0.01923179162
0.03132248275
0.01311358136
0.009542021388
0.01293733845
0.0134984184
0.02931671058
0.01848153436
0.01907636301
0.0136025243
0.02787275237
0.02298404941
0.01175195378
0.01171283949
0.0110848891
0.01118391634
0.01396870106
0.006352024592
0.004112135814
0.007387121558
0.01132989173
0.01133178047
0.01125097957
0.01101802365
0.0113692444
0.01092561373
0.009876681756
0.006491776978
0.005209706249
0.01040238588
0.01070844176
0.01002761546
0.01014485765
0.01178933337
0.01803873429
0.01826997677
0.01767966458
0.0178656701
0.01166725894
0.008617220746
0.01347814451
0.01347078077
0.01392193274
0.0135791026
0.008558926915
0.01298653786
0.02032765522
0.0226018817
0.01854379135
0.01913087447
0.01257799309
0.008667548206
0.01350513957
0.01352176844
0.0134447353
0.01349058813
0.008642414389
0.009704226357
0.009872995955
0.009388780637
0.009816430883
0.03751788007
0.05655447702
0.05609993077
0.02190342464
0.03642551792
0.03617249438
0.03774714088
0.03679163623
0.02211308687
0.01253357514
0.01206044384
0.01236961573
0.01261581879
0.02058354182
0.02038833779
0.02102472649
0.02079743887
0.01607119773
0.03560016286
0.02127024284
0.02219830653
0.02123520388
0.0356758951
0.03545615689
0.03601206941
0.03582847375
0.02136226292
0.02195210053
0.02133702436
0.03202442412
0.02295000534
0.01648945446
0.008424968641
0.01203618798
0.01176449362
0.008335144699
0.04370986656
0.03046410575
0.002978539066
0.03044396862
0.04651243251
0.04617779541
0.01900966715
0.01202300281
0.008851304859
0.003387148812
0.01383773245
0.01427682997
0.01967481516
0.01984431764
0.03201629359
0.02005539707
0.01066223129
0.01130919327
0.01453024107
0.004823450501
0.009124365089
0.006916439579
0.007260190015
0.00768538819
0.00997280695
0.006622130069
0.01147091206
0.01132131883
0.01141942262
0.03989630935
0.03105337907
0.008169696864
0.0102286339
0.0112895487
0.01846001041
0.02069546382
0.01208203132
0.01494410516
0.01443199641
0.0111945611
0.007361388548
0.0111309216
0.01276277707
0.008967758631
0.01263936661
0.01281598941
0.01276319841
0.01313335036
0.01295051761
0.01295570466
0.01285083074
0.01279515044
0.01336032301
0.01332338357
0.01299296312
0.01337823936
0.01365675529
0.01359564782
0.0169950979
0.01881580147
0.01665757672
0.02538189746
0.02095116224
0.01618521136
0.01519338576
0.01647790843
0.01001110342
0.01591981444
0.01684378949
0.01145590669
0.01585071518
0.01066907285
0.01098369208
0.01732733341
0.01748976587
0.01692857584
0.01716638554
0.01082710167
0.01172706116
0.02022264217
0.01986125384
0.008901304077
0.00885342799
0.009455584048
0.006686488785
0.00894707194
0.008876932434
0.008639223853
0.00735410387
0.009614376317
0.01672019999
0.01492306635
0.01932655362
0.01832693603
0.01073147495
0.01018894734
0.01045335201
0.01296216509
0.006915429413
0.01048417866
0.01034030393
0.01077850224
0.01018534931
0.01032956596
0.01518601039
0.0135449184
0.009887455222
0.04573537887
0.04285443827
0.08079344456
0.07270210777
0.04326335925
0.06266574618
0.0866220413
0.0833747315
0.03469035431
0.0320305451
0.02981916697
0.02267742609
0.02945900921
0.04219691205
0.04286827623
0.03769936569
0.0192424284
0.02775577476
0.02818060978
0.02520925716
0.02607423231
0.01814692204
0.01247355872
0.01339046019
0.02061862717
0.01449367885
0.01379580185
0.01553018573
0.01473462385
0.02091221161
0.01411899348
0.01471930591
0.01156514802
0.01506756157
0.047726277
0.04790875835
0.03088934181
0.03058534597
0.05069554152
0.05068574173
0.02952855645
0.02914711602
0.03028306032
0.02987007357
0.05880828486
0.05825498784
0.03575174949
0.03747956398
0.05988569492
0.05935288484
0.0542931562
0.05376865713
0.0324213234
0.03347079151
0.055378883
0.05483097126
0.008806899892
0.01361122412
0.0136509729
0.01356266304
0.01360286576
0.008783926047
0.008975093922
0.01272079284
0.0110969452
0.01359914763
0.01338557981
0.008987725973
0.04329251596
0.02565056569
0.0259147259
0.02523300135
0.0254355832
0.04305662761
0.04457451361
0.02684359809
0.02732559056
0.02617696554
0.02648225461
0.04411250135
0.0410666954
0.02403238219
0.02426666873
0.02367052736
0.02389623387
0.0408393547
0.04229467615
0.02484472548
0.02503182001
0.02442991515
0.02465862988
0.04202897731
0.02732388777
0.02714226825
0.06821639969
0.0461742968
0.04648052948
0.04550869206
0.04577698427
0.06754089613
0.02775768774
0.0275560937
0.02526009743
0.0265038022
0.05973525325
0.04189381008
0.04159786003
0.0282207334
0.02961828081
0.05350323272
0.06574012081
0.04484027827
0.04503171494
0.04415505478
0.04410610243
0.06457221307
0.02606788367
0.02611094058
0.009412802536
0.009510324261
0.009410078224
0.0102517479
0.009715818598
0.01106141746
0.009208715993
0.009242185096
0.009052942886
0.009131349948
0.01099643233
0.01467022682
0.009556330388
0.01026610429
0.009315827388
0.009188700445
0.01272826
0.03633641076
0.054072568
0.05377691944
0.05543403739
0.05508402827
0.03691353775
0.02165038327
0.02141136029
0.02222627099
0.02195474636
0.02189392124
0.01711840377
0.02439810406
0.04458873002
0.04004699199
0.05163940803
0.04987851827
0.03454980025
0.02657275215
0.01849929444
0.02376594616
0.0252708304
0.03962076174
0.02332021671
0.02360524089
0.02263361343
0.02337292903
0.0396875585
0.02295605087
0.02273305316
0.02378054357
0.0235359673
0.01089119107
0.01098883104
0.0108365429
0.01273256158
0.01154619533
0.01092430034
0.01050653326
0.01061640544
0.01060327641
0.01063366624
0.007088448444
0.01271553688
0.01216319455
0.01232866484
0.01231439643
0.01224986383
0.01268424493
0.01993002113
0.01988668847
0.02018353481
0.02011832566
0.03068341185
0.03064718371
0.04627616596
0.01911859186
0.02017059437
0.01965113949
0.01972088144
0.0206861643
0.03487188103
0.03451244846
0.03529573209
0.03501787846
0.02076595185
0.02014631892
0.03382615468
0.03195650011
0.03439201426
0.03380299651
0.02012994792
0.01215962101
0.04458442898
0.04403765323
0.02912806713
0.01403918022
0.01140569393
0.0111032523
0.008461668898
0.01159665741
0.01329749637
0.01883130719
0.01324980191
0.01452833877
0.01422922459
0.03143900051
0.01934738049
0.01955026378
0.01287514567
0.01266830872
0.01274922585
0.01367317004
0.01339089329
0.009035380865
0.009325777412
0.01397571988
0.01285050325
0.01345522182
0.01570400777
0.01936586489
0.02932789225
1.155515744
1.156222036
1.156035408
1.156517856
1.157664101
1.156761007
1.146614518
0.9736428268
1.157721424
0.9392961413
0.8406587573
0.9979312638
0.8238802364
0.7872778667
0.9319745478
0.7856397648
0.8025500582
0.9499590003
0.8134287529
0.8877994434
1.056814574
0.9160567226
1.052946952
1.157530257
1.100479617
1.157323146
1.156615913
1.156977017
1.156087979
1.155978911
1.155858092
1.157338554
1.156387634
1.105115907
0.8935084766
1.126042426