/*--------------------------------*- C++ -*----------------------------------*\
| =========                 |                                                 |
| \\      /  F ield         | OpenFOAM: The Open Source CFD Toolbox           |
|  \\    /   O peration     | Version:  v1912                                 |
|   \\  /    A nd           | Website:  www.openfoam.com                      |
|    \\/     M anipulation  |                                                 |
\*---------------------------------------------------------------------------*/
FoamFile
{
    version     2.0;
    format      ascii;
    class       pointVectorField;
    location    "1.95";
    object      pointDisplacement;
}
// * * * * * * * * * * * * * * * * * * * * * * * * * * * * * * * * * * * * * //

dimensions      [0 1 0 0 0 0 0];


internalField   nonuniform List<vector> 
26316
(
(0 0 0)
(0 0 0)
(0 0 0)
(0 0 0)
(0 0 0)
(0 0 0)
(0 0 0)
(0 0 0)
(0 0 0)
(0 0 0)
(0 0 0)
(0 0 0)
(0 0 0)
(0 0 0)
(0 0 0)
(0 0 0)
(0 0 0)
(0 0 0)
(0 0 0)
(0 0 0)
(0 0 0)
(0 0 0)
(0 0 0)
(0 0 0)
(0 0 0)
(0 0 0)
(0 0 0)
(0 0 0)
(0 0 0)
(0 0 0)
(0 0 0)
(0 0 0)
(0 0 0)
(0 0 0)
(0 0 0)
(0 0 0)
(0 0 0)
(0 0 0)
(0 0 0)
(0 0 0)
(0 0 0)
(0 0 0)
(0 0 0)
(0 0 0)
(0 0 0)
(0 0 0)
(0 0 0)
(0 0 0)
(0 0 0)
(0 0 0)
(0 0 0)
(0 0 0)
(0 0 0)
(0 0 0)
(0 0 0)
(0 0 0)
(0 0 0)
(0 0 0)
(0 0 0)
(0 0 0)
(0 0 0)
(0 0 0)
(0 0 0)
(0 0 0)
(0 0 0)
(0 0 0)
(0 0 0)
(0 0 0)
(0 0 0)
(0 0 0)
(0 0 0)
(0 0 0)
(0 0 0)
(0 0 0)
(0 0 0)
(0 0 0)
(0 0 0)
(0 0 0)
(0 0 0)
(0 0 0)
(0 0 0)
(0 0 0)
(0 0 0)
(0 0 0)
(0 0 0)
(0 0 0)
(0 0 0)
(0 0 0)
(0 0 0)
(0 0 0)
(0 0 0)
(0 0 0)
(0 0 0)
(0 0 0)
(0 0 0)
(0 0 0)
(0 0 0)
(0 0 0)
(0 0 0)
(0 0 0)
(0 0 0)
(0 0 0)
(0 0 0)
(0 0 0)
(0 0 0)
(0 0 0)
(0 0 0)
(0 0 0)
(0 0 0)
(0 0 0)
(0 0 0)
(0 0 0)
(0 0 0)
(0 0 0)
(0 0 0)
(0 0 0)
(0 0 0)
(0 0 0)
(0 0 0)
(-8.966051837e-07 1.467789831e-06 2.775557562e-17)
(0 0 0)
(0 0 0)
(-4.937983966e-07 1.644041479e-05 3.330669074e-16)
(2.284805579e-06 1.397685323e-05 2.91433544e-16)
(0 0 0)
(0 0 0)
(0 0 0)
(0 0 0)
(0 0 0)
(0 0 0)
(0 0 0)
(0 0 0)
(0 0 0)
(0 0 0)
(0 0 0)
(0 0 0)
(0 0 0)
(0 0 0)
(0 0 0)
(0 0 0)
(0 0 0)
(0 0 0)
(0 0 0)
(0 0 0)
(0 0 0)
(0 0 0)
(0 0 0)
(0 0 0)
(0 0 0)
(0 0 0)
(0 0 0)
(0 0 0)
(0 0 0)
(0 0 0)
(0 0 0)
(0 0 0)
(0 0 0)
(0 0 0)
(0 0 0)
(0 0 0)
(0 0 0)
(0 0 0)
(0 0 0)
(0 0 0)
(0 0 0)
(0 0 0)
(0 0 0)
(0 0 0)
(0 0 0)
(0 0 0)
(0 0 0)
(0 0 0)
(0 0 0)
(0 0 0)
(0 0 0)
(0 0 0)
(0 0 0)
(0 0 0)
(0 0 0)
(0 0 0)
(0 0 0)
(0 0 0)
(0 0 0)
(0 0 0)
(0 0 0)
(-5.585612859e-05 6.567236087e-06 4.996003611e-16)
(-0.000321359739 4.131299705e-05 3.080868893e-15)
(-4.203587146e-06 8.904664577e-07 4.163336342e-17)
(-0.0006096061846 0.0001777011242 8.021361353e-15)
(-0.001511069682 0.0002699569896 1.992850329e-14)
(-0.001790160748 0.0003667028266 2.700617507e-14)
(-0.0008369538457 0.0002790019156 1.257327575e-14)
(-0.00101276381 0.0005887161675 2.647881914e-14)
(-0.001764701485 0.0006341964287 4.664324482e-14)
(-0.001462715071 0.0006995655345 5.154210392e-14)
(-0.0008684255828 0.0006697369805 3.012867733e-14)
(-2.347325269e-05 0.0007803685281 3.524958103e-14)
(-1.128598348e-05 0.0007824491636 5.827283101e-14)
(0.0005254433416 0.0007693506957 5.750955268e-14)
(0.0003004232095 0.0007665487708 3.466671394e-14)
(0.0009704827757 0.0005855227916 2.657596365e-14)
(0.001727998548 0.0006194361097 4.67820227e-14)
(0.001886542589 0.0005404560613 4.088396288e-14)
(0.001018102489 0.0004900102821 2.224609386e-14)
(0.0005964558409 0.0001789723146 8.118505868e-15)
(0.001482530741 0.0002661783821 2.010891453e-14)
(0.001114068967 0.0001782623338 1.34336986e-14)
(0.0003482225915 9.288669215e-05 4.204969706e-15)
(0 0 0)
(5.86011041e-05 7.066419627e-06 5.273559367e-16)
(0 0 0)
(0 0 0)
(0 0 0)
(0 0 0)
(0 0 0)
(0 0 0)
(0 0 0)
(0 0 0)
(0 0 0)
(0 0 0)
(0 0 0)
(0 0 0)
(0 0 0)
(0 0 0)
(0 0 0)
(0 0 0)
(0 0 0)
(0 0 0)
(0 0 0)
(0 0 0)
(0 0 0)
(0 0 0)
(0 0 0)
(0 0 0)
(0 0 0)
(0 0 0)
(0 0 0)
(0 0 0)
(0 0 0)
(0 0 0)
(0 0 0)
(0 0 0)
(0 0 0)
(0 0 0)
(0 0 0)
(0 0 0)
(0 0 0)
(0 0 0)
(0 0 0)
(0 0 0)
(0 0 0)
(0 0 0)
(0 0 0)
(0 0 0)
(0 0 0)
(0 0 0)
(-0.0001559951731 -2.231494692e-05 1.026956298e-15)
(-0.0008518358015 -0.000129451842 6.022959909e-15)
(-0.000201848576 -1.830666758e-05 1.429412144e-15)
(-0.002873083144 -0.0003182747122 2.539635169e-14)
(-0.004588884962 -0.0008571814397 4.064804049e-14)
(-0.00584259931 -0.001185045984 5.659361868e-14)
(-0.003943604699 -0.0004725635079 3.808064974e-14)
(-0.00608235053 -0.0009896593028 8.144873664e-14)
(-0.008019343507 -0.002232523682 1.079969447e-13)
(-0.008026620988 -0.002565994519 1.242339565e-13)
(-0.006223784121 -0.00115965677 9.567346915e-14)
(-0.004756531945 -0.0016023383 1.309230502e-13)
(-0.005862271512 -0.003407958873 1.635497293e-13)
(-0.00454154315 -0.003614926062 1.724592691e-13)
(-0.003730635302 -0.001715096131 1.390554338e-13)
(0.000212501889 -0.001907812714 1.499078639e-13)
(0.0003530650763 -0.003951770439 1.842415109e-13)
(0.002055905265 -0.003956207341 1.829647545e-13)
(0.001597210732 -0.001913699001 1.487282519e-13)
(0.005042266528 -0.001736689256 1.312006059e-13)
(0.006376735111 -0.003618865151 1.638689184e-13)
(0.007339976637 -0.003389857807 1.527528104e-13)
(0.005762735934 -0.001613069483 1.210975764e-13)
(0.006128804566 -0.001096673386 8.186507028e-14)
(0.00816692402 -0.002421901365 1.084965451e-13)
(0.007707815267 -0.002037972297 9.142686608e-14)
(0.005635351742 -0.0008969313214 6.71546152e-14)
(0.002858950735 -0.000337404329 2.571554081e-14)
(0.004577506814 -0.0009047746927 4.107825191e-14)
(0.00323153308 -0.0005872920322 2.681188604e-14)
(0.001792681966 -0.0001940642224 1.490474411e-14)
(0 0 0)
(0.000154885354 -2.261438882e-05 1.040834086e-15)
(0 0 0)
(0 0 0)
(0 0 0)
(0 0 0)
(0 0 0)
(0 0 0)
(0 0 0)
(0 0 0)
(0 0 0)
(0 0 0)
(0 0 0)
(0 0 0)
(0 0 0)
(0 0 0)
(0 0 0)
(0 0 0)
(0 0 0)
(0 0 0)
(0 0 0)
(0 0 0)
(0 0 0)
(0 0 0)
(0 0 0)
(0 0 0)
(0 0 0)
(0 0 0)
(0 0 0)
(0 0 0)
(0 0 0)
(0 0 0)
(0 0 0)
(0 0 0)
(0 0 0)
(0 0 0)
(0 0 0)
(0 0 0)
(0 0 0)
(0 0 0)
(0 0 0)
(-6.711822469e-05 -2.131375719e-05 3.747002708e-16)
(0 0 0)
(-0.002853621953 -0.0008997609479 1.891542478e-14)
(-0.004239337218 -0.001579369149 2.808864252e-14)
(-0.006625677608 -0.00262402208 4.693467837e-14)
(-0.004868115148 -0.00163164423 3.44863027e-14)
(-0.01106082703 -0.004600403528 9.86849491e-14)
(-0.01340673264 -0.006605337184 1.198485755e-13)
(-0.01494475179 -0.008039255584 1.463551502e-13)
(-0.0125905524 -0.005712539952 1.230127111e-13)
(-0.01414302835 -0.008929126915 1.932343174e-13)
(-0.01609105547 -0.01207242546 2.205735594e-13)
(-0.01527515518 -0.01322253633 2.4133473e-13)
(-0.01356209415 -0.009873072974 2.134958876e-13)
(-0.009011059786 -0.01209195835 2.592093207e-13)
(-0.009916321248 -0.01584854269 2.867428517e-13)
(-0.007431009948 -0.01643176517 2.960270917e-13)
(-0.006794312886 -0.01260021989 2.688821388e-13)
(0.0008302065575 -0.01339448613 2.812750033e-13)
(0.0009514176023 -0.01733505893 3.076705557e-13)
(0.003804470954 -0.01735654968 3.064631882e-13)
(0.003435724949 -0.0134070756 2.799704912e-13)
(0.01037693475 -0.01262305762 2.595978987e-13)
(0.01152786134 -0.0164974772 2.871314297e-13)
(0.0135634904 -0.0158638547 2.75016121e-13)
(0.01214144683 -0.01206769856 2.471772786e-13)
(0.01480099116 -0.009533171434 1.93914329e-13)
(0.01694260341 -0.01284843768 2.211564265e-13)
(0.01695788341 -0.01151214935 1.980637876e-13)
(0.0146536038 -0.00844436851 1.717376241e-13)
(0.01110564498 -0.00482707994 9.869882689e-14)
(0.01385396884 -0.007114822856 1.22429844e-13)
(0.01191977876 -0.005665342483 9.749145935e-14)
(0.009440444843 -0.003790102267 7.749356712e-14)
(0.003261011479 -0.001061901241 2.187139359e-14)
(0.004875657117 -0.001877353913 3.265443471e-14)
(0.002749288323 -0.0009941842256 1.734723476e-14)
(0.001570661063 -0.000480341438 9.922618283e-15)
(0 0 0)
(0 0 0)
(0 0 0)
(0 0 0)
(0 0 0)
(0 0 0)
(0 0 0)
(0 0 0)
(0 0 0)
(0 0 0)
(0 0 0)
(0 0 0)
(0 0 0)
(0 0 0)
(0 0 0)
(0 0 0)
(0 0 0)
(0 0 0)
(0 0 0)
(0 0 0)
(0 0 0)
(0 0 0)
(0 0 0)
(0 0 0)
(0 0 0)
(0 0 0)
(0 0 0)
(0 0 0)
(0 0 0)
(0 0 0)
(0 0 0)
(0 0 0)
(0 0 0)
(0 0 0)
(0 0 0)
(-0.0003102026311 -0.0001367909503 1.637578961e-15)
(-0.0007054020344 -0.0003436264822 3.73312492e-15)
(-0.002504615093 -0.001281487307 1.393329896e-14)
(-0.001684060853 -0.0007801746143 9.36750677e-15)
(-0.009873343893 -0.005386004647 6.536438057e-14)
(-0.01167699064 -0.007035849189 7.734091145e-14)
(-0.01503124394 -0.009638294288 1.063593658e-13)
(-0.01303575816 -0.007565967573 9.22040222e-14)
(-0.02045493458 -0.01478213696 1.823263762e-13)
(-0.02258324084 -0.01806298668 2.011862898e-13)
(-0.02373866586 -0.02073826718 2.314815006e-13)
(-0.02170373355 -0.01712703493 2.119554532e-13)
(-0.02120093747 -0.02337632982 2.905314878e-13)
(-0.02252133096 -0.02740740793 3.073374888e-13)
(-0.02068459637 -0.02903311437 3.25309224e-13)
(-0.01953774661 -0.02485317741 3.084615896e-13)
(-0.01194498199 -0.02798789698 3.445854713e-13)
(-0.0123824599 -0.03184169937 3.541333893e-13)
(-0.009115449354 -0.0322501044 3.574918139e-13)
(-0.008836868304 -0.02854302826 3.50164342e-13)
(0.00101305041 -0.02934329726 3.557293349e-13)
(0.0009230117309 -0.03277638735 3.594069486e-13)
(0.004281786261 -0.03289595956 3.593514375e-13)
(0.004327357707 -0.02942434715 3.552436123e-13)
(0.01392938786 -0.02895743197 3.45320994e-13)
(0.01427457509 -0.03284935432 3.546191119e-13)
(0.01729615515 -0.0324306256 3.487765632e-13)
(0.01674683961 -0.02838527527 3.371747326e-13)
(0.02254311068 -0.02474179332 2.911559882e-13)
(0.02395674796 -0.02901794039 3.084060785e-13)
(0.02503394096 -0.02719433636 2.880196082e-13)
(0.02330780151 -0.0229147793 2.686323386e-13)
(0.0213621725 -0.0160149675 1.875166689e-13)
(0.02354475409 -0.01949434557 2.065431159e-13)
(0.0215253471 -0.01648920108 1.750405376e-13)
(0.01930381874 -0.01338659287 1.57096558e-13)
(0.01046786772 -0.005894818227 6.98885394e-14)
(0.01234115775 -0.007682299244 8.232303728e-14)
(0.008888535848 -0.005200094072 5.592748487e-14)
(0.007281135503 -0.003852705415 4.585221092e-14)
(0.0004799381373 -0.0002148980782 2.581268532e-15)
(0.0008245355384 -0.0004083860809 4.427014311e-15)
(2.092925112e-05 -9.869193853e-06 1.110223025e-16)
(0 0 0)
(0 0 0)
(0 0 0)
(0 0 0)
(0 0 0)
(0 0 0)
(0 0 0)
(0 0 0)
(0 0 0)
(0 0 0)
(0 0 0)
(0 0 0)
(0 0 0)
(0 0 0)
(0 0 0)
(0 0 0)
(0 0 0)
(0 0 0)
(0 0 0)
(0 0 0)
(0 0 0)
(0 0 0)
(0 0 0)
(0 0 0)
(0 0 0)
(0 0 0)
(0 0 0)
(0 0 0)
(0 0 0)
(-2.952688876e-05 -1.933135703e-05 1.387778781e-16)
(-8.057094102e-07 -4.934397648e-07 0)
(0 0 0)
(-0.002214200118 -0.001385029166 1.171285291e-14)
(-0.002794576274 -0.00187676821 1.476596623e-14)
(-0.005795378352 -0.0040868306 3.225197887e-14)
(-0.004944616473 -0.003247955203 2.751965322e-14)
(-0.01601845046 -0.01239527214 1.060540544e-13)
(-0.0174361837 -0.01448557417 1.154215612e-13)
(-0.02115431732 -0.01870729268 1.495192858e-13)
(-0.02003917521 -0.01650233008 1.417338469e-13)
(-0.02755631542 -0.02831818685 2.449429548e-13)
(-0.0287076602 -0.03166617977 2.547961842e-13)
(-0.02940541726 -0.0354171038 2.851885395e-13)
(-0.02836005999 -0.03183274158 2.755851103e-13)
(-0.02537400469 -0.03947823512 3.412825578e-13)
(-0.02594159073 -0.04324130651 3.474304178e-13)
(-0.02326634519 -0.04443988987 3.564509798e-13)
(-0.02289839205 -0.04087013138 3.529260217e-13)
(-0.01309973176 -0.04178822453 0)
(-0.01335293515 -0.04504082451 0)
(-0.01165973935 -0.04507371668 0)
(-0.009872901767 -0.04503635309 0)
(-0.009732579436 -0.04342679696 0)
(-0.009659445524 -0.04185393167 0)
(0.0005755380288 -0.0421652936 0)
(0.0005180636725 -0.04372986101 0)
(0.002232156961 -0.04379145504 0)
(0.002280342863 -0.04222669375 0)
(0.01435393017 -0.04279983791 0)
(0.01434605662 -0.04440860394 0)
(0.01434942549 -0.04604271167 0)
(0.01605270684 -0.04615450161 0)
(0.0177323741 -0.04623441056 0)
(0.01777671964 -0.04300480228 0)
(0.02661275051 -0.04155135704 3.436556595e-13)
(0.02698576557 -0.04533955328 3.494982082e-13)
(0.02899208266 -0.04360087176 3.354955203e-13)
(0.02839820793 -0.0397089166 3.278488592e-13)
(0.02857089477 -0.03040566105 2.507716257e-13)
(0.02958171181 -0.03384328142 2.598476989e-13)
(0.02805226046 -0.02969735949 2.281924649e-13)
(0.02679118429 -0.02638498658 2.178396352e-13)
(0.01723698462 -0.01381712133 1.148248163e-13)
(0.01885011894 -0.01623361705 1.255523463e-13)
(0.01484242049 -0.01201625038 9.321710071e-14)
(0.01336805816 -0.01007416848 8.397449403e-14)
(0.002972500815 -0.001894770848 1.59317004e-14)
(0.003715637456 -0.002544168783 1.99146255e-14)
(0.001330889262 -0.0008667501299 6.786238238e-15)
(0.0009054984941 -0.0005490418958 4.635181128e-15)
(0 0 0)
(0 0 0)
(0 0 0)
(0 0 0)
(0 0 0)
(0 0 0)
(0 0 0)
(0 0 0)
(0 0 0)
(0 0 0)
(0 0 0)
(0 0 0)
(0 0 0)
(0 0 0)
(0 0 0)
(0 0 0)
(0 0 0)
(0 0 0)
(0 0 0)
(0 0 0)
(0 0 0)
(0 0 0)
(0 0 0)
(0 0 0)
(0 0 0)
(0 0 0)
(0 0 0)
(0 0 0)
(-0.0002660508638 -0.000219209136 1.276756478e-15)
(-0.0001516151884 -0.0001185015767 7.21644966e-16)
(-0.0001240344465 -9.170355929e-05 5.967448757e-16)
(-0.004015426529 -0.003254095794 2.121913756e-14)
(-0.004164545712 -0.003567554738 2.199629368e-14)
(-0.007708912096 -0.006933693276 4.285460875e-14)
(-0.007504755038 -0.006385684364 4.173050794e-14)
(-0.02015469303 -0.02019768407 1.331296184e-13)
(-0.02048259078 -0.0216950416 1.35183531e-13)
(-0.02437028427 -0.02746889865 1.715849685e-13)
(-0.02401751242 -0.0256145449 1.692812557e-13)
(-0.03107823861 -0.04128252748 2.741695759e-13)
(-0.03142585048 -0.04408792151 2.766814555e-13)
(-0.03180654521 -0.0486557538 3.054362319e-13)
(-0.03148508579 -0.04562028226 3.030908857e-13)
(-0.02690289563 -0.05366064503 3.555766792e-13)
(-0.02708462317 -0.05694462538 3.564509798e-13)
(-0.0239640762 -0.05752970129 0)
(-0.02384281014 -0.05434468933 3.594069486e-13)
(-0.01381913125 -0.0546752018 0)
(-0.01388768955 -0.05628925858 0)
(-0.01221797985 -0.05634077875 0)
(-0.01214966123 -0.05472925966 0)
(0.01410840564 -0.05565098246 0)
(0.01405931316 -0.05725007221 0)
(0.01572798676 -0.05731785391 0)
(0.01577874984 -0.05572119518 0)
(0.02733959946 -0.05593458938 3.576583474e-13)
(0.02729339241 -0.05923131059 3.585187702e-13)
(0.02999459272 -0.05813405632 3.512329316e-13)
(0.02992978055 -0.05471851338 3.492345302e-13)
(0.03237477746 -0.04484583878 2.856881398e-13)
(0.03272657719 -0.04799414288 2.894212647e-13)
(0.03157895631 -0.04280071378 2.582795089e-13)
(0.03116043377 -0.03990456872 2.544076061e-13)
(0.02211144537 -0.02300002442 1.47479251e-13)
(0.02260129653 -0.0248666903 1.50879309e-13)
(0.01834591707 -0.01897084559 1.153938056e-13)
(0.01787921341 -0.01748010131 1.123823257e-13)
(0.005390903986 -0.004456482664 2.887967643e-14)
(0.006087441608 -0.005323807076 3.261280135e-14)
(0.002902827013 -0.00241400496 1.482147738e-14)
(0.002389657322 -0.001878586193 1.219857548e-14)
(0 0 0)
(0 0 0)
(0 0 0)
(0 0 0)
(0 0 0)
(0 0 0)
(0 0 0)
(0 0 0)
(0 0 0)
(0 0 0)
(0 0 0)
(0 0 0)
(0 0 0)
(0 0 0)
(0 0 0)
(0 0 0)
(0 0 0)
(0 0 0)
(0 0 0)
(0 0 0)
(0 0 0)
(0 0 0)
(0 0 0)
(0 0 0)
(0 0 0)
(0 0 0)
(0 0 0)
(0 0 0)
(-0.0004367428343 -0.0004336339128 2.095545959e-15)
(-0.0003944646051 -0.0003750152277 1.90125693e-15)
(-0.000346056488 -0.0003143827287 1.665334537e-15)
(-0.004948831077 -0.004926517876 2.613187444e-14)
(-0.005117559705 -0.005331248669 2.702005286e-14)
(-0.008923983693 -0.009760174585 4.957145805e-14)
(-0.008712313585 -0.009105884332 4.840572387e-14)
(-0.0217826439 -0.02679651005 1.434546926e-13)
(-0.02205366122 -0.0283813996 1.451200271e-13)
(-0.02592590331 -0.03548305023 1.817990203e-13)
(-0.02565544335 -0.03357054131 1.800920524e-13)
(-0.03243716531 -0.05270368988 2.838007607e-13)
(-0.03266499667 -0.05546467895 2.851885395e-13)
(-0.03288518676 -0.06078994891 3.126110482e-13)
(-0.03268037146 -0.05783035005 3.114591918e-13)
(-0.02752707503 -0.0666260297 3.578248808e-13)
(-0.02765450627 -0.06981354342 3.580469254e-13)
(-0.02442003323 -0.07019878867 0)
(-0.02430831 -0.06703932688 0)
(-0.01430175271 -0.06740361178 0)
(-0.0143586065 -0.06898440613 0)
(-0.01269340128 -0.06904479445 0)
(-0.01263632782 -0.06746400815 0)
(0.01367865429 -0.06840726036 0)
(0.01362072734 -0.06999732729 0)
(0.0152855806 -0.07005931579 0)
(0.01534377092 -0.06847006506 0)
(0.02701001759 -0.06889711237 3.593791931e-13)
(0.02689312505 -0.0720776536 3.594069486e-13)
(0.02988362895 -0.07135873762 3.552713679e-13)
(0.02995542805 -0.06811846925 3.547301342e-13)
(0.03359739824 -0.05757177354 2.992189829e-13)
(0.03371846398 -0.06058643923 3.010508509e-13)
(0.03293768569 -0.05462193528 2.715189185e-13)
(0.03274749867 -0.05180915791 2.693817391e-13)
(0.02435803446 -0.03121993545 1.63050129e-13)
(0.02469928159 -0.03315677765 1.655064974e-13)
(0.02050104492 -0.02584989868 1.293132268e-13)
(0.02014100413 -0.02425106089 1.269401251e-13)
(0.006979021346 -0.007098343323 3.741451593e-14)
(0.007262144458 -0.007732742233 3.894107259e-14)
(0.00374498926 -0.003791090884 1.91235916e-14)
(0.003530668876 -0.00341421169 1.804112415e-14)
(0 0 0)
(0 0 0)
(0 0 0)
(0 0 0)
(0 0 0)
(0 0 0)
(0 0 0)
(0 0 0)
(0 0 0)
(0 0 0)
(0 0 0)
(0 0 0)
(0 0 0)
(0 0 0)
(0 0 0)
(0 0 0)
(0 0 0)
(0 0 0)
(0 0 0)
(0 0 0)
(0 0 0)
(0 0 0)
(0 0 0)
(0 0 0)
(0 0 0)
(0 0 0)
(0 0 0)
(0 0 0)
(-0.0006442725411 -0.0007483162516 3.108624469e-15)
(-0.0005808495813 -0.0006501611778 2.789435349e-15)
(-0.0005243819253 -0.000564865119 2.525757381e-15)
(-0.005537972091 -0.006536488475 2.922662112e-14)
(-0.005708280322 -0.007000676665 3.012867733e-14)
(-0.009658514327 -0.01243303215 5.36098943e-14)
(-0.009448179392 -0.01170591122 5.244416013e-14)
(-0.02272752228 -0.03309917453 1.492000967e-13)
(-0.02299254643 -0.03477688878 1.508099201e-13)
(-0.02686778607 -0.04318404951 1.875999356e-13)
(-0.0266035544 -0.04117966263 1.859623566e-13)
(-0.03325957268 -0.06370223173 2.885469641e-13)
(-0.03348191587 -0.06652858036 2.898514762e-13)
(-0.03362977198 -0.07263324545 3.164690732e-13)
(-0.03343017528 -0.06962373224 3.153866057e-13)
(-0.02801969312 -0.07933994099 3.585187702e-13)
(-0.02814136483 -0.0825193366 3.586714259e-13)
(-0.02486111894 -0.08281023279 0)
(-0.02475138588 -0.07965905676 0)
(-0.01475133476 -0.08002280985 0)
(-0.01480701115 -0.08159748831 0)
(-0.01314406245 -0.08165742729 0)
(-0.01311607512 -0.0808700202 0)
(-0.01308811196 -0.08008327213 0)
(0.01319744276 -0.08111321213 0)
(0.01313490316 -0.08269709753 0)
(0.01479794925 -0.08275638018 0)
(0.01486068972 -0.0811730154 0)
(0.02651867373 -0.08158223486 3.593930709e-13)
(0.02638735939 -0.08472720087 3.593236819e-13)
(0.0293269931 -0.08368246328 3.544387006e-13)
(0.02948902316 -0.08067474582 3.549105454e-13)
(0.03331799546 -0.06826402307 2.998157278e-13)
(0.03310937657 -0.07063928826 2.987193826e-13)
(0.0323396822 -0.06357489171 2.689515277e-13)
(0.03254950519 -0.06147509045 2.701033841e-13)
(0.02436936059 -0.03715571443 1.638550406e-13)
(0.02418849082 -0.0383499919 1.628280843e-13)
(0.02003273005 -0.02980931013 1.267874694e-13)
(0.02019594371 -0.02890592981 1.277172812e-13)
(0.007063805754 -0.00853018708 3.791411629e-14)
(0.006970856676 -0.008749037782 3.742839372e-14)
(0.003531981172 -0.004213869105 1.805500194e-14)
(0.003597353368 -0.0041295886 1.838806885e-14)
(0 0 0)
(0 0 0)
(0 0 0)
(0 0 0)
(0 0 0)
(0 0 0)
(0 0 0)
(0 0 0)
(0 0 0)
(0 0 0)
(0 0 0)
(0 0 0)
(0 0 0)
(0 0 0)
(0 0 0)
(0 0 0)
(0 0 0)
(0 0 0)
(0 0 0)
(0 0 0)
(0 0 0)
(0 0 0)
(0 0 0)
(0 0 0)
(0 0 0)
(0 0 0)
(0 0 0)
(0 0 0)
(-0.0009226974252 -0.001227336985 4.440892099e-15)
(-0.0008472706315 -0.001091292526 4.080069615e-15)
(-0.000774320716 -0.0009646831268 3.719247132e-15)
(-0.006241095311 -0.008516691905 3.293199047e-14)
(-0.006428922023 -0.009068777094 3.39173134e-14)
(-0.01053950217 -0.01559952646 5.842548667e-14)
(-0.0103112857 -0.01476540838 5.717648577e-14)
(-0.02380592483 -0.04000255557 1.557365348e-13)
(-0.02408705001 -0.04181580524 1.574296249e-13)
(-0.02795569235 -0.05152650367 1.942890293e-13)
(-0.02767687839 -0.04938812922 1.925681836e-13)
(-0.03415751179 -0.07514990538 2.937788901e-13)
(-0.03438768089 -0.07807451571 2.951111577e-13)
(-0.03443789345 -0.08486065507 3.207573096e-13)
(-0.03423348627 -0.08177414353 3.196748422e-13)
(-0.02849934109 -0.09205751711 3.590738817e-13)
(-0.02861611133 -0.09523399708 3.591710263e-13)
(-0.02529695133 -0.09542238276 0)
(-0.02518854241 -0.09226932513 0)
(-0.01519462598 -0.09263241338 0)
(-0.01524940415 -0.09420859121 0)
(-0.01358931386 -0.09426849872 0)
(-0.01356174171 -0.09348041652 0)
(-0.01353410171 -0.09269248345 0)
(0.01268541691 -0.09376568219 0)
(0.01261841798 -0.09534720444 0)
(0.01427991489 -0.09540474389 0)
(0.01434726383 -0.0938236744 0)
(0.02593719052 -0.09398204269 3.584771369e-13)
(0.02575465831 -0.09693443939 3.577554919e-13)
(0.02839963039 -0.09469178833 3.491373857e-13)
(0.02868692874 -0.09216108051 3.511774205e-13)
(0.03183881694 -0.07606193297 2.894906537e-13)
(0.03114298043 -0.07705724255 2.838562718e-13)
(0.03030337522 -0.06896772895 2.541578059e-13)
(0.03087635908 -0.06786908373 2.584182868e-13)
(0.0223838418 -0.03956104547 1.511568648e-13)
(0.02181145246 -0.03987404144 1.474376177e-13)
(0.01770380245 -0.03035108885 1.123962035e-13)
(0.01823510286 -0.03022878775 1.156852392e-13)
(0.005696753988 -0.007959290302 3.06143999e-14)
(0.005390694727 -0.00778701331 2.897682094e-14)
(0.002397432969 -0.003292062845 1.225408663e-14)
(0.002602644853 -0.003456688084 1.330879851e-14)
(0 0 0)
(0 0 0)
(0 0 0)
(0 0 0)
(0 0 0)
(0 0 0)
(0 0 0)
(0 0 0)
(0 0 0)
(0 0 0)
(0 0 0)
(0 0 0)
(0 0 0)
(0 0 0)
(0 0 0)
(0 0 0)
(0 0 0)
(0 0 0)
(0 0 0)
(0 0 0)
(0 0 0)
(0 0 0)
(0 0 0)
(0 0 0)
(0 0 0)
(0 0 0)
(0 0 0)
(0 0 0)
(-0.001166259916 -0.001747881449 5.606626274e-15)
(-0.001206094741 -0.001756679546 5.800915304e-15)
(-0.001100962849 -0.001557206547 5.287437155e-15)
(-0.00704326015 -0.01090551672 3.713696017e-14)
(-0.007283569638 -0.0116112415 3.839983886e-14)
(-0.01156621053 -0.01933800941 6.403211295e-14)
(-0.0112794064 -0.01831884918 6.247780071e-14)
(-0.0249850337 -0.04752235269 1.628419621e-13)
(-0.02532636987 -0.04956364036 1.648958747e-13)
(-0.02917741506 -0.06056597135 2.017552792e-13)
(-0.02884261569 -0.05820353136 1.997013666e-13)
(-0.03510690867 -0.08703220912 2.992467385e-13)
(-0.03536966073 -0.09011466071 3.008010507e-13)
(-0.03529787506 -0.09746848094 3.253369796e-13)
(-0.03507062548 -0.09426079555 3.241018565e-13)
(-0.02895831719 -0.1047439213 3.593791931e-13)
(-0.02906981782 -0.1079063492 3.594069486e-13)
(-0.02572803372 -0.1080309674 0)
(-0.02562031066 -0.1048786179 0)
(-0.01562803542 -0.1052404728 0)
(-0.01568141697 -0.1068165552 0)
(-0.01402446188 -0.1068759812 0)
(-0.01399761392 -0.1060876524 0)
(-0.01397071421 -0.1052999122 0)
(0.01213839508 -0.1063867339 0)
(0.01206697364 -0.1079628881 0)
(0.01372793308 -0.108019088 0)
(0.01379986708 -0.1064429526 0)
(0.02510007952 -0.1052436962 3.540640003e-13)
(0.02482467278 -0.10770795 3.5199621e-13)
(0.02704596229 -0.103546766 3.381600555e-13)
(0.02744576412 -0.1016575405 3.417544026e-13)
(0.02918817565 -0.07971740408 2.678690603e-13)
(0.02866789342 -0.08077888868 2.636918461e-13)
(0.02724029795 -0.07044248857 2.300659663e-13)
(0.02812157395 -0.07054391141 2.371436381e-13)
(0.01925675465 -0.03869295513 1.30478961e-13)
(0.0180471207 -0.03734086091 1.223326995e-13)
(0.01400885095 -0.02716531962 8.91231533e-14)
(0.01522187997 -0.02866886302 9.681144775e-14)
(0.00382453216 -0.006066665732 2.056688153e-14)
(0.003340163238 -0.005456060333 1.795785742e-14)
(0.001085172329 -0.001685464431 5.551115123e-15)
(0.001365847551 -0.002059910419 6.994405055e-15)
(0 0 0)
(0 0 0)
(0 0 0)
(0 0 0)
(0 0 0)
(0 0 0)
(0 0 0)
(0 0 0)
(0 0 0)
(0 0 0)
(0 0 0)
(0 0 0)
(0 0 0)
(0 0 0)
(0 0 0)
(0 0 0)
(0 0 0)
(0 0 0)
(0 0 0)
(0 0 0)
(0 0 0)
(0 0 0)
(0 0 0)
(0 0 0)
(0 0 0)
(0 0 0)
(0 0 0)
(0 0 0)
(-0.002073883003 -0.003456240919 9.964251646e-15)
(-0.001890645723 -0.003071260972 9.089951014e-15)
(-0.001617986198 -0.002560619434 7.771561172e-15)
(-0.00805641549 -0.01394741777 4.243827512e-14)
(-0.008657558209 -0.01537915421 4.558853295e-14)
(-0.01314241703 -0.02447089024 7.263634139e-14)
(-0.01240489572 -0.02251534425 6.859790513e-14)
(-0.02647961089 -0.05615186685 1.718208908e-13)
(-0.02698554442 -0.05867954463 1.74887882e-13)
(-0.0307263228 -0.07080184237 2.11247686e-13)
(-0.03030035797 -0.06810300302 2.086386619e-13)
(-0.03622422209 -0.09966345972 3.058664433e-13)
(-0.03638812185 -0.1025662655 3.065325771e-13)
(-0.03628010492 -0.1106665439 3.30735439e-13)
(-0.03602510952 -0.1073147687 3.293199047e-13)
(-0.02940006915 -0.1173646565 0)
(-0.02951210167 -0.1205165547 0)
(-0.02616527838 -0.1206376398 0)
(-0.02610957515 -0.1190622291 0)
(-0.02605430589 -0.1174866558 0)
(-0.01605154623 -0.1178485285 0)
(-0.01607797976 -0.1186355526 0)
(-0.0152492718 -0.1186649808 0)
(-0.01522291955 -0.1178781737 0)
(-0.001681314814 -0.1185624748 0)
(-0.001704835991 -0.1189546193 0)
(-0.001725720869 -0.1193469337 0)
(-0.0009140452878 -0.119367452 0)
(-0.000868408583 -0.1185836248 0)
(0.01153095788 -0.1189757285 0)
(0.01144762291 -0.120544847 0)
(0.01136364503 -0.122113502 0)
(0.01469533562 -0.1222273599 0)
(0.01485911688 -0.1190879172 0)
(0.01319565441 -0.1190319921 0)
(0.02384654677 -0.1140570575 3.433364704e-13)
(0.02339525112 -0.1153869608 3.384514891e-13)
(0.02505505032 -0.1085308001 3.181899189e-13)
(0.0257479361 -0.1083022957 3.258227022e-13)
(0.02618161997 -0.08049535083 2.421673972e-13)
(0.0252282452 -0.07971023641 2.337019467e-13)
(0.02345797934 -0.06790327381 1.992017662e-13)
(0.0244539095 -0.06890557895 2.074174166e-13)
(0.01495377106 -0.03362556017 1.015160178e-13)
(0.0140531735 -0.03244215331 9.543754675e-14)
(0.01029291251 -0.0222606213 6.557254739e-14)
(0.01108654062 -0.02335636812 7.059630658e-14)
(0.001579705483 -0.002803534888 8.493206138e-15)
(0.001284195589 -0.002339890988 6.911138328e-15)
(0.000101838807 -0.0001765377357 5.134781489e-16)
(0.0001945667624 -0.0003284839767 9.992007222e-16)
(0 0 0)
(0 0 0)
(0 0 0)
(0 0 0)
(0 0 0)
(0 0 0)
(0 0 0)
(0 0 0)
(0 0 0)
(0 0 0)
(0 0 0)
(0 0 0)
(0 0 0)
(0 0 0)
(0 0 0)
(0 0 0)
(0 0 0)
(0 0 0)
(0 0 0)
(0 0 0)
(0 0 0)
(0 0 0)
(0 0 0)
(0 0 0)
(0 0 0)
(0 0 0)
(0 0 0)
(0 0 0)
(-0.001966852027 -0.003626314997 9.492406861e-15)
(-0.002222777393 -0.00400345189 1.071365219e-14)
(-0.002375186921 -0.004177112184 1.146305273e-14)
(-0.009593221244 -0.01844362391 5.070943665e-14)
(-0.009285302923 -0.01828236309 4.907185769e-14)
(-0.01386669823 -0.02861005444 7.689682224e-14)
(-0.01423512344 -0.02867988396 7.896461263e-14)
(-0.028250284 -0.06640005351 1.83519866e-13)
(-0.02780479902 -0.06689771524 1.804945082e-13)
(-0.031520115 -0.08031134752 2.168959456e-13)
(-0.03195062706 -0.07954689203 2.200739591e-13)
(-0.03723180291 -0.1132634928 3.138045379e-13)
(-0.0369671563 -0.1149767015 3.109595914e-13)
(-0.03659659691 -0.1231285769 3.329697629e-13)
(-0.03677167707 -0.1210602261 3.353567424e-13)
(-0.02947903964 -0.1300167253 0)
(-0.02959460569 -0.1331690073 0)
(-0.02623846882 -0.1332920469 0)
(-0.02618069921 -0.131716272 0)
(-0.02612290276 -0.1301397649 0)
(-0.01605463859 -0.1305088783 0)
(-0.01611243504 -0.1320853854 0)
(-0.01443443983 -0.1321469025 0)
(-0.01440552818 -0.1313582828 0)
(-0.01437664338 -0.1305703954 0)
(-0.01521564099 -0.1305396368 0)
(-0.002630313181 -0.1310010285 0)
(-0.00265919658 -0.131788916 0)
(-0.002688107526 -0.1325775357 0)
(-0.001010060754 -0.1326390547 0)
(-0.0009522643044 -0.1310625476 0)
(0.01079401705 -0.1314931789 0)
(0.01067845099 -0.1346454609 0)
(0.01398952812 -0.1342512653 3.580469254e-13)
(0.01414065921 -0.1315117508 3.591293929e-13)
(0.02208291008 -0.1189860721 3.241712454e-13)
(0.02151082277 -0.1191941056 3.172462293e-13)
(0.02270829859 -0.1100126404 2.927241782e-13)
(0.0233894108 -0.1103183376 3.004679838e-13)
(0.02194969754 -0.07489904517 2.040867475e-13)
(0.02105869175 -0.07365137924 1.960515084e-13)
(0.01882760034 -0.0601991172 1.603439603e-13)
(0.02011406742 -0.06281466059 1.712519015e-13)
(0.01060972211 -0.02637521052 7.209510766e-14)
(0.009248547939 -0.02352978469 6.283862319e-14)
(0.00629122383 -0.01499901497 4.009292898e-14)
(0.007167939518 -0.01669220297 4.567179968e-14)
(0.0002644355321 -0.0005193636101 1.415534356e-15)
(0.0001194463935 -0.0002402873559 6.383782392e-16)
(0 0 0)
(0 0 0)
(0 0 0)
(0 0 0)
(0 0 0)
(0 0 0)
(0 0 0)
(0 0 0)
(0 0 0)
(0 0 0)
(0 0 0)
(0 0 0)
(0 0 0)
(0 0 0)
(0 0 0)
(0 0 0)
(0 0 0)
(0 0 0)
(0 0 0)
(0 0 0)
(0 0 0)
(0 0 0)
(0 0 0)
(0 0 0)
(0 0 0)
(0 0 0)
(0 0 0)
(0 0 0)
(0 0 0)
(0 0 0)
(-0.0004592898996 -0.0009255351494 2.220446049e-15)
(-0.0008334407624 -0.001643736362 4.024558464e-15)
(-0.001238310357 -0.002389081669 5.981326545e-15)
(-0.007113701262 -0.01501285545 3.762268275e-14)
(-0.006076839453 -0.01311575719 3.215483435e-14)
(-0.009909061875 -0.02241871109 5.501155087e-14)
(-0.01121132589 -0.02479745659 6.220024495e-14)
(-0.02436966212 -0.06283578986 1.581373921e-13)
(-0.02258803814 -0.05959186378 1.466743393e-13)
(-0.02627685345 -0.07337948883 1.80772064e-13)
(-0.02809128428 -0.07667152943 1.931510507e-13)
(-0.03438957416 -0.1142769112 2.883249195e-13)
(-0.03287830659 -0.1117177143 2.756544992e-13)
(-0.03325958962 -0.1220296038 3.011202399e-13)
(-0.03455037606 -0.1240224072 3.129163595e-13)
(-0.02959090773 -0.1410987078 3.555350458e-13)
(-0.02917157521 -0.1418546679 3.496647416e-13)
(-0.02645237157 -0.1446759229 3.563815909e-13)
(-0.0265678977 -0.1426660309 3.591987818e-13)
(-0.0165169565 -0.1431194707 0)
(-0.0166325494 -0.1462724849 0)
(-0.01327648575 -0.1463955218 0)
(-0.01316089285 -0.1432425076 0)
(-0.01483896129 -0.1431809878 0)
(-0.003092628682 -0.143611621 0)
(-0.003208221581 -0.1467646352 0)
(0.0001478640348 -0.1468876729 0)
(0.0002634569342 -0.1437346587 0)
(0.01026256507 -0.1428158962 3.562150575e-13)
(0.01003200732 -0.1436655461 3.506778201e-13)
(0.01297577036 -0.1393627912 3.399225346e-13)
(0.0133350817 -0.1396550298 3.48068796e-13)
(0.01966392116 -0.1171104453 2.91433544e-13)
(0.0188156135 -0.114472415 2.788325126e-13)
(0.01935915687 -0.1026548272 2.500222251e-13)
(0.02035610173 -0.1057148179 2.630257123e-13)
(0.01743184656 -0.06514318973 1.622174617e-13)
(0.01620092151 -0.0617904795 1.506156311e-13)
(0.01378934448 -0.04806970429 1.172395514e-13)
(0.01500123667 -0.05123623186 1.2766177e-13)
(0.005923156685 -0.01610043746 4.021782907e-14)