/*--------------------------------*- C++ -*----------------------------------*\
| =========                 |                                                 |
| \\      /  F ield         | OpenFOAM: The Open Source CFD Toolbox           |
|  \\    /   O peration     | Version:  v1912                                 |
|   \\  /    A nd           | Website:  www.openfoam.com                      |
|    \\/     M anipulation  |                                                 |
\*---------------------------------------------------------------------------*/
FoamFile
{
    version     2.0;
    format      ascii;
    class       volScalarField;
    location    "2.92";
    object      k;
}
// * * * * * * * * * * * * * * * * * * * * * * * * * * * * * * * * * * * * * //

dimensions      [0 2 -2 0 0 0 0];


internalField   nonuniform List<scalar> 
12556
(
36.90870465
36.90875944
36.9088492
36.90900335
36.95441198
36.95499588
36.95604151
36.95844752
36.96318644
36.97132221
36.98279437
36.99495046
37.00346986
37.00320205
36.99437546
36.98278685
36.97198649
36.96388329
36.95925656
36.9564752
36.91034753
36.90924506
36.90872322
36.90842262
36.72745147
36.72765188
36.72789225
36.72839017
36.77417737
36.7772608
36.78365575
36.81551791
36.83795398
36.87646301
36.93210997
36.99437413
37.02286201
37.02390071
36.99594846
36.942663
36.88860648
36.8483368
36.80166878
36.78581172
36.73302262
36.72981689
36.72821712
36.72738914
36.54741311
36.54793951
36.54866969
36.55011047
36.597036
36.60501821
36.62070377
36.66814434
36.72356757
36.81597274
36.93489233
37.03464833
37.08378914
37.08484539
37.03905185
36.94972123
36.83673433
36.74492149
36.66085606
36.62521184
36.56243559
36.55452562
36.55087122
36.5493898
36.36869967
36.36928269
36.37053494
36.37382248
36.42340373
36.44034118
36.47544104
36.55269953
36.66980968
36.83988391
37.0188224
37.16619255
37.2427429
37.23584475
37.15697018
37.021196
36.85717734
36.69760472
36.55197899
36.48282076
36.39859677
36.38443449
36.37736462
36.3745931
36.19195197
36.19290956
36.19544539
36.20204381
36.25649886
36.28750459
36.35505381
36.4819892
36.69004272
36.94288284
37.21900459
37.46240437
37.59648809
37.57370814
37.42177871
37.19254203
36.94638266
36.71771005
36.49192093
36.36505149
36.24697726
36.21955368
36.2069187
36.20198974
36.01675776
36.01817756
36.02254326
36.03419268
36.0980567
36.1513182
36.26975502
36.47146083
36.76427179
37.13908964
37.59892985
38.09971527
38.42548572
38.32636856
37.94292275
37.52441324
37.13058874
36.79468192
36.4878812
36.27730495
36.10771492
36.05945078
36.03851411
36.03026372
35.84428852
35.84687025
35.85465006
35.87361716
35.95024369
36.03385864
36.22287994
36.49923871
36.89822336
37.44973
38.25398431
39.55608736
40.32355555
40.14290059
38.90128888
38.07185463
37.42790193
36.93403791
36.51547735
36.22425984
35.98021795
35.90451866
35.87164247
35.85875018
35.67539418
35.67940078
35.69142958
35.7216028
35.81473396
35.93835632
36.21049345
36.55536199
37.07830881
37.85010812
39.17288917
42.09361138
43.06809528
40.45298638
38.85390422
37.83651274
37.13186929
36.57407684
36.19839125
35.867004
35.75577559
35.7071178
35.68824637
35.51279346
35.51929963
35.53798979
35.58324462
35.69177073
35.8660415
36.21923296
36.63637189
37.28593498
38.26928871
40.03984838
44.38965427
47.89636732
42.35850243
39.79225367
38.3232013
37.371092
36.6542305
36.19414955
35.76773274
35.61553014
35.54774086
35.52166655
35.35785586
35.36701716
35.39278269
35.45445718
35.58496915
35.81481953
36.24712426
36.73364242
37.49796907
38.6483835
40.68686072
45.48755326
51.24002984
44.0940943
40.72933655
38.82206293
37.62224732
36.74634657
36.20125152
35.68358892
35.48713424
35.39777869
35.3633663
35.21347252
35.2265557
35.26198633
35.34448382
35.49471017
35.7820087
36.28545575
36.84086528
37.70502289
38.98616576
41.21659907
45.83762959
52.88482983
45.38643218
41.52076697
39.26849896
37.85941463
36.83812945
36.21292704
35.61333138
35.37323967
35.26143451
35.2179225
35.07952268
35.0961477
35.14039416
35.24306511
35.4190852
35.7635326
36.33058459
36.95294084
37.90507941
39.29954469
41.71446083
45.52319109
53.58665754
46.2295753
42.10896269
39.62337824
38.06002111
36.91967624
36.2254729
35.55743628
35.27444076
35.14096354
35.08811218
34.95734763
34.97869997
35.03552247
35.16165905
35.35502878
35.75427349
36.37733052
37.06644709
38.09585877
39.59883861
42.24654041
44.97231199
45.16651522
53.39441493
46.70314999
42.48831268
39.86375434
38.21013328
36.98347216
36.23473357
35.50905951
35.18992816
35.03593528
34.97435453
34.84472485
34.87054832
34.93888582
35.08503143
35.31294043
35.77012108
36.46332048
37.20113594
38.30817174
39.93931001
42.84420964
43.47568594
55.30412335
53.35763142
46.88371191
42.65205119
39.99984616
38.30990291
37.02799649
36.2369557
35.46215989
35.11549444
34.94338611
34.87407477
34.74058838
34.7708022
34.85005907
35.01552363
35.26791011
35.7707036
36.51765455
37.32647229
38.51856954
40.25973403
43.23689555
39.46170232
55.48751493
52.71033735
46.69364936
42.62565943
40.03285879
38.36187557
37.04754095
36.22692271
35.41435478
35.04632202
34.85908039
34.78339904
34.64140501
34.67586921
34.7651852
34.94924335
35.22540578
35.76655266
36.56012157
37.46030464
38.7752637
40.66710792
43.50046811
33.9601851
53.60231082
51.40553914
46.14365553
42.43058375
39.98732522
38.36292681
37.04050431
36.19632208
35.358141
34.9754605
34.77773277
34.6969871
34.5459616
34.58436342
34.68244126
34.88329832
35.1811496
35.75274585
36.5838745
37.56175603
39.05188409
41.13348845
43.20002812
26.71648641
52.24145052
49.80952383
45.30645456
42.10280873
39.90428934
38.32703064
37.0017886
36.14428367
35.29292307
34.90171121
34.69554371
34.61077452
34.45022461
34.49225175
34.59808847
34.81435597
35.13194337
35.72702711
36.58505017
37.60376034
39.23225602
41.44491552
41.83406209
26.23165019
50.90427032
48.25855817
44.47946877
41.751922
39.75647084
38.23597826
36.92115972
36.0658102
35.21216572
34.81739508
34.608019
34.52044027
34.35470575
34.39994402
34.51229913
34.74166191
35.07578556
35.6885554
36.56780083
37.61146054
39.26629213
41.41242701
39.15678209
30.55805456
49.57054989
47.07298785
43.87879464
41.43593967
39.55593319
38.09745074
36.81066648
35.96629936
35.11845786
34.72422971
34.51368765
34.42479508
34.25535997
34.30348838
34.42171888
34.66303615
35.01182023
35.63763356
36.53075728
37.59295473
39.24945636
41.13447808
37.03558412
32.66133648
48.37569018
46.28014526
43.39137268
41.11111417
39.32943325
37.92930632
36.67803018
35.84910635
35.01182613
34.6206376
34.41047638
34.32097959
34.15520625
34.20583068
34.32898456
34.57992059
34.93996391
35.57541301
36.47812096
37.55289583
39.19225293
40.74352143
34.93155533
33.73739653
47.27259058
45.56262507
42.93623439
40.7907483
39.09198266
37.74382242
36.52922084
35.7178075
34.89505678
34.50918012
34.30056642
34.21102939
34.04935924
34.10227381
34.2302177
34.49041395
34.86084165
35.50348758
36.41294523
37.49598371
39.09958098
40.28396762
32.83840522
34.4207919
46.25843662
44.90195415
42.51087288
40.48108046
38.85196584
37.54910174
36.36900888
35.57580201
34.76837745
34.38831607
34.18166912
34.0924361
33.94388041
33.99878026
34.13078651
34.39800076
34.77531102
35.42353996
36.33796768
37.4255736
38.97470259
39.76913814
30.68230091
34.72850959
45.3287264
44.28946909
42.11080654
40.1843235
38.61415277
37.35034991
36.20137286
35.42599708
34.63585336
34.26279738
34.05855603
33.96986796
33.83145072
33.88829808
34.02467403
34.2996101
34.68454717
35.33722903
36.25558416
37.34411219
38.81852296
39.21238566
28.5601871
34.73304946
44.47065102
43.71815697
41.73229158
39.9003043
38.38110425
37.15083802
36.02939572
35.27084368
34.49615716
34.12921474
33.92715807
33.8390864
33.72219248
33.780749
33.92078579
34.20097271
34.58948244
35.24604636
36.16772559
37.25301675
38.63188148
38.62763669
26.57620112
34.53034061
43.67347876
43.18221636
41.37258959
39.62795759
38.15400282
36.95264718
35.85532883
35.11221821
34.35478076
33.99501858
33.79535941
33.70797092
33.60411066
33.66449203
33.80884367
34.09614839
34.49123024
35.15125391
36.07574744
37.15249096
38.41801308
38.02442698
24.76050856
34.18411147
42.9284062
42.67687655
41.02954595
39.36613015
37.93318707
36.75699781
35.6807292
34.95163618
34.20733288
33.85278873
33.65498274
33.56820663
33.49357681
33.55554639
33.70333916
33.99453012
34.3904076
35.05385946
35.98041305
37.04205931
38.18102464
37.40881218
23.13220934
33.7643584
42.22792228
42.19866399
40.70153083
39.11388958
37.71862015
36.56458225
35.5066807
34.79012535
34.06244698
33.71483787
33.5191504
33.4329855
33.37059008
33.43439872
33.58659012
33.8849022
34.28798605
34.9546123
35.88199496
36.92128933
37.92336823
36.78520839
21.7200693
33.3188677
41.56835596
41.74507794
40.38722879
38.87042752
37.51005622
36.37572631
35.33388328
34.62859987
33.91023991
33.56642332
33.37212579
33.28644377
33.26169513
33.32703959
33.48248051
33.78339093
34.18413502
34.85405055
35.78049806
36.7901829
37.64953619
36.15609441
20.47259403
32.87412416
40.94806738
41.31420942
40.08550708
38.63502973
37.30718522
36.190568
35.16280755
34.4674862
33.76613649
33.42912699
33.23663397
33.15141821
33.13363614
33.20091328
33.36086284
33.6692905
34.07983706
34.75257737
35.67577813
36.64915497
37.36417472
35.52312973
19.3905125
32.44445544
40.36372152
40.90408156
39.79518348
38.40697813
37.1096411
36.00910557
34.99375426
34.30744424
33.60982
33.2749315
33.08342353
32.99853874
33.02979576
33.09855894
33.2615553
33.57132507
33.97478307
34.65047277
35.56774917
36.49892006
37.06852779
34.88766457
18.49261732
32.03472128
39.81193604
40.51244845
39.51506767
38.18559141
36.91705832
35.83128243
34.82693228
34.14847345
33.47095257
33.14296441
32.95293491
32.86836472
32.89511443
32.9659625
33.13356642
33.45136772
33.87026691
34.54796447
35.45643154
36.34036528
36.76389592
34.25302841
17.74002844
31.64360308
39.28927409
40.13726124
39.24410814
37.97027788
36.72910054
35.65699242
34.66249141
33.99130339
33.30832922
32.98089493
32.79162034
32.70724863
32.80070856
32.87294255
33.04337731
33.36167539
33.76534224
34.44523399
35.3418881
36.17432239
36.45182328
33.62142348
17.11353076
31.26782982
38.79319125
39.77683911
38.98140192
37.76049886
36.54543053
35.48607184
34.50061227
33.83553362
33.181246
32.86046046
32.67223894
32.58805401
32.65609241
32.73061458
32.90577099
33.23176239
33.66225003
34.34268356
35.22440387
36.00164064
36.13365205
32.99411806
16.59853742
30.90568532
38.32143724
39.42981985
38.726237
37.55581163
36.36577565
35.31845472
34.34175709
33.68264581
33.00536114
32.6850589
32.49762416
32.41353886
32.57629382
32.65206397
32.8297395
33.15748725
33.55952972
34.24109143
35.1051161
35.82298326
35.81057325
32.374605
16.18179035
30.55848525
37.87267395
39.09525074
38.47802585
37.35582014
36.18987338
35.1539664
34.18730991
33.53270105
32.90186175
32.58495628
32.39801862
32.31399196
32.39278486
32.47152795
32.65510868
32.99118708
33.46246495
34.1424827
34.98773435
35.64006702
35.48667562
31.77072986
15.85530136
30.23022565
37.44958859
38.7751738
38.23737864
37.16068943
36.01778216
34.99262031
34.04169346
33.39164761
32.67515332
32.35977483
32.17369524
32.08970151
44.20393085
48.4508619
43.46327098
45.38489999
52.15145291
48.9128037
45.84411759
53.86247371
52.45733224
45.58142268
54.54593751
53.97660651
45.01070304
41.08467014
44.19061601
54.83766371
54.58649869
43.995135
50.9071549
41.40225133
54.86114088
55.29666832
54.86012267
41.69982007
40.28564505
42.95636538
40.04859527
52.49206553
45.21452936
47.36001921
42.80924162
41.04366073
40.54098817
44.3591824
43.41123661
56.24672634
58.46374222
50.93249901
44.96757205
43.38836942
41.09217939
45.06303628
44.47120516
45.73158213
47.80588988
48.78945688
54.86498349
54.36141891
52.75176562
46.53458767
45.41674356
41.60371471
45.21158268
45.10884595
45.76120854
44.06884927
46.12074146
56.42962279
55.50241895
42.12526058
45.07034892
45.20909553
45.29669017
39.12776623
41.65334789
39.94333339
57.33565553
57.09897574
42.73196555
44.56075211
45.0337644
44.6465993
32.69278032
35.69924592
42.3900789
53.11544811
51.30918908
48.7788986
50.79236856
44.30833078
48.32895524
58.38018945
52.83638436
46.29286511
51.75897342
57.00228632
48.90826173
49.5985737
44.9899487
50.33019953
49.00374107
50.94060823
50.47736781
54.4582916
56.01372138
50.72924179
57.17640888
56.12000994
57.20626869
57.29263853
50.4788458
46.31676559
47.63781385
45.78687729
47.2778889
45.38675036
48.91790937
47.39460759
55.32943357
54.95579132
53.39419567
56.63725136
56.88524009
56.06307711
56.59322857
53.20462586
41.79305644
43.94113617
45.72328135
42.94112031
40.32272794
45.259689
43.08550077
57.0518194
56.52994962
35.86299725
38.94362858
45.265114
41.6790156
36.90410106
33.47207238
40.17282803
37.12601372
43.00378907
57.57034818
57.36421601
39.72399573
40.0040328
32.62994425
44.59700758
47.44027964
31.94516773
79.95174617
33.37566856
31.96374499
46.71052623
39.84622674
43.23446327
41.3855458
43.18454943
47.22396664
43.8524309
64.76631949
48.48151536
44.87091636
49.6689862
49.45838911
51.30358144
53.54547778
47.5291445
46.8289134
60.72662657
48.61953333
46.98069243
50.83817228
57.86893289
57.66110595
49.28389775
47.57116446
43.4845696
56.93996895
46.60188748
54.76726385
44.80989067
50.73515131
45.64727523
46.51459287
42.6930645
54.34152608
57.14894386
57.25943605
56.91625337
57.13015182
54.27183797
39.36680896
53.00937811
43.28681684
42.05790475
41.5682943
43.78950707
44.58053111
42.03291345
42.05215881
69.89623041
49.32551147
64.49991625
47.40058366
60.65243682
48.43367832
57.94362569
58.09737555
54.52767371
54.49554869
41.14363267
47.45717992
56.07589995
41.69014855
41.80158657
49.47680348
41.99412074
55.9528376
40.50366074
44.82885412
44.46280484
51.78236393
49.54240117
53.71884775
34.67259687
42.52946344
42.0007462
43.19825225
42.71872898
34.81385593
61.53902813
57.4385356
49.79966672
57.8284128
58.86601071
53.15166821
57.47034747
50.07286086
46.16563246
52.27102009
45.92951435
58.01712211
53.10025656
46.79690203
55.54562377
61.36836605
56.4594115
56.06357882
49.7071652
45.4892322
49.62319479
50.9360239
49.09164158
52.56364595
45.90787061
48.63783896
50.84323109
55.35549519
55.49271437
56.6803198
54.94597213
54.3399129
55.53611371
55.11164214
56.59642538
57.89527676
52.9598804
51.88660909
54.10571859
53.27493528
57.88202204
46.41888111
46.29688141
48.25878846
48.16278496
55.52547483
50.25652458
55.45259447
41.90721781
41.72786523
44.23757688
44.09013746
42.12568872
45.66418428
56.79328412
42.11350164
41.00179689
37.75280244
43.80021564
43.35546757
44.33529438
43.93929087
37.91298649
39.34206304
35.96556388
35.81406771
39.11896498
38.96948974
62.25513249
39.77072635
54.02351376
52.42653258
41.79663833
41.29395207
32.1368785
32.79506282
41.26209169
43.1496209
32.90475216
77.26535113
44.02949288
67.81254652
32.82645189
44.15965041
49.26394934
41.01882674
64.35308997
40.09786884
40.97831105
43.15004991
44.03424602
44.45403337
42.91704146
35.18889312
41.5745701
55.98586811
54.62015568
55.20362283
55.99258566
41.67762971
46.63044655
55.50603114
54.45934018
40.1878754
57.99551817
57.9270487
51.43660732
43.69819668
43.33391334
46.11098454
47.41543809
43.5730025
43.82256326
57.05063652
60.34306153
58.94468699
58.47545058
54.63925788
44.75218178
44.88268507
48.75068509
48.20170019
54.21434714
44.98489035
46.4244987
46.16352164
46.74548039
46.50776188
45.13452094
45.28012046
44.94405577
40.6500793
33.16315675
38.85652016
38.40491511
72.68651441
54.11578956
51.67293301
57.80153027
61.91308175
60.70056549
54.39564455
49.67467056
48.1363073
51.48381979
50.15669295
54.77816186
54.80095027
49.75223686
49.08750105
55.62819314
46.91144558
47.01869715
46.81905585
41.52362992
42.06274432
45.7843913
45.03290217
45.21758774
55.15663575
56.7536376
56.26337744
56.18738783
56.04913701
55.92211548
55.64684473
56.15301451
55.98919828
56.05995801
42.88158518
45.69300028
45.38669247
46.07299102
45.79100525
43.02577567
42.50857452
36.77978465
37.14256631
33.76500279
34.04782104
40.83493384
44.83354189
40.65558053
41.37497595
37.28683955
37.69539297
43.51636931
56.86233333
46.31181796
50.69821192
66.69844054
39.8927949
36.45548294
34.52395777
39.725499
33.43774737
33.68970366
32.8983827
38.15741477
54.61813589
38.27513354
39.89230764
39.02652669
38.2580447
37.826534
32.47231559
40.81735625
40.86856085
49.50464277
31.87819212
93.5157782
43.20693249
41.24934708
45.4200115
33.18791952
32.08983467
57.9010214
57.21639542
56.69379037
51.25635048
51.05982537
39.88587437
39.98440639
61.08437939
54.79308347
54.68085953
49.8259867
60.94367843
49.93551164
61.43008066
50.84522409
46.0255084
41.55283375
44.2916095
50.7149024
56.67804767
51.74412471
42.89974449
39.65654386
54.37180192
66.89770335
43.06787173
51.03274656
73.76056658
39.94732787
41.81202401
39.50666064
39.74707811
65.64025132
70.24505128
57.08647014
53.1225309
61.17675693
57.952101
52.357653
49.07681877
54.97483075
56.48738731
55.73955913
57.36333859
58.40320076
58.52290652
57.04272564
45.95852995
45.01081
54.57776364
48.28923663
48.11631237
45.37906888
47.79832997
48.01068514
54.26360879
47.97698558
46.34467856
42.05320556
42.76118227
41.31341699
50.60687153
49.58236128
44.52152227
47.42567726
45.90620358
49.17959351
47.95906263
43.54033055
43.98139461
40.7107637
39.98757863
39.49229844
38.99166154
33.62867204
35.19432528
40.04909677
39.63329649
60.02891924
59.42081752
58.99288024
53.12573708
53.75441457
52.01535207
52.87675905
59.31321498
55.7920007
54.08391373
53.91750489
53.90690999
54.09294369
56.09466281
56.27967612
50.67327907
51.7234508
59.60279348
60.0928255
61.77864442
61.12327517
57.49783323
62.93077496
63.95513999
63.86634027
62.97270833
62.17547214
64.28162446
62.79040215
54.70477854
60.78207919
61.87815299
43.98740601
49.81698018
48.87924557
50.69724046
50.07022678
44.6176983
47.58118526
46.938304
48.55305615
47.80253191
50.47987903
53.09715266
52.52363571
53.78190654
53.27995324
50.97598546
47.0006061
51.52531826
50.90868018
52.32711538
51.72805334
47.39791016
50.75128029
49.88734088
54.93446566
55.64158747
52.36975226
51.15418464
40.98524179
40.46065091
41.89527893
41.16914125
39.62404563
39.11076398
40.29446602
39.77722471
45.91266208
45.30838556
46.73100588
46.1197802
44.10389406
42.37115248
45.08849356
44.48303209
43.82182213
43.45266839
45.48045087
44.19443546
50.33148367
43.76860231
44.87873361
43.35008356
43.46962773
36.29552049
36.63619615
42.3629779
34.27753119
34.04742541
34.61171848
34.37385929
33.92074499
41.05425925
34.18698023
35.92733134
38.59731002
40.37812566
44.68974515
38.18589942
35.65929404
39.00742545
38.21849247
35.01541174
34.71994036
35.47911043
35.12892232
43.65926048
37.84171786
38.33245559
56.63317866
41.21931517
55.44305786
49.8683024
55.07556797
41.05029498
69.53179457
39.6359963
66.71527656
58.14382463
36.3254438
35.17603147
33.13237767
33.36747929
39.57659407
38.42005587
32.90150227
33.07900597
61.91253217
32.41049851
37.62325244
36.89466845
77.76951099
84.18039235
31.81747643
88.32352858
69.91800537
41.65454767
33.11778439
76.65903742
48.99756468
86.8231374
51.88160126
32.22540786
42.59802345
40.49816514
39.15099859
59.68971578
59.18803307
54.01879296
48.08995422
47.70328419
59.73553784
39.96250282
41.83483843
39.91570798
57.27066998
57.32302024
54.71997675
46.07778751
45.31656094
49.09947166
55.18776349
45.92798277
46.10613043
41.47227664
41.8321613
44.34207439
51.03566096
55.03994023
57.97442277
48.26383428
47.36333426
47.27037734
47.4125369
47.38537412
48.40303112
42.71145139
41.17464157
42.10006386
51.42208789
53.18889416
57.24415722
40.57785549
40.17998116
35.31753469
58.81697634
60.55170362
54.29018524
47.22884065
47.07737695
47.09996881
46.91160759
43.68969955
44.36544917
44.69523514
45.70813168
47.74370536
36.75037214
41.12510254
40.70871964
50.44741391
47.64274579
40.85659028
32.41518544
32.46055943
33.63255565
45.40091361
63.30005472
56.02388306
39.43724781
45.47795943
43.23930003
31.9180617
33.30969247
32.35473912
32.38782302
31.99249588
65.42274944
50.97926834
43.5340736
45.52152229
59.73078439
40.16072478
40.20737562
48.99978822
56.1449745
47.60167012
45.94641036
48.13147074
44.87553312
40.95600634
40.2491736
70.47845794
73.52793923
75.14441183
62.87614994
72.05709052
43.21790318
43.53384203
46.66527121
66.58801638
61.49394971
58.77797985
69.73528485
66.65658649
41.32376116
45.09378091
43.86981349
52.68829183
52.04130858
44.6976469
51.83656144
50.95608514
41.32275601
49.89116035
42.36078928
42.67958782
48.63840521
40.96254743
41.88155765
61.20560242
62.01156257
58.13928542
58.23907548
57.0007593
56.84003418
53.76900837
54.88948856
54.47677947
56.65105431
56.41739814
57.00000286
49.0637093
50.32822472
55.71485216
57.17103602
63.18537899
59.22299203
63.2658176
63.63626001
60.67353576
42.20056374
44.58417815
44.02340577
48.52798115
48.27479398
45.23395825
41.75604891
41.49582971
43.55224134
43.175163
49.54797854
51.92908461
51.5744154
54.09410469
53.72788905
52.01283296
46.22629178
49.18417245
48.88532109
51.21753565
50.86940235
48.21458227
42.95504605
43.50132579
46.79299772
45.90981362
42.23568911
42.77683335
46.70676188
47.24283066
48.55062924
39.99554687
39.83621813
41.27042068
41.06569284
37.48064657
39.60033416
39.46841605
47.84840262
45.9580558
46.52090836
49.62459307
49.25252907
43.16358325
43.66930156
49.9650795
49.13885475
49.5308944
55.22888458
45.35889052
46.64282337
41.64505299
41.25849524
37.10437467
38.34229036
42.10950283
41.76079481
33.81909597
33.88821764
36.07963166
35.68267756
33.6322306
33.72749011
62.41711731
32.18781658
33.41079617
32.59565322
110.2050381
32.15188727
41.49693653
64.65207213
57.0629561
32.06207664
32.09959145
32.97386273
75.32298624
81.50490841
78.71315711
61.38977509
32.72767187
31.98826695
32.02237663
43.51935327
39.83721229
39.55075552
59.53321832
58.60791714
47.33269831
45.57970467
40.55269541
57.46191039
58.41423465
61.65154701
42.96530535
57.62636364
51.68861033
57.97297372
56.68485481
44.55138278
44.94548084
45.72666437
50.79770096
54.23996326
54.65593367
53.59244244
53.90564389
59.92974686
59.19342685
59.52074504
58.49879584
58.83458475
59.41117212
48.57494971
47.44054396
47.75039799
47.00171923
47.21569948
48.56302991
61.40183007
60.32170821
60.35407779
59.84975186
60.12660734
61.04573008
49.35580061
48.64932524
48.98809662
48.02431818
48.34922208
49.15981275
52.86020062
52.99304744
52.08934738
52.26604515
36.87891708
39.32654231
39.18974101
33.85712674
35.81912636
35.70387331
36.17789396
35.95564024
33.9468211
63.64335684
65.28065498
57.07764509
64.75743142
32.86324102
32.80959078
32.99702354
32.93929903
32.46140111
33.95116736
32.51912134
32.663243
33.52878507
35.41757184
35.31319067
35.60857559
35.51024877
33.60312239
33.13680722
33.05612
34.09352683
33.30264637
32.92706751
64.72463226
62.31767847
48.68619411
65.17374862
34.8939372
33.88446634
38.96836189
32.53111925
34.38458354
34.24212146
31.88285407
92.2867145
93.28026291
63.17922421
85.07892343
75.31917418
32.25561426
32.31363763
33.25491902
32.03697974
62.38206104
68.29912081
62.67160251
65.18906615
60.56800069
51.81571139
66.92600749
61.4819726
51.80474638
51.32969974
61.16888768
47.89345142
52.79945686
55.74740207
52.73897042
57.78818859
52.10056085
55.45102084
62.75921031
64.29313505
56.45626383
61.50298351
65.51450257
56.36206062
57.90054397
55.45718237
60.1576872
69.89525719
69.70691228
68.04000951
44.98216722
61.05089225
54.46770067
68.46582897
70.11214577
47.99528175
51.78735067
56.58357927
72.34537455
59.62738479
45.83953209
48.10624486
65.69011768
61.9663496
66.11192948
59.95564505
62.90749818
65.69854191
67.22375273
66.53978947
55.8983039
56.28977975
56.63725188
55.41861031
55.65641585
55.56790121
57.98611053
57.78841687
58.12748303
57.05871497
57.39287761
57.52683296
45.63453798
47.65016578
47.63190556
48.13163912
48.18989274
46.34414041
48.74141524
48.42971354
47.8183911
48.35801641
48.79459163
47.25204843
47.06400469
46.98604528
47.53928119
47.33401584
46.71094595
52.41171391
48.16941377
41.57630307
54.04570617
53.97616857
53.62557385
43.59361786
52.37777044
51.84640989
41.97186335
42.10603644
46.70058412
60.67144418
58.72197599
55.73288232
55.32288995
54.36290691
56.66197008
56.21934408
55.93712177
64.43993625
64.13777674
58.61545198
64.86005976
67.03847193
60.53836806
64.2009535
64.40539852
61.58896462
60.27924212
60.2092022
60.2749621
60.29935557
61.35162517
63.35467781
63.59237662
62.85298
66.19856881
66.09221084
66.10409628
66.21732207
62.70804544
64.49346723
65.52430826
67.46994263
64.56381281
47.05069313
46.87986774
43.95006166
44.78466196
47.86882277
47.69035747
42.28510211
42.00926326
42.85973386
42.56207598
52.64267139
52.2827282
49.99521303
51.48897947
53.36659312
53.0043434
49.84993932
49.53146159
46.64640376
47.78209222
50.52026127
50.18792181
50.58376876
49.99253243
50.35259623
49.30359565
49.65843363
50.14846114
51.85276073
51.30682887
51.5820844
50.69658392
51.02894399
51.5574154
40.80449466
37.71570772
37.88199555
37.41565938
37.56933744
40.63365486
41.59385078
38.43059545
38.67636629
38.04594921
38.23068289
41.3684055
39.44028559
36.53816086
36.69680809
36.27727181
36.43299707
39.30631862
40.12038227
37.1182746
37.27364725
36.81896184
36.98166163
39.95737295
40.40824733
40.22603136
45.71290669
43.49314431
43.69541298
43.07623655
43.26064497
45.5021651
40.8346046
40.63545967
38.74703862
38.65265292
43.81479015
41.64516386
41.71720636
39.03884519
39.5402588
43.06064632
44.90689457
42.67409729
42.82647038
42.26559887
42.37463992
44.65598045
39.21182314
39.11236731
48.92707196
48.80982733
49.8846297
44.50325316
46.30008007
44.0947545
48.73944354
49.0598419
48.52183815
48.66397971
44.48878386
43.27785277
46.23638589
44.73671241
48.3922148
48.49775934
43.28480006
36.36404788
38.71092551
38.57673865
39.02861132
38.90241621
36.55511758
34.21754423
34.10263278
34.53583368
34.43317629
33.86280118
33.71045772
34.43496461
37.27570336
36.58831052
38.2664405
37.9868071
35.71095499
36.39554678
34.78147685
35.55901392
35.94623897
38.76841663
36.0189811
36.19200225
35.71869811
35.94256259
38.68998951
34.91952549
34.80774593
35.35275669
35.23229287
54.44832531
43.1348643
44.19501708
41.32984111
42.14412528
55.23425604
53.91630435
53.2776234
45.60871978
49.10380244
55.59675802
65.29118904
48.44297031
51.45487041
43.34893858
45.85446182
66.66276016
32.6485723
32.59119786
32.75220335
32.70946878
33.16644846
33.47974558
35.43513183
32.38596956
32.35200172
32.52648838
32.46526539
33.21646938
35.01990585
34.90073769
35.21934019
35.10857236
33.27871808
32.96552526
34.60027429
34.37575408
34.8216015
34.68138055
33.00835256
60.94269139
34.12519698
33.85983082
32.2649241
76.21062991
99.04169835
103.7699777
99.14597472
99.58885562
80.78477651
31.98042668
80.04355564
59.84292029
64.04664745
33.04214144
32.1349983
32.1984389
76.40202398
84.2383186
82.35103843
68.88409481
74.9783825
89.08746424
84.82489273
56.41126785
80.75121197
71.35312317
32.15524958
31.95249809
32.47823468
36.70261475
36.73425192
36.83071977
36.74761883
36.80227703
36.86460686
36.82332765
36.90239611
36.91616653
36.92715077
36.99878904
36.97713303
37.01754032
37.05702336
37.01814074
37.06217407
37.06682406
37.02577898
37.06376666
37.03728403
37.00847639
37.02345089
36.96525755
36.95842829
36.94298221
36.86546784
36.90161431
36.8429942
36.78173598
36.85739425
36.57788795
36.64559025
36.70689301
36.67556075
36.78743242
36.78981015
36.82721414
36.94965693
36.90656646
36.98885784
37.09400661
37.01388154
37.12193296
37.18022309
37.07799181
37.19031823
37.19314745
37.08846919
37.18577631
37.13912807
37.05469373
37.11671341
37.0295681
36.97497979
36.99559864
36.88482458
36.86546171
36.84685694
36.73539244
36.76337289
36.49523116
36.62924683
36.6339161
36.68021138
36.84850643
36.79561318
36.90859736
37.0941006
36.97530495
37.1549795
37.32195301
37.13499062
37.3674136
37.46477256
37.23042665
37.48304957
37.48714707
37.2429046
37.46611673
37.37430518
37.18331608
37.33545571
37.19195056
37.05888655
37.13777795
36.97094887
36.89943008
36.9159323
36.75852395
36.73618426
36.46965773
36.66572483
36.63298769
36.73944117
36.98779068
36.87615244
37.0795335
37.37876739
37.15015283
37.48298082
37.80127889
37.4079315
37.89427883
38.11724954
37.57398712
38.14643567
38.14281604
37.58412595
38.06590387
37.85968573
37.4709464
37.77924413
37.51401259
37.25426519
37.42253013
37.15783239
37.00715163
37.07425249
36.84307187
36.77319736
36.48952725
36.75632774
36.68383322
36.85985733
37.22181182
37.0373188
37.36194928
37.86075688
37.47689192
38.05867609
38.78859525
37.97177059
39.06384825
39.96259833
38.37231506
39.98059056
39.74501605
38.34107907
39.38765873
38.81075495
38.04595676
38.61264145
38.07291305
37.6295855
37.91015607
37.47271913
37.22373563
37.34240404
36.99569589
36.8739529
36.5388922
36.8911537
36.78638254
37.03022697
37.53668654
37.29369073
37.74487692
38.56086049
38.0186196
38.93163972
41.05495033
39.14610797
40.28533813
40.88932927
39.85333024
41.53112261
41.55948083
40.31676639
40.95508536
40.26632357
39.78523909
40.01479988
38.92258653
38.25945649
38.63536518
37.92286583
37.57357383
37.72393195
37.21921261
37.04491141
36.61397516
37.05645486
36.92972987
37.2330345
37.89007186
37.6236673
38.16737799
39.30435135
38.75514641
39.4105631
39.98834316
39.69740927
42.47983791
43.1535492
42.66087124
44.92542881
43.51060645
42.16434544
41.88362298
40.00171223
39.1793249
39.54800776
38.48206941
38.0560714
38.19762441
37.49849812
37.28483217
36.70828459
37.23536039
37.10071317
37.44524981
38.22725786
37.97672618
38.55805438
39.90736166
39.46918244
40.21918999
40.96654168
40.75583958
44.56501682
45.72697884
45.52776474
49.38719923
46.65761611
45.51030791
43.70181373
41.11395207
40.28793454
40.49781169
39.07233739
38.63043139
38.70034402
37.8006951
37.57333854
36.81374189
37.4160291
37.28057006
37.65415158
38.53501633
38.30681453
38.90483035
40.39648385
40.03704198
40.82715396
41.66172893
41.50300334
45.57978033
46.91059599
46.87495688
52.01951251
48.90518696
48.19068913
45.11363272
42.07330989
41.37888434
41.33348822
39.61236919
39.21698729
39.16384519
38.08734111
37.87303421
36.92597099
37.59397632
37.4605672
37.85622408
38.82027452
38.60779395
39.22299814
40.8418191
40.50841064
41.34781715
42.25662079
42.10435052
45.82123033
46.40348014
46.56259504
53.23979619
50.17906257
49.82491467
46.06555519