/*--------------------------------*- C++ -*----------------------------------*\
| =========                 |                                                 |
| \\      /  F ield         | OpenFOAM: The Open Source CFD Toolbox           |
|  \\    /   O peration     | Version:  v1912                                 |
|   \\  /    A nd           | Website:  www.openfoam.com                      |
|    \\/     M anipulation  |                                                 |
\*---------------------------------------------------------------------------*/
FoamFile
{
    version     2.0;
    format      ascii;
    class       volScalarField;
    location    "0.24";
    object      omega;
}
// * * * * * * * * * * * * * * * * * * * * * * * * * * * * * * * * * * * * * //

dimensions      [0 0 -1 0 0 0 0];


internalField   nonuniform List<scalar> 
12556
(
31.93080853
31.93163143
31.93257067
31.93342325
31.96663942
31.96729416
31.9679146
31.96917329
31.9717514
31.9763001
31.98310945
31.99085903
31.99582087
31.99692423
31.99297896
31.98602916
31.97900021
31.97314091
31.97035712
31.968185
31.93474381
31.93339607
31.93217508
31.93117368
31.79384069
31.79639385
31.79902476
31.80146487
31.83559509
31.83801478
31.84153184
31.86264333
31.87459111
31.89584542
31.92793647
31.96407212
31.99530727
32.00157962
31.9832745
31.94945194
31.91526548
31.8886
31.85583812
31.84442622
31.80618312
31.80226205
31.79881244
31.79572687
31.65886291
31.66328487
31.66798929
31.67197003
31.7066775
31.71173774
31.72007281
31.74875428
31.77785171
31.82827674
31.90381573
31.99029879
32.04381783
32.06353492
32.02015764
31.94832765
31.87121036
31.81141503
31.75313591
31.72777871
31.6824078
31.67463369
31.66849549
31.66347599
31.52503805
31.53105861
31.53728834
31.54301749
31.57963441
31.58914224
31.60664884
31.65106762
31.71199024
31.82005056
31.98538562
32.17836347
32.28502938
32.30494963
32.19006815
32.04076639
31.89100232
31.77155049
31.67325613
31.62421788
31.56391373
31.55095912
31.54135155
31.53387675
31.39374202
31.40141359
31.40975892
31.41772102
31.45623091
31.4724711
31.50576408
31.5752338
31.69702062
31.93277568
32.31724304
32.77709542
33.09891235
33.08633118
32.71922323
32.34685877
32.03390052
31.79563336
31.62646657
31.53847595
31.45374187
31.43125918
31.4168999
31.40680216
31.26328844
31.27253143
31.28270315
31.29357191
31.33720699
31.36430895
31.42271263
31.53041299
31.7592963
32.26200334
33.24207356
34.91735562
36.19398153
35.72385772
34.18307689
33.10527244
32.39645644
31.92277955
31.62322944
31.47411069
31.35255641
31.31492181
31.29404457
31.28035987
31.13610771
31.14714781
31.15997061
31.1749069
31.22342526
31.26548056
31.35846033
31.52136051
31.92841784
32.93067456
35.47735534
43.46929926
51.98369922
47.64279381
38.05469425
34.71359297
33.09775544
32.19829837
31.66333573
31.43255862
31.25998001
31.2024036
31.17253027
31.1547588
31.01031258
31.023269
31.03891063
31.05894156
31.11681009
31.17795174
31.31252678
31.54732221
32.19352024
33.91182735
39.29389354
65.28143409
84.83164304
46.87025661
37.54194518
34.21999036
32.63959051
31.76726986
31.41088493
31.17700911
31.09413078
31.05253742
31.02973097
30.88991563
30.90516779
30.9249086
30.95244455
31.01801555
31.10276394
31.28318911
31.60964648
32.52050513
34.95825228
42.67194413
82.51798905
170.0315909
59.68417942
41.39227829
35.68207192
33.2126526
31.91849563
31.41036052
31.10335988
30.9918298
30.9362975
30.90780032
30.77299145
30.79073891
30.814523
30.85029906
30.92730923
31.03909436
31.26882024
31.69481563
32.8534306
35.84160683
44.7362444
89.9298285
213.5588572
70.86203795
45.33071984
37.24330431
33.82355019
32.09548412
31.42225089
31.03935202
30.89724267
30.82613223
30.79108307
30.66376279
30.68456785
30.71383715
30.76021033
30.8452602
30.98575432
31.26967321
31.7959415
33.17518544
36.57550943
46.28693542
100.7751055
212.9991216
77.4723809
48.50161204
38.61435264
34.40428134
32.26963708
31.44524441
30.98411687
30.81247061
30.72536787
30.68321822
30.55982537
30.58315437
30.61718987
30.67357515
30.77146748
30.94094871
31.27804733
31.90445262
33.47477253
37.21393213
47.811545
113.1516709
196.608465
80.15648814
50.53581236
39.60771348
34.85781402
32.41657887
31.47033939
30.93777559
30.73722529
30.63476072
30.58536394
30.46404439
30.49075837
30.53141846
30.59916165
30.70441729
30.90153153
31.28929459
32.01034397
33.74453499
37.78205966
49.60683442
122.9018253
999.7917846
168.4440896
80.44074809
51.50405178
40.18455074
35.15156329
32.52101997
31.48890427
30.89567406
30.6712433
30.55401784
30.49762174
30.3724681
30.40221684
30.44895973
30.52661953
30.64888474
30.88206997
31.33112291
32.14268029
34.05253007
38.4711677
52.12323936
168.7073953
606.0956336
157.9115596
79.6222308
51.67153245
40.37694072
35.29219516
32.58265614
31.49516315
30.85306575
30.61072214
30.48064025
30.41756159
30.28700281
30.31987545
30.37230511
30.4588297
30.59207118
30.85216487
31.35021877
32.24261954
34.28081647
38.95147157
54.361085
390.2555511
430.9105361
148.0014971
77.60738202
51.17200195
40.26177104
35.31265688
32.5935232
31.4844208
30.80977731
30.5528805
30.41138205
30.34310214
30.20250405
30.23833308
30.29615074
30.39184886
30.53692119
30.82083988
31.36682748
32.3480816
34.55985488
39.60814837
57.32109753
593.7764688
374.3950995
139.1672665
74.79353235
50.25284771
39.9555326
35.23294065
32.56818327
31.4545676
30.75938187
30.4920092
30.34237289
30.26904395
30.12157585
30.16039918
30.22299606
30.3262035
30.4812311
30.78626277
31.37682672
32.45129749
34.92864807
40.72092533
63.23603591
787.8503708
314.2148369
128.3839436
71.10335276
49.04475404
39.61599635
35.10967038
32.50946828
31.41050986
30.70331504
30.42903059
30.27186528
30.19484111
30.03800031
30.07951263
30.14662806
30.2577063
30.4234666
30.7470942
31.37850126
32.52887236
35.30987459
42.3066297
77.98017861
855.8598098
255.3114542
116.4632975
67.349091
47.96685877
39.27411981
34.95438797
32.42705605
31.34703985
30.6352475
30.35665816
30.19560792
30.11546073
29.95632985
30.00043133
30.07153177
30.18866818
30.36252837
30.70263904
31.37263981
32.59404914
35.58603609
43.85779201
102.9513045
757.1986351
217.0688791
107.5048045
64.95354511
47.19815121
38.93795239
34.78147594
32.3274427
31.26935427
30.5587988
30.27847761
30.11470739
30.0328061
29.86932894
29.91553475
29.99046995
30.1145432
30.29796131
30.65310043
31.35933801
32.65029933
35.85326545
45.23160779
119.7867335
666.9801395
199.7551127
103.0859926
63.4776492
46.52976116
38.61852086
34.60131565
32.21613817
31.17981787
30.47175665
30.19059796
30.02529224
29.9424414
29.78427488
29.83232121
29.91049733
30.03954323
30.22946566
30.59898627
31.34011685
32.70055162
36.12500111
46.99163611
134.0534503
593.8996203
187.1404015
99.40746719
62.2893332
45.9640382
38.32118189
34.4203835
32.09675807
31.08064798
30.37820738
30.09800223
29.9321805
29.84889305
29.69214044
29.74147132
29.82278845
29.95815691
30.15719537
30.54087854
31.31664092
32.74753369
36.41259793
49.31351104
146.5769749
533.092394
176.5704328
96.23501393
61.27936325
45.49775653
38.05017928
34.24275812
31.97201004
30.97386172
30.27550467
29.99598996
29.83024956
29.74709918
29.60358877
29.65393621
29.73771999
29.87703251
30.08127568
30.47943231
31.2903933
32.79458977
36.74369349
51.91540978
157.2790568
481.7246282
167.5529664
93.46790284
60.39285632
45.11096354
37.80748955
34.07097614
31.84406512
30.86119178
30.16961057
29.89232364
29.72729595
29.64458038
29.50642554
29.55735465
29.64369212
29.78894692
30.00239944
30.41553952
31.26323856
32.8464101
37.15651011
54.47432385
166.3241987
437.3303479
159.7689136
91.03431341
59.60305323
44.77863469
37.59014257
33.90587721
31.71432493
30.74409845
30.05598387
29.77973516
29.61556319
29.53364805
29.41581785
29.46718148
29.55540894
29.70372886
29.92102257
30.35016438
31.2369609
32.90803338
37.66390466
56.87837648
173.8458026
398.8004375
152.9917854
88.87879259
58.89103657
44.48024654
37.39104475
33.74643424
31.58339304
30.62361247
29.94280064
29.66944097
29.50657611
29.42556567
29.31440556
29.36594391
29.45641026
29.61072905
29.83811257
30.2841324
31.21274704
32.9829366
38.24004985
59.10105665
179.7242149
365.3010345
147.0146319
86.94083472
58.23280475
44.19790011
37.20136015
33.59032941
31.45135472
30.500562
29.82181414
29.54925912
29.38755324
29.30764379
29.22382959
29.27550736
29.36753861
29.52424134
29.75393582
30.21798761
31.19098988
33.07210015
38.84594113
61.13340546
183.9894683
335.9717106
141.6257021
85.14047228
57.59480491
43.91464983
37.01300823
33.43520978
31.31821042
30.375459
29.70523501
29.43613223
29.27601145
29.19717195
29.11872774
29.17040825
29.26454421
29.42761382
29.66936353
30.15194232
31.17148637
33.17430094
39.45256784
62.98150993
186.7994724
309.9736874
136.5986456
83.39060418
56.94291725
43.61708657
36.82051534
33.27960336
31.18410798
30.24890927
29.57863075
29.30982176
29.15095924
29.07331227
29.0302968
29.08200542
29.1775214
29.34232296
29.58410972
30.08596356
31.1538596
33.28725153
40.04520262
64.66712908
188.4361407
286.6788386
131.7761244
81.63221474
56.25627269
43.29863034
36.62175288
33.1232139
31.0494293
30.12123317
29.46184591
29.19708323
29.03989082
28.96331148
28.92126561
28.97292048
29.07042744
29.24197652
29.49900061
30.01993541
31.13793648
33.40879536
40.61877311
66.21002885
189.1060872
265.6336107
127.1034434
79.84641001
55.53090787
42.95976962
36.41743307
32.96661754
30.91466832
29.99306405
29.32960319
29.06437786
28.90845955
28.83307191
28.83721464
28.88885335
28.98757453
29.16016498
29.41323539
29.9538649
31.12413796
33.53785989
41.17407731
67.62924739
188.9442778
246.5268381
122.5731095
78.0364346
54.7728601
42.60511206
36.20974347
32.81073767
30.78031477
29.86450076
29.21600499
28.95526228
28.80090076
28.72648239
28.7229921
28.77455344
28.87508533
29.05453097
29.32802744
29.88801807
31.11369271
33.67532424
41.71781441
68.95329102
188.3785683
229.1463958
118.1697549
76.20642672
53.99000234
42.24013857
36.00105711
32.65637994
30.64676692
29.736252
29.0760954
28.81415593
28.66109674
28.58783926
28.64592248
28.69742231
28.79896925
28.97906463
29.24209147
29.82286747
31.10830989
33.82446978
42.26456812
70.23891397
187.7939785
213.222061
113.8454656
74.3547734
53.19036414
41.87058769
35.79361868
32.50411262
30.51438298
29.60812803
28.97068519
28.71307972
28.56128778
28.48885656
28.52397685
28.5753778
28.67853129
28.86477573
29.15752309
29.75902919
31.11007752
33.9907928
42.84160725
71.61963486
187.6565477
198.4161433
109.5555054
72.4947628
52.38973815
41.50462062
35.59003531
32.3544758
30.38368577
29.48136374
28.81815188
28.55978742
28.40944473
28.33816214
28.45675642
28.50807167
28.61198205
28.79984592
29.07253408
29.69702265
31.1194399
34.17814416
43.47221949
73.20401233
188.18724
184.7427402
105.3576364
70.68266033
51.61702908
41.15294901
35.39299989
32.20778886
30.25576515
29.35611328
28.72926322
28.47277384
28.32325235
28.25258649
28.30002391
28.35115535
28.45676846
28.65112259
28.99125942
29.63758518
31.13435355
34.38070127
44.13687469
74.89585488
188.4032548
172.7073422
101.464816
69.01887296
50.9086657
40.82595886
35.20481637
32.06446385
30.13332928
29.23632167
28.53058057
28.27389804
28.12605756
28.05671334
81.56790485
203.5109372
96.91134904
88.9308791
260.6749698
211.4753025
99.28323892
255.1866149
262.6245652
111.7315232
228.6633702
251.8559276
121.8099258
1281.452402
1042.270753
205.5326352
225.0907895
148.9327628
746.2832639
1244.687893
632.4150832
201.1036601
203.3320063
61.55840899
51.23175306
88.39492276
46.97774435
688.4563036
221.3116743
160.3211756
66.01888563
52.06486431
44.31920296
75.56407028
70.66819624
2438.613455
1712.264341
211.0952009
82.39159024
70.63693771
45.96313682
82.32984372
76.2674765
93.40486066
264.3160167
241.286078
1306.53777
1855.560537
214.5139028
91.51420527
85.38263245
47.51681758
91.81305739
83.39958191
105.2355528
363.8349698
298.3581483
697.2955775
950.1425388
49.26893771
103.3685141
92.95760306
115.1134954
528.6304162
433.9409822
3138.794719
442.6955874
514.8767223
51.75028584
124.0172687
105.0282048
131.2129444
1072.745153
730.3851693
160.9708233
557.546394
734.5725267
211.9519083
245.3967818
127.6631771
205.0752835
1666.932241
728.8465365
158.1990808
576.2652872
1144.838197
238.4720719
219.4085067
85.91505218
285.1126648
295.9449197
251.2499217
282.3087297
1880.215085
2439.523553
238.9065392
1658.193644
1411.242555
1183.780618
1653.886257
235.7819665
295.2404947
268.1150656
94.76543355
338.185122
379.7274607
298.007061
334.978795
997.3550424
1275.904147
261.5621539
939.3180385
725.3067299
1394.054094
978.3037484
263.0174374
429.9258002
367.0340848
106.7300583
442.0325987
536.9529869
382.4429551
438.3096493
530.8037963
669.0509726
720.5156594
537.5670188
115.3995773
3992.882899
713.948172
1049.518381
541.6774087
698.9773877
4372.383932
406.5023626
435.2930276
2841.765329
8558.456671
1080.286527
132.5373039
866.9347694
1658.022454
8043.322604
1057.307552
1633.744596
896.5157928
41.99067841
69.7855008
57.48322506
74.85482457
166.2511057
110.4024907
4345.879226
759.2434682
85.29373282
217.0090857
194.0778673
6938.459424
199.1283363
94.58433846
92.75059364
6469.476486
1023.767587
1142.832073
771.0517415
360.9679575
392.9598364
191.1777853
170.3726197
77.00620646
1511.142035
319.502771
705.7164227
181.9512007
506.9461592
145.5189533
1167.270808
1526.918367
238.362382
546.7287321
465.7436938
699.5231533
562.3897545
242.0707045
2002.820344
5131.426578
1088.446293
86.99690166
68.79765422
114.1377789
190.190844
83.57368862
89.48666841
6351.996039
474.6359578
4364.358805
553.5516432
3134.075571
425.4573467
1970.155204
1943.041708
1530.805369
1569.156404
3078.946328
5985.051109
792.1700423
3695.743684
1950.183501
6742.612752
4216.915905
829.2563189
467.818455
194.7270427
202.4008346
858.2687985
974.2859325
5914.204984
781.280583
245.5739735
258.2492329
230.1567963
240.7408899
778.6545091
1390.214949
1513.519355
227.2338866
991.2837745
829.6875554
1442.075041
990.9101349
231.4618164
168.0006824
524.6516592
249.7990308
743.429967
558.8905835
180.5217966
736.1205677
1040.692344
1162.376808
1099.148965
284.3942351
1532.157838
284.6780854
266.612065
1502.128255
1459.372968
1528.960615
1506.79061
270.7159103
2010.384738
2033.721212
1513.081947
485.9934077
473.6239822
487.8653512
487.9594799
1500.251665
1395.591974
430.2573465
392.7354403
467.2045341
441.3955216
1421.291999
357.2461419
359.9485285
313.6072538
315.8827356
1064.297583
6979.778442
1085.805537
470.2917924
476.7177491
410.072759
413.8825314
1835.541309
1307.806168
599.5323152
1628.034809
2836.321521
585.852023
216.8016719
226.5003142
205.150696
213.7760749
577.8258164
2240.611271
755.0736153
766.6024774
575.7380862
579.9779086
6602.788164
1550.442528
735.116773
823.2154893
263.6802939
273.3072237
1304.815291
2616.94059
2886.661934
3795.064311
1087.685766
7118.968661
3994.639852
6253.12879
1083.748541
1026.948293
4784.438832
3291.410695
5025.358329
2978.218337
3812.608585
53.76041648
125.4062132
126.3237073
179.8274707
4306.53467
8039.7315
449.9704691
185.2441559
197.3268019
1449.587266
4210.201589
5368.472427
639.1830729
706.5340666
1443.29834
331.2161548
350.5116885
749.8186743
184.1714547
133.5368816
279.4931987
595.8814964
167.5315341
197.4242612
2292.152186
5793.007175
6018.274588
1828.300298
1405.416389
4174.078404
2970.496704
7002.857034
6836.483888
1763.473351
338.0011403
163.7072588
168.6559566
157.5909573
162.1310105
332.2293176
185.726812
192.46157
463.4955761
995.1362422
424.4043379
441.5353593
6796.651948
3497.761866
691.973992
1443.227531
5346.12139
5799.04269
782.9703515
312.3806702
259.8650936
377.4352017
330.3820678
821.141933
1939.912114
6951.143362
7016.252367
2308.866896
282.9049752
151.9468606
156.1556974
731.2051359
719.6290341
370.9547305
2791.800918
2542.05184
1193.581237
840.8298859
431.7133626
450.0737267
1227.456437
476.6711475
486.1216199
456.4946934
471.883891
1201.132536
394.5600715
177.6562387
183.6555942
170.3727766
175.758483
390.3712547
453.2313182
1017.814472
1009.706599
1565.656188
1523.131401
517.3504842
393.0416364
765.2344862
733.102828
1006.197812
1000.932686
427.6829706
578.9813009
1254.768417
1008.207584
6675.702398
3149.558362
735.2236098
896.3660655
555.7993474
1595.25042
1572.327685
1597.624085
620.3758737
5748.877392
8607.631479
337.9118574
374.5794798
447.830428
462.7934364
1084.746773
3111.596145
2089.721301
792.3619816
1670.787795
8380.33975
2918.753573
2758.033331
15798.34194
1065.665227
1558.651625
2618.342936
3209.097425
2378.423483
6918.40524
7026.95866
1965.52794
2663.320986
6636.930407
1550.412523
1487.450218
486.4433512
1840.087856
764.1806501
1797.728405
532.2611554
5384.706474
4136.699564
1332.266513
6006.63491
6750.078183
5324.317677
4186.771538
1606.018636
5463.806257
6526.035164
4159.60303
5236.060095
6884.363985
3143.085121
3851.297339
2443.644405
2909.882484
6190.456919
6764.911618
1769.483184
1059.758164
2980.448904
1960.881172
948.8532503
582.1457439
1754.162448
6357.620733
8255.237821
2175.467703
1855.518636
6104.574693
6364.734243
4616.022244
4297.410377
1441.532237
7026.848724
6931.478372
5270.602854
6818.866455
6897.560097
1712.4844
6956.409158
4739.066613
4338.411693
4787.313026
2737.247454
1214.454309
1319.124761
5344.288993
1558.636943
1779.670155
1361.130883
1491.869775
5077.241115
4677.391362
1458.72255
1780.89116
399.2744273
418.4802888
910.65618
753.9546896
380.8210624
394.5083159
1488.482428
1497.253165
986.7511712
387.1089988
407.3087836
361.5705357
381.1245065
981.0246809
1032.562879
450.8809863
485.8077823
414.2467197
440.6588386
1040.31747
679.7617218
333.6264461
355.6970733
964.9213692
996.0121009
3851.196791
3987.978156
1367.333544
5558.742368
5772.3328
7298.225958
4024.946206
3343.409368
5673.441502
3969.410183
915.1056063
2747.98639
3693.372581
1562.347574
581.8419931
644.9683822
558.7689142
571.4267075
1531.674217
691.0509052
699.7992785
665.3500237
687.9010717
1489.459055
513.6602068
525.4034269
493.994882
509.5073954
1483.185083
1519.316773
544.0033889
554.6497312
529.224433
540.3653173
1518.684533
6799.915806
6898.232007
1959.146739
2210.298301
7129.65505
6771.414314
984.6806372
987.4706115
962.6050164
983.8338656
996.6492112
1006.902278
988.6316465
994.6333575
713.5404019
722.1786765
702.5159289
710.6202275
759.0988626
922.2239937
726.4951641
737.5272755
2371.290961
2813.021285
1860.599023
2195.66834
7274.036241
4507.246739
4937.386353
3023.635799
4324.626379
1029.078898
1022.877275
457.2902394
1598.015672
1601.712021
1569.513393
1589.819504
1643.436138
506.9265776
1489.417915
1078.952126
974.8131523
784.7884169
397.004427
1050.774635
1483.894447
1007.293782
1060.366446
1538.321385
1559.07913
1502.080049
1529.536899
424.2329683
999.4152473
991.6340527
6804.394525
1965.816411
6819.07496
6036.556934
6796.038705
2120.796044
6870.015577
2868.227187
6607.560364
5821.389882
741.3219252
816.3246474
1625.432082
1600.005618
560.2231374
605.3240426
1684.534342
1627.665011
6557.115346
1121.312494
473.5210718
512.232144
6453.968561
7261.977384
1736.98125
7934.361171
6044.517885
3360.460463
1066.878112
7157.819233
4651.287494
7770.285352
5001.791486
1505.34562
78.30203435
48.02536516
39.41892215
6633.227254
6608.169457
185.7814265
94.30592608
94.74560643
6821.409939
1492.160709
3902.639452
3166.702308
454.1902306
378.9585604
216.3020379
488.8354915
311.2630888
772.5856748
2830.36883
452.1471952
534.802547
62.40778845
75.79574331
163.3461962
597.1203319
1243.602682
1871.104065
253.6433007
141.4332456
145.4336622
135.86454
140.0838956
250.4056484
1219.280462
1381.833502
4246.164489
961.54294
844.2320633
481.203635
364.2883643
376.716504
749.3970565
2045.185857
2640.280138
858.4313946
146.7008772
150.5991651
279.2422983
346.5470497
691.1107437
667.6974124
647.0346667
584.0523866
325.8478204
647.1810839
347.1794381
360.1385671
5385.197702
5130.163235
3712.995248
1599.482139
1579.342359
1028.904634
4802.506463
6512.190758
5938.370992
2146.13136
1058.348786
1184.554575
1660.910949
1061.594692
1630.263415
1618.434885
1632.630495
4719.670336
6747.128543
4692.079344
5058.773434
6402.883674
2381.932804
1854.156512
1037.95464
1524.864017
241.5022661
188.4286238
357.1606429
1283.034671
3665.900995
2665.475995
6654.200055
6985.988131
7111.324915
6015.847581
6805.182613
119.5548706
157.8151089
454.0436934
5131.687768
3272.066955
2481.131995
7080.671861
5380.126272
3375.190959
5411.78813
5036.765263
7207.699581
6879.922984
5390.442247
1099.105801
1186.993853
2499.139091
6901.523072
4180.205699
4593.941277
5333.260032
3823.020242
4220.262693
1438.056122
1867.089474
1510.280692
989.7331686
696.1963587
703.380316
1408.548726
910.7750283
951.5572773
708.7095554
717.4636409
1000.100308
297.4418454
326.8309811
653.7444042
819.3675223
1414.427537
1055.526969
1536.158864
1588.062824
1048.789562
1840.727857
1376.117824
1423.348671
1000.637273
1001.555008
1534.661777
1504.852118
1514.694892
1451.724414
1469.337807
1496.476443
975.6253398
977.5829317
966.9032658
970.5147484
1469.15742
1525.805887
994.2617165
996.4377946
979.8449338
982.2203494
1510.929614
703.868528
694.6055353
349.2815452
368.253749
716.4899835
706.8550605
556.4161911
546.1331978
306.718741
1535.747479
1536.883515
1517.44584
1520.181789
1853.562302
1541.461538
1541.817108
323.2196687
573.5533293
560.6290945
7039.405898
6976.444277
4782.788988
5038.255483
6937.609297
7070.211659
7306.092949
1168.514374
2440.299334
2016.370601
332.0276757
343.0708325
621.2109454
561.8987156
320.131638
328.9311125
1057.550877
1057.720467
752.3005468
768.6933868
1063.932827
1068.117731
6561.309002
1378.286027
919.8420848
908.1702637
9939.598819
2139.04809
3247.089088
5573.690767
4877.921672
1690.245838
1671.57486
1075.202412
6925.199036
7484.59398
7175.187414
5811.125827
1136.544152
1730.911205
1680.371166
3996.174563
1850.535333
2253.682776
6537.678233
6459.258107
5399.563847
5107.221599
3520.314998
1586.606564
2404.461321
2180.468381
4658.69827
6620.864107
5892.472203
6690.03202
6472.626723
5082.889777
281.7280991
406.9353524
1537.477509
6145.991894
5987.339137
6317.750839
6263.095681
5912.580318
3837.355257
3816.976069
3849.829663
3837.288638
5910.767457
7030.224437
3960.790083
3998.640029
3778.668349
3902.072076
7133.903133
5557.212132
3513.003444
3164.444659
3795.986839
3704.677101
5664.060414
6933.220477
4095.728731
4132.395
4040.021832
4063.96063
6979.728675
6483.305788
6356.458833
6556.055518
6312.338881
1016.526579
729.8727044
732.9074403
1553.318918
1017.871632
1020.913199
994.2955076
1012.517524
1542.988079
6401.276623
6602.178268
5907.969024
6478.306754
1603.457841
1615.581067
1578.18129
1591.424414
2014.837611
979.618106
1538.524991
1481.978794
1586.622004
1024.842948
1027.543773
1022.014195
1023.758245
1580.743124
1521.1437
1558.898194
1091.186524
1465.803957
1995.15754
6811.370366
6456.41481
5260.729059
6653.4007
830.4123746
1137.290323
13039.51418
1087.252593
766.1539739
768.4304066
1675.910268
8156.631451
8525.631553
10001.58643
6238.090903
6172.988147
1644.140897
1633.889989
1061.925783
1601.917611
3744.170623
5746.049689
3919.003551
4884.043245
3813.31243
1616.436334
5165.271664
3791.363974
6975.795814
7236.719181
6599.182243
5373.839634
5938.743308
1521.685264
1825.854109
1762.650143
851.6317181
1069.437334
1563.002651
1641.049776
1091.43386
1538.433908
2030.246203
6590.886413
6746.286972
6520.538113
5997.14778
6782.139344
6720.439236
6604.313821
4504.994754
5893.395585
5477.179861
6531.324802
6726.969249
4874.513321
5130.98485
5524.921499
6770.473798
5683.580335
4482.143092
4737.849745
4912.527547
3392.012848
4793.793333
2500.84136
3736.448924
5166.718859
5710.251888
5175.448556
6639.959722
4075.349124
3861.375366
5673.672957
4013.293285
6174.461249
6179.132737
3863.566285
3853.068996
3890.595961
3857.265672
6228.637729
4490.305579
2582.432696
2633.40396
6955.961055
6954.328231
6061.819479
7270.873909
7045.766668
6971.003262
6988.982013
7249.570947
5933.529269
3126.060044
3507.30043
2708.770737
2854.469038
5118.160648
6877.983549
5980.418264
3831.442889
7137.953173
6877.188397
6856.650677
4994.511804
6901.47964
6693.301701
3237.420753
3664.977813
6053.949338
1471.838281
1508.169418
763.4847455
838.6837476
1364.928259
997.1508941
720.8146527
743.6548068
1517.836679
1490.017974
917.4251349
1588.422999
1930.408981
996.2037526
1548.815078
1542.576731
3845.476986
2579.905282
2541.360701
2838.618641
2745.494864
4045.360461
5987.050073
5651.82466
3767.143041
5726.589232
5913.080749
5419.153285
5650.398529
3705.244645
5552.201446
5467.753058
7122.155435
5259.94182
1050.479618
1042.346641
1493.772157
1538.688029
1009.647085
1005.652192
1492.564293
1500.414073
1478.488444
1486.731786
973.5816455
974.8813979
1495.571896
1476.500055
971.6346361
972.4844702
988.8507705
991.0055154
1521.878089
1515.762598
984.8243878
986.9499158
6863.017505
4231.153736
4265.761628
4158.686681
4190.588977
6852.605766
6809.745202
4736.514581
5504.607506
4329.578892
4449.60038
6794.197686
985.7069572
1506.796611
1499.095882
1517.623843
1512.574122
986.4729357
977.9794096
1472.164785
1456.992563
1491.782726
1483.006102
982.2262681
1000.365682
1550.647825
1543.246366
1561.451689
1554.237982
1002.059197
990.1528635
1527.362092
1523.021984
1538.92938
1532.282202
991.8597114
1529.697625
1531.840718
716.2976498
993.1081839
991.7949236
996.6790658
995.6640722
719.6177052
1524.088584
1526.53525
1575.303358
1501.399955
778.2630172
1041.215069
1050.410482
1426.397617
1379.080273
849.9984547
728.2546479
1000.829758
1000.599445
1005.365404
1009.233539
736.5300256
1548.703578
1542.205749
6931.297552
6789.540425
7058.810151
5332.810327
6056.232055
4644.429905
6984.1275
7059.477078
6998.879658
7007.599942
4761.453338
3400.220818
6102.639313
5292.695819
6827.741791
6959.607847
3960.000045
1033.11625
749.7469101
751.0935179
738.2143399
740.2712224
1023.077186
1598.301216
1609.556648
1574.056625
1587.625674
1558.217548
1950.481887
1433.003606
870.472614
949.611183
774.5242219
794.8533305
1068.931461
1400.45876
1894.328628
1523.310281
1451.77805
1016.831097
1572.018151
1561.758776
1602.836853
1565.340924
1013.025555
1544.343635
1553.637945
1512.639073
1522.274727
6597.234215
4824.239188
5072.03774
3931.176808
4457.816297
6675.304029
6829.417039
6667.853735
5408.362555
5990.922331
7069.746546
6426.497236
5136.395558
5353.318253
4378.242352
4755.465906
6596.689647
1642.787454
1643.769093
1628.273209
1631.310995
1104.61398
1115.460378
794.741877
1697.4052
1608.968268
1659.010535
1650.642933
1613.300499
1034.479233
1040.847138
1028.938976
1033.177565
1610.146367
1643.053544
1051.562151
1102.105682
1041.965193
1054.381582
1646.145616
6374.692428
791.713453
795.3746013
1122.562422
6376.636686
8496.774012
8661.282589
8775.180386
8569.402779
6931.355221
1687.899888
7030.307635
5397.480885
5750.007092
1073.61075
1664.363338
1650.983269
7096.172968
7641.819734
7447.227777
6219.844122
6731.850369
8113.854104
7758.825412
5345.50528
7350.490414
6485.38
2039.360103
1651.563271
1126.110426
31.77606408
31.79267931
31.87046952
31.79966701
31.82951658
31.8887819
31.84100371
31.88533594
31.91810353
31.90224406
31.95665688
31.95393649
31.97228975
32.01330207
31.98696527
32.0225747
32.0372661
32.00209226
32.03512887
32.01576454
31.99251321
32.00445138
31.9580958
31.95954827
31.94304464
31.89225455
31.92438954
31.87878351
31.83805549
31.89495904
31.67370009
31.70897716
31.76913854
31.72469489
31.78728951
31.81393772
31.8145388
31.91185601
31.88378058
31.9496989
32.07003269
31.96906433
32.09662189
32.18367066
32.03324272
32.21083259
32.21722483
32.06443674
32.20044299
32.15854857
32.0335524
32.13208909
32.03819315
31.9661802
32.00607737
31.9080253
31.88915457
31.8782964
31.79785889
31.82382261
31.59213864
31.66254562
31.69317394
31.69509315
31.8286738
31.78847247
31.88795389
32.11180605
31.93950931
32.19574599
32.47364258
32.1265047
32.54042345
32.7619833
32.27931681
32.84496526
32.8320059
32.3016374
32.74935843
32.61678567
32.22126592
32.54444539
32.3216698
32.07883329
32.24846703
32.04291265
31.92727342
31.98151103
31.826006
31.7980933
31.53872827
31.66897235
31.65721934
31.73403319
32.01974492
31.85941628
32.15182712
32.69712729
32.20779971
32.92424453
33.82954515
32.6372573
34.06302728
34.79485821
33.12699721
35.09030766
34.94337915
33.0711379
34.56116367
33.94132321
32.80890037
33.69426052
33.05869888
32.43764991
32.87079126
32.40638959
32.10486757
32.27678508
31.9694176
31.84806196
31.5200721
31.75584794
31.683113
31.87849346
32.448091
32.10028624
32.72969458
34.06778838
32.93744321
34.74565417
38.34743797
34.34944134
39.87887803
47.27248899
36.18283627
47.96568314
44.56229875
35.84823188
41.84255725
37.76064005
34.50084157
36.75364571
34.71196159
33.33633228
34.23127804
33.15643644
32.54462488
32.88476606
32.27236918
32.02553575
31.53841009
31.92434272
31.78954876
32.1261853
33.1225539
32.59064432
33.65783212
36.53473644
34.58268044
38.28566301
54.82992329
40.12088916
49.17003821
57.27181157
45.84781708
73.88248913
69.57222212
51.60096914
55.26281534
47.80406646
44.21297533
44.14298955
37.93083398
35.31680885
36.7625948
34.42025274
33.41325176
33.89396793
32.77884923
32.37688906
31.59134188
32.14493545
31.97068502
32.43647611
33.90463717
33.3060956
34.71156005
39.18804151
37.2440533
40.29163992
43.66471177
42.34071219
68.87051807
80.00737544
74.95988842
117.8945584
80.04742583
65.36844635
56.42332874
42.75377939
38.97068322
40.4714895
36.21116718
34.82016948
35.31253277
33.47167299
32.93366978
31.67185219
32.39490107
32.20706121
32.77035621
34.63004644
34.09353625
35.63704235
41.06037549
39.72410778
43.29538256
47.6200669
46.82703232
83.57012585
100.3709275
98.78419381
193.0229672
114.1675675
101.9229553
68.46700781
47.94685112
44.00696555
44.51297408
38.17988885
36.6668812
36.87651761
34.25193835
33.66079695
31.76963924
32.64796701
32.45874052
33.09541301
35.25854955
34.79613015
36.40339769
42.40806183
41.42052397
45.17937673
50.03596716
49.45392514
91.00155745
121.3339624
117.6543453
216.8333392
132.5984915
127.7204716
76.21682
52.09663223
49.04187072
47.85561122
39.96820438
38.6288198
38.31268185
34.99255372
34.43508897
31.87623183
32.89289111
32.71149289
33.40120704
35.80930685
35.4026721
37.06377663
43.58563492
42.6933912
46.72783133
52.21481153
51.54705297
102.25847
139.2906215
135.817977
207.8378153
135.9172171
135.9229066