/*--------------------------------*- C++ -*----------------------------------*\
| =========                 |                                                 |
| \\      /  F ield         | OpenFOAM: The Open Source CFD Toolbox           |
|  \\    /   O peration     | Version:  v1912                                 |
|   \\  /    A nd           | Website:  www.openfoam.com                      |
|    \\/     M anipulation  |                                                 |
\*---------------------------------------------------------------------------*/
FoamFile
{
    version     2.0;
    format      ascii;
    class       surfaceScalarField;
    location    "0.24";
    object      phi;
}
// * * * * * * * * * * * * * * * * * * * * * * * * * * * * * * * * * * * * * //

dimensions      [0 3 -1 0 0 0 0];
oriented        oriented;


internalField   nonuniform List<scalar> 
25162
(
0.000438439088
0.9162115609
0.0005505434139
0.9165878957
0.0006625465361
0.9165379969
0.0003299845136
0.9165428043
0.0004397577288
0.4583359174
0.0003440670761
0.4582957313
0.0004371405216
-0.000432871826
-0.0005555769904
0.4582647985
0.0006407784757
-0.0007253811862
0.4582071255
0.0008532556896
-0.000994212596
0.4581758639
0.001148348659
-0.001323730365
0.4581467475
0.001511982838
-0.001702277013
0.4581481415
0.001889135501
-0.002069357712
0.4581867489
0.00221410877
-0.002323195597
0.4582708768
0.002385818805
-0.002398042406
0.4583728838
0.00236015865
-0.002276585659
0.4584601751
0.002146410572
-0.00199329691
0.4585034301
0.00182486683
-0.00163952157
0.4585089387
0.00146558289
-0.001293930091
0.4585081321
0.001100798021
-0.001007503255
0.4584747904
0.0008827128185
-0.0007275252632
0.4584753454
0.00060217987
-0.001569904454
0.9187387966
3.329755273e-05
-0.0005521896443
-0.0009877447129
0.9187678403
4.002693696e-05
0.9158222284
0.9138400269
0.001203629457
0.9150079315
0.001924560862
0.9158669643
0.002237357198
0.9162252006
0.00070866886
0.9169595917
0.001111900898
0.4580146565
0.0008611922567
-0.4581671799
-0.4581306481
-0.001075462251
0.4578607432
0.00134536722
-0.4579563907
-0.001680618336
0.4575511953
0.000980004563
0.00110580921
-0.2289018738
-0.001195453725
0.2287954642
0.001301863384
-0.001757213308
-0.2288223276
0.2286802044
0.001899336496
-0.00247527688
-0.2287547129
0.2285725448
0.002657445056
-0.003316980952
-0.228741306
0.2285443546
0.003513932294
-0.004124473428
-0.2288224699
0.2287112746
0.004235710512
-0.004007546353
-0.2290129396
0.2287971537
0.004223265576
-0.004876619254
-0.2292354746
0.2292095362
0.004902557662
-0.004619335143
-0.2293839116
0.2294893698
0.004513876911
-0.004011144852
-0.2294688795
0.2296519285
0.003828095838
-0.003240924589
-0.2294789408
0.2296873487
0.003032516742
-0.002482496472
-0.2294350172
0.2296221796
0.002295334126
-0.4589538103
-0.003541636016
0.4604824725
0.002012973796
-0.0006236178036
0.4610644371
-0.001128197659
-0.4593126216
-0.001285519012
0.9184887743
0.0001348108167
0.001400730459
-0.0008038650022
0.9182861863
0.0004372773009
0.9145810861
0.9142773042
0.001515530631
0.9134924008
0.004082855788
0.9132996391
0.00696575435
0.913342302
0.002945060812
0.9145798288
0.006400456452
-0.4579087634
0.4576781784
0.003175645758
-0.4575944116
-0.003237303136
0.4581407943
0.002690920392
-0.4570000115
-0.002901292977
0.4566105481
0.001592985413
0.001697770978
-0.2282768142
-0.001988478147
0.2280513346
0.00221395775
-0.2279729379
-0.003023492968
0.2276589623
0.003337468576
-0.2277747329
-0.003492980253
0.2321525829
-0.0008848852598
-0.2362961471
0.01581652649
0.2403305716
-0.01985292387
-0.2347986199
0.02855837109
0.2365417189
-0.03030347653
-0.2273976053
0.0321704987
0.2268948235
-0.03166852784
-0.2210830798
0.02688075506
0.2184182772
-0.02421529455
-0.2226579082
0.01305170287
0.217977621
-0.008370301367
-0.2305164633
-0.006590434572
0.2299295873
0.00717715812
-0.2305853189
-0.005976099477
0.2309839302
0.005577488161
-0.004164248673
-0.2304757861
0.2312075011
0.003432533755
-0.4632412963
-0.0009001552798
0.4622501455
0.001891306043
-0.4602623161
-0.001877325097
0.4603819832
0.001757658071
0.0006903294242
0.9205898791
-0.001572498718
-0.001218935505
0.001909860992
0.9170666547
0.0008827695159
0.9156081775
0.9151600738
0.0004885988082
0.913003802
0.001104330853
0.9126839071
0.002382757977
0.9120638749
0.00328441619
0.9114529285
0.002225242108
-0.4568558521
0.4563571507
0.003783117564
-0.4595688521
-0.005087196357
0.4563977195
0.008258328908
-0.457903597
-0.009674669618
0.4592603142
0.002476523804
0.005841428639
-0.2272238783
-0.002581943437
0.226950386
0.002855435678
-0.228976252
-0.002253440977
0.234470652
-0.003241913408
-0.2477721627
0.01853887655
0.2520337939
-0.0228050951
-0.2498885894
0.03217858473
0.2518166846
-0.03411264683
-0.239811742
0.03686119165
0.2399702442
-0.03702478411
-0.2254322493
0.03637266953
0.2249950098
-0.0359380596
-0.2123946323
0.03393723955
0.2113410535
-0.03288317044
-0.2062420524
0.02751912623
0.2035268731
-0.02480096089
-0.213762297
0.0135810921
0.2091234557
-0.008939234593
-0.2348426712
-0.001947455235
0.2371450306
-0.0003544542027
-0.004601076948
-0.2322811453
0.2323813109
0.004500911304
-0.4624699435
-0.006837663489
0.4639402279
0.005367379045
-0.4612682544
-0.00393571273
0.462440554
0.002763413093
0.003595594312
0.9210153926
-0.002120579344
-0.001900528402
0.002412075709
0.9182501733
0.00110511843
0.9169151348
0.9162651922
4.76048585e-05
0.9129561972
0.0001829211211
0.9125485908
0.0005437975747
0.9117029984
0.001290591689
0.9102678542
0.0004382801669
-0.4560191618
0.4551352686
0.002174484924
-0.4548392467
-0.002701963408
0.4540753241
0.00346588607
-0.4529555591
-0.004506552263
0.4519547083
0.002903093586
0.002604309519
-0.227355013
-0.004885829034
0.2259708572
0.006269608523
-0.2494115908
0.002596883594
0.2552588415
-0.008449316241
-0.2604769383
0.02005311866
0.2617414643
-0.02132624227
-0.2525793556
0.02056071562
0.2510008985
-0.01899096396
-0.2367671907
0.01205622212
0.2343303688
-0.009625628554
-0.2239204118
0.004811266171
0.2236585876
-0.004552578359
-0.2120596836
0.007543766971
0.2139426725
-0.009426630483
-0.2003338935
0.01508643157
0.201215773
-0.01596455151
-0.2102801933
0.02623763251
0.202557601
-0.0185011114
-0.2164979923
0.005863073165
0.2127156532
-0.002074630115
-0.006487108856
-0.234088574
0.2347657124
0.005809970419
-0.4658744907
-0.007851960376
0.4677516164
0.005974834643
-0.4635732153
-0.004582498566
0.464749065
0.003406648852
0.004303522842
0.9233605021
-0.003680295881
-0.002968336454
0.002344160576
0.9202095356
0.001052084529
0.9182072109
0.9173172767
-0.0003142961302
0.9132704933
-0.0004975421733
0.9127318369
-0.0003712021383
0.9115766584
0.00010452123
0.9097827907
9.340140172e-06
-0.4542044135
0.4538287336
0.0004802011806
-0.4534359998
-0.001525734574
0.4525522832
0.002409451224
-0.4508993308
-0.003123113359
0.4496609044
0.002170095005
0.002191444743
-0.2345087886
-0.0001312909853
0.2370905046
-0.002454245989
-0.2582104971
0.008197531345
0.2591599423
-0.009159449625
-0.260624801
0.006160424102
0.257186265
-0.002737463123
-0.2405527541
-0.01058106237
0.2395602966
0.01156390069
-0.2225189226
-0.02919112075
0.2181503868
0.03355697546
-0.2228941856
-0.04511965888
0.222556215
0.0454571233
-0.2266720119
-0.03296757593
0.2315488234
0.02809145695
-0.2159132864
-0.006461297585
0.2183041923
0.004077533781
-0.1984163139
0.001399323807
0.1998248446
-0.002795322757
-0.2055312325
0.00310376396
0.2045697243
-0.002131689805
-0.003727813447
-0.2336734807
0.2321498139
0.005252027206
-0.4694472978
-0.007898966537
0.4711616196
0.006184644773
-0.4655248352
-0.004926858772
0.4662388965
0.004212797467
0.00342678159
0.9260234098
-0.002903791026
-0.003185898276
0.00182686779
0.9218094494
0.0007420995329
0.9192919791
0.9180593763
-0.0008376446449
0.914108138
-0.001517211071
0.9134114033
-0.001989289501
0.9120487368
-0.0004764743885
0.9095940355
-0.001324059909
-0.4536779692
0.4533424524
-0.0001409575316
-0.4514062894
-0.0001343826731
0.4509646652
0.0005760068987
-0.449083394
-0.001658962347
0.4486712894
0.001089434834
0.0009810699727
-0.2412785485
0.001386958867
0.2421683444
-0.002286339276
-0.2612554996
0.00268229203
0.2571323975
0.00142496321
-0.2486980411
-0.006240795581
0.2458632658
0.009061752297
-0.2194602019
-0.02197286385
0.2124697374
0.02895846928
-0.2036310545
-0.05156325489
0.1030000464
0.09705461329
0.02540935883
0.02973029093
-0.03642329407
-0.1086044387
0.1080398206
0.03698791219
-0.02950243157
-0.2531512339
0.05555236297
-0.02983554342
0.1281106433
0.1288262026
-0.03568774868
-0.2320047933
0.2385329113
0.02916527543
-0.2077763682
-0.01554149365
0.212627587
0.01070316745
-0.20603197
-0.001960304154
0.2067109228
0.001302454525
-0.001899255414
-0.2261922892
0.2252942239
0.002805490352
-0.4728566266
-0.006396927815
0.4739728913
0.005280663152
-0.467364696
-0.003938180645
0.468438196
0.002864680597
0.001679037429
0.9278172439
-0.001552653625
-0.001920217918
0.0006927139402
0.9227957729
0.00021421256
0.9197704805
0.9182735888
-0.001400450675
0.9155085886
-0.00272875398
0.9147397066
-0.003826678349
0.9131466612
-0.002048830598
0.9105613395
-0.002745151751
-0.4533491619
0.4533812041
-0.00208087273
-0.450764899
0.00216185662
0.4506762458
-0.002073203376
-0.4477274978
0.001896056404
0.4479959903
-0.0008048358415
-0.001363235523
-0.2421696225
-0.0001152017341
0.2414340072
0.0008395176669
-0.2530847532
-0.004448371475
0.2516329082
0.00588014471
-0.237515913
-0.01134415002
0.2354686446
0.01337503664
-0.200273917
-0.01941036414
0.1984039502
0.02127833053
-0.08737371998
-0.0134995997
0.08703573392
0.01383758576
-0.03573903316
-0.1430204272
0.1460846537
0.03267480666
-0.03886404974
-0.2587419888
0.2642142618
0.0333967959
-0.2227277368
-0.02117005901
0.2259636785
0.01795406254
-0.2114110749
-0.01011506043
0.2134963728
0.00805222179
-0.001340839313
-0.2253027932
0.2254567499
0.00120496114
-0.4753903946
-0.003277884776
0.4764961655
0.002172113854
-0.469256304
-0.001421759682
0.4698947785
0.0007832852069
-0.0009975082071
0.9284362391
0.0005548398475
-0.0001763268619
-0.0009406417842
0.9227389064
-0.0005375769742
0.9193674157
0.9177360118
-0.001968254907
0.9174768436
-0.003857924319
0.916629376
-0.005808581426
0.9150973183
-0.003445473218
0.9123433811
-0.004145149795
-0.4536878976
0.4539848015
-0.003742377151
-0.4508142447
0.004083506923
0.4511374115
-0.004406673734
-0.4481593659
0.00471926985
0.4486586704
-0.002477598644
-0.002746845462
-0.2399557696
0.002244927133
0.239248312
-0.001563651251
-0.246638274
-0.001941620157
0.2451247941
0.003413259317
-0.2303306469
-0.007703849875
0.2291939915
0.008809741173
-0.1974616685
-0.01007536992
0.1980771367
0.009458224967
-0.09096200015
-0.002421561339
0.09173423903
0.001649322457
-0.0157600423
-0.1591668938
0.1595842831
0.01534265293
-0.02306448568
-0.2760617373
0.278015243
0.02111586625
-0.235128053
-0.01471103751
0.237368377
0.01250507823
-0.2194365042
-0.006201733679
0.221213997
0.004467675995
-0.0006840612671
-0.2274891255
0.228157495
4.016650899e-05
-0.477729754
0.0009922305557
0.4785997563
-0.001862232828
-0.4701415645
0.002192212035
0.4701859854
-0.002236633002
-0.004182356786
0.9273446203
0.002974822523
0.00229915301
-0.002901188061
0.9214577377
-0.001491956157
0.9179581838
0.9162440557
-0.002498913662
0.9199757572
-0.005113900884
0.9192443633
-0.007679390385
0.9176628078
-0.004843473152
0.9150594762
-0.005552012282
-0.4545621525
0.4551364367
-0.005417757358
-0.4515978958
0.006076796951
0.4523401378
-0.006819038941
-0.4493288316
0.007569587007
0.450359565
-0.004078995732
-0.004533263718
-0.2371889917
0.00397376447
0.2365737208
-0.003400272296
-0.2410784544
0.0005303183769
0.2398764774
0.0006068044695
-0.2267710428
-0.003539610668
0.2261684457
0.004095666998
-0.2008881642
-0.003636728727
0.2019444502
0.002578965242
-0.09591354649
0.0008888390833
0.09638266696
-0.000657432336
-0.0007005271937
0.003222491626
-0.1560346056
0.1549086788
-0.00209656478
-0.00395897573
-0.2776319692
0.2760715519
0.00552673591
-0.2410564627
-0.006318532609
0.2417302184
0.005691328602
-0.2259836714
-0.002488809709
0.2272654113
0.001263258257
0.001856246789
-0.2308366039
0.2315695176
-0.002558908427
-0.4783550388
0.006520764642
0.4775230008
-0.005688726711
-0.4697862921
0.005255907278
0.469838117
-0.005307732245
-0.007610677349
0.924515968
0.005625432782
0.004813896934
-0.004980624678
0.918827685
-0.002502883967
0.9154804431
0.9137411717
-0.003102762251
0.9230785195
-0.006210127617
0.9223517286
-0.009489870628
0.9209425508
-0.00618256373
0.9185896905
-0.006837521228
-0.4559684872
0.4567974627
-0.007011539196
-0.4532053241
0.008010691832
0.4541802843
-0.008985652076
-0.4517395384
0.01011704306
0.4533483231
-0.005746739694
-0.006001092571
-0.2348476977
0.005489737542
0.2342990122
-0.00500026208
-0.236587112
0.00257825287
0.2355759789
-0.001655583152
-0.2248157689
-0.0004588713929
0.2244843614
0.0007290022738
-0.2052622123
0.000419945593
0.2063964125
-0.001554917086
-0.09915878896
0.002622356084
0.0994881608
-0.001460945134
-0.001490782794
0.01312608826
-0.1454330913
0.1439742273
-0.01166722425
0.009220903428
-0.2684751753
0.26524565
-0.005975117988
-0.2417172049
0.0005878207869
0.2424136401
-0.001225665925
-0.2303777605
0.002685561178
0.2312093928
-0.003447531025
0.005614368517
-0.2339571125
0.234456481
-0.006080197372
-0.4762379318
0.01161108842
0.4745661652
-0.009939321872
-0.4696845875
0.008470965174
0.4683652376
-0.007151615297
-0.01073963904
0.9202377336
0.007803414893
0.007214458484
-0.00695673985
0.9150447859
-0.003418655327
0.9119423586
0.9103225164
-0.003643929824
0.9267224493
-0.007329389834
0.9260371887
-0.01118759807
0.9248007591
-0.007369195499
0.9225518186
-0.007780530606
-0.4578532853
0.4588802648
-0.008396174992
-0.4553958734
0.009585713451
0.456686156
-0.01087599604
-0.454902
0.01229856565
0.4563860671
-0.006893387637
-0.006923983591
-0.232688805
0.00665890314
0.2321605768
-0.006209515563
-0.232730073
0.004031495926
0.2318300833
-0.00324429739
-0.2237602313
0.001601197313
0.2235897329
-0.001505483553
-0.2099249456
0.003149870959
0.2111667226
-0.004391753395
-0.1016441103
0.004068749707
0.1019575684
-0.002171138491
-0.00221106929
0.01631869485
-0.1342343944
0.1328583465
-0.0149426469
0.0153385601
-0.2561397848
0.2532963096
-0.01246100814
-0.2410430514
0.008540254818
0.2396091353
-0.0070251106
-0.2328627613
0.006660519899
0.2331143914
-0.006838313374
0.008862460961
-0.235476638
0.2355684881
-0.008924127094
-0.472583365
0.01562476744
0.4703268554
-0.01336825782
-0.4669390926
0.01140596181
0.4652438572
-0.009710726352
-0.01344689438
0.9164438449
0.00890787758
0.008332905623
-0.008643368518
0.91024126
-0.004203210807
0.9075022009
0.9061193056
-0.007816112927
0.9345385623
-0.01582835215
0.9340494279
-0.02398127226
0.9329536792
-0.008575236799
0.9312092973
-0.0240635142
-0.4601386663
0.461392027
-0.00982859751
-0.4580311035
0.01120947126
0.4595768035
-0.01275517119
-0.4580149152
0.01432546849
0.4588920403
-0.007645302786
-0.007631414729
-0.2304344155
0.007424658884
0.229910986
-0.00700781896
-0.2291888016
0.004690296267
0.2282732247
-0.003912095421
-0.223254972
0.002417381251
0.2233258619
-0.002574807933
-0.2150687516
0.004693543352
0.2163971392
-0.002997726134
-0.003024204897
-0.05232448272
0.002667118146
0.0524248194
-0.002767454829
-0.05823562676
0.006048739738
0.05777713748
-0.01176882711
0.006178576643
0.01443607454
-0.124849621
0.2460505893
-0.02479729591
0.01398156744
-0.1248213143
-0.2464970885
0.01618015232
0.2440830612
-0.01370829482
-0.2380874428
0.01122956777
0.237891763
-0.01092992012
-0.2341787514
0.01139109974
0.2344706394
-0.01159233271
0.01152472477
-0.2354398235
0.2350380929
-0.01110235531
-0.467742336
0.01813453694
0.4651649558
-0.0155571567
-0.4634820442
0.01351097233
0.4616063677
-0.01163529567
-0.01550385929
0.9113816448
0.01052529997
0.01004075947
-0.009969674423
0.9047070752
-0.004897862263
0.9024303888
0.9012214434
-0.004307245282
0.9388458076
-0.008731401191
0.9384735838
-0.01339623938
0.9376185174
-0.009117493588
0.9362572891
-0.009326737565
-0.4646891576
0.4660127877
-0.01044112362
-0.462916607
0.01191283671
0.4644992591
-0.01349548875
-0.4604316019
0.01521316337
0.461555827
-0.008110030574
-0.008309273826
-0.2279960811
0.007611968848
0.2273442747
-0.007070278389
-0.2257496362
0.004852322295
0.2248813933
-0.004127103212
-0.223286912
0.00288524245
0.2232808765
-0.00296428106
-0.2207439536
0.005149592199
0.2219918098
-0.003205153453
-0.003192294932
-0.0547019226
0.005358549905
0.109780687
-0.0546899945
-0.002877847843
-0.002869472021
-0.1126077882
0.007960767279
0.1124317884
-0.015515809
0.007731041556
0.02402538806
-0.2389249861
0.2369197465
-0.02201704761
-0.2398895885
0.01361677333
0.2394504228
-0.0130883174
-0.2382516964
0.01301386123
0.2388965236
-0.01353751241
-0.2351106368
0.01344155797
0.2353555169
-0.01360638432
0.01237806814
-0.2334763425
0.2327277284
-0.0116265981
-0.4628461683
0.01899948162
0.4607458075
-0.01689912074
-0.4597203171
0.0148913851
0.4575976973
-0.01276876522
-0.01512627308
0.9054764442
0.01045590098
0.01057557277
-0.01078188123
0.9003626834
-0.005277354986
0.8969258626
0.8959440884
-0.004498746166
0.9433445538
-0.00911129124
0.9430861289
-0.01395383782
0.942461064
-0.009506951119
0.9414540946
-0.009643692223
-0.4674309806
0.4688332081
-0.01090917868
-0.4661000485
0.01242384836
0.467706975
-0.01403077478
-0.4633612852
0.01575055762
0.4658529438
-0.009052776408
-0.009213792139
-0.2259951687
0.009710045239
0.2258924235
-0.009698604125
-0.2224415735
0.008660377
0.2217704475
-0.008120825549
-0.2226298933
0.006581158798
0.2221900311
-0.006234690015
-0.2247623968
0.005996153695
0.2249406388
-0.006192811264
-0.1127063787
0.008914760536
0.2255466902
-0.009051483164
-0.1127035889
-0.2268474308
0.01583567386
0.2273700171
-0.01635826017
-0.234371234
0.01679990251
0.2345048998
-0.01689266856
-0.2389262737
0.01701147432
0.2391183406
-0.01708415799
-0.2384836225
0.01732381573
0.2386373005
-0.01733841146
-0.2340666161
0.01675240225
0.2338873786
-0.01650479831
0.01371390057
-0.2316883564
0.2292278588
-0.0112534031
-0.4588666347
0.02049399354
0.4553504355
-0.01697779433
-0.4554734181
0.01513718317
0.4531116816
-0.01277544659
-0.0155217031
0.8997331656
0.01070118387
0.01056379787
-0.01085879714
0.8956997774
-0.005497129153
0.8915641946
0.8904469593
-0.00458153274
0.9479260865
-0.009265516765
0.947770113
-0.01415222316
0.9473477704
-0.009653602818
0.9466563962
-0.009700921876
-0.4702451442
0.4716561276
-0.01106458619
-0.4692994242
0.01256312157
0.470869767
-0.01413346436
-0.4683382701
0.01579517478
0.4701152104
-0.008813793124
-0.008758251903
-0.227178427
0.01152245114
0.228239572
-0.01263799984
-0.2207618581
0.01470008126
0.2209359683
-0.01497977682
-0.2207085927
0.01489001961
0.2203716486
-0.01464703451
-0.2243270505
0.0136862034
0.2239905838
-0.01339501903
-0.2243361783
0.01318123723
0.2233172753
-0.01216624146
-0.2303066107
0.01617611289
0.2313056407
-0.0171474582
-0.2363423613
0.01968225905
0.2370739435
-0.0203363951
-0.2400525666
0.02142947173
0.2402289832
-0.02148492749
-0.2383210181
0.02065815233
0.2378124325
-0.02003742009
-0.2314766972
0.01713513271
0.2302085649
-0.01582788616
0.01290767184
-0.2270060688
0.2263229557
-0.01222455876
-0.4542722703
0.02052070064
0.4512696663
-0.01751809664
-0.4499592279
0.01381473724
0.4481002178
-0.01195572719
-0.01462704785
0.8926236684
0.0111133679
0.01062317716
-0.008417561801
0.8894902914
-0.005532656888
0.8886792897
0.8849143024
-0.004567482191
0.9524935687
-0.009222427983
0.9524250588
-0.01404580472
0.9521711472
-0.009590337358
0.9517422161
-0.009541287308
-0.4730334244
0.4744032033
-0.01096011634
-0.4724009417
0.01239818532
0.4738895196
-0.01388676322
-0.4718089924
0.01544109637
0.4734302341
-0.008570833163
-0.00849150484
-0.2335345225
0.00945593731
0.235553272
-0.01148144159
-0.2235983942
0.01792201447
0.2252794222
-0.01966564065
-0.2207361107
0.02349519376
0.2214915655
-0.02432365603
-0.2235628772
0.02577661222
0.2237915585
-0.02605010014
-0.2187470166
0.0258411238
0.2168572615
-0.0239534529
-0.2335042046
0.02800810181
0.2338994927
-0.02836185127
-0.238389186
0.02882128219
0.238355064
-0.02870693267
-0.239404928
0.02708993626
0.2385255935
-0.02611588483
-0.2345788314
0.02193009009
0.2328704518
-0.02015867135
-0.2255388983
0.01419638269
0.224887795
-0.01354500516
0.01185422773
-0.2244953566
0.223937623
-0.01129649415
-0.4472979648
0.01923055808
0.4453295534
-0.01726214673
-0.44629499
0.01538308311
0.4444835791
-0.01357167222
-0.01366082595
0.8847323151
0.01163629191
0.009915887327
-0.007937840304
0.8837673058
-0.005127602762
0.8858690522
0.8797866996
-0.004474530446
0.9569680992
-0.009019497724
0.9569700261
-0.01369402368
0.9568456731
-0.009347779424
0.9566185581
-0.009222586248
-0.475721859
0.4770210071
-0.01064692758
-0.4753234136
0.01199676106
0.4767035265
-0.01337687395
-0.4749716621
0.01479738628
0.4764301812
-0.008182354832
-0.008073550541
-0.2371495045
0.008939395293
0.237533578
-0.009323468753
-0.2326081189
0.01182139398
0.2356649095
-0.01488925997
-0.2260007595
0.02302470135
0.2282142203
-0.02527373575
-0.2260241316
0.03051513023
0.2272912815
-0.03180993895
-0.2118486464
0.03181784591
0.2108913132
-0.0308602616
-0.2339605117
0.03470941576
0.2336330252
-0.03435007807
-0.2363880693
0.03189142707
0.2351393477
-0.03059103202
-0.2338708289
0.02527727529
0.2317114699
-0.02307375129
-0.2259883955
0.01548070638
0.2242240291
-0.01371158851
-0.2234023551
0.0124645503
0.2229709537
-0.0120331489
0.01071289791
-0.2224618318
0.2220146003
-0.01026566646
-0.4435110098
0.01771158471
0.4418353904
-0.01603596534
-0.4428112139
0.01440006752
0.4411992086
-0.01278806222
-0.0162881641
0.8788769901
0.01092692419
0.01121656487
-0.01070384066
0.8781829823
-0.002501784364
0.8776669959
0.8772849153
-0.004319950278
0.9612880495
-0.008692537336
0.9613426131
-0.01315559321
0.961308729
-0.008968952914
0.9612228022
-0.008790884328
-0.4782609815
0.4794743734
-0.01018234483
-0.4780215337
0.01142980671
0.4792813967
-0.01268966971
-0.4778053506
0.01396887799
0.4790994405
-0.007695382991
-0.007567584894
-0.2386011804
0.008355277503
0.2389306712
-0.008684768365
-0.2378231861
0.009668100876
0.238147074
-0.009991988822
-0.2362481854
0.01093888446
0.2368166718
-0.0115081106
-0.2322855094
0.01777625204
0.2341958564
-0.01969230201
-0.2108762403
0.0213540692
0.2115772407
-0.02205448501
-0.2319114788
0.0239297655
0.2311929004
-0.02320096146
-0.2301033142
0.01911626989
0.2281898071
-0.01719347483
-0.2251348451
0.01312863239
0.2249355549
-0.01292934215
-0.223239023
0.01219597475
0.2229559511
-0.01191290287
-0.2218327246
0.01097673802
0.221498373
-0.01064238651
0.009596807627
-0.2208284155
0.2204639089
-0.00923230104
-0.4402934002
0.01610236478
0.4388750929
-0.01468405746
-0.4397235528
0.013271358
0.4383062205
-0.01185402571
-0.01523408532
0.8735479026
0.01011428449
0.01044888829
-0.0100597666
0.8730086636
-0.004996108554
0.8726033379
0.8722888067
-0.004120844981
0.9654088945
-0.008277551179
0.9654993194
-0.01248908294
0.9655202608
-0.008499332058
0.9655213732
-0.008288321924
-0.4806245389
0.4817448212
-0.009619614382
-0.4804775797
0.01075998293
0.4816158966
-0.01189829981
-0.4803147934
0.01303880411
0.4814529781
-0.0071497743
-0.007027214496
-0.2398435808
0.00772701411
0.2401251367
-0.008008569954
-0.2390272362
0.008832160615
0.2392929908
-0.009097915178
-0.2376344939
0.009861189629
0.2378778653
-0.01010456103
-0.2358670801
0.01078523508
0.2360005608
-0.01091871588
-0.213494348
0.0102864539
0.2139743341
-0.01076644
-0.2303396606
0.011811136
0.2303727122
-0.01184418754
-0.2272571121
0.0117635812
0.2271818238
-0.01168829289
-0.2244099696
0.01133688902
0.2242547077
-0.01118162716
-0.2222100888
0.01061429933
0.2219905686
-0.01039477914
-0.2206064035
0.009661596415
0.2203412332
-0.009396426217
0.008553948155
-0.2195001355
0.2191991791
-0.008252991745
-0.4375692002
0.01452425073
0.4363657826
-0.01332083315
-0.4370143382
0.0121029698
0.4357735028
-0.01086213448
-0.01407497738
0.8687445343
0.009266506559
0.00961183914
-0.009335167559
0.8682688538
-0.004647890956
0.8679160613
0.8676409158
-0.003893295556
0.96930219
-0.007807759053
0.9694137829
-0.0117464451
0.9694589468
-0.007975029918
0.9694996077
-0.007749649691
-0.4828009672
0.4838295411
-0.009003603878
-0.4826928239
0.01003929947
0.4837154037
-0.01106187922
-0.4825182186
0.01207432684
0.4835148899
-0.006588283698
-0.006482714429
-0.2409051726
0.007096209586
0.2411460284
-0.007337065426
-0.2400178016
0.008029757452
0.2402376533
-0.008249609151
-0.2385333734
0.008873127773
0.2387299766
-0.00906973094
-0.2362830712
0.00958429085
0.2363441054
-0.009645325013
-0.2154765497
0.009117009985
0.2159853251
-0.009625785437
-0.2304301757
0.01031651446
0.2304375238
-0.01032386257
-0.2269684712
0.01022738128
0.2269007213
-0.01015963137
-0.2238356811
0.009864524049
0.2237091726
-0.009738015621
-0.2214021141
0.009281296595
0.2212260047
-0.009105187203
-0.2196259518
0.008514758144
0.2194109241
-0.008299730454
0.007609776165
-0.2184073913
0.2181581877
-0.007360572553
-0.4352533186
0.01304380317
0.4342245357
-0.01201502031
-0.4346449889
0.01096246182
0.4335592176
-0.009876690556
-0.01289041354
0.8644381431
0.008428557322
0.008768247345
-0.008581102321
0.8639595426
-0.004281611759
0.8636165707
0.863359304
-0.003650243398
0.9729524334
-0.007309367203
0.9730729067
-0.01096828793
0.9731178675
-0.00742748608
0.9731600196
-0.00720121373
-0.4847926351
0.4857321196
-0.008366970589
-0.4846809741
0.009303603198
0.4855968317
-0.01021946074
-0.4844472969
0.01111702543
0.4853198576
-0.006038923336
-0.005950662797
-0.2418141581
0.006486509129
0.2420209168
-0.006693267839
-0.2408405428
0.007279866611
0.2410244567
-0.007463780487
-0.2392640763
0.007981285422
0.239425541
-0.008142750124
-0.2364466883
0.008531895536
0.2364577529
-0.008542960085
-0.2174936397
0.008129682521
0.2179828089
-0.008618851759
-0.23043305
0.009072202154
0.2304243416
-0.009063493817
-0.2267056106
0.008955612635
0.226642973
-0.008892975022
-0.2233615148
0.008636547751
0.2232548331
-0.008529865974
-0.2207469568
0.008150307024
0.2206016147
-0.008004964893
-0.2188247893
0.007517799694
0.2186468065
-0.007339816872
0.006765076883
-0.2174987424
0.2172893487
-0.006555683196
-0.4332715831
0.01168022891
0.432387894
-0.01079653984
-0.4325722597
0.009883409516
0.4316206919
-0.008931841746
-0.01173097573
0.8605892666
0.007629730225
0.007950122026
-0.007833533968
0.8600621008
-0.003915799733
0.8596988365
0.8594435043
-0.003403335446
0.9763557689
-0.00680566338
0.9764752346
-0.01018922469
0.9765014289
-0.006882557476
0.9765160171
-0.006662664704
-0.4866071137
0.4874628746
-0.007738318427
-0.4864612497
0.008584071679
0.4872812697
-0.009404091748
-0.4861366043
0.01020079579
0.4869020426
-0.005521467507
-0.005444766614
-0.2425959
0.005915696451
0.242774364
-0.006094160449
-0.2415320592
0.006595337682
0.2416879218
-0.006751200215
-0.2398673506
0.007187735119
0.2400017521
-0.007322136602
-0.2364349581
0.007614788932
0.2364115076
-0.007591338481
-0.2193873723
0.007292589863
0.2198308168
-0.007736034366
-0.2303817987
0.008025826178
0.2303630872
-0.008007114687
-0.2264612722
0.007892346904
0.2264026379
-0.0078337126
-0.2229575802
0.007605563459
0.222865234
-0.007513217258
-0.2202013402
0.007189620132
0.2200784943
-0.007066774238
-0.2181569911
0.006656164262
0.2180069029
-0.006506076101
0.006019647167
-0.2167323362
0.2165540619
-0.005841372882
-0.4315664621
0.01045042392
0.4308020191
-0.009685980917
-0.430755269
0.008889649955
0.4299187323
-0.008053113239
-0.0106332327
0.8571524397
0.006887272819
0.007182786815
-0.007118720235
0.8565475884
-0.003564074997
0.8561441913
0.8558794293
-0.003160694321
0.9795164632
-0.006312685905
0.9796272262
-0.009432422814
0.9796211657
-0.006355740393
0.9795870497
-0.006147715026
-0.4882565161
0.4890350913
-0.007134315641
-0.4880555312
0.007898061635
0.4887905858
-0.008633116233
-0.4876211191
0.009342167798
0.4882970245
-0.005045733522
-0.004972339737
-0.243271887
0.005390919569
0.2434268514
-0.005545883954
-0.2421208863
0.005978166655
0.2422547466
-0.006112026948
-0.2403713143
0.006485517122
0.2404842534
-0.006598456199
-0.2363038956
0.00681604863
0.2362576936
-0.00676984657
-0.2210778004
0.006574597711
0.2214644935
-0.006961290794
-0.2302964917
0.007138117073
0.2302714234
-0.007113048836
-0.2262319875
0.006994771442
0.226176772
-0.006939555929
-0.2226053087
0.006733256276
0.2225237977
-0.006651745326
-0.2197368135
0.006370288402
0.219630948
-0.006264422814
-0.2175905138
0.005912095967
0.2174619027
-0.005783484911
0.005365972682
-0.2160774768
0.2159238905
-0.005212386391
-0.4300888169
0.009353273832
0.4294226553
-0.008687112286
-0.4291571135
0.007988785503
0.4284189249
-0.007250596956
-0.009616863778
0.8540817141
0.006210035928
0.006477553395
-0.006451671231
0.8533823958
-0.003234379968
0.8529269
0.8526450493
-0.002928580168
0.9824450434
-0.005842664587
0.9825413106
-0.008715152412
0.9824936536
-0.0058581323
0.9823962201
-0.005666190495
-0.4897548906
0.4904632869
-0.006566528631
-0.4894852073
0.007256993431
0.4901454522
-0.007917238353
-0.4889331098
0.008549861721
0.4895323619
-0.004607959566
-0.004541154261
-0.2438603394
0.004912087041
0.24399592
-0.005047667615
-0.2426288568
0.005424272359
0.2427452689
-0.005540684409
-0.2407958022
0.005863845832
0.2408913311
-0.005959374726
-0.2360955196
0.006118075395
0.2360350632
-0.006057619008
-0.222536148
0.005949848422
0.2228643616
-0.006278062001
-0.2301897472
0.006377532733
0.2301607527
-0.006348538317
-0.2260158663
0.006229282313
0.2259637311
-0.006177147141
-0.2222926954
0.005988556017
0.2222197147
-0.00591557538
-0.2193342252
0.005667006699
0.21924159
-0.005574371539
-0.2171027464
0.005267659856
0.2169910692
-0.005155982719
0.004793363636
-0.2155114955
0.2153778432
-0.004659711253
-0.4287988601
0.008383205251
0.428214103
-0.007798448209
-0.4277457899
0.007182516671
0.4270915469
-0.0065282737
-0.008692820603
0.8513329993
0.005601858178
0.00583967716
-0.00584146067
0.8505310359
-0.00293169364
0.850017133
0.8497133557
-0.002710750899
0.9851557943
-0.005402788778
0.9852333485
-0.008047115873
0.9851379807
-0.005396715241
0.9849676905
-0.005221871054
-0.4911168882
0.491762285