/*--------------------------------*- C++ -*----------------------------------*\
| =========                 |                                                 |
| \\      /  F ield         | OpenFOAM: The Open Source CFD Toolbox           |
|  \\    /   O peration     | Version:  v1912                                 |
|   \\  /    A nd           | Website:  www.openfoam.com                      |
|    \\/     M anipulation  |                                                 |
\*---------------------------------------------------------------------------*/
FoamFile
{
    version     2.0;
    format      ascii;
    class       volScalarField;
    location    "2.36";
    object      p;
}
// * * * * * * * * * * * * * * * * * * * * * * * * * * * * * * * * * * * * * //

dimensions      [0 2 -2 0 0 0 0];


internalField   nonuniform List<scalar> 
12556
(
1022.697006
1020.39111
1015.13966
1005.071755
991.8012911
964.6776665
922.4006761
857.796681
764.8777551
637.6559355
474.3864215
280.2313794
70.41148074
-135.4288861
-319.1846365
-470.3135974
-587.3048698
-673.4525046
-734.3231126
-775.3252409
-808.3115044
-822.6418676
-830.6636556
-834.2795107
1024.138341
1022.394927
1018.245511
1010.171764
996.7084607
972.9967136
934.6909044
881.5331831
795.9676462
674.7739324
513.106392
315.2073148
97.3178998
-119.7800152
-313.9981448
-471.8320346
-591.5216557
-678.25787
-744.9405835
-782.6588428
-814.5213091
-826.6988318
-833.5400663
-836.6063703
1027.601656
1027.082369
1025.502552
1021.799958
1011.242036
995.222341
966.7215348
918.7509875
842.9445872
726.206673
559.8793084
345.3020499
98.39892718
-148.0066108
-359.2122416
-520.316875
-634.744807
-712.4496893
-773.7157332
-803.1535101
-828.6615535
-836.305323
-840.490313
-842.2876871
1032.116535
1033.332937
1035.428966
1037.542601
1033.212843
1028.141357
1015.433759
981.0458093
924.894967
824.0433288
661.8645829
423.3370683
117.0434685
-196.9989563
-446.4442775
-610.875884
-711.7260192
-772.6897411
-817.2214139
-833.560507
-848.4623756
-850.0929294
-850.3850741
-850.3173692
1035.826295
1039.037715
1045.471175
1054.407562
1058.237998
1067.642462
1075.708337
1066.339846
1042.646106
977.6113754
843.4476499
584.3380005
163.0782939
-292.6620629
-605.320879
-761.9357305
-827.1899911
-854.2421796
-872.2837271
-871.028807
-870.9760889
-865.2668306
-860.869904
-858.6075167
1036.755711
1041.963036
1052.773211
1069.333651
1081.09325
1107.683902
1140.25451
1163.14276
1185.588402
1188.163607
1135.868952
903.2388127
236.0308409
-544.6161544
-914.4887654
-998.1710125
-979.7195965
-952.1933001
-933.8508686
-910.6859686
-892.7807352
-878.9555557
-869.5302519
-864.9826411
1032.994194
1039.982415
1054.486143
1077.599799
1099.242462
1140.765413
1197.91738
1253.116421
1326.937196
1414.64568
1538.747414
1610.451456
407.3765533
-1355.662595
-1479.736784
-1320.259691
-1161.521539
-1055.557688
-992.9125038
-946.6530785
-910.2009134
-888.0815235
-874.0119981
-867.3477098
1022.90825
1031.152047
1048.238523
1075.90359
1105.911082
1158.552336
1233.513329
1314.865334
1426.197368
1582.166131
1873.573622
2498.865958
-3358.096409
-2260.905822
-1674.822068
-1334.329152
-1146.333735
-1037.983751
-972.1554925
-918.1531136
-889.6013531
-872.0400039
-863.6749717
1005.254585
1014.070165
1032.305939
1061.961409
1097.997926
1155.826825
1238.274614
1333.749054
1458.205427
1622.449327
1888.854675
2268.255243
-4725.641689
-2763.696404
-1904.112366
-1443.027881
-1199.986963
-1058.970506
-979.8196804
-913.3945694
-881.2612047
-861.7235035
-852.368486
979.3910759
988.0421254
1005.861826
1034.725148
1073.824097
1130.579089
1209.977662
1303.884649
1417.200999
1555.639909
1741.44463
1936.005725
-4199.593361
-2679.566766
-1895.974964
-1443.898818
-1199.051834
-1048.488568
-966.4808609
-894.1812035
-861.7213093
-841.9765575
-832.4896308
945.3595363
953.1757848
969.1466651
994.6571277
1034.09481
1084.392003
1152.884057
1236.710215
1329.841506
1435.722283
1564.401396
1692.636956
-3073.570363
-2210.859778
-1685.959932
-1344.602394
-1143.573246
-1006.411818
-931.7481261
-860.5309039
-830.9352624
-812.7310446
-803.9346297
903.8200854
910.2703237
923.391688
943.2217316
981.7146089
1021.080411
1073.620783
1142.5717
1212.913557
1288.85468
1377.943249
1489.10587
-1959.392588
-1619.967609
-1376.831161
-1181.808534
-1047.226134
-938.3087062
-878.6160187
-814.0563944
-790.1807344
-774.8627394
-767.4173926
855.9630429
860.7194643
870.5348037
884.4368361
917.2662478
945.0765105
978.9739456
1031.521616
1078.303655
1124.443092
1170.762463
1252.639424
-702.3421353
-976.9475767
-1076.982976
-1063.033135
-997.3029616
-928.9494202
-853.4361418
-811.7156487
-759.1558499
-741.7114977
-729.9742604
-724.3043475
803.2308872
806.1983557
812.5147389
820.9418691
846.805092
862.7073735
878.9502675
912.6538826
936.9705001
953.1434516
948.7518141
938.7146042
316.9278234
-377.193159
-676.1520939
-800.2514675
-822.8692515
-804.3568171
-761.7939224
-737.7388629
-699.0361681
-687.9024251
-680.0670639
-676.3467464
747.2169344
748.3500645
750.8478132
753.6733579
773.2103419
776.7818075
776.9822988
790.8303805
793.6267303
783.9607338
738.070611
606.4609886
298.2104239
-131.0367749
-437.2629059
-606.1867754
-672.9990959
-686.2427967
-670.0553572
-662.1218329
-636.3951808
-631.2095024
-627.2354082
-625.4006475
689.4867072
688.9791804
687.9649154
685.7083044
699.3961145
692.9845344
680.6594705
674.7321588
655.7446571
624.9601317
560.5879837
446.8123951
221.9123665
-69.66580594
-318.2594673
-473.7862723
-550.9077191
-580.8416629
-584.1050826
-588.6087607
-574.0119004
-573.9642059
-573.4158132
-573.2273624
631.524322
629.6921053
625.8474026
619.539403
627.7723979
613.8802637
592.271524
572.271452
531.1641965
480.5990595
407.0813047
299.1580403
122.947338
-78.31046507
-258.4768071
-382.5665538
-451.9933386
-490.5382237
-506.355051
-519.6181488
-513.9929429
-518.0435078
-520.2553874
-521.3489756
574.6110958
571.7733446
565.7832477
556.4845498
560.2732514
541.1652366
513.561488
486.695683
432.0363745
366.7248673
286.1841313
189.8840059
52.02288878
-91.41001883
-217.3006204
-309.208976
-370.7742346
-413.7145545
-437.5884296
-456.4065276
-457.6475874
-464.6639767
-468.9632519
-470.9989178
519.7242867
516.1782109
508.6776311
497.3532933
497.8914376
475.6809379
444.8774381
415.5657422
361.3881392
294.2183583
212.8909847
122.9427316
17.31378727
-86.70520665
-176.3151595
-249.7304262
-307.1089899
-350.2720906
-377.9403201
-399.7075261
-405.6514237
-414.6049912
-420.3272364
-423.0593893
467.560693
463.5821255
455.1617186
442.6571368
441.0209145
417.3891225
385.5644533
356.1881828
305.1136192
244.02002
173.9831229
99.53832384
13.83196158
-67.82318761
-141.6603416
-204.9570794
-256.8259172
-297.9610689
-326.5993678
-349.4319808
-358.3137884
-368.3448274
-374.9177616
-378.0545439
418.5736733
414.3986562
405.5701631
392.6048336
389.56199
365.7956712
334.5778235
306.330822
259.5093196
205.6094094
146.1898453
82.70624774
13.11756506
-54.15446046
-115.9957111
-170.4385755
-216.5650182
-254.5342961
-282.5559857
-305.1306397
-315.5898965
-326.0391708
-332.9946451
-336.316872
373.0074987
368.8193151
359.9777242
347.1058992
343.2619653
320.2291671
290.7246893
264.1786156
221.9762441
174.6192194
123.6290421
69.78022624
11.92446317
-44.18251803
-96.37029568
-143.1970032
-183.8333698
-218.1685888
-244.6952578
-266.1937912
-277.2592557
-287.6308244
-294.6135944
-297.9534532
330.9300057
326.862483
318.2899076
305.9018943
301.7202905
279.9806503
252.6582933
228.2695463
190.6283187
149.1241046
105.2192337
59.31973376
10.63566906
-36.62477435
-80.93405859
-121.2377644
-156.8333521
-187.4995613
-211.9891583
-231.9822749
-242.9747138
-252.9240173
-259.6849651
-262.9234022
292.2762193
288.4233927
280.3136084
268.6682524
264.4885838
244.3745963
219.4698765
197.4106562
164.093968
127.8008167
89.92980021
50.64755261
9.37566506
-30.70434879
-68.48749245
-103.1960673
-134.2539157
-161.4133534
-183.596964
-201.871187
-212.3398302
-221.6479687
-228.0228015
-231.0796197
256.8914016
253.3156913
245.7953117
235.0527156
231.1105312
212.7890348
190.3702043
170.6686825
141.3617203
109.7105099
77.02248756
43.33225084
8.192480394
-25.93687495
-58.23507996
-88.12106837
-115.1281795
-139.0169573
-158.8353109
-175.300151
-184.9581959
-193.4982154
-199.3848957
-202.2092332
224.5625866
221.3012921
214.4448858
204.6922089
201.1442502
184.672727
164.7078174
147.3061125
121.6732247
94.16587487
65.97387615
37.07410052
7.103536744
-22.00639905
-49.63168087
-75.3325598
-98.73203168
-119.6125022
-137.1108087
-151.7688716
-160.450294
-168.1592768
-173.5008949
-176.0639681
195.0372595
192.1089327
185.9526381
177.2254487
174.178614
159.5444475
141.9434085
126.737649
104.4540268
80.6566492
56.40144154
31.65653059
6.112002191
-18.69953929
-42.29415617
-64.33546105
-84.51874625
-102.6529016
-117.934031
-130.8416885
-138.4572763
-145.3158809
-150.0878123
-152.3768866
168.0394137
165.4497083
160.0032959
152.302979
149.8272587
136.9764446
121.6196965
108.4865039
89.25392738
68.79333496
48.01542335
26.9160739
5.213846631
-15.86652523
-35.94373019
-54.75853883
-72.06479427
-87.69893487
-100.8908529
-112.1333084
-118.6450279
-124.662005
-128.861499
-130.8747291
143.2842677
141.030637
136.2870508
129.5935832
127.7368228
116.5933486
103.3501752
92.16047186
75.71300419
58.2700031
40.59429787
22.72648153
4.401695414
-13.39947742
-30.37309048
-46.31866093
-61.03762644
-74.39408893
-85.63417132
-95.30764981
-100.7072549
-105.9082645
-109.5462101
-111.288485
120.4867845
118.5616779
114.5038645
108.7854398
107.5808461
98.06143454
86.8110131
77.4240133
63.53517718
48.84024157
33.96070248
18.98670867
3.666450013
-11.21797629
-25.42290173
-38.79351599
-51.16914647
-62.43117886
-71.870163
-80.06809398
-84.36431884
-88.78366515
-91.8787355
-93.35888493
99.36093028
97.75514332
94.36169747
89.57835073
89.06572769
81.07842703
71.7623564
63.99688182
52.47715768
40.3033785
27.96746861
15.61361249
2.998256624
-9.260509734
-20.967874
-32.00580162
-42.24502596
-51.57711965
-59.32719118
-66.15078587
-69.35521794
-73.03263141
-75.60677399
-76.83474711
79.64977943
78.35164037
75.59999298
71.71434459
71.89878062
65.36587128
57.87461136
51.66488352
42.33611318
32.49043737
22.4922054
12.53755246
2.387218854
-7.478635609
-16.90661275
-25.80988851
-34.08904662
-41.66040982
-47.76317159
-53.31605613
-55.45861636
-58.43174196
-60.50770843
-61.49542275
61.01486524
60.02201917
57.89805457
54.86220931
55.87824185
50.67455112
44.80925501
40.22166106
32.92708833
25.25157075
17.42873246
9.697847271
1.823564857
-5.832488958
-13.15324381
-20.07923167
-26.53894219
-32.47660619
-37.00411799
-41.34930587
-42.40085562
-44.71654921
-46.3101572
-47.06108469
43.46102339
42.74640964
41.22895314
39.07087667
40.52357251
36.77611039
32.46940596
29.44200413
24.07743468
18.45151184
12.68299039
7.040321409
1.297709864
-4.288427328
-9.63370338
-14.70277418
-19.44878001
-23.83478133
-26.87659327
-30.03363361
-30.22654713
-31.86669492
-32.99822851
-33.5383822
25.78938131
25.4262699
24.52834089
23.23293327
25.90263631
23.46683134
20.65191143
19.1496486
15.62948266
11.96279601
8.167425802
4.514821744
0.799959999
-2.816697605
-6.28199125
-9.581272803
-12.6893314
-15.59115369
-17.19873571
-19.27328111
-18.02144876
-19.00537268
-19.67064733
-19.93253189
11.88817746
11.60898048
11.18299686
10.56250278
11.63001335
10.42681776
9.068025656
9.184747831
7.434017108
5.660204206
3.783052257
2.075993479
0.3218953799
-1.388373835
-3.037826603
-4.625276151
-6.141536771
-7.591217491
-7.7364656
-8.695312152
-8.555236313
-9.0303491
-9.354243768
-9.591013739
2320.489521
-5101.482398
-3594.962875
1970.998704
-4588.601283
-5125.715052
1719.647186
-3348.864168
-4451.645612
1515.183156
-2137.11299
-3189.459772
1271.237123
-751.223222
-798.654921
-1090.030198
-1995.746625
968.2921995
401.4350062
-702.357708
262.1859734
-384.6051502
-974.7790992
2433.249551
683.1280607
-3200.066948
-1150.437883
-7112.548746
-4899.682948
-4690.125989
-2995.828749
-2463.092031
1783.329416
1949.152368
2218.857675
-6581.139172
-7141.741079
-4316.312908
-3032.871024
-3076.216466
1609.394609
1706.978016
1915.875144
1837.332932
1877.447072
2006.070727
-4686.848853
-5637.615759
-3219.027431
-2534.99591
-2942.98229
1426.004364
1501.031637
1680.180878
1615.797919
1658.174185
1743.128097
-3013.030658
-3715.155726
1224.445177
1268.674276
1474.83448
1396.235308
1459.688698
1558.273221
-1589.332472
-1577.641229
-2182.278373
1004.41332
978.0094823
1234.99294
1123.084702
1154.915605
1319.635828
677.0466589
417.9716106
416.7432285
2901.195724
2451.669874
3286.081552
2982.802322
-7171.76522
-7151.933018
-4773.384546
-6814.198581
-6990.111283
2024.115415
2159.235957
2084.870898
2165.955585
2028.121609
2407.195865
2188.489476
-5696.765208
-6536.221756
-4869.15737
-6399.00265
-5602.869555
-6964.050181
-6442.861544
-4918.649887
1756.426192
1860.359373
1806.409554
1869.710438
1758.200478
2018.620127
1879.075034
-3820.308567
-4621.433665
-3830.340447
-4511.082432
-3747.358398
-5544.963368
-4631.324811
-3990.680162
1564.861115
1652.916589
1590.900557
1656.865625
1569.718822
1751.118014
1661.914091
-2271.587107
-2917.103193
1328.825988
1452.643572
1380.737302
-1538.54127
1458.483325
1334.587535
1562.991324
1465.600544
-1581.33839
-979.416943
-1496.078052
-1536.380475
1034.665073
1141.413412
1102.711887
22.42375434
1147.070197
966.5981488
1325.396139
1159.831503
-51.0025918
1909.577815
2262.045158
2370.259003
2509.638862
2917.639423
3130.73609
-9533.728482
-6482.847059
2126.839548
2182.410593
2401.887352
-3611.305553
-2092.706681
-1855.490337
-2371.532807
-2019.568462
-1981.515171
-2300.050682
-109.5118167
-443.6650713
-832.3354523
2444.478539
2848.514497
2472.355278
2624.466863
4148.806398
3858.426313
-4618.486495
-6698.767952
-4558.371348
-2352.835053
-2698.124461
-2575.82787
-2873.370932
-2246.633619
-3646.188374
-2966.473543
-2726.16264
-1112.093596
-207.8324766
-386.0109457
978.8351325
2198.70834
3208.53227
-4358.116992
-1537.802816
595.7255916
-9598.487932
-6598.869949
-9142.182961
-6124.99437
-9000.519872
-6258.483019
-6837.903903
-6877.33904
-5132.878635
-5197.523152
-3173.3155
-3524.7952
-3306.496188
-3509.279107
-3144.763394
-3974.342519
-3564.994662
-3407.036434
1506.370572
1472.600949
1430.400534
-1596.561841
-1885.075364
-1930.615142
1240.702814
1205.098439
1137.8582
1282.941917
1225.558433
1250.780006
3011.439969
2665.851884
2675.759749
2669.995938
3025.933631
2428.305403
2630.609754
2612.105573
3281.69336
3777.465921
4005.22774
3092.17699
3688.445983
3221.282822
3750.067126
3094.163266
-7273.637321
-7280.928178
2099.726543
2187.435123
2090.008656
2296.799702
2287.57455
2410.160112
2195.597534
2274.129851
2266.255958
-6085.608863
-6139.266067
-6034.998548
-5410.542491
-5624.617752
-5076.367763
-5331.657904
-5982.810427
-6737.389694
-5890.514737
-5971.826813
-5687.300528
-5848.306257
-6699.87718
1814.141592
1806.155398
1953.393511
1943.233513
-4150.873823
-4021.100827
-4208.456815
1617.186124
1611.117072
1706.104258
1700.253175
-3088.266694
-2728.240841
-2635.268188
-2746.509321
-3109.047749
1385.794045
1352.151314
1300.816171
1415.559092
1368.657841
1395.258094
-1163.700684
1399.939958
1389.956448
1516.933579
1511.011311
-1935.717847
-1168.976949
-1221.780743
-1502.023405
1113.658546
1039.893317
954.9274949
980.0208284
525.4063562
247.9900678
1257.09391
-194.9125238
208.6878351
-109.539534
1247.566775
-296.2131549
-145.4218256
176.970723
-8450.02715
-2188.392758
-2356.704223
787.147896
720.5191383
940.5326678
823.76682
842.6647978
999.7155515
308.9573326
-65.28110722
-265.6168605
4900.217436
-2389.442562
-2577.130562
-867.8563171
-1130.398264
-1118.756879
-82.71563439
-336.1233556
-38.74696254
1433.317677
2829.037837
4052.960563
-5763.671788
-2096.512868
368.9981359
-6701.927339
-7710.675365
-7540.984178
-7035.937055
-4874.753674
-5072.627042
-4856.538021
-5915.939502
-5723.054024
-5454.081713
1697.246817
1672.564777
1636.275546
1723.697937
1685.010342
1703.413026
1525.621753
1486.085163
1512.530031
1193.862769
1179.69836
1141.666704
922.8887704
734.4370951
467.4027197
-7225.04824
-7795.466034
-7776.313129
-7072.748179
-5897.183871
-5661.894894
-5980.820827
-5938.547726
-7061.555704
-5869.098658
-6163.945055
-5983.53454
-6378.577921
1798.007087
1778.644264
1737.050815
1766.404972
1785.192789
1777.811857
-4789.56734
-4580.630736
-4439.860221
-4169.688694
-3914.94507
-4206.286909
-5123.042445
-4700.339729
-4985.271345
-4305.01999
-4602.398203
-5061.240412
1607.019436
1576.042214
1538.48853
1624.358255
1588.309135
1613.03383
1641.152911
1656.423781
1668.719475
1583.931766
1608.082583
1588.904361
1731.661789
1738.683829
1759.684592
1672.444521
1685.645196
1677.506371
-2543.451178
-2679.325838
-2349.295695
-1356.460659
-1375.463183
1436.131465
1351.844144
1542.300172
1551.760279
1577.800759
1505.809341
1485.47624
-1721.907332
788.3874036
1015.284686
968.0086041
1127.928214
1081.778201
1088.796133
216.7757514
439.3009779
211.8007678
1095.83998
469.1866345
757.8651433
564.1184375
584.2765956
1292.266913
1198.185095
-8788.888941
-8150.309825
-8392.919643
-3768.170793
-3838.914658
-1989.944264
-2137.774987
-2138.422562
2532.417947
2503.807094
4196.432844
4741.812406
4692.34423
4600.922828
4141.671569
-2772.315984
-2581.299268
-2546.151131
-2579.510281
-2788.342229
-1111.604707
-929.698464
-954.7427023
-931.3565903
-1109.170468
-702.5591542
-880.8817526
-452.8506905
-490.3290774
-653.7003096
-284.1458724
-437.6722758
-352.1486739
-9397.548971
-8111.541452
-7679.872498
-8346.081835
-8203.419621
-7494.10595
-6745.406181
-8157.316244
-7242.032924
-7110.846669
-6734.57375
-6997.644594
-7477.962506
-7299.451461
-5356.771361
-5145.826264
-4939.49399
-5206.059509
-5422.976874
-4923.498092
-5140.724893
-5498.869032
-5390.668482
-5662.715678
-5434.791578
-3319.992793
-3390.445124
-3359.839736
-3278.761083
-3431.333341
-3813.769303
-3700.473517
-3864.604765
-3482.282671
-3646.532434
-3754.516749
-1798.754814
-1784.699964
-1935.931674
1225.096373
1192.356571
1202.903936
1278.013885
1265.271587
1236.066307
2843.72883
2794.682961
2799.732782
2802.067954
2678.792004
2999.334266
2847.606617
2850.212556
2504.98708
2515.666415
2440.25708
2641.818497
2544.19781
2534.751095
3327.597714
3231.264144
3057.051146
3448.625371
3349.058084
-7957.848094
-7815.711768
-7239.122677
-8016.207689
-8226.79236
-7962.676983
-8307.632902
-8403.454276
-8309.545224
-8269.795997
-7265.078976
-8014.986396
-8016.201473
2143.066519
2139.981483
2113.718612
2181.623949
2150.152989
2155.110739
2074.828132
2051.498128
2106.341322
2082.490882
2333.758932
2341.577852
2293.502742
2418.642912
2359.411291
2350.082291
2229.342093
2227.261491
2192.332548
2279.011448
2239.692639
2242.480235
-6386.015868
-6222.341717
-5924.708049
-6317.167277
-6632.632517
-6434.102663
1845.55973
1822.901346
1879.929641
1852.472493
1787.147443
1769.350608
1814.634528
1792.929944
2001.908127
1970.180919
2042.917647
2012.519875
1917.794098
1888.430441
1959.659366
1928.345852
-4139.104801
-4327.278699
-3922.85004
-4086.681363
-4174.47604
-4632.639996
-4848.03246
-4383.805631
-4568.99181
1628.852376
1650.380536
1635.457447
1656.372532
1631.599235
1672.225538
1662.957922
1626.021653
1594.167384
1610.957621
1622.729336
1715.254296
1731.85126
1724.717466
1735.178044
1718.10654
1762.519952
1741.399729
1687.167549
1675.133953
1709.634632
1691.999212
1682.972188
1690.691209
1708.56217
-2787.404756
-2905.823196
-2969.741746
-2776.598781
-3024.885394
-2953.500874
-1118.950848
-1327.208366
-1344.977012
-1121.18434
1428.435874
1362.05965
1527.926687
1544.560487
1535.588664
1492.312336
1513.196194
1523.825061
-1813.797541
1065.20763
1064.841007
1012.074204
635.0848161
558.1124499
1073.825839
317.2272243
454.556229
367.8862154
1280.693676
-343.5208091
69.56863669
268.3588063
28.87613818
1201.958065
-3033.170363
-2216.641823
-1497.472883
-2336.565212
-2393.427098
-1116.218812
-1205.797867
-1684.398842
-2396.120456
-903.7950058
-881.05958
-713.2976164
-2159.941464
-1612.055728
-1586.399826
1412.322459
3286.993737
4504.5168
-7049.933634
-2834.611939
157.8510853
-2112.129993
-1824.642156
-4166.6375
-6892.057189
-7817.137962
-7999.942959
1931.699955
1905.448803
1854.989836
1976.528111
1922.896262
1950.346042
-1582.710901
-1733.275012
-1732.999226
-2253.115313
-1966.208925
-1918.037221
1303.336404
1275.636393
1288.744654
-8036.330043
-8032.173315
-7263.04747
1838.857431
1793.164499
1812.789916
1845.182611
1851.277569
1877.746796
1886.528757
1915.137066
1905.536554
1350.264868
1337.869792
1312.739272
-1549.386776
-1501.054742
-1492.286567
1339.964067
1349.586749
1342.838944
-1656.927314
-1665.122978
-1559.930422
-1378.326689
-1379.747577
-1532.462284
1132.324357
1316.087072
1323.375778
1331.408774
1169.284221
-9438.707122
-3650.201469
-2002.840881
-2077.980756
-2081.120653
-2339.967773
-2181.649939
-2153.518771
2588.148123
-5537.872625
-5020.843353
-6096.672436
-2497.979846
-2548.900557
-2385.677525
-696.0490322
-710.3614126
-527.804894
-535.1176496
-638.119878
-2859.407919
-2436.028111
-5532.302374
-9324.279118
-8787.873782
-8626.525905
-9019.623306
-9078.403563
-3223.06304
-3257.411463
-3205.03028
-3539.151871
-3542.769788
-3517.533036
-3072.913656
-3224.37266
-3297.141705
-3935.716978
-3877.169932
-3935.610811
-1927.99189
-1907.271165
-1940.086352
2948.79488
3031.430576
2707.469532
2711.22111
2715.189962
2674.598493
2446.680551
2457.33245
2434.893365
2636.316207
2601.056081
2594.728174
3474.781935
3296.500088
3417.05926
3645.219452
3667.781996
3810.443572
3098.643472
3170.001063
3170.423129
2124.280445
2121.5383
2119.670426
2185.124507
2175.096604
2177.714103
2071.938446
2065.847533
2114.302082
2105.561134
2303.528117
2305.393322
2290.083361
2413.756729
2393.135698
2390.08992
2204.116318
2204.572722
2194.624151
2276.295313
2264.226258
2263.788594
1820.862113
1843.663309
1836.60439
1785.156871
1791.508145
1813.057064
1966.073947
1996.842643
1981.401925
1988.681102
1977.567871
2058.666257
2048.167433
1899.913196
1966.565088
1955.667828
1915.508685
1925.268118
1955.818659
-4325.735494
-4402.467052
-3996.005507
-4067.363289
-4089.409089
-4473.230687
-4483.096116
-4378.463028
-4517.804548
-4338.595702
1372.211403
1346.935715
1358.719839
1422.20061
1405.62109
1381.263135
1404.363654
1415.75526
1410.120719
1380.423888
1384.371156
1393.835193
-1938.036884
988.7218269
1004.112907
970.1278403
668.9934838
995.7128755
407.4246849
516.1090481
621.8802865
1263.782542
1269.504296
1264.906832
-258.4322159
-102.3596752
-83.57355455
-99.50699417
1235.882569
1243.000839
1254.990489
-6.872090897
-92.34083302
-233.5564357
-2221.138541
-2269.641431
-2380.7714
-2330.727027
-2310.970323
5081.416283
5087.698977
5069.76583
-2451.791276
-2476.540409
-2385.805473
-2592.890721
-2534.480991
-2525.916112
-3890.77947
-3216.263404
-6661.797966
-6965.745502
-6984.532379
-6872.318691
-6922.481638
-7651.270987
-7462.398604
-7513.035121
-7364.973098
-7414.212465
-7596.301591
-5855.952572
-5768.309977
-5830.952912
-5632.462952
-5703.596642
-5793.279114
-7836.575165
-7618.526286
-7623.460897
-7564.270675
-7603.770942
-7827.479063
-6100.153271
-6011.537049
-6070.674278
-5893.684365
-5953.208389
-6044.351295
-6781.550063
-6826.769475
-6657.232627
-6720.397934
1661.069398
1655.878692
1650.81481
1590.483993
1586.616841
1579.678936
1600.744851
1594.190198
1599.111304
-1497.784266
-1554.627761
-1353.423867
-1440.326276
1453.690451
1449.07199
1466.912998
1459.042986
1355.561842
1347.700841
1353.996223
1350.079638
1560.396381
1557.44628
1549.649564
1572.942335
1565.509116
1569.801559
1481.619787
1476.456023
1497.889862
1480.162709
1488.073749
-1726.089378
-1721.344966
-1714.478084
-1559.409368
993.0452468
1006.344264
1072.593816
1108.702319
1103.20393
1084.074052
1116.003639
421.2588635
411.7271138
1034.70951
929.3993525
724.6988816
1293.902709
1310.770474
1305.057407
1183.494872
-9398.223677
-9677.951685
-9136.003411
-9043.446988
-8502.960789
-7568.066344
-9370.796168
-9032.587722
-3701.454496
-3854.054474
-2139.726651
-2131.573433
-2135.478735
2558.999369
2471.982731
4795.740847
4604.609735
4554.683613
4135.672092
4002.424818
4433.837983
4268.363178
4408.644818
-2669.898507
-2590.236238
-2728.169169
-944.8756718
-939.4297346
-927.4695398
-1050.087615
-740.2832214
-714.2319083
-703.3410416
-866.8590716
-804.1648068
-806.0276683
-462.506913
-518.0034166
-511.4307159
-335.7810939
-344.1333731
-389.8391978
-8991.277025
-8907.893581
-9382.604894
-8307.813301
-8696.749691
-8695.768827
-9136.505122
-9120.81955
-7181.929517
-7064.818415
-7109.358857
-7007.067853
-7021.572411
-7126.159436
-7413.112484
-7258.996181
-7312.825364
-7157.823514
-7207.193349
-7355.390831
-5286.835958
-5210.513556
-5279.939382
-5273.522214
-5349.240201
-4966.227133
-4996.441877
-4972.846226
-5076.496012
-5580.998433
-5613.295579
-5566.913391
-5482.449516
-5557.513881
-5352.56506
-5421.386568
-5512.4537
-3360.095831
-3263.034831
-3260.315827
-3277.237947
-3215.749371
-3276.3692
-3465.037218
-3487.343608
-3416.370565
-3770.980669
-3814.232049
-3836.144325
2895.58591
2749.459351
2510.144354
2481.935246
2470.859603
2563.838687
2569.065961
2539.13492
3452.812019
3554.634895
3547.080361
3863.274032
3731.20179
3254.756263
3252.999031
3349.740339
-7899.023155
-7687.930274
-7721.523892
-7634.312165
-7657.779643
-7852.487964
-8081.233901
-8148.079067
-8365.598291
-8727.607789
-8630.967419
-8824.434124
-8826.019503
-8411.539605
-8334.768013
-8569.80385
-8517.597403
-8256.695155
2142.635982
2133.123456
2133.663311
2166.847699
2164.48021
2153.557259
2083.958454
2077.787746
2097.32518
2090.380883
2336.949327
2320.952253
2318.927106
2369.240876
2372.998568
2354.163714
2228.377151
2215.888701
2215.711647
2253.909964
2252.59493
2240.765693
-6336.781756
-6239.763852
-6290.486106
-6127.756057
-6184.220008
-6277.219504
-6578.658848
-6481.817366
-6565.189476
-6341.69243
-6405.254804
-6501.658427
1838.522233
1840.864711
1846.958618
1825.013457
1833.547613
1830.95644
1869.85277
1868.915186
1880.701574
1852.319066
1859.007513
1860.331936
1781.542934
1784.042876
1788.778503
1772.702049
1778.805863
1775.676509
1806.690228
1807.294793
1815.876564
1793.621914
1799.679516
1799.409311
2011.189665
1999.981101
1991.346126
1996.002683
2006.888042
1974.17174
1985.058017
1980.757621
2034.97114
2022.46917
1923.757146
1913.983602
1907.478486
1910.594131
1920.796533
1889.537327
1894.008629
1896.46496
1949.189857
1952.679935
1963.384268
1931.535904
1942.077804
1938.764456
1945.005273
1934.43657
-4231.783886
-4268.792329
-4160.76039
-4128.734549
-4150.274071
-4692.897231
-4723.786883
-4672.610781
-4885.270708
-4792.807141
-4763.365621
-4429.810167
-4461.586721
-4437.796007
-4616.875383
-4561.861978
-4498.67564
1635.467318
1631.60875
1625.035102
1645.004994
1638.439502
1642.971759
1647.122372
1638.344412
1669.55222
1666.643249
1621.909251
1611.573778
1605.995099
1605.923204
1603.822803
1618.647573
1612.869358
1617.945949
1721.829393
1726.62515
1738.441498
1722.783642
1755.369996
1757.882229
1765.551454
1744.250818
1750.807224
1748.373135
1682.581826
1678.532842
1702.368279
1696.879948
-2906.323907
-2891.475971
-2960.792328
-2774.971715
-2828.685252
-2863.637216
-3098.771017
-3147.189741
-3009.489037
-3010.731945
-3020.939065
-1278.774052
-1287.133471
-1342.493036
-1141.51738
-1208.614979
-1213.357123
1421.076591
1407.570702
1443.397266
1434.149447
1366.930856
1375.014671
1370.955338
1378.098388
1370.456557
1396.314631
1387.022647
1532.914497
1530.439868
1525.005199
1542.626107
1536.294433
1538.433681
1517.538939
1510.777024
1504.843796
1520.058248
1515.479151
1520.64037
-1877.962256
1062.075231
1037.526123
1038.509889
600.883437
605.3759496
650.9011503
558.4326232
562.0912492
551.8379415
1049.603748
406.5079951
361.6183839
299.865437
1272.063155
1273.934353
1280.660452
-323.5842007
152.1112832
98.82181017
254.7035376
247.257669
255.950894
83.96247812
-43.0748627
-24.37408523
73.81531588
1215.484027
1231.891851
1224.231955
906.8177608
851.052841
821.1302689
827.7631183
743.6430786
709.2825444
709.3544174
589.7887327
557.2994744
543.5226466
390.3533759
366.2047784
333.9512981
157.5424237
150.3640155
96.48901638
-81.81848967
-68.26419509
-139.4272314
-296.6924749
-268.781882
-344.3500576
-468.4266421
-435.710408
-504.5944781
-595.0884463
-564.2721474
-620.7283826
-683.7238929
-658.5200364
963.2497223
920.0816806
865.336354
900.9995728
826.1511801
760.1087795
794.5781121
677.3241765
606.3915716
630.0137401
462.241702
403.1802892
397.8330984
185.1336792
161.720172
110.1253561
-112.2549828
-88.31552688
-182.0050174
-367.1394681
-310.7510513
-419.6258691
-548.9489462
-484.4788482
-583.5950967
-666.8236063
-609.895077
-688.9543123
-741.7829943
-695.7468741
1043.174948
1021.587999
942.4457165
1010.034779
958.057692
854.3709313
933.7898131
833.6508101
709.116974
788.964306
610.0856791
490.4816012
533.3400501
253.6482607
197.5147276
148.6124303
-165.5707912
-122.470468
-261.0225601
-496.0734374
-392.2329542
-555.8122668
-686.0418867
-576.8896413
-716.5793995
-780.5836874
-690.7234131
-794.9219747
-824.9571695
-760.5322116
1138.83781
1148.404241
1051.902499
1149.582784
1139.969718
998.8845526
1131.419464
1079.981606
886.0013897
1050.604516
890.2178721
664.5657093
801.1267891
392.1484035
280.2042797
217.2923761
-307.8893888
-187.3475906
-453.92918
-755.3082936
-544.0777029
-816.4945161
-916.2048636
-733.3439164
-929.06516
-940.5789148
-816.1691551
-938.6940511
-929.6088886
-849.3002386
1232.55729
1278.63647
1181.93831
1294.105314
1342.542591
1190.40661
1360.086044
1416.024338
1157.94893
1432.241019
1427.292845
993.3253044
1370.560075
619.3543164
443.0612347
394.5933948
-849.1592135
-382.3462229
-1054.585636
-1300.416877
-856.9437327
-1311.088743
-1260.406114
-991.1037814
-1231.506082
-1141.969826
-987.0775423
-1114.789337
-1047.919801
-958.3708904
1303.133111
1379.045054
1308.010048
1407.115309
1508.247416
1389.982482
1551.01133
1729.644777
1504.284437
1815.945766
2315.704742
1623.074416
1956.246597
1962.340868
1397.322711
411.5653122
-1111.544817
-430.2152571
-1865.154786
-1773.689334
-1450.044442
-2065.65243
-1691.440149
-1364.397319
-1591.260598
-1355.037123
-1196.523425
-1295.104072
-1159.70603
-1077.526561
1332.64671
1422.891331
1396.000422
1456.341853
1575.449614
1535.65892