/*--------------------------------*- C++ -*----------------------------------*\
| =========                 |                                                 |
| \\      /  F ield         | OpenFOAM: The Open Source CFD Toolbox           |
|  \\    /   O peration     | Version:  v1912                                 |
|   \\  /    A nd           | Website:  www.openfoam.com                      |
|    \\/     M anipulation  |                                                 |
\*---------------------------------------------------------------------------*/
FoamFile
{
    version     2.0;
    format      ascii;
    class       surfaceScalarField;
    location    "2.36";
    object      phi;
}
// * * * * * * * * * * * * * * * * * * * * * * * * * * * * * * * * * * * * * //

dimensions      [0 3 -1 0 0 0 0];
oriented        oriented;


internalField   nonuniform List<scalar> 
25162
(
0.0004974459626
0.916152554
0.0006753549067
0.9165220911
0.0008733685299
0.9164519864
0.0004331202163
0.916427734
0.0006625143509
0.4583357534
0.0004473668394
0.4582738243
0.0005779901538
-0.0005518144381
-0.0007219661117
0.4582362998
0.0008356663096
-0.0009482274056
0.458178052
0.001105175442
-0.001273372431
0.4581531245
0.00145024793
-0.001640114272
0.458144723
0.00183039124
-0.002007565422
0.4581764114
0.002166153971
-0.002298603305
0.4582535574
0.002376545928
-0.00240861429
0.4583549419
0.002387172432
-0.002313990799
0.458451639
0.002197351753
-0.002049178117
0.4585021792
0.001876998895
-0.001702163681
0.4585111238
0.001526039903
-0.001345670615
0.4584940162
0.001186654424
-0.001036352275
0.458483598
0.0008677542471
-0.0008015809706
0.4584481671
0.0007034138583
-0.0005723694945
0.4584578898
0.0004644797378
-0.001860865301
0.9185861963
0.0003327184772
-0.000408049481
-0.001165537815
0.9186546725
-4.519174876e-05
0.9157296539
0.9137548083
0.001374455464
0.9147780986
0.002288963949
0.9156075826
0.002848483556
0.9158924668
0.001120047429
0.9164917639
0.001664406197
0.4578715527
0.001345958148
-0.4580974635
-0.4580408185
-0.001656208245
0.4576582842
0.002038742582
-0.4578413266
-0.002502515189
0.4572945804
0.001426165816
0.001623095545
-0.2288405485
-0.001700007787
0.2287028007
0.001837755535
-0.00239052853
-0.2287738112
0.2286004181
0.002563921657
-0.003198732501
-0.2287546475
0.2285533686
0.003400011386
-0.00400915031
-0.2288236444
0.2286341122
0.004198682466
-0.004631783701
-0.2289851262
0.2288377539
0.004779128593
-0.004986271981
-0.2291997601
0.229179978
0.00500609858
-0.00468577106
-0.2293642245
0.2294614978
0.004588497718
-0.004105248038
-0.2294562169
0.2296370756
0.0039243893
-0.003342930938
-0.2294789104
0.2296916152
0.003130226172
-0.002564151681
-0.2294474263
0.2296457151
0.002365862862
-0.001891209052
-0.2293896806
0.2295508397
0.001730049941
-0.4588450322
-0.002505311789
0.4602332593
0.001117084635
0.0001433146751
0.4608617093
-0.001783459699
-0.4592215643
-0.002146439815
0.9178985439
0.0008540788277
0.001980013353
-0.001327322139
0.9178355548
0.0001910457894
0.914211286
0.913945854
0.001777723
0.9130003756
0.004643269818
0.9127420358
0.007895469213
0.9126402674
0.003610265593
0.9136302218
0.007146745693
-0.4576561807
0.45727873
0.003987716333
-0.45723518
-0.004225805654
0.4575794758
0.003881509884
-0.4565419829
-0.004323844523
0.4558916257
0.002399505119
0.00257469662
-0.228030261
-0.002923897569
0.227733761
0.003220397597
-0.2277516993
-0.004248232658
0.227370473
0.004629459006
-0.2276176851
-0.006072464925
0.2260579417
0.007631187386
-0.2259218074
-0.01315616103
0.2242238411
0.0148502253
-0.2267899515
-0.01902837105
0.2258033523
0.02001198822
-0.2293781471
-0.02149972793
0.2294327782
0.02144539207
-0.2318623738
-0.01965601832
0.233009033
0.01851277794
-0.2322048519
-0.01383934667
0.2340747724
0.01197307645
-0.2305945407
-0.006414277792
0.2312526661
0.005756415525
-0.230463176
-0.00462435441
0.2308233184
0.004264211926
-0.0030173086
-0.2302613497
0.2309256075
0.002353050791
-0.4627958546
0.0009659750035
0.4615355855
0.0002942941684
-0.4598883064
-0.0005275090753
0.4597872041
0.0006286113076
-0.0006593302097
0.9193153638
-0.000490342434
-0.0002671471757
0.001094509265
0.9160817154
0.0004989959526
0.9148067993
0.91444485
0.0008084663617
0.9121919092
0.00179084507
0.911759657
0.003539649904
0.9108914625
0.004131472019
0.9098995788
0.003138820922
-0.4562566708
0.4555472236
0.004840919148
-0.4587657057
-0.006388085332
0.4553142949
0.009839496109
-0.4568445613
-0.01157738761
0.4578317457
0.003600914381
0.006989288816
-0.2266273915
-0.003911007531
0.2262390574
0.004299341707
-0.2251603165
-0.006401514781
0.2224349876
0.00912469699
-0.2185474769
-0.0181219427
0.2155087357
0.02115089637
-0.2177864047
-0.02956347439
0.2153242527
0.03201457954
-0.2220383615
-0.03794806946
0.2205854567
0.03939376694
-0.2293454984
-0.04191836561
0.2291752799
0.0420877461
-0.2370113841
-0.04034202413
0.2384041154
0.03895517963
-0.2413338034
-0.03250162651
0.2441562178
0.02968943673
-0.2391664624
-0.02001945818
0.2425816573
0.01661275284
-0.2344605677
-0.002244305613
0.2391163703
-0.002411250439
-0.002896631951
-0.2317441868
0.2317336268
0.002907191955
-0.4614034928
-0.004201709659
0.4624554001
0.003149802382
-0.4604003903
-0.002088222135
0.4612493741
0.001239238314
0.001891624686
0.9188394187
-0.0007734846114
-0.0006421949614
0.001389549744
0.9165837903
0.000626637959
0.9155697111
0.915071488
0.0003834229092
0.9118084863
0.0009059613155
0.9112371186
0.001772257809
0.9100251661
0.002288901346
0.9079895225
0.001393412762
-0.4549798339
0.4539042163
0.003364518969
-0.453441666
-0.004161316482
0.4523455603
0.005257422282
-0.4510853025
-0.006700495306
0.4496167585
0.004217567328
0.00395147202
-0.2262596675
-0.00648099697
0.2238820281
0.008858626843
-0.2133395115
-0.01998381856
0.2118626439
0.02144889841
-0.2055844816
-0.02880981074
0.2022846967
0.03209159606
-0.2077802706
-0.0407073385
0.2054203657
0.043051457
-0.2160346544
-0.04862455736
0.2145662039
0.05008416114
-0.2280027428
-0.05339280255
0.2273272709
0.05406666267
-0.2420428548
-0.05405361168
0.2430868162
0.05301566938
-0.2530826245
-0.04593539214
0.2561989528
0.04283285303
-0.2599677114
-0.02629700373
0.2610632506
0.02521397521
-0.2435989118
-0.01649852372
0.2475429553
0.01256278047
-0.004264443703
-0.2330036369
0.2334861677
0.003781912823
-0.4639216759
-0.004675107095
0.4652823965
0.003314386469
-0.4620138617
-0.002394496342
0.462778191
0.001630167102
0.002425056117
0.9201487913
-0.002197139964
-0.001537288824
0.0012345427
0.9177743037
0.0005369619634
0.9162672918
0.9156084499
-1.368190446e-05
0.9118221682
0.0001577042713
0.9110657325
0.0007389366525
0.9094439337
0.0009863843233
0.9068766374
0.0008654374275
-0.4527435171
0.4521198421
0.001610059247
-0.4513647628
-0.002936746193
0.4501440285
0.004157480504
-0.4480882854
-0.00527639892
0.4463751639
0.003509115092
0.003480405353
-0.2155633182
-0.006371653415
0.2125590941
0.00937026905
-0.1974876471
-0.01982176505
0.1938140208
0.0234776186
-0.1954431488
-0.0357068514
0.191018114
0.04011144718
-0.2023649123
-0.04594792504
0.2017150844
0.04658430713
-0.2111561394
-0.04751627011
0.2116502304
0.04701816055
-0.2241145346
-0.05069754423
0.222733086
0.05207871842
-0.245987215
-0.05226525794
0.2452756435
0.05298036184
-0.2700026886
-0.04470136983
0.267380799
0.04733558317
-0.270048021
-0.04027596435
0.2741436307
0.0361983743
-0.2604902023
-0.02285523724
0.2649899465
0.01837098294
-0.005467180075
-0.2377504128
0.2400572807
0.003162836345
-0.4663979883
-0.0045282955
0.4674871098
0.003439174018
-0.4631319424
-0.002674090494
0.4634181712
0.002387861773
0.001634737769
0.9217327944
-0.001499522473
-0.001719218335
0.0007808222865
0.9186282192
0.0002596574975
0.9167884566
0.9158681074
-0.0006159970448
0.9124381653
-0.001033186996
0.9114829224
-0.001162085943
0.9095728326
0.0002305484407
0.9061931151
-0.0007091120588
-0.4517716693
0.4512292541
0.0007729636441
-0.4486873783
-0.001282083717
0.4479735551
0.001995906911
-0.445390131
-0.003372572846
0.4443115
0.002160145186
0.002291208784
-0.204280422
-0.006587252073
0.2015340657
0.009324105076
-0.1821894627
-0.01852730994
0.1817380783
0.0189566024
-0.1832750519
-0.02697769076
0.1814386388
0.02879383873
-0.1964173579
-0.03298575012
0.1952151128
0.03418062431
-0.2045760146
-0.04919661145
0.1035067571
0.0976109495
0.02415771048
0.0284972089
-0.03498025524
-0.1086824562
0.1081203211
0.03554239038
-0.02821195703
-0.2524600472
0.05313871372
-0.02858403344
0.1276764551
0.1284408689
-0.0479767551
-0.2706990285
0.2731228161
0.04556160389
-0.2862860739
-0.03426032291
0.2882544721
0.03231182334
-0.2766701933
-0.024296001
0.2808403541
0.0201422741
-0.008790101575
-0.2497804685
0.2529006532
0.005676418848
-0.4685317098
-0.003357384997
0.4690117189
0.002877375829
-0.4641361081
-0.002002218871
0.4648281028
0.001310224195
0.0002607699068
0.9226633865
-0.0004678390126
-0.0007235230718
-0.0001270347985
0.9190160239
-0.0001574063842
0.9168188282
0.915710701
-0.001295349036
0.9137335143
-0.002492249697
0.9126798231
-0.003411629239
0.9104922122
-0.001645451116
0.9068948526
-0.002467915617
-0.4511031357
0.4509994084
-0.001541723829
-0.4475629327
0.001483382969
0.4473323319
-0.001252782105
-0.4420921436
0.0009303331543
0.4406765455
0.0001159890252
0.0003692782215
-0.1950341621
-0.002497175735
0.193613489
0.003905801306
-0.1741408266
-0.009092747493
0.172371133
0.01084117348
-0.1774304252
-0.01587526118
0.1760355694
0.01725295764
-0.1940461267
-0.01963966474
0.193958853
0.01972486776
-0.08818124165
-0.01262337436
0.08786376819
0.01294084782
-0.03476488269
-0.1423797013
0.1454169737
0.03172761021
-0.03947015587
-0.2798872595
0.2825763511
0.03678522912
-0.2983888188
-0.0279980331
0.3015052621
0.02489844851
-0.2919815064
-0.01567403046
0.2949220552
0.01275274778
-0.008305456394
-0.2606318809
0.2632158323
0.005728363143
-0.4698543783
-0.001233261689
0.470491986
0.0005956540583
-0.46534261
-0.0001823123858
0.4657355913
-0.000210668877
-0.001775904878
0.9227616671
0.001097234323
0.0005803900176
-0.001377466082
0.9186175851
-0.0007307295853
0.9161720917
0.9149799714
-0.002000614865
0.9157341292
-0.003914755524
0.9145939638
-0.005880481042
0.9124579377
-0.003408400011
0.9086768745
-0.004254102939
-0.4512571992
0.4515105676
-0.003661768458
-0.4474040895
0.003982019427
0.4477341369
-0.004312066802
-0.4399104124
0.004641663367
0.4394756114
-0.001880716419
-0.002326919488
-0.1893419558
0.0002912930909
0.1881328235
0.0009099943959
-0.1675481197
-0.005111513142
0.1661475619
0.006498664949
-0.1738297503
-0.009677596887
0.1732944747
0.01020229945
-0.1957185522
-0.009509668709
0.1967237028
0.008503942488
-0.09168230245
-0.002040276054
0.09242201755
0.001300560962
-0.01535428734
-0.1586177574
0.1590770352
0.01489500963
-0.02202470766
-0.2876772591
0.288328518
0.02137508612
-0.3078834945
-0.01801446311
0.3094181769
0.01649032031
-0.3021847455
-0.01095159011
0.3040862191
0.009062294639
-0.0035435289
-0.2684980529
0.2700638642
0.001984001952
-0.4713816433
0.001546194237
0.4720841171
-0.002248668116
-0.4658343954
0.002464945775
0.4658152575
-0.002445807936
-0.004167901095
0.9216355384
0.002864293992
0.002429735833
-0.002866480295
0.9173161643
-0.001464889621
0.9147705011
0.9135150818
-0.002672648558
0.9184067777
-0.0054709149
0.9173922301
-0.008247642789
0.9152346656
-0.005185343954
0.9116498842
-0.006035308565
-0.4521318127
0.4527581023
-0.005811633562
-0.448270265
0.00656636281
0.4491466153
-0.007442713068
-0.4393401633
0.008350232781
0.4393162878
-0.003922160811
-0.004404132576
-0.1849623846
0.002588074826
0.1839073895
-0.001535810056
-0.1624063868
-0.002067938479
0.1612798379
0.003189633773
-0.1722287724
-0.005356918798
0.1721113034
0.005470387092
-0.2003011515
-0.003360928525
0.2016193771
0.002042584091
-0.09639586666
0.001062005702
0.09684151764
-0.0007322979797
-0.0007753587005
0.003476579501
-0.1557767385
0.1546788394
-0.002378680399
-0.002976995347
-0.2888920225
0.2883779343
0.003492122407
-0.3132325758
-0.003241041085
0.3138206973
0.002659331721
-0.3082549815
-0.0002356409445
0.3091131482
-0.0006150200672
0.002501512073
-0.271809505
0.2721127232
-0.002800747335
-0.4718561749
0.005419242518
0.4712156778
-0.004778745445
-0.4654652686
0.004496553001
0.4656472215
-0.004678505973
-0.006754144721
0.9192638631
0.00484624618
0.004279573806
-0.004444922659
0.9150069423
-0.002241794741
0.9125673731
0.9112732871
-0.003405112133
0.9218118899
-0.006838696922
0.9208258149
-0.0104999009
0.9188958696
-0.006863982117
0.9156821227
-0.007668157248
-0.45371885
0.4546852317
-0.007830363763
-0.4501978476
0.009016094416
0.4514020089
-0.01022025569
-0.4396055848
0.01161198875
0.4399908198
-0.005842688791
-0.006152717171
-0.1808666034
0.00435245221
0.1798706609
-0.003353570542
-0.1581615898
4.163513406e-05
0.1571923775
0.0009314334543
-0.1721662468
-0.002470994518
0.1723057098
0.002333757154
-0.2055827912
0.000525844231
0.2068882092
-0.001831226223
-0.09949425424
0.002702922704
0.09981065914
-0.00149456328
-0.001524764325
0.01337245407
-0.1453320521
0.1438831909
-0.01192359288
0.01169341084
-0.28679876
0.2866954816
-0.01158960007
-0.315844123
0.01395949429
0.3126626918
-0.01077515142
-0.3102002068
0.009979914776
0.3097756171
-0.009553367226
0.007752195513
-0.2696165285
0.2687816458
-0.006916480342
-0.4702788906
0.009072128244
0.469083487
-0.007876724639
-0.4657220052
0.006785441192
0.4647145903
-0.005778026369
-0.009123560623
0.9158513575
0.006459249199
0.006076817029
-0.005962858441
0.9118462401
-0.002942040088
0.9095465548
0.908331247
-0.004049214393
0.9258611043
-0.008173260472
0.924949861
-0.01253538996
0.9232579991
-0.008325204984
0.9202651825
-0.008793244789
-0.4559110702
0.4571287422
-0.009542877025
-0.4528798169
0.01098089237
0.4544588605
-0.01255993599
-0.4400581573
0.0143093095
0.4412550489
-0.006958188794
-0.008543871024
-0.1768398356
0.005216733944
0.1757642241
-0.004131740421
-0.1544486909
0.0008022745467
0.1535842046
7.507536347e-05
-0.1730847738
-0.0010572273
0.1735025868
0.0006475013225
-0.2107831729
0.003189731897
0.2120880113
-0.004494555618
-0.1019093369
0.004101495978
0.1022179316
-0.002184539303
-0.002225551387
0.01660153018
-0.1341588961
0.1327758956
-0.01521852971
0.02072901277
-0.2858966656
0.2863120871
-0.02114623998
-0.3122198191
0.01707700743
0.3171462095
-0.02200753966
-0.3074744947
0.02308347395
0.3064263503
-0.02203616852
0.01236719659
-0.262806012
0.2603464011
-0.009908644163
-0.4676701919
0.01213632037
0.4660383751
-0.01050450357
-0.463663911
0.009048533003
0.4623906699
-0.007775291884
-0.01124917435
0.9131949958
0.007161045853
0.006744490269
-0.007288839734
0.9078859055
-0.00355432026
0.9058120353
0.9047769268
-0.008289130113
0.9341502344
-0.01680879971
0.9334695306
-0.02553918845
0.9319883878
-0.009716130363
0.9296348656
-0.0251927412
-0.4586368918
0.4601141818
-0.01119342031
-0.4561124771
0.01285429553
0.4579813739
-0.01472319234
-0.4386281643
0.01665364899
0.435189131
-0.006150364055
-0.007050786224
-0.1732340275
0.002051623065
0.1709368069
0.0002643866202
-0.1511064618
-0.000768170595
0.1511619172
0.0007348641462
-0.175238651
0.00135875918
0.1737159233
0.0001771678027
-0.2160381255
0.004651154101
0.2173958838
-0.003001503406
-0.003007409007
-0.05244840847
0.002680567715
0.05254901252
-0.002781171772
-0.05829798476
0.00622796438
0.05780381224
-0.0120936992
0.006359907338
0.0147017394
-0.1246398324
0.2455275261
-0.02524440141
0.01424272855
-0.1245877603
-0.2868050189
0.02736934229
0.2902774533
-0.03084731409
-0.3164959212
0.02883360979
0.3151797672
-0.02752803404
-0.3015536831
0.02219155096
0.2992986083
-0.0199462352
0.01232932945
-0.2495592987
0.2468388289
-0.009611115503
-0.4640960566
0.01424462998
0.4621561879
-0.01230476121
-0.4610720952
0.01079719902
0.4596590733
-0.009384177113
-0.01295560017
0.9093436528
0.008630860079
0.008176083097
-0.008380834442
0.9033111398
-0.00413401215
0.9015652131
0.9006429146
-0.004818114427
0.9389683489
-0.009790986145
0.9384424023
-0.0150829133
0.937280315
-0.01033359105
0.9354472358
-0.01056169242
-0.4636514075
0.465214609
-0.01189679253
-0.4616275007
0.01364683512
0.4635292353
-0.01554856972
-0.4339107605
0.01763077257
0.4396572343
-0.01104050092
-0.01232282124
-0.1667329928
0.01244940476
0.167048237
-0.0127455184
-0.1482776656
0.012133761
0.1476928808
-0.01152408971
-0.1790964376
0.008923523339
0.1780592315
-0.007871483704
-0.2219011807
0.004947674537
0.2232167467
-0.003140122318
-0.003123118163
-0.05490933544
0.005513610658
0.1102503547
-0.05488859175
-0.00298304986
-0.002982988309
-0.1121240489
0.008056841219
0.1119592884
-0.01570055868
0.007808477901
0.024151232
-0.2387948825
0.2391319868
-0.02448873675
-0.2923869123
0.02839661627
0.293293873
-0.02931669693
-0.3102768746
0.02866846831
0.3168456095
-0.03525460033
-0.2916787467
0.03089007088
0.2836805048
-0.02290225122
0.01141634108
-0.2348606849
0.2326019159
-0.009157828249
-0.4604596228
0.01512991648
0.4589372118
-0.01360750553
-0.4582318905
0.012102531
0.4565570805
-0.01042772088
-0.01243438284
0.9046599891
0.00849548798
0.008622558664
-0.009087008079
0.8999637651
-0.004458317076
0.8969365221
0.8961845976
-0.005009978174
0.943978327
-0.0101666612
0.9435990854
-0.0156201135
0.9427337673
-0.01070847344
0.9413744983
-0.0108389025
-0.4668629822
0.4684992256
-0.01234471683
-0.4654328853
0.0141143609
0.4673190375
-0.01600051307
-0.4493938778
0.01804234137
0.4603318348
-0.01457475187
-0.01440283081
-0.1727497435
0.02278564394
0.1763793449
-0.02639966077
-0.1480435048
0.03400435658
0.1492186888
-0.03515668686
-0.1716584984
0.03350019396
0.1692531347
-0.03107809744
-0.2184976096
0.01790367325
0.2122913913
-0.0116939709
-0.1134163677
0.008705105252
0.2270186881
-0.008911859482
-0.1133955663
-0.2261114015
0.01541072452
0.2266596125
-0.01595893554
-0.2510677036
0.02823809105
0.2567032528
-0.03388020725
-0.2999575564
0.04318405235
0.3006473269
-0.04389401649
-0.3125481759
0.04022271544
0.3097599563
-0.03745892297
-0.2710503272
0.02625674607
0.2714024388
-0.02662031123
0.01135264048
-0.2306711565
0.2283742018
-0.009055685886
-0.4575800294
0.01693948922
0.4545423593
-0.01390181909
-0.4548476965
0.01248931115
0.4528776207
-0.01051923523
-0.01286061445
0.9000405469
0.008822164854
0.008657891775
-0.009165281032
0.8962684316
-0.004673697514
0.8924449386
0.8915109001
-0.005062789058
0.9490411161
-0.01025409235
0.9487903887
-0.01569992915
0.9481796041
-0.01077419581
0.9472279253
-0.01077916041
-0.4701144149
0.4717322456
-0.0123920265
-0.4691631228
0.01410891334
0.4709589359
-0.01590472649
-0.4678025706
0.01781368609
0.4699871352
-0.01011038345
-0.00988791465
-0.192777387
0.02426304318
0.2000413221
-0.03151794202
-0.1576307084
0.05035786626
0.1623847669
-0.05509401933
-0.1651301599
0.06300994648
0.1655349814
-0.06339804445
-0.1975028855
0.05856240095
0.1945399948
-0.05559062873
-0.2180837324
0.04627792564
0.2130865763
-0.04127908134
-0.2388520283
0.04922529304
0.242225942
-0.05260290973
-0.2705234806
0.06344838867
0.2731617786
-0.06609906496
-0.2998208517
0.06769308626
0.2978955544
-0.06578863496
-0.2969597244
0.05339932789
0.2910217722
-0.04748155647
-0.2538530582
0.02680235339
0.2466015689
-0.01955799449
0.01094922917
-0.2265106003
0.2259244098
-0.01036303866
-0.453864253
0.01743679192
0.4512249167
-0.01479745566
-0.4500727239
0.0114442073
0.4485224231
-0.009893906507
-0.01211764931
0.893919769
0.009394530607
0.008843896563
-0.006800739197
0.8909515216
-0.004743256394
0.8903874558
0.8867676437
-0.00499566645
0.9540367826
-0.01009783386
0.9538925561
-0.01540594159
0.9534877119
-0.01058068377
0.9528655561
-0.01046288858
-0.4732860546
0.4748230891
-0.01211771827
-0.4726897981
0.01372979273
0.474352221
-0.01539221563
-0.4719221953
0.01712478728
0.4737395919
-0.009536160584
-0.009406023262
-0.2262964131
0.01064948908
0.2342745788
-0.0186266575
-0.1829471052
0.0476237009
0.1917296509
-0.05639618414
-0.1737462264
0.07766549769
0.1788704832
-0.08277764862
-0.1927900185
0.09248414468
0.194221333
-0.09390744784
-0.2024948726
0.0878844723
0.2030289266
-0.08841740799
-0.246933832
0.09548543251
0.2469337499
-0.09549185467
-0.2737175775
0.0930264991
0.2714725095
-0.09079532653
-0.2857070628
0.0783531948
0.2795487142
-0.07221212541
-0.268214764
0.04870346587
0.2591832682
-0.03968374536
-0.2255176331
0.01279848483
0.2245380968
-0.01181898235
0.01027576351
-0.2243259806
0.2238307829
-0.009780565803
-0.4475761078
0.01666474129
0.4458630187
-0.01495165223
-0.4469730738
0.01331609671
0.4453912079
-0.01173423079
-0.01137229988
0.8868783329
0.01010934008
0.008304395992
-0.00644666
0.8860258817
-0.004396992001
0.8883377878
0.8823706517
-0.004834499169
0.9588712818
-0.009751495494
0.9588095525
-0.01482082804
0.9585570444
-0.01017058524
0.9581787202
-0.009963406914
-0.4762818279
0.4777077748
-0.01159653214
-0.4759331733
0.01307389168
0.4774346695
-0.01457538787
-0.4754372678
0.01611397198
0.4770186742
-0.008928001438
-0.008767376846
-0.2372268723
0.00974707774
0.2376411585
-0.01016136397
-0.2220167727
0.01644593546
0.2327394892
-0.02716697309
-0.2003389057
0.05697354341
0.2089690589
-0.06559852434
-0.200501256
0.0845868972
0.2030004523
-0.08708241472
-0.21383032
0.09495021059
0.2177087465
-0.09882966541
-0.2433569778
0.09839236821
0.2412480737
-0.09629002735
-0.2587702449
0.08463046734
0.253055761
-0.07892616649
-0.2561005129
0.05664860622
0.2472149032
-0.04777164219
-0.2296928977
0.018564071
0.2235811709
-0.01245327971
-0.2231122121
0.01114006129
0.2226917036
-0.01071955285
0.009472067254
-0.2224935775
0.2220816897
-0.00906017939
-0.4442541665
0.01560188735
0.4427500237
-0.01409774454
-0.4439141026
0.01263388811
0.4424758489
-0.01119563441
-0.01426376162
0.8817350202
0.009603544354
0.009803529873
-0.009373838824
0.8811359589
-0.001836298607
0.8808002476
0.8805343531
-0.00460334523
0.963474627
-0.009265259343
0.9634714666
-0.01402754768
0.9633193328
-0.009607215135
0.9631030477
-0.009344660006
-0.4790497124
0.4803517213
-0.01090922402
-0.4788490579
0.01224095008
0.4801828567
-0.01357474882
-0.4784841567
0.01491811719
0.4798379319
-0.0082131122
-0.008058780131
-0.2387686857
0.008912408077
0.2391101791
-0.009253901457
-0.2377995394
0.01025985588
0.2381273105
-0.01058762702
-0.2358409646
0.01154503438
0.236979097
-0.01268300154
-0.2140858763
0.02978460576
0.2189517583
-0.03464999259
-0.2258910168
0.04772841841
0.2278472245
-0.04968555873
-0.2335600592
0.04795159825
0.2308905334
-0.04528465704
-0.2340134846
0.03144342911
0.2276940187
-0.0251259843
-0.2238433504
0.01232745242
0.2235922171
-0.01207631915
-0.2225093818
0.01123165375
0.2222034967
-0.01092576864
-0.2215702316
0.009960353331
0.2212379708
-0.009628092544
0.008618937389
-0.2209734945
0.220632094
-0.008277536852
-0.441346898
0.01438574801
0.4400415917
-0.01308044174
-0.4411460467
0.01178870265
0.4398583293
-0.01050098527
-0.01347649419
0.8769896929
0.008984496428
0.009237325068
-0.008894146583
0.8765536113
-0.004416176879
0.8763222779
0.8761181762
-0.004325148888
0.9677997759
-0.008687460268
0.967833778
-0.01310457747
0.96773645
-0.008949032238
0.9676092805
-0.008661778011
-0.481567675
0.4827460461
-0.01012740334
-0.4814322898
0.01131581886
0.4826061808
-0.01248970989
-0.4810872492
0.01365412003
0.4822391141
-0.007468601971
-0.007337383014
-0.2400400985
0.008068900667
0.2403224407
-0.008351242823
-0.2390071994
0.009167965004
0.2392692547
-0.009430020214
-0.2376566566
0.01016127298
0.2378401957
-0.01034481211
-0.2223113016
0.01040650868
0.2223831673
-0.01047837438
-0.2303067536
0.01149850605
0.2303619534
-0.01155370583
-0.2276183668
0.01156431859
0.2275827325
-0.01152868432
-0.2250330771
0.01128352974
0.2249107794
-0.01116123206
-0.2229402694
0.01068906303
0.2227516452
-0.01050043883
-0.2213977409
0.009857171911
0.2211614288
-0.009620859783
-0.220347045
0.008862375113
0.2200813452
-0.008596675286
0.007773961252
-0.2197140709
0.2194288145
-0.007488704852
-0.4388289124
0.01312268294
0.4377034188
-0.01199718933
-0.4386748536
0.01086613605
0.437531949
-0.009723231521
-0.01256684414
0.8726610854
0.008308621302
0.008586830372
-0.008327160023
0.8723139272
-0.004144245789
0.8721393637
0.8719739304
-0.004020582272
0.9718203582
-0.008060474839
0.9718736706
-0.01211874252
0.9717947176
-0.008251201048
0.9716980874
-0.007956348407
-0.4838365935
0.4848951429
-0.009309750445
-0.4837026553
0.01036381927
0.4847313167
-0.01139248066
-0.4833003213
0.01239987539
0.4842788258
-0.006744500051
-0.006633879768
-0.2410928813
0.007259779457
0.2413276098
-0.007494507968
-0.2399750398
0.008163895135
0.2401865301
-0.008375385416
-0.2383028246
0.008942604754
0.2384325695
-0.009072349709
-0.2226542165
0.009105982558
0.2227572492
-0.009209015251
-0.2304754138
0.009976435325
0.2305008811
-0.0100019026
-0.2274833506
0.009992468979
0.2274520467
-0.009961165087
-0.2245893228
0.009767086729
0.2244947172
-0.009672481141
-0.2222548105
0.009308407463
0.222108868
-0.009162464972
-0.220532454
0.008660364928
0.2203460355
-0.008473946449
-0.219364232
0.007867746671
0.2191489035
-0.007652418161
0.006975183347
-0.2186650719
0.2184252569
-0.006735368253
-0.4366582584
0.01188666618
0.4356878283
-0.01091623607
-0.43648554
0.009928588205
0.4354752473
-0.008918295561
-0.01160228907
0.868745172
0.007617949437
0.007900252987
-0.007715509406
0.8684271475
-0.003847742053
0.8682715964
0.8681261884
-0.003705645449
0.9755260036
-0.007416383437
0.9755844086
-0.01111791746
0.9754962517
-0.007546961406
0.9753858055
-0.007258674131
-0.4858675551
0.4868136626
-0.008493068945
-0.4856910547
0.009425037626
0.4865910618
-0.01032504481
-0.4851840401
0.0111976945
0.4860217525
-0.006069065608
-0.005966341274
-0.2419698493
0.006505514972
0.2421662214
-0.006701887129
-0.2407601422
0.007256589289
0.2409332339
-0.007429680987
-0.2387635903
0.007878432966
0.2388574056
-0.007972248321
-0.2230912287
0.008001029219
0.2232087502
-0.008118550722
-0.2305514753
0.008709096924
0.2305616302
-0.008719251841
-0.2273622499
0.008693404045
0.2273334637
-0.008664617913
-0.2242406902
0.008503696222
0.2241645226
-0.008427528658
-0.2217190516
0.008137406514
0.2216030004
-0.008021355326
-0.2198449792
0.007620375409
0.2196950697
-0.00747046598
-0.2185639105
0.0069782076
0.2183871562
-0.006801453352
0.006238640848
-0.2177857016
0.2175831386
-0.006036077865
-0.4347859699
0.0107154395
0.4339471195
-0.009876589142
-0.4345527207
0.009014235499
0.4336613824
-0.008122897232
-0.01063112473
0.8652203292
0.006941486407
0.00721448111
-0.007091605176
0.864887628
-0.003543072646
0.8647230638
0.8645831157
-0.0033936134
0.978919617
-0.006781451814
0.978972247
-0.01014022819
0.978855028
-0.006863892353
0.9786989528
-0.006589483168
-0.487678038
0.4885214376
-0.007707291988
-0.4874307124
0.008530489048
0.488218408
-0.009318184711
-0.486797891
0.01007486399
0.4875177565
-0.005444606211
-0.005350123211
-0.2427061073
0.005817346216
0.2428720188
-0.005983257699
-0.2414061704
0.006448596981
0.2415499094
-0.006592336056
-0.2390992689
0.006953123121
0.2391686216
-0.007022475777
-0.22357348
0.007061635249
0.2236977721
-0.007185927336
-0.2305772278
0.007643023601
0.2305783482
-0.007644143962
-0.2272500343
0.007607613068
0.227223138
-0.007580716826
-0.2239568351
0.007443377376
0.2238937042
-0.007380246506
-0.2212891969
0.007142802173
0.2211946896
-0.007048294857
-0.2192884822
0.006721391435
0.2191657759
-0.00659868513
-0.2179039299
0.0061929023
0.2177570244
-0.006045996815
0.005573813047
-0.2170444063
0.2168727133
-0.005402120065
-0.4331656555
0.009634435483
0.4324376876
-0.008906467629
-0.4328482957
0.008151923314
0.4320615009
-0.007365128539
-0.009690265041
0.8620563344
0.006298486442
0.006555773428
-0.006481126314
0.8616784892
-0.003243324374
0.8614852619
0.8613397914
-0.003093232008
0.9820128491
-0.006172743208
0.9820517582
-0.009209734852
0.9818920197
-0.006217479318
0.9816689187
-0.005962221442
-0.4892886967
0.490039639
-0.006968421607
-0.4889536777
0.007695661682
0.4896441296
-0.008386113611
-0.4881862918
0.009044117032
0.4888078502
-0.004876749295
-0.004788926132
-0.2433302208
0.005197314219
0.2434717549
-0.005338848234
-0.2419451977
0.005733852907
0.2420661131
-0.00585476822
-0.2393497364
0.006149039084
0.2394024681
-0.006201770763
-0.2240743835
0.006258551388
0.2242002785
-0.006384446348
-0.2305721758
0.006739110461
0.2305674134
-0.006734348032
-0.2271449592
0.006690998929
0.2271197027
-0.006665742518
-0.2237196545
0.006546253822
0.2236662027
-0.006492801931
-0.2209365822
0.00629435664
0.2208580911
-0.006215865608
-0.2188303587
0.005944594619
0.2187283313
-0.005842567237
-0.2173530619
0.005503454141
0.2172295103
-0.005379902517
0.004979729951
-0.2164148715
0.2162680565
-0.004832914901
-0.4317585252
0.008650243649
0.431124647
-0.008016365455
-0.431344048
0.007354321546
0.4306485483
-0.006658821868
-0.008801919181
0.8592197438
0.005700651934
0.005937857876
-0.005900215719
0.8587767858
-0.002956840167
0.8585418863
0.8583829512
-0.002810801425
0.9848236505
-0.005602358036
0.9848433148
-0.008342980859
0.9846326425
-0.005617889018
0.9843292072
-0.005385380359
-0.4907206409
0.4913892522
-0.006286500419
-0.4902892763
0.006929725419
0.4908959233
-0.007536372485
-0.489386569
0.008110727539
0.489926064
-0.004364395584
-0.004285827021
-0.2438642485
0.004641847447
0.2439860689
-0.004763667803
-0.2424003326
0.005102468103
0.2425031062
-0.005205241684
-0.2395424234
0.005448536796
0.2395839419
-0.005490055248
-0.2245760243
0.005566667301
0.2247001213
-0.005690764296
-0.23054654
0.005966028076
0.230537675
-0.005957163127
-0.2270462385
0.005909556306
0.2270224849
-0.005885802701
-0.2235176579
0.005780445747
0.2234716856
-0.00573447345
-0.2206420315
0.005565914562
0.2205758085
-0.005499691531
-0.2184476082
0.005271272292
0.2183616384
-0.005185302518
-0.2168880496
0.00489852593
0.2167830507
-0.004793527087
0.004451297632
-0.2158756587
0.2157491543
-0.004324793201
-0.4305319401
0.007765777501
0.4299774331
-0.00721127051
-0.4300141954
0.006628320735
0.4293979639
-0.006012089341
-0.007980585786
0.8566761016
0.005155031791
0.005369196126
-0.005359792726
0.8561559927
-0.002689370754
0.8558714644
0.8556935804
-0.002549752056
0.9873734025
-0.005076627158
0.9873701899
-0.007547891952
0.9871039073
-0.005070460997
0.9867127681
-0.004860991793
-0.4919943375
0.4925903015
-0.005666424993