/*--------------------------------*- C++ -*----------------------------------*\
| =========                 |                                                 |
| \\      /  F ield         | OpenFOAM: The Open Source CFD Toolbox           |
|  \\    /   O peration     | Version:  v1912                                 |
|   \\  /    A nd           | Website:  www.openfoam.com                      |
|    \\/     M anipulation  |                                                 |
\*---------------------------------------------------------------------------*/
FoamFile
{
    version     2.0;
    format      ascii;
    class       surfaceVectorField;
    location    "2.36";
    object      Uf;
}
// * * * * * * * * * * * * * * * * * * * * * * * * * * * * * * * * * * * * * //

dimensions      [0 1 -1 0 0 0 0];


internalField   nonuniform List<vector> 
25162
(
(99.99738046 0.01135855953 -2.360279593e-21)
(99.98936242 0.01041444799 7.002160476e-21)
(99.99630186 0.02627473604 -2.321824247e-21)
(99.98603668 0.03433928991 2.388887266e-21)
(99.99415415 0.0493754911 -4.623450988e-21)
(99.97837912 0.0696583859 1.401697335e-20)
(99.99752994 0.05439224368 1.414203274e-21)
(99.96481318 0.1236403931 -9.13753269e-21)
(99.98557052 0.1195698111 -1.534199889e-21)
(99.99687052 0.09733474733 2.211468404e-21)
(99.99883348 0.05772909508 1.082162703e-21)
(99.98336335 0.1567522495 2.189638796e-21)
(99.99622131 0.08824505923 1.062458324e-21)
(99.99719664 0.07045318545 -1.110967088e-21)
(99.99540502 0.1102107645 1.06241493e-21)
(99.97513993 0.2459240394 2.107719219e-21)
(99.99507157 0.1367928601 0)
(99.99491629 0.1654572145 -3.755391463e-21)
(99.96894943 0.3629146125 -3.755371917e-21)
(99.99437437 0.1986656822 -9.686801016e-22)
(99.9938189 0.2356874631 3.268988961e-21)
(99.96244349 0.5107756542 3.509314066e-21)
(99.99340277 0.2758919453 4.307541381e-22)
(99.99323886 0.3180110366 -2.691185713e-21)
(99.96051808 0.6785490413 3.885417862e-22)
(99.99343743 0.36024562 -2.619026389e-21)
(99.99355045 0.4005577005 5.12463958e-22)
(99.9663068 0.8374703002 -1.682022267e-21)
(99.99370183 0.4365827266 2.435109302e-21)
(99.99500388 0.4652828248 1.922512451e-21)
(99.98277612 0.9500371084 -8.152771638e-22)
(99.99728254 0.4837515969 0)
(99.99989278 0.4910072817 0)
(100.0045583 0.978675174 9.947735377e-23)
(100.002496 0.4861171518 0)
(100.0048148 0.4700458854 8.242242969e-22)
(100.0244571 0.9148833397 -1.590187541e-23)
(100.0062421 0.4438725061 1.347936609e-21)
(100.0064708 0.410281611 -5.820091995e-22)
(100.0354696 0.7841408802 -8.191003954e-22)
(100.0064792 0.3723059939 -1.506389007e-21)
(100.0065976 0.3325099853 7.99163143e-23)
(100.0374719 0.6249329179 2.012164141e-21)
(100.0064871 0.2924315249 5.308676766e-22)
(100.0061276 0.2537465662 0)
(100.0337057 0.4706108599 0)
(100.0056318 0.217698344 0)
(100.0051805 0.1848708288 7.909272405e-22)
(100.0270395 0.3401501812 1.645213663e-21)
(100.0051008 0.1559603049 -4.001703311e-21)
(100.0048232 0.1287960099 -1.495824195e-21)
(100.0214684 0.2331997858 3.232538627e-21)
(100.0040524 0.1058488916 3.232297411e-21)
(100.0030163 0.0869195756 -8.854982185e-22)
(100.0126627 0.1558661841 -4.142527312e-23)
(100.0009845 0.07339049267 1.736548032e-21)
(100.0072783 0.06864849631 -7.633769407e-21)
(100.0422723 0.1693599006 3.034667836e-22)
(100.0157905 0.1556710036 -2.700439143e-21)
(100.0026451 0.07188118912 -1.549300523e-21)
(100.0049439 0.03895392914 -9.505418067e-22)
(100.0277689 0.1019679424 1.508663461e-20)
(100.0039536 0.01800606634 -7.62412926e-21)
(100.0196808 0.05333714797 -1.608529233e-20)
(100.0169685 0.01663029834 1.283722786e-21)
(99.97569956 0.03194822294 1.167892465e-20)
(99.95933242 0.01785939438 3.848794944e-22)
(99.96484663 0.07450853145 1.858587602e-20)
(99.94613139 0.05960469914 -1.636989754e-20)
(99.94438733 0.1397740548 9.75471171e-21)
(99.9172918 0.1222990705 -2.52374776e-20)
(99.93596493 0.21464072 -1.663191794e-21)
(99.86814909 0.2199572107 4.861358328e-20)
(99.89132764 0.2716481616 -1.067560583e-20)
(99.90637937 0.2738147188 -2.296048543e-21)
(99.92883395 0.2673869025 4.489091067e-21)
(99.95574441 0.1912296558 2.229666358e-21)
(99.932444 0.3076350554 2.156107131e-21)
(99.90962087 0.3398093757 2.206278127e-21)
(99.84883695 0.4470672289 -4.477294209e-21)
(99.8887533 0.4291784019 -3.300185224e-23)
(99.89976104 0.4811729192 2.108049999e-21)
(99.86512665 0.5375126771 -2.727492751e-23)
(99.78019192 0.7002941142 0)
(99.85375066 0.6194101881 0)
(99.81505171 0.7112815154 -2.611480577e-21)
(99.86855303 0.6984189125 -5.106401041e-21)
(99.84960562 0.7404445619 -8.054284076e-23)
(99.80828614 0.8546370991 -1.148264355e-20)
(99.83966453 0.8047736561 -3.947436687e-21)
(99.81017635 1.056511111 3.088256754e-23)
(99.83910918 0.9905693075 -2.541642281e-21)
(99.76101109 1.219684607 -1.381729193e-20)
(99.8044244 1.139877153 -3.376178214e-21)
(99.79187103 1.432484852 -6.041504603e-21)
(99.83037581 1.329744896 -5.742536561e-21)
(99.74218778 1.647807565 8.101401753e-22)
(99.79444247 1.526584954 -7.22699504e-21)
(99.81342996 1.807789318 1.862865111e-23)
(99.85794979 1.65813389 -4.471545606e-21)
(99.7749269 2.066374817 2.217799242e-21)
(99.82836212 1.896309917 -3.326648042e-21)
(99.8850076 2.09721407 -3.564491351e-21)
(99.9281586 1.898876372 -5.893145112e-21)
(99.86794449 2.379528858 -7.702446109e-22)
(99.91140423 2.161246457 -3.196356202e-21)
(99.9937827 2.211591515 -1.459096501e-21)
(100.020767 1.971808455 -1.917590596e-21)
(100.0033102 2.480886472 -1.769146165e-22)
(100.0215711 2.22994735 -6.313966742e-22)
(100.1030181 2.119980994 -1.666792996e-22)
(100.0900883 1.855018815 -1.738879712e-23)
(100.130699 2.338758074 9.603363357e-22)
(100.1246042 2.076159893 -1.104395633e-21)
(100.1747308 1.852542421 -3.424849959e-22)
(100.1307502 1.596335019 -2.583529336e-22)
(100.2078771 2.012577596 -7.750403968e-23)
(100.1826761 1.769733919 2.637122679e-21)
(100.1972496 1.499644522 2.738219651e-21)
(100.1388866 1.275693008 4.761170523e-21)
(100.2297272 1.608303248 4.751498461e-21)
(100.1951819 1.402282205 5.74872134e-22)
(100.1837284 1.139763077 -7.299231261e-21)
(100.1252164 0.9606935631 -6.775864262e-21)
(100.2097681 1.209082003 -2.465153184e-21)
(100.1753659 1.049198693 -2.40376512e-21)
(100.1499555 0.8296135104 -5.60576047e-21)
(100.0978915 0.6952367118 5.060955502e-22)
(100.1662202 0.8708332578 -1.481261244e-21)
(100.139301 0.7564661951 6.012886523e-21)
(100.0863676 0.4601490076 -1.35637423e-20)
(100.139704 0.6315793497 -1.356268842e-20)
(100.1927544 0.6743396916 1.370306006e-20)
(100.1177875 0.5177023133 -2.759263354e-20)
(100.0977227 0.421740257 1.199014715e-20)
(100.1341111 0.4447472872 -1.654450166e-20)
(100.0785001 0.3417405944 2.417355951e-20)
(100.0593037 0.3050517753 2.683475213e-20)
(100.0687509 0.198237123 2.248557711e-20)
(100.1582932 0.3115638076 -1.488502062e-22)
(100.1246749 0.3594975966 4.778222662e-20)
(100.0733497 0.2840654981 2.555726546e-21)
(100.0475589 0.1130728081 -7.139523398e-22)
(100.1076663 0.186264259 3.219102631e-20)
(100.0368035 0.05120934693 -7.510766771e-21)
(100.0779971 0.09740232396 -1.7060856e-20)
(100.0652708 0.03028565661 7.623590976e-21)
(99.93378163 0.04385366177 -2.807175253e-20)
(99.91791895 0.01960913643 -1.403096254e-20)
(99.90377892 0.1038913115 -6.065635776e-20)
(99.88954542 0.06723723126 1.270250897e-20)
(99.84882128 0.197754587 1.174256049e-20)
(99.82912453 0.1430793091 -5.133262671e-20)
(99.79493343 0.3294776566 3.094334512e-20)
(99.73025136 0.264596934 5.572232924e-20)
(99.72465534 0.3607979661 -4.723802096e-20)
(99.82661036 0.3446177885 -9.209469619e-21)
(99.73324899 0.3963038022 -6.804755465e-20)
(99.75826769 0.429318388 -4.603258402e-21)
(99.73457531 0.5688762169 -8.904978797e-21)
(99.70073574 0.5549684902 -4.434875197e-21)
(99.59186849 0.6670506665 3.11632853e-20)
(99.63528705 0.707772491 8.700882383e-21)
(99.61566789 0.9005273597 -7.679775583e-21)
(99.56155774 0.8926615652 5.706755918e-21)
(99.40826868 1.071824736 -4.383014447e-20)
(99.52266718 1.073604281 3.033363936e-21)
(99.44403278 1.155256505 -1.902265961e-20)
(99.51415064 1.309702378 -7.730883336e-21)
(99.47236371 1.314071327 0)
(99.384496 1.448004636 8.053397137e-21)
(99.43590219 1.452626762 -7.676473005e-21)
(99.39179555 1.906781652 3.696961569e-21)
(99.33148628 1.931144695 1.446692384e-20)
(99.22709186 2.123285472 7.154777411e-21)
(99.30337815 2.107171367 1.794218106e-20)
(99.33973143 2.613533334 2.548597228e-20)
(99.25838187 2.675229953 6.107037136e-21)
(99.1570622 2.927747754 -5.663068433e-20)
(99.25952374 2.869760839 -3.970975819e-20)
(99.41297732 3.329335982 0)
(99.32015618 3.449279153 0)
(99.244506 3.753077669 -1.612686198e-19)
(99.36286533 3.627073565 -9.293141719e-21)
(99.65206695 3.888610964 -1.755335889e-19)
(99.56511888 4.087585391 3.343296967e-20)
(99.54673851 4.417231775 2.20298866e-20)
(99.65596335 4.198545418 -1.189344742e-20)
(100.014872 4.097118159 -9.529161861e-21)
(99.97159095 4.377361301 5.629863894e-20)
(100.0200064 4.678111944 1.724301685e-21)
(100.0794739 4.370849993 -3.530688332e-21)
(100.3738512 3.857282121 7.066753551e-20)
(100.3865173 4.182053264 4.647322437e-20)
(100.4888666 4.403937052 -2.113284327e-20)
(100.4701053 4.056963338 -1.878408301e-21)
(100.5754921 3.266159261 7.317687514e-20)
(100.6410194 3.574256206 5.150033714e-20)
(100.748756 3.703155113 -5.411382425e-20)
(100.6711023 3.38649933 -1.065645666e-21)
(100.6186744 2.56720309 3.312555803e-21)
(100.7028637 2.817794766 -9.628463126e-21)
(100.7928466 2.878810562 2.208902518e-21)
(100.698763 2.631278861 7.022762828e-21)
(100.5610636 1.90688145 -6.721478351e-21)
(100.6486115 2.103835787 -1.577220557e-20)
(100.7165166 2.127838275 -5.433901878e-21)
(100.6214358 1.937599437 5.905280478e-21)
(100.5283451 1.49343215 -1.834419112e-20)
(100.4528757 1.349655058 -1.232801132e-20)
(100.5761426 1.49653748 -1.234463614e-20)
(100.4983116 1.361429362 6.534297496e-21)
(100.338681 0.8699334273 -5.365154109e-20)
(100.4567568 1.067701698 -2.812831201e-20)
(100.5235921 1.041571271 -8.140276305e-20)
(100.3883483 0.870622132 -3.885807862e-20)
(100.2386614 0.5702644283 -6.064655075e-20)
(100.3263088 0.7043964163 2.423131999e-20)
(100.368895 0.6759174443 -2.879187043e-20)
(100.2702594 0.5656746966 -2.515842295e-20)
(100.1897749 0.2957768949 1.015968238e-20)
(100.3296549 0.4018522504 -2.564717306e-20)
(100.3182706 0.498569513 -1.219808373e-22)
(100.237442 0.4583508555 -1.474780113e-20)
(100.1329821 0.1677151117 1.509378355e-20)
(100.2281175 0.2376073927 2.678107512e-20)
(100.1023374 0.0753729415 -1.91433315e-21)
(100.1651099 0.1229706418 -3.856751037e-21)
(100.1363524 0.03793813356 0)
(99.88136383 0.04165702303 2.819021943e-20)
(99.87865253 0.01345710138 -4.710526015e-21)
(99.82424651 0.1034835777 2.37698446e-20)
(99.83126806 0.05006279861 3.294441686e-20)
(99.72166313 0.2080025036 -9.437059289e-21)
(99.73064711 0.1200890423 -4.637597113e-21)
(99.59391244 0.3800363937 0)
(99.56748658 0.2389381249 7.21488694e-21)
(99.50973958 0.3824577919 2.187041058e-20)
(99.61906582 0.4283540851 -6.364989603e-20)
(99.49691225 0.4363648521 1.644303693e-20)
(99.5102554 0.5099961541 0)
(99.42446293 0.7360034478 1.738857986e-22)
(99.39750575 0.6719885037 -3.604355246e-20)
(99.23688592 0.7711855716 -3.601930495e-20)
(99.26509891 0.8723663152 7.294828108e-20)
(99.16032091 1.205845068 -1.081514342e-19)
(99.1123515 1.117791958 4.128412332e-20)
(98.88329902 1.289432987 -7.244474226e-20)
(98.99881874 1.402482028 -3.609431507e-20)
(98.88703483 1.430908895 -5.919918862e-20)
(98.90287082 1.799566094 8.481129953e-21)
(98.85461676 1.751249513 1.682482056e-20)
(98.71366296 1.889225575 4.269459239e-20)
(98.76888594 1.953496751 8.411490353e-21)
(98.60927375 2.696507466 -6.560232957e-20)
(98.52770996 2.651996431 -2.428508666e-20)
(98.36150894 2.854173041 -3.193368711e-20)
(98.45862954 2.915878953 9.807279448e-20)
(98.44558644 3.801928609 -1.103311716e-19)
(98.3190979 3.783061185 -2.435404639e-21)
(98.15025952 4.060845887 1.204808006e-19)
(98.30225589 4.093122961 1.208204592e-19)
(98.54738645 5.016386049 3.541227166e-19)
(98.37372585 5.060715299 3.515812221e-19)
(98.23731303 5.428893179 8.050075954e-19)
(98.44783242 5.383754873 -2.509655588e-20)
(99.06274143 6.110774759 -1.699576241e-20)
(98.86024698 6.277083602 4.085178057e-21)
(98.82444055 6.719206664 -5.501074085e-19)
(99.06488136 6.521373491 -2.143544256e-19)
(99.9949484 6.634236968 4.013395187e-20)
(99.83830539 6.965437849 -2.174057595e-19)
(99.96027344 7.379511455 0)
(100.1246618 6.990243429 -4.810997451e-21)
(100.9503311 6.236480254 -2.006990271e-19)
(100.928663 6.674599735 -2.339530456e-20)
(101.1514089 6.932395372 9.912113338e-20)
(101.1456055 6.447294734 -1.296398326e-19)
(101.4603809 5.111353803 2.347607254e-19)
(101.5687333 5.532654634 2.167732974e-19)
(101.7764997 5.620013037 2.119335696e-19)
(101.632615 5.184426667 2.966978219e-20)
(101.4873361 3.816270534 -2.613867554e-19)
(101.6449839 4.140148917 7.866582906e-20)
(101.7872009 4.129747394 -1.535479164e-19)
(101.607115 3.813293459 1.376824293e-20)
(101.2923814 2.725130992 4.806729347e-20)
(101.435618 2.944860957 2.273774005e-20)
(101.5246434 2.895700682 2.362018002e-21)
(101.3697074 2.69343828 2.223933105e-19)
(101.1572695 2.036127504 0)
(101.0333753 1.881250598 4.940552787e-20)
(101.2133549 1.986863931 0)
(101.082522 1.844554234 0)
(100.7444108 1.181694392 2.93206252e-20)
(100.9386546 1.387906354 1.906057099e-20)
(100.9961772 1.28316922 -1.636213642e-20)
(100.7941705 1.119319557 3.674826883e-20)
(100.5246817 0.7577198768 -3.333839621e-20)
(100.6665266 0.8946254316 -1.490373345e-20)
(100.6996218 0.8129338211 -1.502456321e-20)
(100.5556921 0.7080883292 -7.343817617e-21)
(100.3565019 0.3418089772 -9.434199546e-21)
(100.5409082 0.4193278123 -1.920141758e-20)
(100.5790182 0.5759710362 -2.546705804e-21)
(100.4771241 0.5570807777 5.917556179e-21)
(100.2499428 0.1904168526 7.691305021e-21)
(100.3708188 0.2430021703 1.166594333e-20)
(100.1905933 0.08439571446 -1.942074129e-21)
(100.2650907 0.1220631713 -3.422705485e-21)
(100.2159415 0.03705288226 -4.906077848e-22)
(99.83671021 0.02132938923 0)
(99.85855906 -0.001773803108 0)
(99.74790524 0.06462189605 4.786261827e-21)
(99.79051322 0.004066710147 0)
(99.58833364 0.1536447329 1.218424189e-20)
(99.64682355 0.0448948328 -3.732582469e-21)
(99.36998329 0.3471940969 2.004091729e-20)
(99.40738986 0.1338956414 2.678599615e-20)
(99.28822451 0.3005537965 -8.063631854e-21)
(99.37295634 0.4184924365 2.832717177e-20)
(99.24626273 0.3723859263 2.260484635e-21)
(99.22499268 0.482368384 -1.149321175e-20)
(99.03627804 0.76736329 0)
(99.03738735 0.6566410734 -2.382893765e-20)
(98.82972543 0.7195990266 -1.961934421e-20)
(98.81523822 0.8771768457 4.862062902e-21)
(98.57593215 1.312155978 0)
(98.5574686 1.1552949 4.861542353e-21)
(98.25473144 1.268328162 -5.04474735e-21)
(98.31982924 1.500484348 2.415121985e-20)
(98.19307367 1.495151359 6.287738031e-21)
(98.08208149 2.033125666 2.767686256e-19)
(98.04613848 1.923908586 0)
(97.8531269 2.037079296 0)
(97.89175801 2.166713552 3.532469566e-21)
(97.50648212 3.179135806 -2.954720655e-19)
(97.42406887 3.047198188 3.124814321e-19)
(97.18943765 3.218949143 3.086204748e-19)
(97.28012151 3.386455753 1.253341852e-18)
(97.0731743 4.685231124 -6.267412474e-19)
(96.91829947 4.550998173 9.422687118e-19)
(96.64862999 4.82529841 -3.256993209e-19)
(96.83025381 4.993068155 -1.782361957e-19)
(96.99711181 6.591547443 -4.495640267e-19)
(96.73314745 6.49624059 -1.017707763e-18)
(96.45933217 6.934091376 -4.798292528e-19)
(96.78374191 7.051630548 -5.494410712e-19)
(97.74314842 8.708222225 1.059132479e-18)
(97.34480908 8.779189939 1.522441883e-19)
(97.21343396 9.431963311 -2.712569126e-19)
(97.70585974 9.318836622 7.808107413e-19)
(99.71409108 10.03977616 2.302857592e-19)
(99.32384046 10.45584217 5.525874547e-20)
(99.56436722 11.12346623 2.495600927e-19)
(99.98272487 10.58097079 3.572788983e-20)
(101.9622418 9.391553966 -8.179141135e-20)
(101.8630286 10.05366826 -8.128688012e-20)
(102.3344742 10.37024479 3.895349745e-19)
(102.3592128 9.617504825 2.524760766e-19)
(103.0488422 7.27886459 8.242331872e-19)
(103.242458 7.884741107 1.798097858e-21)
(103.6110498 7.867877539 2.635578932e-19)
(103.3421362 7.253750543 5.74595593e-19)
(102.9401365 5.025141974 4.509627321e-19)
(103.2265841 5.443479044 1.992664013e-19)
(103.4296609 5.303992418 -1.859785063e-20)
(103.1018848 4.911488962 -2.148838693e-19)
(102.3736921 3.336117256 -1.031078127e-19)
(102.6197143 3.584271171 2.028537613e-19)
(102.7076138 3.448140977 0)
(102.4510936 3.224094212 -2.264777856e-19)
(101.9977654 2.3549793 -1.479784799e-20)
(101.821141 2.206986221 -3.781481417e-21)
(102.0432756 2.245067265 4.129021049e-20)
(101.8634451 2.117967113 2.259552936e-20)
(101.2741658 1.340135554 -9.344236052e-20)
(101.5493064 1.532785759 -5.90661688e-20)
(101.5728628 1.346358971 -3.295877911e-20)
(101.3027059 1.214323467 -1.68072568e-20)
(100.8886804 0.835706061 1.146917626e-20)
(101.0864487 0.9539413829 3.468423556e-20)
(101.0880986 0.8221870633 -3.857919164e-21)
(100.9007531 0.7413809871 -3.787107719e-21)
(100.5427747 0.3223078197 1.97114804e-21)
(100.7614062 0.3495929308 0)
(100.8676098 0.545312167 -6.117015618e-23)
(100.7590741 0.567588331 -1.029056047e-20)
(100.3754814 0.1724186388 4.400668458e-22)
(100.5121289 0.1926346206 1.970970333e-21)
(100.2816506 0.07398067185 -1.973650622e-21)
(100.3579221 0.08955199727 -1.975753883e-21)
(100.2857149 0.02612199806 -1.973208418e-21)
(99.82013032 -0.01896557086 0)
(99.87647482 -0.02618465033 2.347207096e-21)
(99.69933111 -0.01639822812 -9.57374442e-21)
(99.78818306 -0.07081410017 -2.366656969e-21)
(99.48070107 0.02800092132 1.00061908e-20)
(99.60513432 -0.0842023667 -4.735270818e-21)
(99.16127561 0.1829999355 1.305482574e-20)
(99.29681145 -0.0538485636 4.301271759e-21)
(99.09089117 0.1086712143 -5.449759575e-23)
(99.13323372 0.2954591345 -9.656844916e-21)
(99.00766128 0.1897796098 -9.819419643e-21)
(98.94652089 0.3164564094 0)
(98.62627319 0.6244484421 -1.961885988e-20)
(98.67552025 0.4760189394 0)
(98.43477955 0.4815145527 -1.486983959e-22)
(98.35210319 0.6805292585 -1.094122144e-22)
(97.93133586 1.152727378 1.019138378e-20)
(97.97512002 0.9415902488 1.524959606e-20)
(97.62189812 0.9652281595 2.064131683e-20)
(97.60340367 1.31311599 -3.05585179e-20)
(97.48291383 1.230533914 -1.758734232e-20)
(97.14766441 1.900137964 5.029180045e-19)
(97.15380915 1.73940859 2.658433177e-19)
(96.91507117 1.797717247 -3.901123019e-21)
(96.90311353 1.98933347 3.414818786e-19)
(96.1831407 3.113461968 7.431133372e-19)
(96.13534016 2.909972707 7.706993014e-19)
(95.82682597 3.003712226 -1.585922413e-18)
(95.87724641 3.288559509 5.066432043e-19)
(95.19500233 4.904030917 -1.829659819e-19)
(95.07459103 4.630285258 1.76546625e-19)
(94.67115199 4.803518471 3.832179637e-19)
(94.80570085 5.176320368 1.792266611e-19)
(94.38834253 7.659462139 0)
(94.07947019 7.294580914 -1.344275443e-18)
(93.53376899 7.739776379 -1.432300629e-18)
(93.91388999 8.195384717 1.252045517e-18)
(94.80813976 11.78304944 -2.871995075e-19)
(94.0928541 11.55015278 2.747227344e-19)
(93.61016819 12.59762942 -3.053193228e-19)
(94.57031053 12.82638003 -7.642579477e-19)
(98.79543768 15.37774971 -1.702828692e-19)
(97.86179528 15.96335605 2.361803844e-19)
(98.41809311 17.31100793 1.787474774e-19)
(99.4434928 16.37432398 0)
(104.0742537 13.93526758 2.500600634e-19)
(103.9094304 15.08531105 3.147516992e-19)
(105.0041291 15.36726668 -1.377717156e-19)
(104.9235127 14.06506275 -1.11595828e-19)
(105.9188813 9.637021945 4.468108568e-19)
(106.3378097 10.50954175 4.42341133e-20)
(106.9602442 10.19176627 9.421544224e-19)
(106.3778796 9.365983357 -2.038746063e-20)
(105.2298084 5.993661949 4.542634125e-19)
(105.7301969 6.436655936 -4.641363981e-19)
(105.926678 6.133506172 7.887719844e-19)
(105.375971 5.669725932 -4.608495974e-19)
(103.8501087 3.62333997 0)
(104.238273 3.872562148 4.753469368e-19)
(104.2756359 3.613554787 2.44327497e-19)
(103.8861275 3.41119607 0)
(102.9979576 2.352768026 0)
(102.7496535 2.233505367 8.029661661e-21)
(103.0000841 2.182962924 0)
(102.760363 2.086137917 -3.259453443e-20)
(101.8805692 1.293986952 2.713722384e-20)
(102.2252534 1.429608395 -2.165017322e-22)
(102.1837722 1.176824186 1.633778278e-20)
(101.8590335 1.106210277 1.219020312e-20)
(101.2869449 0.7685152704 -1.595143639e-20)
(101.5355977 0.8451626302 -8.108425587e-21)
(101.4831519 0.6727342884 -8.10999648e-21)
(101.2604597 0.6364355231 1.230092908e-20)
(100.7176376 0.2247455292 0)
(100.9566166 0.187363288 1.292949794e-21)
(101.1417797 0.3943336536 -1.086597594e-20)
(101.0442033 0.4693264049 2.700665365e-20)
(100.4838236 0.1081434899 -4.954302612e-22)
(100.6220169 0.08143399454 -1.530819365e-21)
(100.3534593 0.04180268072 -1.981855115e-21)
(100.4204563 0.0238363286 -2.236010227e-21)
(100.3251315 0.004736087128 2.547260084e-21)
(99.85143991 -0.07731597517 -1.87014216e-23)
(99.94942476 -0.05863724542 1.061709996e-22)
(99.70262644 -0.1372733179 2.468193126e-21)
(99.84481664 -0.1704828206 -1.283219008e-22)
(99.43240825 -0.1636155255 -1.289881619e-20)
(99.63016619 -0.2594722054 1.983054186e-21)
(99.00955504 -0.07258582746 -1.154277483e-20)
(99.26538905 -0.3154361035 -1.957468969e-20)
(98.97346885 -0.187269247 -1.675255488e-20)
(98.9316202 0.05221989057 -9.081499674e-21)
(98.84543924 -0.110389725 -3.67202965e-21)
(98.72584075 0.01889954677 3.458020245e-23)
(98.26670435 0.292047201 1.488771562e-20)
(98.37989236 0.125509119 1.522443674e-20)
(98.13217015 0.0589558597 7.510724058e-21)
(97.96911007 0.2681133323 2.600438714e-20)
(97.35207878 0.7049416036 -2.61998508e-20)
(97.48762573 0.4521539658 -2.103327936e-20)
(97.12805958 0.3739157597 1.22622847e-20)
(96.96209478 0.7536213322 -2.090996901e-20)
(96.86649123 0.6317638192 -2.081130072e-20)
(96.26734856 1.322292082 1.821178377e-19)
(96.3353612 1.12668351 -7.446276299e-19)
(96.08031011 1.110870274 -3.798699505e-19)
(95.99241995 1.334813474 4.5225054e-19)
(94.83625317 2.402270752 9.043309157e-19)
(94.87857305 2.118232204 -4.132729259e-19)
(94.54127576 2.113808646 9.569441321e-19)
(94.47372273 2.440387901 -1.347335181e-18)
(93.06093311 4.093333939 1.822940828e-18)
(93.07063793 3.664550506 0)
(92.56169431 3.697446856 -1.226588285e-19)
(92.51353725 4.193461205 0)
(90.56468115 7.160119769 2.649637281e-19)
(90.45660232 6.435189669 9.403292376e-19)
(89.53125891 6.618026986 -9.65291564e-19)
(89.61920449 7.537081004 -4.117634956e-19)
(87.87946164 14.42271436 0)
(86.96423886 13.07152829 0)
(84.95951529 14.79438701 0)
(85.19060499 13.85662888 0)
(86.96714422 16.13677944 -2.164730506e-18)
(85.83740252 16.18185759 1.08415889e-18)
(93.77339501 26.80731614 2.993395268e-20)
(95.26295493 26.26815532 1.438515826e-19)
(94.43304147 28.74669831 2.08344581e-19)
(96.21898995 27.73734657 1.90614301e-19)
(110.1062238 22.14644467 5.688411964e-19)
(110.1558379 20.1865948 5.415909476e-19)
(111.8822182 19.51237292 1.570244986e-18)
(111.1260764 22.81028489 5.694221457e-19)
(113.2692199 21.32092435 5.592736232e-19)
(112.9057936 22.25347291 -4.643562197e-19)
(112.0154201 12.37187427 0)
(110.9949437 11.32967418 0)
(112.6434375 11.35484311 0)
(111.457635 10.57147046 -3.769500829e-19)
(108.3393427 6.087159464 0)
(109.1734027 6.531673085 3.595046531e-20)
(109.214884 5.870046788 3.426553919e-19)
(108.372361 5.567562133 0)
(105.6348231 3.307364985 -8.154711628e-19)
(106.1867383 3.485186969 -8.348302005e-19)
(106.0959009 3.104009939 -2.783556045e-19)
(105.5684582 2.99565762 -5.498561101e-19)
(104.0769427 1.928516504 2.057069059e-19)
(103.748727 1.868187405 3.338261384e-19)
(103.9978053 1.705831902 2.718134087e-19)
(103.6893976 1.665111336 1.366076711e-19)
(102.4681957 0.9916377527 4.254870883e-21)
(102.8666534 1.028005837 9.551269677e-21)
(102.7195076 0.7388849315 -2.404450029e-21)
(102.3725544 0.7608556668 -4.378064754e-21)
(101.6628054 0.5323492349 4.350253184e-21)
(101.946478 0.5464294461 -2.456836834e-23)
(101.8247326 0.3514804223 -7.165639763e-21)
(101.5811257 0.3745199722 8.761723945e-21)
(100.845123 0.04783291021 -2.130107597e-22)
(101.0750009 -0.06275664174 -2.749724359e-22)
(101.3593061 0.1204079524 8.424084257e-22)
(101.2857938 0.2266283413 6.471986054e-21)
(100.5481058 -0.003075553305 -3.27578985e-21)
(100.6699187 -0.08705626785 -2.466722219e-22)
(100.3838828 -0.01245026938 2.459471369e-21)
(100.4292443 -0.07225529535 -2.151392984e-21)
(100.3133711 -0.02634848371 4.035011859e-22)
(99.94789531 -0.1504217713 1.955096151e-23)
(100.0913247 -0.09678028941 -3.480094804e-21)
(99.77861561 -0.2893962514 -6.426393124e-22)
(99.97594303 -0.2876136098 1.515016343e-21)
(99.47123216 -0.407655563 -5.017262236e-21)
(99.74181109 -0.4668583741 -3.301648842e-21)
(98.96527002 -0.4165014972 1.037777129e-20)
(99.34230687 -0.6275594515 -1.144091783e-21)
(98.97561885 -0.5616263865 1.094987618e-21)
(98.82865314 -0.298777958 5.107625641e-21)
(98.8059805 -0.5021780729 1.05375562e-20)
(98.6265113 -0.3923125779 7.451062539e-21)
(98.04234438 -0.2101618269 -2.529842891e-21)
(98.22692341 -0.3672129573 3.957277656e-21)
(98.00261447 -0.5079279611 2.611664556e-21)
(97.75780269 -0.3248692518 7.925554958e-21)
(96.9653758 -0.01519393194 -2.383565207e-21)
(97.20387357 -0.2608865858 -4.424576383e-20)
(96.87509946 -0.4463234631 -4.116227701e-20)
(96.54855364 -0.07557885592 -2.760569009e-19)
(96.50630587 -0.248271662 9.583348029e-20)
(95.64383545 0.3389852378 -1.997326275e-21)
(95.78574037 0.142169882 -9.760042203e-20)
(95.5460601 0.04573675756 6.343259764e-19)
(95.37388373 0.2618382424 9.99384129e-19)
(93.84985297 1.022675765 -9.667530359e-19)
(94.00765562 0.7276187031 9.355892833e-19)
(93.69177949 0.6019822963 -9.953365263e-19)
(93.49047756 0.9193885253 2.23941415e-20)
(91.37652785 2.068610544 1.618170366e-22)
(91.60775897 1.619577651 -3.921896759e-19)
(91.12570523 1.42566148 -1.304107548e-19)
(90.81294212 1.904505106 -1.326734485e-19)
(87.05940562 3.790517872 5.60694974e-19)
(87.51675985 2.987647714 -1.204467967e-20)
(86.64782558 2.584979552 0)
(85.93892184 3.445964695 2.884757885e-19)
(77.89673135 7.057298759 0)
(78.5351372 5.981796881 -2.53194104e-18)
(77.48736889 5.297595381 0)
(76.51401599 6.439692375 -7.040863026e-19)
(128.9409695 24.32639628 -5.211638624e-18)
(126.8130412 23.30361951 -2.297352016e-18)
(129.4872008 22.08519714 -2.503750215e-18)
(127.460473 21.5331109 -3.368575262e-18)
(119.9970171 10.00370797 0)
(118.1040325 9.561602974 -1.048429463e-18)
(119.7804239 8.254317541 1.366942442e-18)
(118.0418629 8.228469848 5.444142645e-19)
(111.8128332 4.476453951 7.701946676e-19)
(112.959409 4.594661946 7.615901982e-19)
(112.5648685 3.748154114 9.22377434e-19)
(111.5309475 3.791013161 -2.945645806e-19)
(107.368823 2.14952135 -2.849504813e-19)
(108.0386399 2.148772688 -6.117979336e-19)
(107.7227535 1.720931098 -1.238934757e-18)
(107.1234149 1.782567984 -6.06475549e-19)
(105.0183436 1.015726614 0)
(104.6415237 1.05010372 -6.411341108e-19)
(104.8295615 0.7774502981 5.882154764e-19)
(104.490353 0.8306460548 0)
(102.9260248 0.4252126777 -4.693225368e-21)
(103.3467798 0.3459547344 -2.305540095e-21)
(103.0763796 0.05937377821 7.376858054e-21)
(102.7417194 0.1859971864 1.119785721e-21)
(101.9482806 0.1330223076 -1.997199252e-21)
(102.2352214 0.06607356095 1.321628457e-20)
(102.034259 -0.1180943167 4.899481496e-21)
(101.8009316 -0.02528297762 9.700490459e-21)
(100.8890861 -0.1944245702 -3.374440784e-22)
(101.0856215 -0.3832268204 -1.033855606e-21)
(101.462206 -0.254637219 -1.04500644e-21)
(101.4356613 -0.11123015 -1.143753187e-21)
(100.5428814 -0.1540778783 1.057404103e-21)
(100.631743 -0.2994542785 1.284498676e-21)
(100.3520599 -0.08484588014 -4.173064701e-21)
(100.3638791 -0.1916976478 1.642810982e-21)
(100.2333163 -0.06507606064 -2.056966583e-21)
(100.1219352 -0.2323257211 -1.984585306e-21)
(100.3104805 -0.1375227429 1.100661713e-21)
(99.94215875 -0.4604070911 -1.159872847e-21)
(100.1911297 -0.412668034 -8.117711861e-22)
(99.61657615 -0.6828597688 5.953028162e-22)
(99.95170799 -0.6883315776 -2.923046327e-22)
(99.05720967 -0.8144565704 6.829068443e-22)
(99.54297823 -0.9618193284 9.81269065e-22)
(99.12110106 -0.9765514781 5.917985279e-22)
(98.86250094 -0.7225198259 1.719774348e-21)
(98.91800421 -0.9465645856 -1.769759277e-23)
(98.68607586 -0.873153662 -1.770010992e-23)
(98.01837518 -0.8253169162 -2.605174954e-21)
(98.26615021 -0.9473724045 0)
(98.09071284 -1.152395167 -1.279347908e-21)
(97.77742001 -1.023854617 -1.367234418e-21)
(96.86279526 -0.9040612767 7.098380776e-21)
(97.19472828 -1.100090093 2.243012315e-23)
(96.93185282 -1.371629271 -1.477352213e-21)
(96.46870244 -1.071380464 6.532614361e-20)
(96.49203291 -1.268533755 -6.379191202e-20)
(95.43843206 -0.8892210607 -7.488362542e-19)
(95.64417423 -1.054287479 -1.507621714e-19)
(95.45893185 -1.210861624 -1.091700591e-19)
(95.20560369 -1.042173017 1.139913835e-19)
(93.51672643 -0.7245721594 5.372578137e-19)
(93.76472483 -0.9619488939 1.557740534e-18)
(93.54603113 -1.16658133 5.307758455e-19)
(93.22555093 -0.9291227702 5.07296097e-19)
(90.9039226 -0.5602797993 -1.429029411e-21)
(91.30361504 -0.8745959746 2.606345456e-21)
(90.98598885 -1.188244588 -1.660033702e-20)
(90.51341885 -0.8957474699 5.030201005e-19)
(86.67653817 -0.8465200414 -1.071431168e-18)
(87.42904608 -1.228675465 -4.957292647e-19)
(86.97196752 -1.799243206 2.246006714e-20)
(86.1026527 -1.515890413 -1.074494973e-18)
(80.53284369 -3.268450221 6.568379253e-19)
(81.25722949 -3.307161294 1.251720056e-18)
(81.1561307 -3.871527858 1.235447402e-18)
(80.4787629 -3.954624 6.381066868e-19)
(141.9982877 4.963347015 2.661043174e-18)
(140.2568803 6.11283812 0)
(140.5116977 3.584028928 0)
(139.0598908 4.71286984 0)
(125.0437022 1.872915794 3.144927993e-18)
(123.2088966 2.676633337 1.530328228e-19)
(123.6628892 0.5362956868 1.503241596e-18)
(122.2308196 1.441563361 3.163683268e-18)
(114.2091856 0.920353453 3.363483048e-20)
(115.3650917 0.5118016152 -4.260390561e-19)
(114.4834219 -0.1612558741 -4.314751309e-19)
(113.5305444 0.3104215144 -3.494903019e-20)
(108.5118522 0.1627470037 3.390394273e-19)
(109.1879695 -0.0770823457 -3.30232922e-19)
(108.6500134 -0.4199913945 3.410841227e-19)
(108.0782945 -0.1553501873 6.279404582e-19)
(105.5583575 -0.3095665125 0)
(105.1896546 -0.1604863872 -5.570012222e-19)