/*--------------------------------*- C++ -*----------------------------------*\
| =========                 |                                                 |
| \\      /  F ield         | OpenFOAM: The Open Source CFD Toolbox           |
|  \\    /   O peration     | Version:  v1912                                 |
|   \\  /    A nd           | Website:  www.openfoam.com                      |
|    \\/     M anipulation  |                                                 |
\*---------------------------------------------------------------------------*/
FoamFile
{
    version     2.0;
    format      ascii;
    class       volScalarField;
    location    "2.26";
    object      p;
}
// * * * * * * * * * * * * * * * * * * * * * * * * * * * * * * * * * * * * * //

dimensions      [0 2 -2 0 0 0 0];


internalField   nonuniform List<scalar> 
12556
(
869.9287057
868.4414019
864.9667101
858.1163817
848.8201708
829.5081222
798.7288871
750.6714992
679.9231564
580.2014871
447.5840391
283.4725561
96.66856099
-96.02395991
-276.0110665
-430.2150427
-553.5239244
-646.762199
-714.0917838
-760.3393221
-798.2575698
-815.0111739
-824.5495644
-828.8835808
870.8618239
869.7931379
867.1508784
861.7994723
852.4655128
835.7777453
808.2387039
769.0964453
704.9505272
611.6800676
483.2161752
318.2658177
125.4320686
-76.38245498
-267.0927242
-429.1089632
-556.35409
-651.0836736
-725.3956837
-768.347024
-805.270694
-819.6690777
-827.9339934
-831.6728663
873.0810051
872.9301863
872.2258013
870.1564572
863.1429319
852.4080931
832.7152889
798.4117249
743.6575617
657.7381652
528.4295927
350.2346293
132.9884013
-95.85180109
-304.0422112
-473.2002066
-598.8976465
-686.3211897
-756.3083809
-790.8896662
-821.3291681
-830.7479904
-836.1594299
-838.4906915
875.8530066
877.0008242
879.0583807
881.3575009
879.0885538
876.71141
869.2591795
846.3859078
809.3391852
738.4697547
613.8297797
415.8530151
147.3757885
-141.6137862
-386.0011589
-560.6542622
-676.7050241
-750.0396257
-803.8933141
-824.7954666
-843.9388084
-846.8883113
-847.9924124
-848.2592716
877.81113
880.4457501
885.7364942
893.1126039
896.9683017
905.4083412
913.5699765
910.1605051
899.8165501
860.9469815
761.9923203
546.6970178
177.9198627
-237.5262749
-541.0173358
-713.4794909
-798.4458412
-838.7335523
-865.4308504
-867.3257291
-870.0861511
-864.9354059
-860.8236089
-858.6538918
877.4871067
881.6100249
890.1385154
903.1654264
912.9120763
933.9173834
960.0423002
980.047439
1009.586364
1029.688998
1007.385571
823.6577484
244.2932445
-470.0421358
-836.5861618
-949.6370011
-963.2734461
-949.6621987
-935.9737155
-913.3535417
-896.0198877
-881.7965683
-871.9871058
-867.2506071
873.4643058
878.9046268
890.1794957
908.0686846
925.141773
956.9320937
1000.339849
1044.717481
1117.278583
1216.782521
1355.928828
1469.763079
482.5778833
-1170.43714
-1359.40921
-1272.777585
-1160.684584
-1069.774511
-1006.109646
-956.2205035
-917.8059155
-894.006888
-878.8299555
-871.7065539
864.5141128
870.9113883
884.1514187
905.485941
928.7553245
968.8393632
1024.517195
1089.375478
1194.665893
1354.723893
1633.28572
2200.987074
-2982.952562
-2093.23851
-1627.175473
-1350.099857
-1177.513131
-1061.696055
-987.9638724
-929.2006349
-898.0042017
-878.7779179
-869.6739851
849.7011028
856.5713915
870.7565711
893.7188753
921.672547
965.7923457
1027.169941
1103.312129
1220.187783
1386.620368
1631.814372
1942.008056
-4389.529847
-2602.175042
-1866.177891
-1472.959745
-1243.574543
-1089.533737
-1000.07269
-926.4916069
-891.0498773
-869.5546153
-859.3116041
828.5171998
835.3285734
849.3383134
871.9493036
902.5371578
946.2852457
1006.391349
1083.283881
1192.003303
1334.082087
1507.142044
1670.959303
-4015.172127
-2569.707409
-1876.850457
-1482.2786
-1246.60631
-1080.56225
-987.8447501
-907.4244749
-871.5884485
-849.9034848
-839.5268912
800.9448516
807.2048316
819.9909207
840.3673327
871.6984415
911.2099377
964.4660176
1034.963577
1126.665703
1238.62401
1364.436108
1482.341722
-2999.436066
-2157.315292
-1684.015662
-1381.151468
-1185.658027
-1034.16279
-950.7709291
-871.970092
-839.5811509
-819.7569861
-810.2020943
767.4184457
772.7202171
783.5214165
799.8229894
831.1009813
862.926226
905.5056957
964.9738863
1035.87227
1119.154524
1213.721734
1327.155421
-1956.934854
-1608.275195
-1382.114732
-1206.697235
-1076.055194
-957.5738651
-892.6415085
-822.1716904
-796.5725756
-780.1530635
-772.1801167
728.7789116
732.8548958
741.2947737
753.3024821
780.7302334
804.3740949
833.8467015
880.1614901
928.0705332
981.1696613
1039.723517
1138.461897
-785.4001683
-1009.475731
-1085.074769
-1062.575444
-1004.88654
-941.1621178
-862.6602554
-819.2718118
-763.3008038
-745.2412313
-732.9814587
-727.0618567
686.0727585
688.8165536
694.680551
702.6300189
725.0760622
740.1148342
756.4603636
787.5608881
811.7796766
831.6162387
840.7477372
865.8185807
250.4194051
-423.2443643
-684.6667233
-787.1407291
-812.4393064
-800.9754226
-761.5168024
-738.7679168
-699.2444725
-688.3947963
-680.5760073
-676.8766239
640.4850331
641.8226121
644.7805619
648.4255025
666.1105236
671.9026341
676.1730315
690.8487676
692.4951522
681.1344149
639.8536023
525.758509
221.0921771
-178.2734661
-437.3352853
-580.9646024
-648.8927928
-671.9174317
-662.27665
-657.6639676
-633.1192891
-628.8451896
-625.3371464
-623.7402298
593.2150739
593.2548387
593.4411804
593.0812746
606.1628061
604.0919878
598.3350103
598.3718286
581.4566139
547.5224011
481.0974431
360.8612121
161.0680972
-94.31691792
-300.9471677
-439.3772295
-519.6157684
-560.5637592
-571.5117304
-580.1475055
-567.9141999
-569.1853798
-569.4218073
-569.6123235
545.4326344
544.3878325
542.2509317
538.5634199
547.3290975
538.9650906
525.3543919
514.4517287
483.396118
435.8098903
362.1369158
257.028403
107.1070232
-68.54933582
-224.3313084
-341.7312821
-419.483219
-468.0788109
-491.1453952
-508.5844093
-505.907445
-511.450751
-514.6035025
-516.1400326
498.177878
496.2791472
492.3134057
486.0580335
491.1251392
478.154012
459.0982893
441.5830117
402.1508817
347.8522574
275.9812073
184.9904471
69.15706508
-59.1430499
-177.050178
-271.4307554
-341.3580765
-391.5949109
-421.5117713
-444.11811
-448.3736496
-456.8661011
-462.1298775
-464.6130698
452.272769
449.7417131
444.4202695
436.3261673
438.5166174
422.5251102
400.2663012
379.1722722
337.9657522
283.4995633
216.3989987
139.1579042
46.23841009
-51.69157984
-142.0822338
-219.4887055
-281.9208489
-330.1077578
-362.3008283
-387.1739746
-395.8628129
-406.1491524
-412.7669687
-415.9135017
408.329103
405.3774739
399.151329
389.8815552
389.985324
372.3173988
348.4123205
326.1590621
285.8057216
235.2670165
175.3554219
109.5104847
35.13873162
-42.7988765
-116.1288792
-181.1254554
-235.8430778
-280.1816418
-312.2046517
-337.3386977
-348.527367
-359.6878539
-367.030822
-370.524404
366.7705559
363.5878067
356.8618082
346.9763236
345.6966914
327.385792
303.1695328
281.1109616
243.0121505
197.1536085
144.7562241
88.63179199
27.293658
-36.42798002
-96.98860583
-151.8204089
-199.3652242
-239.183636
-269.695968
-293.8776575
-306.1939721
-317.5312327
-325.1066327
-328.7187869
327.8547799
324.5951737
317.705261
307.6690848
305.5015055
287.350496
263.7759654
242.6848289
207.5451225
166.4911383
120.7370716
72.73975871
21.34656849
-31.61885778
-82.24022316
-128.7324743
-169.8945957
-205.2220946
-233.3763164
-255.9910986
-268.4854055
-279.5133731
-286.9711721
-290.5346533
291.6935754
288.4747595
281.6760002
271.8441369
269.1903351
251.7450378
229.5118069
209.7268907
177.8296033
141.3919934
101.4659628
60.24339016
16.76730193
-27.75726811
-70.45298424
-110.0476407
-145.6289585
-176.722929
-202.1877773
-222.8986
-234.9457806
-245.354006
-252.4626725
-255.8641984
258.2821904
255.190488
248.6656983
239.2889779
236.4555152
220.0704872
199.5172333
181.3113236
152.671439
120.5254693
85.71842357
50.20328325
13.19929175
-24.50986729
-60.74464661
-94.5724577
-125.2993683
-152.5130225
-175.2263454
-193.9015216
-205.1139706
-214.720463
-221.3352215
-224.5030234
227.5325635
224.6289104
218.5041814
209.7497233
206.965945
191.8568323
173.1364296
156.6522064
131.161377
102.9396329
72.64608996
41.9990472
10.39475011
-21.68532549
-52.55157011
-81.50220179
-108.0044725
-131.7118578
-151.7513729
-168.3891977
-178.5475582
-187.2600562
-193.2988494
-196.1917894
199.3001363
196.6249396
190.9827316
182.954497
180.383495
166.6620302
149.8281848
135.1041655
112.5944302
87.93600136
61.64109464
35.19791249
8.175371141
-19.16708425
-45.49769321
-70.2760287
-93.08856981
-113.6488747
-131.1624003
-145.8353828
-154.83316
-162.6203537
-168.0462145
-170.645314
173.3999688
170.9775077
165.8669178
158.622368
156.3817856
144.0891082
129.1285753
116.1425964
96.42121831
74.99372465
52.26074096
29.4885316
6.410258157
-16.88086785
-39.3235963
-60.49360708
-80.06685471
-97.8086168
-112.9734971
-125.7927045
-133.5909704
-140.4607543
-145.2672371
-147.568618
149.6203309
147.4629576
142.9085391
136.4723053
134.6451839
123.7773143
110.637432
99.33377668
82.20390062
63.71161222
44.17125349
24.63935451
5.000943863
-14.77641021
-33.84224394
-51.85835918
-68.56923331
-83.78407096
-96.78214269
-107.874171
-114.4762096
-120.4596499
-124.6593495
-126.6686079
127.7358378
125.8477229
121.8571035
116.2316346
114.8785667
105.4044092
94.01212899
84.31664799
69.59073752
53.77593944
37.11714577
20.47532565
3.872363545
-12.81801787
-28.91487935
-44.14549001
-58.3080066
-71.24982394
-82.25507293
-91.74777201
-97.17856948
-102.3190349
-105.9352925
-107.6633517
107.5154915
105.8953873
102.4651336
97.6388689
96.80499237
88.67940969
78.97366164
70.77975924
58.29226301
44.93375327
30.89475374
16.85954839
2.966194952
-10.9787363
-24.43406114
-37.17821705
-49.05147769
-59.93313293
-69.11281448
-77.12461402
-81.41853023
-85.76408854
-88.82539203
-90.28583312
88.72387389
87.36796185
84.48855319
80.4392203
80.17211627
73.33562498
65.27327487
58.46912453
48.07028736
36.97905494
25.34219809
13.68129655
2.235995078
-9.237170722
-20.31420067
-30.81484649
-40.61231111
-49.59998245
-57.11272049
-63.75102001
-66.93899096
-70.53958459
-73.07539035
-74.28190086
71.14511534
70.04654738
67.70542348
64.40861936
64.73018306
59.12795755
52.62698373
47.17614423
38.7250192
29.73976313
20.32562118
10.85115314
1.644635437
-7.575254964
-16.48483323
-24.93900432
-32.84000674
-40.09868034
-46.01868425
-51.39706627
-53.52213145
-56.42251704
-58.46110523
-59.42818461
54.49920665
53.65748196
51.84712331
49.27148332
50.28589203
45.83244906
40.74128171
36.70611854
30.07690999
23.06512052
15.72871664
8.297057485
1.162196583
-5.976347077
-12.88463843
-19.44885718
-25.59888445
-31.28202075
-35.65015906
-39.85658166
-40.9093424
-43.15927776
-44.7212599
-45.45526681
38.76724361
38.16180373
36.86590539
35.03216293
36.45678077
33.2433457
29.51021328
26.85093788
21.96068455
16.82146892
11.45222973
5.953507838
0.7641849881
-4.424852918
-9.459203582
-14.25311886
-18.76063865
-22.94775424
-25.86973026
-28.92701772
-29.11150878
-30.70439555
-31.81337358
-32.33932206
23.01139466
22.69964897
21.93053729
20.82557824
23.26269538
21.17159893
18.74494672
17.44237649
14.22688112
10.8855985
7.405302554
3.765436775
0.4317338947
-2.90529558
-6.158647824
-9.268701003
-12.21140961
-14.97346197
-16.50292199
-18.50910631
-17.34263196
-18.29779171
-18.95104646
-19.21235456
10.17137818
9.94045135
9.577305288
9.046226689
10.35362073
9.343632438
8.191843804
8.321803854
6.739591632
5.137854544
3.495570717
1.684254758
0.1556434299
-1.402835868
-2.936479874
-4.419573245
-5.84535889
-7.234106281
-7.34278997
-8.2770294
-7.888320548
-8.343654272
-8.661166523
-8.880762183
1988.208843
-4710.185143
-3170.904459
1698.395357
-4375.576026
-4757.802916
1502.887857
-3261.946751
-4258.18322
1347.294989
-2129.841826
-3114.800177
1153.149408
-839.5505403
-881.4090983
-1125.333897
-1995.895593
896.6517532
337.6842975
-791.2098477
198.1813586
-434.2991427
-1013.439184
2155.819208
722.5752662
-2801.297886
-974.9205173
-6326.201432
-4145.89299
-4335.285345
-2793.666731
-2260.975344
1541.565693
1680.34848
1903.854726
-6225.270094
-6627.39308
-4114.604659
-2889.15577
-2884.775303
1400.544257
1490.51113
1653.960333
1593.875372
1632.608704
1732.58617
-4534.654649
-5403.411388
-3133.393094
-2459.398678
-2816.639594
1252.906283
1331.988645
1469.839576
1424.024888
1469.088962
1530.31113
-2978.493722
-3635.424248
1086.113663
1148.085374
1311.600805
1252.856092
1321.262538
1395.859201
-1657.071596
-1617.993295
-2194.751511
891.3811036
898.3628013
1120.78886
1033.882508
1090.166438
1212.472228
595.0060629
335.4242883
351.2236788
2473.735215
2071.305101
2946.222636
2553.333323
-6643.784422
-6379.76217
-4326.734296
-6096.094337
-6472.923976
1746.057232
1844.523277
1788.817436
1849.332855
1750.353832
2034.591971
1865.814236
-5456.233622
-6187.548234
-4594.122444
-6053.639413
-5364.387143
-6459.633731
-6089.548434
-4631.813581
1540.214657
1619.268593
1569.755935
1627.110179
1542.277004
1743.257684
1634.379088
-3733.093236
-4473.455515
-3702.520855
-4366.581632
-3660.397098
-5312.569295
-4477.674325
-3847.576317
1400.923911
1465.415777
1405.128488
1469.414801
1405.884639
1537.098097
1472.848187
-2279.467364
-2888.280422
1219.652709
1315.901685
1240.727192
-1611.077328
1321.972984
1225.553883
1400.696401
1327.393788
-1653.296296
-1035.341875
-1538.36408
-1605.898447
1025.864914
1080.863803
1016.218556
-47.60964718
1087.098423
939.2750542
1218.371884
1095.625968
-124.2105176
1651.634983
1942.530821
2083.593029
2174.451337
2504.238542
2797.409716
-8072.569322
-5270.849185
1822.790854
1861.510487
2034.311399
-3558.141738
-2082.724616
-1833.400223
-2311.026505
-2071.337128
-2017.569608
-2320.779594
-180.3588373
-503.0063795
-890.3906187
2070.004344
2436.331588
2133.383265
2184.356244
3825.836779
3353.167739
-3931.399004
-5960.40887
-4104.438772
-2370.518978
-2698.262241
-2543.017639
-2844.087296
-2253.572695
-3566.392881
-2931.459818
-2683.895119
-1196.511845
-309.7137783
-471.5845832
1130.995104
2067.686377
2899.08789
-3651.789712
-1167.682252
799.2052172
-8172.81578
-5752.966648
-7877.646141
-5008.771745
-7727.960868
-5420.275037
-6415.836374
-6445.092981
-4944.540122
-5003.486039
-3143.998055
-3483.867612
-3253.788364
-3463.209089
-3115.998609
-3897.288194
-3515.436035
-3347.772626
1356.497647
1322.573427
1289.91497
-1647.825951
-1925.328289
-1990.268018
1152.47789
1114.05338
1062.542924
1174.448439
1129.858687
1159.913753
2521.248855
2219.912309
2266.014915
2228.544849
2542.068051
2029.662291
2195.373704
2209.212507
2874.893361
3287.381904
3673.506863
2605.624815
3191.799904
2801.909493
3237.36494
2597.218719
-6636.413412
-6626.371756
1801.45408
1863.260576
1794.652916
1946.921911
1928.038134
2016.978358
1867.837483
1918.791118
1923.624769
-5798.114526
-5843.752857
-5742.954138
-5138.144944
-5313.157038
-4851.081891
-5071.573488
-5698.054494
-6311.359051
-5504.464424
-5534.576782
-5361.945574
-5478.25956
-6283.510167
1584.183303
1578.177935
1693.013071
1685.108814
-4038.163715
-3939.455183
-4091.889875
1440.799027
1436.283455
1503.989519
1499.74574
-3063.563484
-2724.61205
-2623.120815
-2744.574895
-3085.653277
1262.777556
1228.573992
1188.3587
1278.358725
1241.57599
1270.446003
-1247.37696
1275.243973
1267.078497
1365.597562
1361.265062
-1997.671867
-1249.256554
-1283.757219
-1556.336673
1043.495511
983.9366914
944.9342841
967.4576992
475.8698681
178.3129597
1166.500154
-297.7060258
135.0525331
-211.0328597
1159.743553
-378.9442682
-245.529253
102.0503742
-6705.700625
-2225.374153
-2383.903744
686.7618625
631.2434026
861.2962616
742.8731495
756.8795619
972.056284
233.3539602
-123.0808969
-317.2022072
4715.120732
-2418.638784
-2592.854717
-935.1210122
-1194.074272
-1199.885108
-142.2708532
-395.1159922
-107.2354926
1750.11503
2772.678518
3770.451786
-4624.371725
-1446.797923
848.0711489
-6317.317208
-7163.567243
-7038.27922
-6559.187396
-4708.341618
-4904.879611
-4699.893933
-5674.924695
-5498.241105
-5238.131227
1496.739648
1473.160927
1446.334452
1511.30734
1482.402194
1501.291473
1363.250644
1332.944345
1361.091345
1117.847392
1101.503137
1073.088727
884.4310064
660.0600339
390.7978309
-6652.026765
-7188.447425
-7212.289919
-6437.53008
-5370.79319
-5092.311618
-5525.677732
-5429.441576
-6442.12449
-5609.055206
-5895.68714
-5735.206935
-6052.679306
1571.380376
1553.028821
1521.367451
1550.588868
1564.099766
1556.896438
-4635.690808
-4447.551067
-4306.205081
-4051.558697
-3801.065349
-4068.306324
-4930.226268
-4516.836697
-4771.009382
-4158.485547
-4428.530323
-4873.74402
1432.113658
1401.477117
1373.070044
1437.522516
1410.693433
1436.58999
1458.497918
1474.103332
1481.504579
1420.449542
1440.335185
1420.438813
1522.508948
1529.64838
1545.588713
1483.57655
1491.799301
1483.554688
-2536.528281
-2678.266764
-2364.466521
-1447.017802
-1454.446028
1304.541192
1236.270526
1384.669965
1394.607545
1415.807102
1362.837942
1342.081816
-1792.254321
802.7379792
966.2747966
920.3098917
1062.903627
1028.268617
1043.012308
145.0824359
384.0249518
148.9886808
1051.527321
432.664238
704.3919226
513.428016
590.3873231
1191.865094
1123.833313
-7419.872665
-6451.898238
-7059.26813
-3701.998396
-3767.750785
-2034.445166
-2177.136189
-2188.516714
2110.744201
2087.818553
3762.923423
4259.984038
4441.273314
4088.855286
3682.916074
-2773.577996
-2598.650105
-2554.595225
-2600.314683
-2791.857181
-1205.447472
-1026.615516
-1041.420476
-1029.59985
-1207.577267
-804.9558109
-980.1602308
-562.1202861
-589.6590331
-755.0853498
-377.2276427
-535.8332277
-460.3996954
-8143.326182
-7088.701577
-6644.150366
-7396.03204
-7191.751642
-6460.223492
-5741.70575
-6916.118709
-6804.397319
-6697.723691
-6340.296563
-6532.599843
-6989.858902
-6849.351582
-5163.866
-4971.422992
-4767.969771
-5029.478798
-5232.574723
-4761.716545
-4968.044738
-5295.774877
-5180.412504
-5441.049151
-5229.857486
-3287.666292
-3351.098775
-3319.581167
-3235.489821
-3379.408971
-3741.25266
-3630.875151
-3784.879696
-3427.495199
-3580.085594
-3684.563813
-1859.711438
-1837.646354
-1983.229039
1135.368532
1110.51403
1123.372206
1179.689939
1165.860026
1143.645596
2370.374022
2328.622615
2339.669503
2361.059169
2251.650415
2542.325549
2402.375226
2383.624068
2092.94837
2113.105988
2051.71383
2219.573791
2136.795869
2116.946731
2827.953547
2768.979195
2599.247474
2931.177868
2834.571829
-7268.655249
-7198.508241
-6653.02641
-7374.217408
-7490.12966
-7332.945977
-7468.353339
-7458.729322
-7537.521921
-7466.382682
-6557.336969
-7231.117468
-7293.172154
1832.149954
1830.542707
1813.099109
1859.612265
1837.672409
1841.03028
1788.300327
1772.732899
1808.731671
1793.257846
1960.72446
1974.789655
1938.885804
2034.560889
1988.367166
1972.494311
1890.645136
1891.572025
1866.992874
1928.323943
1900.354963
1899.749399
-6091.55315
-5946.399765
-5657.959421
-5998.329215
-6304.258149
-6132.25447
1609.898742
1592.826437
1636.704618
1614.859688
1566.030245
1553.601161
1586.326492
1569.989019
1734.641865
1709.285874
1766.593968
1743.048165
1666.91511
1643.165323
1700.822314
1675.520529
-4041.806296
-4210.260971
-3837.906286
-3991.867595
-4088.159088
-4498.256109
-4691.074935
-4264.466402
-4440.018366
1452.702937
1469.645247
1454.378875
1475.694596
1455.74558
1485.057074
1480.679696
1451.60842
1424.078187
1441.682979
1448.128324
1513.128876
1524.544257
1517.45534
1528.063897
1516.262817
1548.493377
1532.461379
1493.314275
1486.295077
1509.187714
1496.478269
1487.38525
1495.171832
1508.125682
-2798.82912
-2893.017754
-2959.600092
-2786.864135
-3012.340768
-2938.77726
-1218.022866
-1406.633298
-1433.756748
-1218.259664
1298.549768
1244.759378
1376.865252
1388.919274
1379.52178
1347.321923
1368.583602
1374.393785
-1877.55728
1025.341458
1015.358635
977.1883564
620.501692
529.9294694
1035.765832
258.867313
411.5828775
310.2556333
1182.588766
-452.5500857
-16.35848696
204.5633317
-61.12346886
1123.037201
-2678.817675
-2025.348719
-1359.726118
-2368.796295
-2423.45213
-1146.817551
-1215.714915
-1672.476649
-2432.185399
-991.7620532
-978.3800471
-811.4948628
-2171.274476
-1644.73273
-1605.090279
2007.006192
3386.660492
4443.072651
-5413.780706
-1783.888092
956.8448362
-1815.378244
-1467.049422
-3519.030629
-6070.090614
-6861.033331
-7091.457401
1675.258583
1650.410237
1611.605183
1704.884442
1663.87082
1689.854239
-1643.518586
-1788.460072
-1797.702395
-2272.587322
-1998.989894
-1943.147259
1195.250284
1173.782449
1188.075729
-7149.228009
-7220.815978
-6536.195937
1599.248563
1564.131141
1582.614168
1607.966558
1613.814045
1634.680274
1641.462111
1664.354279
1655.316003
1234.712525
1221.745204
1202.555605
-1623.975902
-1576.224187
-1565.663391
1230.955641
1238.836824
1231.758818
-1724.780109
-1736.180473
-1637.209424
-1453.74581
-1446.958214
-1594.358913
1077.22321
1211.203222
1218.394187
1224.303477
1101.555961
-7973.981007
-3595.645158
-2052.43879
-2122.74483
-2128.698288
-2365.73999
-2216.028402
-2181.603283
2153.563109
-4959.278728
-4435.130501
-5333.044549
-2508.694927
-2563.936333
-2410.510237
-804.968185
-819.5820435
-638.1103375
-644.2315583
-746.1234447
-2318.134256
-1807.375972
-4472.011897
-8030.592594
-7609.669785
-7460.099162
-7947.974424
-7946.33613
-3192.185407
-3225.008708
-3174.4073
-3500.687334
-3494.237011
-3466.463111
-3042.068718
-3184.774416
-3262.648782
-3859.46453
-3805.449285
-3858.371356
-1983.253109
-1960.529124
-1993.95569
2463.022537
2532.18361
2255.466184
2263.388164
2272.948363
2238.169264
2043.281384
2056.839839
2039.58753
2205.697024
2175.977612
2165.520795
3021.280495
2833.244611
2915.232722
3127.723379
3139.754355
3283.441912
2593.604725
2659.140264
2667.391999
1819.230117
1817.285096
1818.646078
1861.672964
1855.070355
1857.078652
1790.63341
1787.128756
1816.10043
1810.197619
1939.655741
1943.275207
1932.319322
2023.727243
2008.117524
2002.454384
1872.826395
1873.943138
1867.555707
1922.591596
1914.651846
1912.688749
1590.762499
1608.074537
1601.415733
1562.29352
1568.618478
1584.755995
1705.292175
1729.693255
1714.915272
1725.530527
1716.496521
1782.451189
1774.303099
1652.355551
1707.547875
1698.681507
1663.136814
1672.54835
1697.097678
-4218.295906
-4285.821078
-3911.386803
-3973.511123
-3999.204827
-4350.677175
-4369.837948
-4249.17319
-4389.785998
-4220.455909
1248.600314
1228.750893
1241.244292
1292.154003
1275.033722
1255.804846
1279.778997
1289.470102
1283.65649
1259.392664
1263.416683
1271.015562
-1996.734933
964.7720755
974.4567504
953.0187627
674.4949732
973.1183472
352.0933351
478.4512412
598.5719666
1173.036001
1176.27952
1171.664778
-362.6620333
-203.5861414
-181.0487515
-196.9148488
1150.843632
1158.054845
1167.075903
-96.32943807
-177.504221
-324.6415055
-2261.576802
-2306.501314
-2409.122661
-2360.865104
-2338.860001
4794.620395
5011.479939
4658.637879
-2475.654726
-2501.466386
-2419.481793
-2611.355807
-2554.989862
-2542.940796
-2970.017646
-2206.099617
-5147.611203
-6577.485235
-6585.187044
-6500.215487
-6543.867745
-7119.623009
-6947.336417
-6983.736766
-6875.988911
-6912.361321
-7080.002136
-5619.201196
-5535.34948
-5591.900577
-5414.957597
-5477.988939
-5562.14536
-7237.476187
-7040.545193
-7021.193223
-7017.826839
-7038.087399
-7245.615084
-5839.596816
-5752.68049
-5804.90849
-5647.943543
-5700.511344
-5788.422453
-6424.758281
-6462.169858
-6316.565803
-6373.440297
1477.129901
1471.796971
1468.33285
1425.528637
1421.474563
1416.018917
1432.583439
1427.613572
1432.666366
-1578.939623
-1633.041551
-1442.344749
-1523.752369
1320.53387
1317.626947
1330.559636
1324.192828
1240.074485
1234.371172
1241.282106
1234.620284
1401.653364
1398.469021
1392.186129
1410.860057
1405.009722
1409.398719
1342.477299
1338.845047
1355.037562
1338.54823
1346.323279
-1798.890661
-1791.394878
-1780.956936
-1638.152453
962.2103905
992.3363066
1098.362205
1057.603253
1050.307326
1036.102409
1066.030131
377.8912511
363.3967111
1070.812557
949.8184479
722.3399672
1193.840467
1208.083469
1202.407908
1112.517305
-7777.986115
-8084.859115
-7732.618408
-7241.509118
-6867.746378
-6026.235619
-7652.527637
-7321.756719
-3642.426304
-3792.091039
-2185.973317
-2174.253755
-2182.827106
2130.740983
2061.140913
4379.457774
4205.324715
4101.018206
3593.51891
3453.683631
3946.442312
3752.066582
3884.824458
-2681.463262
-2613.595325
-2734.781496
-1045.83943
-1041.889177
-1030.750637
-1148.771748
-844.033267
-822.369683
-808.8030398
-969.4302239
-909.5238917
-908.2440587
-568.5579964
-625.1988184
-622.1941976
-440.8729797
-447.4757727
-495.2051336
-7829.486734
-7727.28279
-8094.084228
-7331.721062
-7650.956341
-7698.217114
-7954.033643
-7933.411272
-6757.939302
-6642.405774
-6677.28558
-6598.147103
-6612.393614
-6717.073746
-6938.718048
-6794.275538
-6836.344846
-6715.141444
-6753.674734
-6893.022907
-5102.016448
-5026.464923
-5088.030791
-5094.396339
-5166.006758
-4815.013981
-4844.234858
-4809.782793
-4906.823736
-5365.158444
-5408.059784
-5364.54998
-5278.878617
-5347.846688
-5151.796154
-5216.453352
-5300.445886
-3327.150483
-3241.652634
-3230.373768
-3255.722594
-3188.511363
-3245.6043
-3416.783177
-3443.193097
-3379.771585
-3700.590086
-3746.374395
-3773.389497
2415.234587
2290.561192
2100.681017
2076.717287
2062.951752
2140.072805
2149.301739
2124.703955
2923.560298
3021.271828
3030.990887
3315.963876
3186.784724
2745.066489
2736.077017
2826.561967
-7239.067599
-7035.811453
-7047.98676
-7019.88714
-7024.569096
-7215.447079
-7412.091214
-7446.342377
-7494.660064
-7768.064736
-7714.280659
-7786.759036
-7806.631665
-7489.869992
-7544.526427
-7692.530744
-7696.468556
-7485.796884
1832.075586
1825.677779
1825.858763
1849.58066
1847.703894
1839.926683
1797.153704
1793.797862
1804.824921
1800.737007
1965.753294
1954.343851
1950.454603
1986.784168
1992.702051
1978.398611
1890.706614
1881.829026
1880.701235
1906.895261
1907.313712
1899.369496
-6047.799228
-5953.122837
-5997.207886
-5854.663205
-5904.397256
-5995.72924
-6245.861227
-6157.025405
-6243.066108
-6040.164687
-6090.580557
-6183.728123
1604.787561
1606.858702
1611.036455
1594.785657
1601.466453
1599.085325
1628.523014
1627.447317
1637.542544
1614.494781
1619.337849
1620.835076
1562.233611
1564.65964
1567.612155
1556.881716
1561.163793
1558.148644
1580.155279
1580.720443
1587.48345
1570.66291
1574.942728
1574.655473
1743.870482
1734.739607
1726.246131
1730.763811
1739.463706
1713.169782
1721.9548
1717.777045
1763.380848
1753.051497
1672.747532
1664.904811
1658.495685
1661.679115
1669.864013
1644.52083
1646.776999
1649.134308
1692.383118
1695.786162
1704.451562
1678.65256
1687.198253
1683.961794
1690.028467
1681.459122
-4130.648356
-4166.725551
-4065.53282
-4031.944976
-4063.473564
-4554.340582
-4587.190966
-4537.42016
-4731.069943
-4650.357976
-4617.497508
-4313.086725
-4348.101381
-4314.162438
-4484.497073
-4431.504832
-4376.740793
1457.759963
1453.816725
1448.821342
1464.096266
1459.085299
1463.760408
1468.143696
1460.990426
1484.054504
1482.774501
1448.972544
1439.750846
1434.393497
1434.331089
1433.782769
1443.978474
1439.807812
1445.067492
1516.123012
1520.746073
1531.278503
1519.350036
1543.035226
1545.589168
1551.487777
1535.404529
1540.278597
1537.749208
1490.401358
1488.024233
1503.491951
1499.690628
-2902.718275
-2885.009638
-2947.352377
-2777.582905
-2828.541417
-2863.896822
-3081.739659
-3126.738901
-2994.269548
-3003.585192
-3015.275694
-1368.571022
-1372.882184
-1428.788102
-1233.657215
-1298.082449
-1306.332329
1294.985077
1283.366276
1313.636611
1306.153291
1249.929765
1255.951189
1251.748915
1259.131591
1253.398395
1273.842303
1266.256497
1380.239575
1377.715103
1373.912576
1386.713418
1381.9584
1384.242143
1371.346932
1364.552222
1360.240675
1370.589467
1367.625842
1372.83638
-1937.85608
1019.454029
1001.073198
1005.661736
578.5913132
592.1010386
649.9748446
534.0037338
541.3769255
525.5194772
1018.420577
354.2074986
303.3227897
236.73639
1176.285638
1178.461546
1182.964587
-430.5948062
74.61110557
16.15696262
187.1787908
175.5429141
187.3819228
-2.355847115
-136.5793042
-117.1087738
-14.57066491
1135.671199
1149.864057
1142.251194
789.0862337
748.432497
724.0791081
731.2656883
668.560332
638.7620378
642.7519221
550.7102868
519.1392514
513.7660542
387.3690247
362.3550852
339.4994785
185.2980636
173.8746064
130.4892397
-34.42765411
-27.86001815
-89.1297681
-243.1983123
-222.3040403
-291.3526859
-420.3294242
-391.7822343
-458.8269796
-556.8692043
-527.2792385
-585.0129783
-655.0014382
-629.4523046
832.8010431
803.4853406
759.9484652
790.4641883
737.872488
682.8859239
714.7443496
625.2186543
565.5657737
587.6947987
449.6949765
399.3198145
395.086294
209.7380515
189.8973181
142.7770864
-61.01904189
-39.2552272
-126.8418401
-307.1085685
-255.0763218
-360.1178939
-495.7917752
-434.7361403
-533.639728
-627.6882529
-571.3218163
-653.3461514
-715.4159205
-667.3780652
893.088162
881.5431657
821.0066585
874.9462918
842.4450655
760.4321032
826.0197603
752.3587558
651.2451979
717.338467
570.0664687
472.8150905
504.7857076
261.1803752
219.1643444
167.9327231
-117.2654072
-71.40780028
-206.188467
-432.5214699
-331.2753559
-492.8345983
-632.1463243
-523.2442124
-667.2721217
-745.5204876
-651.9404398
-764.1329986
-804.4923877
-735.2499324
962.6029599
977.5759138
904.4255795
981.4663291
986.6392094
874.6611287
984.084497
955.6867478
795.0534541
934.9390627
807.2388622
614.9563248
732.4498723
378.0673213
281.7685126
222.860435
-253.0749523
-139.8886216
-388.5874805
-680.1405052
-479.0494918
-744.0526052
-862.340717
-679.7140752
-882.6559455
-913.9420334
-782.9617911
-918.1508586
-921.1148869
-831.1808037
1029.879568
1074.963638
1002.515894
1091.933219
1149.809874
1026.918539
1171.635333
1242.202839
1021.183811
1264.348602
1286.511307
897.9798807
1252.229306
648.6107833
427.8397349
452.0520327
-707.9030706
-318.2218482
-910.6092436
-1180.938197
-774.7665636
-1204.519828
-1199.25233
-935.6799192
-1184.687027
-1129.300512
-963.8331384
-1109.995118
-1056.268012
-953.8610264
1080.880464
1151.54198
1097.07295
1179.796682
1284.978332
1188.643408
1329.232512
1506.64326
1317.549422
1588.207373
2045.52236
1458.79431
1765.607265
1827.315972
1309.322153
590.2953861
-817.6898072
-280.3406354
-1614.651077
-1577.450212
-1283.197073
-1907.25436
-1619.660492
-1300.573917
-1542.819908
-1356.31942
-1187.380594
-1306.493025
-1185.847683
-1090.277525
1102.691151
1185.414667
1164.53052
1218.358242
1339.124939