/*--------------------------------*- C++ -*----------------------------------*\
| =========                 |                                                 |
| \\      /  F ield         | OpenFOAM: The Open Source CFD Toolbox           |
|  \\    /   O peration     | Version:  v1912                                 |
|   \\  /    A nd           | Website:  www.openfoam.com                      |
|    \\/     M anipulation  |                                                 |
\*---------------------------------------------------------------------------*/
FoamFile
{
    version     2.0;
    format      ascii;
    class       volVectorField;
    location    "1.53";
    object      U;
}
// * * * * * * * * * * * * * * * * * * * * * * * * * * * * * * * * * * * * * //

dimensions      [0 1 -1 0 0 0 0];


internalField   nonuniform List<vector> 
12556
(
(99.99870544 0.003159721211 -4.47361166e-21)
(99.99821195 0.01077934672 6.592076675e-26)
(99.99691914 0.02317427513 -4.467169938e-21)
(99.9947195 0.04362404638 -4.441727412e-21)
(99.99969559 0.03466284532 4.293071425e-21)
(99.99731429 0.05759065417 0)
(99.9958852 0.09331362727 0)
(99.99544264 0.142414526 -7.570260512e-21)
(99.99418208 0.2071078915 8.845118105e-22)
(99.99334764 0.2852957498 -5.810206714e-21)
(99.99362764 0.3675496316 7.154584449e-22)
(99.99452641 0.4370345968 0)
(99.99864946 0.4736481954 0)
(100.0035351 0.4655925108 8.521575186e-22)
(100.0059925 0.4172690881 -1.452116469e-21)
(100.0063452 0.3461165879 9.150025764e-22)
(100.0061115 0.2697116138 0)
(100.0054591 0.2002647344 1.519763976e-21)
(100.0050301 0.1414338026 6.244031519e-21)
(100.0026856 0.09898925773 -1.752739028e-21)
(100.0106415 0.1123293003 -1.520808773e-20)
(100.0072478 0.06901037124 0)
(100.0053262 0.0367227773 -1.908723003e-21)
(100.0051208 0.01153760732 -1.343994938e-20)
(99.98829304 0.00830601693 1.791423315e-20)
(99.98279876 0.02885095194 4.476000753e-21)
(99.97064473 0.0629096658 3.127751363e-20)
(99.94987785 0.1197350633 -1.339664365e-20)
(99.95241204 0.1643281146 4.324178252e-21)
(99.92053452 0.2762442949 -4.87387534e-23)
(99.8790015 0.4479079894 0)
(99.85724916 0.6031859893 -7.625208744e-21)
(99.81202757 0.8872089856 -7.076756502e-21)
(99.77770341 1.240414821 -1.235939727e-20)
(99.77441124 1.624372631 -5.130279449e-21)
(99.81850349 1.957177091 -9.947677191e-21)
(99.91410667 2.147598969 -3.482261806e-21)
(100.0211852 2.129696917 -2.227849651e-23)
(100.1118313 1.921291473 -4.995196363e-22)
(100.1585859 1.600370276 4.725257788e-21)
(100.1631969 1.244987721 -9.295009146e-21)
(100.1400815 0.9259552206 0)
(100.145347 0.690365752 -2.65031949e-20)
(100.1026672 0.4683188382 5.106645274e-20)
(100.0999224 0.3193596929 1.472476191e-20)
(100.0691545 0.1954525617 3.033404243e-20)
(100.0517021 0.1044316806 -3.04238603e-20)
(100.045058 0.03287604938 1.534884584e-20)
(99.96898659 0.01005350999 -1.787430191e-20)
(99.95347033 0.03634948955 -3.588329283e-20)
(99.91996318 0.08302525451 -8.05245361e-20)
(99.86438948 0.1627665654 1.071641032e-19)
(99.83468104 0.2570671582 -8.864127637e-21)
(99.73948929 0.447450884 -8.636023916e-21)
(99.61101561 0.7418404275 -1.499364889e-20)
(99.53950986 1.063600359 0)
(99.39359234 1.605696062 2.93038675e-20)
(99.2829978 2.297022083 0)
(99.28768489 3.071466548 8.717700683e-20)
(99.45858874 3.80216551 3.012513696e-20)
(99.81868495 4.229694699 -2.504517479e-19)
(100.2416109 4.200377748 -1.853474321e-20)
(100.5461798 3.733841089 -2.024599889e-19)
(100.6692264 3.043245409 -3.592092406e-21)
(100.6582393 2.330516446 -1.003865249e-20)
(100.5594575 1.690261741 -2.365648269e-20)
(100.4801124 1.173015237 -1.592063062e-19)
(100.3480894 0.784168124 -3.533807427e-20)
(100.2747693 0.4810633042 -1.510056478e-20)
(100.1939107 0.2918447313 3.432120111e-20)
(100.145467 0.1561683862 -3.856122596e-21)
(100.1242494 0.04887448912 0)
(99.94829417 0.006205062909 -9.004751501e-21)
(99.9185129 0.02626437937 6.30529553e-20)
(99.85495802 0.07219984905 -1.803989932e-20)
(99.7511552 0.1562305273 0)
(99.66847585 0.2877409111 0)
(99.4795092 0.5319491878 -6.979075729e-20)
(99.21811252 0.923116496 -1.397096255e-19)
(99.01045202 1.400324608 3.299452908e-20)
(98.67503793 2.188192947 -3.117736547e-20)
(98.41292146 3.251719163 6.891445406e-19)
(98.3601122 4.591793611 -8.061348318e-19)
(98.74766441 5.946634056 1.325696856e-19)
(99.66599298 6.791684942 -1.062537766e-19)
(100.7366981 6.661964828 3.67163999e-20)
(101.4224485 5.726201969 0)
(101.6013411 4.482983516 0)
(101.4783343 3.296407574 0)
(101.2401205 2.330714345 0)
(100.9930013 1.537361184 5.797794964e-20)
(100.7164756 1.003259187 -4.477539205e-20)
(100.5177947 0.570195248 -3.867556951e-20)
(100.3677872 0.3421947236 1.957771578e-20)
(100.2745019 0.1807134246 -3.928526816e-21)
(100.2319165 0.05602397334 0)
(99.93958468 -0.004638121869 0)
(99.89313343 -0.005957264322 0)
(99.79499055 0.02175514856 9.090977415e-21)
(99.63330632 0.0896239245 1.375295713e-20)
(99.48324811 0.2385673874 2.279083634e-20)
(99.17203385 0.497939635 0)
(98.73758483 0.9212384067 0)
(98.32139141 1.516584779 0)
(97.71837342 2.503503037 6.935796378e-20)
(97.11415815 4.016242799 5.429665385e-19)
(96.79952612 6.140386183 -2.308295239e-19)
(97.4034641 8.608470611 3.268543105e-19)
(99.42386646 10.28136449 2.206049856e-19)
(101.8527845 9.858408575 0)
(103.1210566 7.935562176 0)
(103.2058188 5.787155399 1.760608355e-19)
(102.7336594 4.041694354 -4.585401197e-19)
(102.1617081 2.729490553 -4.924333336e-22)
(101.6505849 1.713730027 -9.597777848e-20)
(101.1748458 1.087253089 7.978068673e-21)
(100.7978902 0.5629455959 0)
(100.5616916 0.3321202984 4.006670492e-21)
(100.414184 0.170453039 -3.009065197e-21)
(100.3457746 0.05201770802 -9.978679096e-22)
(99.95803267 -0.02298705001 0)
(99.89447086 -0.06186311941 0)
(99.76192958 -0.07243422541 -1.822377758e-20)
(99.53966682 -0.04364279326 3.710443453e-20)
(99.30933748 0.09550867908 0)
(98.86624189 0.3204538243 0)
(98.22987199 0.7125799607 2.914021804e-20)
(97.58249859 1.328816721 6.120866999e-19)
(96.57506697 2.410693915 0)
(95.34039944 4.24562345 3.120854825e-19)
(94.1923002 7.283074265 3.203080114e-20)
(94.40535875 11.87444541 0)
(98.69745728 15.89090401 0)
(104.3818022 14.36939686 9.251152935e-19)
(106.2713952 10.1133015 -4.882705016e-19)
(105.7012282 6.664705503 0)
(104.4481324 4.339720215 0)
(103.293897 2.790522255 2.006557816e-19)
(102.3833119 1.630202683 2.47066604e-20)
(101.6682843 0.994604111 -1.651550673e-20)
(101.0773111 0.4454184178 0)
(100.743081 0.2521442507 0)
(100.5373354 0.1207232845 -1.012177538e-21)
(100.4413101 0.03559771266 -3.037291547e-21)
(100.0183662 -0.04841567244 4.446062018e-21)
(99.9393085 -0.139681111 -4.47947788e-21)
(99.77674653 -0.2078892538 9.145224072e-21)
(99.50055832 -0.2424279465 -3.348890125e-20)
(99.18537952 -0.1434658863 8.542228004e-23)
(98.62053677 -0.004076285582 2.869726711e-20)
(97.80466669 0.2771512104 -5.952191384e-20)
(96.91252272 0.8043207654 0)
(95.43337414 1.777804607 1.373140703e-18)
(93.32799847 3.528013945 -3.637346083e-19)
(90.35752305 6.741567713 -8.804286726e-19)
(86.92192017 14.13883273 -8.787517256e-19)
(95.08898146 26.80302624 1.314465812e-18)
(111.3301673 20.5139273 -1.275913835e-18)
(111.621294 11.32456819 0)
(109.0325125 6.468284519 7.553461166e-19)
(106.4728071 3.868550121 0)
(104.5124308 2.354308862 -5.984554901e-19)
(103.0828336 1.230732376 0)
(102.1257795 0.6916322931 9.019115219e-21)
(101.3062667 0.2179038364 2.661071665e-21)
(100.8759609 0.09775515389 -3.14709885e-21)
(100.6163941 0.03148895388 -3.580358917e-21)
(100.4938878 0.006922983922 8.621244139e-21)
(100.1333059 -0.07955034603 -4.44652476e-21)
(100.0423112 -0.2350475738 4.481079869e-21)
(99.85751516 -0.3757255624 -5.688132927e-21)
(99.54195108 -0.4928772425 -3.827960039e-21)
(99.1529721 -0.462715042 1.633477803e-20)
(98.49514303 -0.4511495669 9.737328789e-21)
(97.5627369 -0.3582529634 -5.070242881e-21)
(96.4572832 -0.02838521234 1.345829744e-18)
(94.60870988 0.5783685414 -1.866061845e-18)
(91.79922006 1.622312347 -4.232704474e-19)
(87.14717564 3.191890477 7.195651498e-20)
(78.19661812 6.11032839 -2.517954767e-18)
(127.6939481 22.30358126 -3.26606714e-18)
(118.6760375 8.810086154 5.035704854e-18)
(112.5386768 4.398943058 0)
(108.3626315 2.41234384 1.177582559e-18)
(105.5819553 1.345903132 0)
(103.6186252 0.513679862 -4.799576859e-21)
(102.4532185 0.1946689223 2.036742945e-20)
(101.4313129 -0.1115171472 -3.24510605e-21)
(100.9252519 -0.1197079951 2.654565573e-21)
(100.6245064 -0.09131255346 -5.0464146e-22)
(100.4801739 -0.03261203017 -8.101881048e-21)
(100.3121855 -0.1142144021 -2.139921305e-21)
(100.2142673 -0.3412370765 -1.607716733e-21)
(100.0176956 -0.5630876826 -5.515093208e-22)
(99.68156878 -0.7741175897 1.669044868e-21)
(99.23868484 -0.8334322206 -3.269349939e-23)
(98.533431 -0.975261618 0)
(97.56062402 -1.109052744 7.996161152e-20)
(96.33303914 -1.047342181 0)
(94.34405007 -0.9262514365 -7.681685573e-19)
(91.44118605 -0.7926824568 3.231122594e-20)
(87.11348646 -1.187250017 4.143897072e-18)
(81.36574308 -3.31825688 0)
(139.7834485 4.601436508 0)
(123.1186449 1.493490933 -5.950062964e-18)
(114.7183622 0.4392871359 5.281560478e-19)
(109.5109256 0.0608001245 4.03245186e-19)
(106.1993462 -0.1239188949 1.782397039e-19)
(103.8616654 -0.4335552709 -4.901484071e-21)
(102.5660309 -0.4483419206 1.145236083e-20)
(101.4128985 -0.5087014146 1.115059545e-21)
(100.8635225 -0.380192707 0)
(100.539528 -0.2368666439 4.087488792e-21)
(100.3816309 -0.07967995567 4.039440378e-21)
(100.5596225 -0.1497600609 4.214417621e-21)
(100.4604056 -0.4500883438 6.652485773e-23)
(100.263618 -0.7547448289 0)
(99.92761191 -1.062378976 2.146714308e-22)
(99.4553048 -1.221381605 -2.236632063e-21)
(98.75356502 -1.522035668 2.385051478e-21)
(97.81254606 -1.877639141 1.678827166e-19)
(96.57423184 -2.081351655 -1.632306339e-19)
(94.6735277 -2.392527755 -2.377806974e-18)
(92.06670669 -2.904506969 -5.39711982e-20)
(88.65643054 -4.091753935 0)
(85.11785704 -6.197731249 4.476897149e-18)
(135.5991782 -12.00007343 0)
(122.2935476 -6.629993151 -2.864004717e-18)
(114.5428381 -4.090551447 7.347416063e-20)
(109.442574 -2.604565513 8.531694037e-19)
(106.1574129 -1.777545536 8.568853556e-20)
(103.7291799 -1.475548563 4.146225562e-20)
(102.4224091 -1.154238006 0)
(101.2281975 -0.9303673483 -1.090814022e-21)
(100.6753349 -0.656467425 -4.520150052e-21)
(100.348896 -0.3910496325 5.046122208e-22)
(100.1875033 -0.1297017165 0)
(100.8749882 -0.1836188945 -2.074313445e-21)
(100.7797519 -0.5535174879 2.092311553e-21)
(100.5932183 -0.9355929622 2.038060342e-21)
(100.278005 -1.335170424 -1.909238553e-21)
(99.79849542 -1.592555266 -2.202269052e-21)
(99.14614125 -2.036017738 0)
(98.29023782 -2.583253519 -2.382356274e-21)
(97.12194002 -3.013147702 -1.171283686e-18)
(95.41654348 -3.636819275 -7.565979728e-19)
(93.18935227 -4.515458496 0)
(90.42737186 -5.953939736 0)
(87.66964341 -7.758009219 8.539269947e-19)
(125.8459899 -20.57912307 3.2947621e-18)
(117.9486871 -12.30294197 2.370125316e-18)
(112.396482 -7.707505372 -1.418867278e-18)
(108.3190035 -4.928167273 -4.229395648e-19)
(105.4736466 -3.318329749 0)
(103.2222453 -2.454620234 0)
(102.0246831 -1.829913102 -2.711152562e-20)
(100.8768199 -1.331137784 -1.365104159e-20)
(100.3603378 -0.9196163287 1.031094722e-21)
(100.0514967 -0.5388983819 -3.263065446e-21)
(99.89645232 -0.1778808711 4.779501988e-22)
(101.2526354 -0.2135416282 7.591277842e-21)
(101.1660166 -0.6443770684 0)
(100.9977564 -1.091064485 -2.0340587e-21)
(100.7174287 -1.57800442 0)
(100.2479313 -1.919166288 0)
(99.68251647 -2.474561715 -6.532667832e-21)
(98.94800707 -3.170527925 1.399844316e-19)
(97.90125156 -3.771042588 -3.237028946e-19)
(96.43469342 -4.599946439 -1.4730726e-18)
(94.56463578 -5.693942809 1.186537572e-20)
(92.22818714 -7.291727603 0)
(89.71264252 -9.090927883 1.86665589e-18)
(116.0009053 -23.23770269 5.082567939e-20)
(112.4534191 -14.91929155 -1.802429934e-18)
(109.2526824 -9.810776337 1.086468201e-18)
(106.463443 -6.514731781 1.188029255e-18)
(104.2997537 -4.496378537 5.94390385e-22)
(102.41548 -3.245767209 2.165169911e-21)
(101.4137587 -2.398042843 -3.301171763e-20)
(100.3838043 -1.678147685 8.08095919e-21)
(99.93302009 -1.144115895 0)
(99.65697385 -0.6676197157 3.758269207e-21)
(99.51632142 -0.2200636343 0)
(101.6832432 -0.2387360794 7.581537451e-21)
(101.6079644 -0.7214117879 1.195351095e-19)
(101.461677 -1.220946785 -2.407484144e-19)
(101.2201388 -1.77360461 -3.832474163e-22)
(100.8036762 -2.176684227 -1.905920276e-21)
(100.3289193 -2.811940602 0)
(99.73655484 -3.608331165 -5.219087457e-19)
(98.83284599 -4.316622565 -3.041564862e-19)
(97.62471765 -5.26215344 -2.022100875e-18)
(96.10713427 -6.484103423 0)
(94.19523522 -8.274945001 3.476025441e-18)
(92.016276 -10.36424293 0)
(102.7530381 -31.59955413 5.780281915e-19)
(107.359629 -21.11013225 5.830854025e-19)
(107.3642593 -14.99038058 5.6993467e-19)
(106.016766 -10.45603754 -3.920302786e-19)
(104.367561 -7.290483099 1.084332505e-18)
(102.8810227 -5.220303349 3.289156119e-20)
(101.4279488 -3.779902051 -6.59491442e-20)
(100.6527586 -2.808748638 0)
(99.79128683 -1.940799087 0)
(99.4178212 -1.315539077 1.176476847e-20)
(99.18314095 -0.7689199312 2.168728879e-21)
(99.06222674 -0.2533794682 -7.032829733e-21)
(102.1544447 -0.256815447 0)
(102.0921657 -0.7773557701 0)
(101.9716788 -1.314050676 0)
(101.7717471 -1.904063888 0)
(101.4070414 -2.367636758 0)
(101.0250609 -3.060130053 0)
(100.5641538 -3.912096673 -5.056686299e-19)
(99.82636205 -4.666649406 1.096310867e-18)
(98.86967127 -5.652007898 1.442061322e-18)
(97.70507741 -6.908802585 5.601879593e-19)
(96.30790196 -8.755007134 -2.577150416e-19)
(94.95407218 -11.27253389 2.454836254e-19)
(96.41675241 -20.7269787 4.484452837e-20)
(102.301518 -17.27631792 -4.840583579e-19)
(103.5608166 -13.48674447 -3.575585835e-19)
(103.2509557 -10.05577981 -3.818988823e-19)
(102.3825651 -7.401342618 -1.056437819e-18)
(101.4151593 -5.51972581 3.028284125e-20)
(100.3755594 -4.061507908 -9.180409446e-20)
(99.81651397 -3.057903259 -3.454488273e-20)
(99.13900241 -2.103945027 -1.915161537e-20)
(98.84246856 -1.431159305 1.886886849e-20)
(98.65246777 -0.8389192268 0)
(98.55360274 -0.2763575626 1.885368276e-20)
(102.6536199 -0.267773787 0)
(102.6051948 -0.8114608813 0)
(102.5128534 -1.370324957 0)
(102.3564956 -1.974071695 0)
(102.0436463 -2.470826241 0)
(101.7615083 -3.184289711 0)
(101.4289381 -4.025198099 5.173886224e-20)
(100.8565368 -4.814215604 0)
(100.128994 -5.779540723 -1.711421548e-18)
(99.27984907 -6.947035172 7.231456846e-21)
(98.406998 -8.531916381 -7.812259976e-19)
(97.98607838 -10.9703298 9.671308224e-19)
(98.05912008 -13.74507001 8.877314819e-19)
(100.335839 -13.35447093 1.218083144e-19)
(101.1904725 -11.42267276 0)
(101.154076 -9.108610419 2.939971022e-19)
(100.6770444 -7.06958206 5.063443177e-19)
(100.0613426 -5.507068364 -2.463798649e-20)
(99.33908121 -4.132610135 0)
(98.97206766 -3.163367613 0)
(98.46016833 -2.176480207 -3.563095196e-20)
(98.23466594 -1.491758791 1.758170643e-20)
(98.08836836 -0.8769742918 7.361967296e-22)
(98.01111024 -0.2888832842 -1.29845837e-20)
(103.1675346 -0.271987296 0)
(103.1320843 -0.8243228368 0)
(103.0660626 -1.390756523 0)
(102.9505296 -1.991375032 0)
(102.6863643 -2.501681354 0)
(102.4896044 -3.204849882 0)
(102.2574263 -4.002339833 0)
(101.8303459 -4.793121859 0)
(101.2732218 -5.708541836 0)
(100.6440807 -6.722331891 3.573965809e-19)
(100.0496113 -7.914215626 -3.042610285e-19)
(96.95482422 -8.932549451 7.186866398e-19)
(99.138466 -10.58525573 1.47488732e-19)
(99.72506039 -10.55574524 0)
(99.83102129 -9.506288593 0)
(99.6441472 -8.000721397 -4.919975136e-19)
(99.29625117 -6.513387946 4.294847089e-19)
(98.88156777 -5.264776274 0)
(98.38369078 -4.039532328 -3.018618373e-20)
(98.16717126 -3.150657362 4.582399678e-20)
(97.78462385 -2.174853381 1.108422503e-20)
(97.62044365 -1.50404557 1.89037959e-20)
(97.51240063 -0.8863617159 -2.147341913e-20)
(97.45415626 -0.2919825296 0)
(103.6838479 -0.2703674933 0)
(103.6595125 -0.818796772 0)
(103.6154099 -1.380043643 0)
(103.5343572 -1.963779866 0)
(103.3142054 -2.47165748 0)
(103.1846174 -3.14225039 0)
(103.0255617 -3.87594036 0)
(102.693421 -4.624886519 7.812322624e-20)
(102.24654 -5.464039602 -6.117875683e-19)
(101.7030775 -6.310622359 0)
(101.2858386 -7.209328384 9.728758044e-19)
(93.08120981 -6.796887976 -7.153346566e-19)
(99.72495572 -8.609698512 -7.70860759e-20)
(99.37761028 -8.595997565 4.3702798e-20)
(98.94586429 -7.937034006 -4.233131831e-19)
(98.5569264 -6.940550629 1.926717043e-19)
(98.20622362 -5.88747928 0)
(97.89198391 -4.897348022 0)
(97.54205951 -3.844617893 0)
(97.42001283 -3.047882922 0)
(97.13560972 -2.115929446 3.83517542e-20)
(97.0202964 -1.476679452 -3.587768557e-20)
(96.94258686 -0.8717058177 -2.422943403e-21)
(96.8995574 -0.287545464 2.431164755e-21)
(104.1919188 -0.2640055343 0)
(104.1765519 -0.7984186358 0)
(104.1494106 -1.344189856 0)
(104.0952724 -1.900524542 0)
(103.9115335 -2.392781503 0)
(103.8296518 -3.017131609 0)
(103.7159812 -3.677293519 0)
(103.4331391 -4.344273347 0)
(103.0204454 -5.076539386 -6.06025456e-20)
(102.459326 -5.781020016 9.364518273e-19)
(101.7997933 -6.472420939 -1.395046363e-21)
(94.6603148 -6.443134848 6.140389028e-20)
(99.81583545 -7.276042589 0)
(99.00467656 -7.170563288 7.130896336e-20)
(98.27896817 -6.699848649 2.435894995e-20)
(97.75435524 -6.025543407 7.610030985e-20)
(97.36359614 -5.260176185 0)
(97.08089568 -4.476028373 0)
(96.80984433 -3.584139689 0)
(96.74060247 -2.880081686 0)
(96.52663358 -2.013513799 0)
(96.44724279 -1.417014642 0)
(96.39256728 -0.8391504529 0)
(96.36095176 -0.2778976034 0)
(104.6834661 -0.253983432 0)
(104.6748907 -0.7666871599 0)
(104.6598638 -1.289278424 0)
(104.6250174 -1.811580279 0)
(104.4688118 -2.278888442 0)
(104.4161398 -2.850492636 0)
(104.3235891 -3.437164955 0)
(104.0584858 -4.018482901 0)
(103.6413969 -4.621715614 0)
(103.0501208 -5.199938192 -7.495811125e-21)
(100.790569 -5.574250043 -1.353007521e-19)
(98.2540591 -6.004496796 -1.539596864e-19)
(99.72506921 -6.198718795 -6.370711591e-20)
(98.6716865 -6.07160122 0)
(97.80200483 -5.738118909 0)
(97.16297359 -5.251440477 0)
(96.71145711 -4.667585588 0)
(96.42007653 -4.041834744 0)
(96.18093148 -3.289812102 0)
(96.13540085 -2.676120611 0)
(95.965845 -1.884472985 0)
(95.91005959 -1.336223706 0)
(95.87076122 -0.7933141311 0)
(95.84804589 -0.2633327607 0)
(105.1524718 -0.2413556323 0)
(105.1485737 -0.7269805656 0)
(105.1411036 -1.221122304 0)
(105.1184459 -1.706175679 0)
(104.9815073 -2.142903955 0)
(104.9424747 -2.66020912 0)
(104.8521954 -3.180333086 0)
(104.5842183 -3.679856844 0)
(104.1411156 -4.176733159 0)
(103.518304 -4.636147853 0)
(100.4179904 -4.821545245 0)
(99.3777446 -5.242339939 0)
(99.69750931 -5.325060625 0)
(98.46818121 -5.215180205 0)
(97.45920135 -4.958556206 0)
(96.71391991 -4.585442006 0)
(96.19835175 -4.128511111 0)
(95.87839377 -3.621892287 0)
(95.64418059 -2.987270228 0)
(95.60180884 -2.456270029 0)
(95.45637728 -1.74183191 0)
(95.413983 -1.243216335 0)
(95.38362664 -0.7397149409 0)
(95.36655391 -0.2460094559 0)
(105.5949516 -0.2270936316 0)
(105.5938212 -0.6823972704 0)
(105.5898993 -1.14496156 0)
(105.5732252 -1.591948098 0)
(105.4487745 -1.995451819 0)
(105.411222 -2.460501631 0)
(105.3090291 -2.921033978 0)
(105.0265668 -3.34794255 0)
(104.5472359 -3.760136051 0)
(103.8726892 -4.128445294 0)
(100.1101756 -4.211224979 0)
(99.91294935 -4.592295214 0)
(99.67015764 -4.615959374 -3.793333877e-35)
(98.30729795 -4.516175699 0)
(97.19227329 -4.309426255 0)
(96.36221916 -4.01382574 0)
(95.78715815 -3.647940244 0)
(95.4305734 -3.232141079 0)
(95.18568315 -2.693794775 0)
(95.13348554 -2.234945337 0)
(94.99757406 -1.5950906 0)
(94.96058931 -1.14488888 0)
(94.93407448 -0.6824980891 0)
(94.92018055 -0.2274189759 0)
(106.0086598 -0.2120190511 0)
(106.0087011 -0.6355469483 0)
(106.0050946 -1.06521101 0)
(105.9893318 -1.474809417 0)
(105.8720819 -1.844643303 0)
(105.8271817 -2.261390253 0)
(105.7035332 -2.66802411 0)
(105.4003751 -3.034012428 0)
(104.8816672 -3.379299292 0)
(104.1439665 -3.678941448 0)
(99.8197944 -3.695897846 0)
(100.2290073 -4.039013822 0)
(99.62954646 -4.030548691 0)
(98.1706336 -3.936800968 0)
(96.97678525 -3.764114321 0)
(96.07945119 -3.523258999 0)
(95.45184026 -3.224256965 0)
(95.05754901 -2.87919328 0)
(94.79213609 -2.419415408 0)
(94.72291933 -2.021524925 0)
(94.58658695 -1.450900957 0)
(94.54917451 -1.046371829 0)
(94.52274718 -0.6247710242 0)
(94.5101065 -0.2085932897 0)
(106.3928139 -0.1967792176 0)
(106.3927618 -0.5884532444 0)
(106.3870519 -0.9852979308 0)
(106.3683453 -1.359210377 0)
(106.2541137 -1.696348268 0)
(106.1959848 -2.069390063 0)
(106.0457007 -2.427222818 0)
(105.7180394 -2.743774751 0)
(105.1609831 -3.036105617 0)
(104.3526388 -3.282866579 0)
(99.56688157 -3.257943185 0)
(100.4138192 -3.566138981 0)
(99.58031595 -3.539762146 -5.307518816e-35)
(98.05089766 -3.450799231 0)
(96.79770573 -3.302698551 0)
(95.84694527 -3.101835363 0)
(95.17396901 -2.853049779 0)
(94.74364908 -2.562989702 0)
(94.45280748 -2.168017011 0)
(94.36262777 -1.821499838 0)
(94.21943506 -1.313691184 0)
(94.17761539 -0.9512190202 0)
(94.14869746 -0.5687139301 0)
(94.13589099 -0.1902487702 0)
(106.7477695 -0.1818626292 0)
(106.7466549 -0.5426035581 0)
(106.7371198 -0.9077105975 0)
(106.7127128 -1.248316152 0)
(106.5983466 -1.554569361 0)
(106.5232353 -1.888435766 0)
(106.3441853 -2.203703921 0)
(105.990148 -2.47927609 0)
(105.3975622 -2.729679375 0)
(104.5133365 -2.93492984 0)
(99.36180662 -2.885081708 0)
(100.5183787 -3.161392273 0)
(99.52582423 -3.124116576 0)
(97.94391196 -3.03950017 0)
(96.64548052 -2.910065735 0)
(95.65207378 -2.739385183 0)
(94.94027462 -2.529120721 0)
(94.47657777 -2.282360315 0)
(94.15882606 -1.940945464 0)
(94.04577355 -1.637810897 0)
(93.89175679 -1.186174927 0)
(93.84300033 -0.861720096 0)
(93.80992323 -0.5157653503 0)
(93.79594839 -0.1728631971 0)
(107.074672 -0.1676250378 0)
(107.0717762 -0.4990524754 0)
(107.0572444 -0.8341781248 0)
(107.0252668 -1.144255994 0)
(106.9084465 -1.421902254 0)
(106.8141565 -1.721023064 0)
(106.6056506 -1.999714069 0)
(106.2253599 -2.241022747 0)
(105.6004849 -2.45800889 0)
(104.6371259 -2.630342294 0)
(99.20720774 -2.566944752 0)
(100.573254 -2.814422699 0)
(99.46829986 -2.769922508 1.895757142e-35)
(97.84711998 -2.689412902 0)
(96.51384527 -2.57474105 0)
(95.48612062 -2.427501873 0)
(94.74116318 -2.247379258 0)
(94.24707084 -2.03516129 0)
(93.90259329 -1.738178642 0)
(93.76627345 -1.471706687 0)
(93.59920712 -1.069811814 0)
(93.54204296 -0.7792382921 0)
(93.50380766 -0.4668133249 0)
(93.48798626 -0.1567376547 0)
(107.3751914 -0.1543135298 0)
(107.3700039 -0.4585136242 0)
(107.3497286 -0.7658408452 0)
(107.30899 -1.048344938 0)
(107.1880898 -1.299865381 0)
(107.0735397 -1.568422035 0)
(106.8359406 -1.815845558 0)
(106.4306598 -2.028425939 0)
(105.7765043 -2.218573981 0)
(104.7325833 -2.364698492 0)
(99.10180024 -2.295452901 0)
(100.5964492 -2.516768089 0)
(99.40917039 -2.4670623 0)
(97.75881037 -2.390454714 0)
(96.3984821 -2.287828448 0)
(95.3428687 -2.159226504 0)
(94.56952948 -2.003094072 0)
(94.04801482 -1.818767255 0)
(93.67786349 -1.558817598 0)
(93.51878864 -1.323348553 0)
(93.33763059 -0.9651952163 0)
(93.27133059 -0.7044758826 0)
(93.22742053 -0.4223436653 0)
(93.20932177 -0.1420427316 0)
(107.6513528 -0.1420872682 0)
(107.6435286 -0.4214323647 0)
(107.6170826 -0.7033924334 0)
(107.5668925 -0.9613114839 0)
(107.4407508 -1.189249215 0)
(107.3056165 -1.431080683 0)
(107.0399719 -1.651844501 0)
(106.6116426 -1.840315621 0)
(105.9307867 -2.008743508 0)
(104.8063108 -2.133973544 0)
(99.04161654 -2.064038748 0)
(100.5984686 -2.261456276 0)
(99.34940106 -2.207826116 0)
(97.67778197 -2.134972894 0)
(96.29629854 -2.042405935 0)
(95.2177696 -1.928876806 0)
(94.42002517 -1.792084053 0)
(93.87388152 -1.630484202 0)
(93.47952535 -1.40153509 0)
(93.29871407 -1.192278 0)
(93.10313324 -0.8723585429 0)
(93.02746833 -0.6376763257 0)
(92.97769964 -0.3825536129 0)
(92.95707371 -0.1288540145 0)
(107.9054162 -0.1310387985 0)
(107.8947326 -0.3880537647 0)
(107.8619136 -0.6471982537 0)
(107.8019294 -0.8834683042 0)
(107.6697272 -1.090310057 0)
(107.5141701 -1.30888888 0)
(107.2219405 -1.506942061 0)
(106.7728025 -1.675144107 0)
(106.0674138 -1.825836702 0)
(104.8636296 -1.934504968 0)
(99.02057431 -1.866959412 0)
(100.5855533 -2.042644468 0)
(99.28976159 -1.9861698 0)
(97.6031425 -1.917017055 0)
(96.20495003 -1.832973384 0)
(95.10735021 -1.731756461 0)
(94.28848915 -1.610680983 0)
(93.72025184 -1.467710352 0)
(93.30330086 -1.264783003 0)
(93.10201007 -1.077660035 0)
(92.89210901 -0.7909841554 0)
(92.80716581 -0.5787785923 0)
(92.75156772 -0.3474452132 0)
(92.72828934 -0.1171820419 0)
(108.1397215 -0.1212153567 0)
(108.1260438 -0.358487946 0)
(108.086799 -0.597407463 0)
(108.0169057 -0.8148823328 0)
(107.8780501 -1.003004275 0)
(107.7025101 -1.201462442 0)
(107.3853214 -1.380145762 0)
(106.9176649 -1.531259018 0)
(106.1895909 -1.66729052 0)
(104.9090129 -1.762923867 0)
(99.0320445 -1.699220875 0)
(100.5618224 -1.855584304 0)
(99.23098311 -1.797423804 0)
(97.53418518 -1.731940879 0)
(96.12257664 -1.655129079 0)
(95.00888677 -1.563994483 0)
(94.17163149 -1.455739801 0)
(93.58355528 -1.328072878 0)
(93.14561476 -1.147003171 0)
(92.92516582 -0.9785107804 0)
(92.70127823 -0.7205790812 0)
(92.60732615 -0.5275453462 0)
(92.54605294 -0.3169044814 0)
(92.5200791 -0.1069982486 0)
(108.3567228 -0.1126319579 0)
(108.3399684 -0.3327532181 0)
(108.2943307 -0.5540268354 0)
(108.2145573 -0.7554496701 0)
(108.0685255 -0.9271281911 0)
(107.8735887 -1.108342995 0)
(107.5328856 -1.270216173 0)
(107.049003 -1.407277391 0)
(106.2998375 -1.531024906 0)
(104.9460302 -1.61634741 0)
(99.0711582 -1.557375142 0)
(100.5305643 -1.696717665 0)
(99.17366546 -1.63800947 0)
(97.47022258 -1.575995602 0)
(96.04760817 -1.505232242 0)
(94.92017223 -1.422335503 0)
(94.06678276 -1.324559548 0)
(93.46079178 -1.20944184 0)
(93.00343928 -1.046731629 0)
(92.7650911 -0.893820918 0)
(92.52759548 -0.6605569989 0)
(92.42499808 -0.4836438835 0)
(92.35826301 -0.2907505919 0)
(92.32959506 -0.09825023746 0)
(108.5585894 -0.1052917462 0)
(108.5387296 -0.310826275 0)
(108.4867894 -0.516979407 0)
(108.3972571 -0.7050617624 0)
(108.2437533 -0.8623917482 0)
(108.0301233 -1.029014994 0)
(107.6674647 -1.176227183 0)
(107.1689746 -1.302208763 0)
(106.4002234 -1.415765155 0)
(104.9767069 -1.492636266 0)
(99.13500555 -1.440441673 0)
(100.4947461 -1.56359394 0)
(99.11803123 -1.505199247 -3.297970083e-36)
(97.41047706 -1.446129997 0)
(95.9786871 -1.38028291 0)
(94.83940927 -1.30408156 0)
(93.97178579 -1.214882208 0)
(93.34953406 -1.110309288 0)
(92.87407497 -0.9628231981 0)
(92.61903399 -0.8226107487 0)
(92.3684448 -0.610374715 0)
(92.25759683 -0.4467073033 0)
(92.18563861 -0.2687855397 0)
(92.15431757 -0.09088125375 0)
(108.7484712 -0.09916619278 0)
(108.7254311 -0.2926218303 0)
(108.6672404 -0.486129768 0)
(108.5680835 -0.6633324085 0)
(108.4062267 -0.8084867288 0)
(108.1746267 -0.9628942807 0)
(107.7920092 -1.098304442 0)
(107.2796106 -1.215158432 0)
(106.4925641 -1.320549899 0)
(105.0011871 -1.389854776 0)
(99.2202119 -1.347693133 0)
(100.4569137 -1.454378578 0)
(99.06383858 -1.396823916 0)
(97.35407056 -1.339927421 0)
(95.91462654 -1.277912864 0)
(94.76510754 -1.207074059 0)
(93.88486907 -1.124817942 0)
(93.24796684 -1.029015569 0)
(92.75504466 -0.8941292383 0)
(92.48452458 -0.7640116892 0)
(92.22078764 -0.5693563392 0)
(92.10207529 -0.416368308 0)
(92.0250834 -0.2507838572 0)
(91.99110414 -0.0848162782 0)
(108.9256753 -0.09430091267 0)
(108.8995902 -0.2781880862 0)
(108.8353174 -0.4613964697 0)
(108.7268039 -0.6307309975 0)
(108.5582471 -0.7649546114 0)
(108.3094279 -0.9094578809 0)
(107.9085938 -1.036800999 0)
(107.3830951 -1.145078265 0)
(106.5782164 -1.244045979 0)
(105.0188491 -1.305923586 0)
(99.32193538 -1.27666407 0)
(100.4189632 -1.367359534 0)
(99.0106251 -1.31100668 0)
(97.3000934 -1.25550784 0)
(95.85434978 -1.196315632 0)
(94.69594605 -1.129634955 0)
(93.80440276 -1.052822531 0)
(93.15399693 -0.9635082143 0)
(92.64449365 -0.839154113 0)
(92.35923081 -0.716989513 0)
(92.08426554 -0.5375446073 0)
(91.95808866 -0.3923132335 0)
(91.8763056 -0.2366455878 0)
(91.83982841 -0.08004845255 0)
(109.1036862 -0.09048548545 0)
(109.0740224 -0.2671380665 0)
(109.0033386 -0.4424645566 0)
(108.8843461 -0.6040917558 0)
(108.7029686 -0.7316946527 0)
(108.4366053 -0.868741441 0)
(108.0186055 -0.9902015321 0)
(107.4811162 -1.091214802 0)
(106.6579756 -1.184838199 0)
(105.0296087 -1.239527243 0)
(99.43466327 -1.224430057 0)
(100.3819945 -1.300949964 0)
(98.95804245 -1.246053673 0)
(97.24773476 -1.191378064 0)
(95.79688438 -1.13412506 0)
(94.63072855 -1.070506864 0)
(93.72890449 -0.9977924312 0)
(93.06572727 -0.9133942987 0)
(92.54066913 -0.7972599638 0)
(92.24126808 -0.6818022421 0)
(91.94980328 -0.5122044781 0)
(91.81554197 -0.3741482354 0)
(91.72881717 -0.2259547506 0)
(91.6894168 -0.07636709918 0)
(109.2413002 -0.08838625097 0)
(109.209418 -0.2606419251 0)
(109.1338408 -0.4308049218 0)
(109.0083958 -0.5912697918 0)
(108.8388305 -0.7078693881 0)
(108.55776 -0.8398049424 0)
(108.1237199 -0.9575361345 0)
(107.5748781 -1.052447085 0)
(106.7324758 -1.141678189 0)
(105.0345376 -1.189905031 0)
(99.55366581 -1.18875848 0)
(100.3464746 -1.253760972 0)
(98.9059623 -1.200447481 0)
(97.19636421 -1.146272772 0)
(95.74136733 -1.090251607 0)
(94.5683604 -1.028720548 0)
(93.65705801 -0.9588747043 0)
(92.98177757 -0.8779170743 0)
(92.44189542 -0.7679324123 0)
(92.1291705 -0.6574079098 0)
(91.84328555 -0.49928842 0)
(91.70397663 -0.3628333791 0)
(91.61350251 -0.2195992531 0)
(91.57238419 -0.07431971775 0)
(109.5036175 -0.08584699125 0)
(109.4667564 -0.2543684947 0)
(109.3815136 -0.4202313473 0)
(109.2374632 -0.5723992451 0)
(108.9652211 -0.6946083018 0)
(108.6687772 -0.8229820037 0)
(108.2207462 -0.9386760263 0)
(107.6652681 -1.027854762 0)
(106.8024145 -1.113573424 0)
(105.0357898 -1.157145136 0)
(99.6754346 -1.168824996 0)
(100.3124574 -1.224803452 0)
(98.85448188 -1.172970952 0)
(97.14561343 -1.119166724 0)
(95.68711705 -1.063847372 0)
(94.50788961 -1.003553701 0)
(93.58767972 -0.9354384811 0)