/*--------------------------------*- C++ -*----------------------------------*\
| =========                 |                                                 |
| \\      /  F ield         | OpenFOAM: The Open Source CFD Toolbox           |
|  \\    /   O peration     | Version:  v1912                                 |
|   \\  /    A nd           | Website:  www.openfoam.com                      |
|    \\/     M anipulation  |                                                 |
\*---------------------------------------------------------------------------*/
FoamFile
{
    version     2.0;
    format      ascii;
    class       surfaceVectorField;
    location    "1.53";
    object      Uf;
}
// * * * * * * * * * * * * * * * * * * * * * * * * * * * * * * * * * * * * * //

dimensions      [0 1 -1 0 0 0 0];


internalField   nonuniform List<vector> 
25162
(
(99.99845846 0.00642797093 -2.263666789e-21)
(99.99398011 0.00572965573 6.705881558e-21)
(99.9975649 0.01583409392 -2.233690971e-21)
(99.99119515 0.01980925319 2.268157386e-21)
(99.99581846 0.03182031016 -4.454448317e-21)
(99.98503879 0.04303536954 1.345678436e-20)
(99.99803664 0.03698820224 1.38156216e-21)
(99.97402018 0.08166641563 -8.838425495e-21)
(99.98871624 0.0821872278 -1.480495149e-21)
(99.99679303 0.06746056167 2.146703997e-21)
(99.99895206 0.04041103978 1.060443665e-21)
(99.98677229 0.1138636817 2.13260528e-21)
(99.99697868 0.06469649926 1.041932048e-21)
(99.99776071 0.05054965712 -1.076766944e-21)
(99.99626395 0.08240437205 1.041889492e-21)
(99.97958306 0.1858794439 2.072493952e-21)
(99.99592851 0.1042374718 0)
(99.99570688 0.1281688804 -3.785246665e-21)
(99.97350504 0.2837231563 -3.785226965e-21)
(99.99512204 0.1565082339 -9.824936088e-22)
(99.99449177 0.1888975129 3.29827724e-21)
(99.96614221 0.413357761 3.586012717e-21)
(99.99392866 0.2251453597 4.422441804e-22)
(99.99351162 0.2645410042 -2.905216565e-21)
(99.96128057 0.5706188489 4.144079957e-22)
(99.99332164 0.3059713047 -2.937387717e-21)
(99.99346207 0.3477222019 3.562740128e-22)
(99.96282284 0.7368319343 -1.955660481e-21)
(99.99374893 0.3874939683 2.637673192e-21)
(99.99419908 0.4232648327 2.230951156e-21)
(99.97330611 0.8760895336 -9.82737898e-22)
(99.99538295 0.4518897889 0)
(99.99744449 0.4702176253 0)
(99.99322284 0.949437133 2.062092461e-22)
(99.9999126 0.4774835041 0)
(100.0023553 0.473332699 4.260728545e-22)
(100.0140731 0.9329866393 -9.990942846e-24)
(100.0045006 0.4582948446 9.975867394e-22)
(100.0057288 0.4334797824 -1.869142148e-22)
(100.0299015 0.8358117696 -6.321924905e-22)
(100.0059691 0.4014756639 -1.094571402e-21)
(100.006145 0.3653063686 8.896736646e-23)
(100.0358537 0.6928042565 1.761708609e-21)
(100.0063592 0.3269696618 4.575146488e-22)
(100.006242 0.2882795564 0)
(100.0349113 0.5386324472 0)
(100.0059063 0.2509478695 0)
(100.00558 0.2159944436 7.59854474e-22)
(100.0294827 0.3998307105 1.58650578e-21)
(100.0056197 0.1844749371 -3.851258625e-21)
(100.0054048 0.154335718 -1.426522165e-21)
(100.0242712 0.281144924 3.122254664e-21)
(100.0046175 0.1283947271 3.122021677e-21)
(100.0034452 0.1066954375 -8.762961348e-22)
(100.0145105 0.1924137444 -5.176344091e-23)
(100.0009565 0.09119373714 1.707057171e-21)
(100.0089536 0.08804331073 -7.610020549e-21)
(100.0511873 0.2156681053 4.731251463e-22)
(100.0183491 0.1947770031 -2.70735626e-21)
(100.0030265 0.09058091578 -1.572240533e-21)
(100.0062888 0.05108471036 -9.556278934e-22)
(100.0345634 0.1321621034 1.515005129e-20)
(100.0052234 0.02399868887 -7.678044068e-21)
(100.0254488 0.07055125125 -1.615395052e-20)
(100.0226159 0.02220563132 1.405121316e-21)
(99.98554522 0.01785104655 1.119573422e-20)
(99.97720312 0.009175992761 3.172412875e-22)
(99.97671876 0.04440293233 1.787707838e-20)
(99.96630793 0.03258834169 -1.565936699e-20)
(99.96026045 0.08938344786 9.327844624e-21)
(99.94294504 0.07294229082 -2.426742508e-20)
(99.95156632 0.1460551718 -1.57857771e-21)
(99.90357897 0.1411937694 4.673285106e-20)
(99.91728798 0.1833923048 -1.029653058e-20)
(99.92771143 0.1883336543 -2.210661639e-21)
(99.94472104 0.1872009289 4.351167617e-21)
(99.96621571 0.1322926475 2.162001638e-21)
(99.94637963 0.223190258 2.108662181e-21)
(99.92878297 0.2437907408 2.149130013e-21)
(99.88017287 0.3232250976 -4.342470258e-21)
(99.91102898 0.3145658605 -2.241590731e-23)
(99.91757934 0.3631763672 2.072819205e-21)
(99.89026348 0.4016914175 -2.047953198e-23)
(99.81996994 0.5266728326 0)
(99.87964192 0.4715185192 0)
(99.84713982 0.5405934726 -2.5868785e-21)
(99.8878769 0.5437796439 -5.082287659e-21)
(99.87321617 0.5736140918 -7.329094997e-23)
(99.83734488 0.6637127123 -1.143230799e-20)
(99.86342684 0.6275657015 -3.929542084e-21)
(99.83194416 0.8465608481 3.078857638e-23)
(99.85514483 0.7979674391 -2.580801594e-21)
(99.78667553 0.9797366348 -1.407889812e-20)
(99.82411818 0.9196725966 -3.431600988e-21)
(99.80112589 1.19108641 -6.380862239e-21)
(99.8331497 1.112179627 -6.023184875e-21)
(99.75097521 1.373814462 6.763959503e-22)
(99.79853525 1.278813579 -7.651984156e-21)
(99.79895903 1.571890647 -3.762437035e-23)
(99.83866145 1.451544618 -4.962237418e-21)
(99.75351447 1.802971002 -2.565273837e-21)
(99.80722281 1.662757032 -3.725192765e-21)
(99.84391298 1.911826398 -5.945771975e-21)
(99.88555658 1.743035522 -8.581869268e-21)
(99.8137542 2.178879868 1.785286376e-20)
(99.86482657 1.988343041 -3.258862381e-21)
(99.93941708 2.122587415 -6.170355169e-22)
(99.9727371 1.906680121 -3.002291402e-21)
(99.93455818 2.395421343 -9.014728341e-22)
(99.96717253 2.163231108 -1.741093233e-21)
(100.0467636 2.134820261 2.179098112e-22)
(100.0555231 1.886474825 -3.056701023e-22)
(100.0655415 2.377044303 -1.382677475e-22)
(100.0720701 2.123792279 -7.014827165e-22)
(100.1381868 1.956148662 -2.497794989e-22)
(100.1108205 1.698877602 -2.359918584e-22)
(100.1688344 2.142749728 -9.618266244e-23)
(100.1523714 1.893814549 2.032972469e-21)
(100.1839833 1.649882534 2.362734741e-21)
(100.1335885 1.413299489 4.111031213e-21)
(100.2167797 1.782174342 4.113702676e-21)
(100.1868923 1.560706889 5.217288282e-22)
(100.1874013 1.296793457 -6.632436264e-21)
(100.1301975 1.099122477 -6.195470969e-21)
(100.2158214 1.384231985 -2.236232161e-21)
(100.1818755 1.205075066 -2.193960032e-21)
(100.1619132 0.9707074839 -5.267367179e-21)
(100.1065538 0.817061888 4.807181377e-22)
(100.1799187 1.024139566 -1.411263078e-21)
(100.1522001 0.8921660885 5.745040516e-21)
(100.0977449 0.5555815076 -1.324772724e-20)
(100.1567259 0.7582614029 -1.324669792e-20)
(100.2186423 0.8165226652 1.341661611e-20)
(100.1344088 0.6288661173 -2.708731622e-20)
(100.1130791 0.5182275756 1.177692036e-20)
(100.1562452 0.5508949628 -1.657544942e-20)
(100.0917717 0.4251666141 2.375444358e-20)
(100.0692008 0.376981538 2.639307464e-20)
(100.0845543 0.2548447014 2.25272371e-20)
(100.1926718 0.4002308287 -1.921975546e-22)
(100.1480602 0.4523263219 4.738542368e-20)
(100.0872562 0.3586148287 2.563774568e-21)
(100.0604182 0.1483581383 -6.882913132e-22)
(100.1344767 0.243655123 3.232800211e-20)
(100.0483783 0.06798781118 -7.524207809e-21)
(100.1012175 0.1303003342 -1.713799186e-20)
(100.0867449 0.0408737739 7.673708687e-21)
(99.96122885 0.02249626092 -2.687703004e-20)
(99.95596729 0.008120669845 -1.343304253e-20)
(99.93671283 0.05822052529 -5.820068083e-20)
(99.9326714 0.03129488205 1.240903032e-20)
(99.89220205 0.1218759898 1.244452002e-20)
(99.88320818 0.07760271951 -4.927057679e-20)
(99.84452748 0.2181771377 2.974209124e-20)
(99.80296254 0.1594952685 5.357341695e-20)
(99.79155421 0.2408330195 -4.884396384e-20)
(99.86682537 0.2346916792 -8.853960592e-21)
(99.79414236 0.2658713267 -6.563076014e-20)
(99.81270088 0.2959291381 -4.431680338e-21)
(99.79006456 0.4088129663 -8.66031551e-21)
(99.76512886 0.3931080987 -4.31608681e-21)
(99.67816042 0.4750747068 3.02832211e-20)
(99.70953365 0.5129557608 8.507948445e-21)
(99.68634688 0.6736345659 -7.495432773e-21)
(99.64530964 0.6599993986 5.536910872e-21)
(99.51867802 0.7964449758 -4.267798538e-20)
(99.607631 0.8094444301 3.018040792e-21)
(99.54344895 0.8691683826 -1.861294889e-20)
(99.59040737 1.010018617 -7.68658008e-21)
(99.55778534 1.008051786 0)
(99.48239793 1.113142671 7.956066342e-21)
(99.52230264 1.123494397 -7.657508701e-21)
(99.46129383 1.519832317 3.737542816e-21)
(99.41267245 1.530874168 1.465270643e-20)
(99.31691806 1.687419949 7.260260191e-21)
(99.37817058 1.685211287 1.820203768e-20)
(99.36341349 2.168381875 1.568423639e-21)
(99.29457836 2.20570101 0)
(99.19193534 2.422050436 1.090693545e-19)
(99.27915323 2.390019343 0)
(99.36924898 2.888474045 2.301801403e-20)
(99.28276337 2.973924863 6.618692192e-20)
(99.19466041 3.25787478 -4.560231793e-20)
(99.30310174 3.168389164 -7.004964981e-20)
(99.52111167 3.561360358 1.385037744e-19)
(99.4312035 3.720394886 1.714618196e-20)
(99.38875446 4.052578834 2.279402549e-19)
(99.50015968 3.875434231 4.128847975e-20)
(99.85948931 3.953716348 -2.546026889e-19)
(99.77254944 4.196643732 5.167972311e-21)
(99.82293101 4.520433285 2.209376533e-20)
(99.87740591 4.250971174 -1.249984606e-19)
(100.2066921 3.92776578 -8.800921319e-21)
(100.1954635 4.229039982 2.903679485e-20)
(100.284408 4.484058564 5.901441432e-21)
(100.2919297 4.157948189 -9.260789773e-21)
(100.477052 3.499857533 -1.306161537e-19)
(100.5204513 3.808341742 -4.005083238e-20)
(100.6281395 3.972219623 -8.207539446e-20)
(100.5724934 3.652131488 -7.543035391e-21)
(100.5890592 2.863208392 -8.102482969e-22)
(100.6638026 3.134261034 -1.508374122e-21)
(100.760304 3.223167097 3.132390656e-20)
(100.675325 2.951179449 2.482190303e-21)
(100.5817524 2.198280561 -6.192289035e-21)
(100.6668072 2.417775765 -1.442809528e-20)
(100.7439105 2.45869899 -5.01963557e-21)
(100.6501039 2.244385285 5.579813611e-21)
(100.5747636 1.76433463 -1.754931723e-20)
(100.4948063 1.59742071 -1.182662951e-20)
(100.6313299 1.776340924 -1.184257819e-20)
(100.548 1.618156984 6.34764478e-21)
(100.3851715 1.057808132 -5.244965681e-20)
(100.5162445 1.293555048 -2.708273808e-20)
(100.598585 1.273809799 -7.949228055e-20)
(100.4457103 1.066265461 -3.748169582e-20)
(100.2793218 0.7090598076 -6.006240658e-20)
(100.3797386 0.8723931988 2.381344542e-20)
(100.4332203 0.8452514777 -2.851070223e-20)
(100.3185391 0.7085095668 -2.492834669e-20)
(100.2343272 0.3855116107 9.9761522e-21)
(100.4027125 0.5256002491 -2.568400728e-20)
(100.3811751 0.6383435086 -1.508732258e-22)
(100.2842753 0.5804009824 -1.471951354e-20)
(100.169663 0.2227675206 1.515451562e-20)
(100.2875768 0.3170145788 2.694799921e-20)
(100.1348572 0.1016623889 -1.927845524e-21)
(100.215471 0.1684365414 -3.892328382e-21)
(100.1826206 0.05244515712 0)
(99.93340518 0.01587487916 2.698441923e-20)
(99.94101532 0.0007784766635 -4.501697614e-21)
(99.88674161 0.04819693305 2.27180787e-20)
(99.90223847 0.0101426144 3.151557315e-20)
(99.80308515 0.1149251249 -9.024652308e-21)
(99.82039054 0.04695676276 -4.466885193e-21)
(99.69606098 0.2426205911 0)
(99.68647518 0.1228898668 6.883059308e-21)
(99.63447623 0.2353391049 2.09706211e-20)
(99.71149243 0.2812544103 -6.127296128e-20)
(99.62060269 0.2775601217 1.576653972e-20)
(99.62550227 0.3393726631 0)
(99.54792735 0.5173657651 3.206658926e-22)
(99.53109726 0.4625031611 -3.482298762e-20)
(99.40301923 0.5318837557 -3.479956122e-20)
(99.41917747 0.6174812285 7.062344954e-20)
(99.32203903 0.8869974155 -1.049346889e-19)
(99.28863922 0.8103196251 3.829038835e-20)
(99.10172257 0.9347017246 -7.018129048e-20)
(99.18316307 1.038081561 -3.490463217e-20)
(99.09393619 1.058636507 -5.741103748e-20)
(99.08522283 1.366267778 8.304984977e-21)
(99.05013224 1.321163463 1.650302754e-20)
(98.93031368 1.427806699 4.173476377e-20)
(98.96911351 1.486775127 8.236303855e-21)
(98.7767801 2.125980482 -4.885828258e-20)
(98.71600132 2.077567879 -5.61737869e-20)
(98.56615157 2.241951094 1.793063226e-19)
(98.63763092 2.305487584 1.728929506e-19)
(98.54020673 3.138420807 1.270675438e-19)
(98.44008087 3.103309143 3.438792531e-19)
(98.27244993 3.360127471 3.439283158e-19)
(98.39258026 3.408062196 4.486766507e-19)
(98.50080562 4.397971224 -7.670741454e-19)
(98.35117405 4.415571185 -4.219913389e-19)
(98.20249543 4.78760267 -4.02867756e-19)
(98.38399526 4.768790703 -7.07024121e-19)
(98.85677283 5.658665097 -2.759527908e-19)
(98.67357802 5.790716079 -2.53672061e-19)
(98.62166044 6.251213277 -5.086714299e-20)
(98.84150773 6.087667062 6.610026195e-20)
(99.7166863 6.437501418 -5.31037509e-20)
(99.528154 6.732004078 -5.328313092e-20)
(99.68222681 7.170907685 5.71695496e-20)
(99.80677585 6.819978431 -8.322495003e-20)
(100.6526376 6.327933085 2.443253015e-20)
(100.6138104 6.724230045 5.883153757e-21)
(100.8370472 7.017892911 5.750656582e-20)
(100.8481317 6.573274419 1.832157781e-20)
(101.2821834 5.466408619 2.042992221e-19)
(101.3630152 5.866982638 1.543939827e-19)
(101.5861656 5.992401438 0)
(101.4662929 5.575072677 -5.690952981e-20)
(101.4576757 4.303776601 2.139946789e-19)
(101.5984002 4.640245333 0)
(101.7644945 4.658455597 3.365630474e-19)
(101.5957003 4.327541859 8.334775861e-20)
(101.3572729 3.183826297 4.534587941e-20)
(101.5020217 3.438128563 0)
(101.6123531 3.401078262 0)
(101.4516082 3.163557215 2.125227511e-19)
(101.2729893 2.438643453 0)
(101.1430865 2.257917201 4.730747238e-20)
(101.3444438 2.393186357 0)
(101.205188 2.224449991 0)
(100.8551922 1.455953082 2.90278237e-20)
(101.0726808 1.706420332 1.879707628e-20)
(101.1510282 1.595200634 -1.662808774e-20)
(100.9199821 1.390910194 3.638752621e-20)
(100.6182548 0.9547218451 -3.32302766e-20)
(100.7817179 1.124617417 -1.4837882e-20)
(100.8279997 1.033830735 -1.499654992e-20)
(100.6593824 0.9010269795 -7.254674889e-21)
(100.4427264 0.454767164 -9.262301574e-21)
(100.6655443 0.5665606018 -1.932723796e-20)
(100.6981484 0.749191236 -2.542214476e-21)
(100.5740961 0.719337771 5.264960935e-21)
(100.3211332 0.2601079736 7.756447186e-21)
(100.4710907 0.337149989 1.179173668e-20)
(100.2532079 0.1176011059 -1.964135281e-21)
(100.3498688 0.1755788201 -3.468829457e-21)
(100.2935268 0.05401709634 -4.989213338e-22)
(99.91636069 -0.005274764307 0)
(99.9460125 -0.01381535375 0)
(99.84406528 0.007371507646 4.545163751e-21)
(99.8903897 -0.03390965386 0)
(99.71414912 0.05666572239 1.151791534e-20)
(99.77403637 -0.0253283994 -3.739744422e-21)
(99.53333691 0.1895823855 1.970222638e-20)
(99.5801779 0.02301718495 2.542183141e-20)
(99.47291197 0.1499694768 -7.675455603e-21)
(99.53080029 0.2529891656 2.715723467e-20)
(99.43401029 0.2061833399 2.198049401e-21)
(99.41248625 0.2928823496 -1.091372405e-20)
(99.24924908 0.5148536096 0)
(99.25687699 0.4239954119 -2.276269894e-20)
(99.09233412 0.4631105368 -1.870061287e-20)
(99.07172233 0.5916016051 4.647022463e-21)
(98.86016051 0.9337383371 0)
(98.85448223 0.8055977756 4.646524938e-21)
(98.60828637 0.882354501 -4.79844659e-21)
(98.64613458 1.081851873 2.329247822e-20)
(98.54487589 1.06672106 6.016376257e-21)
(98.41337995 1.515313604 2.67648944e-19)
(98.39305653 1.422451141 0)
(98.22666003 1.508848481 7.291071141e-20)
(98.24903598 1.620889443 1.337367846e-19)
(97.84876272 2.480288244 3.458478332e-20)
(97.7966686 2.357726125 -2.696270993e-19)
(97.58304939 2.511529607 1.045194692e-19)
(97.63961958 2.66481561 3.068151668e-19)
(97.29894654 3.935603508 -2.444620398e-19)
(97.18438414 3.79822436 -7.448668113e-22)
(96.9143165 4.082061576 1.312704158e-19)
(97.05212529 4.252258605 1.421878068e-19)
(97.0360714 5.951494047 -1.427583126e-19)
(96.81120473 5.846407799 -1.156602976e-19)
(96.53395364 6.319129972 -1.155723749e-19)
(96.81653582 6.444359594 1.072846002e-19)
(97.62282902 8.246011451 -3.177630791e-19)
(97.2638706 8.307183885 -2.010980204e-20)
(97.1440525 8.990588274 1.696771934e-19)
(97.59355415 8.889826734 1.30358902e-19)
(99.51361766 9.777637633 7.635319729e-20)
(99.12160091 10.15255323 8.528120903e-20)
(99.40149219 10.84208506 -6.830370556e-20)
(99.7510991 10.34788206 1.331471171e-19)
(101.6670523 9.411079384 -7.097466854e-20)
(101.5858961 10.01247652 3.708714309e-20)
(102.0696089 10.34736364 0)
(102.0796538 9.659183416 0)
(102.8539168 7.650951565 -1.329203829e-19)
(103.0294566 8.203325983 0)
(103.4253931 8.216984578 0)
(103.1748346 7.660522087 -1.371787042e-19)
(102.9649141 5.638196131 -3.667459767e-19)
(103.2316653 6.04578857 -2.464056232e-19)
(103.4792239 5.927929723 -1.31256637e-19)
(103.1628769 5.546657422 2.911590614e-19)
(102.5547241 3.963871536 -3.33782681e-19)
(102.8051022 4.237742152 -2.287420376e-19)
(102.9271591 4.105681796 2.347852862e-19)
(102.6607517 3.857906421 8.726313305e-22)
(102.2305775 2.875171884 -1.480015689e-20)
(102.035101 2.691981192 -3.828291033e-21)
(102.2957379 2.755518401 1.853047688e-20)
(102.0941251 2.597170173 2.263972625e-20)
(101.4794314 1.683382827 -9.381465763e-20)
(101.788017 1.920210875 -5.943050031e-20)
(101.833899 1.711154757 -3.332479775e-20)
(101.5245096 1.542485567 -1.710484351e-20)
(101.0567265 1.075870949 1.152919268e-20)
(101.2866108 1.227968031 3.48000467e-20)
(101.300374 1.076342433 -3.889542159e-21)
(101.0794852 0.968359294 -3.806213936e-21)
(100.6797794 0.4499242017 2.003513895e-21)
(100.9454223 0.504190718 0)
(101.0572818 0.7401648103 -9.368900046e-23)
(100.9219806 0.7539449979 -1.03790832e-20)
(100.4879336 0.2501256577 4.417595769e-22)
(100.659489 0.2921243788 2.003333271e-21)
(100.3799774 0.1108196797 -2.008477941e-21)
(100.4812576 0.1455818987 -2.010514784e-21)
(100.3980491 0.04380481047 -2.017642747e-21)
(99.92625619 -0.04214588589 0)
(99.9857944 -0.03570387583 2.223279257e-21)
(99.82820918 -0.0669712521 -9.110665283e-21)
(99.91390628 -0.100785805 -2.240426111e-21)
(99.65081372 -0.05798163457 9.436473786e-21)
(99.76575568 -0.1401878816 -4.534696779e-21)
(99.38610038 0.04568267788 1.236622162e-20)
(99.51485826 -0.1430111622 3.772585827e-21)
(99.33825979 -0.02204303185 -3.110643789e-23)
(99.35515807 0.1346652088 -9.199717258e-21)
(99.26589902 0.04052537724 -9.286105195e-21)
(99.20868944 0.1405899877 0)
(98.93959381 0.3743850675 -1.870015123e-20)
(98.98718612 0.2558477646 0)
(98.79785345 0.2484107549 -1.180233545e-22)
(98.72075207 0.4073075002 -8.042879782e-23)
(98.35329965 0.7780788807 9.643341121e-21)
(98.40255772 0.6058088613 1.449022488e-20)
(98.11172405 0.6185585949 1.952879509e-20)
(98.07674561 0.8962484605 -1.559597778e-20)
(97.98141035 0.8312409383 -3.340393791e-21)
(97.67326071 1.368375954 3.016202631e-19)
(97.68942397 1.235175932 3.048625662e-19)
(97.49254974 1.27902528 3.218065949e-19)
(97.46955856 1.436588403 1.264772527e-18)
(96.7210954 2.443285778 -3.787600295e-20)
(96.71332409 2.245561144 0)
(96.42645256 2.360139564 0)
(96.42940677 2.596305293 0)
(95.58006886 4.254609746 4.496193105e-19)
(95.50299038 3.981114946 -1.65909471e-19)
(95.09036986 4.210197207 3.221280192e-19)
(95.18453533 4.55893567 2.991510898e-19)
(94.58160641 7.186050479 2.986176404e-19)
(94.31153259 6.829193194 -2.899825831e-19)
(93.76173393 7.328265703 -2.928609859e-19)
(94.10930451 7.779025983 3.077661979e-19)
(94.92385861 11.44534728 -2.343435104e-19)
(94.24149371 11.228539 5.553696257e-19)
(93.7809682 12.28935317 0)
(94.71256637 12.50866116 -4.638498905e-19)
(98.83859065 15.02649679 0)
(97.9524087 15.60835283 -2.301121751e-19)
(98.50379675 16.9287549 0)
(99.50333948 16.01584371 -1.393952559e-20)
(103.9426032 13.72283155 5.32901062e-19)
(103.8260939 14.80661745 9.160709357e-20)
(104.9047946 15.08093049 6.692426778e-20)
(104.7968912 13.85624708 5.032979654e-20)
(105.7810848 9.85760925 -2.176816706e-19)
(106.1921712 10.63746544 -4.722096556e-20)
(106.835251 10.35000953 2.422284608e-20)
(106.2754033 9.617682132 -2.417321948e-19)
(105.3431972 6.590065151 0)
(105.8286349 7.032850747 0)
(106.0917421 6.709203199 -7.545231031e-20)
(105.553049 6.310817082 0)
(104.2155835 4.332961598 -6.410798033e-19)
(104.6094417 4.583820566 5.057539585e-19)
(104.6917931 4.322914734 -3.547545704e-20)
(104.2919529 4.116363332 5.320194628e-19)
(103.4255712 2.956292085 4.309932702e-19)
(103.1433322 2.802788501 1.079731931e-19)
(103.4483515 2.762277614 -1.229978796e-21)
(103.1728453 2.636549738 3.342033673e-20)
(102.2012394 1.669351712 2.721844478e-20)
(102.5935999 1.844620552 -2.528329467e-22)
(102.5668364 1.551404654 1.657138306e-20)
(102.193968 1.45484756 1.234947218e-20)
(101.5454337 1.030026361 -1.620132316e-20)
(101.8364285 1.135637924 -8.262047451e-21)
(101.7898333 0.9332026778 -8.263648106e-21)
(101.5256757 0.8757228012 1.259751189e-20)
(100.9101729 0.3525666651 0)
(101.2042854 0.3316080285 1.33106198e-21)
(101.4050087 0.5865985626 -1.111417198e-20)
(101.2811848 0.6675948528 2.75609727e-20)
(100.6401996 0.1856065308 -5.061319766e-22)
(100.8168873 0.1749299763 -1.573853832e-21)
(100.4893207 0.07852049348 -2.02922448e-21)
(100.5822265 0.07609974691 -2.296381522e-21)
(100.4720996 0.02125798495 2.583420571e-21)
(99.97883975 -0.0935347229 -1.643838751e-23)
(100.0740424 -0.06398423422 8.289222508e-23)
(99.85803689 -0.1726335877 2.332104611e-21)
(99.98859297 -0.1873731397 -1.016856629e-22)
(99.63868531 -0.2239511585 -1.222592713e-20)
(99.8143398 -0.2918414912 1.855830896e-21)
(99.29051119 -0.1774771605 -1.101584327e-20)
(99.517703 -0.3677916334 -1.855913938e-20)
(99.27032281 -0.2756828363 -1.581542295e-20)
(99.21828271 -0.07890212568 -8.640855806e-21)
(99.16137769 -0.2179807382 -3.450603921e-21)
(99.05731826 -0.1169666199 4.271722568e-23)
(98.67525091 0.08627754091 1.408750866e-20)
(98.77490379 -0.04508663888 1.434663562e-20)
(98.57887385 -0.1096195488 7.089565541e-21)
(98.4341186 0.05718679837 2.443213335e-20)
(97.90070149 0.401028409 -2.462013205e-20)
(98.02617034 0.1982940758 -1.987133195e-20)
(97.7292652 0.1282371274 -2.975578558e-20)
(97.58466332 0.4335374303 9.956282794e-20)
(97.51415851 0.3314653005 -2.296754596e-19)
(96.98881707 0.8853695057 4.969093005e-21)
(97.05930276 0.7246798986 3.112094727e-19)
(96.84215133 0.7140184203 -6.578421158e-19)
(96.75210843 0.8990002974 0)
(95.56741174 1.88536935 8.626426199e-20)
(95.64419013 1.626385027 5.995221142e-19)
(95.30824705 1.652071905 5.105993147e-19)
(95.20426873 1.952408144 8.649291243e-19)
(93.57318507 3.675110186 -3.647959364e-19)
(93.62594786 3.258820051 -5.345606741e-19)
(93.09413119 3.341419121 -7.641965119e-19)
(92.99987229 3.835093524 -1.439424416e-19)
(90.85987349 6.934502808 -8.51369993e-19)
(90.77145455 6.228337678 -4.446907549e-20)
(89.84277765 6.443799766 -1.322144999e-18)
(89.91224287 7.362218865 3.656553946e-19)
(88.19520642 14.11340378 2.593365416e-19)
(87.30611321 12.81255014 -4.356364654e-19)
(85.35101139 14.48088828 1.535352504e-18)
(85.57716422 13.56364747 -3.626020638e-19)
(87.30757728 15.79412156 7.395033561e-19)
(86.2087205 15.85984969 1.349088955e-18)
(93.97029469 26.23430694 4.220723406e-19)
(95.42704172 25.71096898 6.563063361e-19)
(94.61551005 28.13589099 4.699398948e-19)
(96.36410191 27.14632704 4.42034614e-19)
(109.9703167 21.66395011 7.635602214e-19)
(110.0098968 19.74833351 -5.995885365e-19)
(111.7064612 19.09050414 8.449066123e-20)
(110.9700222 22.33220362 -2.951257947e-19)
(113.0655141 20.85569878 -4.403740447e-19)
(112.7126916 21.76792788 -9.820077659e-19)
(111.8368373 12.2097139 0)
(110.8462719 11.27922783 3.66466004e-19)
(112.4761116 11.25294135 -1.879244351e-18)
(111.3362731 10.55386603 4.017720226e-19)
(108.5880232 6.568240203 5.498755005e-19)
(109.3790527 6.934627711 -9.810033854e-20)
(109.4937642 6.307116351 -2.783241333e-20)
(108.6916342 6.066193534 3.775508279e-19)
(106.2169454 3.971610573 -6.140615947e-19)
(106.7684305 4.127144817 -3.470416569e-20)
(106.7296893 3.733671337 0)
(106.1972589 3.643976917 2.005338629e-20)
(104.7281156 2.509500415 -2.986960567e-19)
(104.360275 2.436535635 -2.260526006e-21)
(104.6623147 2.255774476 -2.991488637e-19)
(104.3152228 2.204780225 1.661699205e-20)
(102.9171234 1.351782746 4.35774679e-21)
(103.3881616 1.416313261 -1.447987809e-20)
(103.2351026 1.069065523 -2.520878035e-21)
(102.8257308 1.078452121 -4.536036418e-21)
(102.0164234 0.7816770986 4.509505258e-21)
(102.3472774 0.811677551 -2.317056065e-23)
(102.2229702 0.5799169031 -7.3375787e-21)
(101.9333553 0.5924861726 9.125902934e-21)
(101.0911105 0.160110051 -1.869702646e-22)
(101.3760601 0.05318764142 -2.920646397e-22)
(101.6950646 0.2848998928 8.37896413e-22)
(101.5960379 0.3999047763 6.666690379e-21)
(100.7461741 0.06522173523 -3.371117795e-21)
(100.9062672 -0.01097056684 -2.464866305e-22)
(100.5551387 0.0196675273 2.517821477e-21)
(100.6251365 -0.02990919297 -2.260032479e-21)
(100.4906347 -0.01284541854 4.270830353e-22)
(100.0878089 -0.1566513558 1.724422886e-23)
(100.2218174 -0.09688268244 -3.293215717e-21)
(99.94991449 -0.303549481 -6.034545608e-22)
(100.1271902 -0.2881439435 1.43660226e-21)
(99.69973095 -0.432736082 -4.738779239e-21)
(99.93628155 -0.4694125088 -3.119667529e-21)
(99.28264733 -0.4688695354 9.804906747e-21)
(99.61012143 -0.6335087292 -1.079242449e-21)
(99.30040358 -0.5923146014 1.017184325e-21)
(99.16209091 -0.3775641252 4.784620485e-21)
(99.1572755 -0.5489979587 9.907669397e-21)
(99.00402056 -0.463633124 6.984990849e-21)
(98.51659867 -0.3330579793 -2.390687739e-21)
(98.67510453 -0.4570147663 3.699287449e-21)
(98.49296761 -0.5787846805 2.445128881e-21)
(98.28019304 -0.4317714003 7.40660255e-21)
(97.6081113 -0.1896728868 -2.538621632e-21)
(97.81404354 -0.3859493757 -2.539954324e-23)
(97.54555603 -0.5417517074 -4.383102588e-20)
(97.28076951 -0.2472409345 -1.691573604e-21)
(97.25106822 -0.3873637029 4.346115219e-19)
(96.499836 0.08790685481 -8.536791269e-20)
(96.63636936 -0.07454789469 1.334940749e-18)
(96.42465008 -0.1498842125 7.149253019e-19)
(96.25952443 0.02939783424 6.759682216e-20)
(94.68773648 0.7502324728 -1.993672489e-19)
(94.87557028 0.4836594237 -7.489020939e-19)
(94.54693577 0.3967842582 -1.696293712e-19)
(94.31305195 0.6871799578 -9.333091161e-19)
(91.94098001 1.904678756 -1.060914421e-19)
(92.21192717 1.47067069 -2.206798437e-19)
(91.69478014 1.323495807 -1.043332912e-19)
(91.33300083 1.794368106 -3.20539974e-19)
(87.41078803 3.757878245 1.04653322e-18)
(87.86270221 2.975346388 5.186395834e-19)
(87.00386142 2.599194671 -2.052710737e-18)
(86.30256129 3.439773682 3.596977336e-20)
(78.48330927 6.957674725 -1.269538114e-18)
(79.10435802 5.914354194 -5.010103261e-20)
(78.09000531 5.249981399 -1.288471249e-18)
(77.14352827 6.35662658 -4.052616605e-18)
(128.456167 23.78697816 8.645609752e-20)
(126.3666831 22.78602653 2.45377068e-20)
(128.9928894 21.58775358 -3.436772345e-18)
(127.0021501 21.04603503 5.091050639e-20)
(119.6545962 9.754593185 -2.774504109e-19)
(117.8317138 9.378100048 3.62896785e-18)
(119.4722524 8.068764154 1.139176911e-18)
(117.7956382 8.080160648 7.858328237e-19)
(112.1374109 4.755985216 -2.200860719e-19)
(113.1998609 4.795148201 -1.033682576e-18)
(112.9080637 3.977629728 0)
(111.9382903 4.083326156 0)
(108.1515545 2.64105321 3.970749493e-19)
(108.8103709 2.602096262 -3.684601332e-20)
(108.5543644 2.15434789 -9.372996591e-19)
(107.958725 2.253973275 1.320305037e-18)
(105.8768778 1.457800052 0)
(105.4600931 1.500200001 2.077969671e-20)
(105.6916022 1.181062524 0)
(105.3137606 1.243491101 0)
(103.502172 0.7106416887 -4.918284655e-21)
(104.011351 0.6375465435 -8.482139341e-20)
(103.7031622 0.2878140397 7.822512179e-21)
(103.3002847 0.423843038 1.171626023e-21)
(102.3828096 0.3314877978 -2.004592803e-21)
(102.7176151 0.2650262477 1.376550537e-20)
(102.4991356 0.04268845461 5.08554429e-21)
(102.2253471 0.1414707706 1.007838108e-20)
(101.1782861 -0.1130340166 -3.586948746e-22)
(101.4267701 -0.3099819771 -1.066443722e-21)
(101.8509903 -0.142127596 -1.081801715e-21)
(101.8087409 0.02406524971 -1.163215839e-21)
(100.774875 -0.1039194527 1.084693743e-21)
(100.8975504 -0.2499071427 1.327731564e-21)
(100.5523373 -0.06105223528 -4.303411363e-21)
(100.5846412 -0.1640760418 1.669618172e-21)
(100.4330254 -0.056144971 -2.129962311e-21)
(100.2632259 -0.2270302704 -1.873816019e-21)
(100.435977 -0.1319874793 1.038945503e-21)
(100.1159819 -0.4499669754 -1.093109155e-21)
(100.3375187 -0.395664254 -7.664260445e-22)
(99.84962981 -0.6669827386 5.587835937e-22)
(100.1410422 -0.6589207736 -2.757414508e-22)
(99.3863315 -0.8048367964 6.430606075e-22)
(99.80514046 -0.9182610022 9.292854906e-22)
(99.44748601 -0.9424558126 5.564066771e-22)
(99.21762859 -0.7343384163 1.626290256e-21)
(99.27601999 -0.9230967701 -1.634456732e-23)
(99.07848223 -0.8666165461 -1.634689202e-23)
(98.51249649 -0.8408129353 -2.436527131e-21)
(98.72585488 -0.9389449853 0)
(98.5772355 -1.112265406 -1.192643164e-21)
(98.30877146 -1.007402243 -1.267329204e-21)
(97.54485589 -0.9171715327 -1.36231997e-21)
(97.8222627 -1.075444016 3.874434328e-20)
(97.60879745 -1.303079903 3.996013168e-20)
(97.2352845 -1.061067206 4.731341922e-19)
(97.25542042 -1.22084266 -4.079313895e-19)
(96.33324565 -0.9145335638 -4.279854134e-20)
(96.52732211 -1.048800449 0)
(96.3491022 -1.178465804 0)
(96.11789046 -1.038154564 -1.432749368e-18)
(94.3579607 -0.7331799916 9.542057722e-21)
(94.62850419 -0.944613433 -1.143204321e-18)
(94.37058887 -1.115973131 2.178461731e-19)
(94.0318053 -0.90132826 -7.859814049e-19)
(91.43209141 -0.4959829773 1.616914383e-20)
(91.85958808 -0.7972329334 -1.889184017e-19)
(91.48801956 -1.079087184 -3.915657198e-20)
(90.97939749 -0.7973660797 -1.373104032e-18)
(87.00575473 -0.7036944239 1.025149725e-18)
(87.73750298 -1.077789754 2.045047844e-18)
(87.28164609 -1.619824393 3.111373173e-18)
(86.43830701 -1.343251545 1.023305404e-18)
(81.05936295 -3.007097298 0)
(81.75575904 -3.042345329 0)
(81.65918173 -3.581245992 1.152463918e-18)
(81.01192501 -3.663907896 3.078758461e-19)
(141.3016084 4.724701427 -3.337041082e-18)
(139.5838775 5.860547489 0)
(139.8327853 3.365996487 -2.449044085e-18)
(138.4039163 4.483085434 2.190987038e-18)
(124.5824236 1.732263825 -4.656721552e-18)
(122.8112844 2.540744574 -1.99434718e-20)
(123.2461973 0.42794993 -7.639555999e-18)
(121.8640432 1.33125882 -8.93780194e-19)
(114.5488822 0.9942910794 7.686860182e-19)
(115.5829252 0.5356810109 4.079468508e-19)
(114.8124967 -0.1334911334 2.638924727e-19)
(113.9527821 0.3774515087 7.553656495e-19)
(109.4195511 0.3843831982 -2.257777063e-19)
(110.0551777 0.09466648181 -2.479431916e-19)
(109.5667687 -0.273573012 -2.046182469e-19)
(109.0241181 0.03722530225 9.762901311e-19)
(106.5455225 -0.09807386957 7.181746937e-19)