/*--------------------------------*- C++ -*----------------------------------*\
| =========                 |                                                 |
| \\      /  F ield         | OpenFOAM: The Open Source CFD Toolbox           |
|  \\    /   O peration     | Version:  v1912                                 |
|   \\  /    A nd           | Website:  www.openfoam.com                      |
|    \\/     M anipulation  |                                                 |
\*---------------------------------------------------------------------------*/
FoamFile
{
    version     2.0;
    format      ascii;
    class       surfaceScalarField;
    location    "0.77";
    object      meshPhi;
}
// * * * * * * * * * * * * * * * * * * * * * * * * * * * * * * * * * * * * * //

dimensions      [0 3 -1 0 0 0 0];
oriented        oriented;


internalField   nonuniform List<scalar> 
25162
(
0
0
0
0
0
0
0
0
0
0
0
0
0
0
0
0
0
0
0
0
0
0
0
0
0
0
0
0
0
0
0
0
0
0
0
0
0
0
0
0
0
0
0
0
0
0
0
0
0
0
0
0
0
0
0
0
0
0
0
0
0
0
0
0
0
0
0
0
0
0
0
0
0
0
0
0
0
0
0
0
0
0
0
0
0
0
0
0
0
0
0
0
0
0
0
0
0
0
0
0
0
0
0
0
7.268110575e-09
-9.405537917e-08
1.053287955e-06
0
-1.590582761e-08
-8.953912326e-07
0
0
0
0
0
0
0
0
0
0
0
0
0
0
0
0
0
0
0
0
0
0
0
0
0
0
0
0
0
0
0
0
0
0
0
0
0
0
0
0
0
0
0
0
0
0
0
0
0
0
0
0
0
0
0
0
0
0
0
0
0
0
0
0
0
0
-3.432808429e-08
1.39185423e-06
3.119628988e-06
-8.879516175e-06
-1.211163031e-05
8.057669049e-05
2.81170281e-05
-0.0001142307308
-1.598718189e-05
0.0002107233697
2.808531754e-05
-0.0002349066049
1.700642665e-06
0.0002667437897
-2.61043288e-06
-0.0002621957275
1.564458471e-05
0.000207021054
-2.778047001e-05
-0.0001778312039
7.565801675e-06
7.937928451e-05
-2.040870313e-05
-4.965279859e-05
0
1.497019514e-06
-4.781658331e-07
0
0
0
0
0
0
0
0
0
0
0
0
0
0
0
0
0
0
0
0
0
0
0
0
0
0
0
0
0
0
0
0
0
0
0
0
0
0
0
0
0
0
0
0
0
0
0
0
0
0
0
-1.660207663e-06
2.655038313e-06
8.434955481e-06
-1.936859826e-05
-5.950398429e-05
0.000175496819
9.273243388e-05
-0.00025238814
-0.0001108129149
0.0005057923924
0.0001470285612
-0.0005860804095
-8.00630261e-05
0.0007769933431
0.0001007242301
-0.0008184304986
4.718340612e-06
0.0008653362927
-4.882943905e-06
-0.0008548131977
7.668689049e-05
0.000749955959
-9.489083284e-05
-0.0006933610162
8.667746662e-05
0.0004782215152
-0.000114432184
-0.0003980775603
3.582338151e-05
0.0001684450502
-5.886366568e-05
-0.0001055846567
0
2.652623885e-06
-1.255053635e-06
0
0
0
0
0
0
0
0
0
0
0
0
0
0
0
0
0
0
0
0
0
0
0
0
0
0
0
0
0
0
0
0
0
0
0
0
0
0
0
0
0
0
0
0
0
5.476141704e-07
-8.695552522e-07
-6.82399721e-05
0.0001113439507
9.750926115e-05
-0.0001942283894
-0.0002205942526
0.0005292429222
0.0002678544827
-0.0006526860639
-0.0002642906621
0.0009963942991
0.0003015058276
-0.001090948988
-0.0001619998971
0.001291629986
0.0001794552619
-0.001330323367
3.517756699e-06
0.001368851548
-2.67901705e-06
-0.00135731412
0.0001469448091
0.001248799807
-0.0001622550937
-0.001187156543
0.0002010598742
0.0009303671926
-0.0002287586379
-0.0008260949822
0.0001452894645
0.0004942981232
-0.0001731523201
-0.0003959004086
3.707160776e-05
0.0001231708956
-5.744965158e-05
-6.19969689e-05
0
0
0
0
0
0
0
0
0
0
0
0
0
0
0
0
0
0
0
0
0
0
0
0
0
0
0
0
0
0
0
0
0
0
0
0
0
0
0
0
0
0
-1.692322105e-05
1.10843643e-05
2.755128789e-05
-4.865029513e-05
-0.0002136272708
0.0003040455971
0.0002517537562
-0.0004248120145
-0.0003990333211
0.0008342825333
0.0004444731437
-0.0009674129096
-0.0003893426508
0.001269142966
0.0004077169034
-0.001336927736
-0.0002129333079
0.001449756497
0.0002162196955
-0.001463756096
6.019516822e-07
0.001472970726
-5.094491211e-07
-0.001470748397
0.0001990027678
0.001433169805
-0.0002068155402
-0.001399705303
0.0002873627727
0.001225455601
-0.0003104956075
-0.001129096145
0.0002730808972
0.0007780181613
-0.0003000387273
-0.0006551519911
0.0001269240953
0.0003021907786
-0.0001494407054
-0.0002031609029
1.437617424e-05
3.862522867e-06
-6.742986326e-06
-2.183415e-07
0
0
0
0
0
0
0
0
0
0
0
0
0
0
0
0
0
0
0
0
0
0
0
0
0
0
0
0
0
0
0
0
0
0
0
4.810059748e-07
-6.817576744e-09
-2.477865993e-07
-6.311608658e-05
4.797828289e-05
7.632411748e-05
-0.0001090265293
-0.0003494128208
0.0004097855539
0.0003720598692
-0.0005360092194
-0.0005435339433
0.0009196006605
0.0005633789021
-0.001028883861
-0.0004358134422
0.001256823181
0.000445665891
-0.00129670348
-0.0002030470686
0.001328879947
7.05980696e-05
0.0001089661931
-0.0006527771567
-0.0006526199842
0.0006505141796
-5.980639476e-06
5.925841796e-06
-0.0006504593819
0.0006638880745
0.0001992132106
-0.00131960926
0.0006605525057
-0.0001144275986
-8.961693222e-05
0.001232278606
0.0003822437308
-0.000392550418
-0.001174840014
0.0003614090391
0.0009053099826
-0.0003793523217
-0.000786181616
0.0002096022685
0.0004157096164
-0.0002289848141
-0.0003070617063
6.302003066e-05
2.994477327e-05
-3.85946928e-05
-2.019199602e-05
0
0
0
0
0
0
0
0
0
0
0
0
0
0
0
0
0
0
0
0
0
0
0
0
0
0
0
0
0
0
0
0
0
-2.021743956e-06
0
4.352574135e-06
-2.020952462e-06
-2.928964422e-06
-0.0001038096008
6.615772369e-05
0.0001071498469
-0.0001297046823
-0.0004296287397
0.0004131776402
0.0004368962678
-0.0005257153302
-0.0006012352155
0.0008496230767
0.0006068449401
-0.0009384130308
-0.0004478817767
0.001097643807
0.0004479482926
-0.001107499497
-0.0001175543662
0.0005674979025
0.0001168120803
-0.0005667556166
0.0005625589149
0.0001048422623
-0.0001056935254
-0.0005617076519
0.001095929998
0.0004189992473
-0.000423046112
-0.001069184357
0.0004245080698
0.0008716739117
-0.0004308436122
-0.0007759412129
0.0002675396161
0.0004511872379
-0.0002730264907
-0.0003450996437
9.281992316e-05
5.839587532e-05
-6.709216529e-05
-4.092732089e-05
0
0
0
0
0
0
0
0
0
0
0
0
0
0
0
0
0
0
0
0
0
0
0
0
0
0
0
0
0
0
0
0
0
-5.673667313e-06
0
7.170725633e-06
-4.467594278e-06
-4.740870696e-06
-0.0001242047396
6.716312975e-05
0.0001278075789
-0.0001239663718
-0.0004617053356
0.0003657488364
0.0004666983539
-0.0004585514283
-0.0006185596319
0.0007190586272
0.0006207673855
-0.0007877303595
-0.0004469375384
0.0009005591333
0.0004466063891
-0.0009037734106
-0.0001197727737
0.0004581511056
0.0001197539935
-0.0004581323254
0.0004608758714
0.0001074492442
-0.0001076760479
-0.0004606490677
0.000907445636
0.0004337697809
-0.0004356117173
-0.0008948467731
0.0004510351329
0.0007525143954
-0.0004550296685
-0.0006769327333
0.0002968468224
0.0004096387118
-0.0003015455683
-0.0003194602371
9.545393125e-05
7.778501442e-05
-8.129492194e-05
-4.653758685e-05
0
0
0
0
0
0
0
0
0
0
0
0
0
0
0
0
0
0
0
0
0
0
0
0
0
0
0
0
0
0
0
0
0
-8.617698943e-06
0
1.060464246e-05
-5.222624565e-06
-5.400526792e-06
-0.0001367687971
5.880895445e-05
0.000140384373
-0.0001052354689
-0.0004788233732
0.0002982320143
0.0004836185051
-0.0003711720441
-0.0006259330328
0.0005727318164
0.0006279247751
-0.0006247326292
-0.000445703334
0.000706002809
0.0004453573004
-0.0007071510082
-0.0001195920699
0.0003592661524
0.0001194445239
-0.000180999261
-0.0001781193454
0.000360989979
0.0001079754647
-0.0001080296699
-0.0003609357738
0.0007091193086
0.0004347539541
-0.0004334580654
-0.0007009829103
0.0004524851162
0.0005937652054
-0.0004506764636
-0.0005351587477
0.0002984531621
0.000324385333
-0.0002966592751
-0.0002526848322
7.468053559e-05
7.892518332e-05
-7.783870854e-05
-3.608496525e-05
0
0
0
0
0
0
0
0
0
0
0
0
0
0
0
0
0
0
0
0
0
0
0
0
0
0
0
0
0
0
0
0
0
-1.277358939e-05
0
1.526110237e-05
-5.57544808e-06
-5.510880117e-06
-0.0001516740152
4.819182489e-05
0.0001556422381
-8.35466512e-05
-0.000498216162
0.0002268330831
0.0005032192566
-0.0002800032392
-0.0006338125704
0.0004241542847
0.0006357789047
-0.0004603014129
-0.0004445861498
0.000513099354
0.0004443779236
-0.0005132461259
-0.0001192357737
0.0002624532585
0.0001191640015
-0.0001326947129
-0.0001296867734
0.0002628506142
0.0001077093122
-0.0001076595003
-0.0002629004261
0.0005138948723
0.0004254334714
-0.0004206188913
-0.0005060854752
0.0004320439714
0.0004255044094
-0.0004278380744
-0.0003781772516
0.0002744663827
0.0002206462118
-0.0002679563496
-0.0001683176442
4.347215098e-05
6.225198188e-05
-5.862585539e-05
-1.856244723e-05
0
0
0
0
0
0
0
0
0
0
0
0
0
0
0
0
0
0
0
0
0
0
0
0
0
0
0
0
0
0
0
0
0
-1.82555853e-05
0
1.93645304e-05
-4.941732252e-06
-4.267870254e-06
-0.0001685781811
3.413898523e-05
0.0001736254849
-5.74259099e-05
-0.0005191066768
0.000149273732
0.0005251312704
-0.000182588003
-0.0006418326761
0.0002702613528
0.0006440336227
-0.0002913154208
-0.0004439867283
0.0003188704536
0.0004439221849
-0.000318802986
-0.0001187779427
0.0001653448518
0.0001187277056
-8.41328003e-05
-8.116181432e-05
0.0001649146441
0.0001070036798
-0.0001068219448
-0.0001650963791
0.0003180647448
0.0004057282613
-0.0003992601512
-0.0003103386287
0.0003999111946
0.0002468743877
-0.0003845548626
-0.0002243858713
0.000236183221
0.0001253428085
-0.0002202060837
-9.245258577e-05
1.806373774e-05
3.972348624e-05
-3.407466359e-05
-5.803078553e-06
0
0
0
0
0
0
0
0
0
0
0
0
0
0
0
0
0
0
0
0
0
0
0
0
0
0
0
0
0
0
0
0
0
-2.700716562e-05
0
3.477152344e-05
-3.035995248e-06
-2.093601425e-06
-0.0001887589913
1.713059626e-05
0.0002018022509
-2.825351579e-05
-0.000545289329
6.604138695e-05
0.0005526031628
-7.84753044e-05
-0.0006509768667
0.0001073077181
0.000655323681
-0.0001175664543
-0.0004440695039
0.0001239092798
0.0004441198611
-6.808063421e-05
-5.587900278e-05
-6.094630723e-05
3.556973774e-05
6.093511481e-05
-3.555854532e-05
-2.286834275e-06
1.762042865e-05
2.355672803e-06
-3.457301381e-05
1.688374663e-05
6.823325629e-05
0.0001057515041
-0.0002241982139
-0.0001252075862
5.619642776e-05
0.0001192246119
0.0003799656841
0.0001293174118
-0.0003669553386
-0.0001298604541
0.0003476683773
0.0001018919049
-0.0003352958641
-8.817391089e-05
0.0001816511333
4.223060132e-05
-0.0001709557089
-2.86715542e-05
2.978033823e-06
1.400562425e-05
-1.100412225e-05
-2.920310694e-07
0
0
0
0
0
0
0
0
0
0
0
0
0
0
0
0
0
0
0
0
0
0
0
0
0
0
0
0
0
0
0
0
0
-4.002717059e-05
0
3.299289501e-05
2.310241851e-06
3.537301041e-06
-0.0002215512733
-1.106577957e-05
0.0002148263404
1.768386739e-05
-0.0005750348861
-4.270893807e-05
0.0005657785526
5.120367182e-05
-0.0006553104363
-7.019126384e-05
0.0006512707131
7.313384669e-05
-0.0004390850178
-7.14538495e-05
0.0004390850178
2.965900218e-05
4.179484732e-05
-5.983480453e-05
-2.965900218e-05
0.00011622615
-5.639134541e-05
1.330285233e-05
1.635614985e-05
-6.032445065e-06
-1.330284153e-05
6.032428855e-06
2.965900218e-05
-1.635614445e-05
-7.145384949e-05
0.0002217106698
-0.0002201983821
6.994175572e-05
0.0003414300913
-4.475330552e-05
-0.0003321048997
3.800996834e-05
0.0002946004475
-2.165369004e-05
-0.0002759337838
1.291900484e-05
0.000127559241
-4.430769798e-06
-0.0001139222917
4.571900005e-06
-1.472861628e-07
2.153425456e-06
-9.768900468e-07
0
0
0
0
0
0
0
0
0
0
0
0
0
0
0
0
0
0
0
0
0
0
0
0
0
0
0
0
0
0
0
0
0
0
-2.060141151e-05
0
7.573612226e-06
3.793158749e-06
2.761343654e-06
-0.0001676731499
-2.847890506e-05
0.0001452024986
4.912590501e-05
-0.0004966136106
-0.0001335705249
0.0004608197973
0.000164314476
-0.0006141241716
-0.000241354023
0.000590826736
0.0002577619219
-0.0004441964868
-0.0002739071273
0.000444910487
0.0002703783714
-0.0001162261499
-0.0002659829472
0.0002186826336
0.0002659829472
-0.0001024564837
1.709761094e-06
-0.0002659829472
-1.709761088e-06
0.0002659829472
0.0002092210428
-0.000256362008
-0.0002027735641
0.0002450219371
0.0002963712786
-0.0001904599843
-0.0002824172804
0.000168123656
0.0002249804747
-9.957780599e-05
-0.0002094438596
7.81712709e-05
7.115083354e-05
-2.495945222e-05
-5.776888559e-05
1.281768842e-05
0
0
0
0
0
0
0
0
0
0
0
0
0
0
0
0
0
0
0
0
0
0
0
0
0
0
0
0
0
0
0
0
0
0
0
0
0
-1.850610402e-07
0
0
3.307223186e-08
0
-7.162279535e-05
-1.567671842e-05
4.911888721e-05
3.616955573e-05
-0.0003254203205
-0.0001402008878
0.0002749605071
0.0001838497635
-0.0004822866262
-0.0003130179961
0.000434339596
0.0003492057413
-0.000409300381
-0.0004226773984
0.0003837330279
0.000435513392
-0.0002125125431
-0.0004493623901
0.0002028176828
0.0004485795519
2.353259002e-06
-0.0004336845158
-2.945433392e-06
0.0004231891018
0.000174353307
-0.0003682501533
-0.0001618015386
0.0003419479182
0.0002269746838
-0.0002463450732
-0.0002045935972
0.0002117374115
0.0001498662441
-0.0001115628821
-0.0001270375376
8.193459261e-05
2.434529658e-05
-1.566225457e-05
-1.459804261e-05
4.347094913e-06
0
0
0
0
0
0
0
0
0
0
0
0
0
0
0
0
0
0
0
0
0
0
0
0
0
0
0
0
0
0
0
0
0
0
0
0
0
0
0
0
0
0
-5.10484084e-06
-4.613093335e-08
8.387093571e-07
3.567780398e-06
-0.0001296852618
-6.587343252e-05
8.894696639e-05
0.000101528312
-0.0002716792142
-0.0002299683395
0.0002170593335
0.0002734134065
-0.0002751939137
-0.0003827239559
0.0002329701015
0.0004088404591
-0.0001533168665
-0.0004515013525
0.0001325101031
0.0004541155824
4.694555762e-06
-0.0004299965174
-4.951008231e-06
0.0004120471743
0.0001163149715
-0.0003330662853
-9.935751074e-05
0.0003001496538
0.0001302604787
-0.0001920921473
-0.0001048035266
0.0001558779705
5.840631885e-05
-5.966062739e-05
-3.83944244e-05
3.51308222e-05
2.118734012e-07
-1.529161681e-07
0
0
0
0
0
0
0
0
0
0
0
0
0
0
0
0
0
0
0
0
0
0
0
0
0
0
0
0
0
0
0
0
0
0
0
0
0
0
0
0
0
0
0
0
0
0
0
0
-1.01138333e-05
-2.006458199e-06
1.570171712e-06
9.504243011e-06
-7.791743404e-05
-6.818636881e-05
4.499989078e-05
9.531387934e-05
-0.0001108575475
-0.0001782498083
7.675489768e-05
0.0002019327328
-6.918249394e-05
-0.0002480836376
5.046861847e-05
0.0002536228217
4.061915524e-06
-0.0002399135173
-3.290614571e-06
0.0002261440207
4.879235116e-05
-0.0001645770656
-3.389525747e-05
0.0001397240798
3.682213727e-05
-6.451354831e-05
-2.008639382e-05
4.260989728e-05
1.954679646e-06
-2.454851436e-06
-5.480559371e-09
2.659247088e-08
0
0
0
0
0
0
0
0
0
0
0
0
0
0
0
0
0
0
0
0
0
0
0
0
0
0
0
0
0
0
0
0
0
0
0
0
0
0
0
0
0
0
0
0
0
0
0
0
0
0
0
0
0
0
-2.415859075e-07
0
0
4.00589267e-07
-9.925100829e-06
-1.109089963e-05
1.557827299e-06
1.724358895e-05
-1.019792719e-05
-3.364646631e-05
3.376451642e-06
3.648263845e-05
7.698457554e-07
-3.36666075e-05
-2.351905995e-07
2.928652877e-05
3.701442836e-06
-1.154614552e-05
-3.113060674e-07
6.345615935e-06
0
0
0
0
0
0
0
0
0
0
0
0
0
0
0
0
0
0
0
0
0
0
0
0
0
0
0
0
0
0
0
0
0
0
0
0
0
0
0
0
0
0
0
0
0
0
0
0
0
0
0
0
0
0
0
0
0
0
0
0
0
0
0
0
0
0
0
0
0
0
0
0
0
0
0
0
0
0
0
0
0
0
0
0
0
0
0
0
0
0
0
0
0
0
0
0
0
0
0
0
0
0
0
0
0
0
0
0
0
0
0
0
0
0
0
0
0
0
0
0
0
0
0
0
0
0
0
0
0
0
0
0
0
0
0
0
0
0
0
0
0
0
0
0
0
0
0
0
0
0
0
0
0
0
0
0
0
0
0
0
0
0
0
0
0
0
0
0
0
0
0
0
0
0
0
0
0
0
0
0
0
0
0
0
0
0
0
0
0
0
0
0
0
0
0
0
0
0
0
0
0
0
0
0
0
0
0
0
0
0
0
0
0
0
0
0
0
0
0
0
0
0
0
0
0
0
0
0
0
0
0
0
0
0
0
0
0
0
0
0
0
0
0
0
0
0
0
0
0
0
0
0
0
0
0
0
0
0
0
0
0
0
0
0
0
0
0
0
0
0
0
0
0
0
0
0
0
0
0
0
0
0
0
0
0
0
0
0
0
0
0
0
0
0
0
0
0
0
0
0
0
0
0
0
0
0
0
0
0
0
0
0
0
0
0
0
0
0
0
0
0
0
0
0
0
0
0
0
0
0
0
0
0
0
0
0
0
0
0
0
0
0
0
0
0
0
0
0
0
0
0
0
0
0
0
0
0
0
0
0
0
0
0
0
0
0
0
0
0
0
0
0
0
0
0
0
0
0
0
0
0
0
0
0
0
0
0
0
0
0
0
0
0
0
0
0
0
0
0
0
0
0
0
0
0
0
0
0
0
0
0
0
0
0
0
0
0
0
0
0
0
0
0
0
0
0
0
0
0
0
0
0
0
0
0
0
0
0
0
0
0
0
0
0
0
0
0
0
0
0
0
0
0
0
0
0
0
0
0
0
0
0
0
0
0
0
0
0
0
0
0
0
0
0
0
0
0
0
0
0
0
0
0
0
0
0
0
0
0
0
0
0
0
0
0
0
0
0
0
0
0
0
0
0
0
0
0
0
0
0
0
0
0
0
0
0
0
0
0
0
0
0
0
0
0
0
0
0
0
0
0
0
0
0
0
0
0
0
0
0
0
0
0
0
0
0
0
0
0
0
0
0
0
0
0
0
0
0
0
0
0
0
0
0
0
0
0
0
0
0
0
0
0
0
0
0
0
0
0
0
0
0
0
0
0
0
0
0
0
0
0
0
0
0
0
0
0
0
0
0
0
0
0
0
0
0
0
0
0
0
0
0
0
0
0
0
0
0
0
0
0
0
0
0
0
0
0
0
0
0
0
0
0
0
0
0
0
0
0
0
0
0
0
0
0
0
0
0
0
0
0
0
0
0
0
0
0
0
0
0
0
0
0
0
0
0
0
0
0
0
0
0
0
0
0
0
0
0
0
0
0
0
0
0
0
0
0
0
0
0
0
0
0
0
0
0
0
0
0
0
0
0
0
0
0
0
0
0
0
0
0
0
0
0
0
0
0
0
0
0
0
0
0
0
0
0
0
0
0
0
0
0
0
0
0
0
0
0
0
0
0
0
0
0
0
0
0
0
0
0
0
0
0
0
0
0
0
0
0
0
0
0
0
0
0
0
0
0
0
0
0
0
0
0
0
0
0
0
0
0
0
0
0
0
0
0
0
0
0
0
0
0
0
0
0
0
0
0
0
0
0
0
0
0
0
0
0
0
0
0
0
0
0
0
0
0
0
0
0
0
0
0
0
0
0
0
0
0
0
0
0
0
0
0
0
0
0
0
0
0
0
0
0
0
0
0
0
0
0
0
0
0
0
0
0
0
0
0
0
0
0
0
0
0
0
0
0
0
0
0
0
0
0
0
0
0
0
0
0
0
0
0
0
0
0
0
0
0
0
0
0
0
0
0
0
0
0
0
0
0
0
0
0
0
0
0
0
0
0
0
0
0
0
0
0
0
0
0
0
0
0
0
0
0
0
0
0
0
0
0
0
0
0
0
0
0
0
0
0
0
0
0
0
0
0
0
0
0
0
0
0
0
0
0
0
0
0
0
0
0
0
0
0
0
0
0
0
0
0
0
0
0
0
0
0
0
0
0
0
0
0
0
0
0
0
0
0
0
0
0
0
0
0
0
0
0
0
0
0
0
0
0
0
0
0
0
0
0
0
0
0
0
0
0
0
0
0
0
0
0
0
0
0
0
0
0
0
0
0
0
0
0
0
0
0
0
0
0
0
0
0
0
0
0
0
0
0
0
0
0
0
0
0
0
0
0
0
0
0
0
0
0
0
0
0
0
0
0
0
0
0
0
0
0
0
0
0
0
0
0
0
0
0
0
0
0
0
0
0
0
0
0
0
0
0
0
0
0
0
0
0
0
0
0
0
0
0
0
0
0
0
0
0
0
0
0
0
0
0
0
0
0
0
0
0
0
0
0
0
0
0
0
0
0
0
0
0
0
0
0
0
0
0
0
0
0
0
0
0
0
0
0
0
0
0
0
0
0
0
0
0
0
0
0
0
0
0
0
0
0
0
0
0
0
0
0
0
0
0
0
0
0
0
0
0
0
0
0
0
0
0
0
0
0
0
0
0
0
0
0
0
0
0
0
0
0
0
0
0
0
0
0
0
0
0
0
0
0
0
0
0
0
0
0
0
0
0
0
0
0
0
0
0
0
0
0
0
0
0
0
0
0
0
0
0
0
0
0
0
0
0
0
0
0
0
0
0
0
0
0
0
0
0
0
0
0
0
0
0
0
0
0
0
0
0
0
0
0
0
0
0
0
0
0
0
0
0
0
0
0
0
0
0
0
0
0
0
0
0
0
0
0
0
0
0
0
0
0
0
0
0
0
0
0
0
0
0
0
0
0
0
0
0
0
0
0
0
0
0
0
0
0
0
0
0
0
0
0
0
0
0
0
0
0
0
0
0
0
0
0
0
0
0
0
0
0
0
0
0
0
0
0
0
0
0
0
0
0
0
0
0
0
0
0
0
0
0
0
0
0
0
0
0
0
0
0
0
0
0
0
0
0
0
0
0
0
0
0
0
0
0
0
0
0
0
0
0
0
0
0
0
0
0
0
0
0
0
0
0
0.0004710751861
-0.0004710814638
-0.000119766496
-9.325569029e-05
-0.0004724753258
9.297505906e-05
0.0002352267805
0.0002375291765
8.804331425e-05
0.0005648672426
-9.035164186e-05
0.0003714124619
-0.0001197124249
-0.0001872651669
-0.00018402694
-9.455138167e-05
-0.0003737026665
9.444022905e-05
0.0001853473637
0.0001884664555
-9.400748408e-05
0.0002292984026
0.0002323292626
0.0002745674328
-0.0001193166889
-0.0001387933404
-0.0001356931771
-9.417128799e-05
-0.0002747211134
9.445915915e-05
0.0001356502147
0.0001387830276
-9.460734946e-05
0.0001787522786
0.0001822936683
0.0001774318146
-0.0001188610668
-9.019732847e-05
-8.715136206e-05
-9.364908092e-05
-0.0001769996875
9.363916201e-05
0.0001770096064
0.0002628494375
-9.417011129e-05
3.864182767e-05
-3.863979913e-05
-6.094833576e-05
-1.841762332e-05
2.36937968e-06
-2.357054724e-06
1.840529837e-05
1.917233961e-05
-3.76379433e-05
-2.2388539e-06
-9.201289262e-05
-8.016042329e-05
9.221043066e-05
7.996288525e-05
0.0001646423667
-9.337680347e-05
-1.02742813e-05
1.02742813e-05
-5.983480454e-05
1.027425127e-05
8.18182863e-06
-8.181971452e-06
-1.027410844e-05
1.762324248e-05
2.366565852e-06
1.750091212e-05
-7.612280333e-06
-4.379028431e-06
-1.267797154e-06
-0.0001645133982
1.767510135e-05
-1.655494878e-05
-3.975566056e-06
7.715418662e-05
9.02146251e-05
6.798226384e-05
-9.176190017e-05
0.0005799184381
-0.0005798249131
-0.0001176478912
-1.982903986e-05
0.0006507000514
1.964316805e-05
-0.0005775053944
8.867999285e-05
0.0005768687158
8.270142873e-05
0.00066006462
-7.887797418e-05
-1.141640047e-05
-0.000130885926
1.129367828e-05
0.0001310086482
-0.0002872075721
1.738810593e-05
0.0002880651555
-1.824568931e-05
-0.0004723200547
0.0001072939731
-0.000392326649
-0.0009548076311
0.0003909396796
0.0009564087323
0.0003828626099
0.001105315746
-0.0003885031301
0.0007541360234
-0.0007557652867
-0.0004460074975
0.0001332057965
-0.0001332540182
0.0003714606836
-0.0001333961506
0.0004581254292
0.0001334218269
-1.263745886e-05
-0.0001047175219
1.272327936e-05
0.0001046317014
1.224726562e-05
-0.0001162889284
0.0001159780284
-1.193636559e-05
-0.0003736681634
0.0001079409616
-0.0003929215017
-0.0007594372216
0.0003929382241
0.0007594755055
0.0009079824589
-0.0003928019066
0.0005615508234
-0.0005618670233
-0.0004448239439
0.0001328840282
-0.0001329331077
0.0002746165124
0.0003593194052
0.0001331525437
0.0001193750946
0.0003232755014
-0.0001194318845
-0.0001631015907
-0.0001601171208
3.782154634e-05
-7.972661274e-05
-3.770604261e-05
0.0001601391068
-8.052799778e-05
-3.776842101e-05
-9.071760724e-05
0.0001808900075
3.767663505e-05
-9.00806143e-05
-1.145669621e-05
-7.979869923e-05
1.15160783e-05
7.973931714e-05
1.141865939e-05
-9.166566081e-05
9.170170569e-05
-1.145470427e-05
-0.0002748812645
0.0001078694632
-0.0003903314173
-0.0005622652994
0.0003915690929
0.0005623168762
0.00070915136
-0.0003927982682
0.0003674359204
-0.0003673609588
-0.0004440866274
0.0001324974433
-0.0001325509913
0.0001774853626
0.0002624966482
0.0001328406385
0.0001190875907
0.000226042637
-0.0001190938938
-0.0001145510453
-0.0001114852885
1.850868065e-05
-5.522705369e-05
-1.857056498e-05
5.528893802e-05
-3.744022563e-05
-6.66470162e-05
0.00013264106
3.742505244e-05
-6.597887067e-05
-2.175565196e-05
-0.0001111022695
2.177952748e-05
0.000111078394
2.186121097e-05
-0.0001327386265
-2.211778098e-05
6.616270985e-05
6.683248671e-05
0.000172686673
-0.0004439672836
-9.245301146e-05
-8.03358818e-05
0.0001322628491
-4.172392544e-05
-0.0001322315865
8.033449053e-05
0.0001653923045
0.0001324499906
6.100519997e-05
6.29900442e-05
-6.298322106e-05
-6.101202311e-05
1.954479702e-05
-3.145435559e-05
-1.936386102e-05
3.12734196e-05
-1.910966376e-05
-4.211082499e-05
4.224531132e-05
1.897517742e-05
3.087171122e-05
1.450827928e-06
-3.076742271e-05
-1.555116435e-06
-2.119187047e-05
-6.243815371e-05
2.128528958e-05
6.23447346e-05
2.149328021e-05
-8.36648333e-05
8.363327471e-05
-2.146172162e-05
1.105566016e-05
-0.0004424571279
-2.518446218e-05
1.750091212e-05
0.0001300059599
7.226630823e-06
-0.0001300059599
-1.750091212e-05
-3.257846283e-05
6.814927381e-05
0.0001322617759
6.094735699e-05
1.425229272e-05
-1.424920115e-05
-6.095044855e-05
1.852316649e-05
-5.592637513e-06
-1.889267617e-05
5.962147194e-06
-1.973849641e-05
-1.739659872e-05
1.768162674e-05
1.945346839e-05
-0.0001147543385
0.0001147543385
-0.0001162261499
0.0001147543385
1.980710453e-05
-1.980710452e-05
-0.0001147543385
-1.33027659e-05
8.181752993e-06
-3.439540818e-05
0.0002562382917
3.421430121e-05
-0.0001282694217
-0.0001277877631
3.472095106e-05
0.0002338354836
-3.46212835e-05
-0.0001175558635
-0.0001163792876
0.0002874357678
-2.89753696e-05
2.850026398e-05
-0.0002869606622
0.0002600352147
-0.0002602436011
-3.41870218e-05
-0.0001172684493
1.246429522e-05
0.0001170514197
-0.0001297594879
0.0001298552559
-1.151216846e-05
9.204516185e-05
-0.0005115487861
-9.260784985e-05
0.0002549503641
0.00025716111
2.390098858e-05
0.0001285544466
-2.435347822e-05
-0.0002578614449
-1.269577034e-05
-0.0001173783249
1.280564593e-05
-9.142209118e-05
-3.78733498e-05
0.000183915429
-9.238840905e-05
-0.000205471785
-3.773874789e-05
0.0002055000723
3.771046055e-05
-0.000119730895
0.0004083010153
0.000119686974
-0.0004082570943
-3.434692757e-05
3.41786286e-05
-0.0001030366402
-0.0001022668458
1.773169014e-05
-9.141356366e-05
-1.774021765e-05
0.000230446082
3.460907208e-05
-0.0001155676746
-0.0001147665285
0.0002087061636
-3.434776476e-05
-0.0001047885739
-0.0001039167525
-9.228971454e-05
1.139915044e-05
9.230922349e-05
-0.0001040531691
0.0001038903956
-1.247468535e-05
4.881488027e-05
-0.0002073289742
0.0002073543856
-4.884029164e-05
1.334893919e-05
-1.326535531e-05
-0.000104136753
-1.225419993e-05
-9.226644037e-05
1.223092576e-05
-1.252512565e-05
-0.0001164595731
-0.0001047609145
1.339233179e-05
-0.0002101145737
4.882232165e-05
0.0002101071323
-6.737765081e-05
-3.754867968e-05
0.0001355803696
-6.809426475e-05
-7.907615479e-05
0.0001571970813
3.792229707e-05
-7.822167726e-05
0.0003112350947
0.0001194137451
-0.0001571874971
-0.000154086248
-1.798225033e-05
1.802201507e-05
-7.911591953e-05
1.736637754e-05
-6.73170542e-05
-1.742697415e-05
1.769007965e-05
-9.067599676e-05
-7.988344529e-05
-1.782541779e-05
-0.0001356124292
2.193469801e-05
6.738874453e-05
6.815019764e-05
-7.909948975e-05
7.904915859e-05
-1.140636506e-05
9.477916653e-05
-0.0003114216115
-9.462004415e-05
0.0001539848054
0.0001572776837
2.531049201e-05
7.813650859e-05
-2.539856725e-05
-0.0001571479231
-2.520817693e-05
-0.0001356281527
2.522390046e-05
-1.22748161e-05
-9.164504464e-05
8.048636354e-05
-0.0001603351928
1.234560642e-05
1.301501562e-05
-0.0003237437397
9.453045651e-05
0.0001604472152
0.0001635452345
-4.290376388e-05
-1.921668741e-05
4.301078754e-05
-5.445783079e-05
5.451572896e-05
1.845078247e-05
0.0002137525218
0.0001189689283
-0.0001083774098
-0.0001052564496
-1.785095854e-05
1.772130566e-05
-5.432817791e-05
1.872469287e-05
-4.271880218e-05
-1.890965458e-05
1.734314688e-05
-6.662378553e-05
-5.511794979e-05
-1.796006243e-05
-8.679074929e-05
2.15510286e-05
8.67330009e-05
-0.0001080791176
0.0001080566807
-2.173321508e-05
-1.860025365e-05
-1.992071218e-05
1.878246942e-05
-3.023915419e-05
3.029864078e-05
1.948531043e-05
5.993313422e-05
6.099765045e-05
-5.99255847e-05
-2.06813454e-06
-2.987366851e-05
2.974544004e-05
2.196363004e-06
-1.906344128e-05
1.891027107e-05
-3.008598398e-05
1.851098528e-05
-1.82474549e-05
-1.886378404e-05
1.851349701e-05
-4.189962912e-05
-3.16067384e-05
-1.891105847e-05
-2.279792094e-06
3.108336877e-05
-3.805724154e-05
-7.935743365e-05
3.831269653e-05
3.802588252e-05
4.107609613e-05
-5.937699186e-05
5.929650753e-05
-2.111138613e-05
1.455923695e-06
-2.987876427e-05
1.026758706e-05
3.569185383e-05
-1.037343221e-05
-1.828449089e-05
-1.73015178e-05
-4.774459486e-06
5.056049946e-06
1.824157603e-05
1.119101314e-05
6.095035715e-05
-1.11940133e-05
-6.31615191e-06
-1.028146859e-05
1.012520879e-05
6.472411709e-06
-1.532050981e-05
1.524538776e-05
-4.699337439e-06
3.221847538e-05
1.008405634e-05
-1.637366038e-05
-1.566128428e-05
1.818714472e-05
-1.707275816e-05
-1.554984103e-05
-5.363306291e-06
-1.325624253e-05
-6.178631741e-06
1.311872236e-05
0.0009496481182
-0.0009537487045
-0.0004472223743
-0.0001333713875
0.000471050423
-0.0001313972981
0.0005666366308
0.0001322585699
0.0001192248851
0.0005234288624
-0.0005234143846
-0.0001192393629
3.767271121e-05
-3.762764277e-05
0.0002599901463
-3.600315365e-05
0.0002881720729
3.526684852e-05
1.37382588e-05
-0.0001348382162
1.226560409e-05
0.0001088343533
-0.0001484918319
1.183275405e-06
0.0001506643369
-3.355780374e-06
0.0004206923336
-0.0004207023175
-0.0001197209111
-3.776053356e-05
0.0002087279492
-3.785893597e-05
0.0002304449657
3.786005231e-05
9.722208807e-06
-6.151953964e-05
-2.017953236e-07
5.199912616e-05
-0.0001770507169
0.0001070547092
-0.0003781468979
-0.0003668326574
0.0003822171644
0.0003679891368
0.0005137142756
-0.0003880171506
1.11548612e-05
-3.689562544e-05
-4.473193369e-06
3.021395761e-05
-8.107626718e-06
-7.435028742e-05
8.134223819e-06
3.677107561e-05
3.755261471e-05
4.532904548e-06
-4.213098782e-05
4.211308861e-05
-4.515005341e-06
3.23343391e-06
-1.341527891e-05
-3.07439753e-06
-3.701644838e-05
-3.129737455e-05
3.722825321e-05
3.108556972e-05
-6.729394784e-05
-3.777884886e-05
3.199192535e-05
3.502362981e-05
-3.783291226e-05
0.0002338094599
0.0002562475539
3.766344902e-05
0.0005080212132
0.0001195438978
-0.0005083402258
-9.424681265e-06
0.0001213999325
9.654651349e-06
-0.0001216299026
0.0001489844564
-4.99965199e-06
7.045301155e-06
-0.0001510301056
0.0001381321972
9.041463916e-06
-0.0001382296548
-8.944006256e-06
1.920809999e-05
-2.149984054e-05
-0.0002849158315
0.0001312768326
-0.0002615568501
2.329508012e-05
-0.00052366943
9.288675301e-05
0.0002600171816
0.0002628106572
-4.295511105e-05
4.512853896e-06
4.29751617e-05
4.271470144e-06
-4.828743097e-05
4.836881143e-05
-4.352850598e-06
9.394231748e-05
-0.0002134154822
0.000213337593
-9.386442826e-05
2.506407997e-05
-2.504472909e-05
-0.0001080984684
-2.481981981e-05
-8.682731216e-05
2.485638269e-05
-2.527178851e-05
-0.0001326750149
-0.0001111211463
2.50829568e-05
-0.0002259009875
9.406416051e-05
0.0002257791445
-2.520372669e-06
-2.381102395e-05
2.390434124e-05
2.42705538e-06
1.189266604e-05
8.923307221e-06
-1.199058064e-05
-8.825392615e-06
5.796480113e-06
-2.534733759e-05
-5.682474602e-06
1.222931711e-05
1.300401496e-05
-0.0003030651378
-6.194177458e-06
0.0003030134235
6.24589181e-06
0.0006415174081
-4.927559704e-05
1.442532414e-05
2.581215095e-05
-0.0003154790394
-0.0003170002468
0.00028817125
-0.0002939846499
-2.316196973e-05
-0.0002898106184
1.69169177e-05
0.0002902818066
-0.0006276896502
1.912288668e-05
0.0003129289287
0.0003059562418
-1.166205428e-05
1.343647347e-06
-7.483214505e-06
7.77675801e-06
-0.0003033586813
-0.0001750548712
0.00018879313
1.986437142e-05
-0.0002727332862
-2.056402285e-05
0.0001362031227
0.000137229815
2.10685883e-06
-3.835114153e-05
-0.0001388105885
3.507730973e-06
-4.67677128e-06
-0.0001473227916
-0.0001387545516
6.023194248e-06
-0.0002749971327
2.05898795e-05
0.0001369316699
0.0001373399547
1.047947421e-05
-0.0001103829973
0.0001104061263
-1.050260319e-05
-0.0001110670387
1.05627096e-05
0.0001109838033
1.144182343e-05
-8.552312668e-05
8.557521744e-05
-1.149391419e-05
-8.640208247e-05
1.139255281e-05
8.645135309e-05
-5.507397574e-05
-4.296620871e-06
4.502980642e-06
5.486761597e-05
-6.122850985e-05
7.595464323e-05
-5.003924569e-06
2.182423439e-05
-0.00012017351
0.0001201580446
-2.180876904e-05
4.804440648e-06
-5.295312271e-06
-6.073763822e-05
-5.174788171e-06
-5.511593946e-05
5.216751885e-06
4.228682978e-06
-5.092872182e-07
-6.653392293e-05
6.281452717e-05
-6.132127879e-05
4.606179797e-06
-0.0001233234425
2.183807324e-05
6.124519715e-05
6.206440647e-05
-3.613749156e-05
-1.79842315e-05
3.625771317e-05
1.786400988e-05
-4.735952497e-05
7.196791941e-05
4.733213305e-05
-7.194052749e-05
4.730238173e-05
6.293413289e-05
-6.292709321e-05
-4.730942141e-05
-7.949076152e-06
-6.217343942e-05
8.005680692e-06
6.211683488e-05
-7.128979291e-05
-8.087587478e-06
3.526366256e-05
3.60060911e-05
4.688598303e-05
9.832714021e-07
-3.671439323e-05
-1.721447558e-05
-1.161481546e-05
1.192505915e-05
1.690423189e-05
-4.701315651e-05
2.340378906e-05
4.702855047e-05
-2.341918302e-05
4.703685102e-05
1.423815616e-05
-4.706260209e-05
-7.508823475e-06
-6.703581611e-06
-4.719174279e-05
3.551565738e-05
4.714142822e-05
-3.546534281e-05
2.642961996e-05
-2.63960591e-05
-4.704671736e-05
-1.204292856e-05
-1.75450106e-05
1.237346358e-05
0.0001331470035
-8.276447839e-06
4.452454474e-05
-0.0001693951004
0.0001216061932
-9.522580147e-06
-0.0001215082944
3.426337703e-05
0.0002467108789
-3.437986325e-05
-0.0001235029708
-0.0001230914218
1.140941929e-05
-1.175347219e-05
0.0001219502461
-1.143780575e-05
0.0001313701046
1.321470464e-05
1.241670325e-05
-2.019147256e-05
0.0001170427941
-0.0001092680247
0.0001216768107
1.113254114e-05
0.0002438473331
3.451429333e-05
-0.0001225721296
-0.0001215261198
3.350713285e-05
0.0002777086327
-0.0002779427171
-3.327304836e-05
1.106150339e-05
-1.120382489e-05
0.0001382745187
-2.831085876e-06
0.0001444831645
7.332377785e-06
-0.0001319390194
-1.07899583e-05
0.000131291172