/*--------------------------------*- C++ -*----------------------------------*\
| =========                 |                                                 |
| \\      /  F ield         | OpenFOAM: The Open Source CFD Toolbox           |
|  \\    /   O peration     | Version:  v1912                                 |
|   \\  /    A nd           | Website:  www.openfoam.com                      |
|    \\/     M anipulation  |                                                 |
\*---------------------------------------------------------------------------*/
FoamFile
{
    version     2.0;
    format      ascii;
    class       volScalarField;
    location    "0.77";
    object      omega;
}
// * * * * * * * * * * * * * * * * * * * * * * * * * * * * * * * * * * * * * //

dimensions      [0 0 -1 0 0 0 0];


internalField   nonuniform List<scalar> 
12556
(
31.93061562
31.93145556
31.93236229
31.93320172
31.96662414
31.9671262
31.96748402
31.96815687
31.96951672
31.97201668
31.97601707
31.98111974
31.98541537
31.98750988
31.98533152
31.98111694
31.9763542
31.97199932
31.97000346
31.96807617
31.93474967
31.93341999
31.9323029
31.93130147
31.79363088
31.79607479
31.79871788
31.80113583
31.83520746
31.83694435
31.83887801
31.857708
31.86403239
31.87576147
31.89465326
31.91918767
31.94100778
31.95089286
31.9437755
31.92421991
31.90103124
31.88167173
31.85305087
31.84346735
31.80594949
31.80241896
31.79919782
31.79614583
31.65808106
31.66250756
31.66712356
31.67094386
31.7055356
31.70879056
31.71319941
31.73593577
31.75145535
31.77966216
31.82572669
31.88391242
31.92769681
31.9467994
31.93195429
31.88855942
31.8378543
31.79364186
31.74586794
31.72496057
31.68158118
31.67477764
31.66907232
31.66412621
31.52429179
31.53009673
31.53624253
31.54148433
31.57700642
31.58260728
31.5918106
31.62279593
31.65558022
31.71974048
31.82122386
31.94663841
32.03726093
32.05814
32.00562357
31.91933155
31.82329462
31.73672241
31.65769017
31.61763519
31.56217483
31.55080297
31.54215016
31.53505965
31.39237807
31.39992717
31.40782535
31.41452485
31.45093853
31.45969336
31.47585605
31.5202094
31.59010411
31.72640537
31.96715861
32.28537954
32.53763322
32.51227655
32.31563148
32.09277981
31.8982945
31.73194521
31.59928868
31.52593471
31.45008823
31.43092565
31.41801939
31.40833341
31.26181528
31.270802
31.28015444
31.28861181
31.32754414
31.34162803
31.3700225
31.43578958
31.56471212
31.85611875
32.47388702
33.57836044
34.51324995
34.13735538
33.22868149
32.57020816
32.13914049
31.80939947
31.57609091
31.45368147
31.34633758
31.31402947
31.29540508
31.28265253
31.13340039
31.14405862
31.15540761
31.16602705
31.20699425
31.22831892
31.27434138
31.37287067
31.58990982
32.18070227
33.73418077
38.67170213
44.92593716
41.83387616
35.70488668
33.62547602
32.6370732
32.0122516
31.59437593
31.40319625
31.25070081
31.20092405
31.17428946
31.15778537
31.00684438
31.01893699
31.03204159
31.04528318
31.09040191
31.12102846
31.1894559
31.3259041
31.66468829
32.66606425
35.80356193
51.37504757
67.45329902
41.50025003
35.54250556
33.46952198
32.36513404
31.6671253
31.37135007
31.16367808
31.09104489
31.05417748
31.03331263
30.8831763
30.89719953
30.91302888
30.92980381
30.9788494
31.02074008
31.11504971
31.29122426
31.77155334
33.17894119
37.5495175
61.15375373
124.5065007
50.21487489
38.24276228
34.59107277
32.84331758
31.78791737
31.35629935
31.08495232
30.98636194
30.93686372
30.91086856
30.76237111
30.77802317
30.79624604
30.81694333
30.87284829
30.9273102
31.04917676
31.26560603
31.88567584
33.61744265
38.70007894
68.91485369
156.1895576
58.01506367
41.10776689
35.86108253
33.39017992
31.93771055
31.35728626
31.01445909
30.88745343
30.8239965
30.7923339
30.64612356
30.66406226
30.68557898
30.71152764
30.77206244
30.84044934
30.99001274
31.24919039
32.00593277
34.01438206
39.75440914
78.20361536
157.4411487
62.79559707
43.61994254
37.07393994
33.93019121
32.08994766
31.36515618
30.95153369
30.79707365
30.71882005
30.68076517
30.53320871
30.55284179
30.57725637
30.60875393
30.6760045
30.75938474
30.9357433
31.24087406
32.13015988
34.40642888
40.99819536
89.92055308
146.6812971
64.96813933
45.46909495
38.06051471
34.37988264
32.2213989
31.37642227
30.89540454
30.71398958
30.62174192
30.57727578
30.42591761
30.44790012
30.47620945
30.5139885
30.58403004
30.68315434
30.88526994
31.23975202
32.25793954
34.81393361
42.61744698
100.8928153
657.3711651
127.1127462
65.59234822
46.61864299
38.79861474
34.70272063
32.31641587
31.38247501
30.8437636
30.63943527
30.53358277
30.48261606
30.32145599
30.34557312
30.37761355
30.42096463
30.49914928
30.61889438
30.85268766
31.25786491
32.43248694
35.37228458
45.19106841
152.5030826
413.9164422
118.9843655
65.59911373
47.45814889
39.21268903
34.87342524
32.37247997
31.37672681
30.79129248
30.56916626
30.45152079
30.39501454
30.22169392
30.24801762
30.2836538
30.33192737
30.41537098
30.55057165
30.8060029
31.24639333
32.48166334
35.64099305
47.91776067
514.3051215
296.9934317
111.9700124
65.39439261
47.79385245
39.41383942
34.92042165
32.38222849
31.35681177
30.73874229
30.50252848
30.37403917
30.31210773
30.12286092
30.15128377
30.19049161
30.24423837
30.33398055
30.48283803
30.7591155
31.22229159
32.46531336
35.65908237
49.36668988
681.3502524
269.8101039
110.929411
66.13318279
48.1055715
39.37850071
34.87286034
32.35864873
31.32214009
30.67987688
30.4330469
30.29702652
30.2307225
30.02750962
30.05808002
30.10057
30.15881496
30.25364301
30.41443268
30.71082563
31.19939392
32.42367254
35.5173745
48.47370734
468.5156339
286.2537998
115.044971
67.5367037
48.29314407
39.20150466
34.78166693
32.3070595
31.27419437
30.61673899
30.36282815
30.21970752
30.14954383
29.93078511
29.96328612
30.0090233
30.07241826
30.17341136
30.34449681
30.65941403
31.18454448
32.4226814
35.41780676
47.34288249
307.0161276
319.8551024
120.468665
68.36075861
47.97960879
38.93881628
34.65867779
32.23167222
31.2088395
30.54332634
30.28469536
30.13774837
30.06449612
29.83670608
29.87105895
29.91968992
29.98704231
30.09242787
30.27253641
30.60465872
31.1648671
32.48075108
35.61075965
47.94871412
256.3793038
324.8749777
120.7398226
67.39773557
47.35765281
38.67718504
34.51879601
32.14149075
31.13144756
30.46346652
30.20246756
30.05258679
29.97738038
29.73925766
29.77510453
29.82658177
29.89882761
30.01020045
30.19839128
30.54681815
31.14059431
32.53785527
35.97078221
50.98986819
296.6381179
290.1832532
116.0076529
66.12592426
46.81174553
38.42684309
34.37191157
32.04134995
31.04440351
30.37496146
30.11216797
29.96024275
29.88378345
29.64464202
29.68176717
29.73556732
29.81117068
29.92623664
30.12206681
30.48635563
31.11290432
32.59446359
36.36890662
55.08823623
330.4065603
260.9715736
111.8127383
65.10674139
46.35457307
38.19261399
34.22387035
31.93456096
30.9497198
30.28177586
30.01872705
29.86555365
29.78830743
29.54505067
29.58304162
29.63910823
29.71925786
29.84038649
30.04361177
30.42375899
31.08305534
32.6537171
36.82717953
59.52857787
346.9157433
238.7276074
108.124436
64.21461539
45.99177511
37.9795559
34.07835488
31.82367365
30.84913316
30.18103973
29.91723066
29.76322602
29.68572462
29.44967759
29.48829511
29.54596407
29.62857216
29.7524679
29.96314114
30.35945198
31.05214665
32.71912827
37.40567057
63.67325099
352.2647271
220.9761534
104.8395926
63.39923829
45.70299912
37.79224212
33.93829933
31.71081263
30.74418147
30.07840171
29.81517249
29.66085255
29.58334209
29.34766417
29.38657985
29.44594334
29.53270754
29.66279476
29.88092257
30.29396508
31.02139393
32.79688666
38.16585148
67.43331562
350.6183898
206.295983
101.8858455
62.64447217
45.45982138
37.63057151
33.80583517
31.59771065
30.63627785
29.96924224
29.7051913
29.55056382
29.47334092
29.25235131
29.29139805
29.35175194
29.44002555
29.57151
29.79739505
30.22804326
30.99258272
32.89675712
39.08233184
70.84743911
344.3716661
193.8885824
99.20640962
61.93905242
45.24205097
37.48989486
33.68172154
31.48557597
30.52652145
29.86137901
29.59810574
29.44354682
29.36668354
29.14797192
29.18695569
29.24864131
29.34099702
29.47927143
29.7130785
30.16251246
30.96771771
33.02891201
40.0753961
73.94897199
334.0161561
183.2238911
96.75050938
61.27294717
45.03827305
37.36433415
33.56542361
31.37504792
30.4158207
29.74688809
29.48209459
29.32731014
29.25093533
29.05403019
29.09286763
29.15516327
29.24824076
29.38620274
29.62850468
30.09816826
30.94861872
33.19960818
41.08595866
76.78756096
321.6210485
173.9191224
94.47566885
60.63809743
44.84257524
37.24900566
33.45577377
31.26636352
30.30472844
29.63732646
29.373344
29.21871244
29.14279649
28.94714446
28.98574843
29.04922104
29.14668989
29.29307407
29.54413885
30.03570583
30.93711765
33.40890203
42.08378065
79.37605915
308.3843692
165.7160459
92.35234303
60.02799522
44.65151063
37.14036865
33.35147625
31.15950353
30.19375675
29.51911817
29.25262123
29.09762941
29.02220139
28.85620384
28.89455191
28.95845392
29.0559991
29.19971457
29.46037968
29.97574866
30.93502441
33.65200912
43.05658976
81.73018993
294.9419517
158.3998217
90.35371384
59.43752377
44.4629615
37.03599952
33.25138735
31.05435652
30.08305615
29.41077662
29.14523527
28.99033186
28.91530775
28.74614411
28.78421055
28.84925003
28.95173412
29.10703894
29.37757689
29.91889545
30.94339305
33.9224388
44.0020293
83.88010366
281.7026882
151.8110941
88.46030752
58.86362627
44.27566356
36.93423782
33.15454759
30.95077546
29.97299673
29.28886736
29.01971146
28.86425149
28.78961693
28.66025268
28.69805791
28.76349835
28.86559827
29.01447883
29.29605121
29.86574826
30.96359131
34.21399055
44.92102228
85.85510282
268.9983424
145.8382079
86.66423764
58.3046117
44.08877765
36.83389513
33.0601664
30.84862345
29.86347174
29.18482051
28.91688033
28.76136832
28.68702244
28.54557007
28.58311357
28.64969092
28.75722504
28.92332274
29.21612555
29.81692968
30.99588051
34.52117131
45.81240805
87.65351698
257.4604025
140.385924
84.9575076
57.75875175
43.90162197
36.73406151
32.96758199
30.74778352
29.7549304
29.05739881
28.78490437
28.6286801
28.55460136
28.46744108
28.50478033
28.57185694
28.67907017
28.83247543
29.13813737
29.77296006
31.04015887
34.83959431
46.67505428
89.27271018
246.7007416
135.3771015
83.33079718
57.22427515
43.71357758
36.63399167
32.87619587
30.64820054
29.64706557
28.96199936
28.69069338
28.53421338
28.46030195
28.34564381
28.38277245
28.45100383
28.56339318
28.74409928
29.06256566
29.73439093
31.09609455
35.16605899
47.50923433
90.71774798
236.4720644
130.7604546
81.7772253
56.69975287
43.52407868
36.53307607
32.78555379
30.55002248
29.54082389
28.82447273
28.54866664
28.39139141
28.31763033
28.2787392
28.31577992
28.38466533
28.49838249
28.65664698
28.99013834
29.70190352
31.16313826
35.49859074
48.31747698
92.01250657
226.723334
126.4962437
80.29286497
56.18408919
43.33255761
36.4307652
32.69520898
30.45386863
29.43619977
28.74497601
28.46861063
28.31086917
28.23714996
28.12402728
28.16095627
28.2315268
28.35136831
28.57456808
28.92224496
29.67626776
31.24025043
35.83386634
49.09770266
93.19570198
217.408225
122.5582411
78.88424893
55.68045958
43.13979306
36.32705072
32.6050354
30.36149692
29.33632275
28.56740153
28.28598541
28.12704097
28.0533519
60.47794503
145.4896033
75.46858247
67.77906176
186.6570172
151.0114564
76.98986258
186.0240119
188.3994564
88.50458521
169.4669714
184.0633325
99.74594943
799.9599819
686.3050466
153.431055
167.0482808
130.698137
510.1788685
784.6421326
431.5971603
149.9515866
151.8636288
49.36694935
44.17775297
69.33077183
41.69746348
403.3103639
147.0961445
118.0435386
54.25552302
44.80339385
38.44727807
58.05978501
53.74719635
1339.40233
938.3966578
154.3249275
65.77924042
57.50023143
39.51182979
64.97510432
58.83444813
72.37327549
210.6550231
185.2919327
794.9909434
1069.879731
158.3473433
72.34615321
67.96859964
40.73164798
72.97150345
65.87871555
82.1989604
318.7238631
248.765792
466.593958
607.3862366
42.26959315
83.76834966
74.02508118
92.38359694
506.7856115
398.2650751
1762.025655
308.0042325
357.4201187
44.73161421
106.2646269
85.42432802
110.0330445
1145.525859
740.7665786
161.3613954
392.0370743
502.592318
141.9827626
173.042952
91.01321628
136.8052018
912.1012216
423.8590474
114.5706179
346.15976
648.0077461
182.1428087
161.2094021
64.31594628
213.4342844
231.5337484
178.748824
209.9284769
1080.732023
1342.170257
171.2745555
950.2197377
842.7609058
669.8125432
946.4243301
168.8516637
245.1390459
214.8143181
73.5130357
278.7294917
326.5174988
233.8793708
275.2410826
633.1424478
778.8451808
189.3468603
602.0330579
481.892293
834.8820611
621.9995135
189.8327809
393.6098586
322.3631374
83.63053749
398.4534685
506.8050854
329.6708787
394.075601
367.7391923
450.5955038
729.100232
517.1118301
92.80754371
2610.608665
711.2596028
1099.910926
512.4135079
693.8175581
3027.085618
283.9707447
302.8342737
1554.331508
8506.542636
1156.920576
111.5583224
581.9403864
1812.708565
7615.80165
1109.66588
1778.960579
597.3460589
37.19564839
53.18826202
46.24562373
56.50001342
112.8199734
79.92829264
2251.15112
392.9777581
63.62415965
158.6693346
137.5311491
4950.237282
148.4169652
74.61642766
73.30186073
5322.856619
673.2238808
745.6903407
524.0283651
252.5313117
274.508432
133.8919598
115.7861298
57.69268325
1280.561934
194.3084849
461.8761983
124.642784
307.6208843
106.0720709
761.7879332
964.2659296
175.7594729
373.461065
319.1863014
466.9945975
383.4752014
178.1329579
1094.182992
4096.327873
695.3327897
66.84473924
55.87793057
83.81109623
129.4923532
65.94509258
69.44249855
3017.811974
284.8805472
2150.144026
302.1171541
1589.738268
257.2723318
1088.399118
1073.541582
907.0782292
926.2289157
1801.120744
4116.586855
519.8515478
2150.509244
1197.117441
4623.655811
2547.159715
540.3933269
437.7960427
163.2554428
171.5864312
567.5478415
642.4342238
4717.117021
805.0347954
219.8255145
234.7160609
202.2058333
214.2658597
801.4660048
1096.292897
1280.277464
153.8501019
786.9189876
611.8877016
1269.191896
789.6420146
157.5673114
113.5561212
325.2332897
158.6153001
531.2747079
353.3111919
120.9793846
487.2895719
778.6666298
643.3026394
610.8495379
216.6648485
1461.419547
217.3139439
192.3528451
1379.623018
1292.887447
1451.584282
1390.603637
196.6088722
1136.099815
1146.32393
886.3104293
314.7603209
306.1693035
317.6329831
316.3160799
880.8370517
797.9805161
278.8889703
255.9326975
302.0105642
285.7260776
813.7119542
300.5208599
303.6146331
251.5200362
254.0767777
668.928409
4799.596145
680.7681262
431.5093549
438.7764897
360.9311133
365.3549245
1132.713286
839.1078785
410.1735223
1019.359605
1672.109715
574.529389
187.3376958
198.0987384
174.5763966
184.0033001
565.0241912
1196.431183
761.7648738
775.6925233
553.245125
558.3409916
5555.767065
930.269926
488.9925146
545.0979778
241.239881
254.5679802
1444.073924
2917.786353
1325.719272
2280.32429
1152.307138
6241.995113
2564.45321
5329.460656
1148.456543
663.9483242
3698.262542
1681.791065
2706.562792
1700.157609
2310.46929
47.24592901
117.8604771
109.7296073
172.7558544
4178.71803
7728.537751
309.7047302
137.691474
147.0078363
928.7104304
2686.44633
3870.26989
431.4601876
471.4234643
875.5529251
232.616736
245.4160565
510.5914046
127.0412347
93.64557451
178.6579191
319.1616775
115.9421894
134.1754159
1257.949457
2965.072307
3114.043458
1005.938016
844.3510126
2316.409419
1711.770798
3860.310597
3828.885273
1025.38111
290.3193359
129.982044
135.2543781
123.4770566
128.3021327
284.3028062
153.5286854
160.7924587
432.7342111
1052.41343
409.9898055
431.0229281
6382.472583
3103.581074
467.935423
790.8248843
2665.039676
2949.382545
457.3473165
207.0039944
174.9236661
246.6570286
217.9941401
477.3763316
1106.839807
3785.998181
3863.675203
1282.350846
231.3309434
117.494308
121.9511394
690.6762947
675.1585741
316.3550731
1621.745008
1496.894138
737.0694434
547.3378576
289.202655
299.1017623
753.7362325
312.8829292
317.144964
302.5430472
310.4829377
741.053035
353.7631827
144.8662673
151.2961612
137.0860617
142.8379437
349.0426938
411.6088223
1027.173175
1015.579517
1656.950513
1605.832337
484.1055672
341.7349218
731.2863613
693.3000414
1010.495798
1001.824869
381.5832577
397.8364265
809.799827
657.3092341
5774.923943
1763.375777
736.9077957
924.0563918
529.3452939
1693.344272
1664.915901
1704.406461
605.0038507
4597.139291
8836.949173
325.9149779
380.9013725
439.0403376
458.4376929
1169.679519
1534.797927
976.7889637
540.404965
1836.240923
7824.472026
1423.387067
1251.505658
16073.73325
1122.475054
1689.923168
1348.670307
1619.824904
1213.07049
4899.344596
4972.708678
1167.079211
1515.14581
5534.088941
1352.027921
1285.864946
300.0043765
1090.535103
444.6767983
1090.35122
325.8068277
3795.863028
2553.646369
855.685482
4536.95751
5315.451475
4293.652952
2917.025166
931.4216661
4464.117198
5627.876404
2879.260615
4230.698629
5958.806741
1658.102937
2503.803774
1167.099298
1475.551838
5361.109645
3077.477737
913.8412494
572.7485668
1472.013646
1003.561961
518.6539292
332.5730237
902.4763182
3283.966095
4161.70134
1197.022378
1022.221554
3151.255775
3290.621205
2530.487782
2403.755834
863.2885294
4212.371276
4126.021223
3014.457385
4103.2584
4086.258878
999.8249175
3972.512968
2601.746755
2685.949898
3033.984849
1625.090949
772.9859772
832.7414826
3418.487088
966.3939959
1089.886005
857.1065137
930.8002444
3197.964002
3335.853741
916.0350807
1077.071184
380.217967
402.6646765
954.5985212
770.4900842
358.4303715
374.5650073
1213.390281
1230.379361
766.8954363
263.629554
287.6750826
236.3490086
256.7603751
758.4301235
848.4297313
329.9432239
364.1076574
296.0669872
321.1425867
853.8169797
464.1917609
212.2173245
230.512484
684.0489649
718.5280701
1919.838996
2008.316489
749.9977899
2819.992761
2838.295409
3587.789873
1955.997335
1632.912874
2740.994269
1935.873447
518.6347767
1384.638419
1834.309701
1513.227378
483.6365447
550.2839469
456.1014021
472.079089
1471.415151
604.8654428
618.3024329
572.5225282
600.0781574
1348.312132
397.0032211
412.2053578
372.9952986
391.6944001
1335.572285
1426.108587
436.6204338
450.7173569
417.1903719
431.7797922
1420.411976
3651.971063
3735.425953
1114.728721
1233.508705
3793.121745
3626.044018
954.5345349
961.5574706
924.659998
952.2555625
977.6197603
992.8096057
964.0374663
974.3925312
639.3769052
652.1512122
622.5181857
634.971419
697.6779748
878.7305799
658.226668
673.1559607
1414.835765
1647.58483
1133.664687
1318.32684
5040.979113
2584.884252
2816.802854
1757.05861
2480.469558
1043.142604
1034.03667
416.3717778
1683.66733
1689.321099
1646.439458
1672.762374
1739.014601
472.4172717
1567.170671
1100.715056
967.2622798
753.3464981
346.1724349
1046.702763
1537.924783
993.935319
1057.24275
1605.476375
1632.754618
1559.564808
1593.966402
377.5193573
999.0279517
987.1357485
5387.845663
1205.782134
5232.734393
4480.299545
5211.367323
1289.028898
6002.189708
1566.534537
5703.389694
4855.82734
744.5823949
833.4582613
1731.30077
1699.032602
534.6270558
587.8175299
1802.856852
1734.617253
5501.795959
1215.561947
472.0921325
520.9445697
5741.650962
6541.831336
1921.209565
7120.49415
5060.489187
1767.928998
1124.583664
6218.572494
3448.925385
6886.667563
3917.001239
1627.915064
62.7668999
42.13059449
36.55639751
5405.559668
5380.741329
139.1465325
74.64817266
74.81485973
5633.646429
893.9263998
2564.488652
1716.664162
311.3693056
261.9313448
161.0429644
274.8751242
199.619843
397.6331866
1427.268663
271.7456869
293.9189261
52.56731999
61.28171584
114.2501819
352.6612822
661.5047727
961.6016465
198.9822541
106.7194404
110.5946874
101.8322284
105.4706435
195.4101306
789.4798826
875.3985954
2842.507815
628.1936977
554.1861119
334.4093545
339.1270933
353.6345527
764.7772825
1043.669648
1330.835343
490.2342405
111.9295536
116.0724587
227.194828
288.2189859
635.5716068
607.4754807
584.4802822
515.9631191
265.2134368
644.8413089
319.5416179
334.3697518
4257.331618
3971.892058
2291.480679
1719.690603
1696.333762
1075.419204
3540.61425
5500.702748
4882.611999
1181.918611
699.1684485
769.8968819
1815.739642
1115.79187
1756.508821
1742.765268
1778.88401
2388.26865
4776.503533
3274.878706
3704.782343
5250.434443
1395.928871
1130.39027
681.0348819
1310.17939
163.4455232
130.5824803
222.7692005
827.6961165
2167.771674
1540.473643
5776.521241
6125.075188
6232.697748
5127.368164
5936.179844
89.45566886
111.3440512
259.2654256
2473.471245
1625.688976
1260.041912
3181.552087
2529.534231
1970.96038
3660.617196
3334.437044
5284.363861
4991.698875
3545.633751
703.4426568
755.562069
1498.044975
4781.338159
2466.531143
2763.344282
4075.121784
2351.201825
2771.902476
1143.907987
1531.618276
1261.882759
779.0011893
524.8244244
533.0055558
1229.361278
746.5369933
789.1616361
538.4943606
550.5491017
805.8905391
186.5478953
206.9762814
436.2107804
556.2241318
1005.416588
716.4197533
1193.20763
1243.091236
780.8948319
1829.055892
1315.619763
1370.44695
893.3494195
896.2090537
1466.896063
1485.530551
1500.631907
1404.416164
1427.875148
1367.1989
836.5702332
841.772607
807.6770758
814.7720421
1309.03777
1443.881403
880.6804019
885.423543
847.3109323
852.8709584
1400.856611
653.3831009
640.4130062
291.3124758
313.2372831
670.8947456
657.5650361
483.0218929
469.8206891
243.7510227
1542.997465
1545.696294
1506.777203
1512.323173
1917.238833
1554.321448
1555.547779
262.3144075
504.1698546
488.3317033
4672.086067
4617.370623
2890.939449
3068.006091
4767.30502
4662.187758
4859.002498
723.4359866
1444.942611
1211.046843
302.3108167
314.9041616
615.4732007
545.9419512
288.6354774
298.7786093
1103.014403
1102.767726
758.2592649
778.4341465
1111.706758
1116.104505
5504.503708
1523.385836
992.395467
979.1549469
12552.77276
2397.408192
1586.92391
4501.413724
3627.782055
1831.39402
1808.214441
1136.253173
6018.405163
6552.329473
6255.944121
4885.996194
1210.215447
1880.008073
1819.856223
2597.038012
944.664969
1093.54939
5308.272631
5219.08854
3994.084348
3691.398972
2071.964834
1125.3973
1087.794951
1294.327688
3131.038138
5312.892154
4499.000091
5366.645931
5130.226764
3587.932215
178.7385549
247.6249533
754.7246527
3198.971309
3119.136074
3288.593665
3263.530785
3037.652641
1985.756655
1965.078476
2008.144874
1989.504954
3047.563917
3903.358847
2212.819227
2227.82755
2127.758658
2188.686953
3970.88604
2786.083137
1798.214891
1624.924535
1949.874122
1896.022377
2862.287495
3774.658792
2260.357941
2274.17176
2243.100201
2250.43589
3818.155117
3380.478374
3313.492298
3463.904765
3315.332234
1025.119247
706.8211086
710.7493958
1641.299858
1037.972056
1042.446164
1009.442921
1031.052765
1629.281144
5431.043168
5662.193418
4903.828192
5511.631003
1714.554602
1729.139375
1684.11905
1699.965887
2182.090392
1018.876828
1648.816007
1583.706831
1682.447766
1049.311574
1053.352489
1044.476556
1047.436886
1675.439786
1618.767817
1662.265802
1131.676172
1555.150971
2152.57653
5864.731589
5443.747937
4040.485534
5718.41974
867.4483564
1231.254742
12867.95812
1170.923343
801.8331106
805.8510472
1838.768361
7442.068642
7689.954324
9177.878859
5790.165088
5337.745106
1773.203527
1761.220555
1116.969599
1740.354
2057.864403
2903.609777
2027.756188
2699.22127
2029.615615
802.7567703
2831.834671
2029.17132
4952.259319
5156.073385
5478.706656
4035.153452
4668.185066
1309.67683
1646.521421
923.6205909
473.9698661
652.2939557
1029.657659
1141.66606
681.3523675
1001.716623
1322.478752
5161.232193
5442.340875
5074.766543
5101.636715
5911.790831
5854.740893
5684.274682
3348.347454
4996.368527
4512.535952
5651.006027
5851.565831
3774.084536
4126.943083
4579.567973
5886.535335
4750.636268
3290.960309
3638.940638
2327.110145
1682.689544
2367.35676
1254.826516
1810.28191
2406.797525
2644.079508
2442.532006
3423.519865
2165.353097
2048.648527
2944.510748
2138.879425
3211.052003
3199.439865
2030.967481
2011.889034
2059.142252
2030.927249
3219.917636
2489.784884
1503.70872
1527.430163
4162.645571
4153.057217
3531.503482
4592.047415
4419.796519
4243.605974
4152.36595
4350.065153
3270.589213
1786.245764
1989.122772
1565.685593
1641.176016
2789.0719
5026.57801
4224.44014
2251.004937
5376.434093
5139.100756
5119.856968
3217.680171
5012.147255
4850.334979
1876.193937
2109.237972
4033.818576
1185.48229
1253.317553
600.0500886
674.194472
1181.390121
805.5356924
555.4890502
579.884658
1122.510443
1083.585191
641.6904906
1095.957874
1433.277211
724.1455836
1182.808122
1164.075603
1921.966986
1331.790706
1309.437378
1464.248757
1416.90968
2030.798628
2981.268095
2795.837247
1830.726218
2674.803252
2799.859317
2519.461215
2648.839546
1797.559508
2682.967989
2634.672009
3362.342302
2513.375261
957.8721533
950.2426427
1434.008467
1478.866367
909.0761246
906.0696035
1464.334214
1477.297767
1441.297354
1454.421954
827.9119347
832.5913484
1361.229364
1322.332341
819.2516166
823.4904904
869.0484697
874.0239318
1433.449013
1412.090308
858.7474418
863.9395231
3701.869965
2306.317822
2318.119261
2281.029577
2291.907935
3695.358185
3632.077104
2538.837083
2925.245192
2343.886014
2399.574739
3633.707447
957.0283271
1538.655298
1527.747579
1553.879865
1546.773752
959.1639539
942.895677
1491.360994
1473.204186
1517.608675
1505.510789
949.0801226
983.1713839
1601.674145
1591.106517
1617.292879
1607.039818
985.9080177
967.0026374
1567.838581
1561.578663
1584.730279
1575.03179
969.9725028
1531.159399
1535.425935
643.4940146
937.2599429
934.2572561
944.5331047
942.0777568
648.3645958
1519.636007
1524.595006
1601.449832
1516.067679
719.0788737
1003.127752
1012.865364
1437.145747
1382.706644
798.1226334
660.8723522
952.3063199
950.9880043
960.4956989
964.1362748
671.3398257
1567.260682
1559.914634
4635.191992
4494.436122
4851.368719
3282.785631
3879.901758
2660.322879
4417.766208
4477.807975
4406.663972
4416.44503
2719.935048
1954.570754
3733.992178
3152.181846
4338.688069
4481.393082
2252.337167
1047.398655
731.8029867
733.7167506
717.5763187
720.2906545
1034.772824
1684.116909
1698.604251
1652.476364
1669.948839
1641.613303
2087.106157
1500.976245
868.4208153
958.3442918
760.6275483
783.6937889
1089.515779
1441.314817
1999.523597
1578.007739
1500.854201
1006.332655
1631.976073
1618.032757
1669.426252
1624.205355
1002.466643
1613.323366
1625.630127
1572.45141
1584.743693
5027.615266
3192.528853
3429.154601
2358.453287
2856.11521
5117.156718
5127.776301
4962.648027
3742.888363
4332.733622
5481.966452
5499.485243
4022.680108
4282.125031
3122.534244
3597.895946
5686.583019
1762.023476
1763.073516
1744.520285
1747.924926
1159.008882
1171.138003
808.6686288
1826.040742
1726.28051
1781.47791
1771.877117
1715.889599
1063.221022
1071.455743
1055.467983
1061.284223
1711.93682
1754.296468
1085.561215
1143.980374
1073.19771
1088.470962
1757.538929
5287.725054
835.6823555
841.7252637
1219.845334
5569.995023
8543.077165
8907.731479
8299.672433
8347.929385
6195.3072
1869.683953
6151.175812
4328.367261
4723.402528
1133.636388
1798.754423
1781.749
6184.579826
6784.273432
6526.839159
5301.003553
5789.59992
7182.836708
6817.761876
4319.013094
6469.184519
5549.10458
2229.761711
1790.997254
1198.812195
31.76575159
31.77453037
31.86182458
31.77830343
31.79478822
31.8718014
31.80133208
31.82829453
31.88862743
31.83819338
31.87399568
31.91205294
31.88459421
31.91864457
31.93570951
31.92496718
31.94023479
31.94976398
31.9418427
31.93507445
31.94747174
31.92962514
31.90203818
31.93063883
31.8931269
31.86021213
31.90733417
31.85035319
31.82092685
31.88641513
31.65016409
31.66888589
31.74674075
31.67740128
31.71386849
31.77146385
31.72993435
31.79080909
31.81293585
31.81405053
31.88964287
31.86890027
31.91395778
31.97026185
31.92068203
31.98703929
32.01059223
31.94547367
32.00658069
31.98764298
31.93825681
31.97437046
31.92349956
31.90100543
31.90375735
31.84173349
31.85007109
31.82072225
31.76356136
31.80270213
31.54502954
31.5840137
31.64519881
31.60288514
31.68246371
31.7003327
31.71701757
31.85276619
31.79367854
31.90825537
32.09354041
31.91357456
32.1349408
32.28992042
32.02270046
32.32115067
32.35428185
32.05697726
32.31333108
32.24435651
32.02146943
32.2021104
32.08380512
31.94204013
32.03960129
31.90801548
31.84763001
31.86692036
31.75821996
31.75510682
31.45482091
31.52990694
31.56711119
31.56543214
31.72837712
31.68528576
31.80785828
32.14862684
31.89665057
32.29567266
32.8758208
32.18833167
33.01160915
33.52634375
32.4912143
33.60886995
33.63946298
32.49972638
33.41317342
33.05332458
32.360157
32.89843477
32.54719662
32.14630702
32.43608625
32.14344213
31.94485979
32.0580023
31.8465657
31.76862703
31.38673567
31.51388136
31.52246488
31.57928965
31.91070139
31.75896855
32.0810952
32.90358741
32.2787967
33.32451586
35.54839718
33.18731166
36.42074656
42.13203521
34.36427538
42.13051484
39.88611682
34.20756598
37.98119927
35.46434735
33.40320811
34.83317984
33.63062457
32.70580124
33.34143937
32.66448001
32.2334943
32.48581425
32.06703482
31.88506471
31.33717686
31.53487785
31.51571849
31.64651434
32.22608685
31.97528071
32.54398914
34.24736416
33.18731776
35.2688736
44.80520451
36.54849381
41.92636985
48.22944481
40.46726758
59.80510215
57.88537055
44.81109316
47.31974349
41.95566149
39.49596216
39.64670963
35.7914845
33.99248984
35.06885216
33.573648
32.83991057
33.2258046
32.46049641
32.14510177
31.29901882
31.58137358
31.54157216
31.74384592
32.58839905
32.30891187
33.05719074
35.62737675
34.62075682
36.32293047
38.27967922
37.55704008
53.29983816
60.38692539
57.6581734
89.00908758
64.23718849
54.05807342
47.93190386
39.12559161
36.44162542
37.67830514
34.91192195
33.85752485
34.31021024
33.02443532
32.58323846
31.27113552
31.64455939
31.59642844
31.85616604
32.92963468
32.67790748
33.51315348
36.61033053
35.9032541
37.87666154
40.41061587
39.97819243
61.99791836
73.42949219
72.11795539
140.8548667
88.4884591
79.74279021
56.26150538
42.82298775
39.92999449
40.62059145
36.45039023
35.23857843
35.56149249
33.69222551
33.18159461
31.25211317
31.71678756
31.66227123
31.97389113
33.24250784
33.01024367
33.91620381
37.4149204
36.81211938
38.97641951
41.91191986
41.52530396
70.07536127
91.98805495
89.21953626
159.2365061
102.0051934
98.38699978
61.77825661
45.93342577
43.53328945
43.18457682
37.95096752
36.78552069
36.79864386
34.37267638
33.86332033
31.24097716
31.79588739
31.73765458
32.09642118
33.5484381
33.32018445
34.30745352
38.24948724
37.603321
40.08861884
43.64387177
43.08834714
79.47845532
109.1658304
105.5556699
154.2056012