/*--------------------------------*- C++ -*----------------------------------*\
| =========                 |                                                 |
| \\      /  F ield         | OpenFOAM: The Open Source CFD Toolbox           |
|  \\    /   O peration     | Version:  v1912                                 |
|   \\  /    A nd           | Website:  www.openfoam.com                      |
|    \\/     M anipulation  |                                                 |
\*---------------------------------------------------------------------------*/
FoamFile
{
    version     2.0;
    format      ascii;
    class       volScalarField;
    location    "0.77";
    object      p;
}
// * * * * * * * * * * * * * * * * * * * * * * * * * * * * * * * * * * * * * //

dimensions      [0 2 -2 0 0 0 0];


internalField   nonuniform List<scalar> 
12556
(
731.3640308
730.8191085
729.3561635
726.1026575
721.0255414
709.9798023
691.2666596
660.5735326
613.4563447
544.0794413
447.190635
320.4791374
167.76008
0.1317914697
-167.1168128
-319.1879177
-446.903849
-547.5381081
-622.7808931
-676.1571698
-721.2580223
-741.9068934
-753.8857047
-759.4668412
731.708822
731.4424525
730.5362466
728.3447751
723.3152882
714.1371365
697.8355987
673.1898986
631.4716681
568.1295716
476.6534212
352.5174786
197.483111
23.30007096
-153.541
-313.9813841
-447.1196862
-550.5618423
-634.576407
-684.9136097
-729.2819516
-747.4919963
-758.0978197
-763.0092373
732.4818073
732.8383754
733.2396832
733.1609724
730.2470015
725.0677978
714.5210677
694.0821793
660.511134
605.4663563
516.634622
382.5187797
207.0245616
13.27537016
-177.8730091
-348.9764936
-485.9316113
-585.3726337
-667.2833579
-709.7455198
-747.803787
-760.8579653
-768.3781431
-771.7487794
733.1879975
734.4252791
736.7367552
739.6417626
739.940284
740.6647426
738.714736
727.2148006
707.8441832
665.3906823
579.4727479
430.401508
211.8485454
-34.02314752
-254.3128063
-427.7659024
-559.6716528
-650.7125365
-718.9106085
-747.6974147
-774.8489217
-780.5352599
-783.4119118
-784.5265277
732.947551
735.1867246
739.6723159
746.2545571
749.9916046
758.5853485
767.3593795
769.4953687
770.2546586
753.1539087
689.1235068
523.7067913
220.5381179
-138.295391
-410.7356871
-582.5804842
-685.2353654
-745.2964673
-788.0154597
-797.0191457
-806.4208645
-803.1757658
-800.3488352
-798.7338268
730.7682314
734.0024958
740.5868079
750.7777877
759.4016222
775.7297162
796.5666016
814.3778277
845.2223086
878.7736485
883.9619683
754.2739308
272.6762443
-359.2071897
-699.7097065
-826.0541076
-864.6716076
-871.2867559
-870.3408092
-852.0816484
-838.9912605
-825.5514687
-816.2469812
-811.6774132
725.7034228
729.8050925
738.2092811
751.5632139
764.9024377
788.4815847
820.2493283
854.9214767
920.1450157
1021.888102
1170.604932
1322.545861
569.9091451
-947.8031564
-1185.00538
-1152.638161
-1085.415026
-1015.26108
-956.6711748
-905.6983359
-868.3106443
-843.7394865
-828.0937079
-820.716182
716.9387281
721.6711323
731.3931841
746.9957775
764.6207597
793.4630017
833.0949902
881.7619624
973.4831196
1125.037329
1380.546224
1882.688687
-2557.5037
-1863.014291
-1509.450697
-1300.46726
-1150.07758
-1029.339555
-948.7781577
-886.8712175
-853.4395268
-832.8408895
-823.1491937
703.8574242
708.9026818
719.26483
735.9476669
756.7602453
788.2970648
831.5919907
887.8236535
988.8166876
1143.188085
1352.353369
1579.752358
-3964.867282
-2365.503435
-1759.284164
-1445.949566
-1238.036531
-1070.651326
-970.2456685
-890.0174965
-851.1062238
-827.7284959
-816.6360012
686.1205182
691.1276951
701.3851877
717.8649518
740.5853604
772.0242816
814.6787839
872.0481986
967.7971724
1099.436578
1243.154779
1357.076826
-3721.552065
-2376.573582
-1789.76645
-1468.708499
-1252.039768
-1068.470919
-963.3822534
-874.5813244
-834.949613
-811.1998597
-799.8648752
663.7127491
668.3545392
677.8065058
692.8258753
716.2617271
745.0972981
783.5925627
837.144802
920.2462369
1026.212921
1132.811288
1220.687384
-2818.432431
-2021.407864
-1618.48372
-1371.154954
-1189.30452
-1021.104751
-927.3939743
-840.4271259
-804.7422091
-783.0594142
-772.6296263
636.9194564
640.9163928
649.0450354
661.3008032
685.0371466
708.8809015
740.6748816
786.9990293
853.8090375
936.2628196
1023.162111
1119.309703
-1860.541451
-1522.875263
-1331.078315
-1188.326632
-1067.485187
-937.9866624
-866.6490483
-790.3403125
-762.20392
-744.4606262
-735.8401476
606.3079936
609.4656104
616.0042933
625.3267997
646.5876841
665.0799232
688.4809022
725.7734247
773.6721437
830.9845932
896.0200325
997.2823004
-777.493226
-971.2233616
-1033.433338
-1013.43384
-971.4228478
-916.2625489
-834.582848
-789.2634165
-729.6107544
-710.4983242
-697.6057334
-691.3171915
572.5873911
574.8169853
579.591449
586.1257229
604.0167685
616.6918363
631.2504536
657.9612491
685.2702871
712.3068208
736.2843203
802.4133938
227.8881412
-416.5006964
-645.1205863
-732.1591284
-763.6615914
-761.4475385
-725.8062845
-704.2738116
-663.9727004
-653.1344522
-645.196037
-641.3901525
536.576921
537.7977978
540.5046453
543.9799653
558.58652
564.6989925
570.650766
585.0711112
591.3240668
586.8838197
559.4004391
478.1479032
187.0352718
-181.2625905
-399.5795391
-520.1359514
-589.6461625
-623.6635938
-621.369282
-619.986727
-596.7673572
-593.1769197
-589.9426025
-588.4598768
499.1236407
499.3883325
500.0584538
500.6030035
511.8825009
512.2046011
510.5165847
513.9714428
503.995654
478.2444796
422.1611477
309.5259312
139.3360946
-82.84253503
-254.1478659
-374.9930375
-457.6841027
-509.5651158
-528.3740087
-540.8788432
-531.1123064
-533.4473705
-534.2252383
-534.6876056
461.0774969
460.5190476
459.4195915
457.4246586
465.5482384
460.986987
453.1603334
448.4935868
427.7759724
391.1212581
329.5955061
239.16087
114.0261354
-35.42036458
-168.1681533
-276.467928
-360.2310809
-417.9704617
-448.0063481
-469.1270387
-469.399585
-476.1154438
-479.9828747
-481.8452383
423.2181021
421.9886374
419.4476038
415.4083194
420.6924959
412.3749922
399.9745521
389.6597584
363.3071846
323.7101017
266.1234842
191.7263119
96.60059419
-13.40781457
-119.5551539
-213.3679904
-289.0825242
-345.1109481
-380.0701987
-405.7544045
-412.8737039
-422.4760467
-428.456584
-431.26399
386.1813783
384.4325292
380.7749291
375.1963107
378.1648612
367.1952708
351.7872085
337.8936812
308.7593685
269.2436285
217.516892
154.189954
80.79301492
-7.195986068
-93.80251617
-171.6627824
-236.5962076
-287.9754246
-323.7743254
-350.7969363
-361.9313181
-373.1609256
-380.3969819
-383.8282199
350.4591469
348.3413902
343.8881427
337.2527377
338.4432147
325.8155361
308.70786
292.9670432
263.235709
225.0714068
178.2366001
123.6489195
62.58986691
-8.09267117
-77.65058525
-141.4954095
-196.7776783
-242.4948963
-276.9516132
-303.4282552
-316.5751956
-328.4433753
-336.2631191
-339.9815738
316.4102951
314.0645683
309.1149558
301.8488513
301.765232
288.2934338
270.4257002
254.1780449
225.2343284
189.5885313
147.6965265
99.82505026
49.12210989
-8.804906672
-65.71430641
-118.6780578
-165.7131942
-205.8587839
-237.6879796
-262.6512676
-276.4510632
-288.2548007
-296.1624191
-299.9337836
284.2723176
281.8189821
276.6320962
269.0878039
268.1678028
254.4781808
236.649935
220.6739971
193.3354296
160.708954
123.5816627
82.1177184
39.02345291
-9.099245275
-56.37558391
-100.7498061
-140.8385188
-175.8344114
-204.5639681
-227.4910475
-241.049361
-252.335746
-259.996213
-263.6572112
254.1716535
251.706721
246.493284
238.9607192
237.5186104
224.0986497
206.8745892
191.6545617
166.3571057
136.8993538
104.1725441
68.28016628
31.38349796
-9.059676526
-48.75600767
-86.21683527
-120.4586705
-150.8376505
-176.3869912
-197.0688507
-209.8378288
-220.3381754
-227.5403096
-230.9865435
226.1419781
223.7389707
218.6588405
211.3591563
209.6539759
196.8388198
180.6017302
166.406076
143.3472499
117.0207313
88.27757372
57.21543254
25.4937241
-8.764781247
-42.34113226
-74.13427029
-103.4303172
-129.7263556
-152.2126251
-170.6294851
-182.3053143
-191.8784639
-198.4999608
-201.6705896
200.1469114
197.8602894
193.0289583
186.1197192
184.3521086
172.3650502
157.3741284
144.3260077
123.5558291
100.2215253
75.0609374
48.20944697
20.87761123
-8.284759116
-36.81424123
-63.88424688
-88.96703253
-111.6722467
-131.3014657
-147.5385119
-157.9756541
-166.5667274
-172.5483973
-175.4134293
176.0998786
173.968322
169.466024
163.0536483
161.3737257
150.3514548
136.7157793
124.9131684
106.3879902
85.85584079
63.91712143
40.7601103
17.20273545
-7.678227667
-31.9699425
-55.04576602
-76.50990454
-96.05938225
-113.0692464
-127.2642345
-136.4171356
-144.0267719
-149.3524921
-151.9031039
153.876853
151.9262705
147.8059673
141.9578205
140.4804355
130.4982036
118.2569587
107.7367649
91.3690087
73.43377413
54.40185639
34.49637586
14.23069877
-6.99180984
-27.66923746
-47.32278272
-65.65251123
-82.42303651
-97.05340866
-109.3648377
-117.2435262
-123.9053493
-128.5861498
-130.8269403
133.3272965
131.573651
127.867574
122.6222164
121.4330585
112.5226363
101.6795826
92.42862495
78.1128042
62.57544422
46.1775023
29.14867922
11.78887654
-6.260745562
-23.81228527
-40.497528
-56.08802629
-70.40130299
-82.87687383
-93.46520083
-100.1110616
-105.8760999
-109.9385295
-111.8818692
114.2846753
112.7366612
109.4618196
104.8368353
104.0021539
96.16572056
86.72280799
78.6809039
66.30641204
52.98264611
38.98239418
24.51926723
9.750275647
-5.511123788
-20.3243753
-34.40500436
-47.57942677
-59.70776218
-70.23074809
-79.24779861
-84.71472227
-89.64147248
-93.11970834
-94.78173205
96.57430022
95.23537519
92.39808165
88.39642362
87.96774144
81.18833227
73.11613693
66.23878934
55.69217152
44.41528147
32.60962238
20.45422152
8.018507933
-4.761736302
-17.14612096
-28.91451577
-39.93600221
-50.10655739
-58.85706275
-66.43931898
-70.78369304
-74.9312176
-77.86185802
-79.26008443
80.01086813
78.88207952
76.48253703
73.09491831
73.12977914
67.37189791
60.62381305
54.8850763
46.05479305
36.67667103
26.89288015
16.82952896
6.519540087
-4.025545899
-14.22868928
-23.92005752
-33.00140528
-41.38992026
-48.53890995
-54.8022843
-58.07052993
-61.49643286
-63.91477219
-65.06562502
64.43387614
63.51226752
61.54719134
58.76184114
59.28099731
54.5146343
48.97791655
44.43401389
37.20871529
29.60116822
21.6943385
13.54756522
5.195250234
-3.311117127
-11.5305825
-19.33393649
-26.64987462
-33.40787717
-39.06831011
-44.12331684
-46.37240178
-49.12525934
-51.0637659
-51.98390098
49.58171646
48.87306216
47.34514962
45.13940797
46.27985441
42.43073562
38.05209542
34.68355164
28.98520659
23.04342846
16.89463769
10.52751685
3.998411295
-2.623420892
-9.014194212
-15.07897975
-20.77246334
-26.06168245
-30.25942494
-34.21079311
-35.42705974
-37.56420752
-39.04638228
-39.74244339
35.57802867
35.05874319
33.95797691
32.37592005
33.70821538
30.94261397
27.69945629
25.47561623
21.23744786
16.87531247
12.38837473
7.697485709
2.889444676
-1.96472573
-6.644531634
-11.08428848
-15.26111601
-19.15957247
-22.00224576
-24.86694761
-25.30684029
-26.81776066
-27.86840797
-28.36852616
21.16513729
20.92138722
20.26709924
19.31394154
21.68384408
19.90241187
17.75286148
16.66542984
13.83657461
10.97992463
8.073895768
4.989556628
1.834783069
-1.334426789
-4.387904144
-7.284143887
-10.01834755
-12.59495751
-14.14441265
-16.02744715
-15.09015228
-15.9969503
-16.6155796
-16.85236252
10.85913551
10.60591698
10.25787915
9.685395334
9.912244294
9.008156063
7.992247085
8.120091564
6.67682508
5.249107
3.836812912
2.325445552
0.8135594888
-0.7268815737
-2.209759586
-3.617633586
-4.955666435
-6.239480727
-6.460552925
-7.326222784
-7.676931165
-8.145035308
-8.444555419
-8.668641877
1621.598182
-4233.586037
-2700.166833
1378.027262
-4050.041127
-4298.549431
1234.691368
-3063.172161
-3950.92862
1132.251865
-2023.636784
-2929.296707
1006.985215
-831.9749172
-869.8689513
-1083.713323
-1899.327053
829.0334693
316.1776203
-785.5086577
180.05421
-427.939765
-978.0030167
1860.26056
772.4128527
-2359.069723
-764.3328376
-5514.322074
-3369.853675
-3897.069475
-2518.296992
-1998.010796
1271.469687
1367.116229
1554.789301
-5736.323625
-5998.917674
-3804.694402
-2659.088321
-2615.831717
1159.898848
1224.812328
1346.553207
1299.302378
1326.013862
1401.07738
-4250.070276
-5035.100721
-2939.95637
-2295.697423
-2602.775167
1051.35469
1118.835778
1210.438141
1181.859995
1216.125821
1253.605268
-2822.830643
-3427.926424
930.7933106
999.0170806
1105.506492
1070.774524
1128.535066
1172.969604
-1607.81608
-1557.853626
-2096.909868
777.9443788
822.8535675
981.2985264
929.9737726
1002.091501
1063.226465
545.1580744
295.2096662
327.6072968
2008.876485
1646.80062
2572.108052
2086.856637
-6004.25652
-5577.507322
-3815.297364
-5338.490114
-5847.456948
1410.597224
1478.159796
1449.46883
1479.010722
1413.676662
1617.154176
1490.455134
-5081.763596
-5705.859189
-4213.229222
-5578.900675
-4993.603875
-5844.826325
-5607.082929
-4240.615025
1260.207051
1316.023655
1281.794389
1321.257168
1261.473309
1408.700228
1326.810613
-3517.430433
-4193.603864
-3460.840384
-4092.545882
-3447.640106
-4947.772445
-4193.935093
-3590.399051
1176.1853
1214.153885
1169.567895
1217.151546
1180.112249
1257.980734
1218.862053
-2175.678006
-2739.458731
1067.420301
1125.408678
1062.731992
-1565.901057
1130.453987
1072.098709
1176.793042
1133.614227
-1605.899077
-1006.330025
-1482.346142
-1559.696008
1025.44639
998.7176855
917.9740744
-57.76870291
1004.948725
916.815914
1067.929542
1007.404564
-133.4694379
1373.714279
1590.672481
1778.254854
1812.628931
2054.781196
2433.323612
-6717.262008
-4072.969908
1477.283717
1490.321285
1622.750724
-3368.371427
-1976.916963
-1730.355053
-2163.539515
-1997.049631
-1938.432292
-2221.229481
-187.7193215
-496.4364688
-868.1927731
1652.432831
1987.321322
1765.715704
1695.797563
3438.017872
2792.532254
-3222.93634
-5189.907751
-3592.171677
-2267.488379
-2572.431173
-2405.364339
-2697.048862
-2150.022027
-3361.561554
-2777.72131
-2535.025662
-1173.62247
-327.4739738
-475.8978924
1257.014492
1917.381956
2556.966188
-2922.770771
-783.0819516
995.82209
-6842.200423
-4895.429808
-6654.866024
-3908.872493
-6489.208026
-4570.860371
-5868.768463
-5888.924651
-4623.09993
-4676.316494
-2984.492875
-3303.026271
-3076.92421
-3281.257668
-2957.807788
-3682.073453
-3329.514981
-3163.402814
1149.161784
1122.345488
1102.130583
-1591.453107
-1852.038737
-1922.726581
1031.186877
996.8472254
968.5387985
1031.428425
1005.726012
1034.690994
1984.631431
1725.997399
1815.557291
1739.418572
2011.918303
1580.330759
1711.792459
1764.954414
2431.659115
2746.699712
3281.378777
2070.920619
2644.974796
2346.756433
2671.60407
2052.513619
-5920.278101
-5899.171606
1447.39046
1479.608325
1442.940642
1549.157187
1513.090875
1572.649438
1480.946247
1507.648539
1531.983433
-5377.711217
-5416.076834
-5320.336862
-4745.960919
-4884.585821
-4503.734946
-4690.97051
-5282.320028
-5764.056612
-5010.60084
-4999.661317
-4920.944692
-4997.881966
-5745.042957
1290.052214
1285.740392
1371.621697
1365.545824
-3795.50843
-3719.037085
-3844.967629
1200.702273
1197.929882
1236.462079
1233.89245
-2909.594358
-2595.69953
-2494.337699
-2615.669598
-2931.492215
1091.365519
1063.914857
1039.601391
1094.951644
1071.994673
1096.48178
-1222.189766
1100.367778
1094.765051
1155.319688
1152.992748
-1930.871865
-1222.437895
-1246.974142
-1505.213704
957.9586745
924.9901465
931.9703886
948.9109209
465.5091542
164.4497558
1040.44927
-316.6670984
119.938826
-232.5223266
1037.615567
-384.9725192
-264.5202071
87.20556589
-4976.369268
-2137.973586
-2285.27943
601.4806003
566.911481
789.2394096
681.4312374
698.1035827
957.9894382
200.2707814
-134.4531091
-316.9397268
4395.10192
-2319.084792
-2478.670178
-915.5234789
-1162.2565
-1175.260363
-150.0057206
-392.5313612
-115.9530295
2021.731962
2651.420628
3423.712572
-3500.622886
-808.7956648
1282.793119
-5803.159149
-6490.040332
-6406.657559
-5963.471972
-4408.674019
-4598.645162
-4407.965671
-5294.243976
-5136.565907
-4887.872887
1231.972827
1216.081903
1199.149715
1241.333575
1222.077128
1234.859457
1147.595803
1128.752958
1151.77305
1013.818956
998.3774586
984.2981023
860.7229541
615.8218581
355.1603014
-5983.716796
-6471.361143
-6525.267977
-5729.527484
-4772.47272
-4467.370644
-4977.22241
-4842.616381
-5744.628889
-5215.471124
-5488.894478
-5348.493028
-5593.961161
1281.442314
1270.219481
1248.189322
1266.679498
1275.061452
1271.130949
-4348.390125
-4177.794688
-4041.096558
-3805.093898
-3565.843693
-3808.01168
-4605.92911
-4210.435478
-4434.281941
-3889.419305
-4131.779698
-4554.887982
1194.731117
1171.383302
1153.728232
1193.691451
1177.10814
1197.467666
1211.426949
1224.152364
1226.222519
1191.645817
1206.322586
1189.198563
1248.319993
1252.371297
1263.37764
1226.522143
1229.493591
1224.437578
-2414.117673
-2552.630933
-2260.461646
-1417.859097
-1418.663595
1119.849326
1074.277451
1166.501246
1173.489937
1188.924046
1160.021622
1141.909026
-1737.991156
821.2799625
914.7788771
879.1771907
979.2323967
961.2594854
981.5673061
130.9350421
372.2654525
135.6369494
990.5180229
433.6259768
680.3626483
501.174285
600.6711042
1051.441544
1020.400304
-6069.375178
-4828.778434
-5716.253296
-3499.359567
-3558.389193
-1958.707307
-2092.853396
-2107.969926
1640.351095
1622.047603
3268.346764
3699.426614
4088.537629
3502.09912
3162.044404
-2645.382018
-2484.534116
-2438.963676
-2490.313538
-2664.05035
-1186.474926
-1015.717457
-1025.486832
-1019.737677
-1189.88462
-805.1404978
-972.10224
-574.8424197
-596.3700929
-756.5902225
-388.3721063
-543.941603
-476.888267
-6953.96722
-6084.65033
-5622.356805
-6449.935999
-6199.176174
-5436.735794
-4737.375055
-5675.7928
-6231.462423
-6151.728359
-5818.009859
-5947.179848
-6370.747211
-6264.917628
-4834.888412
-4659.122489
-4463.019192
-4714.77511
-4902.03274
-4465.154768
-4658.421616
-4955.674137
-4835.984289
-5083.863954
-4892.162624
-3120.78254
-3178.044823
-3147.319465
-3064.536938
-3197.629797
-3534.087144
-3429.607141
-3571.78087
-3242.227448
-3382.598883
-3481.719586
-1798.827283
-1774.100038
-1910.903225
1015.686127
1003.09656
1014.778725
1043.612251
1031.886282
1020.29123
1850.676463
1815.146048
1831.826484
1876.33866
1780.480819
2042.594383
1913.303928
1869.352395
1630.778915
1664.773138
1615.121815
1753.177293
1684.206292
1649.906288
2278.8949
2262.796837
2092.943873
2361.309869
2269.597678
-6493.90292
-6471.96919
-5971.715232
-6621.885896
-6678.772943
-6594.018423
-6599.490572
-6521.644622
-6707.039856
-6608.986342
-5795.79755
-6398.013289
-6496.480447
1459.806575
1462.443436
1452.361038
1480.638329
1466.961131
1466.014672
1439.630335
1430.80796
1450.484734
1442.244871
1533.772914
1556.973009
1531.676579
1601.73786
1566.895327
1541.265419
1494.076992
1500.655336
1485.115189
1524.507047
1506.330876
1499.896744
-5657.360604
-5533.606848
-5257.787494
-5547.381144
-5836.342699
-5690.367187
1305.923108
1294.06119
1325.691426
1309.095533
1275.954325
1268.700484
1289.294572
1278.15731
1402.794644
1383.076575
1426.800544
1409.276719
1349.600647
1330.444113
1376.445822
1356.500458
-3807.934142
-3959.966255
-3620.020374
-3761.689095
-3857.807995
-4226.41039
-4400.842701
-4010.170142
-4173.236585
1209.90804
1221.455969
1209.045215
1226.694513
1212.083213
1228.905695
1229.939137
1209.769811
1191.017353
1206.232864
1207.070027
1242.229282
1248.850567
1244.937389
1251.601563
1244.683354
1265.309516
1254.305551
1230.086944
1228.356923
1238.995262
1231.493351
1226.566929
1231.121041
1238.830147
-2673.523359
-2752.499548
-2817.050854
-2661.379077
-2864.719635
-2795.211811
-1200.359928
-1373.185018
-1403.916059
-1199.896259
1116.226711
1080.283006
1163.854224
1169.844126
1163.301763
1145.127194
1163.928841
1163.387524
-1816.941871
972.023051
954.2280268
936.7231069
629.8377044
533.7791697
983.1824061
248.7258079
407.7453289
299.6957811
1045.786891
-469.587945
-34.80459729
191.787053
-80.5334192
1014.039125
-2276.975555
-1776.883116
-1171.622007
-2272.867557
-2325.199368
-1101.730998
-1157.863672
-1582.430446
-2334.808482
-978.2047721
-969.4912772
-809.6607718
-2073.564064
-1579.680299
-1534.671531
2505.958101
3400.451483
4256.809178
-3789.687307
-798.0748605
1663.690806
-1479.762443
-1083.395269
-2849.867959
-5232.213428
-5913.78201
-6179.455454
1358.416166
1341.857436
1312.951504
1381.823885
1351.817736
1369.47273
-1591.660962
-1727.962659
-1741.055869
-2174.758916
-1918.935355
-1862.094841
1048.550926
1036.52717
1048.562182
-6251.554888
-6371.508473
-5762.394757
1303.775957
1278.144135
1289.361789
1307.14123
1309.289984
1325.028854
1330.051185
1348.130473
1342.710317
1073.675784
1063.547957
1052.905495
-1579.3889
-1534.453752
-1522.919446
1076.742284
1082.130987
1075.412168
-1672.619995
-1684.914757
-1592.737871
-1416.42753
-1406.101685
-1544.971131
1001.546992
1063.917202
1070.216943
1072.970004
1007.793064
-6609.200808
-3404.065326
-1978.306443
-2043.051691
-2050.134148
-2267.103009
-2127.585983
-2091.639113
1670.445846
-4329.954188
-3806.202805
-4547.193129
-2396.17923
-2451.513704
-2309.315291
-808.0105272
-823.0681261
-649.2220696
-654.0927947
-751.1813301
-1755.70277
-1179.839985
-3431.069073
-6807.145843
-6468.138936
-6315.449865
-6902.5713
-6872.46559
-3029.745456
-3060.495292
-3013.307353
-3319.404721
-3311.048291
-3282.945207
-2885.703433
-3017.799926
-3095.419312
-3646.285422
-3596.12352
-3644.397645
-1914.667518
-1891.960834
-1924.41403
1931.237261
1984.266287
1755.255528
1768.340523
1785.126553
1755.861907
1589.803785
1606.521027
1593.543708
1728.645666
1704.036437
1687.459015
2524.099113
2329.911123
2363.918966
2560.147838
2552.168084
2697.513127
2040.395203
2098.13788
2116.009705
1451.796822
1451.728407
1455.600783
1479.365712
1475.737824
1476.457483
1444.371881
1443.174662
1455.304521
1451.743155
1520.982824
1526.823002
1519.613028
1582.312065
1571.202017
1562.79653
1482.619455
1485.370848
1482.169365
1513.601455
1509.348653
1505.466158
1293.147926
1305.284887
1302.293553
1274.834519
1277.851375
1288.854797
1380.224079
1399.019788
1388.079738
1395.3918
1388.21796
1440.724435
1434.581142
1335.938933
1381.113144
1374.076454
1348.780775
1354.616895
1373.848867
-3972.913427
-4032.36866
-3691.512949
-3746.366693
-3771.986382
-4089.302897
-4112.596082
-3988.635537
-4124.89005
-3968.319975
1079.882496
1067.842892
1077.63291
1110.825429
1096.556027
1084.57047
1103.967794
1110.987473
1106.244356
1089.671561
1092.978299
1097.910689
-1928.919387
932.0583084
936.9862586
931.3364243
699.0420648
941.6546629
341.9846494
476.4793955
601.2753486
1046.272285
1045.753736
1041.93586
-380.1808314
-225.3468767
-201.91961
-216.6842358
1032.860429
1039.20424
1044.188282
-114.0807154
-190.55846
-336.3734179
-2173.865721
-2215.399669
-2310.084715
-2264.272436
-2242.55727
4382.17082
4771.516051
4158.511072
-2371.390939
-2396.623705
-2322.250303
-2496.553748
-2444.984147
-2432.202857
-2064.394935
-1243.839081
-3677.151748
-6051.115448
-6053.81972
-5992.560329
-6027.551136
-6460.341918
-6308.611236
-6331.31794
-6261.97836
-6286.229617
-6433.809504
-5246.127868
-5165.933247
-5215.790938
-5057.995999
-5114.621229
-5194.902237
-6522.818485
-6345.830618
-6321.083994
-6351.726664
-6359.075711
-6543.41546
-5438.376474
-5357.77088
-5403.189135
-5265.877264
-5312.287713
-5396.128994
-5935.600129
-5963.320499
-5843.371239
-5892.606414
1225.406755
1221.036021
1219.330569
1194.82919
1191.684519
1188.125808
1199.161316
1195.961826
1200.196768
-1538.437
-1589.258633
-1411.866685
-1487.293691
1131.528257
1131.026897
1137.140635
1132.91263
1075.693823
1075.153264
1082.152592
1072.011939
1178.545995
1176.350332
1172.050042
1184.867637
1180.932664
1184.381137
1145.216671
1143.571305
1153.112513
1138.425058
1144.266747
-1745.856679
-1737.092122
-1725.790896
-1594.233805
928.6005887
978.7825302
1120.272582
988.7303538
980.6163513
973.3089916
997.3628627
375.0387248
357.9301122
1096.574591
972.7928602
734.4184986
1051.948678
1063.145299
1058.424723
1013.782326
-6334.010133
-6638.672238
-6377.870435
-5619.245225
-5352.765629
-4548.330163
-6123.015281
-5802.269733
-3446.616568
-3587.540126
-2104.016245
-2091.436224
-2101.382166
1654.099646
1598.752745
3881.709303
3712.994368
3571.0635
2987.220694
2843.453871
3387.225275
3163.8263
3277.435508
-2562.59441
-2503.084299
-2610.759995
-1036.154579
-1032.934622
-1021.583803
-1133.85638
-843.3525762
-824.8805603
-810.5329934
-963.0555127
-906.9803476
-904.232325
-579.6496612
-634.3765415
-633.0138482
-456.3819056
-461.2589458
-508.6563697
-6717.943165
-6598.166094
-6879.594798
-6370.758593
-6642.320659
-6709.291746
-6856.547277
-6824.410383
-6195.684563
-6091.313794
-6116.694812
-6062.084398
-6071.662232
-6165.636111
-6330.643891
-6202.306018
-6233.460163
-6144.429763
-6172.59574
-6296.974932
-4779.383433
-4705.982592
-4761.206699
-4775.303198
-4842.392868
-4520.605173
-4547.647401
-4508.535731
-4601.010414
-5015.283869
-5058.560615
-5018.966344
-4935.402438
-4997.756552
-4817.861929
-4876.723876
-4955.434291
-3157.505998
-3080.204957
-3067.386552
-3093.664216
-3028.039388
-3080.617318
-3236.627265
-3263.868836
-3206.930096
-3496.330598
-3541.168857
-3569.638945
1888.586283
1783.518078
1642.817789
1622.643936
1605.962743
1667.685035
1682.346518
1662.450008
2339.708027
2433.097702
2459.915009
2709.788452
2584.530157
2187.235912
2167.319342
2250.628017
-6485.334859
-6296.727874
-6292.621032
-6304.033158
-6299.259044
-6480.259465
-6650.300598
-6658.31106
-6591.576872
-6829.995319
-6791.747132
-6795.590324
-6828.205998
-6571.899388
-6702.511465
-6796.378089
-6814.099592
-6645.07882
1461.087738
1457.544148
1456.041645
1471.84816
1471.237062
1466.242358
1446.114428
1445.168842
1448.841579
1447.246335
1541.390494
1534.016265
1527.775055
1551.367522
1560.051573
1549.911935
1495.775406
1490.083571
1487.28564
1503.507584
1505.584337
1501.143901
-5619.761591
-5531.600439
-5568.87069
-5446.349964
-5489.34116
-5574.225851
-5783.408226
-5702.563175
-5781.356332
-5604.171426
-5645.465079
-5732.043418
1302.563315
1303.664742
1306.031362
1295.009724
1300.007465
1298.596446
1319.264678
1317.049885
1325.699607
1307.630684
1310.622999
1313.304526
1273.887249
1275.398694
1276.592126
1271.11088
1273.652621
1271.523122
1284.812702
1284.398762
1289.396607
1277.869851
1280.382927
1281.063887
1409.899956
1402.712692
1396.304244
1399.727613
1406.516825
1385.867363
1392.797254
1389.714382
1425.523084
1417.107098
1353.53581
1347.380619
1342.805211
1345.077862
1351.529331
1331.194894
1331.645367
1334.72814
1369.818046
1372.146352
1378.988842
1358.59621
1365.360388
1363.182734
1367.242587
1360.4804
-3891.864733
-3925.822093
-3831.891205
-3800.103625
-3834.479143
-4278.113238
-4310.487144
-4263.891026
-4439.742531
-4368.612406
-4335.534568
-4057.229818
-4092.410497
-4055.822156
-4214.96322
-4165.079605
-4115.753294
1213.167924
1210.109153
1206.863826
1216.859074
1213.618026
1217.364844
1220.848975
1215.47666
1229.69517
1230.204008
1208.916093
1200.723821
1196.640884
1197.21611
1198.646204
1203.726624
1201.262639
1205.834689
1241.044403
1244.417094
1254.001619
1246.313013
1261.556331
1263.249217
1267.430248
1256.484771
1259.666068
1257.975939
1228.928988
1228.312026
1234.955306
1232.93149
-2766.554872
-2748.287397
-2804.079886
-2650.035196
-2697.328888
-2730.979143
-2930.919749
-2972.43346
-2847.593909
-2860.987575
-2872.305773
-1341.443646
-1343.182277
-1397.297286
-1212.691883
-1273.535811
-1282.691092
1115.348651
1106.216724
1129.372698
1124.170699
1084.74917
1088.07486
1084.618149
1090.468367
1087.355476
1099.502704
1094.847447
1165.227172
1163.552211
1161.748107
1168.568589
1165.803698
1167.210987
1164.451992
1158.503448
1156.239857
1160.435002
1159.506724
1163.86358
-1873.344245
964.0779362
954.1083137
961.5431799
585.4246913
605.3838183
670.8967124
542.460161
550.3041925
530.8639203
975.1408825
346.0563342
292.4312324
224.2587198
1043.072022
1044.31374
1045.165868
-447.1943342
57.6659852
-2.401210574
173.0240788
159.5964415
173.2866189
-22.0621245
-155.7982076
-137.1222309
-34.95392533
1024.44936
1035.139038
1028.697271
687.5370315
662.2605513
644.2525729
651.351219
610.6895509
587.0435688
593.5679313
530.690515
503.1916418
504.5350634
411.1539708
387.1570472
374.0654056
250.0153507
238.4742268
204.6047009
67.09719833
66.27992967
18.87493543
-122.2899068
-111.4087956
-168.3958481
-297.5724066
-276.5605826
-337.5461968
-442.3567147
-416.4889919
-473.1646129
-551.3532839
-526.8061785
717.9288207
701.8425709
670.6567569
694.4720818
662.9857356
621.8742316
648.2929602
587.5629949
542.9156806
560.6752707
457.6745651
420.730387
415.63168
266.705054
253.3260599
211.151624
39.24576419
62.60155226
-17.83278251
-179.3647508
-131.3294107
-228.865898
-362.2941158
-308.5972203
-401.8969466
-506.8571542
-455.2948653
-537.0330665
-611.6913002
-563.5103633
758.4573707
755.6558639
714.1457099
753.2078113
737.3148179
679.2164472
727.9056029
680.1005994
606.2719999
655.3509692
544.0318945
474.0987135
492.2360529
296.7433394
271.6039881
216.5938464
-27.72929748
26.81319549
-105.0914967
-306.5824103
-203.4522342
-362.1856908
-497.7497783
-388.6897824
-534.8522921
-625.2031902
-529.9860526
-648.868868
-704.5939071
-631.9957817
803.2688901
820.0692921
771.0652211
825.8178087
841.1221534
760.278449
844.5790697
836.6220453
712.1204548
825.1236754
733.8618514
578.0615356
675.2987586
381.9512663
308.8129056
249.2630443
-164.9663547
-53.05032627
-285.5090661
-550.7479824
-353.5762489
-611.2628948
-732.9919635
-546.4329334
-757.4564988
-805.2034494
-664.6774166
-815.1406293
-833.8612931
-733.3879114
845.6579265
886.027324
836.8428307
902.6394618
963.1271051
870.9717527
987.1379971
1068.12357
888.554461
1095.872811
1149.086448
811.1199028
1135.189571
689.1666944
430.2428648
524.1748285
-534.2223096
-222.1922744
-730.2093944
-1011.17382
-639.7826508
-1042.617141
-1066.678114
-806.7169346
-1062.977972
-1039.497086
-859.3530122
-1028.589472
-992.0651972
-871.464117
876.9068591
937.5731447
900.7938946
963.4996574
1063.745461
992.3934016
1106.536977
1275.580718
1129.016824
1350.680886
1758.550111
1297.073601
1569.26017
1675.65595
1223.479593
766.9003989
-505.7160303
-108.3825837
-1323.016917
-1333.81045
-1073.179644
-1688.658051
-1478.895956
-1166.365759
-1423.965957
-1288.360787
-1103.184823
-1250.18705
-1149.24828
-1032.700483
888.3905432
958.887609
946.0173065
988.6104242
1100.375756
1079.738087
1146.07563
1310.589949