/*--------------------------------*- C++ -*----------------------------------*\
| =========                 |                                                 |
| \\      /  F ield         | OpenFOAM: The Open Source CFD Toolbox           |
|  \\    /   O peration     | Version:  v1912                                 |
|   \\  /    A nd           | Website:  www.openfoam.com                      |
|    \\/     M anipulation  |                                                 |
\*---------------------------------------------------------------------------*/
FoamFile
{
    version     2.0;
    format      ascii;
    class       volVectorField;
    location    "1.69";
    object      U;
}
// * * * * * * * * * * * * * * * * * * * * * * * * * * * * * * * * * * * * * //

dimensions      [0 1 -1 0 0 0 0];


internalField   nonuniform List<vector> 
12556
(
(99.99962769 0.0009570722796 -3.553470555e-21)
(99.99930387 0.003675481753 -2.92775651e-25)
(99.99856662 0.009098326158 -3.554536716e-21)
(99.99720974 0.01929184628 -3.543906145e-21)
(99.99969009 0.01643156723 3.437455659e-21)
(99.99847394 0.02910411463 0)
(99.99755607 0.04973138332 0)
(99.99715238 0.07943478175 -6.277178249e-21)
(99.99608583 0.1208985796 7.460185556e-22)
(99.99505745 0.1755788581 -5.123921277e-21)
(99.994529 0.2408070046 5.164105607e-22)
(99.99520317 0.3072956225 0)
(99.99709595 0.359883628 0)
(99.99957496 0.3843981936 2.167250532e-22)
(100.0024295 0.3739569124 -8.588514453e-22)
(100.0043826 0.3329633111 7.491204916e-22)
(100.0050579 0.2750473686 0)
(100.0051118 0.2141356927 1.434440686e-21)
(100.0050629 0.1574799344 5.93572408e-21)
(100.0027422 0.114018227 -1.723677467e-21)
(100.0119641 0.134296523 -1.513634149e-20)
(100.0085453 0.08414753862 0)
(100.0065282 0.04565406984 -1.923652665e-21)
(100.0063473 0.01460111903 -1.35713103e-20)
(99.99664633 0.002148561822 1.420972936e-20)
(99.99339939 0.008824478463 3.556327193e-21)
(99.98650695 0.02296510095 2.489274305e-20)
(99.97465383 0.05099515361 -1.066335619e-20)
(99.97455662 0.07614289658 3.459296737e-21)
(99.95541163 0.1372003023 -2.639202345e-23)
(99.92924365 0.2351359843 0)
(99.91358244 0.3298786303 -6.221794134e-21)
(99.87856728 0.508401764 -5.891337008e-21)
(99.84218263 0.7482069808 -1.065448411e-20)
(99.81499778 1.04298256 -4.62061538e-21)
(99.8181321 1.35682117 -6.64539329e-21)
(99.86462841 1.619147476 -1.932524078e-21)
(99.94320876 1.75298386 -6.219435483e-22)
(100.0291845 1.721104612 -3.123000028e-22)
(100.0975111 1.539951552 3.832375464e-21)
(100.1289831 1.273105435 -8.152700135e-21)
(100.1267464 0.9941731344 0)
(100.1467944 0.776673825 -2.557308325e-20)
(100.1095938 0.5443163543 4.974664004e-20)
(100.1124134 0.3867194328 1.465942961e-20)
(100.082057 0.2415214922 3.052178881e-20)
(100.0635006 0.1312550717 -3.061207904e-20)
(100.0564035 0.04192724021 1.549600186e-20)
(99.99199643 0.00133705297 -1.417809418e-20)
(99.982964 0.007728490571 -2.843334491e-20)
(99.96390212 0.02545963425 -6.399079951e-20)
(99.93246845 0.06186992148 8.520504244e-20)
(99.91121663 0.1129317317 -7.041109728e-21)
(99.85553859 0.2148455885 -6.926024687e-21)
(99.77579907 0.3781136522 -1.205632865e-20)
(99.72305445 0.5675072517 0)
(99.6116025 0.8954860189 2.428165336e-20)
(99.49250669 1.348916138 2.243285978e-20)
(99.39807148 1.952312455 0)
(99.41915558 2.632602284 9.439756039e-19)
(99.59626781 3.174837415 -4.899933939e-19)
(99.90381195 3.452025339 0)
(100.2220524 3.372135489 1.621002768e-19)
(100.4521942 2.985727818 3.038614231e-21)
(100.545698 2.431358634 -8.829142622e-21)
(100.5228195 1.850764503 -2.206381401e-20)
(100.4913774 1.346563107 -1.531934455e-19)
(100.3761095 0.9289522994 -3.46555676e-20)
(100.3154805 0.5930841371 -1.516121021e-20)
(100.2315784 0.3694495663 3.452318811e-20)
(100.1798844 0.2003483834 -3.895803913e-21)
(100.15718 0.06361875037 0)
(99.99022725 -0.002724085975 -7.126603677e-21)
(99.97307076 -0.003660105308 4.994256203e-20)
(99.93696995 0.009893710354 -1.428288823e-20)
(99.87778708 0.04423717705 0)
(99.82703239 0.1129631735 0)
(99.71628271 0.2395015035 -5.558717121e-20)
(99.55850263 0.4488131013 -1.1147135e-19)
(99.41819261 0.7190089456 2.649961561e-20)
(99.17082899 1.17836492 -1.014093142e-19)
(98.86798336 1.904444661 -1.420739769e-20)
(98.62730835 2.94141524 7.646034042e-20)
(98.63871329 4.17669469 -3.034611907e-20)
(99.17373769 5.162501153 -1.014289273e-18)
(99.98756111 5.524539655 1.421783191e-22)
(100.697792 5.217751005 0)
(101.1245114 4.500206023 0)
(101.2693424 3.561684485 0)
(101.1911564 2.633709165 0)
(101.0390151 1.819451622 5.677076113e-20)
(100.7856787 1.223950534 -4.450806679e-20)
(100.6043455 0.730731934 -3.901780146e-20)
(100.4440773 0.4480156458 1.984603696e-20)
(100.3438592 0.2409325454 -3.992920037e-21)
(100.2978128 0.07593076605 0)
(99.99885771 -0.01078736543 0)
(99.972327 -0.02776586163 0)
(99.9171006 -0.02895268933 7.157540596e-21)
(99.8252824 -0.006768003773 1.085780899e-20)
(99.73705929 0.06703919404 1.798088446e-20)
(99.5572401 0.1946552496 0)
(99.30188134 0.4115846765 0)
(99.03987009 0.7340034797 1.092358472e-19)
(98.56591134 1.324944376 1.964130184e-19)
(97.93711071 2.364906156 0)
(97.35269257 4.014291135 1.442271454e-18)
(97.41857246 6.157656389 0)
(98.66488927 7.971554904 0)
(100.5725595 8.22660934 0)
(101.8693225 7.271135734 -1.097746096e-18)
(102.4166904 5.923754209 0)
(102.4521709 4.551100488 0)
(102.1537541 3.230620802 -7.600538501e-22)
(101.7719171 2.112386397 -9.653634612e-20)
(101.3194375 1.381377809 8.086629832e-21)
(100.9467174 0.7621192886 0)
(100.6901784 0.4615050246 4.101996926e-21)
(100.5292308 0.2439397431 -3.079778267e-21)
(100.4539594 0.07599805456 -1.022433983e-21)
(100.0264716 -0.02309144718 0)
(99.99043366 -0.06505858317 0)
(99.91644564 -0.09207377545 -1.436737047e-20)
(99.79191321 -0.09626563708 2.91166378e-20)
(99.65636977 -0.03146380779 0)
(99.40698453 0.07060033524 0)
(99.0426796 0.262017605 2.274909969e-20)
(98.63078321 0.5916296671 -2.741396512e-19)
(97.83688492 1.245005411 -5.972093709e-19)
(96.67226085 2.483887892 0)
(95.28392571 4.803409972 -9.144340457e-19)
(94.83627966 8.55622134 -1.049241084e-19)
(97.68779716 12.34368899 0)
(102.2841738 12.03410607 0)
(104.3229918 9.309627121 2.647032526e-19)
(104.5786707 6.943017425 8.030603122e-20)
(104.1655489 5.095440135 1.162542393e-18)
(103.4486283 3.511364673 1.668285127e-20)
(102.6329095 2.129233208 2.500531016e-20)
(101.919515 1.352197847 -1.691756529e-20)
(101.3056703 0.668178468 0)
(100.9354117 0.3967095838 0)
(100.7060883 0.2022625222 -1.044175811e-21)
(100.5983877 0.06188429456 -3.145277733e-21)
(100.0813415 -0.03935345822 3.499262792e-21)
(100.0367615 -0.1146085099 -3.522911443e-21)
(99.94629802 -0.1778005404 7.176597685e-21)
(99.79294934 -0.221509945 -2.629746338e-20)
(99.6114372 -0.1826104134 7.342844219e-23)
(99.29676047 -0.132416399 2.230854165e-20)
(98.83417996 -0.005726831605 -4.60100768e-20)
(98.25311601 0.2744513782 -2.182694864e-19)
(97.13489447 0.8270388757 0)
(95.25394828 1.9553304 8.957573975e-19)
(92.45397049 4.189486145 0)
(88.9496396 9.33605883 0)
(93.3518021 20.36924617 1.80607903e-19)
(107.1720561 17.78307599 -7.317373849e-20)
(108.6628095 10.69398121 0)
(107.6167032 7.018985505 0)
(106.3186727 4.842498199 0)
(104.9350887 3.225070527 -8.865064963e-19)
(103.5314086 1.785476422 0)
(102.5045483 1.068930759 9.501269426e-21)
(101.6257399 0.4436574028 2.77741037e-21)
(101.1380194 0.2442408652 -3.277971199e-21)
(100.8427306 0.1136713749 -3.730602416e-21)
(100.7030354 0.03321133325 8.944728563e-21)
(100.1705672 -0.05880414241 -3.499636453e-21)
(100.1193953 -0.1740285641 3.524184918e-21)
(100.01669 -0.281527364 -4.463292866e-21)
(99.84206707 -0.3751993845 -2.98908679e-21)
(99.61985939 -0.377459238 1.271458719e-20)
(99.25594031 -0.4004710477 7.530583004e-21)
(98.71935255 -0.3746103905 -3.876049693e-21)
(98.00183321 -0.2106746903 2.175988332e-19)
(96.65165792 0.07143581808 1.079428093e-19)
(94.27471252 0.6262437783 -1.725744773e-19)
(90.51268611 1.391578113 -9.786792329e-20)
(83.89940311 2.272880074 0)
(120.4190975 21.63500874 0)
(114.8277018 9.325278412 -7.374150497e-20)
(110.988027 5.392431723 1.567258847e-19)
(108.4603037 3.496526006 -2.797974888e-19)
(106.3388954 2.199978682 2.118911179e-19)
(104.2898859 1.03296492 -5.138880751e-21)
(102.9624561 0.5413929962 2.158698029e-20)
(101.8389383 0.09346538719 -3.416879736e-21)
(101.2545312 0.01329418098 2.788384555e-21)
(100.9063852 -0.01612833387 -5.494830304e-22)
(100.739665 -0.008639864946 -8.448094346e-21)
(100.2993973 -0.08027263807 -1.685103986e-21)
(100.2443286 -0.2396677465 -1.265659834e-21)
(100.1350585 -0.3964620181 -4.331665289e-22)
(99.94908154 -0.5463545627 1.307782912e-21)
(99.6963918 -0.6004842272 -2.31374467e-23)
(99.30528139 -0.7096598999 0)
(98.73023893 -0.8036251381 -2.04108682e-21)
(97.94007986 -0.7973961814 -2.92614738e-22)
(96.51958183 -0.8551386984 1.135702019e-19)
(94.1088801 -0.9684878521 -7.35215165e-22)
(90.87127065 -1.512603346 -1.910236346e-19)
(87.52205659 -3.305201904 2.213174753e-19)
(133.3550991 8.331162003 2.252721173e-18)
(119.4770974 3.578698734 0)
(113.3660755 1.894034144 1.829207609e-19)
(109.9021224 1.079428353 0)
(107.2581606 0.5411209644 0)
(104.7160124 -0.0470204415 -5.325620352e-21)
(103.1849751 -0.181424446 1.227927722e-20)
(101.8905956 -0.3486179766 1.187906391e-21)
(101.2491102 -0.2733666865 0)
(100.8690302 -0.1752675926 4.279920484e-21)
(100.6847884 -0.05993611507 4.221474522e-21)
(100.4705553 -0.1023387834 3.321650239e-21)
(100.4146247 -0.3071335892 4.91491992e-23)
(100.3050621 -0.5144945708 0)
(100.1187234 -0.7226750769 1.721506072e-22)
(99.84791413 -0.834406613 -1.744320816e-21)
(99.45338778 -1.032480225 1.844555117e-21)
(98.87740673 -1.247886815 0)
(98.07893214 -1.406211181 5.254060514e-20)
(96.71574868 -1.769524145 -2.188353094e-19)
(94.51578946 -2.339413058 0)
(91.94390978 -3.266586745 -1.839028882e-19)
(89.81426954 -4.537265168 1.377691648e-19)
(131.9371993 -6.917153132 6.067834141e-19)
(119.6925981 -3.588877754 4.144531185e-19)
(113.6767971 -2.388286296 -8.44945795e-19)
(110.1337895 -1.813275096 -9.91748439e-19)
(107.3959587 -1.437893622 -2.363900956e-19)
(104.6786134 -1.278916046 4.532874347e-20)
(103.1026251 -0.9959541092 0)
(101.7471486 -0.8272715273 -1.166880948e-21)
(101.1000944 -0.5823178995 -4.770069464e-21)
(100.7141826 -0.34663629 5.316796963e-22)
(100.5245612 -0.1152735331 0)
(100.6839588 -0.123617398 -1.636405397e-21)
(100.6300843 -0.3720491275 1.649406939e-21)
(100.5260365 -0.6275380945 1.609736005e-21)
(100.3510783 -0.8920306649 -1.498166876e-21)
(100.0729725 -1.061871516 -1.720444247e-21)
(99.69708617 -1.34201439 0)
(99.15200502 -1.668315311 5.643558366e-21)
(98.39171105 -1.976541309 1.542058859e-19)
(97.15035064 -2.580307594 4.198390862e-19)
(95.18834696 -3.428520801 -4.045669651e-20)
(92.97559539 -4.452208745 3.438291763e-19)
(91.13415715 -5.414298042 -1.244850162e-19)
(124.1725002 -15.71718485 1.217967296e-18)
(116.466895 -9.092829319 6.688539813e-19)
(112.0533243 -6.115762219 -1.281153758e-18)
(109.1411055 -4.476786613 -5.998581074e-19)
(106.7127768 -3.31125892 2.159476161e-19)
(104.1583403 -2.440602398 0)
(102.7103943 -1.777794962 -2.935056501e-20)
(101.4076688 -1.281398046 -1.445809136e-20)
(100.8052631 -0.8773512248 1.084667271e-21)
(100.4392127 -0.5114538041 -3.421263125e-21)
(100.2564094 -0.1687271022 5.017253214e-22)
(100.9367517 -0.1428371531 6.028870745e-21)
(100.8876117 -0.4303456537 0)
(100.7936024 -0.7269329527 -1.606605256e-21)
(100.6381847 -1.0478659 0)
(100.3602116 -1.268102382 0)
(100.025069 -1.615845882 -5.119570763e-21)
(99.53525319 -2.034913523 -1.223587935e-20)
(98.84420663 -2.469054457 9.279023017e-20)
(97.75856206 -3.25423511 0)
(96.0181455 -4.303707408 2.176249085e-20)
(93.98095875 -5.45314339 4.218787339e-21)
(92.1255482 -6.425418872 -1.16001276e-19)
(115.5641117 -19.13952764 0)
(111.8177492 -12.05134334 1.330477117e-18)
(109.2710516 -8.553321107 2.044487671e-18)
(107.2750296 -6.405897038 0)
(105.3941034 -4.739308237 -1.845340991e-19)
(103.259333 -3.356536151 2.326035123e-21)
(102.0596248 -2.425046174 -3.534774654e-20)
(100.9027457 -1.665053967 8.568588198e-21)
(100.3817712 -1.12710239 0)
(100.0552091 -0.6535180557 3.944209727e-21)
(99.88912368 -0.2151199365 0)
(101.2239979 -0.1595877284 6.021200483e-21)
(101.1813603 -0.4815749075 9.514550636e-20)
(101.0998433 -0.8131816206 -1.916249273e-19)
(100.9663797 -1.178695849 -4.848706096e-22)
(100.7161438 -1.437994981 -1.512862407e-21)
(100.4235133 -1.838482025 0)
(100.0055216 -2.328978851 -1.263817324e-20)
(99.39968533 -2.859790306 -1.778330122e-19)
(98.49389718 -3.774396661 0)
(97.00233363 -4.98892784 1.327976734e-20)
(95.17448145 -6.376741995 3.978206467e-20)
(93.34600702 -7.628677856 -2.282185332e-19)
(103.9957284 -28.29768482 0)
(107.459204 -17.97979199 -4.19370905e-20)
(107.1876383 -12.70661734 -1.407748889e-18)
(106.1586538 -9.566912826 0)
(105.040988 -7.400089313 -9.789409467e-19)
(103.7613273 -5.564273957 -7.786981313e-20)
(102.1508404 -3.935473323 -6.981519502e-20)
(101.2376338 -2.873825582 0)
(100.2864559 -1.948308999 0)
(99.86067628 -1.31216621 1.224140286e-20)
(99.58380586 -0.7624073144 2.263536285e-21)
(99.44069377 -0.2509670316 -7.311308973e-21)
(101.5388086 -0.1722512271 0)
(101.503848 -0.5208339651 0)
(101.4375038 -0.8786294257 0)
(101.3281874 -1.27222782 0)
(101.1061125 -1.571919165 0)
(100.8593051 -2.014679016 0)
(100.5136954 -2.556609935 2.309503868e-20)
(100.0133348 -3.14851813 -1.592308212e-19)
(99.29946045 -4.135872672 1.556907832e-19)
(98.10836421 -5.456006683 -2.225095807e-20)
(96.70225298 -7.105715267 -2.197957575e-19)
(95.26888172 -9.362455266 -8.117717624e-20)
(97.08557017 -18.28671473 -2.162697588e-20)
(102.5074136 -14.80582613 -2.073489297e-19)
(103.5085438 -11.68685289 9.261747554e-19)
(103.3886374 -9.420023347 -7.236205768e-20)
(102.8988658 -7.567575817 -1.152131303e-18)
(102.0969936 -5.817242705 -5.93498299e-20)
(100.9866471 -4.198263349 -9.485038913e-20)
(100.3389781 -3.118600024 -3.586616061e-20)
(99.61091628 -2.112461821 -1.98786671e-20)
(99.27686906 -1.430239011 1.948141166e-20)
(99.05219796 -0.8343275804 0)
(98.93439974 -0.2746982512 1.952091957e-20)
(101.8740458 -0.1807168646 0)
(101.8475958 -0.5472962907 0)
(101.798563 -0.9226003568 0)
(101.7154389 -1.329961341 0)
(101.5223356 -1.654471858 0)
(101.3314119 -2.118985628 0)
(101.0660793 -2.668491772 2.126036698e-20)
(100.6893498 -3.269493815 -4.327109113e-19)
(100.2018767 -4.21774312 -2.749139593e-19)
(99.36185826 -5.486898081 0)
(98.49114771 -7.091690498 -6.363847342e-19)
(97.8052694 -9.176288524 -6.700084306e-20)
(98.48535639 -11.73879695 7.881538373e-20)
(100.4384189 -11.36729048 0)
(101.1763383 -9.980074932 9.144163683e-21)
(101.3035979 -8.568456498 0)
(101.1130724 -7.15343773 0)
(100.6285119 -5.668798919 -2.440472446e-20)
(99.87756656 -4.206129362 0)
(99.45097709 -3.193025354 0)
(98.91613437 -2.171842248 -3.651022489e-20)
(98.66321332 -1.484443558 1.8015309e-20)
(98.48806171 -0.8695190523 7.57954827e-22)
(98.39456053 -0.2864141097 -1.341329164e-20)
(102.2218291 -0.1850641723 0)
(102.2036853 -0.5608055856 0)
(102.1716245 -0.9448313987 0)
(102.1140578 -1.354806557 0)
(101.9497395 -1.692960785 0)
(101.8100998 -2.160415678 0)
(101.6179511 -2.696751654 0)
(101.3535645 -3.262408491 2.018339044e-19)
(101.0445084 -4.097340798 -4.787574707e-19)
(100.499693 -5.165887353 0)
(99.93717768 -6.440089654 9.650075299e-20)
(98.10006511 -7.586119574 0)
(99.24088832 -8.922748851 -4.071217489e-19)
(99.69660302 -8.946650919 2.953600109e-19)
(99.90664648 -8.358941092 3.157675027e-21)
(99.91257349 -7.507057829 6.559757128e-20)
(99.75868402 -6.455034539 -2.863951396e-19)
(99.4222811 -5.275664535 0)
(98.89643965 -4.034961024 -2.964091459e-20)
(98.6292818 -3.13747582 4.592029826e-20)
(98.23582801 -2.148926782 1.126458787e-20)
(98.04947409 -1.484662766 1.929659958e-20)
(97.91612699 -0.8727132915 -2.1903671e-20)
(97.84331062 -0.2875949418 0)
(102.5744962 -0.1857001569 0)
(102.5638082 -0.5625726402 0)
(102.5466424 -0.9472141776 0)
(102.5116915 -1.350919356 0)
(102.3736371 -1.692708731 0)
(102.2782809 -2.148189328 0)
(102.1448115 -2.656049151 0)
(101.9578926 -3.176060653 1.634936279e-20)
(101.7748479 -3.863934462 0)
(101.4194062 -4.691528938 2.411115373e-20)
(100.9607211 -5.604869554 -6.26115548e-20)
(100.1647095 -6.220955488 -7.153605483e-20)
(99.43864246 -7.011207502 2.351571286e-19)
(99.51587414 -7.262280012 0)
(99.28360174 -7.005909651 -4.053334011e-19)
(99.04862696 -6.462210029 0)
(98.77799845 -5.67496241 -4.283656194e-22)
(98.46967397 -4.78235961 0)
(98.06624055 -3.765699589 0)
(97.88927088 -2.98905115 0)
(97.59424416 -2.065500059 3.86080306e-20)
(97.45783016 -1.442802441 -3.609892569e-20)
(97.3560557 -0.8502564106 -2.457339297e-21)
(97.29904719 -0.2806930884 2.465443084e-21)
(102.9251353 -0.1831814887 0)
(102.9207899 -0.554415448 0)
(102.915829 -0.9327657331 0)
(102.8994568 -1.322818337 0)
(102.784583 -1.659520418 0)
(102.7237516 -2.092765509 0)
(102.6343763 -2.562512846 0)
(102.496505 -3.041988964 0)
(102.3790731 -3.601428007 -5.253785006e-20)
(102.1207989 -4.218601369 1.052935816e-18)
(101.7073456 -4.861547463 5.504195215e-23)
(101.401385 -5.368360993 4.26462936e-19)
(98.16083717 -5.796435173 7.717575524e-21)
(99.61642759 -6.034117421 -2.172797878e-20)
(98.99839322 -5.904581734 1.580875252e-19)
(98.48958229 -5.520772373 2.931984829e-20)
(98.07037416 -4.938642852 0)
(97.73014757 -4.26551147 0)
(97.37196279 -3.440886483 0)
(97.23651431 -2.77975593 0)
(97.00349792 -1.940205939 0)
(96.90103308 -1.368860064 0)
(96.82175733 -0.8097748311 0)
(96.77595918 -0.2685103627 0)
(103.2680857 -0.1781007514 0)
(103.2688676 -0.5382661365 0)
(103.2733048 -0.9048317947 0)
(103.2711009 -1.275918409 0)
(103.1749856 -1.600767231 0)
(103.1387885 -2.005610063 0)
(103.0789559 -2.432972251 0)
(102.9711805 -2.866001452 0)
(102.8722826 -3.342278274 0)
(102.6376806 -3.816927453 0)
(102.2358366 -4.273573901 -2.05905538e-21)
(101.7988892 -4.669918364 -3.788733273e-19)
(97.41131131 -4.874684935 -2.502596731e-20)
(99.73850246 -5.102683682 7.299798358e-25)
(98.80639191 -5.007778066 0)
(98.08805494 -4.722361673 0)
(97.54783727 -4.293352284 0)
(97.15121794 -3.774302296 0)
(96.79786397 -3.101609157 0)
(96.67097461 -2.543570226 0)
(96.46957803 -1.792818995 0)
(96.38678304 -1.275742774 0)
(96.32105774 -0.7569986193 0)
(96.28337342 -0.2517160713 0)
(103.5989686 -0.1710684911 0)
(103.6036169 -0.5160910714 0)
(103.6146686 -0.8668266143 0)
(103.6222719 -1.215670559 0)
(103.5403153 -1.524045521 0)
(103.5196668 -1.897458508 0)
(103.4766642 -2.282108012 0)
(103.3835533 -2.667619047 0)
(103.2815421 -3.071418198 0)
(103.0286668 -3.455652711 0)
(102.5903133 -3.804523813 0)
(101.8812068 -4.088669532 0)
(97.91626218 -4.2386548 0)
(99.7353349 -4.369850829 0)
(98.64319425 -4.286469685 0)
(97.78927923 -4.067305939 0)
(97.14934173 -3.738070185 0)
(96.69224261 -3.329363984 0)
(96.31995607 -2.774656083 0)
(96.18334328 -2.302421003 0)
(95.99286085 -1.637092146 0)
(95.91852956 -1.173441296 0)
(95.8592933 -0.6980884977 0)
(95.82616923 -0.2326560951 0)
(103.9146277 -0.1626846436 0)
(103.9219226 -0.489795507 0)
(103.9369913 -0.8219957148 0)
(103.9504309 -1.147033192 0)
(103.8783556 -1.43614108 0)
(103.8655842 -1.77735875 0)
(103.8295915 -2.122448284 0)
(103.7393177 -2.461696221 0)
(103.6211777 -2.80362487 0)
(103.3385491 -3.116453342 0)
(102.8593143 -3.390065972 0)
(101.8767239 -3.586691514 0)
(98.4174714 -3.719406475 -6.269275882e-35)
(99.70803603 -3.782555584 0)
(98.50999489 -3.702773321 0)
(97.55623385 -3.525250534 0)
(96.83577011 -3.263135871 0)
(96.32214998 -2.93356322 0)
(95.91947016 -2.471343867 0)
(95.76295441 -2.069385372 0)
(95.56982903 -1.482420318 0)
(95.49591753 -1.069137753 0)
(95.43802515 -0.6373744566 0)
(95.40692614 -0.2128907901 0)
(104.2130114 -0.1534912163 0)
(104.2218622 -0.4610917454 0)
(104.2386796 -0.7731985446 0)
(104.2545428 -1.074187625 0)
(104.1887237 -1.342663102 0)
(104.1776856 -1.652670117 0)
(104.1407424 -1.962066711 0)
(104.0458703 -2.258637977 0)
(103.9039031 -2.54881072 0)
(103.5870501 -2.80550361 0)
(103.0691672 -3.023589322 0)
(101.8271479 -3.1579876 0)
(98.7895722 -3.278272046 0)
(99.66845231 -3.299093809 0)
(98.39569887 -3.222078576 0)
(97.3669662 -3.07263344 0)
(96.58188001 -2.857415988 0)
(96.01796751 -2.585753832 0)
(95.58136746 -2.196300217 0)
(95.39959627 -1.851854777 0)
(95.19544563 -1.334882714 0)
(95.11663481 -0.9676642803 0)
(95.05659712 -0.5778384583 0)
(95.02567757 -0.1934281084 0)
(104.4930578 -0.1439428799 0)
(104.5025435 -0.4314200661 0)
(104.5192469 -0.7228495686 0)
(104.5347142 -1.00040597 0)
(104.4723616 -1.248043012 0)
(104.4583508 -1.528872814 0)
(104.4147275 -1.806127642 0)
(104.3103176 -2.064976508 0)
(104.1405652 -2.312295907 0)
(103.7888413 -2.52494185 0)
(103.235128 -2.701723203 0)
(101.752155 -2.792333423 0)
(99.05870279 -2.901395119 -7.867888322e-35)
(99.621286 -2.895846489 0)
(98.29458001 -2.821221949 0)
(97.20832575 -2.691875796 0)
(96.37124354 -2.510670706 0)
(95.76357999 -2.282425848 0)
(95.29319105 -1.95073924 0)
(95.0842069 -1.653446963 0)
(94.86434372 -1.198044492 0)
(94.77736492 -0.8720605094 0)
(94.71296888 -0.521414025 0)
(94.68096219 -0.174915335 0)
(104.7545333 -0.1344031794 0)
(104.7639042 -0.4019215552 0)
(104.7790509 -0.6728748981 0)
(104.791916 -0.9281859055 0)
(104.7308011 -1.155564653 0)
(104.7104787 -1.4097237 0)
(104.6563171 -1.658204473 0)
(104.5391823 -1.884514698 0)
(104.3401061 -2.096523348 0)
(103.9550617 -2.27459435 0)
(103.3677537 -2.420148423 0)
(101.6645187 -2.479522122 0)
(99.2509633 -2.578321295 0)
(99.56945833 -2.556340572 0)
(98.20327616 -2.48401614 0)
(97.07207611 -2.369767556 0)
(96.19288353 -2.214087233 0)
(95.54756866 -2.019181175 0)
(95.04524047 -1.733877544 0)
(94.80907172 -1.47540938 0)
(94.57127012 -1.073678176 0)
(94.47431541 -0.7840688334 0)
(94.40428183 -0.4692564828 0)
(94.37036918 -0.1577423318 0)
(104.9978297 -0.1251529461 0)
(105.0064919 -0.3734577188 0)
(105.0190171 -0.6247237304 0)
(105.0276516 -0.859363387 0)
(104.9660359 -1.067573945 0)
(104.9371313 -1.29773704 0)
(104.8699418 -1.520581029 0)
(104.7381514 -1.719283971 0)
(104.5097354 -1.902254872 0)
(104.0940811 -2.053147501 0)
(103.4746029 -2.174630148 0)
(101.5717614 -2.211473154 0)
(99.38704379 -2.30100778 2.555185621e-35)
(99.51490346 -2.268839907 0)
(98.11966285 -2.198787692 0)
(96.95284557 -2.096312243 0)
(96.03928032 -1.960356229 0)
(95.36171319 -1.791588622 0)
(94.82997202 -1.543940596 0)
(94.56774207 -1.317594072 0)
(94.31130493 -0.9623861095 0)
(94.2035691 -0.7045255525 0)
(94.12728166 -0.4219619365 0)
(94.09097493 -0.1421163282 0)
(105.2237902 -0.1164021602 0)
(105.2312855 -0.3466547751 0)
(105.2404341 -0.579435552 0)
(105.2436965 -0.7952200292 0)
(105.1802788 -0.9856530604 0)
(105.1413364 -1.194486047 0)
(105.0596565 -1.394552273 0)
(104.9120906 -1.570147802 0)
(104.6552764 -1.729240206 0)
(104.2121198 -1.858710108 0)
(103.5613343 -1.961326669 0)
(101.4784463 -1.981725615 0)
(99.48260599 -2.063001079 0)
(99.4589026 -2.024627354 0)
(98.04228393 -1.956806168 0)
(96.84693912 -1.863768664 0)
(95.90508787 -1.743417886 0)
(95.19991351 -1.595498894 0)
(94.64146462 -1.378727053 0)
(94.35483038 -1.179074436 0)
(94.07997878 -0.8640462956 0)
(93.96130987 -0.6336592406 0)
(93.87859763 -0.37974128 0)
(93.83964232 -0.128118724 0)
(105.4335882 -0.1083008318 0)
(105.4395728 -0.3219477888 0)
(105.4448329 -0.5377212799 0)
(105.441966 -0.7366000933 0)
(105.375757 -0.9108202685 0)
(105.3259104 -1.1008514 0)
(105.2291019 -1.281071854 0)
(105.0651269 -1.437163021 0)
(104.7814206 -1.576706446 0)
(104.3137441 -1.68923137 0)
(103.6322145 -1.776887001 0)
(101.3873056 -1.785154437 0)
(99.54919393 -1.859158622 0)
(99.40231503 -1.817123621 0)
(97.97007976 -1.751439943 0)
(96.75171054 -1.666104546 0)
(95.78640356 -1.558311973 0)
(95.05755939 -1.427235344 0)
(94.47504109 -1.235980517 0)
(94.16586329 -1.058572182 0)
(93.87328696 -0.7781228646 0)
(93.74392989 -0.5713168481 0)
(93.65489805 -0.3425555279 0)
(93.61319558 -0.1157482933 0)
(105.6286376 -0.1009499556 0)
(105.6328602 -0.2996204714 0)
(105.6339046 -0.5000350035 0)
(105.6244422 -0.6840119842 0)
(105.5546977 -0.8436457988 0)
(105.4934831 -1.017284008 0)
(105.3812285 -1.180359759 0)
(105.2008399 -1.320038656 0)
(104.8919932 -1.443612451 0)
(104.4023845 -1.542681376 0)
(103.6905034 -1.618376631 0)
(101.299887 -1.617618224 0)
(99.59509017 -1.685319359 0)
(99.34568034 -1.641197684 0)
(97.90220781 -1.577504827 0)
(96.66515548 -1.498515714 0)
(95.68025447 -1.400937929 0)
(94.93104505 -1.283579585 0)
(94.32688743 -1.113514479 0)
(93.99703712 -0.9546531531 0)
(93.68764757 -0.7038606735 0)
(93.54806713 -0.5171215366 0)
(93.4529754 -0.3102157172 0)
(93.40852451 -0.1049532988 0)
(105.8104702 -0.094413725 0)
(105.8127528 -0.2798446095 0)
(105.8093916 -0.4666432607 0)
(105.7930819 -0.6377342471 0)
(105.7192399 -0.7844103463 0)
(105.6464812 -0.9439283434 0)
(105.5187278 -1.09212849 0)
(105.3221909 -1.218276765 0)
(104.9900771 -1.328842556 0)
(104.4806698 -1.417201858 0)
(103.7387063 -1.48329101 0)
(101.2170758 -1.475764343 0)
(99.6260979 -1.538009744 0)
(99.28934421 -1.492802072 0)
(97.83797884 -1.430922064 0)
(96.5857074 -1.357174177 0)
(95.5843191 -1.267940218 0)
(94.81750166 -1.161787659 0)
(94.19386918 -1.009340714 0)
(93.84511875 -0.8659027478 0)
(93.51988737 -0.6404400235 0)
(93.37064896 -0.4705920456 0)
(93.26982965 -0.2824585022 0)
(93.22268653 -0.0956562784 0)
(105.9807635 -0.08872734495 0)
(105.9809765 -0.2627074356 0)
(105.973111 -0.4376741589 0)
(105.9498569 -0.5978686102 0)
(105.8714223 -0.7331910038 0)
(105.7871313 -0.8806766123 0)
(105.6440669 -1.016110225 0)
(105.4317137 -1.131205283 0)
(105.0781867 -1.231258822 0)
(104.5506837 -1.31110959 0)
(103.7787858 -1.36946978 0)
(101.1393254 -1.356767318 0)
(99.64629306 -1.414405193 0)
(99.23351014 -1.368707279 0)
(97.77679131 -1.308425754 0)
(96.51208035 -1.238983433 0)
(95.49670636 -1.156550739 0)
(94.71455854 -1.059517486 0)
(94.07335449 -0.9216979772 0)
(93.70731275 -0.7910060495 0)
(93.36712429 -0.587039676 0)
(93.20882186 -0.43121195 0)
(93.10262242 -0.2589896233 0)
(93.05286675 -0.08776747067 0)
(106.1409942 -0.08391301418 0)
(106.1390601 -0.2482514469 0)
(106.1266579 -0.4131634319 0)
(106.0964718 -0.5644781065 0)
(106.0131511 -0.6899253148 0)
(105.9174661 -0.8272975126 0)
(105.7594346 -0.9520444737 0)
(105.5315784 -1.058127451 0)
(105.1583876 -1.149772876 0)
(104.6141104 -1.222918029 0)
(103.8122853 -1.275069558 0)
(101.0668163 -1.258346935 0)
(99.65850444 -1.31217116 -3.66877961e-36)
(99.17826576 -1.266316853 0)
(97.71810565 -1.207396204 0)
(96.44319176 -1.141445785 0)
(95.41584315 -1.064516203 0)
(94.62017631 -0.9748625153 0)
(93.96310162 -0.8491097145 0)
(93.58116703 -0.7287747505 0)
(93.22692906 -0.5429473351 0)
(93.06013286 -0.3984787425 0)
(92.94888946 -0.2395266193 0)
(92.89662163 -0.08120178959 0)
(106.2935121 -0.07996330608 0)
(106.2893219 -0.2364590459 0)
(106.2723366 -0.3930810824 0)
(106.2352451 -0.5373560959 0)
(106.1462772 -0.65449696 0)
(106.0393404 -0.7834921882 0)
(105.8670222 -0.9001059941 0)
(105.6236668 -0.9982328282 0)
(105.2324096 -1.083385443 0)
(104.6723363 -1.151344915 0)
(103.8404379 -1.198543843 0)
(100.9995353 -1.178649628 0)
(99.66472806 -1.229345429 0)
(99.12363802 -1.183542572 0)
(97.66143509 -1.125739041 0)
(96.37811282 -1.062553673 0)
(95.34042452 -0.9900100664 0)
(94.53280259 -0.9065083692 0)
(93.8610123 -0.7904827004 0)
(93.46450327 -0.6782352254 0)
(93.09652731 -0.507379415 0)
(92.92175247 -0.3719325059 0)
(92.80572795 -0.2237862749 0)
(92.75099279 -0.07586504268 0)
(106.4374185 -0.07692772883 0)
(106.4310446 -0.2274087625 0)
(106.4095455 -0.3774347234 0)
(106.3657162 -0.5169602683 0)
(106.2725094 -0.6266553075 0)
(106.1544581 -0.7490542504 0)
(105.9680137 -0.8599440893 0)
(105.7098641 -0.9509946053 0)
(105.3017483 -1.031236936 0)
(104.7265372 -1.095298849 0)
(103.8642541 -1.138598902 0)
(100.9372553 -1.116178937 0)
(99.66643279 -1.164368805 0)
(99.06960305 -1.118735008 0)
(97.6063167 -1.061787341 0)
(96.31600096 -1.00068827 0)
(95.26928833 -0.9314913416 0)
(94.4511295 -0.8526769502 0)
(93.76525936 -0.7445658623 0)
(93.35524708 -0.6382736671 0)
(92.97558738 -0.4802437854 0)
(92.79334906 -0.3511929265 0)
(92.67283848 -0.2116169735 0)
(92.61581989 -0.07173085848 0)
(106.5839178 -0.07465280729 0)
(106.5748895 -0.2208451225 0)
(106.5485751 -0.3660620578 0)
(106.4970057 -0.5008257926 0)
(106.39418 -0.6064432205 0)
(106.2643584 -0.7240657637 0)
(106.0639387 -0.8307249258 0)
(105.7915607 -0.9159550862 0)
(105.3676454 -0.9926189248 0)
(104.7777162 -1.053885718 0)
(103.8845948 -1.094224599 0)
(100.879725 -1.069749847 0)
(99.66472606 -1.116073959 0)
(99.01608662 -1.07064789 0)
(97.55230206 -1.014262514 0)
(96.25607292 -0.9545976865 0)
(95.20131528 -0.8877764711 0)
(94.37338461 -0.8121036237 0)
(93.67457052 -0.7102139019 0)
(93.25176161 -0.6089565514 0)
(92.85592034 -0.4590023781 0)
(92.66574524 -0.3358282185 0)
(92.5406544 -0.2026034361 0)
(92.48099412 -0.06859679121 0)
(106.697743 -0.07362822461 0)
(106.6871294 -0.2175358447 0)
(106.6571579 -0.3598778888 0)
(106.6012916 -0.4950677177 0)
(106.5100455 -0.5931772389 0)
(106.3702208 -0.7078994604 0)
(106.1560944 -0.8121065937 0)
(105.8700327 -0.8926501623 0)
(105.4311687 -0.9669126283 0)
(104.8267749 -1.026345775 0)
(103.9022794 -1.064627631 0)
(100.8268621 -1.038620215 0)
(99.66044293 -1.083588581 0)
(98.96295028 -1.038339102 0)
(97.49893472 -0.9821953884 0)
(96.19758825 -0.9233382614 0)
(95.1355106 -0.8580145659 0)
(94.29845015 -0.784380126 0)
(93.58762072 -0.6869350772 0)
(93.15283484 -0.5892674413 0)
(92.76088193 -0.4488441738 0)
(92.56577476 -0.3265853936 0)
(92.43724168 -0.1974613978 0)
(92.37604547 -0.06692840391 0)
(106.9189866 -0.07249478598 0)
(106.9046581 -0.2151896355 0)
(106.8673252 -0.3557578227 0)
(106.7970808 -0.4858911399 0)
(106.6190135 -0.5880158725 0)
(106.4682244 -0.7008995078 0)
(106.2418799 -0.8041950787 0)
(105.9463563 -0.8808019375 0)
(105.4931529 -0.9535944857 0)
(104.8744774 -1.011948515 0)
(103.9181986 -1.049149725 0)
(100.7788426 -1.02237326 0)
(99.65413546 -1.066387007 0)
(98.91010008 -1.021101925 0)
(97.44582375 -0.9648817484 0)