/*--------------------------------*- C++ -*----------------------------------*\
| =========                 |                                                 |
| \\      /  F ield         | OpenFOAM: The Open Source CFD Toolbox           |
|  \\    /   O peration     | Version:  v1912                                 |
|   \\  /    A nd           | Website:  www.openfoam.com                      |
|    \\/     M anipulation  |                                                 |
\*---------------------------------------------------------------------------*/
FoamFile
{
    version     2.0;
    format      ascii;
    class       volScalarField;
    location    "1.1";
    object      p;
}
// * * * * * * * * * * * * * * * * * * * * * * * * * * * * * * * * * * * * * //

dimensions      [0 2 -2 0 0 0 0];


internalField   nonuniform List<scalar> 
12556
(
956.7406883
955.8171294
953.4413292
948.3538275
940.6606163
924.1335147
896.6209885
852.2013043
785.0938897
688.2005023
556.1803466
388.6386153
193.3370104
-12.87596905
-211.2235615
-385.0109313
-526.5981476
-635.4427682
-715.1745298
-770.7244319
-816.9968394
-837.7265664
-849.6886558
-855.2091554
957.3269056
956.8074611
955.2318166
951.6568618
943.9893451
930.1067749
905.9060212
869.955931
809.810122
720.1556717
593.6249589
426.3761464
226.1789697
11.49850374
-197.8291424
-381.692034
-528.5830218
-639.7321866
-728.1742126
-780.1161262
-825.3810037
-843.420229
-853.9281664
-858.7340181
958.6622277
959.0407265
959.354043
958.8155281
954.0946056
945.8839099
929.6631035
899.1335769
849.316256
768.8344708
640.7045621
454.9867826
228.4681195
-13.188478
-236.6887199
-427.2630427
-575.2048082
-679.5511667
-763.9299795
-806.5913134
-844.6413881
-857.0151633
-864.23196
-867.3936042
960.0341158
961.6819793
964.7525905
968.5352003
968.3769356
968.6129189
964.5570195
946.1029266
914.8041273
845.9925448
714.1513773
503.1367181
211.2192792
-92.3536087
-344.7240656
-528.6577787
-661.895609
-752.4121949
-819.5870926
-846.7146207
-872.1267007
-876.8990216
-879.1603346
-879.9371114
960.1585814
963.2568596
969.4708328
978.5401295
983.5478521
995.0408748
1006.448292
1007.34608
1001.330068
959.8081172
845.0298746
596.8515865
190.7301647
-247.2673577
-550.4132167
-718.0663327
-805.4055909
-855.5358041
-892.27311
-897.6567386
-904.1179149
-899.464196
-895.6933106
-893.6328656
957.5969894
962.1389035
971.4117115
985.7724613
997.6666357
1020.689867
1049.782646
1073.349822
1106.449719
1126.33461
1088.237587
857.1976317
196.5265521
-559.6861798
-912.7121725
-1004.726832
-1004.468142
-987.6340312
-976.8117114
-953.3867923
-936.3880394
-921.167068
-910.7383571
-905.6627388
950.9782109
956.7702738
968.6690548
987.6401579
1006.479761
1040.183354
1085.758432
1133.873587
1213.447119
1323.171381
1469.710214
1551.580607
374.6688895
-1369.132543
-1500.671061
-1375.483492
-1239.507078
-1133.223328
-1062.348573
-1006.08328
-964.3700135
-937.9442317
-921.1891137
-913.2985848
939.1225015
945.8022648
959.5567662
981.7279803
1006.785952
1048.250501
1105.612268
1174.805774
1292.356993
1477.423677
1796.826063
2419.97794
-3343.741955
-2274.473442
-1760.234286
-1457.927181
-1263.993654
-1131.19796
-1046.563887
-980.6955723
-945.5459104
-923.9953466
-913.8049285
921.1491858
928.2302762
942.8045282
966.3706461
995.9272991
1041.10426
1103.909441
1184.961421
1318.590166
1516.431482
1807.06275
2178.081387
-4698.117096
-2767.561176
-2001.093192
-1593.277557
-1343.456131
-1167.103546
-1064.274469
-980.8758351
-940.701078
-916.4773754
-904.9480492
896.6010142
903.5495946
917.8084225
940.7843984
972.8225876
1017.281332
1078.48682
1160.790613
1286.296931
1456.78772
1659.00357
1845.184301
-4176.677799
-2682.026625
-1986.909954
-1589.082239
-1346.493435
-1159.481032
-1053.641098
-962.1963933
-921.6219738
-897.1604856
-885.4617486
865.5109267
871.8353181
884.7340275
905.1844757
937.8888847
977.6245347
1031.604584
1107.261594
1213.86166
1346.336343
1484.787993
1604.707151
-3060.212063
-2218.290378
-1763.426252
-1476.001609
-1278.1563
-1108.470858
-1014.206088
-924.8493135
-888.2848711
-865.966262
-855.2148085
828.3641474
833.6587599
844.452475
860.6852532
892.8470743
924.5714706
967.3766682
1031.28835
1113.992215
1209.68026
1304.373353
1408.309425
-1957.843488
-1632.615256
-1434.049952
-1280.668411
-1154.195476
-1023.132428
-950.5627788
-871.5961063
-842.5006898
-824.1212947
-815.1843372
786.0522836
790.0504199
798.3399343
810.0794641
838.1486048
861.2458073
890.49864
940.5509763
997.4344532
1056.728462
1106.556436
1184.362013
-710.7474413
-988.1832452
-1087.897786
-1093.452461
-1059.360863
-1003.680169
-917.9722757
-870.4111561
-807.5888898
-787.3854588
-773.8288161
-767.2144008
739.6615674
742.2706178
747.8646434
755.3980881
778.2186215
792.4382454
808.079056
842.6336591
874.0938469
897.0489029
895.512076
891.6666295
289.3316449
-396.5621023
-676.4696155
-804.400311
-852.3566406
-848.8104569
-806.9136229
-782.2578671
-738.3740128
-726.3728819
-717.7654864
-713.6273237
690.4244445
691.5786414
694.1575288
697.2642018
715.1354451
719.920192
722.8794291
739.5706377
746.6711691
738.90302
693.9597301
566.1036664
269.5188544
-146.5207746
-424.828416
-590.6606472
-677.7485725
-707.8359121
-698.720969
-694.0734102
-667.1272145
-662.5041903
-658.621273
-656.8158651
639.5734088
639.3925714
639.1126964
638.1006221
651.2671569
648.0041176
640.6220302
640.5208061
626.9973653
596.7275901
530.9532033
410.2025523
205.5007384
-64.72934218
-288.4525716
-446.0156608
-540.7438184
-587.4287063
-600.5407716
-610.3323014
-597.1356728
-598.5824911
-598.7799918
-598.9526268
588.3031755
587.0117206
584.3493348
579.9225177
588.6606787
578.9812056
563.6597659
551.3173072
520.3440557
474.809371
403.0679535
298.7967732
140.9477522
-45.80879654
-216.580915
-348.0698968
-435.0894084
-488.5716927
-514.4527169
-533.5041963
-530.7658697
-536.8120524
-540.1859512
-541.8407644
537.6758946
535.5125735
530.9823838
523.9273858
528.8868004
514.5175032
493.6737992
474.6287992
432.8685279
378.0439657
306.3689514
216.1251108
92.19307802
-45.38738217
-173.569315
-276.5737697
-352.43783
-407.2033913
-439.9803739
-464.4936005
-469.3033518
-478.5224838
-484.1922373
-486.881828
488.5300695
485.7228467
479.813454
470.8818409
472.9111804
455.4810183
431.4285516
408.8058552
365.2665107
308.6638942
239.2540414
163.0218368
61.71884148
-42.91914371
-139.4917319
-222.4997384
-289.7627188
-341.8734496
-376.8513039
-403.7596962
-413.3434243
-424.488361
-431.6213983
-435.0265984
441.4887454
438.2556909
431.4321487
421.3072797
421.2154415
402.1023474
376.4269123
352.6769905
310.0983441
257.511135
195.1858367
129.351012
48.15204779
-34.90053899
-113.1366015
-182.6546334
-241.3636138
-289.0794022
-323.6994824
-350.8010487
-363.0449063
-375.1107272
-383.0173388
-386.7920773
396.9829336
393.5190788
386.1996656
375.4602943
373.9617681
354.2280418
328.2811942
304.7908144
264.5868887
216.8854161
162.2830272
105.5591812
38.83296577
-29.14830621
-93.74800679
-152.301715
-203.1803778
-245.889377
-278.7680345
-304.7703497
-318.192967
-330.4213478
-338.5658528
-342.4619502
355.2746303
351.738856
344.2701016
333.3974977
330.9981531
311.4686674
286.228519
263.7877519
226.6881552
184.0184606
136.2299568
87.68745743
31.62763489
-24.89349353
-78.87305155
-128.4676918
-172.4375776
-210.2443347
-240.5092828
-264.7731089
-278.3522429
-290.2225531
-298.2289517
-302.0661028
316.4766054
312.9903347
305.6349019
294.9961256
292.1110429
273.3469916
249.5335355
228.4913654
194.8008682
156.9460673
115.2044315
73.51477677
25.98821363
-21.53947247
-67.05192745
-109.2559094
-147.2162581
-180.4379362
-207.7645526
-229.9463564
-243.0159011
-254.1995328
-261.8208953
-265.4780532
280.5819026
277.2345873
270.1810793
260.0360313
256.9817762
239.3510447
217.3236734
197.9533792
167.7030717
134.3040131
97.93072351
62.00161668
21.50290499
-18.76577534
-57.38079557
-93.41804969
-126.1696896
-155.2099241
-179.5542307
-199.5266463
-211.6782779
-221.9846651
-229.0675209
-232.4686242
247.4978381
244.3529367
237.7319538
228.2545308
225.2687079
208.995872
188.9143715
171.3666566
144.4538155
115.1202789
83.51322892
52.48322317
17.88162785
-16.39215546
-49.28137915
-80.11224073
-108.343027
-133.6181498
-155.0788833
-172.8507188
-183.8563107
-193.1909469
-199.6493281
-202.7513173
217.0733432
214.1731251
208.0703735
199.3692779
196.6216742
181.8236836
163.7458332
148.0636612
124.3151004
98.67713912
71.29774025
44.49665654
14.91874844
-14.3102558
-42.36769913
-68.75180645
-93.04249972
-114.9469738
-133.6929551
-149.3495322
-159.1004994
-167.4337761
-173.2300943
-176.0137103
189.1151166
186.4851296
180.9518037
173.0874914
170.7015366
157.4220656
141.3354989
127.4983109
106.709546
84.43107728
60.8121401
37.71041425
12.46541745
-12.45167006
-36.37342212
-58.91784699
-79.75535458
-98.64695429
-114.8749494
-128.5406087
-136.9996354
-144.3432539
-149.4723711
-151.9344442
163.4015074
161.0548985
156.1167156
149.1154985
147.1789712
135.414749
121.265427
109.2156497
91.17669738
71.959144
51.70346843
31.87717763
10.41036072
-10.7707806
-31.10658539
-50.29985672
-68.09014528
-84.28452842
-98.19353417
-110.007585
-117.1815091
-123.5712978
-128.0481412
-130.1954717
139.695903
137.6373538
133.3024597
127.1673242
125.7451429
115.4644182
103.1812202
92.8322427
77.3459914
60.92792468
43.70262754
26.80711642
8.668295868
-9.236014349
-26.42478333
-42.66216804
-57.74233066
-71.51307893
-83.29164904
-93.39361127
-99.31166833
-104.7960823
-108.6467694
-110.4917033
117.7558537
115.9843806
112.2493895
106.9685483
106.1086489
97.2632079
86.80924397
78.02215641
64.91299279
51.06798011
36.59584312
22.34905406
7.171539161
-7.824194157
-22.21778988
-35.81909694
-48.46634655
-60.0430866
-69.86951586
-78.3883921
-83.08957989
-87.72149237
-90.97740174
-92.53500743
97.33104729
95.84340103
92.69893593
88.24885594
88.00476723
80.52845036
71.83497435
64.52681623
53.62738613
42.15898772
30.20379481
18.37916674
5.864966043
-6.517640034
-18.39779062
-29.62134515
-40.06263892
-49.62272272
-57.66903309
-64.71974744
-68.23909167
-72.0726138
-74.76599278
-76.05132661
78.20039602
76.98966907
74.42361983
70.78023221
71.16765932
65.00462257
57.93156851
52.12718312
43.27372655
34.0110147
24.39160399
14.79348941
4.70207818
-5.302302828
-14.89251228
-23.94590957
-32.3706627
-40.08858922
-46.43758439
-52.14183753
-54.52771986
-57.6106412
-59.77257051
-60.80157657
60.03840116
59.1079111
57.11676805
54.24395299
55.41708874
50.45964031
44.87163956
40.58650536
33.65389394
26.45720877
19.02610748
11.49978072
3.641590828
-4.16624674
-11.63901086
-18.68468923
-25.24556394
-31.28505513
-35.97996766
-40.43383967
-41.66971204
-44.05932119
-45.71284411
-46.49228608
42.93009809
42.25246576
40.82146113
38.76740816
40.2529682
36.67557553
32.54111641
29.70530115
24.59400039
19.35051185
13.9853472
8.411864077
2.6451838
-3.098821197
-8.580643091
-13.73969522
-18.54921498
-22.99456823
-26.14994826
-29.37376541
-29.70294692
-31.38769434
-32.55762951
-33.11535697
25.49822696
25.16503645
24.31523675
23.0779725
25.80047225
23.47043428
20.73016502
19.31713202
15.94237429
12.55208512
9.145814349
5.445043807
1.676203728
-2.088891893
-5.663784861
-9.020492016
-12.15783282
-15.0833816
-16.76120015
-18.86709645
-17.71069272
-18.71868412
-19.40611841
-19.67781835
12.51069551
12.20991521
11.77409175
11.11250371
11.70405625
10.5093475
9.190912348
9.279434701
7.567730804
5.914121503
4.367771852
2.523144862
0.701016181
-1.120987831
-2.834393353
-4.442697074
-5.957027985
-7.396865219
-7.575502011
-8.534022261
-8.447929101
-8.918291608
-9.237576417
-9.46974651
2230.840876
-5068.996879
-3576.132674
1880.011364
-4561.045376
-5093.242601
1631.06001
-3331.833167
-4425.308191
1433.25743
-2132.833573
-3173.953688
1201.814203
-758.199689
-805.5496689
-1098.984929
-1993.103599
919.7678154
373.339314
-710.0538025
235.9554518
-403.5812022
-985.2682218
2357.173355
646.0410193
-3185.776699
-1165.848808
-7047.572373
-4852.183293
-4662.813764
-2991.017404
-2465.914005
1700.722973
1859.479839
2130.182093
-6531.080432
-7086.331517
-4292.550279
-3025.939761
-3070.146892
1528.795497
1619.625253
1826.326781
1747.102895
1783.630834
1911.453723
-4652.908804
-5595.603158
-3204.281491
-2532.630034
-2936.811229
1350.582028
1419.857792
1593.37887
1530.078688
1568.464574
1651.176506
-2995.32775
-3689.989523
1157.621236
1199.131549
1394.771258
1319.896067
1378.72402
1472.440352
-1584.312746
-1577.073824
-2174.156435
948.4011556
927.3114466
1167.453406
1063.654661
1093.659936
1246.713848
637.8776183
387.7117091
388.078879
2806.605983
2355.622725
3206.352954
2889.166838
-7115.98375
-7087.498179
-4742.876074
-6754.946164
-6936.10295
1929.4447
2064.089772
1993.845494
2070.166894
1933.055358
2311.082775
2092.709895
-5654.160802
-6486.624731
-4839.433784
-6350.928044
-5561.579727
-6910.399459
-6394.416694
-4888.491641
1664.211751
1766.70007
1716.492272
1775.555047
1665.622213
1923.552271
1784.876527
-3794.136002
-4588.0795
-3808.94344
-4479.282382
-3722.632495
-5504.167253
-4598.466345
-3967.854658
1478.755572
1563.40319
1506.021
1566.977028
1483.207821
1658.636617
1571.830154
-2262.359363
-2900.458213
1255.332191
1372.063679
1305.183174
-1533.868028
1377.482806
1260.681076
1476.753379
1384.208824
-1575.911894
-987.1254203
-1496.761174
-1532.126295
998.3489537
1081.251145
1044.496416
2.164245329
1086.479682
924.3425633
1252.0806
1098.184346
-69.89683336
1828.567616
2173.926758
2292.020595
2424.259653
2825.405937
3051.105507
-9412.872177
-6394.640779
2035.77394
2087.164999
2306.56195
-3584.421675
-2089.70179
-1860.553534
-2370.837062
-2008.789145
-1973.660273
-2288.194842
-128.0979357
-459.8115211
-842.2061733
2349.235415
2755.557984
2385.492613
2524.441764
4074.164342
3763.276017
-4577.089312
-6639.276257
-4529.632601
-2340.442287
-2681.471292
-2566.667443
-2857.747873
-2238.055414
-3622.453943
-2949.831715
-2715.393848
-1113.500523
-221.2744947
-398.8712874
953.4037223
2142.747737
3132.144782
-4317.083856
-1536.506129
574.8305394
-9478.532594
-6534.140255
-9032.111826
-6046.59476
-8892.40551
-6196.667113
-6785.503113
-6824.592439
-5095.15415
-5159.243725
-3151.452413
-3498.56291
-3285.611895
-3483.7241
-3123.46407
-3944.061178
-3538.778032
-3385.063922
1422.966949
1391.848032
1351.8171
-1593.717867
-1878.450758
-1920.552471
1173.247018
1140.277499
1077.825594
1212.901265
1159.324571
1182.582036
2911.383101
2565.878265
2580.444277
2570.651147
2926.978805
2328.11583
2531.554641
2516.27343
3193.805174
3684.285613
3929.091054
2993.197069
3593.943609
3131.466708
3654.375379
2994.61063
-7214.535454
-7221.098923
2004.368505
2089.101334
1994.627401
2200.821134
2188.669532
2310.242054
2097.235486
2175.161973
2170.327227
-6039.945376
-6093.175022
-5990.130866
-5373.50663
-5585.728203
-5042.012302
-5295.3076
-5938.360465
-6686.191384
-5849.042634
-5929.204425
-5647.836337
-5807.283743
-6649.032726
1720.646389
1712.728296
1858.702479
1848.567642
-4121.741732
-3990.862122
-4178.780186
1528.768404
1522.922915
1614.602617
1608.926007
-3067.509603
-2711.562658
-2621.781965
-2729.221185
-3087.702185
1308.736051
1277.877841
1229.638007
1337.765567
1293.44329
1317.715665
-1164.317557
1321.961364
1312.4893
1432.810846
1427.219056
-1925.744768
-1169.96752
-1224.349461
-1500.387205
1055.37559
987.3718034
906.4732187
930.0756066
498.3019278
226.2677375
1188.463269
-208.4989429
187.7608678
-124.1868031
1179.76684
-310.6831871
-159.8163977
156.3950512
-8300.691944
-2176.500765
-2342.842875
740.8615185
679.696108
892.017405
781.3934135
809.0977258
963.4309866
279.9122513
-87.95779464
-286.4165511
4842.712364
-2374.877079
-2560.568605
-875.8050119
-1134.288177
-1120.492701
-104.9843057
-354.127447
-58.62225767
1421.144746
2778.606107
3982.00999
-5684.334189
-2071.036265
373.1006116
-6650.7203
-7649.979224
-7481.387316
-6981.63648
-4839.165188
-5033.821829
-4819.907129
-5870.727037
-5678.916569
-5413.50968
1606.305979
1584.056868
1548.883384
1633.91912
1596.158363
1612.303829
1442.411909
1404.674104
1428.798839
1129.5001
1116.575724
1081.336995
881.0466194
697.3362137
436.5675724
-7168.063459
-7732.920678
-7715.605429
-7015.2037
-5853.3882
-5618.584818
-5937.877254
-5894.873601
-7004.705291
-5825.114092
-6116.835601
-5937.820892
-6330.452347
1705.093992
1687.969933
1647.020419
1672.708131
1691.098824
1684.828836
-4753.636461
-4546.255723
-4408.076165
-4140.95519
-3890.511888
-4179.253565
-5085.842422
-4669.101722
-4951.708998
-4277.125465
-4571.974265
-5024.550663
1519.20465
1490.777143
1454.729618
1537.361358
1502.583805
1524.990828
1551.871555
1566.03524
1577.682014
1496.284121
1519.47142
1501.615509
1639.626724
1645.540495
1666.119074
1581.201247
1593.800684
1586.864863
-2531.014157
-2663.234346
-2337.35692
-1353.107696
-1372.95665
1356.353549
1276.299342
1456.933337
1465.437875
1490.340721
1422.265569
1403.018091
-1714.155058
745.1268186
964.8939015
923.0694454
1068.612848
1025.797765
1032.241532
195.4293035
413.0041921
187.7846508
1039.484191
443.6979341
724.1957101
536.3578706
539.3386566
1220.823966
1133.585604
-8676.379265
-8023.704754
-8281.440449
-3740.161802
-3810.199621
-1980.726749
-2126.560086
-2126.094334
2432.179011
2403.921283
4110.313312
4653.783619
4627.476497
4509.588785
4052.981647
-2753.81573
-2564.638587
-2531.331974
-2562.488546
-2769.407238
-1111.855707
-932.607317
-958.551964
-933.9579051
-1109.226541
-708.6024012
-884.4418844
-462.3107994
-500.0229209
-660.6772812
-297.4832015
-448.2704419
-362.746975
-9286.155509
-8025.64541
-7596.294786
-8264.15815
-8117.853416
-7412.036596
-6670.342388
-8058.534487
-7185.861557
-7055.401135
-6683.086031
-6943.726287
-7419.240842
-7242.735645
-5316.600466
-5106.340999
-4903.337588
-5166.067375
-5380.554416
-4885.865315
-5101.076295
-5456.584849
-5350.649975
-5619.073527
-5393.503348
-3296.035661
-3366.071823
-3336.167056
-3257.065479
-3407.918046
-3785.416252
-3674.275339
-3836.726107
-3458.311503
-3620.914763
-3726.847845
-1790.713159
-1778.184649
-1927.367624
1158.748006
1128.331374
1137.895278
1207.644722
1196.11599
1168.96077
2743.269492
2694.336869
2700.342533
2704.553474
2581.125733
2902.861608
2750.212164
2750.714158
2406.176826
2418.034348
2342.65224
2544.121057
2446.536367
2435.727778
3229.480604
3136.75892
2961.174424
3350.841768
3250.683753
-7893.223698
-7753.477163
-7181.752053
-7953.143723
-8154.568489
-7897.243073
-8235.531663
-8321.409358
-8235.255326
-8200.778439
-7203.3466
-7945.64631
-7948.543693
2045.190372
2042.983245
2016.777624
2084.490911
2053.124793
2057.196916
1978.093629
1954.934928
2009.41394
1985.698254
2234.631372
2244.066845
2196.034726
2321.034849
2261.85305
2251.104803
2130.912828
2129.975374
2095.159904
2181.551018
2142.368007
2143.744198
-6337.208713
-6174.785044
-5880.304443
-6269.559287
-6581.718133
-6385.230786
1750.172807
1727.876471
1784.128848
1756.960872
1692.660543
1675.327808
1719.694012
1698.304757
1905.599233
1874.038657
1946.40595
1916.144428
1821.938059
1792.540841
1863.574115
1832.438438
-4108.466798
-4295.07492
-3894.45059
-4056.603966
-4142.338535
-4597.159134
-4811.118007
-4350.967055
-4534.080722
1539.251647
1560.216603
1546.386178
1565.862894
1541.904532
1580.84417
1572.183897
1536.431344
1506.645708
1522.154036
1533.35678
1622.525743
1638.841932
1632.792085
1641.845179
1624.909029
1668.62798
1647.906915
1594.962458
1583.541076
1616.696177
1599.61506
1592.151916
1598.644433
1616.053646
-2768.110549
-2886.848746
-2949.163784
-2757.561019
-3003.615006
-2933.934407
-1118.508936
-1325.520719
-1342.069551
-1120.636491
1349.092226
1286.091009
1442.643184
1458.497418
1450.525933
1409.525763
1429.251039
1438.899239
-1805.210411
1010.25404
1010.071648
961.49849
606.0626353
531.3838627
1018.888581
294.2992921
429.2486129
343.718482
1209.850378
-354.2908593
51.19276497
246.3154804
11.35732641
1136.783913
-3022.646041
-2223.558406
-1514.065971
-2322.394599
-2378.584017
-1125.409551
-1216.590824
-1691.255595
-2380.928542
-908.2896064
-884.7892708
-719.6112537
-2152.471854
-1611.763241
-1588.793692
1426.522002
3253.436385
4454.710404
-6926.599907
-2774.070926
190.0806263
-2112.442284
-1822.669257
-4130.771613
-6826.568181
-7737.281401
-7922.183724
1837.50171
1813.077929
1763.174451
1883.484569
1830.342423
1856.026031
-1578.803721
-1727.391971
-1725.698444
-2242.461016
-1959.114516
-1913.154109
1231.696884
1205.81702
1217.681825
-7960.175882
-7960.834959
-7200.410062
1747.312927
1702.266116
1719.671462
1751.311067
1756.183981
1782.415822
1791.114277
1819.609074
1811.107772
1275.175527
1264.020493
1240.517355
-1544.218397
-1496.755161
-1488.365807
1265.494562
1274.415155
1268.317093
-1650.695701
-1658.430955
-1554.155358
-1376.25911
-1378.800645
-1529.306305
1073.045365
1243.367509
1250.094012
1257.541094
1106.841679
-9318.48298
-3622.847288
-1992.577285
-2067.120525
-2069.510131
-2326.660795
-2170.231499
-2143.478642
2487.580987
-5495.230251
-4982.141494
-6040.258462
-2483.765072
-2533.076588
-2371.718018
-701.7471311
-715.4154554
-535.6414927
-542.8439569
-644.7548516
-2838.170473
-2410.763007
-5460.770764
-9210.976606
-8686.993622
-8527.713153
-8920.019674
-8974.574294
-3200.51299
-3234.133389
-3182.448584
-3512.955645
-3516.32885
-3491.518221
-3053.449466
-3203.198678
-3273.956743
-3905.742189
-3848.160478
-3906.052911
-1918.430584
-1898.407188
-1930.491387
2848.235351
2930.915358
2607.376722
2611.712744
2616.357706
2575.857124
2346.587953
2358.519625
2336.237605
2537.710383
2502.474325
2495.941567
3382.709183
3202.410607
3319.659789
3548.272841
3569.289469
3713.116045
2998.099331
3069.630676
3070.828942
2026.488128
2023.697699
2021.756385
2087.299354
2077.341019
2079.540363
1974.721729
1968.650623
2016.480156
2007.906011
2204.543034
2207.136694
2191.975287
2315.265778
2294.703736
2290.643091
2105.871766
2106.594982
2096.680857
2178.106202
2166.036168
2164.798177
1726.169208
1748.678216
1742.788654
1692.092278
1697.282153
1718.471984
1870.264776
1900.874674
1886.513152
1891.819439
1880.763406
1961.50562
1951.086951
1803.478793
1869.822098
1858.989471
1821.053949
1829.692784
1860.067968
-4292.630457
-4368.95064
-3966.071937
-4036.952072
-4058.549435
-4439.340373
-4448.270573
-4347.224448
-4483.986469
-4306.567667
1296.361835
1272.566076
1283.131886
1343.281916
1327.95182
1304.942244
1325.934788
1336.910497
1331.660762
1303.472885
1306.90914
1315.85997
-1928.032768
937.3045255
952.6554147
921.1052411
639.4217195
944.3737709
382.5863432
489.9103814
593.3689743
1194.524069
1199.595485
1195.46897
-271.0684674
-117.2403529
-99.21140841
-114.9584766
1168.868947
1175.59529
1186.629163
-24.02310364
-109.0378291
-247.8196668
-2208.113781
-2256.19214
-2366.22394
-2316.895708
-2297.816827
5014.327284
5040.25062
4987.258909
-2436.610668
-2460.828844
-2370.645507
-2575.910656
-2518.236883
-2510.10855
-3837.286738
-3157.222484
-6554.58545
-6912.286288
-6930.491424
-6819.507331
-6869.203036
-7590.806692
-7403.297618
-7453.477712
-7306.927394
-7355.680897
-7536.543938
-5811.01451
-5723.66543
-5785.923214
-5589.421121
-5659.823455
-5748.60391
-7775.020941
-7557.842173
-7562.326655
-7504.486073
-7543.716215
-7766.608316
-6053.680022
-5965.337407
-6023.994692
-5848.579467
-5907.419532
-5998.233681
-6729.044244
-6774.22021
-6605.848915
-6668.438178
1570.455909
1565.64069
1560.786858
1502.64296
1499.000309
1492.284941
1512.612886
1506.336575
1510.880127
-1492.894362
-1549.126206
-1350.085371
-1436.175429
1372.629381
1368.413148
1385.018025
1377.563503
1279.737558
1272.619974
1278.310362
1274.226356
1473.724837
1470.944738
1463.41785
1485.838519
1478.72724
1482.694736
1399.090617
1394.184854
1414.791057
1397.455814
1405.220596
-1718.237454
-1713.85532
-1707.439141
-1553.623276
944.1103425
961.7276107
1031.179801
1050.937018
1045.706379
1027.874076
1058.066688
396.4756009
387.3860148
1000.258826
893.6728025
693.9615008
1222.376459
1238.213608
1232.982063
1120.052849
-9277.294861
-9555.850958
-9020.158
-8928.813588
-8395.863177
-7461.981147
-9263.00661
-8927.152576
-3673.77651
-3824.423492
-2127.540692
-2119.825957
-2123.099889
2458.406181
2372.636387
4712.103301
4522.321893
4468.472804
4039.449012
3904.940118
4344.77073
4174.379994
4315.588056
-2652.23754
-2573.100995
-2709.977673
-946.7600954
-941.3502671
-929.9404061
-1051.030102
-745.4483892
-719.2023937
-709.1628668
-870.2295751
-808.2425295
-810.4296603
-471.999439
-526.5511874
-519.9254857
-347.2280169
-355.5590644
-400.3277526
-8887.984956
-8805.68709
-9268.507722
-8224.072155
-8604.903476
-8603.810751
-9030.078845
-9013.765449
-7126.514669
-7009.269435
-7053.444797
-6952.133141
-6966.440565
-7071.367993
-7355.487882
-7201.889333
-7255.284239
-7101.52018
-7150.490816
-7298.373472
-5245.948269
-5171.018092
-5240.289896
-5233.302323
-5308.576868
-4927.819032
-4957.65911
-4934.875213
-5037.319059
-5538.079293
-5570.127205
-5523.953238
-5440.783553
-5515.141958
-5312.36456
-5380.451842
-5470.191807
-3335.500622
-3239.154479
-3236.897589
-3253.103792
-3192.776233
-3252.75315
-3440.033734
-3461.830992
-3391.299371
-3743.393838
-3785.918799
-3806.902584
2794.909368
2649.298365
2411.474339
2383.113797
2371.218501
2464.632987
2470.341555
2440.451265
3352.167672
3454.541163
3449.819547
3764.926388
3632.10369
3155.896593
3152.516134
3249.192407
-7836.447753
-7625.24363
-7658.165324
-7572.683503
-7595.510469
-7790.56647
-8016.983381
-8079.167964
-8290.534084
-8638.62158
-8545.810465
-8725.634029
-8728.9904
-8332.271438
-8261.654166
-8484.872038
-8442.060178
-8189.566884
2044.958008
2035.481073
2035.888605
2068.819601
2066.734489
2055.766007
1986.56987
1980.521927
1999.782891
1992.905971
2238.443996
2222.554749
2219.761148
2270.132766
2274.555078
2255.642769
2130.472146
2118.037893
2117.374704
2154.887597
2154.624985
2142.81026
-6287.969261
-6191.701069
-6241.750415
-6080.537513
-6136.663439
-6229.1722
-6528.006777
-6431.64999
-6514.603445
-6292.824078
-6355.814469
-6451.833427
1743.280547
1745.099326
1751.071664
1729.597852
1737.975311
1735.841742
1774.172344
1772.871984
1784.571306
1756.414509
1763.102937
1764.736219
1687.210191
1689.340554
1693.973901
1678.306245
1684.198744
1681.489201
1711.856951
1712.169663
1720.613684
1698.728084
1704.677225
1704.71067
1914.302249
1903.079465
1895.099271
1899.332667
1910.135798
1877.646638
1888.460746
1884.562413
1938.043726
1925.6059
1827.278556
1817.540909
1811.667467
1814.465274
1824.607485
1793.41945
1797.898126
1800.678645
1853.163626
1856.292563
1866.929573
1835.285795
1845.759164
1842.798182
1848.389964
1837.889239
-4199.438574
-4236.111758
-4128.898161
-4097.607181
-4118.431324
-4657.147583
-4687.271741
-4636.571279
-4847.906052
-4755.893358
-4727.110705
-4396.2809
-4427.126784
-4404.103409
-4581.265801
-4526.73508
-4464.447445
1545.661353
1542.219634
1535.888756
1555.182428
1548.823672
1552.995214
1557.000526
1548.508868
1578.388475
1575.680445
1532.438006
1522.516047
1517.119197
1517.431541
1515.462182
1529.731804
1524.177464
1528.828708
1628.592562
1633.359516
1644.820006
1629.458735
1661.596146
1663.854263
1671.329546
1650.495339
1656.941631
1654.730553
1590.578034
1586.734305
1609.595478
1604.3339
-2886.143235
-2871.802085
-2940.488371
-2756.31095
-2809.498729
-2843.875857
-3076.703035
-3124.641457
-2988.535797
-2989.365574
-2999.463477
-1276.943767
-1285.433187
-1339.875663
-1141.315169
-1207.646462
-1212.080486
1342.020458
1329.120088
1363.139385
1354.422233
1290.577545
1298.103209
1294.501096
1300.85704
1293.736973
1318.276146
1309.338373
1447.287508
1445.170167
1440.100232
1456.693216
1450.679015
1452.558454
1433.284016
1426.92141
1421.358482
1435.508181
1431.273751
1436.061271
-1868.536563
1007.336189
984.3358911
985.1071258
572.8553152
578.1834159
622.6266004
531.7457899
535.2814369
524.8193181
996.2322374
382.3814608
338.1190802
277.2797381
1201.860171
1203.540802
1209.830415
-335.1176703
132.1524659
79.857732
232.947428
226.0499651
234.4506744
65.66132571
-59.55225724
-41.10015051
55.81508872
1149.677824
1165.317041
1158.024608
889.9429981
852.733353
828.0378156
836.7940613
777.8360409
746.6003632
753.2533716
663.7015039
629.7276624
626.6972777
497.1239114
472.0737897
447.034262
285.1630227
277.4862335
229.1149833
55.71334865
63.23694547
-2.563850906
-168.9271923
-148.5720144
-222.0727075
-367.7875544
-339.217749
-412.0703718
-526.8843327
-495.039399
-560.0217539
-642.8862087
-614.3626556
932.8612361
907.6877996
864.2967169
896.2290172
846.9620362
792.6807561
824.0303842
731.6938376
678.3021617
692.1114383
546.0547792
506.8838017
487.4800828
287.5518729
287.8792732
216.5070121
2.050261347
46.62126121
-66.65383931
-254.3445659
-183.377912
-309.7783366
-454.2813622
-382.9556384
-495.9316382
-604.5392213
-542.3853057
-635.4662166
-711.3312389
-656.8375981
991.1137434
983.4559356
924.9820972
977.6748652
944.7629612
868.2028934
926.9352072
844.097884
754.2900343
804.171175
636.5065913
563.9401886
562.5537233
296.7341161
287.9849596
195.1012327
-107.1555662
-19.29211598
-199.0683981
-427.8805402
-288.2517268
-487.6989294
-625.2509547
-488.3408998
-660.6981219
-743.2385393
-632.0643928
-764.2182814
-814.0963714
-733.9695702
1056.965009
1074.704283
1005.211502
1079.205789
1083.394868
975.1684787
1079.703664
1040.575416
883.6059928
1013.534703
855.4235125
674.9826094
766.3905467
361.1776139
306.5508853
192.0497207
-317.358523
-146.5529926
-456.2985347
-743.3380227
-489.7968895
-802.9871276
-908.4266134
-684.8069682
-924.7975095
-947.6227251
-788.6046162
-950.1580526
-952.3641081
-845.3438218
1120.009696
1169.401551
1098.670864
1188.031472
1250.906262
1124.042262
1274.250432
1346.179106
1107.757568
1366.569835
1367.084372
947.4227758
1313.798936
581.6678858
400.9969802
360.3319719
-869.8703413
-404.1625632
-1074.269577
-1317.878055
-856.1782831
-1330.921879
-1298.419689
-995.6421805
-1276.528076
-1203.509311
-1007.754343
-1179.718571
-1115.708554
-991.7214291
1167.229223
1245.289769
1191.039928
1277.158227
1397.297442
1292.390368
1448.092929
1650.00426
1430.639956
1740.913846
2239.846116
1560.684416
1890.868014
1903.843692
1344.95796
388.8386119
-1118.381305
-452.5181793
-1870.303064
-1782.230307
-1464.144239
-2082.983583
-1756.153377
-1411.060896
-1670.759013
-1463.996723
-1271.381338
-1408.315183
-1271.73913
-1156.805962
1186.079285
1279.048066
1258.123115
1316.895054
1458.71833
1422.252276
1517.92655