/*--------------------------------*- C++ -*----------------------------------*\
| =========                 |                                                 |
| \\      /  F ield         | OpenFOAM: The Open Source CFD Toolbox           |
|  \\    /   O peration     | Version:  v1912                                 |
|   \\  /    A nd           | Website:  www.openfoam.com                      |
|    \\/     M anipulation  |                                                 |
\*---------------------------------------------------------------------------*/
FoamFile
{
    version     2.0;
    format      ascii;
    class       volScalarField;
    location    "2.76";
    object      omega;
}
// * * * * * * * * * * * * * * * * * * * * * * * * * * * * * * * * * * * * * //

dimensions      [0 0 -1 0 0 0 0];


internalField   nonuniform List<scalar> 
12556
(
31.9312656
31.93219456
31.93313575
31.93394068
31.9667879
31.96768937
31.96868622
31.97068801
31.97445062
31.98027765
31.98773648
31.99434198
31.99638364
31.99427682
31.98783911
31.98066237
31.974976
31.97074916
31.9690505
31.96757484
31.93368548
31.93258335
31.93156479
31.93062607
31.79563193
31.79823361
31.80079674
31.80304165
31.83674423
31.8401106
31.84563787
31.86943898
31.88650479
31.91352876
31.94793029
31.98079475
31.99654297
31.98615721
31.95676007
31.92312911
31.89454642
31.87519818
31.84794496
31.84051576
31.80355119
31.7999237
31.79675271
31.79395374
31.66168454
31.66633124
31.67079469
31.67450767
31.70913933
31.71650077
31.7293528
31.76415485
31.80413909
31.86422823
31.9395975
32.00909058
32.04488661
32.02422117
31.96263586
31.8885899
31.82477762
31.77925029
31.7346612
31.71818975
31.67616343
31.67008502
31.66452898
31.65983053
31.5293805
31.53536018
31.54131234
31.54697374
31.58432573
31.59846475
31.62553932
31.6815927
31.75999672
31.87899349
32.02782206
32.17649249
32.25788004
32.21501604
32.08161459
31.92862945
31.79814143
31.70890829
31.6357531
31.60421163
31.55336966
31.54313918
31.53476581
31.5279844
31.39888455
31.40676812
31.41472178
31.42346131
31.46424652
31.48871126
31.53920786
31.62893141
31.77771315
32.01271553
32.33994555
32.74501709
33.00411118
32.88978949
32.51074268
32.14165581
31.85036537
31.67889132
31.55881021
31.50106661
31.43484852
31.41923092
31.40737695
31.39818227
31.26950045
31.2787754
31.28874374
31.30151251
31.34988939
31.39052035
31.47675072
31.61630065
31.87949175
32.3421802
33.16970391
34.66281687
35.92125673
35.30792563
33.78264618
32.73334786
32.05623779
31.70426029
31.50650292
31.41167334
31.32252609
31.29778629
31.28144548
31.26959735
31.14233785
31.15356672
31.16677599
31.18537747
31.24227289
31.30447799
31.43497371
31.65261243
32.09653391
32.97318898
35.12341394
42.37951571
49.72668106
46.24492865
37.30554258
34.03264266
32.49889975
31.81701625
31.48201228
31.33796027
31.21628521
31.17950086
31.15721836
31.14216743
31.01709063
31.03007053
31.04667305
31.07285625
31.14213911
31.230833
31.41636415
31.73703399
32.41709812
33.90159327
38.43615586
61.97596318
80.53702303
45.37790961
36.38004344
33.23153968
32.02551336
31.48980321
31.27846381
31.11719517
31.06471331
31.03489084
31.01631589
30.89621244
30.91187707
30.93361163
30.96994823
31.04958621
31.1694259
31.41982911
31.85581185
32.78514708
34.84840172
41.29432426
76.64392164
157.6198846
57.0187643
39.58530714
34.21543957
32.31564456
31.52460374
31.23142478
31.02574579
30.95485314
30.91595952
30.89319662
30.77984809
30.79785253
30.82447788
30.87129325
30.96583599
31.11845271
31.43556488
31.98978503
33.13777476
35.60959341
42.94259425
82.78652792
196.9380452
67.019231
42.76577129
35.236378
32.63732296
31.58136303
31.19529697
30.94252205
30.85115137
30.80198323
30.77467173
30.67095073
30.69227553
30.72537692
30.78505754
30.89065465
31.07626131
31.46104633
32.1218704
33.44175015
36.18957885
44.12334172
92.49628
195.9144741
72.60465751
45.02930996
36.07682886
32.93930428
31.64497834
31.16777385
30.86738237
30.75522935
30.69505602
30.66248841
30.56776494
30.59172496
30.63021465
30.70174053
30.82250882
31.04051602
31.48976883
32.24224903
33.70264175
36.66749217
45.27022054
103.9215827
180.3882131
74.23486572
46.17340776
36.63304812
33.18264467
31.70217046
31.14501569
30.80017846
30.66671661
30.59566991
30.55792375
30.47284808
30.50025582
30.5461389
30.63050868
30.75932067
31.00579012
31.51019721
32.34926293
33.91366302
37.07942072
46.66411887
113.292484
847.0290662
154.2737305
73.23496449
46.41087865
36.86059972
33.3410632
31.74275366
31.12253866
30.73741001
30.5859273
30.50358556
30.46038951
30.38197156
30.41230807
30.46456312
30.55912401
30.70698114
30.99120739
31.56289275
32.47339031
34.15075651
37.57905127
48.70534767
158.0671177
523.0930067
143.8172594
71.27561116
45.87666513
36.84974378
33.43088084
31.76310458
31.09576682
30.67571119
30.50953867
30.41717411
30.36895839
30.296632
30.32984273
30.38765694
30.49070666
30.64937991
30.95970524
31.58220037
32.59988341
34.47133005
38.21441577
50.66493604
397.4587689
374.3465264
132.7441054
67.571007
44.93380742
36.67962186
33.46079292
31.75604543
31.06147162
30.61489152
30.43616502
30.33409984
30.2816192
30.211329
30.24714895
30.30980155
30.42097095
30.59047329
30.92207424
31.58435157
32.74993656
34.99153004
39.5018736
56.41206111
721.5548295
309.4324129
117.3043832
62.65391448
43.62164786
36.43071502
33.42602669
31.72478733
31.01712143
30.54954531
30.36096243
30.25174225
30.19537761
30.12836206
30.16676399
30.2332554
30.35024007
30.52795467
30.87602493
31.57167235
32.86064346
35.68523785
42.12838629
77.56455292
982.9099797
223.12715
98.48910371
57.29486952
42.28106258
36.22455213
33.35567495
31.67245835
30.9624626
30.48055398
30.28476822
30.16884417
30.10908631
30.04140762
30.08207562
30.15185649
30.274385
30.4603019
30.82042796
31.54106774
32.88044653
36.25543475
46.4894302
168.9712746
749.133178
167.2783464
83.3065112
53.28356878
41.45442862
36.05276833
33.26019144
31.60100729
30.89404592
30.4027435
30.20164438
30.08182072
30.01935433
29.95496103
29.99781968
30.07020408
30.19596845
30.38668617
30.7552266
31.49472292
32.87188717
36.4232989
50.70730552
285.8761084
483.7134261
139.7880097
75.78524785
51.69075634
41.08974176
35.86816441
33.14623849
31.51578229
30.81486456
30.31882328
30.11459943
29.99188676
29.92780224
29.86196538
29.90653741
29.98130305
30.1107672
30.30708966
30.68121627
31.43479385
32.84292289
36.55448202
53.36828907
294.5544477
399.1247475
132.0957998
74.34248335
51.03520731
40.76113432
35.68302465
33.02186235
31.4203345
30.72620839
30.22653401
30.01992876
29.8953159
29.83028107
29.76976417
29.81579774
29.8923808
30.02338783
30.22168167
30.59951846
31.36367839
32.7981413
36.67978201
56.35357016
291.6479856
353.9351017
127.4872183
73.26358561
50.53882408
40.47200188
35.50415472
32.8925382
31.31740246
30.6295665
30.12938175
29.92210729
29.79650609
29.73099817
29.66967166
29.71655848
29.79480523
29.92851035
30.13100558
30.51128026
31.28351095
32.74133309
36.81497996
59.05801569
283.765946
320.3601081
123.6983688
72.35096023
50.18086237
40.2291098
35.33620852
32.76223196
31.2091592
30.5265294
30.02477962
29.8165963
29.69045093
29.62494911
29.57245714
29.61990113
29.69913451
29.83308458
30.03546815
30.41759839
31.1962849
32.67631218
36.99469216
61.09087218
272.9349096
294.8094021
120.5142513
71.5694592
49.91820282
40.03528087
35.18294152
32.6340356
31.09760997
30.41862414
29.9180182
29.7104076
29.58428398
29.51903438
29.46622885
29.51370917
29.59387597
29.72985578
29.93593664
30.31953291
31.10402496
32.60810561
37.25012968
62.49574942
260.6563884
274.6534961
117.7933519
70.89749928
49.71753723
39.88534394
35.04643774
32.51022542
30.9845351
30.30730086
29.80486489
29.59662624
29.47051352
29.40575523
29.36621998
29.41355909
29.49396052
29.62901431
29.83299556
30.21814744
31.00876867
32.54280976
37.56891975
63.42730626
247.7918476
258.2734294
115.4349189
70.31631345
49.55984185
39.77012655
34.92661309
32.39216087
30.87130709
30.19374309
29.69277615
29.48559026
29.3598941
29.29569596
29.25520223
29.30205212
29.38286314
29.51970268
29.72774693
30.11443868
30.91223145
32.48569975
37.90404127
63.97547943
234.6567798
244.5135125
113.3538508
69.80786242
49.43403322
39.6812412
34.82191858
32.28033075
30.7588587
30.07899194
29.57429339
29.36599165
29.24037071
29.1768072
29.15494628
29.20127115
29.28182988
29.41682724
29.62061011
30.00928271
30.8157357
32.43971532
38.21627214
64.22951114
221.8524863
232.7770295
111.484948
69.3578024
49.33336388
39.6125866
34.73036714
32.17469198
30.64781072
29.96375811
29.46060352
29.25352905
29.12837862
29.06542281
29.03993481
29.08551311
29.16618577
29.30316183
29.51266746
29.90336431
30.72026657
32.4047863
38.48543929
64.24873761
209.6136166
222.6231371
109.7870909
68.95648033
49.25330217
39.55983333
34.65003796
32.07492888
30.53853985
29.84872122
29.33864637
29.1295145
29.00425974
28.94189547
28.94192548
28.98683299
29.06701021
29.2014349
29.40385565
29.79720606
30.62655533
32.37870368
38.70355662
64.07062859
197.9983726
213.76369
108.2341756
68.59591016
49.18974272
39.51961545
34.57924171
31.98064371
30.43128802
29.7341848
29.2265349
29.01877561
28.89388068
28.83203405
28.82277173
28.8668365
28.94694708
29.08375256
29.29529457
29.69120999
30.53509143
32.3582464
38.87020367
63.72728137
187.0239583
205.9522708
106.7984255
68.26616408
49.13801847
39.48899061
34.51648749
31.89141318
30.32620062
29.62065999
29.10135902
28.89036149
28.76510608
28.70371835
28.72962031
28.77300945
28.85256624
28.98634798
29.18636559
29.58570932
30.44616933
32.34050482
38.99026271
63.26349406
176.8637015
198.9569855
105.4470891
67.95571052
49.09330594
39.46538258
34.46047295
31.80682358
30.22337332
29.50815609
28.99415892
28.7846936
28.65958873
28.5985653
28.60508488
28.64760868
28.7269296
28.86331356
29.07854493
29.48102254
30.35994739
32.32336902
39.07138213
62.72675304
167.6733432
192.5689719
104.1487753
67.6544428
49.05165159
39.44672898
34.4100883
31.72646767
30.1228708
29.39722343
28.86409943
28.65028731
28.52458342
28.46385729
28.5199234
28.561844
28.64070356
28.77422408
28.97057236
29.37747413
30.27647368
32.30528632
39.11992978
62.14390169
159.4595359
186.6306946
102.8817426
67.35587565
49.01044716
39.43146466
34.36438069
31.64994945
30.02478778
29.28762502
28.76642276
28.55394322
28.42808797
28.36755788
28.38745777
28.4285082
28.50693764
28.64227728
28.86489121
29.27554759
30.19576699
32.28500128
39.14002947
61.52579898
152.0483065
181.0837424
101.6395589
67.05681725
48.96794099
39.41829812
34.32250689
31.57693015
29.92937161
29.1803761
28.62684263
28.4098595
28.2832332
28.22284258
28.31427381
28.35485778
28.43300033
28.56746683
28.75973137
29.1760444
30.11819248
32.26177946
39.13503956
60.8856419
145.2717628
175.9243942
100.4246226
66.7551721
48.92246373
39.40598789
34.28366217
31.50701428
29.83729604
29.07550654
28.54635691
28.32870098
28.201578
28.14120447
28.1452531
28.18482318
28.26240632
28.39817806
28.66019203
29.0806516
30.04525422
32.2353242
39.10889422
60.23967318
139.0871404
171.1141058
99.23866886
66.4504602
48.87259356
39.39340115
34.24721455
31.43997684
29.75041247
28.97634262
28.367337
28.14424609
28.01574849
27.95530529
75.88229805
187.3355608
91.56695867
81.93117828
238.6123683
194.5631931
91.11747447
233.3649462
240.3529125
102.6097119
209.1274773
230.3140681
112.2376758
1039.558425
884.4290109
187.5034226
205.8001533
138.847837
644.4580707
1017.55682
546.2489842
182.5116633
185.4244221
58.70299032
49.21234936
83.44116148
45.78284095
605.050167
200.4334942
148.8689561
62.93605559
50.19911987
42.61596823
70.02149829
66.06657445
2078.276792
1477.755692
194.7046516
77.80804582
67.14858642
43.88045604
75.75510422
70.59846629
85.82778006
244.5503861
222.0296977
1128.792288
1588.635961
197.3781884
85.87445472
80.49926516
45.05694232
84.26236187
76.69712272
96.60117728
343.5853989
278.2768551
614.5969385
828.5312991
46.40495307
94.89787157
85.30820311
105.7546421
512.5035874
415.0147878
2478.951806
393.9474693
458.6345376
48.4048462
115.1845858
96.46939432
121.3878928
1079.521778
721.8376856
152.9960685
487.5118912
634.8782985
192.2303826
222.9745466
117.4835249
185.9117352
1438.786561
639.5947673
146.3062055
509.1930973
997.3170731
219.2913491
201.0354023
79.39051647
261.8398896
273.5386121
228.7390734
259.0022961
1609.162773
2078.585806
219.4771016
1430.693248
1221.675364
1030.865048
1427.44057
216.6514889
275.1575609
248.2825993
87.03135103
315.5797726
357.5910081
275.5852535
312.3929564
868.3689559
1102.777993
239.1953475
826.132979
642.3196076
1207.28757
858.5652997
240.566523
410.8818937
346.8226641
97.98216686
421.2943326
518.8357805
360.3482285
417.4569437
472.6065839
590.7403857
711.5207413
521.7284113
106.0480198
3453.940587
702.2489197
1051.265915
523.7568438
686.6925553
3868.875378
360.8600843
387.2788078
2183.903776
8580.916404
1087.940281
122.7012212
740.1046616
1685.611369
7766.587085
1059.55596
1659.195415
760.4470592
40.72974124
65.34345945
54.71488863
70.26247085
151.6960408
101.7694606
3766.584273
661.3865394
78.89976094
198.7672029
177.0757324
6286.657028
182.8164638
88.13575735
86.90955556
6103.139756
885.6604062
986.1342129
669.1865261
319.1009888
348.3213692
174.3568801
155.468811
72.09312995
1450.03585
281.9453218
645.1209737
166.3188346
449.4905528
134.8037626
1007.026925
1295.07978
218.0068567
487.3344438
414.4406928
620.1732234
501.0875114
221.4220581
1483.674841
4729.138437
897.5102937
83.17955841
65.92106505
106.4322093
173.9659801
79.0308629
84.89972477
5284.546233
421.4220758
3709.894055
483.7119474
2707.675401
378.7763612
1691.633385
1669.393284
1316.347172
1348.525252
2515.870974
5338.659248
694.8034826
3059.640186
1640.615293
6028.285864
3570.860122
726.1058171
449.9748859
180.3545806
187.828916
743.6120433
844.066462
5535.12762
775.9196525
230.6489847
243.4948678
215.1835859
225.7929281
773.0634499
1317.067774
1451.774631
206.0426005
937.209398
773.8326589
1391.832753
937.2327409
209.886243
152.8099689
475.5483454
226.2530293
689.2234607
508.019522
163.9472447
674.5795616
975.0631605
1008.636616
954.4247847
261.6451399
1502.009198
261.9914485
243.6135301
1461.512814
1410.398668
1497.378866
1467.350386
247.631534
1720.289951
1739.960727
1307.786932
433.0084489
422.6928898
434.2719991
434.6753151
1296.900521
1214.007074
385.5196823
352.9908472
417.2086054
395.097149
1235.581278
334.7977712
337.5210657
291.1123659
293.3720743
925.5556382
6239.475376
943.583856
450.4238352
457.0078748
388.3563114
392.2660917
1547.450597
1122.956365
531.7639057
1374.984523
2325.143422
572.0493924
201.9486632
211.5487925
190.530656
198.9714677
563.6927992
1641.690243
745.6388068
757.7583689
559.326891
563.7696207
6261.77421
1229.522539
635.9083418
713.2122481
249.0077639
259.2343775
1326.743213
2677.905178
2084.901465
3135.445693
1092.889613
6835.403323
3390.749935
5909.615458
1088.96584
852.7741614
4343.9368
2558.472358
4543.71776
2347.878775
3164.44003
49.95663212
118.0078375
117.6640147
170.4451659
4245.664099
7968.222679
391.5056791
167.2239937
178.7563283
1323.247227
3586.052128
4815.484282
553.6245705
611.184906
1152.395625
292.1057853
309.600242
650.9982415
167.8397301
123.6488632
257.9857314
517.3334897
153.9545287
181.9752208
1958.653556
4942.09175
5089.927793
1574.875197
1211.11097
3460.989349
2491.845957
5865.25086
5736.764431
1511.126279
317.7358676
150.640638
155.3179218
144.9029311
149.1558164
312.0203119
171.6393745
178.1514414
445.5045858
998.1408858
410.1348297
428.0525864
6599.635467
3492.322277
589.9112023
1249.000907
4533.28671
4940.119472
686.8432224
282.6825212
236.2995727
339.7061965
298.4606649
719.6883992
1659.936935
5809.778606
5877.178356
1969.806111
262.9081972
139.6550444
143.5648465
709.8974475
697.3810097
348.6800532
2348.64481
2146.046278
1034.083387
741.3459195
384.4204009
400.6154844
1067.975896
424.1707151
432.6152806
406.301105
419.9053763
1046.199604
374.8187704
163.8870519
169.6417055
156.9453358
162.0730824
370.5598598
432.8453875
1008.988519
999.9467617
1577.43351
1532.699606
498.5657485
371.1046895
745.5328889
711.9778882
996.0463443
989.8797295
406.5000324
514.1207932
1080.406672
873.3632541
6310.812861
2503.314377
724.5741479
892.2981673
538.4963803
1608.946311
1584.515407
1613.578556
605.6163577
5376.213775
8676.665933
324.5066152
364.9295073
434.6812211
450.5788374
1094.214593
2350.855185
1434.970083
684.3186573
1700.737828
8412.838276
2148.581978
1962.157642
15903.80661
1068.980648
1580.864682
2288.363451
2770.382587
2073.834533
6250.044026
6343.221132
1568.299542
2075.658937
6303.136397
1495.135072
1431.763666
438.8979164
1653.373948
672.2587786
1629.728246
479.8306019
4809.998038
3466.202139
1139.853152
5507.435011
6332.317435
4947.493009
3681.725079
1240.63298
5086.723968
6184.383544
3639.589035
4856.036694
6560.214642
2467.894374
3295.897978
1738.495769
2222.434146
5896.789376
5447.63051
1522.154187
922.6506235
2506.919157
1679.831764
828.0756963
513.8858419
1528.28319
5250.278798
6695.229106
1862.338885
1597.192786
5143.178144
5259.8732
3822.993595
3578.772447
1241.796788
6019.736886
5919.847406
4432.338302
5849.858527
5880.408855
1468.597837
5861.344592
3930.816692
3674.624268
4123.332793
2270.344758
1050.959314
1138.210436
4665.060676
1335.939378
1517.660508
1173.624037
1281.862897
4391.228772
4187.934967
1208.13172
1437.764866
384.1498918
403.9886739
910.317357
746.8781903
365.0950057
379.2225877
1418.734008
1429.196061
929.9448833
350.3230409
370.9246049
324.7979083
344.2562111
923.5570417
981.7118194
414.7184503
449.0811435
378.1571324
404.6789348
989.0026862
625.6328809
298.2422394
318.96794
896.2550234
927.8505067
3245.207299
3371.70806
1183.694564
4798.160452
4900.657106
6167.702831
3351.579132
2789.933357
4768.60593
3307.59474
798.315251
2318.768742
3104.091805
1536.912435
548.4609158
611.9248331
524.7061334
537.8978942
1503.883625
659.475492
669.0842587
632.5832532
655.9969044
1445.233741
477.5287383
489.7392704
457.3102283
473.2191053
1437.819377
1484.507678
509.1847341
520.3845982
493.7158378
505.3653979
1482.684218
5665.881795
5756.28197
1676.136719
1888.053186
5948.055617
5637.823371
965.4656709
969.3725455
941.4563242
964.2454796
980.4204254
991.9815194
970.8963954
978.0622638
684.2712484
693.7814141
672.0852153
681.0529017
732.5573838
899.7950279
698.4618417
710.3614067
2000.637692
2357.098616
1583.662604
1857.560894
6491.739238
3772.336299
4163.489638
2527.028771
3646.418728
1021.506665
1014.510683
437.0282411
1608.096211
1612.419695
1577.391519
1599.190087
1656.079671
487.8764949
1497.686197
1073.299812
961.6384394
765.7173825
375.1069206
1038.531187
1486.260755
992.5822669
1048.301034
1543.815281
1566.176914
1505.316594
1534.447342
402.9418011
988.0434226
979.2348499
6401.282598
1643.003535
6329.67779
5486.666268
6308.188151
1765.058029
6521.66143
2223.037055
6252.803003
5467.629777
731.0401812
809.5313186
1641.094683
1614.002086
543.1187583
590.0730627
1703.269028
1643.592648
6201.618436
1132.955305
461.8958294
502.7906231
6333.934403
7156.934022
1771.024617
7757.38457
5721.542576
2630.988915
1070.441261
6825.169353
4156.485049
7545.350553
4574.00703
1525.027077
74.22951338
46.51169621
38.64289389
6284.723189
6259.208086
169.8851399
87.00695592
88.08624914
6517.657761
1177.53928
3366.32044
2511.032546
403.9470536
336.0018491
197.6751719
424.9077521
280.7137676
675.7308389
2489.049559
406.1672272
461.6594737
60.10914623
72.11545788
150.2121208
526.92691
1074.612959
1598.453419
234.0961131
129.9381262
133.6374363
124.8440023
128.698028
230.9290477
1030.562278
1151.555681
3717.710906
833.4279003
731.7437045
428.8105633
348.0871806
360.8701987
742.0231705
1740.897828
2229.964722
749.81017
134.8135224
138.4081777
259.2677852
323.9935768
666.3237012
641.8795942
620.7507684
556.7665083
303.2985797
635.5183796
330.5915633
343.8416578
5001.441485
4719.470178
3130.876178
1619.49743
1598.461541
1029.672763
4355.782708
6151.32918
5580.692913
1605.028837
907.8257764
1004.805421
1688.567399
1064.275211
1651.715139
1639.2507
1658.410048
4049.052539
6091.651129
4186.969595
4581.921589
6042.680973
1898.512342
1516.049454
898.2112505
1466.459189
220.0421709
172.7049804
319.546599
1100.700961
3004.329385
2108.590771
6334.329702
6668.530468
6807.898223
5679.931113
6500.656732
111.5559176
145.6397887
399.8180116
4284.131405
2787.039331
2141.223456
5716.171004
4374.520047
2771.177205
4790.809244
4397.899007
6604.866171
6271.371178
4732.959799
952.2220535
1026.96272
2080.123757
6182.696287
3532.880225
3905.626105
4900.981903
3209.527217
3659.429793
1364.623596
1784.04809
1445.664978
934.3860887
649.4452031
656.8495889
1357.480674
863.8915806
904.7469675
662.1333197
671.2366902
947.6147931
265.1113801
291.9720546
599.3981013
754.9418555
1321.037331
979.3938747
1453.888988
1505.067364
982.0681047
1823.527714
1348.766722
1397.468032
963.8103496
965.1058421
1505.067941
1486.427344
1497.481902
1427.020955
1445.841453
1454.607481
932.7384364
935.2725234
920.59859
924.7532049
1421.331483
1493.334149
956.1588257
958.8545026
938.1272559
941.0891121
1472.640595
680.2065889
670.09886
326.73451
345.9445346
693.9665268
683.4684451
528.1939612
517.401935
284.2557464
1524.317417
1525.930364
1501.12498
1504.624626
1857.313161
1531.639692
1532.276529
300.6884914
546.0441885
532.5905388
6208.845592
6145.462264
4091.224898
4319.681947
6197.60359
6203.304734
6416.35274
1012.719011
2064.116758
1715.819134
315.1431913
326.4105528
608.7081528
547.0468758
302.961244
311.9821141
1058.153214
1058.219024
742.6811454
760.0168405
1065.146409
1069.375691
6219.925666
1402.09878
925.565269
913.4243448
11939.25443
2190.262263
2453.483732
5194.748335
4403.423697
1715.130849
1695.326164
1079.551028
6611.185129
7183.832081
6875.012277
5470.176202
1143.996924
1757.69105
1704.910791
3408.346065
1309.53298
1576.933075
6166.820419
6087.034621
4896.413389
4585.944318
2862.520532
1505.987938
2195.688227
1855.588871
4072.180109
6239.302791
5429.927564
6320.345052
6068.838085
4522.406226
255.2635321
369.2092475
1317.376805
5050.242569
4953.282226
5155.46808
5137.149595
5023.740733
3263.708605
3245.587372
3276.094746
3265.543015
5017.379238
5897.130969
3289.145684
3317.139577
3147.818708
3244.003826
5991.99802
4714.045936
2979.041827
2685.345747
3224.57136
3145.646181
4823.497507
5789.509394
3387.581745
3413.952929
3348.674693
3364.339338
5836.01712
5275.16877
5181.908318
5379.155228
5140.459805
1007.477446
713.0263237
716.2985081
1564.343642
1011.762481
1015.157069
986.94157
1006.004782
1553.54183
6043.383463
6243.307941
5553.8784
6116.436208
1621.023349
1633.705849
1594.420257
1608.239446
2046.964288
978.5335268
1556.117041
1497.261924
1599.719474
1019.875968
1022.912747
1016.512205
1018.561036
1593.490153
1534.978378
1574.207368
1090.431066
1477.37906
2023.838732
6468.866393
6101.657709
4842.716975
6282.121096
827.8617447
1147.991772
13049.23911
1096.463082
763.2732226
765.9295059
1705.358688
8086.139636
8378.424238
9693.381964
6248.006608
5975.631789
1666.374873
1655.505655
1064.835876
1625.680576
3333.922753
4925.940499
3423.088987
4427.960796
3373.974698
1394.495214
4569.716725
3404.589026
6308.502701
6544.898424
6259.862232
4920.248351
5531.890094
1463.877052
1773.745524
1536.472494
762.6193644
975.4722284
1443.620768
1526.616505
1001.056197
1417.992698
1854.989596
6157.856541
6396.475877
6072.05196
5670.003189
6439.944607
6388.155747
6252.855967
4047.440058
5555.992065
5109.181797
6202.18099
6407.651277
4447.399095
4730.45627
5159.746865
6461.058417
5337.335561
3986.69843
4291.01554
4054.997204
2882.03067
4039.542484
2119.911236
3111.784627
4226.729621
4641.990243
4250.022279
5423.526281
3449.077843
3282.393298
4690.546079
3400.011843
5016.044765
5170.259932
3287.173129
3279.740093
3306.192408
3282.474219
5199.059957
3732.314823
2185.081522
2225.880112
5954.907588
5947.17083
5152.940474
6286.871924
6084.481396
5981.080609
5963.787779
6202.319159
4939.041111
2624.441001
2932.55249
2287.061669
2404.404542
4237.346749
6293.115342
5349.334798
3187.117882
6605.993206
6325.793789
6306.507984
4321.958812
6292.840834
6086.090324
2675.977327
3033.881702
5369.890212
1400.148758
1442.150638
717.434379
792.0536009
1313.128549
945.1372053
674.8010946
697.6857583
1426.376619
1396.680934
850.030239
1477.028692
1813.57397
928.9493288
1462.117258
1454.020334
3241.902864
2191.767579
2159.066142
2409.081317
2330.716951
3419.722704
5116.166003
4799.420038
3135.584386
4711.518106
4931.321586
4421.51185
4653.92277
3083.353388
4660.285498
4588.437352
5962.630724
4379.557444
1016.606916
1008.643196
1465.775559
1510.898065
974.1862847
970.4166495
1472.014436
1481.041426
1455.969724
1465.238576
929.5415536
931.4205317
1452.607943
1429.915752
926.4421234
927.8744339
949.5260033
952.2382087
1487.968789
1478.661378
944.3028926
947.0069422
5723.190122
3483.044577
3506.203365
3431.758207
3453.632359
5709.176958
5666.62684
3867.240377
4479.923171
3553.212041
3643.802254
5658.413767
966.8714776
1503.231212
1494.733839
1515.383741
1509.688801
968.0035367
957.5341844
1465.103246
1448.998331
1486.563723
1476.90722
962.2453678
984.6107346
1552.322003
1544.080555
1564.292321
1556.27921
986.606009
972.7981031
1526.34952
1521.411657
1539.276705
1531.838788
974.859631
1516.650467
1519.409365
687.310267
967.2861928
965.5625136
971.752346
970.3703357
690.9485515
1509.421453
1512.56885
1569.237948
1492.585621
752.2224737
1019.8219
1029.065048
1416.933444
1367.849944
825.6292207
700.4210965
976.7950476
976.2815876
982.2672039
986.047605
709.1685763
1540.546181
1533.921473
6127.465649
5994.859985
6290.567069
4608.485968
5315.065365
3917.937728
6078.615681
6148.753772
6066.977541
6078.324768
3991.175197
2829.608991
5275.768014
4534.955111
5960.61495
6104.344941
3289.433075
1025.574984
734.1718046
735.670558
721.9698199
724.1972276
1014.865462
1608.45083
1620.561807
1582.304982
1596.790149
1567.950825
1973.228202
1438.924129
858.8936308
940.6706922
759.9497704
780.9755294
1063.042491
1399.520037
1909.468771
1526.119981
1452.842863
1002.874382
1575.930985
1564.718121
1608.414876
1569.000419
999.0790337
1550.305609
1560.31588
1516.463287
1526.693041
6092.950238
4215.482865
4452.148707
3277.119937
3803.302395
6192.675253
6304.698125
6110.082452
4813.621435
5386.085113
6613.975309
6076.596825
4731.671702
4972.037669
3898.436394
4327.785598
6254.453784
1662.545776
1663.591626
1647.149209
1650.349811
1107.581006
1118.727142
787.1141571
1719.74582
1628.612612
1679.712181
1671.057425
1628.195861
1030.652035
1037.494983
1024.525295
1029.157074
1624.816835
1659.954211
1049.115879
1101.64693
1038.78582
1051.93773
1663.128988
6019.622976
790.6987438
794.8927404
1134.859248
6194.096558
8905.279148
9214.437149
8921.590389
8835.135698
6801.423612
1721.255417
6791.642699
5002.640784
5379.767691
1077.718171
1687.732952
1673.469006
6778.128183
7404.491597
7169.227638
5913.85646
6425.876968
7857.150328
7477.001721
4940.386528
7074.489195
6160.609143
2076.077799
1675.997616
1133.326117
31.78884027
31.81226204
31.88080612
31.82158688
31.85911641
31.90495012
31.87232985
31.92024393
31.93794496
31.93561171
31.9822551
31.97184355
31.99359948
32.01914004
31.99383237
32.02190023
32.0159808
31.99280571
32.00821343
31.96904109
31.96595885
31.95545948
31.90643457
31.93246135
31.89256468
31.85041023
31.90161567
31.83897854
31.80854871
31.87960952
31.69975692
31.74743022
31.79258915
31.76701025
31.84033901
31.84865573
31.86756162
31.96005175
31.92205848
31.99148223
32.08884675
31.99365158
32.11016331
32.16587848
32.04114117
32.17045589
32.16845793
32.03285142
32.14952927
32.06597382
31.98012379
32.03824797
31.93667353
31.90690137
31.90566781
31.82354372
31.83861702
31.79823124
31.73965998
31.78802402
31.63982751
31.72940428
31.7375271
31.76648644
31.90689798
31.84635031
31.96251248
32.15785001
31.9900828
32.22975707
32.46931062
32.13557806
32.51144642
32.68557628
32.24512746
32.69216374
32.70246909
32.23050278
32.63827005
32.4450858
32.12482473
32.37471795
32.1284742
31.96608177
32.05497349
31.8728588
31.82663907
31.82470133
31.71233901
31.72761974
31.61503994
31.7735007
31.73283814
31.84329484
32.11608978
31.94467716
32.23397182
32.69325344
32.25050905
32.88767447
33.66898274
32.61075282
33.83337649
34.60928523
32.94369965
34.64288523
34.60237757
32.91147065
34.26813386
33.61700258
32.61675544
33.36600666
32.6927605
32.2310796
32.51036595
32.08919882
31.91175252
31.98470887
31.7490162
31.71433511
31.63849314
31.90894127
31.79872227
32.02953123
32.54084184
32.20177109
32.7828895
33.89677804
32.91381669
34.47698591
37.71878062
34.1163986
39.05103262
46.2931885
35.66590223
46.51674041
43.50411605
35.44064413
40.9042976
37.11775922
34.10833802
36.12273307
34.05252972
32.96211179
33.57512395
32.58382859
32.19088091
32.35873126
31.88412334
31.77189224
31.71022686
32.12913293
31.95778073
32.32319735
33.19592507
32.68964353
33.64259064
36.03979572
34.35427889
37.55637636
52.38880143
39.24003805
47.5884281
54.96577313
44.53908738
70.36625889
67.40341697
49.80273515
53.34837109
46.32593234
43.0257234
42.8723616
36.77562962
34.62826915
35.61617372
33.46642032
32.77844574
33.02097402
32.14390969
31.93820046
31.82274511
32.41538293
32.20096525
32.69284485
33.96409648
33.39606317
34.62916381
38.32535326
36.66756241
39.29162141
42.32502958
41.17938242
65.10826303
75.02205542
70.62346573
110.2797758
75.93449406
62.46051888
54.07473247
40.88490051
37.76647465
38.6267876
34.70495027
33.76119417
33.94592152
32.51986902
32.23037443
31.95710079
32.70755302
32.48920685
33.05532593
34.62810522
34.13872205
35.44137917
39.8531226
38.77122897
41.80042168
45.65162592
45.00663032
77.50004589
92.55099297
91.23320175
178.4334706
107.2903608
96.0819915
64.92303135
45.23034108
42.10588612
41.85872942
36.07795367
35.07997853
34.98049099
32.95407447
32.62711548
32.09315102
32.97354639
32.77534809
33.37485899
35.15535854
34.76944001
36.06106255
40.88571466
40.13404112
43.28408186
47.54515663
47.1018526
83.71537438
111.4874999
108.1642671
199.6958913
123.9250192
119.6257116
71.65833216
48.56284117
46.31272342
44.45943618
37.2459538
36.43884646
35.88357672
33.36186327
33.05900264
32.22221664
33.20428012
33.02981706
33.64617039
35.58297821
35.26466428
36.56118681
41.76296855
41.09716782
44.45883944
49.19090448
48.69061987
93.86141554
127.9657881
124.7719087
191.0403631
126.5053226