/*--------------------------------*- C++ -*----------------------------------*\
| =========                 |                                                 |
| \\      /  F ield         | OpenFOAM: The Open Source CFD Toolbox           |
|  \\    /   O peration     | Version:  v1912                                 |
|   \\  /    A nd           | Website:  www.openfoam.com                      |
|    \\/     M anipulation  |                                                 |
\*---------------------------------------------------------------------------*/
FoamFile
{
    version     2.0;
    format      ascii;
    class       volScalarField;
    location    "0.16";
    object      nut;
}
// * * * * * * * * * * * * * * * * * * * * * * * * * * * * * * * * * * * * * //

dimensions      [0 2 -1 0 0 0 0];


internalField   nonuniform List<scalar> 
12556
(
1.155893095
1.155865238
1.155835375
1.1558111
1.156031569
1.156028646
1.156048053
1.156097044
1.15619402
1.156360571
1.156608624
1.010925443
0.9236962466
0.923979986
1.013445011
1.156624233
1.156381403
1.156237405
1.156112783
1.156066178
1.155821289
1.155829152
1.155853569
1.155878442
1.155163753
1.155075643
1.154986807
1.154918356
1.15513121
1.155160565
1.155283776
1.155588063
1.156048892
1.156853088
1.141621628
0.9418552752
0.8517217671
0.8420010598
0.9050843195
1.055949697
1.157228961
1.156326705
1.155676475
1.15535764
1.155004246
1.154986828
1.155043634
1.155122666
1.154392015
1.154247091
1.154107242
1.154022887
1.154257286
1.154379763
1.154692018
1.155333384
1.156480416
1.092445838
0.850458584
0.7178978609
0.6545931812
0.6589685445
0.713672025
0.8351480489
1.037306407
1.157114494
1.155617825
1.154856465
1.154234767
1.154177732
1.154241289
1.154360796
1.153612961
1.153411513
1.153231644
1.153155041
1.153439753
1.153747091
1.154495842
1.155713984
1.0884509
0.7859344326
0.603929007
0.4803234413
0.4419173624
0.4518296833
0.5055897998
0.6064382072
0.7674825035
1.035085587
1.156259452
1.154739817
1.153664669
1.153437877
1.153464436
1.153614976
1.15279674
1.152550517
1.152355757
1.152334665
1.152735358
1.153350714
1.154775053
1.156982192
0.8171761647
0.560584075
0.3990543276
0.3053878272
0.2622069735
0.2785418496
0.3362531661
0.4287334517
0.5672571402
0.7878271434
1.1139968
1.155153438
1.153311908
1.152773462
1.1527054
1.15284928
1.151998007
1.151715269
1.151524648
1.151581597
1.152198484
1.15328123
1.155728781
0.9775763742
0.6377864935
0.4126781415
0.2621021603
0.1679777924
0.1328351622
0.1557624676
0.2176929591
0.3065360439
0.4303106606
0.6186094271
0.9281147312
1.156204957
1.15319761
1.152191629
1.151954385
1.152071976
1.151178596
1.150876434
1.1507324
1.150990151
1.151863313
1.153610547
1.157355767
0.8268373455
0.5293520456
0.3241563833
0.1817365435
0.08445688929
0.04880498216
0.0784163513
0.1450790034
0.230553977
0.3436890084
0.5053882314
0.78613273
1.15374168
1.153355731
1.151705126
1.151206974
1.151249392
1.150454042
1.150144114
1.150066835
1.150575332
1.151699158
1.154378889
1.040801917
0.742314017
0.4781505285
0.2927627063
0.162158961
0.06703828173
0.04612366522
0.1131908366
0.1919341209
0.2953492378
0.4419176278
0.6948964439
1.042734922
1.153808874
1.1513594
1.150502877
1.1504382
1.149786594
1.14948963
1.149539692
1.150366972
1.151875978
1.155584768
0.9659026847
0.698778588
0.4682167622
0.3101364301
0.2029330699
0.1395143729
0.05995966951
0.1136092331
0.1829898959
0.2773991992
0.4100353297
0.6454406566
0.9601759916
1.154572333
1.151198567
1.149904471
1.149689427
1.149304921
1.149036996
1.149223881
1.150416821
1.152409343
1.157169024
0.9265459707
0.6891306782
0.4871999451
0.3490325245
0.2697427267
0.2554766005
0.08623411207
0.1319333324
0.1958097667
0.2847104805
0.4119628051
0.625819106
0.9082475856
1.155610901
1.151319797
1.149532878
1.149148637
1.148971531
1.148753109
1.149138089
1.150787959
1.153279561
1.1588657
0.9119023365
0.6987418869
0.5187825781
0.3961193445
0.3330651953
0.3564874375
0.1179178673
0.1622906686
0.2233282742
0.3063130159
0.4249649293
0.6303672563
0.8831123124
1.156907284
1.151742959
1.149459953
1.148881179
1.148867125
1.148704377
1.149283886
1.151367488
1.154430271
1.153815458
0.9152579998
0.724718519
0.5601299466
0.4430198174
0.3718715706
0.3738704765
0.1557557833
0.2051734716
0.2670064843
0.3490668614
0.4627177519
0.657629762
0.8868472443
1.15848481
1.152520786
1.149754354
1.148993511
1.148925047
1.148832699
1.149683884
1.152280319
1.155779129
1.141746112
0.9343098107
0.7700668894
0.6146214956
0.498941752
0.4141031716
0.3250429901
0.03513564963
0.2086605871
0.2687119548
0.3335583629
0.4126310144
0.5260929649
0.702272525
0.9064304324
1.160160324
1.153590489
1.150393315
1.149456577
1.149195162
1.149173933
1.150266171
1.153290833
1.157369543
1.157828013
0.9931920125
0.8272652445
0.6919623133
0.5813350547
0.50750161
0.2864693759
0.07124010964
0.3083592425
0.3777211489
0.4338098095
0.5026759917
0.6066745459
0.7653534511
0.9459229509
1.16186615
1.154899437
1.151344221
1.150278805
1.149546281
1.149588825
1.150908069
1.154365275
1.158916355
1.166471778
1.058463165
0.9195813311
0.79919699
0.7022223836
0.6508486081
0.1436699999
0.1093927007
0.3503830555
0.5734133425
0.5845046785
0.6292423942
0.7198777513
0.8601823021
1.012073489
1.163507079
1.156293237
1.152467327
1.151286319
1.150027951
1.150132481
1.151652443
1.155491227
1.160434412
1.168207327
1.156893187
1.04637391
0.9420173036
0.8775322857
0.7945650746
0.08153449984
0.1262849477
0.37732656
0.6548149006
0.7982534397
0.7981586732
0.8645432061
0.9838002484
1.104984137
1.165151346
1.157700426
1.153721259
1.152481165
1.150487571
1.15063786
1.15232914
1.156533124
1.161833258
1.169723149
1.17150755
1.158283392
1.113024803
1.00364611
0.6690781368
0.03723263148
0.171173628
0.4248161377
0.7023717732
0.9309223711
1.023106036
1.042795879
1.138347453
1.172937583
1.16657187
1.159034253
1.154934175
1.153645421
1.151006884
1.151199345
1.153030554
1.15752494
1.163083062
1.171048674
1.17259769
1.158347259
1.103318202
0.9489375853
0.4049182144
0.03588580241
0.2370585155
0.4858157727
0.7492554094
0.9506763052
1.07424109
1.139384265
1.170386208
1.174533475
1.167729536
1.160230774
1.156122888
1.154810389
1.151433623
1.151653896
1.153594579
1.15835353
1.164163959
1.172110431
1.173335493
1.157954478
1.097474573
0.8931223594
0.2261009898
0.04865396554
0.2862818474
0.5311402677
0.7737764508
0.9609197398
1.080021287
1.142785239
1.172140487
1.175688569
1.168612075
1.161214763
1.157139146
1.155817254
1.151888086
1.152140775
1.154169725
1.159114029
1.165062056
1.172954132
1.173859537
1.157282464
1.091300431
0.847767474
0.1892273134
0.06036937674
0.3044666336
0.5452088646
0.785539942
0.9690323459
1.084482986
1.145243404
1.173331239
1.176460189
1.169307423
1.162075047
1.158054968
1.15672532
1.152204862
1.152484667
1.154586216
1.159701673
1.165795685
1.173607707
1.174140763
1.156390653
1.084396591
0.7936750828
0.1687542115
0.07122359421
0.3169524372
0.5563267243
0.794192324
0.975403116
1.087963486
1.147023537
1.174089618
1.176928678
1.169768166
1.162714416
1.158761238
1.157428389
1.15255475
1.152875297
1.155047048
1.16026894
1.166391729
1.17411018
1.174281072
1.155383833
1.076380291
0.7405061827
0.1553665686
0.08279609826
0.3277577333
0.565687864
0.8006497899
0.9801716497
1.090638084
1.148298793
1.174519142
1.177165888
1.170120004
1.163274492
1.159388263
1.158046944
1.152748457
1.153109685
1.155350131
1.160689507
1.166886957
1.174503513
1.174328075
1.154260591
1.066211737
0.6966095507
0.1464050341
0.09423933631
0.3370601885
0.5736044871
0.8056442359
0.9835351993
1.092588163
1.149168748
1.174698801
1.177228809
1.170292589
1.163637997
1.159815242
1.158466059
1.153005678
1.153422766
1.155738646
1.161146325
1.16730641
1.174820528
1.174304055
1.152932786
1.052908727
0.6618951051
0.1400122289
0.1049862603
0.3450787964
0.5803051263
0.8095864393
0.9857927874
1.093886563
1.149691295
1.174682911
1.177158785
1.170419048
1.163968211
1.160200362
1.15883526
1.15309521
1.153566446
1.15595864
1.161461752
1.167672541
1.175080068
1.17420818
1.151237041
1.03690021
0.6342927752
0.1357856413
0.1147233949
0.352002393
0.5859634441
0.8126935326
0.9872268248
1.094629475
1.14991263
1.174510468
1.176985442
1.170384128
1.1641016
1.160382147
1.159002048
1.15326765
1.153806465
1.156285537
1.161846147
1.167991299
1.175293185
1.1740288
1.14899978
1.01971768
0.6122575802
0.1332635468
0.1233838211
0.3579646632
0.5907183451
0.8150980778
0.9880431906
1.094920911
1.149879756
1.174213369
1.176730341
1.170359729
1.1642591
1.160579151
1.159176973
1.153262361
1.153862579
1.156424154
1.162072059
1.168274791
1.175466886
1.173750108
1.146105127
1.002743386
0.5946828918
0.1321525732
0.1309328507
0.3630845324
0.5946887772
0.8169007244
0.9883810384
1.09485298
1.149638791
1.173818617
1.176411143
1.17018236
1.164224705
1.160580907
1.159160255
1.153362547
1.154036898
1.156694463
1.16239955
1.168520824
1.175605547
1.173352747
1.142536286
0.9867414577
0.5806993918
0.1321972851
0.1374367174
0.3674836232
0.5979848852
0.818186411
0.9883353583
1.094498886
1.149229775
1.173348118
1.176042119
1.170075013
1.164279848
1.160664514
1.159219741
1.153291243
1.154027874
1.156766482
1.162547392
1.168741247
1.175711705
1.172816035
1.138377885
0.9720464654
0.5696473881
0.133212653
0.1429985017
0.3712695812
0.6007019524
0.8190275632
0.9879759304
1.093915795
1.148685502
1.172819169
1.175634774
1.169798589
1.164124292
1.160536021
1.159072492
1.153355891
1.154168303
1.157004444
1.162840972
1.16893207
1.175787395
1.172122569
1.133771593
0.9587399336
0.5609917885
0.1350539539
0.1477529143
0.3745324338
0.602922932
0.8194942407
0.9873617197
1.093150179
1.148033028
1.172245299
1.175197344
1.169623879
1.164080156
1.160508742
1.1590204
1.153252262
1.154123314
1.157033768
1.162929045
1.169107107
1.175832481
1.171262842
1.128868645
0.9467633182
0.554336232
0.1375843485
0.1518571185
0.377355407
0.6047340964
0.8196593334
0.9865468343
1.09224154
1.14729565
1.171637144
1.174734332
1.169269361
1.163830093
1.160279532
1.158774003
1.153272887
1.154220897
1.157231273
1.163192676
1.169256888
1.175845089
1.170236568
1.123802646
0.9360277009
0.549282433
0.1406927479
0.1554571421
0.379826149
0.6062292416
0.8195936984
0.9855809459
1.091224315
1.1464928
1.171002894
1.174252605
1.169033295
1.163691674
1.160150648
1.158620438
1.153159788
1.154160304
1.157238691
1.163242387
1.169394622
1.175821411
1.169050467
1.118680945
0.9264314133
0.5455498719
0.1442974914
0.1586729846
0.3820239155
0.6074870114
0.8193617497
0.9845086211
1.090128467
1.145641275
1.170349002
1.173752184
1.168664444
1.163427816
1.159905805
1.158362206
1.153088149
1.154169945
1.157356609
1.163448833
1.169508238
1.175760611
1.167718229
1.113584196
0.9178721608
0.5429220784
0.1483259903
0.1616017919
0.3840155609
0.6085878688
0.8190203733
0.9833688703
1.088979963
1.144757086
1.169682767
1.173247046
1.16835153
1.163198248
1.159687171
1.158119727
1.153017294
1.154141728
1.157385164
1.163510928
1.169615396
1.175665843
1.166270628
1.108564007
0.9102250899
0.5411809625
0.1526864988
0.1643241173
0.3858599384
0.6095795956
0.8186166522
0.9821943386
1.08780039
1.143851904
1.169019956
1.172737743
1.168073018
1.162988826
1.159485135
1.157906055
1.152910652
1.154133166
1.157507513
1.163738905
1.169729792
1.175561399
1.164799038
1.103667431
0.903399483
0.5401393072
0.157278897
0.1669031153
0.3876041755
0.6104943592
0.8181787197
0.9810067536
1.086603039
1.142931307
1.168427683
1.172295903
1.167585911
1.162589389
1.15909339
1.157485305
0.1255124689
0.05389489926
0.03943107201
0.2421650289
0.07950401836
0.05704393265
0.3454825187
0.1118115509
0.08329253044
0.3772321407
0.1426379389
0.1165386782
0.334605366
0.02559444143
0.03331802774
0.184666764
0.1469411174
0.3242728905
0.05053611738
0.02646691452
0.06708662882
0.2536018185
0.1883267687
0.06540629098
0.04937850633
0.04050564702
0.07468970727
0.02838401535
0.0169181435
0.05725793175
0.09634906391
0.09569167098
0.2524240122
0.2384119935
0.1447077141
0.01853428297
0.02882248046
0.08271924148
0.1137108273
0.09934277308
0.3188956091
0.3327024259
0.2506630305
0.2942735682
0.1892502758
0.2086371171
0.03394726886
0.02343570394
0.1138104818
0.1423616834
0.119930712
0.365313724
0.369846541
0.3425804258
0.3787374175
0.1298712908
0.1640108459
0.06940905535
0.04823563214
0.4001522785
0.3403623101
0.3682825818
0.3600760548
0.08062319722
0.1038254648
0.0174425769
0.1180192536
0.0993735663
0.4781064759
0.3924045357
0.3360515932
0.3067086651
0.03332646402
0.05360975376
0.3048341997
0.07217837488
0.05170293409
0.05529440679
0.1201765547
0.02634758706
0.05008249152
0.02968834787
0.03030078393
0.04472843536
0.03098272493
0.04282935911
0.2111385892
0.2287908904
0.2009640559
0.1807109169
0.1722310977
0.1323817214
0.1825203678
0.02317211346
0.01841502258
0.06866578172
0.02847170022
0.0326511176
0.04150073532
0.02863766706
0.06699133131
0.1662544223
0.1862495739
0.3076301645
0.1477255726
0.1275516235
0.1709250827
0.1493848318
0.04558256959
0.03483732194
0.09945354419
0.05100347403
0.06811494958
0.03303143942
0.04871626462
0.0952230812
0.1050984047
0.1284372621
0.3809892277
0.1045665934
0.08137467366
0.1263590414
0.1057645642
0.09591414329
0.07288336703
0.05457766512
0.0789573955
0.3497639071
0.01795092468
0.05637859832
0.0347084253
0.08039531678
0.0579033924
0.01774593709
0.1296148337
0.1202079786
0.0176653605
0.004921046294
0.03308393999
0.3027852588
0.04141751576
0.02064663934
0.01274074104
0.03434509386
0.02094864043
0.03956347222
0.1889611623
0.1321164869
0.07840298439
0.08220480343
0.05423058475
0.03111401116
0.01035121483
0.007965960846
0.1856839798
0.2187515315
0.1291602041
0.01500882335
0.1486667394
0.1803173194
0.1509306799
0.01637732494
0.03739119539
0.03268923698
0.04976203209
0.1476131676
0.1345405815
0.1181679111
0.06014005564
0.09105515246
0.04150901868
0.01138552303
0.02087047193
0.01936299764
0.02844243676
0.04278121603
0.03183217399
0.02347373754
0.1308494844
0.093425981
0.1112747818
0.07095224414
0.0905250946
0.1276939934
0.01886841441
0.01782334177
0.03087524009
0.01949521486
0.03268936568
0.02566218423
0.01697198302
0.02607406159
0.01885637265
0.009186668385
0.02013204853
0.01226875656
0.009246098039
0.01085115884
0.0189834705
0.02422031855
0.02474379577
0.02869453624
0.02795543623
0.01436797889
0.0149521658
0.05974237113
0.01350416781
0.01862408472
0.01459024579
0.01356593899
0.05661861969
0.09398931819
0.2465694828
0.236340264
0.04749068792
0.03990483719
0.01656441401
0.04886083095
0.1904592302
0.1800619019
0.2048525223
0.1947077115
0.04917852228
0.04861463498
0.04189127051
0.07840858079
0.06307112748
0.04999701339
0.04047894663
0.06266897777
0.08772399605
0.03205064332
0.02150241366
0.01322567842
0.04646030518
0.023827756
0.03535554506
0.0234038994
0.05010046204
0.03833352901
0.03869214038
0.1802436034
0.03239976879
0.1798514744
0.1765173116
0.03577113857
0.03953661454
0.03276988654
0.03531604263
0.190030965
0.02208189066
0.02188045288
0.0308392125
0.06899268846
0.06415573091
0.07550994291
0.07075350704
0.03105013557
0.03510049738
0.05529087104
0.04982831396
0.06232939584
0.05688036652
0.03434716617
0.1379875298
0.1366794935
0.1613417314
0.1600073942
0.04268234247
0.01434420928
0.04162517411
0.09618769827
0.09452435296
0.1156671104
0.1142788364
0.01977059666
0.0282974682
0.08304053343
0.02185272136
0.01472075402
0.07049327074
0.219039554
0.2085413015
0.2328358405
0.2224883938
0.07174100086
0.01851335241
0.05204849003
0.05105293117
0.07384278356
0.07303938655
0.01176976023
0.02093691822
0.0587890332
0.05024958065
0.1760194717
0.1692031822
0.02691414485
0.01336831385
0.02163649038
0.01902994491
0.03294120542
0.01489269611
0.01883221957
0.01609352856
0.03302008256
0.0332353573
0.01809587364
0.01923291645
0.004290354939
0.01605124074
0.01598975042
0.6083336517
0.3976054071
0.3863054899
0.2716907284
0.01046487973
0.005488595364
0.1052041827
0.28634986
0.2712087923
0.005609995429
0.01600082112
0.01609336873
0.0708108794
0.06205328183
0.02254720961
0.1614895176
0.1522951957
0.05181100609
0.00825050549
0.01393240289
0.01100675188
0.007970815462
0.011124728
0.007990590581
0.02009005067
0.00831541649
0.008117032202
0.02673487655
0.03137664669
0.0114076659
0.01367446403
0.01116851819
0.01157054269
0.02460357664
0.1420592574
0.296272935
0.2874182708
0.307698689
0.2991763184
0.1448877663
0.2595976062
0.2497585466
0.09516971544
0.03652347759
0.1015156601
0.09679583839
0.01475606816
0.02427555781
0.05564044789
0.03423099815
0.009399830377
0.008392548833
0.04017773449
0.04092550417
0.03595406513
0.04804585497
0.04263429669
0.04187608437
0.02262610227
0.01045655082
0.01105504685
0.01923861852
0.1749475641
0.3184178657
0.3104333915
0.06130510315
0.06306898028
0.1314787803
0.01435097955
0.01543721723
0.03745393255
0.05770749015
0.1008761476
0.09388699382
0.03766366012
0.08289839674
0.07743550371
0.09132210698
0.08497326448
0.0385726444
0.1170737569
0.2722257426
0.2627581597
0.2844297443
0.2753328244
0.1186679676
0.1010746078
0.03902994609
0.03974672663
0.02280842832
0.02368529637
0.08541412977
0.1220054403
0.05738114606
0.06091883843
0.04003739958
0.04070086798
0.1093420511
0.08654054894
0.02963890205
0.03953949738
0.01205516477
0.01783157229
0.05412723538
0.04207703504
0.07757180093
0.02218273405
0.02266067153
0.02169552967
0.06694069714
0.01689730416
0.004468845416
0.1333642978
0.1199859912
0.09521867553
0.09152252674
0.03289338022
0.01934658078
0.02214800987
0.04664613511
0.02046105931
0.01348560663
0.02306858325
0.0237000624
0.002818653735
0.03390665202
0.02205033003
0.01068715663
0.006775311293
0.01111391461
0.01432637249
0.01384680276
0.0178115671
0.01627570654
0.01158472453
0.0389731077
0.04038172266
0.01379742256
0.01057581158
0.006622042215
0.01110505079
0.01506916834
0.01579219609
0.01543379029
0.02719341916
0.0159974605
0.01547199803
0.01740323906
0.01822724814
0.02101389719
0.01731594927
0.0160661563
0.01821606704
0.0175464028
0.01527924183
0.01852955461
0.01817785619
0.01910150189
0.01842218801
0.01621871257
0.009025187698
0.01783961984
0.01588407911
0.0176609792
0.01802582039
0.01543605493
0.01368181923
0.01183014325
0.008133852978
0.008109330885
0.02139515932
0.02619816945
0.008083153203
0.008106771723
0.01104358344
0.01133239326
0.03053337589
0.01272953476
0.01217458305
0.01196391323
0.01279223967
0.01199148834
0.02539606225
0.01160362964
0.01099641782
0.0141355568
0.01417642382
0.01474520178
0.03260147137
0.02938986131
0.01393319067
0.02443005419
0.02135535385
0.02833148103
0.02562546688
0.0137443188
0.01717880074
0.02250030637
0.01909881145
0.1091791849
0.1031519761
0.04064326964
0.05128880262
0.1156772609
0.1107937545
0.0445128938
0.04377690199
0.06437900931
0.06696553363
0.07978078124
0.05029260403
0.06296063944
0.06498566307
0.05862964594
0.1143832466
0.1146281214
0.08537947232
0.1057486377
0.05857664043
0.03548160398
0.03714346847
0.04631877208
0.03077982201
0.03439324465
0.01342299745
0.01250940612
0.03601521422
0.008761393077
0.008934457327
0.007318623654
0.0134586842
0.01606399271
0.009331602426
0.01355867576
0.03601182142
0.0189494803
0.01409455825
0.0306740072
0.09107865125
0.08102626574
0.09619501717
0.09310101952
0.03174487393
0.07389287235
0.07204604369
0.07813326252
0.07455198368
0.03712872299
0.108068274
0.105009983
0.1128230995
0.1091204789
0.0376771855
0.03380324137
0.1000665013
0.09722421159
0.1039988412
0.1010335716
0.03412113512
0.009665523796
0.01022387377
0.02246291852
0.02011349582
0.00625785373
0.009530969896
0.04502372327
0.04430897785
0.04707505718
0.04526915486
0.04296199833
0.04196450635
0.0440671318
0.04322744702
0.06920342935
0.06751104755
0.07147011771
0.0697819576
0.06261646128
0.04966801781
0.066813102
0.06494827312
0.01642080712
0.01436287218
0.02042149253
0.01756355619
0.009360269069
0.0120687823
0.0118652683
0.01367722426
0.01205541027
0.03809263099
0.03868619236
0.09987736247
0.02285315799
0.02262386545
0.02352475393
0.02303840939
0.0219186572
0.08759207259
0.02441697802
0.03590046353
0.04279019779
0.05558730458
0.1204696354
0.03921680472
0.02575121046
0.04182737125
0.03891211905
0.02431560211
0.02375839869
0.0252892386
0.02454133649
0.110546023
0.04091930687
0.04177793597
0.01090261743
0.01820464121
0.01565587187
0.01581374418
0.01506212484
0.01710876869
0.01205555229
0.01808894797
0.0160278972
0.01690168291
0.05350644195
0.0470912735
0.02157291497
0.02206671217
0.07669346041
0.0690604576
0.02065160068
0.0215099255
0.01618095099
0.03180248421
0.08917324309
0.08141522875
0.01638291609
0.01494400207
0.01972398068
0.01383723512
0.01670937468
0.01995612155
0.0338023407
0.01144041085
0.0180687118
0.01371240953
0.01792234274
0.02291124991
0.04703236173
0.09936237897
0.1266082057
0.01608779736
0.01583735164
0.1900961039
0.2353820348
0.1919953074
0.01141610358
0.02214171436
0.01818531075
0.01836740033
0.1143010303
0.1385890508
0.1605660741
0.004486908174
0.006587444872
0.004866804413
0.005000909427
0.005296489592
0.004222073841
0.04968585217
0.03098527678
0.01963127568
0.02308027108
0.02085990603
0.02302445594
0.1979680694
0.2907497535
0.3105287525
0.2700675092
0.2840052117
0.2007099752
0.0282755255
0.0243843974
0.01741193936
0.04212257049
0.05020655967
0.1073787368
0.1221394684
0.1172297051
0.0517599302
0.02332512855
0.01967393548
0.03444051703
0.3201303739
0.3210019738
0.177688407
0.1433670345
0.0681121678
0.07150258608
0.07426804819
0.08388951725
0.1543031802
0.06221249959
0.1295083122
0.1238570234
0.01711066944
0.01724606261
0.01791880597
0.02150217903
0.02181457647
0.0355963668
0.01746380413
0.01624615534
0.01661073273
0.01830437431
0.03450424312
0.02976900567
0.02058497109
0.03414534439
0.02104567115
0.0212261244
0.02100830684
0.01033253801
0.01504705992
0.01678770038
0.01671808337
0.01640630857
0.01637454874
0.0185831101
0.03702054942
0.04063011023
0.03429244053
0.03063174238
0.02217439473
0.02848172356
0.01542099584
0.01582859589
0.01576286832
0.01182153381
0.01169802706
0.01650698015
0.01547079335
0.0201018178
0.01294509515
0.009245884072
0.01098439724
0.01286976884
0.012391501
0.008789569746
0.0107793851
0.01407716374
0.01492216764
0.0148803955
0.0101259052
0.01440532762
0.01442911364
0.03716987084
0.03358826725
0.01549525138
0.01465900667
0.01303093453
0.01308345384
0.01686564872
0.01708748166
0.01704657884
0.04694062933
0.03711480496
0.04245775339
0.06352090664
0.08152313786
0.0850059536
0.04193052294
0.06501354781
0.06194367528
0.08425783168
0.08304598751
0.0617311677
0.02785815816
0.03394326928
0.03228777809
0.02512573942
0.02550256903
0.02097615582
0.04556646185
0.04454584798
0.04403908511
0.02492477482
0.03524872847
0.03366284327
0.05254541707
0.05219386586
0.03214547207
0.0300822381
0.02969786036
0.03262609919
0.0319360589
0.03625028652
0.05769372803
0.05718529508
0.06060814512
0.06001575386
0.03884043958
0.03308342241
0.05360061628
0.05314128933
0.05665604125
0.05613192621
0.03490386413
0.0658038494
0.06749163207
0.1419862561
0.1327294113
0.06360230098
0.06526378934
0.08974893907
0.09235801306
0.1655002982
0.02817036411
0.02801944832
0.02947452547
0.02926201188
0.0216694025
0.02776985028
0.02765491787
0.1557670985
0.08583101781
0.08877261028
0.01380911631
0.01338035807
0.01318405915
0.01315642019
0.01384305034
0.01289448658
0.008904634627
0.03837498751
0.01598574673
0.01913089444
0.1367531438
0.1313949579
0.06542094484
0.07451424253
0.1430683695
0.1383397085
0.03474736834
0.03480417292
0.05239104925
0.05074822647
0.0343473741
0.03426568774
0.01624184544
0.0254900454
0.04092377238
0.03985114715
0.01006372485
0.01622217551
0.02028779349
0.01754075707
0.01851302852
0.02013740243
0.02037750379
0.03341088589
0.01525234024
0.01103422224
0.01481559707
0.01682020321
0.03131047703
0.01963088083
0.02023540419
0.01841714732
0.0207614299
0.01963967739
0.01629014909
0.01629630318
0.01636382602
0.01643082927
0.01595037841
0.006124544956
0.004082128907
0.006894548103
0.01610996228
0.01605729407
0.01631564031
0.01569845336
0.01613488072
0.0160199559
0.009237213153
0.006080304998
0.005274336625
0.008600593466
0.008673126693
0.00872290497
0.008640768766
0.0082077296
0.01230012206
0.01246193957
0.01199802742
0.01213927317
0.008150519524
0.0114190955
0.0107474192
0.01072757315
0.01108330147
0.01088630887
0.0115858616
0.008878077692
0.01406989401
0.01577038052
0.01270947923
0.01313573302
0.008616680877
0.01063186462
0.01054809769
0.01053336059
0.01063167278
0.01061644367
0.01078265574
0.008913438269
0.008806690922
0.009015353875
0.009075636556
0.03919480522
0.0582999756
0.05785658907
0.02304953706
0.03821594808
0.03796566141
0.03954378688
0.03858487076
0.02327456832
0.016368281
0.01611253649
0.01670829589
0.01624846209
0.02160041145
0.02141087202
0.02203535837
0.02180348455
0.01692924769
0.03780378329
0.02247230386
0.02348578868
0.02235591608
0.0374664739
0.03725125798
0.03780262785
0.03762319876
0.02249064844
0.02307761928
0.02238250171
0.03393029661
0.02419522157
0.01716723086
0.01200021089
0.0163093397
0.01707596411
0.01194558565
0.04748762079
0.03380207602
0.002961090171
0.03286068628
0.04996459885
0.0496918252
0.02040123225
0.01334931171
0.009885287059
0.002976417736
0.01699327431
0.01738725584
0.02080618454
0.02097326421
0.03408485062
0.0214150275
0.007800681742
0.008441615895
0.01124917642
0.00586044542
0.009567739786
0.006890916457
0.007412539854
0.007401797183
0.0148000535
0.00976617523
0.01616412899
0.0165818337
0.01645457158
0.04035169084
0.03187421923
0.008372472505
0.009723643433
0.01080632508
0.01777121742
0.01976692528
0.01169735868
0.01447219896
0.01388218558
0.01605142147
0.01111368584
0.01599820295
0.01657060753
0.01192361222
0.0156836566
0.01587299479
0.01828241157
0.01671381999
0.01723944596
0.01598349236
0.01564030973
0.01819710598
0.01792210625
0.01710798845
0.01557167597
0.01710602101
0.01824628997
0.01820695623
0.01153898156
0.01307602569
0.01149653028
0.02028553312
0.01448505966
0.0111432299
0.01037301932
0.01104298489
0.008135551758
0.01076784548
0.01140801313
0.008989737615
0.0108819804
0.007892155356
0.008081354583
0.01172806307
0.01185038326
0.01143519545
0.01161086196
0.008071950783
0.01116052649
0.01529182612
0.01506220224
0.01259971818
0.01236982786
0.01228873649
0.008335080393
0.01227027465
0.01276971353
0.0114972655
0.007801898249
0.01108963475
0.01287759066
0.01177709682
0.01468307444
0.01398352687
0.01090019926
0.01526380529
0.01532451444
0.01384966761
0.01043617723
0.01534122785
0.01472743338
0.014379172
0.01508205219
0.01529887247
0.01355609083
0.01309278679
0.0142747763
0.04546801602
0.04297245423
0.07772596978
0.07074532133
0.04372355745
0.0614967898
0.08246545498
0.07988406019
0.03293454552
0.03050494132
0.02801422046
0.02143708184
0.02769042817
0.03910231492
0.04001771848
0.03561646859
0.01330237923
0.01973981224
0.02009563193
0.01767463236
0.01846727258
0.0124821882
0.00844979271
0.008983166587
0.01437807528
0.009973358091
0.00947153389
0.01065213249
0.01012868061
0.01462836112
0.009603575207
0.01000566483
0.007897862546
0.01039794765
0.04857141819
0.04872323891
0.03196839954
0.03174292009
0.05137073829
0.05135570745
0.03073705946
0.03036648893
0.0314840977
0.03107754208
0.05862141655
0.05815143495
0.03662639312
0.03823945785
0.05955476393
0.05909544352
0.05462829922
0.05415138538
0.03347621636
0.03446028138
0.05559571244
0.0551057829
0.009908044044
0.01044519143
0.01044166033
0.01048580489
0.01048227848
0.01005573458
0.009244563832
0.009975392213
0.009423962378
0.01039538924
0.01028090952
0.009422790427
0.04477529741
0.02691486118
0.02718421716
0.02648959214
0.02669401821
0.04454654242
0.04601104937
0.02813244503
0.02863467784
0.02745189689
0.02776483945
0.04556431656
0.0426053864
0.02527461037
0.02550217897
0.02490374033
0.02512832986
0.0423762027
0.04380768988
0.02609459393
0.02628188321
0.02567584465
0.02589981622
0.04354469143
0.02859091227
0.02840566509
0.0686483149
0.0473722667
0.0476670692
0.04673888249
0.04700321978
0.0680377019
0.02901675373
0.02881482588
0.02651266635
0.02775350582
0.06070041614
0.04323305817
0.04295827652
0.02955141596
0.03096624769
0.05468599277
0.06637283949
0.04610543862
0.04629698904
0.04545063721
0.04540951508
0.06530270982
0.02734621791
0.02738114711
0.0141415968
0.01407541254
0.01338958392
0.01333903155
0.0136927439
0.01194169832
0.01324313213
0.01349858516
0.01271783037
0.01297442733
0.01194512855
0.01281171613
0.01313073383
0.01277550976
0.01360210082
0.01361980638
0.0122686906
0.03801212406
0.0558897086
0.05560518168
0.05721752491
0.05687431295
0.03859001168
0.02280250881
0.02255676234
0.02339394435
0.02312096497
0.02300588961
0.01795491636
0.02569607444
0.04641243959
0.04186201222
0.0534754955
0.05175375542
0.03621657092
0.02790396936
0.01947530423
0.02497577306
0.02656891694
0.04118122033
0.02454201019
0.02483170377
0.02381527866
0.02459085717
0.04124274134
0.02413807342
0.02391412781
0.02500219159
0.02474852585
0.01584006227
0.01525403493
0.01535966113
0.01497203652
0.01516126811
0.01588417405
0.01553988204
0.01559745624
0.01541038747
0.015666314
0.01071477092
0.01628612625
0.01743488424
0.01732272397
0.01825159625
0.01796758064
0.01598897208
0.02097655004
0.02093607564
0.0212169903
0.02115448011
0.03257673536
0.03248036214
0.04872401418
0.02016980301
0.0212303216
0.02070446209
0.02078248068
0.02178840684
0.0366601026
0.03630234193
0.03708481803
0.03681204103
0.02187515797
0.02123286765
0.03562114146
0.03362991729
0.0361814321
0.03558681597
0.021220409
0.01645070216
0.04814525402
0.04764755948
0.03159779064
0.01671898563
0.0133258216
0.01331151462
0.009785380856
0.01331078701
0.01549160316
0.02028879196
0.0150744154
0.01758033662
0.01701323412
0.03351453966
0.02048220748
0.02068373355
0.01492899893
0.01413682319
0.01428307896
0.01628088247
0.01541199597
0.01015828582
0.01059772175
0.01756426377
0.01452481382
0.01575454488
0.01670819155
0.02056392356
0.03135100125
1.155347104
1.155999277
1.155910981
1.156282416
1.157417774
1.156621143
1.157858341
0.9661656086
1.157676694
0.9209158156
0.7894038532
0.9613917615
0.7686054288
0.7316694624
0.8575955309
0.7112765389
0.705463171
0.8396069933
0.7090097137
0.7492080631
0.8905919914
0.7652418724
0.8597027299
1.031538718
0.8934732005
1.052894956
1.157509479
1.107401443
1.157156522
1.156516418
1.155542283
1.156935189
1.15612791
1.157525537
0.9227338306
1.157829713
0.855684352