/*--------------------------------*- C++ -*----------------------------------*\
| =========                 |                                                 |
| \\      /  F ield         | OpenFOAM: The Open Source CFD Toolbox           |
|  \\    /   O peration     | Version:  v1912                                 |
|   \\  /    A nd           | Website:  www.openfoam.com                      |
|    \\/     M anipulation  |                                                 |
\*---------------------------------------------------------------------------*/
FoamFile
{
    version     2.0;
    format      ascii;
    class       volScalarField;
    location    "1.06";
    object      omega;
}
// * * * * * * * * * * * * * * * * * * * * * * * * * * * * * * * * * * * * * //

dimensions      [0 0 -1 0 0 0 0];


internalField   nonuniform List<scalar> 
12556
(
31.93106402
31.93193986
31.93289845
31.93374157
31.96668868
31.9675
31.96832541
31.97003755
31.97340622
31.97892254
31.98649922
31.99399998
31.99845631
31.99648777
31.9911269
31.98355552
31.97702463
31.97194717
31.96970675
31.96791448
31.93410795
31.93288598
31.93181922
31.93083885
31.79493388
31.79756064
31.80013102
31.80240399
31.83624955
31.83924944
31.84405977
31.86696991
31.88262703
31.90865928
31.94425628
31.98229645
32.00327469
31.99913218
31.97194064
31.93644271
31.90431023
31.88124049
31.85144531
31.84228312
31.80482165
31.80087768
31.79754316
31.79461798
31.66066854
31.66523725
31.66985821
31.67367591
31.70824752
31.71484992
31.72644304
31.75968312
31.79757994
31.85714968
31.93687115
32.01869236
32.05943529
32.05483053
31.99481521
31.91766907
31.84540212
31.79261407
31.74214113
31.7221108
31.67861673
31.67179253
31.66599072
31.66113056
31.52799427
31.5340741
31.54009113
31.54571269
31.58288186
31.59576345
31.620727
31.67463486
31.75113812
31.87483763
32.04059459
32.20826014
32.29768698
32.27975999
32.14079955
31.98102729
31.83574119
31.73314556
31.64982368
31.61172233
31.55739267
31.54599895
31.53704304
31.52995079
31.39753362
31.40535017
31.41350857
31.42198701
31.46224852
31.48495425
31.53255912
31.61956383
31.7682253
32.02353373
32.39309794
32.83063382
33.08367351
33.03454811
32.63053218
32.23914898
31.91958399
31.72118163
31.58312238
31.51403132
31.44128759
31.42322547
31.4104475
31.40089197
31.26812326
31.27744307
31.28755526
31.29988846
31.34750896
31.38590374
31.46898597
31.60460519
31.87799071
32.390989
33.32360009
34.93659068
36.17333478
35.67153701
34.04199067
32.91588815
32.1789279
31.77559307
31.54312702
31.43174841
31.3321499
31.30308533
31.28513567
31.27253874
31.14180636
31.15296863
31.16619972
31.18409962
31.23998518
31.29999709
31.42874855
31.64022491
32.11048208
33.09869617
35.52173996
43.43245061
51.81149038
47.53166939
37.87901916
34.3782174
32.70835915
31.93303078
31.53634137
31.36606941
31.22883664
31.18572559
31.16098977
31.14507947
31.0168773
31.03005084
31.04674538
31.07245792
31.14097123
31.22862272
31.4138709
31.72973134
32.45726745
34.13504796
39.27107285
65.07588833
84.52178953
46.62948652
36.98127246
33.56645819
32.1996944
31.56251728
31.3137592
31.13269882
31.07174451
31.03850045
31.01857292
30.89767902
30.91335656
30.93524544
30.9717141
31.05078162
31.172219
31.42298488
31.86594491
32.87254303
35.21525359
42.53397717
81.69853525
168.5206135
59.21771875
40.50546238
34.68980526
32.54948619
31.61965377
31.27284665
31.04336033
30.96237081
30.91915519
30.89493203
30.78247065
30.80084253
30.82785859
30.87572216
30.97121704
31.12937508
31.4537717
32.02982273
33.28735484
36.10197018
44.41582453
88.1000351
210.7532603
70.02697609
43.98773377
35.83280667
32.91283336
31.69177029
31.24139161
30.96166627
30.85932146
30.80504478
30.77576114
30.67575335
30.69759728
30.73168499
30.79408561
30.90207584
31.09861903
31.50239222
32.20627162
33.66763074
36.78898198
45.7066904
97.70563306
209.1640656
76.0759165
46.47784316
36.74396196
33.23737833
31.76136106
31.21635817
30.88700394
30.76392734
30.69834321
30.66390678
30.57508871
30.59975191
30.63987846
30.71582916
30.84187257
31.07765328
31.56067981
32.38109124
34.00226538
37.34132383
46.87860065
109.0264382
192.0165785
77.90726797
47.70125776
37.29291224
33.46634955
31.81269214
31.1927141
30.81957178
30.67623996
30.5998173
30.55976691
30.48345726
30.51188874
30.56048907
30.65185518
30.78837112
31.06337678
31.61687794
32.54383244
34.27812032
37.78844798
48.22918713
117.8049873
932.9220432
163.5135812
76.88590074
47.85222486
37.43009662
33.5787694
31.83514863
31.16438861
30.75535449
30.5957442
30.50884382
30.46386231
30.39652075
30.42823873
30.48435668
30.58856282
30.74812943
31.06514753
31.71395751
32.72521611
34.56652837
38.28631536
50.10075433
161.3424347
566.2745709
152.0442649
74.63095612
47.07346287
37.27151771
33.59493393
31.82825275
31.12835268
30.69105896
30.51942464
30.42303543
30.37312662
30.31591928
30.35091396
30.41379193
30.52916752
30.70313626
31.05496641
31.77327262
32.90305223
34.90952526
38.85495256
51.61795579
383.2960146
400.635325
140.0472819
70.39758099
45.76891243
36.90968403
33.53695265
31.78969139
31.08111413
30.62585671
30.44497142
30.34064933
30.28709298
30.2359058
30.27392216
30.34284881
30.4690018
30.65743824
31.03958254
31.818518
33.11121735
35.4612991
40.11475688
56.4404016
688.7821952
330.4482994
123.6006289
64.63542336
44.02942223
36.45904659
33.41073988
31.72285953
31.02069612
30.55494001
30.36757204
30.25728328
30.20006346
30.15871037
30.19970357
30.27359326
30.40802298
30.60816641
31.01518598
31.84417634
33.29355741
36.25813361
42.81064304
78.22627092
985.7411168
234.7675026
102.4142316
58.14143055
42.24278336
36.05910313
33.25360738
31.63246534
30.94867017
30.47899788
30.28775767
30.17278183
30.11287921
30.07760804
30.12120904
30.19939145
30.3416192
30.55328491
30.98013992
31.84819558
33.3873677
37.05043712
47.95733092
176.8760041
753.3077409
170.2691539
84.08294049
52.99717133
40.9995164
35.71656526
33.07935089
31.52507739
30.86234213
30.39314141
30.19975584
30.082562
30.02068096
29.99698354
30.04304658
30.12464056
30.27199311
30.49145457
30.93330323
31.83688282
33.45389927
37.49588351
54.88424621
361.4364711
431.8266572
136.4393879
73.91460898
50.47108626
40.2788333
35.38592921
32.89491626
31.4059735
30.76527012
30.30030549
30.10682781
29.9884671
29.92571703
29.90936716
29.95733616
30.0419277
30.19453627
30.42219722
30.87503563
31.80629755
33.4995541
37.96248675
62.01892563
417.4682683
316.8905135
123.6788888
70.40829503
49.04916712
39.65785538
35.07692154
32.70807877
31.27919312
30.65906697
30.19845768
30.00546546
29.88687909
29.82389637
29.82208806
29.87163723
29.95844172
30.11369599
30.34543798
30.80636957
31.7605436
33.52718799
38.49615174
70.20933833
438.2317611
260.8732009
115.182766
67.70499846
47.91649394
39.12808656
34.79256822
32.52350486
31.14744519
30.54540886
30.09143518
29.90046183
29.78244895
29.71966634
29.72611004
29.77657714
29.8652915
30.02401957
30.26165679
30.72858121
31.70190265
33.54007832
39.15818819
77.54516516
433.0492163
227.9105145
108.5569478
65.56657931
47.03758701
38.6813086
34.53281157
32.34383771
31.01259844
30.42596013
29.97679221
29.7874259
29.67034023
29.60822877
29.63236233
29.68340266
29.77319439
29.93255949
30.17132465
30.6429695
31.63277907
33.54349078
40.03405018
83.47409179
415.4274302
206.2996213
103.3953761
63.88213328
46.35981682
38.30961413
34.29705328
32.17065347
30.87624559
30.30225515
29.86012306
29.67369638
29.55800084
29.49678606
29.52865651
29.57972742
29.67048611
29.83211036
30.07549149
30.55095744
31.55601116
33.54760263
41.07754611
87.88525702
393.7957313
191.0982035
99.35763333
62.55427431
45.83062636
38.00242403
34.08432336
32.0048985
30.73974193
30.17571629
29.73719073
29.55237465
29.43801041
29.37793136
29.43058136
29.48147471
29.57240685
29.7330801
29.97498449
30.4540762
31.47476987
33.56563838
42.11705203
90.82812859
371.557509
180.0029943
96.16370821
61.49841008
45.40888702
37.74710355
33.89279836
31.84703042
30.60412932
30.04748624
29.61573927
29.43410999
29.32139013
29.26247002
29.32057593
29.37094233
29.46222842
29.62465526
29.87113486
30.3537417
31.39209305
33.60747433
43.03259414
92.48761966
350.1423594
171.5106921
93.58859541
60.64380082
45.06509513
37.53187688
33.71992392
31.69696644
30.47010701
29.91857178
29.48812224
29.30742849
29.19598851
29.13829115
29.22096833
29.27074894
29.36165666
29.52201046
29.76455236
30.25113805
31.31059036
33.67374269
43.78565568
93.14666274
330.1375077
164.6727943
91.46097346
59.93594921
44.77873472
37.3474914
33.56301705
31.55426984
30.33812559
29.78964825
29.36587753
29.18839399
29.078524
29.02195099
29.10574839
29.15473255
29.24566844
29.40787679
29.65649342
30.14722583
31.23228178
33.75698363
44.37894786
93.04097744
311.6928766
158.938065
89.65914225
59.33594246
44.5356696
37.18715146
33.41962884
31.41832467
30.20842199
29.6613578
29.23551022
29.05791864
28.94905952
28.89359674
29.00749039
29.05573302
29.14602337
29.30535882
29.5470653
30.04282073
31.15844271
33.84690103
44.82667532
92.37750502
294.7447505
153.9914267
88.10018103
58.81694015
44.32606825
37.04594792
33.28771899
31.28851478
30.0811259
29.53394991
29.1157047
28.94138467
28.83387227
28.77936592
28.88724147
28.93458939
29.02472324
29.18632996
29.43754331
29.93860368
31.08957038
33.93466438
45.14847456
91.32468411
279.1714815
149.6262582
86.72532941
58.35983914
44.14277257
36.9202435
33.16561883
31.16426782
29.95629361
29.40789166
28.9827057
28.80707646
28.70028022
28.64671748
28.79335063
28.83995192
28.92938459
29.08762917
29.32743987
29.83513809
31.02557121
34.01491987
45.36854155
90.03474903
264.8312422
145.6930864
85.49134256
57.95057847
43.98038495
36.80728069
33.0519779
31.0450903
29.83395584
29.28313107
28.86867249
28.69642268
28.5906769
28.53787175
28.66710797
28.71279608
28.80190885
28.96272316
29.21835087
29.73291277
30.96589419
34.08438866
45.50519217
88.59513228
251.5775573
142.096103
84.36732401
57.57892847
43.83479651
36.7049167
32.94569354
30.9305434
29.71413456
29.16019463
28.73109849
28.55650289
28.45127348
28.3992615
28.58105053
28.62607441
28.71460793
28.87227134
29.10910749
29.63236618
30.90974326
34.1408858
45.5699824
87.04768831
239.2933864
138.7740477
83.33119647
57.23723059
43.70275073
36.61141142
32.84583344
30.82023052
29.59691035
29.03879341
28.6275807
28.45607505
28.35151788
28.30006025
28.44647105
28.49058089
28.57860172
28.73810946
29.00225041
29.53403239
30.85630965
34.18351538
45.57393026
85.43970658
227.884581
135.6841271
82.3667612
56.91953483
43.58154826
36.52530024
32.75161145
30.71384746
29.48256982
28.9199818
28.48032002
28.30655458
28.20245334
28.15167436
28.37233702
28.41594835
28.50362546
28.66217809
28.89604766
29.4386674
30.80502147
34.21196384
45.52549839
83.79778852
217.247029
132.7933726
81.46229191
56.6209731
43.46876463
36.44525366
32.66231262
30.61105777
29.37195248
28.8038105
28.39542932
28.22244961
28.11856335
28.06811001
28.20074895
28.24330469
28.33035367
28.49035831
28.79565245
29.34784682
30.75605301
34.22620571
45.43205837
82.15123792
207.316311
130.0822244
80.61293945
56.33916743
43.36275047
36.37033253
32.5775397
30.51177092
29.26738697
28.69396134
28.20692256
28.03160701
27.92798001
27.87816386
80.84120958
201.4259513
96.51365292
87.24918497
256.8083336
209.2623503
96.30930896
250.3285049
258.7113759
107.7483993
223.2258338
246.9009827
116.7822703
1168.016381
974.3231065
199.3759115
219.555633
142.424725
696.3774179
1138.97563
591.916862
193.5489529
197.0837265
61.37455848
50.84284394
87.99173349
46.90103481
679.9109972
219.2758795
158.9410904
65.60371781
51.87694777
44.04506682
74.32925853
70.04719238
2366.805416
1676.50475
208.3347091
81.61060679
70.17377633
45.44323226
80.03478846
74.92355077
91.08426347
257.4905744
235.5893549
1263.506214
1796.396075
210.8024963
90.27388
84.52570861
46.66604032
88.40270376
80.95542693
101.8197379
354.1654547
290.0720145
673.2173307
917.18982
47.98850588
98.80729538
89.4159031
110.6044204
517.6219493
423.2450269
2889.134148
426.1065614
497.1015489
49.89934497
118.4655387
100.3329755
125.5969842
1066.181509
720.3969018
154.0049336
520.2271522
685.6433141
209.1789609
240.9398719
126.4423731
202.5588158
1632.636348
719.691827
156.8798686
569.0140766
1123.991015
232.925971
214.9549197
84.65334916
279.248689
289.2023917
246.5188946
276.5922138
1820.543113
2366.819069
235.985768
1615.400377
1370.855584
1161.713607
1611.771201
232.9726043
287.0953562
261.1221838
92.25919202
329.9638233
370.3396147
291.1795247
326.8513506
962.7863386
1233.652878
257.0008177
912.6748373
704.141195
1353.921168
950.3840608
258.6237628
419.2668409
357.2867464
103.1862899
431.5892707
525.9933491
372.9799451
427.9144494
512.6438564
646.0508299
710.4344775
526.5409307
110.8559974
3785.97318
703.5745853
1041.858542
530.709369
688.5369756
4181.925302
389.6474021
418.8260366
2578.989161
8555.421939
1073.920109
126.8549718
805.8673596
1656.514127
7927.201194
1049.766215
1631.808974
830.1373448
41.8844897
69.2327588
57.31080303
74.45983851
164.3224717
109.4100837
4293.987715
753.0473078
84.13907283
212.6685841
190.7508527
6745.94704
194.6670208
92.72732229
91.40282196
6317.781261
975.0781707
1088.852581
727.1202212
344.1491207
376.1258932
188.0512545
168.3273632
76.54365342
1500.178102
316.5540428
699.4357546
180.532444
500.9354108
144.3630702
1112.119067
1445.876623
233.1063463
529.9518675
450.0530176
679.05564
545.2631832
236.9035154
1753.637677
4955.350742
997.3508656
86.92673135
68.69628587
113.442915
188.6628716
83.21539975
89.29769408
6225.924899
469.80875
4292.809053
549.1946105
3095.363557
421.2726502
1921.510236
1895.936745
1481.166953
1518.40822
2876.263562
5773.612753
764.6238758
3494.286506
1845.379432
6534.799696
4001.691928
800.3665504
456.86851
187.3227832
194.5673512
816.4943551
928.2828689
5771.809685
771.8822668
236.002215
248.3722155
221.0675403
231.3129811
769.1981631
1379.334766
1502.535564
223.7502305
981.3473033
820.5293649
1431.147338
980.9425599
227.7385487
166.2604737
519.2357699
247.2086105
734.7614063
553.0160363
178.5631818
729.3773795
1030.731299
1143.238981
1081.115155
278.1232633
1521.609451
278.3834858
261.4899345
1491.229454
1448.413202
1518.336689
1495.895924
265.4605194
1950.015671
1972.982911
1472.159206
476.7339349
465.4180692
477.8342123
478.5867407
1459.343934
1365.959229
423.8127474
387.4828355
459.2515873
434.6219192
1390.426033
348.4695095
351.0895948
306.1882636
308.3746527
1028.710124
6769.457589
1049.493317
459.5416813
465.9251449
400.0508944
403.8046563
1738.02251
1246.509835
579.114345
1539.189195
2651.025528
574.951315
208.255569
217.5523225
197.1964573
205.3728564
566.8963847
1968.02514
745.0226364
756.6426727
564.7460076
568.9929918
6448.812436
1402.394968
697.0327354
782.7737356
253.6546639
263.1997445
1302.290765
2622.172367
2520.341331
3506.947615
1080.816289
6983.753242
3723.208813
6093.645549
1076.899792
944.0972855
4588.475899
2962.76002
4985.044008
2728.254315
3584.085015
51.3404542
119.3879027
120.7001582
172.2589191
4263.116163
7998.465733
419.7527991
176.7339024
189.4671379
1444.365906
3998.300343
5184.901287
604.5257694
669.3887976
1308.642061
314.1677518
333.7936221
706.8550737
182.4858708
133.3707853
278.4844127
590.9960159
166.8387369
196.4394765
2229.000861
5620.126456
5789.570988
1787.25725
1359.211421
3984.023212
2841.22584
6718.118629
6555.812037
1706.468952
329.0044383
158.4686212
163.0211675
152.8736522
157.0226851
323.3572354
178.873704
185.189276
452.5707537
987.6942412
413.4001477
430.5992425
6716.370521
3510.320618
638.6571234
1416.321914
5202.139728
5625.427814
771.4404303
308.8398151
257.2571211
372.5187173
326.5421281
808.8604882
1879.674506
6673.196363
6732.075822
2239.46884
275.2643233
147.7285797
151.5655774
720.2537085
708.6900346
361.7937722
2671.621697
2433.21428
1153.927291
816.5427866
420.7923204
439.189654
1191.570822
466.0696036
475.855753
445.6482154
461.1907508
1166.019225
384.2901912
171.3501716
176.936757
164.6036866
169.5875603
380.1648397
442.6554168
1008.47716
1000.193969
1560.614662
1517.592793
506.4251811
383.3528931
754.352895
722.1534586
996.6337518
991.229165
417.425905
559.2832856
1197.127456
963.3920042
6523.790344
2896.751047
725.0086815
887.480054
544.8084211
1590.659675
1567.416804
1593.505098
609.4976038
5600.160233
8616.525859
327.2807368
364.8437954
436.9144502
452.0390763
1078.867204
2762.748227
1745.543953
740.0420995
1669.953449
8415.881414
2565.41024
2386.150401
15815.07166
1058.326261
1555.829499
2593.049119
3191.737519
2356.403207
6719.922672
6830.649584
1792.387115
2425.335258
6488.416288
1539.463091
1476.477596
482.1773777
1831.342925
761.5048187
1788.846609
527.9532898
5190.504427
3895.182668
1265.568888
5847.677778
6624.141617
5169.749481
3976.653163
1429.204561
5306.062672
6384.273141
3940.827786
5078.822057
6740.230781
2851.850457
3617.09806
2127.40132
2606.380516
6060.658598
6579.383154
1744.860018
1049.040491
2917.961713
1931.060092
939.8464213
577.4994624
1737.699987
6076.203662
7863.639742
2117.860993
1813.015412
5867.361486
6081.571069
4411.201103
4107.174954
1394.420109
6758.085063
6661.649383
5045.88892
6560.371924
6626.266143
1657.10736
6672.933503
4531.898615
4118.091169
4571.066047
2576.482418
1165.880564
1265.740762
5138.052163
1493.46161
1703.078972
1306.010794
1430.285487
4872.370437
4501.780332
1354.566848
1633.682129
388.3188848
407.5237698
902.4668827
744.2207859
369.9383694
383.5663181
1477.284688
1486.098558
976.9367471
380.8945106
400.6778769
356.0171823
375.0461455
971.2153778
1022.348393
443.7230245
478.2430737
407.4874024
433.5815784
1030.070025
672.030873
328.7864192
350.2534803
955.8250518
986.4554916
3754.170553
3886.307313
1342.261937
5418.738899
5625.041736
7075.724254
3923.204241
3265.619035
5521.637771
3868.647194
901.9967528
2687.001533
3601.210183
1552.111763
572.1480526
634.8696138
549.4091921
561.8379525
1521.29128
680.5952819
689.1897525
655.1456623
677.4984879
1478.545204
505.4630598
516.8713182
486.2703352
501.4255401
1472.255771
1508.51743
534.9773945
545.3754533
520.5832664
531.4312332
1507.867228
6534.754793
6625.31215
1898.732957
2144.380427
6853.555455
6507.416585
974.2299736
977.0965465
952.0553869
973.3612687
986.4571325
996.8427184
978.2961157
984.3981414
702.7176138
711.2702754
691.85567
699.8373124
748.0908704
911.56117
715.547939
726.5415862
2262.882739
2680.194754
1779.721479
2096.952563
7059.124155
4304.474803
4726.164318
2879.18449
4132.943271
1019.979518
1013.613847
446.6639975
1592.593813
1596.456847
1563.685114
1584.263757
1638.545741
496.0176519
1483.537655
1070.219222
964.886495
773.9855135
387.2304903
1041.118104
1476.936031
997.2583045
1050.710807
1532.090976
1553.127249
1495.322535
1523.175635
414.0225123
989.6783279
981.7971256
6685.065421
1851.2939
6671.279033
5860.187913
6649.465529
1993.968539
6725.913488
2612.380879
6461.265133
5676.083904
731.1397753
806.7898585
1621.241383
1595.523302
549.2314396
594.4110228
1680.877436
1623.521646
6409.105573
1115.964906
462.8404041
502.0569193
6411.937099
7226.725786
1737.015036
7850.567675
5892.421711
3021.015107
1059.623186
7003.310574
4431.559749
7661.337013
4809.72249
1501.923521
77.90496987
47.8382774
39.32549014
6503.233913
6477.301828
180.4218252
91.52909647
92.674232
6700.576948
1342.27187
3680.623043
2886.741945
438.6205389
364.6202964
210.5713883
483.2149277
309.4711955
768.9177294
2810.068005
449.5720904
528.0357718
62.27078375
75.48559117
162.2392248
590.4650509
1227.195392
1839.096611
247.31296
137.9914498
141.7652792
132.7230186
136.723218
244.2367546
1142.995796
1287.332031
4054.083055
918.6464419
805.1816436
464.1609269
353.5137089
365.8561177
739.589427
2007.696366
2583.038826
846.2016391
142.9474926
146.50603
271.7558627
338.0837454
680.2822109
656.9351737
636.3039975
573.5282548
317.9932518
636.6078624
336.5564816
349.39838
5235.193998
4966.096125
3488.087077
1596.193828
1575.855621
1021.058621
4630.640905
6364.650379
5793.326576
1900.630508
999.3004687
1112.57213
1659.458113
1054.116778
1627.278369
1615.306424
1630.610362
4655.087868
6545.866078
4517.6093
4897.540346
6256.750911
2176.937426
1716.058847
989.6919554
1513.96771
239.1433483
186.7963172
353.4043685
1220.454669
3422.865447
2433.227429
6515.538123
6850.497601
6984.777259
5865.044767
6675.253275
118.9924482
156.8276923
450.8170995
5031.198793
3220.215447
2449.837917
6854.798948
5241.383409
3168.463242
5205.79665
4825.601518
7031.319889
6695.132697
5187.743389
1054.625045
1139.198104
2355.301108
6693.310985
3974.601618
4386.88408
5176.727202
3613.358493
4030.916467
1426.874719
1855.135268
1499.215008
979.8861001
687.5499172
694.6494439
1397.717861
900.8540293
941.4218245
699.9514878
708.6029601
990.0546999
293.3118908
322.1491609
646.4703275
811.6814343
1403.513331
1046.048268
1524.586191
1576.198823
1038.798351
1831.54044
1365.713316
1412.982936
989.6103569
990.5408342
1524.147082
1495.22744
1505.170094
1441.451883
1459.199399
1485.559915
964.8659479
966.7669015
956.6171582
960.1270024
1458.195748
1515.120886
983.2501133
985.4258277
968.9819165
971.3166314
1500.054203
692.9746848
683.7540032
340.7302462
359.1684907
705.5524714
695.946049
546.1988184
536.0989356
299.5582436
1526.816542
1528.005672
1508.01268
1510.821405
1847.052241
1532.71919
1533.109579
315.4548951
563.097972
550.3379407
6810.079095
6747.033869
4569.621833
4825.931981
6727.774576
6832.084716
7061.743991
1129.482967
2336.447384
1933.441817
321.579788
332.49334
610.4645844
550.9157815
309.8154347
318.5200597
1049.742201
1049.884747
742.2175354
758.7680867
1056.271781
1060.454501
6411.516305
1375.821495
913.0705924
901.4654543
10967.92472
2142.193664
2898.148906
5395.502968
4656.213186
1688.026364
1669.106576
1068.128455
6777.442784
7335.852355
7028.154143
5655.830884
1130.217344
1729.127597
1678.100417
3739.294133
1570.281256
1930.24513
6395.742072
6322.616296
5234.255165
4936.217354
3274.804359
1579.080815
2400.052234
2168.230735
4454.166029
6486.903067
5744.593013
6569.92387
6339.003072
4894.065454
280.5562465
404.4801907
1523.206241
5880.210033
5736.654517
6040.6684
5991.988922
5710.817362
3732.711472
3716.321352
3740.806377
3732.497985
5703.443804
6744.14291
3790.208785
3826.745485
3616.685449
3733.87075
6845.847489
5397.019516
3422.229908
3088.866985
3695.417739
3609.963044
5511.012625
6652.20833
3920.542007
3955.853488
3866.842111
3889.803088
6698.487059
6199.074255
6077.980815
6281.364508
6038.415334
1007.135879
719.0769781
722.1397827
1548.167336
1008.895119
1011.977877
985.124709
1003.477532
1537.644191
6254.662878
6454.178091
5763.206061
6331.405563
1599.628764
1611.836126
1574.083413
1587.427133
2014.239127
971.3581717
1534.613394
1477.595656
1581.933078
1016.046258
1018.795028
1013.123952
1014.909308
1575.939027
1516.438558
1554.52606
1083.299711
1460.603115
1993.685871
6665.256366
6309.978897
5097.989066
6498.132888
821.7125086
1132.028646
13040.37717
1081.289259
757.2694723
759.6457747
1674.919765
8137.290069
8461.59234
9914.930448
6261.87693
6090.12589
1641.363178
1630.994304
1054.521259
1599.479205
3707.690207
5671.667236
3879.40868
4835.745857
3779.916454
1604.39382
5111.131287
3755.477449
6776.883297
7040.386827
6453.710313
5219.801098
5799.107389
1510.792604
1815.165549
1753.857923
848.4644201
1063.361757
1552.874643
1629.444724
1083.911998
1528.118137
2021.666532
6453.738597
6632.314027
6379.985157
5862.684181
6637.569681
6579.795574
6456.735883
4314.174938
5745.947466
5319.677291
6390.693276
6592.427365
4695.237921
4952.385847
5360.080618
6635.19035
5532.645967
4262.873972
4538.459061
4799.745029
3335.54273
4708.391495
2454.601648
3652.476501
5023.031964
5555.877164
5051.192507
6333.193813
3942.284597
3743.724863
5441.426817
3883.227552
5885.652767
5920.356373
3750.129953
3743.988932
3771.808602
3744.102915
5966.462802
4292.652249
2480.630885
2529.49317
6688.950126
6685.539593
5818.190109
7000.490038
6783.294836
6705.93507
6715.040909
6967.405771
5680.825174
2997.93316
3359.861087
2601.612564
2740.012435
4894.003844
6700.589584
5774.127777
3611.234706
6986.280534
6710.872152
6691.071409
4780.318468
6716.316645
6503.794348
3051.93694
3470.622981
5848.371409
1460.679753
1497.040948
754.1837754
829.0770185
1354.30107
987.095234
711.8799647
734.4887392
1506.001244
1478.394577
908.8811272
1576.665914
1917.92927
986.586047
1537.033276
1530.583443
3748.374395
2521.787526
2484.730872
2771.588036
2681.684399
3942.547096
5834.84441
5509.28884
3674.088155
5566.772079
5761.416482
5263.118903
5497.122722
3614.559154
5402.200703
5348.641317
6911.386989
5115.008585
1039.473642
1031.384011
1483.386478
1528.291083
998.6312126
994.6404093
1482.743324
1490.689154
1468.461467
1476.812187
962.9524337
964.1807802
1484.644872
1465.563045
961.1583703
961.9295185
977.8600939
980.0070871
1511.129239
1504.915941
973.8911704
975.9938824
6593.091221
4050.423947
4083.229601
3981.167775
4011.503568
6579.601172
6543.869516
4530.024694
5261.885964
4143.890821
4257.556157
6530.37011
975.2759192
1499.009993
1491.179489
1510.062196
1504.915849
976.0737575
967.4715881
1463.801459
1448.42883
1483.726893
1474.7996
971.7386148
990.211188
1543.661837
1536.15895
1554.643954
1547.315723
991.9481172
979.842044
1520.017449
1515.579796
1531.764206
1525.016942
981.5905915
1520.591445
1522.799864
705.4412096
982.2111662
980.8825605
985.8187615
984.7818634
708.7258172
1514.814005
1517.332868
1567.062423
1492.781374
767.2749089
1030.675523
1039.847883
1417.604393
1370.068061
839.1623546
717.2977453
990.0170185
989.7691337
994.6225654
998.4846891
725.5462886
1540.175878
1533.67909
6703.617934
6567.23363
6845.080045
5115.738075
5846.91093
4442.878549
6737.906671
6811.797698
6745.521157
6755.117646
4551.851349
3233.815424
5874.35022
5079.059773
6590.710584
6723.495807
3772.006914
1024.014893
739.0728211
740.4392964
727.470353
729.5464248
1013.847789
1592.905995
1604.332897
1568.296337
1582.003283
1552.880958
1947.712135
1426.759258
860.5400663
940.1487704
763.9883256
784.4478334
1060.187902
1392.913576
1889.940569
1516.528962
1444.557018
1006.891368
1565.388477
1554.979725
1596.489707
1558.691228
1003.085767
1538.202778
1547.607612
1506.026728
1515.801885
6441.193377
4623.596105
4859.559774
3694.569563
4234.501555
6526.247219
6670.847397
6495.448687
5211.835418
5793.277922
6939.586088
6282.265821
4972.595484
5200.707475
4183.892376
4582.878689
6455.734513
1639.411391
1640.426255
1624.686897
1627.791133
1097.376429
1108.248202
785.0190849
1694.603177
1605.730405
1655.854821
1647.4554
1609.009042
1025.908366
1032.363754
1020.248684
1024.550241
1605.760749
1639.035691
1043.286365
1094.241888
1033.523706
1046.094489
1642.155506
6226.074126
783.2568921
787.0940639
1117.434535
6301.212019
8731.014151
8976.617601
8890.750086
8725.190518
6881.412673
1688.047641
6918.259176
5212.070269
5577.020257
1066.472855
1661.871868
1648.314321
6948.481283
7519.4382
7307.728665
6072.400124
6585.960898
7984.520092
7612.577985
5162.453023
7214.020462
6329.674996
2039.831819
1649.337311
1119.775699
31.78490827
31.80679362
31.87732694
31.81571854
31.85238601
31.90025149
31.86581963
31.91554826
31.9335482
31.93188718
31.98520239
31.97110913
31.99933786
32.03346563
31.99925578
32.03798054
32.03781335
32.00331506
32.03072274
31.9960819
31.98246616
31.98249302
31.93270782
31.94639
31.91646777
31.86956774
31.91250869
31.85679251
31.82116077
31.88660305
31.69344199
31.73946372
31.78648185
31.75879945
31.83296283
31.84157178
31.86157197
31.96288536
31.91769753
31.99805572
32.11037631
31.99912251
32.13606178
32.20497432
32.05644888
32.22392179
32.21387012
32.0587385
32.18997944
32.11576918
32.01268415
32.08682086
31.98072754
31.9360253
31.94884495
31.85914689
31.86094298
31.83244953
31.76316513
31.80301655
31.63100325
31.71908957
31.72906672
31.75689909
31.90679198
31.83961578
31.96832902
32.18731644
31.99735689
32.26746037
32.53848731
32.16334163
32.59669816
32.77936321
32.30002385
32.83963487
32.81078597
32.28427244
32.72731191
32.53790541
32.1829825
32.46287276
32.20635468
32.02133878
32.12960706
31.9372428
31.86798178
31.88378379
31.75344293
31.75444829
31.60356973
31.76502013
31.72224218
31.83894607
32.13867746
31.9482474
32.27050134
32.78862349
32.29089314
33.00519814
33.87409579
32.69820685
34.09453335
34.89559663
33.06653528
35.07005931
34.90310102
33.04373025
34.52331187
33.82217957
32.74131251
33.56032708
32.84707656
32.33426165
32.64963468
32.20328728
31.98782991
32.08880162
31.82352492
31.76141815
31.62584603
31.9082832
31.79172737
32.04035829
32.61339594
32.23293451
32.88535058
34.15077379
33.03538101
34.79604639
38.3438975
34.37985443
39.86260128
47.24954625
36.04664007
47.86446437
44.49467514
35.81488922
41.7820031
37.63165989
34.3969721
36.57764684
34.36384613
33.16088315
33.84841588
32.78701663
32.32576985
32.54006465
32.00634932
31.85637172
31.70222029
32.14784322
31.95992416
32.36106227
33.34532992
32.77528014
33.8544617
36.57975016
34.66678615
38.27653987
54.69583328
40.10524393
49.10848508
57.00108502
45.71672729
73.69614723
69.51043022
51.44055776
55.10838378
47.67311558
44.11777607
43.9215411
37.37751041
35.01966152
36.13421623
33.80479576
33.01575399
33.3140958
32.33132673
32.07453973
31.82796932
32.46162698
32.22090422
32.76678407
34.20273705
33.55860741
34.96416703
39.17562261
37.28532599
40.24298928
43.57566595
42.28581495
68.61253979
79.5395203
74.57516148
117.1376018
79.59573576
65.06733177
56.04972695
41.89601012
38.47869092
39.48932154
35.22823866
34.14988884
34.38785839
32.78178849
32.43522664
31.98798644
32.8007262
32.54602494
33.18680906
34.97112103
34.40292633
35.90319675
40.93287961
39.68847435
43.11403379
47.3504735
46.61792696
82.63698886
98.98920632
97.56496875
190.9225723
113.2272433
101.2059802
67.78352007
46.66988993
43.22181764
43.07231503
36.76334746
35.64149897
35.55147485
33.27996576
32.90632749
32.16456275
33.13021065
32.8840128
33.57898481
35.60129298
35.1395634
36.6356542
42.10091011
41.25596325
44.79275065
49.47763447
48.99016043
89.01283569
118.3486429
114.9398365
213.5126646
131.0087148
126.4065894
75.06144829
50.28762911
47.82343778
45.89996626
38.04476459
37.15534293
36.53559684
33.72091286
33.39104205
32.34475631
33.43130152
33.20621445
33.92610776
36.11343654
35.73545527
37.21877175
43.03874471
42.33504894
46.05438775
51.22716165
50.7152056
99.08161398
134.9410165
131.817717
203.7232075