/*--------------------------------*- C++ -*----------------------------------*\
| =========                 |                                                 |
| \\      /  F ield         | OpenFOAM: The Open Source CFD Toolbox           |
|  \\    /   O peration     | Version:  v1912                                 |
|   \\  /    A nd           | Website:  www.openfoam.com                      |
|    \\/     M anipulation  |                                                 |
\*---------------------------------------------------------------------------*/
FoamFile
{
    version     2.0;
    format      ascii;
    class       pointVectorField;
    location    "1.49";
    object      pointDisplacement;
}
// * * * * * * * * * * * * * * * * * * * * * * * * * * * * * * * * * * * * * //

dimensions      [0 1 0 0 0 0 0];


internalField   nonuniform List<vector> 
26316
(
(0 0 0)
(0 0 0)
(0 0 0)
(0 0 0)
(0 0 0)
(0 0 0)
(0 0 0)
(0 0 0)
(0 0 0)
(0 0 0)
(0 0 0)
(0 0 0)
(0 0 0)
(0 0 0)
(0 0 0)
(0 0 0)
(0 0 0)
(0 0 0)
(0 0 0)
(0 0 0)
(0 0 0)
(0 0 0)
(0 0 0)
(0 0 0)
(0 0 0)
(0 0 0)
(0 0 0)
(0 0 0)
(0 0 0)
(0 0 0)
(0 0 0)
(0 0 0)
(0 0 0)
(0 0 0)
(0 0 0)
(0 0 0)
(0 0 0)
(0 0 0)
(0 0 0)
(0 0 0)
(0 0 0)
(0 0 0)
(0 0 0)
(0 0 0)
(0 0 0)
(0 0 0)
(0 0 0)
(0 0 0)
(0 0 0)
(0 0 0)
(0 0 0)
(0 0 0)
(0 0 0)
(0 0 0)
(0 0 0)
(0 0 0)
(0 0 0)
(0 0 0)
(0 0 0)
(0 0 0)
(0 0 0)
(0 0 0)
(0 0 0)
(0 0 0)
(0 0 0)
(0 0 0)
(0 0 0)
(0 0 0)
(0 0 0)
(0 0 0)
(0 0 0)
(0 0 0)
(0 0 0)
(0 0 0)
(0 0 0)
(0 0 0)
(0 0 0)
(0 0 0)
(0 0 0)
(0 0 0)
(0 0 0)
(0 0 0)
(0 0 0)
(0 0 0)
(0 0 0)
(0 0 0)
(0 0 0)
(0 0 0)
(0 0 0)
(0 0 0)
(0 0 0)
(0 0 0)
(0 0 0)
(0 0 0)
(0 0 0)
(0 0 0)
(0 0 0)
(0 0 0)
(0 0 0)
(0 0 0)
(0 0 0)
(0 0 0)
(0 0 0)
(0 0 0)
(0 0 0)
(0 0 0)
(0 0 0)
(0 0 0)
(0 0 0)
(0 0 0)
(0 0 0)
(0 0 0)
(0 0 0)
(0 0 0)
(0 0 0)
(0 0 0)
(0 0 0)
(0 0 0)
(0 0 0)
(-9.257636056e-07 2.300384581e-06 2.775557562e-17)
(0 0 0)
(0 0 0)
(-5.097575482e-07 2.576677705e-05 3.330669074e-16)
(2.359183889e-06 2.190483711e-05 2.91433544e-16)
(0 0 0)
(0 0 0)
(0 0 0)
(0 0 0)
(0 0 0)
(0 0 0)
(0 0 0)
(0 0 0)
(0 0 0)
(0 0 0)
(0 0 0)
(0 0 0)
(0 0 0)
(0 0 0)
(0 0 0)
(0 0 0)
(0 0 0)
(0 0 0)
(0 0 0)
(0 0 0)
(0 0 0)
(0 0 0)
(0 0 0)
(0 0 0)
(0 0 0)
(0 0 0)
(0 0 0)
(0 0 0)
(0 0 0)
(0 0 0)
(0 0 0)
(0 0 0)
(0 0 0)
(0 0 0)
(0 0 0)
(0 0 0)
(0 0 0)
(0 0 0)
(0 0 0)
(0 0 0)
(0 0 0)
(0 0 0)
(0 0 0)
(0 0 0)
(0 0 0)
(0 0 0)
(0 0 0)
(0 0 0)
(0 0 0)
(0 0 0)
(0 0 0)
(0 0 0)
(0 0 0)
(0 0 0)
(0 0 0)
(0 0 0)
(0 0 0)
(0 0 0)
(0 0 0)
(0 0 0)
(0 0 0)
(-5.767249105e-05 1.947451028e-05 4.996003611e-16)
(-0.0003318038665 0.0001222794525 3.080868893e-15)
(-4.340294134e-06 1.960279752e-06 4.163336342e-17)
(-0.0006293819714 0.0003904470872 8.021361353e-15)
(-0.001559916647 0.0007935200828 1.994238108e-14)
(-0.001847837312 0.001075910144 2.700617507e-14)
(-0.0008640509053 0.0006125526343 1.257327575e-14)
(-0.001045158098 0.001291595823 2.650657471e-14)
(-0.001820472884 0.001859456333 4.66710004e-14)
(-0.001508307665 0.002053363899 5.158373728e-14)
(-0.0008959656453 0.001469607725 3.015643291e-14)
(-2.327582464e-05 0.001715714631 3.526345882e-14)
(-9.127867397e-06 0.002312381077 5.831446437e-14)
(0.0005449915041 0.002279399324 5.755118604e-14)
(0.0003111229836 0.00168652119 3.469446952e-14)
(0.001002590612 0.001290650101 2.658984144e-14)
(0.001785822161 0.001847263633 4.680977828e-14)
(0.001949137557 0.001613224401 4.091171846e-14)
(0.00105159561 0.001080274045 2.225997164e-14)
(0.0006159046081 0.0003943672354 8.118505868e-15)
(0.001531045676 0.0007939016898 2.012279232e-14)
(0.001150434601 0.0005308708092 1.344757639e-14)
(0.0003595611174 0.0002045758627 4.218847494e-15)
(0 0 0)
(6.050712622e-05 2.096631712e-05 5.273559367e-16)
(0 0 0)
(0 0 0)
(0 0 0)
(0 0 0)
(0 0 0)
(0 0 0)
(0 0 0)
(0 0 0)
(0 0 0)
(0 0 0)
(0 0 0)
(0 0 0)
(0 0 0)
(0 0 0)
(0 0 0)
(0 0 0)
(0 0 0)
(0 0 0)
(0 0 0)
(0 0 0)
(0 0 0)
(0 0 0)
(0 0 0)
(0 0 0)
(0 0 0)
(0 0 0)
(0 0 0)
(0 0 0)
(0 0 0)
(0 0 0)
(0 0 0)
(0 0 0)
(0 0 0)
(0 0 0)
(0 0 0)
(0 0 0)
(0 0 0)
(0 0 0)
(0 0 0)
(0 0 0)
(0 0 0)
(0 0 0)
(0 0 0)
(0 0 0)
(0 0 0)
(0 0 0)
(-0.0001610677521 3.632922739e-06 1.026956298e-15)
(-0.0008795164397 2.171712138e-05 6.022959909e-15)
(-0.0002084117286 1.789226646e-05 1.429412144e-15)
(-0.002966098536 0.0003272521966 2.541022948e-14)
(-0.004737089198 0.0001651294462 4.067579606e-14)
(-0.006030604128 0.0002386199987 5.663525204e-14)
(-0.004070906821 0.0004958552133 3.810840532e-14)
(-0.00627580131 0.001082910202 8.15042478e-14)
(-0.008272822872 0.0004862364993 1.080663337e-13)
(-0.008277967954 0.0005616254293 1.243172232e-13)
(-0.006420178628 0.001274937826 9.57289803e-14)
(-0.004899970311 0.001728123582 1.310063169e-13)
(-0.006036147241 0.0007073010367 1.636607516e-13)
(-0.004670606694 0.0007229888442 1.725702914e-13)
(-0.003839276348 0.001821412662 1.391525783e-13)
(0.0002341145309 0.001900693165 1.500188862e-13)
(0.0003857393934 0.0006765147263 1.84366411e-13)
(0.002143640149 0.0006379928545 1.831035323e-13)
(0.001663611487 0.00186342638 1.488253965e-13)
(0.005217469518 0.001591983515 1.312838727e-13)
(0.006600802222 0.0004906810313 1.639799407e-13)
(0.007593171238 0.0004398002929 1.528360771e-13)
(0.005959705781 0.001459094244 1.211808431e-13)
(0.006332488818 0.0009798148279 8.192058143e-14)
(0.008439829279 0.0002976320986 1.08565934e-13)
(0.007963674114 0.0002539836386 9.148237723e-14)
(0.005821560578 0.000806421791 6.719624857e-14)
(0.002952360608 0.000315453555 2.57294186e-14)
(0.004727425215 0.000125977568 4.110600749e-14)
(0.003337076003 8.575400936e-05 2.682576383e-14)
(0.001851128232 0.0001843135749 1.490474411e-14)
(0 0 0)
(0.0001599231857 3.616299003e-06 1.040834086e-15)
(0 0 0)
(0 0 0)
(0 0 0)
(0 0 0)
(0 0 0)
(0 0 0)
(0 0 0)
(0 0 0)
(0 0 0)
(0 0 0)
(0 0 0)
(0 0 0)
(0 0 0)
(0 0 0)
(0 0 0)
(0 0 0)
(0 0 0)
(0 0 0)
(0 0 0)
(0 0 0)
(0 0 0)
(0 0 0)
(0 0 0)
(0 0 0)
(0 0 0)
(0 0 0)
(0 0 0)
(0 0 0)
(0 0 0)
(0 0 0)
(0 0 0)
(0 0 0)
(0 0 0)
(0 0 0)
(0 0 0)
(0 0 0)
(0 0 0)
(0 0 0)
(0 0 0)
(-6.930096046e-05 -1.23629211e-05 3.747002708e-16)
(0 0 0)
(-0.002946235163 -0.0004402072627 1.892930257e-14)
(-0.004376809008 -0.0009050352628 2.81163981e-14)
(-0.00684003935 -0.00149644421 4.696243394e-14)
(-0.005025797158 -0.0007937284754 3.450018049e-14)
(-0.01141529085 -0.002198295505 9.875433804e-14)
(-0.01383540684 -0.003720050226 1.199318422e-13)
(-0.01541982365 -0.004514260202 1.464522947e-13)
(-0.01299184302 -0.002716806891 1.230959779e-13)
(-0.01458277234 -0.004220968322 1.933592175e-13)
(-0.01658943736 -0.006757920358 2.207123373e-13)
(-0.0157421053 -0.007408885245 2.415012634e-13)
(-0.01397849196 -0.004671850561 2.136346655e-13)
(-0.009267889577 -0.005784818976 2.593758541e-13)
(-0.01019690324 -0.008950905831 2.869371407e-13)
(-0.007628105156 -0.009315634627 2.962213808e-13)
(-0.006976365911 -0.006061453309 2.6906255e-13)
(0.0008995051161 -0.006568710766 2.814692923e-13)
(0.001030142681 -0.009956099881 3.078787225e-13)
(0.003975480088 -0.01001251531 3.06671355e-13)
(0.003589271151 -0.006617891653 2.801647803e-13)
(0.01075012706 -0.006340484751 2.597644322e-13)
(0.01194395861 -0.009632127958 2.87311841e-13)
(0.01404231237 -0.009291870398 2.751965322e-13)
(0.01256863457 -0.006088704197 2.473299343e-13)
(0.015302189 -0.00484600139 1.940669847e-13)
(0.01751790503 -0.007569000986 2.213090822e-13)
(0.01752886887 -0.006784145925 1.982025655e-13)
(0.01514572936 -0.004293125372 1.718625242e-13)
(0.01147197422 -0.002439257182 9.878209362e-14)
(0.01431197722 -0.004190680956 1.225131108e-13)
(0.012312158 -0.003336469869 9.75469705e-14)
(0.009750642391 -0.001915123206 7.754907827e-14)
(0.003367319334 -0.0005321555396 2.188527137e-14)
(0.005034755636 -0.001095929141 3.26683125e-14)
(0.002838851096 -0.0005786225329 1.736111255e-14)
(0.001621794158 -0.0002398216179 9.922618283e-15)
(0 0 0)
(0 0 0)
(0 0 0)
(0 0 0)
(0 0 0)
(0 0 0)
(0 0 0)
(0 0 0)
(0 0 0)
(0 0 0)
(0 0 0)
(0 0 0)
(0 0 0)
(0 0 0)
(0 0 0)
(0 0 0)
(0 0 0)
(0 0 0)
(0 0 0)
(0 0 0)
(0 0 0)
(0 0 0)
(0 0 0)
(0 0 0)
(0 0 0)
(0 0 0)
(0 0 0)
(0 0 0)
(0 0 0)
(0 0 0)
(0 0 0)
(0 0 0)
(0 0 0)
(0 0 0)
(0 0 0)
(-0.0003202898717 -9.888781408e-05 1.637578961e-15)
(-0.0007283376624 -0.000258492154 3.73312492e-15)
(-0.002585995223 -0.0009631466602 1.396105453e-14)
(-0.001738793286 -0.0005635244953 9.381384558e-15)
(-0.01019266116 -0.003871061096 6.541989173e-14)
(-0.01205442819 -0.005264699303 7.73964226e-14)
(-0.01551568251 -0.007200144265 1.064148769e-13)
(-0.01345614677 -0.005427153386 9.225953335e-14)
(-0.02110611141 -0.0105423267 1.824512763e-13)
(-0.02330177393 -0.01344035336 2.013111899e-13)
(-0.02448957838 -0.01541719973 2.316341563e-13)
(-0.02239053863 -0.01219578242 2.120803533e-13)
(-0.02185456258 -0.01661432946 2.907257768e-13)
(-0.02321643217 -0.02034006943 3.075317778e-13)
(-0.02131551725 -0.02155518244 3.255312686e-13)
(-0.02013277589 -0.01767693788 3.086558786e-13)
(-0.01228344043 -0.01998716655 3.448213937e-13)
(-0.01273606604 -0.02371916445 3.543693117e-13)
(-0.00936204701 -0.02405762141 3.577416141e-13)
(-0.009072784669 -0.02041998735 3.503863866e-13)
(0.001098543286 -0.0211144691 3.559652573e-13)
(0.001002818364 -0.02456416143 3.596567488e-13)
(0.004470606233 -0.02469302665 3.596012377e-13)
(0.004520295441 -0.02121471209 3.554795347e-13)
(0.01443116404 -0.02099994906 3.455569164e-13)
(0.01478645392 -0.02477930691 3.548550342e-13)
(0.01790455129 -0.02450118662 3.490124856e-13)
(0.01733780692 -0.02062206641 3.374245328e-13)
(0.02331050644 -0.01805149163 2.913502772e-13)
(0.02477130933 -0.02202443238 3.086003675e-13)
(0.02587890312 -0.0206668805 2.882138972e-13)
(0.02409488328 -0.01674566676 2.688127498e-13)
(0.02207106957 -0.01170796295 1.876415689e-13)
(0.02432632742 -0.01481240663 2.06668016e-13)
(0.02223680706 -0.01251875859 1.751654377e-13)
(0.01994157548 -0.009776146769 1.572075803e-13)
(0.01081029254 -0.004284696877 6.993017276e-14)
(0.01274506813 -0.005809943508 8.237854843e-14)
(0.00917879036 -0.003926928431 5.595524044e-14)
(0.007518791014 -0.002795486142 4.587996649e-14)
(0.0004955493273 -0.0001553744958 2.581268532e-15)
(0.0008513583919 -0.0003074535582 4.427014311e-15)
(2.160991253e-05 -7.428383995e-06 1.110223025e-16)
(0 0 0)
(0 0 0)
(0 0 0)
(0 0 0)
(0 0 0)
(0 0 0)
(0 0 0)
(0 0 0)
(0 0 0)
(0 0 0)
(0 0 0)
(0 0 0)
(0 0 0)
(0 0 0)
(0 0 0)
(0 0 0)
(0 0 0)
(0 0 0)
(0 0 0)
(0 0 0)
(0 0 0)
(0 0 0)
(0 0 0)
(0 0 0)
(0 0 0)
(0 0 0)
(0 0 0)
(0 0 0)
(0 0 0)
(-3.048715182e-05 -1.629413213e-05 1.387778781e-16)
(-8.319125311e-07 -4.094394801e-07 0)
(0 0 0)
(-0.002286169762 -0.001127743239 1.171285291e-14)
(-0.0028854035 -0.001556218231 1.477984402e-14)
(-0.005983579293 -0.003386417628 3.227973444e-14)
(-0.005105201506 -0.002642631447 2.753353101e-14)
(-0.01653602853 -0.01005403804 1.061373212e-13)
(-0.01799964028 -0.01196981891 1.154909501e-13)
(-0.02183621181 -0.01544425065 1.496303081e-13)
(-0.02068482562 -0.01336969612 1.418309914e-13)
(-0.02843417349 -0.02289162395 2.451094883e-13)
(-0.02962337693 -0.02609226215 2.549627176e-13)
(-0.03033926512 -0.02917669192 2.853828285e-13)
(-0.02925915361 -0.02572583527 2.757655215e-13)
(-0.02616370028 -0.03192085425 3.415046024e-13)
(-0.02675207603 -0.0356463444 3.476663402e-13)
(-0.02398821834 -0.03665366289 3.566869022e-13)
(-0.02360520534 -0.03305947255 3.531619441e-13)
(-0.01348683022 -0.0338513941 0)
(-0.01375226649 -0.03720941087 0)
(-0.01200407247 -0.03724545568 0)
(-0.01015910634 -0.03720907624 0)
(-0.01001224218 -0.03554737288 0)
(-0.009934795596 -0.03392347034 0)
(0.0006325011188 -0.03425754739 0)
(0.0005712333281 -0.03587290158 0)
(0.002340968793 -0.03593860695 0)
(0.002392646439 -0.03432304114 0)
(0.01485799007 -0.03492967224 0)
(0.01484788101 -0.0365907228 0)
(0.01484934863 -0.03827795264 0)
(0.01660785895 -0.03839547228 0)
(0.0183420268 -0.03848004554 0)
(0.01839178783 -0.03514551084 0)
(0.02751137394 -0.03406127101 3.438777041e-13)
(0.02789396735 -0.03782243529 3.497341305e-13)
(0.02996301168 -0.03639001416 3.357036871e-13)
(0.02935182479 -0.03256710152 3.280847816e-13)
(0.02951762655 -0.02494409387 2.509381591e-13)
(0.0305605215 -0.0282611243 2.600142324e-13)
(0.02897752271 -0.02479329369 2.283451206e-13)
(0.02767575893 -0.02163850443 2.179922909e-13)
(0.01780130207 -0.0113086001 1.148942053e-13)
(0.01946714422 -0.01352773857 1.256494908e-13)
(0.01532733621 -0.01000462676 9.328648964e-14)
(0.01380482446 -0.008237306118 8.403000518e-14)
(0.003069245585 -0.001545180646 1.594557819e-14)
(0.003836579718 -0.002113054592 1.992850329e-14)
(0.001374184236 -0.0007194955697 6.800116026e-15)
(0.0009349531683 -0.0004475029514 4.635181128e-15)
(0 0 0)
(0 0 0)
(0 0 0)
(0 0 0)
(0 0 0)
(0 0 0)
(0 0 0)
(0 0 0)
(0 0 0)
(0 0 0)
(0 0 0)
(0 0 0)
(0 0 0)
(0 0 0)
(0 0 0)
(0 0 0)
(0 0 0)
(0 0 0)
(0 0 0)
(0 0 0)
(0 0 0)
(0 0 0)
(0 0 0)
(0 0 0)
(0 0 0)
(0 0 0)
(0 0 0)
(0 0 0)
(-0.0002747031367 -0.0001933154358 1.290634266e-15)
(-0.0001565459131 -0.0001035363276 7.21644966e-16)
(-0.0001280682098 -7.92899876e-05 5.967448757e-16)
(-0.004145937512 -0.002811842057 2.123301535e-14)
(-0.004299915002 -0.003115237231 2.201017146e-14)
(-0.007959353946 -0.006051582965 4.288236433e-14)
(-0.007748518783 -0.00551479754 4.175826351e-14)
(-0.02080695469 -0.01740799249 1.332128852e-13)
(-0.02114596446 -0.01890068038 1.352806756e-13)
(-0.02515835316 -0.02391748488 1.716959908e-13)
(-0.02479336973 -0.02206288003 1.69392278e-13)
(-0.03207496827 -0.03551697407 2.743499872e-13)
(-0.03243592453 -0.03834825572 2.768618668e-13)
(-0.0328263677 -0.04231874376 3.056443987e-13)
(-0.03249191617 -0.03924549404 3.032990525e-13)
(-0.02775450729 -0.04619239971 3.558126016e-13)
(-0.02794587381 -0.04956026346 3.566869022e-13)
(-0.02472369856 -0.05009119162 0)
(-0.02459457285 -0.04680290627 3.596567488e-13)
(-0.01424547166 -0.04715638761 0)
(-0.01431824458 -0.04882282624 0)
(-0.01259432304 -0.04887807567 0)
(-0.01252180071 -0.04721425693 0)
(0.01458867135 -0.04819825136 0)
(0.01453601543 -0.04984926038 0)
(0.01625884719 -0.04992129867 0)
(0.01631322503 -0.04827280174 0)
(0.02824906594 -0.04855275067 3.578942698e-13)
(0.02819757538 -0.0519342934 3.587546926e-13)
(0.03098578882 -0.05099198971 3.51468854e-13)
(0.0309223783 -0.04751685254 3.494704526e-13)
(0.03344042547 -0.03895944848 2.858824288e-13)
(0.03380145946 -0.04211449394 2.896294315e-13)
(0.0326144005 -0.03755191565 2.584460423e-13)
(0.03218398159 -0.03466091862 2.545741395e-13)
(0.02283405301 -0.01995140955 1.475763955e-13)
(0.02333930587 -0.02179168026 1.509764536e-13)
(0.01894432502 -0.01661581168 1.154631946e-13)
(0.01846273708 -0.01515371879 1.124655924e-13)
(0.005566366739 -0.003856238683 2.889355422e-14)
(0.006285563166 -0.004655524625 3.264055692e-14)
(0.002997262854 -0.002110065307 1.482147738e-14)
(0.002467398623 -0.001624821291 1.221245327e-14)
(0 0 0)
(0 0 0)
(0 0 0)
(0 0 0)
(0 0 0)
(0 0 0)
(0 0 0)
(0 0 0)
(0 0 0)
(0 0 0)
(0 0 0)
(0 0 0)
(0 0 0)
(0 0 0)
(0 0 0)
(0 0 0)
(0 0 0)
(0 0 0)
(0 0 0)
(0 0 0)
(0 0 0)
(0 0 0)
(0 0 0)
(0 0 0)
(0 0 0)
(0 0 0)
(0 0 0)
(0 0 0)
(-0.0004509465411 -0.0003935292105 2.095545959e-15)
(-0.0004072932319 -0.0003382509733 1.887379142e-15)
(-0.0003573107293 -0.000281654524 1.665334537e-15)
(-0.005109739827 -0.004411550345 2.615963002e-14)
(-0.005283975237 -0.00480646191 2.703393065e-14)
(-0.009214146963 -0.00879625286 4.959921363e-14)
(-0.008995525495 -0.008150875407 4.843347945e-14)
(-0.02248980069 -0.02395339135 1.435379593e-13)
(-0.02277023402 -0.02554636275 1.452171716e-13)
(-0.02676797647 -0.03192668912 1.819239204e-13)
(-0.02648776837 -0.02999641094 1.802169525e-13)
(-0.03348676349 -0.04705841814 2.839950497e-13)
(-0.03372439321 -0.04987286479 2.853828285e-13)
(-0.03395114346 -0.05466002368 3.12819215e-13)
(-0.03373678057 -0.05163451084 3.116673586e-13)
(-0.02841414563 -0.05952003752 3.580608032e-13)
(-0.0285495663 -0.06280532468 3.582828478e-13)
(-0.02521006602 -0.06317153673 0)
(-0.02509082345 -0.05990951159 0)
(-0.0147594433 -0.06029795083 0)
(-0.01482009032 -0.0619300602 0)
(-0.01310083059 -0.06199446051 0)
(-0.01303995676 -0.06036235972 0)
(0.01412925413 -0.06136865342 0)
(0.01406748765 -0.06301033546 0)
(0.01578638202 -0.06307638753 0)
(0.01584841942 -0.06143554855 0)
(0.02789334746 -0.06189217912 3.596151155e-13)
(0.02776875292 -0.06517486795 3.596567488e-13)
(0.03085631056 -0.06454245304 3.555211681e-13)
(0.03093424383 -0.06121090481 3.549660565e-13)
(0.03469316913 -0.05175277306 2.99413272e-13)
(0.03481546614 -0.05481838921 3.012590177e-13)
(0.03400924466 -0.04941828707 2.716993297e-13)
(0.03381506604 -0.0465688101 2.695621504e-13)
(0.0251512441 -0.02803898286 1.631611513e-13)
(0.02550278916 -0.02997569297 1.656175197e-13)
(0.02116795696 -0.02336089397 1.293964935e-13)
(0.02079668974 -0.02177102502 1.270233918e-13)
(0.007206058082 -0.006364007475 3.744227151e-14)
(0.00749834841 -0.006979661109 3.896882816e-14)
(0.003866789929 -0.003420762468 1.913746939e-14)
(0.00364550854 -0.003059935428 1.804112415e-14)
(0 0 0)
(0 0 0)
(0 0 0)
(0 0 0)
(0 0 0)
(0 0 0)
(0 0 0)
(0 0 0)
(0 0 0)
(0 0 0)
(0 0 0)
(0 0 0)
(0 0 0)
(0 0 0)
(0 0 0)
(0 0 0)
(0 0 0)
(0 0 0)
(0 0 0)
(0 0 0)
(0 0 0)
(0 0 0)
(0 0 0)
(0 0 0)
(0 0 0)
(0 0 0)
(0 0 0)
(0 0 0)
(-0.0006652266889 -0.0006926889817 3.094746681e-15)
(-0.0005997406335 -0.0005992142126 2.789435349e-15)
(-0.0005414362133 -0.0005181514732 2.525757381e-15)
(-0.005718134237 -0.005993701465 2.92543767e-14)
(-0.005894011966 -0.006449820779 3.014255512e-14)
(-0.009972899999 -0.01145159811 5.363764988e-14)
(-0.009755630566 -0.01073073743 5.248579349e-14)
(-0.02346797375 -0.03031162052 1.492972412e-13)
(-0.02374232607 -0.03200194342 1.509070646e-13)
(-0.02774463671 -0.03972745844 1.877248357e-13)
(-0.02747072374 -0.03770053092 1.860733789e-13)
(-0.03434572418 -0.05829073944 2.887412531e-13)
(-0.03457785515 -0.06117486065 2.900457652e-13)
(-0.03473186658 -0.06678756759 3.1667724e-13)
(-0.03452274143 -0.06370836767 3.156086503e-13)
(-0.02893819327 -0.07262881239 3.587408148e-13)
(-0.02906768749 -0.07590730385 3.589073483e-13)
(-0.02568100783 -0.07619238313 0)
(-0.02556383032 -0.07293891064 0)
(-0.01523916718 -0.07332679278 0)
(-0.015298591 -0.0749525889 0)
(-0.01358166057 -0.07501652249 0)
(-0.0135517946 -0.07420355455 0)
(-0.01352195438 -0.07339126701 0)
(0.01361676588 -0.07448703014 0)
(0.01355024443 -0.07612232404 0)
(0.01526727621 -0.07618558009 0)
(0.01533400443 -0.07455082397 0)
(0.02737042929 -0.07498858681 3.596289933e-13)
(0.02723096381 -0.07823724248 3.595596043e-13)
(0.03026641953 -0.07728749324 3.546885008e-13)
(0.03043746823 -0.07417008379 3.551464678e-13)
(0.03439383932 -0.06277686134 3.000100168e-13)
(0.0341758115 -0.06525708441 2.989275494e-13)
(0.0333830721 -0.05872779546 2.69131939e-13)
(0.03360183801 -0.05653042888 2.702837953e-13)
(0.02515970606 -0.0341469487 1.639660629e-13)
(0.02497218609 -0.03540649101 1.629252289e-13)
(0.02068246861 -0.02751362666 1.268707361e-13)
(0.02085145404 -0.0265571836 1.278005479e-13)
(0.007293428016 -0.007829566044 3.794187187e-14)
(0.007197416682 -0.008068096673 3.745614929e-14)
(0.003646814408 -0.003884987942 1.806887973e-14)
(0.003714321557 -0.00378944186 1.840194663e-14)
(0 0 0)
(0 0 0)
(0 0 0)
(0 0 0)
(0 0 0)
(0 0 0)
(0 0 0)
(0 0 0)
(0 0 0)
(0 0 0)
(0 0 0)
(0 0 0)
(0 0 0)
(0 0 0)
(0 0 0)
(0 0 0)
(0 0 0)
(0 0 0)
(0 0 0)
(0 0 0)
(0 0 0)
(0 0 0)
(0 0 0)
(0 0 0)
(0 0 0)
(0 0 0)
(0 0 0)
(0 0 0)
(-0.00095271012 -0.001152725521 4.440892099e-15)
(-0.0008748290433 -0.001021619684 4.080069615e-15)
(-0.000799505649 -0.0008999484554 3.719247132e-15)
(-0.006444269687 -0.007942737035 3.295974604e-14)
(-0.006638251651 -0.008487278954 3.394506898e-14)
(-0.01088299966 -0.01459608143 5.846712003e-14)
(-0.01064723222 -0.01376717306 5.721811913e-14)
(-0.02458446924 -0.03726949771 1.558475571e-13)
(-0.02487557374 -0.03909765148 1.575406472e-13)
(-0.02887266545 -0.0481670995 1.944139294e-13)
(-0.02858353741 -0.04600362982 1.927069615e-13)
(-0.03528337224 -0.06997395041 2.939731791e-13)
(-0.03552377183 -0.07295896517 2.953054468e-13)
(-0.03557883433 -0.07930028556 3.209793542e-13)
(-0.03536457561 -0.07614163652 3.198968868e-13)
(-0.02944893907 -0.08574499448 3.592959263e-13)
(-0.02957339179 -0.08902196118 3.594069486e-13)
(-0.02614652642 -0.08921396478 0)
(-0.02603071378 -0.08595854791 0)
(-0.01571238392 -0.08634573604 0)
(-0.01577088217 -0.08797308139 0)
(-0.01405690303 -0.08803697896 0)
(-0.01402746491 -0.08722331345 0)
(-0.0139979569 -0.08640980199 0)
(0.01307252749 -0.08755014877 0)
(0.01300140465 -0.08918299722 0)
(0.01471683904 -0.08924445149 0)
(0.01478832271 -0.08761207095 0)
(0.02675462854 -0.08781396535 3.587130593e-13)
(0.02656241953 -0.09088075299 3.579914143e-13)
(0.02929468136 -0.08878991742 3.493733081e-13)
(0.02959469003 -0.08612511096 3.514133429e-13)
(0.03285703589 -0.07109198116 2.896988205e-13)
(0.03213683403 -0.07226401391 2.840505609e-13)
(0.03127371475 -0.06467471588 2.543243394e-13)
(0.03186681155 -0.06343095694 2.58598698e-13)
(0.02310721109 -0.03695647354 1.512540093e-13)
(0.02251578206 -0.03737512181 1.475347622e-13)
(0.01827667022 -0.02844286536 1.124655924e-13)
(0.01882547697 -0.02823212385 1.157685059e-13)
(0.005881841757 -0.007428359708 3.062827769e-14)
(0.00556582263 -0.007292689888 2.899069873e-14)
(0.002475368493 -0.003082594097 1.226796442e-14)
(0.00268725361 -0.003225546036 1.33226763e-14)
(0 0 0)
(0 0 0)
(0 0 0)
(0 0 0)
(0 0 0)
(0 0 0)
(0 0 0)
(0 0 0)
(0 0 0)
(0 0 0)
(0 0 0)
(0 0 0)
(0 0 0)
(0 0 0)
(0 0 0)
(0 0 0)
(0 0 0)
(0 0 0)
(0 0 0)
(0 0 0)
(0 0 0)
(0 0 0)
(0 0 0)
(0 0 0)
(0 0 0)
(0 0 0)
(0 0 0)
(0 0 0)
(-0.001204200408 -0.001659970231 5.606626274e-15)
(-0.001245330531 -0.001664110111 5.800915304e-15)
(-0.001136776817 -0.001471196921 5.301314943e-15)
(-0.007272742713 -0.01030043888 3.716471575e-14)
(-0.007520940796 -0.0109965532 3.841371665e-14)
(-0.01194373693 -0.01831094537 6.407374631e-14)
(-0.01164742239 -0.0172991724 6.250555629e-14)
(-0.02580550118 -0.0448494678 1.629391067e-13)
(-0.02615895179 -0.04690373026 1.65006897e-13)
(-0.03013960188 -0.05730615507 2.01894057e-13)
(-0.029792453 -0.05492031182 1.998401444e-13)
(-0.0362749375 -0.08209955215 2.994549053e-13)
(-0.03654921564 -0.08524188643 3.009953398e-13)
(-0.0364800698 -0.09219840507 3.255451464e-13)
(-0.03624202407 -0.08891864833 3.243239011e-13)
(-0.02993838444 -0.09883515622 3.596151155e-13)
(-0.03005739568 -0.1020993477 3.59642871e-13)
(-0.02660713623 -0.1022318711 0)
(-0.02649203261 -0.09897718448 0)
(-0.01617539577 -0.09936309718 0)
(-0.01623245188 -0.1009903457 0)
(-0.01452170927 -0.1010537422 0)
(-0.01449301856 -0.1002398213 0)
(-0.01446427515 -0.09942650801 0)
(0.0124921942 -0.1005807847 0)
(0.01241651171 -0.1022080852 0)
(0.01413139281 -0.1022681557 0)
(0.0142076045 -0.1006408753 0)
(0.02587589091 -0.09955424001 3.542999227e-13)
(0.02558829215 -0.1021516292 3.522182546e-13)
(0.02788507628 -0.09821382341 3.383682223e-13)
(0.02830050645 -0.09617146585 3.419625694e-13)
(0.03011412924 -0.07542015814 2.680355937e-13)
(0.0295755722 -0.07662290684 2.638722574e-13)
(0.02810747267 -0.06681422185 2.302186219e-13)
(0.02901790917 -0.06673788662 2.372962937e-13)
(0.0198775733 -0.03659100026 1.305622277e-13)
(0.01862881599 -0.03540387787 1.22429844e-13)
(0.01446168404 -0.02575179285 8.917866445e-14)
(0.01571394301 -0.02710661584 9.68669589e-14)
(0.003948780645 -0.005733168131 2.058075932e-14)
(0.003448680876 -0.005169823885 1.7985613e-14)
(0.001120453564 -0.001596887572 5.551115123e-15)
(0.001410252168 -0.00194645868 6.994405055e-15)
(0 0 0)
(0 0 0)
(0 0 0)
(0 0 0)
(0 0 0)
(0 0 0)
(0 0 0)
(0 0 0)
(0 0 0)
(0 0 0)
(0 0 0)
(0 0 0)
(0 0 0)
(0 0 0)
(0 0 0)
(0 0 0)
(0 0 0)
(0 0 0)
(0 0 0)
(0 0 0)
(0 0 0)
(0 0 0)
(0 0 0)
(0 0 0)
(0 0 0)
(0 0 0)
(0 0 0)
(0 0 0)
(-0.002141378023 -0.003311304968 9.964251646e-15)
(-0.001952170852 -0.00293652164 9.089951014e-15)
(-0.001670631996 -0.002443092438 7.78543896e-15)
(-0.008319192644 -0.01330413898 4.246603069e-14)
(-0.008940065598 -0.01470099121 4.561628852e-14)
(-0.01357222758 -0.02338815937 7.267797475e-14)
(-0.01281032239 -0.02147348763 6.86395385e-14)
(-0.02735310979 -0.05352589812 1.719319132e-13)
(-0.02787685294 -0.05605606087 1.749989043e-13)
(-0.03174549528 -0.06762750801 2.113864639e-13)
(-0.03130388832 -0.06490900759 2.087774398e-13)
(-0.0374409625 -0.09496866173 3.060746101e-13)
(-0.03761317795 -0.09794842349 3.067407439e-13)
(-0.03750848922 -0.1056844835 3.309436059e-13)
(-0.03724154386 -0.1022603709 3.295419493e-13)
(-0.0304100191 -0.1118644407 0)
(-0.03052957171 -0.1151186561 0)
(-0.02707410626 -0.1152477954 0)
(-0.02701465382 -0.1136212432 0)
(-0.02695564926 -0.1119945227 0)
(-0.01662818723 -0.1123804667 0)
(-0.01665644842 -0.1131930411 0)
(-0.01580083886 -0.1132244455 0)
(-0.01577266185 -0.112412095 0)
(-0.001791718496 -0.1131353028 0)
(-0.001816486777 -0.1135401653 0)
(-0.001838533274 -0.1139452065 0)
(-0.001000498779 -0.1139673905 0)
(-0.0009524141257 -0.1131581406 0)
(0.01184952114 -0.1135782472 0)
(0.01176154651 -0.1151982686 0)
(0.01167290865 -0.1168178106 0)
(0.01511275839 -0.1169394692 0)
(0.01528572655 -0.1136981779 0)
(0.01356826072 -0.1136383881 0)
(0.02456991753 -0.1089287767 3.435723928e-13)
(0.02410200397 -0.1104270467 3.386735337e-13)
(0.02582198993 -0.1038712855 3.184119635e-13)
(0.02653823423 -0.1034396618 3.260447468e-13)
(0.0270070869 -0.07688193585 2.423339307e-13)
(0.02602287682 -0.07628812219 2.338684801e-13)
(0.02420213949 -0.06498399293 1.993266663e-13)
(0.02523015328 -0.065808212 2.075561945e-13)
(0.01543558007 -0.03210302835 1.015854068e-13)
(0.01450594785 -0.03103732745 9.550693569e-14)
(0.01062565394 -0.02129390674 6.561418076e-14)
(0.01144492071 -0.02229568293 7.065181773e-14)
(0.001631049173 -0.002675295889 8.507083926e-15)
(0.001325937905 -0.002237579519 6.911138328e-15)
(0.0001051506635 -0.0001688116074 5.273559367e-16)
(0.000200893997 -0.0003134424252 9.992007222e-16)
(0 0 0)
(0 0 0)
(0 0 0)
(0 0 0)
(0 0 0)
(0 0 0)
(0 0 0)
(0 0 0)
(0 0 0)
(0 0 0)
(0 0 0)
(0 0 0)
(0 0 0)
(0 0 0)
(0 0 0)
(0 0 0)
(0 0 0)
(0 0 0)
(0 0 0)
(0 0 0)
(0 0 0)
(0 0 0)
(0 0 0)
(0 0 0)
(0 0 0)
(0 0 0)
(0 0 0)
(0 0 0)
(-0.00203087256 -0.003499097796 9.492406861e-15)
(-0.002295132831 -0.003856608658 1.074140776e-14)
(-0.002452504494 -0.004016918164 1.146305273e-14)
(-0.009906614736 -0.01773240748 5.073719223e-14)
(-0.009588666134 -0.01760815141 4.911349105e-14)
(-0.01432106408 -0.02755128747 7.695233339e-14)
(-0.01470146694 -0.02757003509 7.900624599e-14)
(-0.02918713462 -0.06380313213 1.836447661e-13)
(-0.02872755557 -0.06439569133 1.806055305e-13)
(-0.03257183243 -0.07729920159 2.170486013e-13)
(-0.03301566625 -0.07642712244 2.202266147e-13)
(-0.0384951648 -0.1088038945 3.140127047e-13)
(-0.03822388358 -0.1106468127 3.111677582e-13)
(-0.03784928024 -0.118493097 3.331918075e-13)
(-0.03802756303 -0.1162953939 3.35578787e-13)
(-0.03050712484 -0.1249276779 0)
(-0.03063032631 -0.1281822851 0)
(-0.02716524693 -0.1283134539 0)
(-0.02710366051 -0.1266865283 0)
(-0.02704204546 -0.1250588467 0)
(-0.01664695854 -0.1254523474 0)
(-0.01670857358 -0.127080029 0)
(-0.0149761095 -0.1271456105 0)
(-0.01494528767 -0.1263313917 0)
(-0.01491449445 -0.1255179289 0)
(-0.0157807265 -0.1254851381 0)
(-0.002786870327 -0.1259770138 0)
(-0.002817662092 -0.1267904767 0)
(-0.0028484832 -0.1276046955 0)
(-0.00111596588 -0.1276702791 0)
(-0.001054350835 -0.1260425975 0)
(0.01107322285 -0.1265016805 0)
(0.01095002138 -0.1297562877 0)
(0.01436915811 -0.1293887792 3.582828478e-13)
(0.01452861326 -0.1265322994 3.593791931e-13)
(0.02274207179 -0.1145093287 3.2439329e-13)
(0.02215089415 -0.1149017036 3.174682739e-13)
(0.02339611195 -0.1060544443 2.929184673e-13)
(0.0240993285 -0.1061716461 3.006622729e-13)
(0.02264015845 -0.07208067218 2.042255254e-13)
(0.02172084315 -0.07099844283 1.961902862e-13)
(0.01942474132 -0.05802708119 1.604549826e-13)
(0.02075177566 -0.06044764484 1.713629239e-13)
(0.01095187938 -0.02537407224 7.215061881e-14)
(0.009547016116 -0.0226745298 6.288025656e-14)
(0.006494887348 -0.01445259991 4.010680676e-14)
(0.00739989747 -0.01605693742 4.571343304e-14)
(0.0002730343359 -0.0004994936338 1.429412144e-15)
(0.0001233307655 -0.0002314924202 6.383782392e-16)
(0 0 0)
(0 0 0)
(0 0 0)
(0 0 0)
(0 0 0)
(0 0 0)
(0 0 0)
(0 0 0)
(0 0 0)
(0 0 0)
(0 0 0)
(0 0 0)
(0 0 0)
(0 0 0)
(0 0 0)
(0 0 0)
(0 0 0)
(0 0 0)
(0 0 0)
(0 0 0)
(0 0 0)
(0 0 0)
(0 0 0)
(0 0 0)
(0 0 0)
(0 0 0)
(0 0 0)
(0 0 0)
(0 0 0)
(0 0 0)
(-0.0004742304316 -0.0008983657124 2.220446049e-15)
(-0.0008605571054 -0.00159328348 4.024558464e-15)
(-0.0012786064 -0.002312409293 5.981326545e-15)
(-0.007345996483 -0.01452883872 3.763656053e-14)
(-0.006275190866 -0.01271151884 3.216871214e-14)
(-0.01023342937 -0.02172566719 5.503930645e-14)
(-0.01157851406 -0.02399543025 6.225575611e-14)
(-0.02517870161 -0.06078266521 1.582484144e-13)
(-0.02333749451 -0.05773132068 1.467714839e-13)
(-0.02715392936 -0.07108189904 1.808969641e-13)
(-0.02902940224 -0.07415913717 1.932898286e-13)
(-0.0355624273 -0.1105142105 2.885192085e-13)
(-0.0339996692 -0.1082018743 2.758349105e-13)
(-0.03440340975 -0.1181881858 3.013284067e-13)
(-0.03573813817 -0.1199384083 3.131245263e-13)
(-0.03063633716 -0.1364704008 3.557709682e-13)
(-0.0302043466 -0.13740361 3.498867862e-13)
(-0.02740013032 -0.1401460061 3.566036355e-13)
(-0.02751692204 -0.1379972825 3.594347042e-13)
(-0.01713982167 -0.1384722882 0)
(-0.01726305176 -0.1417276514 0)
(-0.01379804798 -0.1418588174 0)
(-0.01367481789 -0.1386034542 0)
(-0.01540735758 -0.1385378698 0)
(-0.003279730971 -0.1389969548 0)
(-0.003402961062 -0.142252318 0)
(6.206539228e-05 -0.1423834848 0)
(0.0001852954836 -0.1391281216 0)
(0.01051053267 -0.1382744358 3.564509798e-13)
(0.01027144132 -0.1392943191 3.509137425e-13)
(0.01331602236 -0.1351322817 3.401445792e-13)
(0.01368668048 -0.1352247198 3.483047184e-13)
(0.02024563817 -0.1134135136 2.916139552e-13)
(0.01937232406 -0.1110132903 2.790129239e-13)
(0.01994435053 -0.09955406712 2.501887586e-13)
(0.0209710229 -0.1023793549 2.632061236e-13)
(0.01798088804 -0.0630829652 1.623146062e-13)
(0.01671172616 -0.05991926856 1.507127756e-13)
(0.01422807208 -0.04661120293 1.173228181e-13)
(0.01547805225 -0.04961271335 1.277450368e-13)