/*--------------------------------*- C++ -*----------------------------------*\
| =========                 |                                                 |
| \\      /  F ield         | OpenFOAM: The Open Source CFD Toolbox           |
|  \\    /   O peration     | Version:  v1912                                 |
|   \\  /    A nd           | Website:  www.openfoam.com                      |
|    \\/     M anipulation  |                                                 |
\*---------------------------------------------------------------------------*/
FoamFile
{
    version     2.0;
    format      ascii;
    class       volScalarField;
    location    "1.25";
    object      k;
}
// * * * * * * * * * * * * * * * * * * * * * * * * * * * * * * * * * * * * * //

dimensions      [0 2 -2 0 0 0 0];


internalField   nonuniform List<scalar> 
12556
(
36.90868953
36.90873243
36.90878386
36.90882341
36.95438471
36.95464739
36.95511692
36.95630836
36.95878565
36.9634494
36.97103083
36.98093386
36.98977953
36.99333692
36.99052935
36.98249078
36.97316748
36.96523566
36.96022824
36.956992
36.91074565
36.90940489
36.90877741
36.90842544
36.72744298
36.72763391
36.72780949
36.72808983
36.77350118
36.77486331
36.77783083
36.80493887
36.81648865
36.83818388
36.87356109
36.92038013
36.96481961
36.98694853
36.97651461
36.93899366
36.8940688
36.85528803
36.80738855
36.78904838
36.73493783
36.73069371
36.72857811
36.72757133
36.5473324
36.54777779
36.54821991
36.54876077
36.59473199
36.59830386
36.60556171
36.64013224
36.66872927
36.72121716
36.80802336
36.91418705
36.98865317
37.01995581
37.00329578
36.9412042
36.84834201
36.76081959
36.67425378
36.63334985
36.56678196
36.55692598
36.552234
36.55034337
36.36863524
36.36904831
36.36968251
36.37106661
36.41765732
36.42532724
36.44090175
36.49073004
36.55095908
36.67268327
36.84184643
37.0044509
37.10589391
37.13420281
37.09584601
37.00593762
36.87531834
36.73082381
36.57980234
36.49994944
36.40831432
36.38989995
36.38074545
36.37713134
36.19189484
36.19235596
36.19341445
36.19612663
36.24458096
36.25812102
36.2869965
36.36072331
36.48832028
36.71658269
36.98917183
37.24244119
37.40299163
37.40952915
37.31027671
37.15726786
36.97330438
36.76722759
36.54781093
36.39818201
36.26529822
36.22981865
36.21326841
36.20680013
36.0168374
36.01740829
36.01915393
36.02397149
36.07602701
36.09918767
36.15081012
36.26249156
36.49565574
36.84816052
37.30107078
37.78147343
38.08755334
38.02744966
37.73703736
37.44484805
37.1628437
36.87296365
36.56698268
36.33570718
36.13824788
36.07600404
36.04845131
36.03755557
35.84419201
35.84514346
35.84818976
35.85599898
35.91245946
35.94872919
36.03153529
36.20243441
36.55004156
37.0782185
37.84015731
38.99420541
39.76879376
39.57522686
38.53337039
37.92273918
37.46455013
37.05084651
36.62701012
36.31752518
36.02705507
35.92857832
35.88517943
35.86804685
35.67442809
35.67594239
35.68072221
35.69251828
35.75571258
35.80874277
35.93109619
36.17152145
36.63211577
37.36517652
38.56773191
41.05952759
42.22287582
39.85935065
38.61160367
37.88484295
37.30075539
36.72766691
36.32768661
35.93373891
35.78829837
35.72380729
35.69860558
35.509005
35.5115344
35.51899427
35.53611446
35.60767915
35.6806328
35.84839908
36.15948683
36.73081379
37.65713758
39.2143567
42.85438566
46.54135457
41.52536523
39.45866931
38.38835097
37.60303491
36.85728292
36.35477458
35.856298
35.65726191
35.56711943
35.53220711
35.34860421
35.35226843
35.36265772
35.3863655
35.46889796
35.5640685
35.77997175
36.15669828
36.83082013
37.91356192
39.67712532
43.62562338
49.64223079
43.06303471
40.33275635
38.93766633
37.9333782
37.00238335
36.39185203
35.79557095
35.53901517
35.42003072
35.37391472
35.19476356
35.20008439
35.21445954
35.24736211
35.33782043
35.45824867
35.72231106
36.16070845
36.93342028
38.14660398
40.0641294
43.59625995
51.19264602
44.23718163
41.14974593
39.47521493
38.25969581
37.14607695
36.43490538
35.74817097
35.43631551
35.28755383
35.22927155
35.04730237
35.05409469
35.07221122
35.11418903
35.21413805
35.36139309
35.67147974
36.17010643
37.03696611
38.37162399
40.44172668
43.19263316
51.84497714
45.06377032
41.83820601
39.95267823
38.5476667
37.27499894
36.47859713
35.71416218
35.34971321
35.17252443
35.10187563
34.90705656
34.91585431
34.9394221
34.99179994
35.09739987
35.27101184
35.62396625
36.18277064
37.14178959
38.59888265
40.85425447
42.62591917
47.46034677
51.62415654
45.62885682
42.36728753
40.35534547
38.77934254
37.37951065
36.51588677
35.68634289
35.27797189
35.07440651
34.99227907
34.77272547
34.78346832
34.8121409
34.87309406
34.9922738
35.19957601
35.60110983
36.21134743
37.27298311
38.87776743
41.32770067
41.2870793
55.72673757
51.56198282
45.9661772
42.79967884
40.64598888
38.93458136
37.45707786
36.54222064
35.65747581
35.21630385
34.98973565
34.89748421
34.64398713
34.65660328
34.69007066
34.75916289
34.88816663
35.12027133
35.55224672
36.19109906
37.29594924
38.99663393
41.62332532
37.20939346
55.1898875
51.09569562
46.14904519
43.05606844
40.82940343
39.01827079
37.50062391
36.55540557
35.62506559
35.15885107
34.91324671
34.81279528
34.51855855
34.53298405
34.57082893
34.64783252
34.7868939
35.04008383
35.49894922
36.14167554
37.24782006
38.95826294
41.51846104
33.28557669
53.10551913
50.56855415
46.27873532
43.22976746
40.89180356
39.03603845
37.50995979
36.54437375
35.58080894
35.09772423
34.83912155
34.7320859
34.39633365
34.41241062
34.45390376
34.53782486
34.68607906
34.95672107
35.43886966
36.08602193
37.1441429
38.77486932
41.06507786
35.19038634
49.99939087
50.18247772
46.2702739
43.20668338
40.81893626
39.0035093
37.48232834
36.50346663
35.52475613
35.03220227
34.76297185
34.65075711
34.2743609
34.29193379
34.33657864
34.42692237
34.5840079
34.86867227
35.3689401
36.03403441
37.05031435
38.54838172
40.55108202
37.36276719
44.63882094
49.64080512
46.03723637
42.95329186
40.62884378
38.89742693
37.4033255
36.43076469
35.44982733
34.95366897
34.68027135
34.56431223
34.15377405
34.17262142
34.21966888
34.31506904
34.47939988
34.77516268
35.28895308
35.96682924
36.99364119
38.42217251
40.14370113
37.37880656
39.38209319
48.57780443
45.49125767
42.57229009
40.3966965
38.74439303
37.29162924
36.33389364
35.35991784
34.86482188
34.58952161
34.47163602
34.03109984
34.05105229
34.10019943
34.20036709
34.37163923
34.67612267
35.19969161
35.88554977
36.91834812
38.3338094
39.82641865
35.72302477
38.16862972
47.42196691
44.87646594
42.19927661
40.14873821
38.56572519
37.15708419
36.21806468
35.25587184
34.7645836
34.48911046
34.37012379
33.90944401
33.93027528
33.98087716
34.08430898
34.26051118
34.57193205
35.10238067
35.79280351
36.82689434
38.21542183
39.45269166
33.9344822
37.42290458
46.35843121
44.30323138
41.84371011
39.89811953
38.3746208
37.00721131
36.08796367
35.14115374
34.65599098
34.38159283
34.26211045
33.78410167
33.80569493
33.85776166
33.96475362
34.14628631
34.46325995
34.99840844
35.69106558
36.72334282
38.07301484
39.04000584
32.24285006
36.64378143
45.38146738
43.76502135
41.50676816
39.65151703
38.17868455
36.84776837
35.94758922
35.01648958
34.53789714
34.265011
34.14537646
33.66090542
33.68306786
33.73605119
33.84496905
34.02935314
34.35096416
34.88921226
35.58251304
36.61066124
37.91082214
38.59300243
30.62044728
35.86152209
44.47967461
43.25717768
41.18598221
39.41202928
37.98237102
36.68294707
35.80020069
34.88625771
34.41529765
34.14433872
34.0247649
33.53252898
33.55522833
33.609452
33.72144378
33.910376
34.23593333
34.77615793
35.46906138
36.49102179
37.7307925
38.12232322
29.09572109
35.09800188
43.64790312
42.7757297
40.87865612
39.18041631
37.78822928
36.51568738
35.64841259
34.7493631
34.28500085
34.01571592
33.89624164
33.40878141
33.43185959
33.48675476
33.59978798
33.78981256
34.11898972
34.66048135
35.35236085
36.36589777
37.53362877
37.63781322
27.68288465
34.3592679
42.87498315
42.31724169
40.58292027
38.95628728
37.59758791
36.34798494
35.49414072
34.61131289
34.15442732
33.88699008
33.76765028
33.27757793
33.30108669
33.3572493
33.47351314
33.66836584
34.00082482
34.54319942
35.23367044
36.23595409
37.32024375
37.14455709
26.38594246
33.64696547
42.14899563
41.87869004
40.29736183
38.73890036
37.4109597
36.18110844
35.33885379
34.46783915
34.01633907
33.75018357
33.6308831
33.15506527
33.17886317
33.23560251
33.35221258
33.54628575
33.88200466
34.42510374
35.11385484
36.10127946
37.09346783
36.64604344
25.20271901
32.95856052
41.46174834
41.4576294
40.02085216
38.52756788
37.22844569
36.01585451
35.18348708
34.32734731
33.88275349
33.61812669
33.49885629
33.02102911
33.04523783
33.10339131
33.22384672
33.42426652
33.76297377
34.30676243
34.99340865
35.9617867
36.85539522
36.14502141
24.12837685
32.30233235
40.80802026
41.05201905
39.75239553
38.32167039
37.04992028
35.85265997
35.02882735
34.18018859
33.73929397
33.4754657
33.35608685
32.90205754
32.92653331
32.98524992
33.1053386
33.30222691
33.64409664
34.18860158
34.87259303
35.81752734
36.60799461
35.64362987
23.16240286
31.68258309
40.18560905
40.66030864
39.49116029
38.12068919
36.87518792
35.6917628
34.87517848
34.04125739
33.6068709
33.34426272
33.22478147
32.76436787
32.78929068
32.84959908
32.97444418
33.18099803
33.52569081
34.07093968
34.75150278
35.66873788
36.35397544
35.14356495
22.31087572
31.1009344
39.59136987
40.28123296
39.23640418
37.92414563
36.7040007
35.53326374
34.72306138
33.89086592
33.45832004
33.19611418
33.07638619
32.6519483
32.67715358
32.7380887
32.86184622
33.06007167
33.40801554
33.95402266
34.63014936
35.51578753
36.09582693
34.64621453
21.55619749
30.55658137
39.02345935
39.91367144
38.98748394
37.73161456
36.53611221
35.37720309
34.57237364
33.75753877
33.33138652
33.07011774
32.95018758
32.50848445
32.53421179
32.59687796
32.72627314
32.940695
33.29134378
33.8380688
34.50851317
35.35912872
35.8340881
34.15277845
20.8836971
30.04713629
38.48066018
39.55685337
38.74388148
37.54273805
36.37130004
35.22359381
34.42371738
33.6016349
33.17561597
32.9145288
32.79424579
32.40685035
32.43288577
32.49634272
32.62438759
32.82174272
33.17594175
33.72324743
34.38658374
35.19923418
35.56921781
33.66426726
20.28296423
29.57070151
37.96200617
39.21003112
38.50515888
37.35718013
36.20928579
35.07248231
34.27663282
33.47993783
33.0599428
32.79944738
32.6789217
32.25363848
32.2802983
32.3455602
32.47904667
32.70557092
33.06233211
33.60989409
34.26436979
35.03655252
35.30180844
33.18158985
19.74565529
29.12600896
37.46628117
38.87273863
38.27100807
37.17469454
36.04993601
34.92421339
34.13246661
33.31176756
32.89164903
32.63134125
32.51037414
32.16847131
32.19548569
32.26173896
32.39586968
32.59059259
32.95148338
33.49899676
34.14188679
34.8715331
35.03269983
32.7060798
19.26483218
28.71263591
36.99324468
38.54494718
38.04121417
36.9950849
35.89307989
34.78002031
33.99120351
33.21281639
32.79556985
32.53541757
32.41421418
31.97406347
32.00199743
32.07074018
32.21068675
32.48292219
32.84586074
33.39395949
34.01952163
34.70521753
34.7645475
32.242228
18.83547562
28.33171518
36.54663821
38.22912932
37.81666191
36.81865434
35.73876961
34.64382522
33.85830619
32.99636361
32.57956502
32.31951695
32.19773349
42.71037242
47.01276828
42.57543034
43.58014123
50.46811139
47.45098015
43.62917637
52.12549962
50.76161099
43.2571946
52.78281592
52.23693078
42.66547098
43.01497634
46.50046865
53.04915311
52.8194079
41.74398914
52.95553034
43.42637531
55.39557578
53.4919332
53.06654805
40.74310683
39.70379322
42.13725252
39.51937357
50.0884089
43.98875262
46.05172083
41.89626919
40.35569733
39.57273173
42.73861375
42.01834277
54.88688577
55.79118098
49.35380411
43.81232308
42.41539403
39.97087856
43.08183067
42.81570425
43.68966399
45.26532426
46.16138336
54.19374519
53.67798653
51.06755736
45.21189201
44.22309825
40.35802011
42.99870038
43.08274089
43.47079689
41.95547467
43.76872271
55.34285583
54.70276938
40.75827568
42.75427325
42.9788849
42.9657627
37.5196942
39.78912737
39.02989146
55.98347589
55.78158683
41.23753741
42.25468237
42.7101309
42.30838088
32.15037537
34.46136799
40.23263295
54.12824259
53.28447635
46.64871797
48.2408305
43.09997604
46.29356745
55.65331063
50.39760679
45.06317076
49.54044344
54.35374089
46.27198353
46.95098967
43.32328646
47.53611134
46.3496272
48.29036349
47.67401705
53.73808101
54.73379067
49.14005049
55.49346835
54.92080968
54.57371104
55.54925757
48.90494576
43.94274098
45.11478002
43.68712094
44.81727806
43.14706672
46.27275593
44.92045599
54.5829896
54.26800957
51.66880863
55.39558868
55.58686753
54.89273756
55.34788101
51.48464004
39.91505242
41.84130603
43.42233562
40.9632498
38.61569146
43.03427091
41.09300012
55.74848789
55.40910835
34.60498274
37.35541652
42.93188885
39.53261174
35.58258454
32.7884484
38.48052908
35.77748045
40.09106888
56.23786332
56.00925788
39.03368013
39.82244867
32.08902936
42.26249983
49.92192382
31.85595488
72.58047152
32.70818322
31.85804035
49.25570658
39.07334736
41.88760062
40.45603947
41.92135629
45.40450285
42.72676973
59.36498637
46.21946942
43.22426856
47.03139303
47.1787998
44.54924515
51.80846703
46.11204457
45.4911343
49.94486889
49.90064903
48.57539382
52.41662726
56.50629376
56.31583691
47.04078844
45.68065608
42.15652937
53.11023649
44.88407711
51.2834062
43.62045399
48.66582684
44.47255781
48.19435596
44.62684356
52.58998177
55.71391361
55.81987176
55.600497
55.70148132
52.52328138
39.53371556
44.66337019
45.75915559
41.23842041
40.83614853
42.69250135
43.5419851
41.31870318
41.2961076
63.28502373
47.33089195
58.98695717
45.48654142
55.97121102
46.5508022
55.92500708
55.99638505
53.8770672
53.84455387
40.76206211
42.98709606
55.11168492
41.12190116
43.21470773
44.26919268
41.15030101
55.03523854
38.75176044
42.54436675
42.20971105
52.400751
50.62839344
45.87737126
33.53801995
40.43092822
39.94397026
41.04696219
40.60436024
33.69732848
56.82465699
53.50947934
47.45390181
53.78241938
54.72396573
49.9519539
53.49114524
47.67344801
44.56786165
49.20971062
44.32919546
54.07341052
49.8844132
45.06552274
51.8870983
56.66958692
53.61336186
53.23517451
46.97684438
43.42914111
46.90111372
48.13752712
46.52619937
49.46426599
43.79013613
46.13611929
48.03849728
54.31796096
54.40889122
55.20694338
52.85614743
52.25209893
53.46871564
53.02648214
55.16307909
55.57733827
50.92729241
49.92905787
52.02242668
51.22457029
55.63628663
44.05908815
43.95119152
45.68596872
45.60054068
54.71742024
44.77116928
54.66376581
40.03346758
39.8729903
42.12739786
41.99568585
43.73897626
47.52601075
55.57727938
43.94034765
40.83169892
36.28824661
41.60126887
41.1917215
42.0931869
41.72932198
36.42628756
39.15108981
34.74108116
34.62345112
37.53278066
37.39657633
51.06769062
40.91792027
54.08702694
52.88985843
39.75620423
39.30377488
31.78304473
33.20190592
40.7074847
40.34252148
32.3037608
63.47899145
40.54378624
56.04013614
32.22991827
46.73472249
42.64959834
39.75048167
57.68676643
39.39757683
39.64697991
41.57069492
41.80359768
42.16751919
40.78483984
33.10026772
40.98107714
55.69454199
52.88676622
53.41626005
51.502646
39.8742147
42.00096759
55.159806
54.40475059
41.75224692
56.5936516
56.54845811
52.89117784
42.8212393
42.29302511
44.51625401
45.50067878
42.58483476
42.82570154
55.40603223
57.73438867
56.83928083
56.03866418
53.9957733
45.64871598
46.15590232
48.18674224
47.4200016
53.60089956
42.77109638
44.00151375
43.76177995
44.30063117
44.07848988
42.90292963
42.95614302
42.6495806
38.88408971
32.48174434
37.16750176
36.75545521
64.98613444
48.54810167
53.60201813
54.94979439
58.64774402
57.95717776
51.87122827
47.92528685
46.55845569
49.5599834
48.35711008
52.2179833
53.9549837
49.37594473
48.51337983
54.49565571
44.46874467
44.5634865
44.37032082
39.78910936
40.27062316
43.49852308
46.42084383
46.76396225
54.43721407
55.50282961
54.31905985
54.20946281
54.94286122
53.89132322
53.58810082
54.16433253
53.96899736
54.95822989
40.89133944
43.33255007
43.05332344
43.67902641
43.42180256
41.02064484
40.57432525
35.5799125
35.87775808
33.43529435
33.63327678
39.07548351
42.65699796
39.0249394
39.65334697
35.99478131
36.32320385
41.48055365
55.61991897
48.04520433
51.389446
54.61405831
38.94302378
35.18332948
33.50623274
38.07754656
33.14873752
33.36844249
32.66370182
36.67835934
46.50242781
39.03417232
38.05425602
37.28786193
36.62209436
36.2292169
31.97152264
39.82168882
41.40934733
51.70565082
31.87489835
81.6767025
42.26465151
40.89173221
46.77724205
32.53380715
31.91897645
53.53468401
52.40350118
52.56084769
44.82785935
44.8971946
40.22153075
39.46137632
50.14709509
51.33136744
51.23998254
47.28360183
55.52324674
47.32844823
55.90607003
48.0588312
41.76960836
40.00156633
46.34047613
43.99520996
47.16908099
44.65578464
39.86927417
40.7173718
45.99772132
54.91736494
39.86042911
43.92030031
60.63021078
38.92963041
39.3811507
39.17992901
38.93855163
53.90767932
63.9027022
53.51868095
50.23084371
57.08277924
54.24910898
49.59930404
46.84462766
51.39442532
55.19603846
54.60521429
55.60678183
56.06124484
56.55418583
55.55634534
46.38787685
45.77186148
53.93952204
46.26694192
46.76562583
45.01101849
45.98754972
46.95167412
53.64535959
47.3007574
46.59362749
40.80070886
41.04565178
41.47464406
51.20937
50.45923204
42.38099809
48.89567329
47.61908299
50.16180387
49.29226573
41.94168621
40.47355742
42.39203894
40.80792454
37.7485675
37.29204196
32.75593713
34.01529398
38.25791363
37.87778214
55.61926248
55.13213611
54.74557363
50.13563861
50.65730774
49.18339468
49.92230659
55.02457315
52.1163446
50.78668717
50.60325485
50.75754485
50.80807698
52.36430131
52.56776543
48.0590736
48.93402862
55.21475632
55.61325264
58.325011
58.00124844
54.62217946
59.31922918
59.97644237
60.1325454
58.97723703
57.92469786
60.16896275
58.88010084
52.02737367
57.13856616
58.35656931
42.15660941
47.07867182
46.27873128
47.83180225
47.29529826
42.67771458
45.161303
44.60372678
45.99945766
45.3528053
47.70822334
49.88212103
49.38960547
50.48086219
50.04023953
48.12936182
44.73102937
48.53830578
48.01227178
49.22182896
48.71125209
45.07301942
50.51147415
49.58154616
54.04187968
54.50792456
51.83336948
50.85026703
39.38101777
38.91005872
40.19603527
39.54588074
38.16033024
37.70192455
38.76145094
38.29675738
43.70538959
43.17325768
44.42302629
43.88784488
42.10978022
40.61181055
42.97819406
42.44355862
45.3553918
44.53627932
47.24178379
45.85934378
45.33589973
44.04777767
44.74428086
44.26641104
43.87712008
35.15810046
35.46624252
40.44361228
33.87221585
33.65139119
34.17198984
33.95738564
33.55353662
39.2713643
33.71243691
34.92971612
37.05440333
38.76287883
42.52921087
36.7091015
35.11738162
37.60826451
36.95218717
34.54945066
34.26993628
34.98757426
34.65954359
41.60902219
36.43908067
36.82810417
47.1740884
42.30638254
46.48797342
43.5774717
46.29891533
41.81019699
56.57554099
38.9033172
54.68387876
48.97824087
35.07101747
34.0124575
32.88488422
33.0818039
37.94284708
36.90937821
32.69928831
32.82923988
50.84403842
31.92210439
36.0485372
35.33312164
63.8993039
70.79239149
31.80815095
74.91717707
55.37113769
40.23536097
32.46675872
63.30802396
42.60480339
72.99907518
44.11895876
32.02654739
41.82434796
39.88107831
38.73306002
49.17140296
48.8425876
52.23566948
46.66840458
46.29700178
49.07877035
41.26941871
39.40927508
38.86165951
55.82619115
55.72000702
52.94209819
44.46955857
43.98169949
46.3113337
50.7735212
44.42339909
44.54399223
40.81406015
41.14299153
43.2956481
48.81327388
51.9284799
54.4605537
45.67904537
44.9401725
44.82499374
45.0471354
44.97162663
45.80608377
44.81650961
43.03633565
39.70113311
51.9530833
53.27876206
55.89885843
38.74188395
38.37816333
34.13185398
55.18785507
56.86123834
51.65516888
44.77915573
44.62182543
44.63595864
44.49399838
41.72458558
42.32316217
42.61173072
43.49648247
45.22899831
35.39203982
39.23996326
38.8614822
44.00856071
42.28879281
39.21434081
32.20970018
32.23424977
32.90680188
41.24767227
51.90946578
47.32744217
39.34755589
47.39053577
45.35002735
31.85275488
32.64788613
32.1801928
32.19732987
31.86551202
59.77268327
44.52646469
40.3366295
41.26903071
49.41848938
39.96635842
40.93814697
50.10967804
52.44547275
46.08565199
44.62792806
46.36602949
46.85096702
39.840565
39.79285818
57.91600964
59.94434927
61.45439622
52.35993751
58.75415788
42.3319382
42.58245816
44.97002703
60.84905981
56.8051103
54.58744064
63.7495085
61.47039422
40.70852167
41.73766076
41.17241329
45.57731063
44.93535533
41.87992257
52.13637015
51.47112185
41.76910926
44.34039875
41.93728548
42.09485684
42.97208611
39.38387089
39.66887413
56.55236128
57.24960957
54.09268076
54.12384503
53.1694973
53.01134718
50.46434908
51.36919428
51.02649346
52.8510855
52.65354429
53.10531399
46.73839287
47.77704019
52.08679384
53.2381767
57.93583058
54.73017594
58.19936361
58.5300824
56.14408769
40.68506104
42.64576551
42.15391116
45.999871
45.78413588
43.20999602
40.21625729
39.99610276
41.75263484
41.43368198
46.91627366
48.89447018
48.59572249
50.70787912
50.40208412
49.00315447
44.0618141
46.56254608
46.30825579
48.29415087
48.00050996
45.77511853
41.0689626
41.55677487
44.38914586
43.6094747
40.42523848
40.90960662
44.37557876
44.84627371
45.94701619
38.68120773
38.54447602
39.79878259
39.62235191
36.62698072
38.33440304
38.21974235
45.32191889
43.71590153
44.211809
45.10947198
45.09166832
42.38009274
42.67693548
44.73310961
45.24709371
45.56987843
54.49072691
46.9399026
48.2471206
39.71339778
39.3614787
35.69959064
36.81627185
40.13626907
39.8189701
33.0459642
33.11488902
34.8549123
34.4791019
32.88742693
32.98299498
51.20998257
31.89747572
32.55431133
32.01474623
107.129268
32.35983751
40.31245292
51.10774708
46.39205297
31.9915535
32.02007963
32.34358472
62.38045109
67.35964556
65.29041347
50.07184603
32.20546445
31.96109927
31.9803784
40.11958558
40.5397082
39.41901324
49.07893901
48.61535987
42.25666945
41.31295904
39.49492369
52.89410495
52.02985197
56.55838798
40.27566256
47.69299272
44.53758137
47.94083469
47.23732396
40.96427343
43.6677193
44.2154676
47.65897865
53.50545554
53.81493171
53.02856693
53.27674146
57.46872009
56.81036966
57.02496214
56.37100192
56.59666826
57.13763707
47.90658946
48.48087999
48.69016848
48.16083415
48.28031513
47.75751523
58.37218132
57.46401741
57.44542532
57.2172187
57.3826281
58.16513348
48.97966497
49.3892119
49.62375074
48.91902058
49.14642162
48.7369234
52.39445906
52.57390689
51.78675061
51.96088968
35.66321663
37.75666959
37.63471447
33.5135728
34.71855169
34.62481687
35.0092637
34.82997201
33.57352315
52.36046024
53.44383209
48.02788813
53.05635591
32.5989367
32.5657404
32.68001216
32.64299235
32.47456563
33.11820944
32.27267179
32.38505541
33.22617507
34.38505895
34.29917002
34.54527683
34.46419868
33.29459921
32.79161422
32.73076691
33.28792533
32.93903191
32.83614546
52.83934286
51.29301455
43.01158712
53.32698207
33.76755101
33.08037461
39.56759877
31.99831431
33.28740453
33.1483441
31.83077621
79.45432437
80.75137985
61.7414475
70.40040506
60.28726931
32.12314772
32.15502522
32.59282629
31.88829798
56.96364395
62.12909464
57.34883634
58.55160106
55.30249018
48.54289546
60.88045597
55.91791339
45.02209545
45.3017756
50.22026679
42.58788165
45.26333704
52.12749425
49.65198534
52.68407004
48.64738296
51.36553867
57.30493069
58.78907467
52.18794569
56.20193276
59.63363953
46.89367467
47.91090919
46.49341703
50.07930022
57.48140415
57.60611705
55.7449861
40.72105669
51.12942279
46.14774683
56.40989819
57.26474772
42.19797865
44.30331553
47.21248783
59.58018579
49.21948416
41.0772103
42.25430318
60.32282376
57.24233492
60.56941177
55.99293542
58.394811
60.68054464
61.8276256
61.16013587
54.74509919
54.92662732
55.17316383
54.36939369
54.53552692
54.51524611
56.20299807
55.90981753
56.14739112
55.4263395
55.66867408
55.88390092
46.17100203
48.98617697
48.98423003
46.40030811
46.67314307
45.33444559
46.24710601
46.04615481
45.87190034
47.3162474
47.64415122
46.90866587
48.36877445
48.15576465
48.9236427
48.71395722
46.75414766
44.8502955
43.01231317
40.68702026
45.97114719
45.74850871
45.60314421
41.44025788
45.0370402
44.69592394
42.05325295
41.93618391
43.13128189
56.13361312
54.56256189
52.06998849
51.72709073
50.95618687
52.83211163
52.48421513
52.2418589
59.09139169
58.75131364
54.40346655
59.20034417
61.21410169
55.99265172
58.94156832
59.08150965
58.2333924
57.05639824
56.9289512
57.26737214
57.23719307
58.13381803
59.62799451
59.7604786
58.71584483
61.31189155
61.26169792
61.11141191
61.28587622
58.51733449
60.27828676
60.87853142
62.30581224
60.27950999
44.72907371
44.58315702
42.0822812
42.82631907
45.43294372
45.2790114
40.67132349
40.43642392
41.16368067
40.91050348
49.4943825
49.19238361
47.2971257
48.56281342
50.10005863
49.79726319
47.13214266
46.86106764
44.4281554
45.39924427
47.70367371
47.42153724
50.25754129
50.36795107
50.61834969
49.87005953
50.1186144
49.88778697
51.4751933
51.27540899
51.43219022
50.86594432
51.09106944
51.21521592
39.21854296
36.68479127
36.82429077
36.43139038
36.56318091
39.06569405
39.92798293
37.2825036
37.49088812
36.9606461
37.11586768
39.72560465
37.99522351
35.69361381
35.82698301
35.47774054
35.60953339
37.87584026
38.60474319
36.17815651
36.31297963
35.92659343
36.06452709
38.45914599
39.04363631
38.88663893
43.52990855
41.61833276
41.79553389
41.24967683
41.4110775
43.34359976
39.41830737
39.24588861
37.62937927
37.46897696
41.85711493
39.99052306
40.05487275
37.79756402
38.24272137
41.20889511
42.8184393
40.89295576
41.02671287
40.52963661
40.62760528
42.59586078
37.99840636
37.90297815
44.5361174
44.75096139
44.94107953
43.08075152
43.6127839
44.25317843
45.56973789
45.53558726
45.82703532
45.82874558
44.5089191
43.99457311
44.31333091
43.86975892
45.24760402
45.0375084
43.85844194
35.25017837
37.22071256
37.09150949
37.49653029
37.3804839
35.38937079
33.81119619
33.71690739
34.10156167
34.01370622
33.5167198
33.55404039
33.88441671
35.96240841
35.3474167
36.83729779
36.58687808
34.62563491
35.50783691
34.87179476
34.99654551
35.26643878
37.39732873
35.26652353
35.40522968
35.06113741
35.20054676
37.31679101
34.45736919
34.35234616
34.87633384
34.76012343
45.88861255
40.56029911
41.07013185
40.05090593
40.24811299
46.17619517
45.50761826
45.31604995
41.72966363
43.29716738
46.6461603
53.70647555
42.63081403
44.48734264
40.04624473
41.22421063
54.4415769
32.45993724
32.416356
32.53210701
32.50082027
32.56244217
32.80516882
34.29886872
32.25823959
32.18464769
32.36561957
32.30251524
32.94808838
34.04606767
33.9581897
34.21676891
34.12839082
33.00987021
32.73712613
33.68577714
33.56579048
33.87450403
33.78666979
32.78509752
50.35102622
33.07615904
32.80164118
31.87780314
61.83966664
88.54160108
94.10875727
87.31744233
88.72642217
66.88566985
32.03862769
65.74486956
48.21674516
51.45737164
32.40790242
32.04056733
32.08647865
63.50141878
70.26315192
68.63465586
55.27763414
61.6914506
75.0385937
70.53609198
46.81045359
66.54206735
58.54823385
32.31480095
31.8639816
32.01967451
36.68016673
36.69627649
36.81265653
36.70336352
36.73378534
36.83125437
36.74620771
36.79652838
36.86290298
36.81549311
36.8861181
36.90748327
36.90731258
36.96462636
36.95421956
36.97709874
37.00210507
36.98334051
37.00567176
36.99941236
36.98346331
36.99198394
36.95198282
36.95003868
36.9355939
36.87244247
36.90560743
36.85242706
36.79487949
36.86442822
36.52638826
36.56073986
36.65989043
36.57655165
36.6437667
36.70566829
36.67424593
36.78533527
36.78305946
36.82428381
36.93781059
36.8898176
36.97175078
37.04691605
36.97583537
37.06477582
37.09461855
37.01679367
37.09423254
37.07661913
37.01166959
37.06390344
37.00713698
36.96003519
36.9829404
36.8954866
36.87297724
36.86277928
36.76247513
36.7791342
36.39151068
36.46255627
36.5317837
36.49745374
36.64172988
36.6340027
36.69742882
36.87747195
36.79829986
36.93922062
37.11329825
36.96752334
37.16142017
37.28366527
37.08700997
37.30804853
37.3260408
37.13547212
37.31242897
37.26557908
37.1108247
37.2405002
37.14677308
37.03240597
37.10965323
36.98569406
36.91141296
36.94096409
36.80042844
36.76571184
36.2834155
36.42251783
36.44575877
36.48770572
36.71754538
36.65429018
36.80573328
37.10108055
36.91934955
37.20440217
37.51544782
37.18505893
37.60356347
37.82528006
37.36989438
37.86250991
37.86991452
37.41074116
37.79604457
37.65937854
37.34127335
37.60193316
37.42007277
37.19997964
37.35725087
37.1692214
37.02191197
37.10499422
36.90986932
36.82024452
36.21389702
36.43974961
36.42331726
36.53370589
36.8768592
36.74972056
37.01259903
37.49484389
37.18035573
37.68182042
38.33938238
37.6596928
38.57578487
39.43496411
38.03712941
39.4571543
39.23643504
38.03617217
38.91994864
38.44372753
37.81093615
38.28884515
37.89690762
37.51590553
37.78191892
37.47510954
37.23265032
37.3776613
37.0951325
36.94768949
36.17816887
36.48624701
36.44930054
36.61297013
37.09464091
36.92549239
37.29445223
38.05318441
37.62194288
38.3811734
40.19008449
38.62927989
39.5812496
40.2168426
39.2705639
40.8340362
40.89881077
39.78561556
40.33774532
39.68366049
39.25365478
39.47838146
38.63486534
38.05325629
38.42571063
37.9107482
37.57215107
37.7633968
37.36124563
37.15273569
36.16143535
36.5447406
36.4971787
36.70594689
37.32564405
37.14879954
37.58728373
38.61345967
38.20146214
38.74925402
39.23795178
39.01129412
41.36645672
42.02657073
41.6416817
43.85017296
42.57079037
41.37105818
41.10300483
39.59685038
38.85042787
39.26028716
38.47492913
38.04565004
38.26135071
37.69638741
37.43784306
36.15658914
36.61200796
36.56121411
36.80547935
37.54313056
37.38220733
37.8521935
39.04714291
38.73378341
39.34322785
39.95997273
39.80910371
42.98595066
44.01009671
43.86728531
47.91217404
45.41889713
44.38210934
42.70468729
40.61484676
39.83452791
40.15569926
39.09043949
38.61590543
38.80610958
38.06937383
37.78553366
36.15909422
36.68432226
36.62973122
36.90721098
37.74419174
37.59472298
38.089418
39.39834494
39.13959043
39.77759599
40.45779481
40.34260071
43.65855328
44.60095526
44.63450366
50.37647444
47.46094679
46.8136428
43.96763327
41.53179378
40.83250705
40.98046857
39.70044596
39.23194437
39.35015093
38.44785239
38.16420077
36.16659487
36.75975885
36.70342712
37.01005007
37.93723994
37.79338316
38.31469721
39.73235553
39.48062889
40.16241395
40.90250532
40.78970042
43.55848473
44.00010575
44.15868869
51.52513557
48.60501346
48.28963231
44.85939743