/*--------------------------------*- C++ -*----------------------------------*\
| =========                 |                                                 |
| \\      /  F ield         | OpenFOAM: The Open Source CFD Toolbox           |
|  \\    /   O peration     | Version:  v1912                                 |
|   \\  /    A nd           | Website:  www.openfoam.com                      |
|    \\/     M anipulation  |                                                 |
\*---------------------------------------------------------------------------*/
FoamFile
{
    version     2.0;
    format      ascii;
    class       surfaceScalarField;
    location    "1.25";
    object      phi;
}
// * * * * * * * * * * * * * * * * * * * * * * * * * * * * * * * * * * * * * //

dimensions      [0 3 -1 0 0 0 0];
oriented        oriented;


internalField   nonuniform List<scalar> 
25162
(
0.0004217978062
0.9162282022
0.0005093393846
0.9166124584
0.0005800827121
0.9165792567
0.0002813870228
0.9166153999
0.0003332958062
0.4583397652
0.0002916218428
0.4583139655
0.0003534065782
-0.0003673721275
-0.0004491145788
0.4582926386
0.0005064760146
-0.000560912869
0.4582426241
0.0006532887864
-0.0007544264118
0.4582195761
0.0008648502805
-0.0009940146387
0.4581934543
0.001135560353
-0.00128160161
0.4581849487
0.001431652903
-0.001583678686
0.4582025611
0.001712617584
-0.001821606584
0.4582563455
0.001898761094
-0.001936803334
0.4583347793
0.001937024061
-0.001898185429
0.4584085301
0.001819655368
-0.001718531286
0.4584559512
0.001597580064
-0.001454790733
0.4584715304
0.001318260327
-0.001178457553
0.4584821668
0.001011290793
-0.0009408035392
0.4584572201
0.0008335834218
-0.0006916669209
0.4584659497
0.00057571719
-0.00159699145
0.9186940167
8.068609575e-05
-0.0005277113042
-0.0009976047625
0.9187506133
3.791036941e-05
0.9158144849
0.9138379104
0.001158054472
0.9150701477
0.001810728862
0.915959784
0.00200655477
0.9163834308
0.0005180553044
0.9172233558
0.0008805435876
0.4581129346
0.0006184170978
-0.4582132964
-0.4582046997
-0.0007591513702
0.4580266038
0.000937247283
-0.4580690507
-0.001159838006
0.4577983303
0.0006742643515
0.0007562940794
-0.2289770515
-0.0008252295001
0.2289043181
0.0008979629144
-0.001217758777
-0.2289158908
0.2288185782
0.001315071379
-0.001729689225
-0.2288570901
0.2287251639
0.001861615407
-0.002360158275
-0.2288283683
0.2286754919
0.00251303469
-0.003026027988
-0.2288565086
0.2287566422
0.003125994684
-0.003024554093
-0.2289763787
0.2287861618
0.003214605346
-0.003855398011
-0.229153605
0.2291088814
0.00390012161
-0.00378243877
-0.2292881719
0.2293404126
0.003730198084
-0.003396767967
-0.2293786799
0.2295078214
0.003267626545
-0.002826681045
-0.229406331
0.2295670989
0.002665913167
-0.002225786805
-0.2293854475
0.2295388861
0.002072348283
-0.4588829472
-0.003222608806
0.4603249133
0.001780642755
-0.0004574746464
0.460974372
-0.001244688035
-0.4592722093
-0.001352129155
0.9183317202
0.0002304174887
0.001484008108
-0.0008229058934
0.9182213901
0.0004354984316
0.9145560806
0.9142734088
0.001458457377
0.9136116904
0.003934136243
0.9134841052
0.006651339151
0.9136662279
0.002657220985
0.9151300445
0.006087429462
-0.45809737
0.4579647373
0.00278985374
-0.457886056
-0.002725056354
0.4585898235
0.002021288887
-0.4574317672
-0.002039169079
0.4572760265
0.001064440207
0.001130469484
-0.2285532541
-0.0013328905
0.2284016432
0.001484501448
-0.2283255511
-0.002036817288
0.2281075976
0.002254770815
-0.2281573714
-0.002220134228
0.231994505
-0.001609916587
-0.2353078295
0.01482851708
0.2389780345
-0.01846840872
-0.2339289261
0.02646034385
0.2355799031
-0.02808954308
-0.2275153276
0.02982727302
0.2270783366
-0.02939468978
-0.2220159137
0.02491112378
0.2194864291
-0.0224091957
-0.2233219751
0.01207186488
0.2190218044
-0.007799741698
-0.2301247919
-0.005587980369
0.2295455091
0.006165770445
-0.2302771493
-0.005261283682
0.2305976867
0.004940746344
-0.003728994838
-0.2302543545
0.2309267754
0.003056573973
-0.4629692529
-0.000411669029
0.4618375981
0.001543323766
-0.4601043706
-0.001637406916
0.460142336
0.001599441487
0.0006345094229
0.9203324731
-0.001521262768
-0.001113999462
0.001911797243
0.9169441023
0.0008944888878
0.9155733889
0.9151678977
0.0004498377327
0.9131618526
0.0009828580736
0.9129510848
0.002087842375
0.9125612436
0.002967648417
0.912330334
0.001919904474
-0.4572588052
0.4568878918
0.00333856181
-0.4602011298
-0.004479006278
0.4572336815
0.0074464545
-0.4588482889
-0.0086100409
0.4605169544
0.001792319416
0.005149055958
-0.2278487357
-0.001711698012
0.2276836925
0.001876741164
-0.2295896346
-0.001000066953
0.234914255
-0.004307702444
-0.2468633285
0.01967490495
0.2514208769
-0.02415764781
-0.2487841327
0.0346161871
0.2512406855
-0.03699464228
-0.2392693609
0.04107730786
0.2398450226
-0.04161169975
-0.2257241043
0.04161680207
0.2253216484
-0.04122488456
-0.2130407169
0.03873121694
0.2115820619
-0.03733171142
-0.2069766043
0.03058807362
0.2036651361
-0.0273620341
-0.2140689829
0.01482292571
0.2090733007
-0.009893704718
-0.2341342507
-0.001121169204
0.2363887146
-0.001135957047
-0.004106922678
-0.2318114143
0.2318402266
0.004078110356
-0.461894733
-0.006324766674
0.4632008451
0.005018654556
-0.4609322771
-0.003714997307
0.4620118229
0.002635451452
0.003627593118
0.9206152795
-0.002064736021
-0.00184566355
0.00247988977
0.9180918056
0.001150732314
0.9169025464
0.91631863
6.597391218e-05
0.9130958787
0.0001715581905
0.9128455006
0.0004054033144
0.9123273984
0.001047643877
0.9114429082
0.0002451852048
-0.4566772317
0.4559322502
0.001792625354
-0.4558954966
-0.002144401702
0.4553571096
0.002682788722
-0.454553831
-0.003434825091
0.453915148
0.002181746713
0.001891761353
-0.2284537191
-0.003929341199
0.2272246672
0.005159261075
-0.2509799974
0.005151569069
0.2577323238
-0.01181276553
-0.2623379772
0.02646187616
0.2648647751
-0.02885665443
-0.2546818278
0.03143389805
0.2542486011
-0.03089673402
-0.2385177416
0.02654549885
0.2367718753
-0.02475491516
-0.2243864994
0.02098225195
0.2241327319
-0.02074046002
-0.2105430533
0.02286317175
0.2117485273
-0.02413838105
-0.1974849669
0.02709988283
0.1970957806
-0.02683370118
-0.2075163798
0.03351746729
0.1983652979
-0.02449108312
-0.2147184243
0.008418655262
0.210007075
-0.003778336436
-0.006054869721
-0.2333013982
0.2338930568
0.00546321113
-0.4649869553
-0.007528377567
0.4667283663
0.005786966558
-0.4630618278
-0.004497940141
0.4641597867
0.003399981165
0.004524063751
0.9229106991
-0.003795152193
-0.003024331139
0.002529862745
0.9200860066
0.001155477978
0.9182769312
0.917474108
-0.00019718108
0.9132930598
-0.0003090457586
0.9129573652
-0.0002022911683
0.9122206439
4.950628035e-05
0.9111395633
5.154747752e-05
-0.4551124297
0.4548629346
0.0002990013586
-0.4549385747
-0.001191244193
0.4542593867
0.001870432198
-0.453231914
-0.002312158716
0.4523505734
0.001563521126
0.00162997814
-0.237434183
0.001183995014
0.2409407431
-0.004643737935
-0.2646805218
0.014097824
0.2672721352
-0.01654445674
-0.2681200768
0.0182563696
0.266356649
-0.01633511335
-0.2471667694
0.00636596253
0.2473948501
-0.00650239627
-0.2268527367
-0.009212228095
0.2229838588
0.01310269794
-0.2232138469
-0.02398283485
0.2229484994
0.02424583056
-0.2226657246
-0.01246504126
0.2270928725
0.007998444112
-0.2081092962
0.0118014741
0.2095752934
-0.01338806441
-0.1889750197
0.01443333904
0.188525355
-0.01414711503
-0.1986239503
0.009226636746
0.1959195437
-0.006654412359
-0.003023484989
-0.2320703497
0.2299698239
0.005105404612
-0.4683052119
-0.00796892761
0.4699346061
0.006339533453
-0.4648823007
-0.005117566383
0.4655714473
0.004428419753
0.003920154825
0.9256504666
-0.003231132542
-0.003428789804
0.002179075038
0.9218270864
0.0009253766238
0.9195306296
0.9183994846
-0.0005831802343
0.91387624
-0.001045389578
0.9134195746
-0.001372286223
0.9125475405
-0.0002255974068
0.9109338459
-0.0009409713922
-0.4547820204
0.4545260483
3.037468624e-05
-0.453289301
-0.0002091683229
0.4529884914
0.0005099779337
-0.4520893868
-0.001399437351
0.4519895285
0.0007934546592
0.0007060023403
-0.2484138501
0.003332072587
0.2505927965
-0.005425244206
-0.2753015399
0.01036685306
0.2722091371
-0.007092770042
-0.2626310976
0.007111245613
0.2612577822
-0.005579908403
-0.2297381156
-0.00452481932
0.2232834715
0.01103325057
-0.211359423
-0.03039693549
0.1074938646
0.1018372629
0.01411774679
0.01830748416
-0.02274854635
-0.1088551849
0.1082505269
0.02335320429
-0.01862907765
-0.2467153665
0.03565866112
-0.01900754592
0.1238983045
0.1247950245
-0.01776188569
-0.2202540907
0.2260859296
0.01185064599
-0.1909793156
-0.001830700307
0.1946443227
-0.002007172682
-0.1919730019
0.006466326618
0.1906255297
-0.005281130409
-2.621567163e-05
-0.2208627135
0.2187647053
0.00206177443
-0.4715919257
-0.007020906623
0.4727288808
0.00588395155
-0.4667104219
-0.004507899213
0.4678375644
0.003380756736
0.00249830131
0.9276889681
-0.002135638597
-0.002401164157
0.00124560808
0.9230797796
0.0004950747787
0.9202811629
0.9188945594
-0.0009782786865
0.9148545187
-0.001907935098
0.914349231
-0.002650246652
0.9132898521
-0.001405494865
0.9116238461
-0.001934752015
-0.4545300224
0.4545654102
-0.001440882607
-0.4528785559
0.001527398694
0.4528208196
-0.001469662369
-0.4514394317
0.001352574147
0.4522026307
-0.0007067117666
-0.001401570888
-0.2542546168
0.0008742048335
0.2545264075
-0.001038814611
-0.2734853875
0.00112526965
0.2736605153
-0.001112547231
-0.2567199098
-0.0003929115923
0.2559112023
0.001350771539
-0.2122019587
-0.005393791691
0.2105464421
0.007066975005
-0.09585979348
-0.004750997105
0.09592693981
0.004683850781
-0.02650811531
-0.1353548254
0.1379489894
0.02391395126
-0.02469110654
-0.2454014012
0.2506942343
0.01935750994
-0.200058762
-0.009410946652
0.2018846094
0.007423723379
-0.1896198981
-0.003919509223
0.1900365693
0.003320700626
0.0009623042399
-0.2153870617
0.2142714802
6.712549754e-05
-0.4742219655
-0.004491750941
0.4754602582
0.003253458245
-0.4687437863
-0.002384624679
0.4695030516
0.001625359377
0.0001501979322
0.9287433455
-0.0002856409593
-0.0009189344075
-0.0001848878197
0.9234148654
-0.0001616354929
0.9202579105
0.9187329239
-0.001360969183
0.9162154879
-0.002650512136
0.915638774
-0.004009571212
0.9146489112
-0.002349876061
0.9128297875
-0.002865636556
-0.4547809761
0.4549868894
-0.002555789273
-0.4529240902
0.002790168142
0.4531432591
-0.003009337034
-0.4526721598
0.00320798394
0.4534674821
-0.001917576266
-0.002067876853
-0.2563817392
0.002880059356
0.256693773
-0.003082265174
-0.2731250339
0.002939659676
0.2730127813
-0.002647309759
-0.2535855301
0.001332016582
0.2532533009
-0.0008642471215
-0.2092812086
-2.204410962e-05
0.2095211073
-0.0002105800506
-0.09950585456
0.001619288469
0.09998625828
-0.002099692189
-0.01191787325
-0.1508659758
0.1515643661
0.01121948289
-0.01332574933
-0.2630892751
0.2654259016
0.01096737906
-0.2079379204
-0.005237541568
0.2092643807
0.003764531396
-0.191335699
-0.0005918160578
0.191710788
3.923821008e-05
0.0004562303618
-0.2133444303
0.21304513
-0.0002526211265
-0.4768740348
-0.0007406672286
0.4779737583
-0.0003590563319
-0.4699000798
0.0008762126741
0.4701140082
-0.001090141022
-0.00270608183
0.9282495036
0.001899519852
0.001300403895
-0.00194180178
0.9226505853
-0.001018568086
0.9193346768
0.9177143558
-0.001704945195
0.9179204331
-0.003516774558
0.9174506034
-0.005255288996
0.9163874256
-0.003284532379
0.9146685491
-0.003809518182
-0.4553776925
0.4557629913
-0.003669831171
-0.4534294269
0.00410773033
0.4539297509
-0.004608054242
-0.4543916261
0.005074660052
0.4557847017
-0.003025411181
-0.003417323617
-0.2575895711
0.004140769099
0.2579927018
-0.004436188547
-0.2729726338
0.004718247246
0.2730541472
-0.00462974762
-0.2528878059
0.004064337517
0.252824975
-0.003877662942
-0.2106913726
0.003702644631
0.211078229
-0.004085709025
-0.102074268
0.003059783969
0.102269637
-0.001614639857
-0.001640513101
0.00498165148
-0.1502263616
0.1493950163
-0.004150306232
0.002782019969
-0.2653953283
0.2637719124
-0.00118064381
-0.2098748202
-0.0008856200532
0.2096438209
0.0009760516903
-0.1927874189
-0.0003208793245
0.1930043936
-6.657035528e-05
0.001245761204
-0.2140518214
0.2143011614
-0.001587026589
-0.4779803282
0.004455051444
0.4774099229
-0.003884646186
-0.4699062845
0.003680977815
0.4701616305
-0.003936323778
-0.005869579619
0.926125966
0.0043706366
0.003622480538
-0.003851015965
0.9206320217
-0.001946269231
0.9174299301
0.9157680866
-0.002135456915
0.9200558901
-0.004252805431
0.9195679519
-0.0064942995
0.9186289197
-0.004192014914
0.9170718963
-0.004705631862
-0.4563221194
0.4568770861
-0.004746981668
-0.45448979
0.005423613531
0.4551031267
-0.00603695023
-0.4575825059
0.006746683875
0.459729003
-0.004331202757
-0.004527645238
-0.2593689992
0.005384931263
0.2598778568
-0.005788140165
-0.2735000681
0.006435667938
0.2737053405
-0.006480941852
-0.2528197512
0.00634838645
0.2528637833
-0.006280217287
-0.2123028928
0.00627369958
0.2127402091
-0.006709715874
-0.1033919656
0.004116277089
0.1035114208
-0.002104483738
-0.002131248568
0.01450562186
-0.1417067088
0.1404644402
-0.01326335326
0.01393831346
-0.2546393484
0.2502511349
-0.009585832221
-0.2059912729
-0.0001546852274
0.2073944989
-0.001386741472
-0.1934253423
0.001154984454
0.1936635351
-0.001552911066
0.00340700174
-0.2169411713
0.2175289807
-0.004071923969
-0.4763914538
0.009353423242
0.4749830746
-0.007945044092
-0.4702185639
0.006714065226
0.469114635
-0.00561013634
-0.008791164533
0.9226372365
0.006409785593
0.00587010849
-0.005691340579
0.9175321977
-0.002794751693
0.9145333412
0.9129733349
-0.002529054821
0.9225849449
-0.005065033952
0.922103931
-0.007706646276
0.921270532
-0.005019749993
0.9197174916
-0.005332491475
-0.4575742372
0.458260151
-0.005705663753
-0.4559095704
0.006495934814
0.4567520896
-0.007338454044
-0.4620372148
0.008248260158
0.4637297037
-0.005359344636
-0.004535987811
-0.2615589906
0.006694131
0.2621996364
-0.007231895486
-0.2744606266
0.008204285108
0.2747517566
-0.008346169618
-0.2530807758
0.00839100761
0.2531469412
-0.008356919294
-0.2142522798
0.008370812694
0.2148556358
-0.008974071053
-0.1042820954
0.005323132162
0.1044011228
-0.002702072737
-0.002740086839
0.01800323775
-0.1319793779
0.1307461215
-0.01676998133
0.01798441351
-0.2373012573
0.2326496556
-0.01338800893
-0.2028055382
0.00795302966
0.1972068581
-0.002491816881
-0.193890966
-0.001177961044
0.1937476504
0.001173388277
0.00502459115
-0.2205747522
0.221618937
-0.006125697063
-0.4732549979
0.01327398264
0.4712448511
-0.01126383583
-0.467904127
0.009533544583
0.4664279947
-0.008057412238
-0.01134521962
0.9196389904
0.007466523007
0.006876942748
-0.007274495275
0.9134614734
-0.003527593326
0.9107864393
0.9094457416
-0.006566558619
0.9291515035
-0.01329479955
0.928832172
-0.0200940494
0.9280697819
-0.005943690574
0.9268955918
-0.02132845907
-0.4591013399
0.4599591404
-0.006801491077
-0.4576209437
0.007730113886
0.4586655489
-0.008774718926
-0.4679369147
0.009789029639
0.4717937581
-0.007055040436
-0.006525901415
-0.2636245673
0.009986686066
0.2650918311
-0.01135744677
-0.2756632063
0.01048175591
0.2753977632
-0.01007958754
-0.2532992694
0.008447781367
0.2548778455
-0.009935977445
-0.2170522577
0.01008253214
0.2178881957
-0.005420173637
-0.00549829659
-0.0528260782
0.003352441972
0.05287334723
-0.003399711002
-0.05799598868
0.006575131045
0.05751015893
-0.01281471161
0.006725410314
0.01664310706
-0.123374408
0.2433305452
-0.02956327625
0.01628772057
-0.1233236886
-0.2208628926
0.01486176973
0.2145207583
-0.008594959313
-0.1918023287
0.003952715382
0.191052288
-0.003342746623
-0.1949370735
0.004401462878
0.1957010489
-0.00528925477
0.008290957626
-0.2265315913
0.2273575877
-0.009145341102
-0.4688990981
0.01571934043
0.4665568299
-0.01337707221
-0.4648912522
0.011561615
0.4632378814
-0.009908244072
-0.01329054938
0.9154161474
0.008991903397
0.00852148898
-0.0085270508
0.9086979748
-0.00418490832
0.9064442969
0.9052608333
-0.002999781614
0.9321512852
-0.006077760812
0.9319101512
-0.009316526682
0.9313085478
-0.006328609259
0.9303895237
-0.006481849278
-0.4628238868
0.4637248541
-0.00722957653
-0.4615103256
0.008233191356
0.4625820441
-0.00930490982
-0.4756292677
0.01046145418
0.4741070176
-0.004741674037
-0.004119168064
-0.2675933086
0.003910906925
0.267299653
-0.003514397068
-0.2768436303
0.002809186667
0.2770523482
-0.002883651726
-0.2532981648
0.004597804306
0.2545815113
-0.005800603243
-0.2210932728
0.011374126
0.2220980607
-0.006177084169
-0.006201829727
-0.0545245684
0.008155677041
0.1094440045
-0.05445906651
-0.0042892561
-0.004326790544
-0.1117035784
0.009098990858
0.1116317288
-0.01788222984
0.008855088565
0.02928445635
-0.2362858668
0.2328351991
-0.02583680576
-0.2042621246
0.008695016963
0.2020943481
-0.006616192981
-0.1911043045
0.004357725046
0.1867572044
-0.0001408500593
-0.1986239592
0.0004186995514
0.2033186797
-0.005210448114
0.009841304397
-0.2321232965
0.2324810409
-0.01020336527
-0.4644740524
0.01650967207
0.462615379
-0.0146509986
-0.4615747947
0.01287705583
0.4596828156
-0.01098507672
-0.01284263532
0.9103579773
0.008886062839
0.009014742638
-0.009290862901
0.9051462025
-0.004539281172
0.9016927151
0.9007215521
-0.003152906273
0.9353041915
-0.006384364663
0.9351416096
-0.009775104756
0.9346992879
-0.006646326349
0.9340209226
-0.006760177273
-0.464712969
0.4656840668
-0.007617424127
-0.4636766104
0.008666790867
0.4647859129
-0.009776093253
-0.4705294277
0.01096630894
0.466680304
-0.003411672956
-0.003672381793
-0.2638061698
-0.0008587724655
0.2617795568
0.002973350438
-0.276440745
-0.008048706835
0.2756520578
0.008966978892
-0.2601009022
-0.008107057447
0.2619248499
0.006378945006
-0.2300346429
0.003743401475
0.2350294101
-0.008717482169
-0.1124718739
0.01588002729
0.2238700864
-0.01540167559
-0.1118765641
-0.2258871739
0.02140491543
0.2264837075
-0.02200144896
-0.2200227163
0.01388958487
0.2158689677
-0.009767667828
-0.1937377327
0.001757889463
0.1924903011
-0.0006105999546
-0.1852021166
0.001050383333
0.1862273797
-0.002196967022
-0.2078372324
0.007179647904
0.2067612228
-0.006169542657
0.01217414984
-0.2325402874
0.2301507496
-0.009784612027
-0.4609850885
0.01794288354
0.4577213556
-0.01467915063
-0.457793394
0.01308454082
0.455679432
-0.01097057872
-0.01320121746
0.9054497711
0.009123879494
0.008985544225
-0.009338993486
0.9012839785
-0.004745472392
0.8970991941
0.8959760797
-0.003232069449
0.9385362609
-0.006537081762
0.9384466219
-0.009988356408
0.9381505625
-0.006800686109
0.9376954704
-0.006862218147
-0.4666770732
0.4676688737
-0.007792486647
-0.4658949064
0.00884563236
0.4669977711
-0.009948497034
-0.4650302934
0.01112197933
0.4662125706
-0.006115509414
-0.006188568545
-0.2533055367
-0.00036582407
0.2497772803
0.003948030547
-0.2708017442
-0.01389132153
0.2682780527
0.0165233047
-0.2651755662
-0.02092158934
0.2651774466
0.02102299487
-0.246292708
-0.01737307646
0.2485570426
0.01516733513
-0.227427351
-0.008336897214
0.2293060197
0.006475251505
-0.2219365545
-0.00542318157
0.2207966571
0.006551477876
-0.2071745716
-0.01151005601
0.2057508024
0.01287959335
-0.1915504715
-0.01386963558
0.1923775118
0.01294655031
-0.1920551675
-0.006713541257
0.1949207737
0.003753417069
-0.2144331633
0.006179783267
0.2176450943
-0.009425699396
0.01133740696
-0.2281489997
0.2275425027
-0.0107309099
-0.4568990712
0.01795159636
0.454159925
-0.01521245011
-0.4527729339
0.01176784674
0.4511598592
-0.01015477196
-0.01228474015
0.8991645364
0.009525239419
0.009044735483
-0.006872190506
0.8958714289
-0.004776935895
0.8950039395
0.8911991439
-0.003243099388
0.9417793603
-0.006550342965
0.9417538655
-0.009982952291
0.9415831719
-0.006806480027
0.9413189677
-0.006799969549
-0.4686427495
0.4696182815
-0.007782012017
-0.4680812858
0.008805834466
0.4691425861
-0.009867134827
-0.4674354778
0.01098419516
0.4686165998
-0.006101934855
-0.006063382292
-0.2378214423
0.00666530282
0.2345001509
-0.003336508098
-0.2581274531
-0.009812603537
0.2540475708
0.01395871447
-0.2614941415
-0.02419083589
0.2591356589
0.02663336473
-0.2510506523
-0.03083015092
0.2506250673
0.03131941239
-0.2338366909
-0.03119318696
0.2348354564
0.03022062272
-0.219672911
-0.0291606194
0.2197576295
0.02906153951
-0.205785528
-0.02680629922
0.2070528292
0.02548614601
-0.1983829825
-0.01891412032
0.2014176822
0.01580673368
-0.2058514354
-0.004311357687
0.2100663079
4.47420222e-05
-0.2264673025
0.01196533197
0.226221473
-0.01171985303
0.01028860456
-0.2259463418
0.2254702751
-0.009812537778
-0.450458187
0.01670440014
0.4487529408
-0.01499915398
-0.4495828841
0.01336726041
0.4480013075
-0.01178568381
-0.0113250526
0.8920857895
0.01006537229
0.008338427181
-0.006396103021
0.8909424793
-0.004374378888
0.8929822154
0.886824765
-0.00319677888
0.9449761392
-0.006446945735
0.9450040324
-0.009797556076
0.9449337822
-0.006682703955
0.9448215105
-0.006617394916
-0.470560367
0.4714941129
-0.007616449872
-0.4701718103
0.008588017381
0.4711687052
-0.009584912331
-0.4697501698
0.01062146905
0.4708316155
-0.00588473507
-0.005818179659
-0.2346787489
0.006454606538
0.234971538
-0.006747395709
-0.2408353833
0.005373585101
0.2364466549
-0.0009728339793
-0.2496633396
-0.01159275743
0.2460324116
0.01526585856
-0.2465989364
-0.02392758419
0.2446191124
0.02594866677
-0.2359658888
-0.02946977597
0.2358034975
0.02965102677
-0.2205848717
-0.02732722724
0.221067108
0.02683418072
-0.2135283473
-0.02106374813
0.2162679852
0.01829080939
-0.2125177345
-0.007848779258
0.2165433446
0.003790062192
-0.2232339738
0.009125162094
0.2256571389
-0.01155199035
-0.2250071989
0.01062664869
0.2246606059
-0.01028005569
0.009194917109
-0.224223907
0.2238481738
-0.008819183896
-0.4471933665
0.01524193819
0.4457699589
-0.0138185306
-0.4465527082
0.01241880728
0.4451653353
-0.01103143436
-0.01401966234
0.8870333779
0.009393801689
0.009678272237
-0.00921242049
0.8861352375
-0.001741478068
0.8855112729
0.8850832869
-0.003104088584
0.9480802278
-0.006249765674
0.9481497095
-0.009469279846
0.9481532964
-0.006454086428
0.9481516888
-0.00634537174
-0.4723884126
0.4732669976
-0.007332671386
-0.4721259799
0.008238630683
0.4730457062
-0.009158356968
-0.4718583409
0.0101028555
0.4728295754
-0.005579242225
-0.0054948478
-0.2357922056
0.006083592041
0.2360473274
-0.006338713852
-0.2355377639
0.007109993925
0.2357952005
-0.007367430477
-0.2353294009
0.008133941256
0.2352161143
-0.008020219473
-0.2379562867
0.001199355021
0.2357600925
0.001005699214
-0.2344304965
-0.00522769778
0.2338109674
0.005852984081
-0.22347467
-0.004213295635
0.2245829152
0.003101598151
-0.2248754499
0.002890735885
0.2275812932
-0.005602348013
-0.2265362513
0.01075984893
0.2264215629
-0.01064516061
-0.224954644
0.01016220764
0.2247525659
-0.009960129474
-0.2237589853
0.009255402428
0.2234976046
-0.008994021787
0.008154913761
-0.2228686138
0.2225677574
-0.0078540573
-0.4444706737
0.01373911276
0.4432843798
-0.0125528188
-0.4439044224
0.01136054338
0.4426994095
-0.0101555305
-0.01304061872
0.8824752669
0.008640965583
0.008957764089
-0.008615479565
0.8817100983
-0.004279968795
0.8811757622
0.8808033181
-0.002976506311
0.9510567341
-0.005982908274
0.9511561115
-0.009037887372
0.9512082755
-0.006151474148
0.9512785695
-0.006013293936
-0.4741031163
0.4749189778
-0.006967335622
-0.4739227733
0.007801417896
0.4747607747
-0.008639419243
-0.4737460851
0.009490093105
0.4746102397
-0.005222642139
-0.005131605487
-0.2367579805
0.005663439056
0.2369779839
-0.005883442497
-0.2364981613
0.006535550831
0.236711169
-0.006748558545
-0.2358853874
0.007367461702
0.2360833022
-0.007565376581
-0.234871144
0.00812545581
0.2350441381
-0.00829844998
-0.2328091026
0.008730416898
0.2327518148
-0.008673129144
-0.2265709606
0.009078882399
0.2268077993
-0.009315721116
-0.2285253042
0.009387796911
0.2285134877
-0.009375980419
-0.2261206886
0.009224248292
0.2260318324
-0.009135392104
-0.2242255751
0.008767315796
0.2240718239
-0.00861356465
-0.2228077945
0.008072761246
0.2226047394
-0.007869706132
0.007207366934
-0.2217887367
0.2215470915
-0.006965721778
-0.4421977001
0.01229979396
0.4412019201
-0.01130401406
-0.4416084198
0.01028802998
0.4405647149
-0.00924432512
-0.01198084582
0.8783992716
0.007867524497
0.008189316639
-0.007953028184
0.8776822807
-0.003961673746
0.8771844078
0.8768416444
-0.002825308051
0.9538820422
-0.005669849529
0.9540006529
-0.008540430756
0.9540788567
-0.005802321142
0.9541871728
-0.005646712891
-0.4756919581
0.4764428443
-0.006553207418
-0.4755561442
0.007314522082
0.4763135127
-0.008071890614
-0.4754219509
0.008831806553
0.4761837918
-0.004838041971
-0.004755605438
-0.23758969
0.005227026388
0.2377790169
-0.005416353227
-0.2372931642
0.005967476842
0.2374698086
-0.006144121181
-0.2366130475
0.006647234204
0.2367707206
-0.006804907336
-0.2355004084
0.00724375258
0.2356341511
-0.007377495341
-0.2325709545
0.007664942358
0.2325089644
-0.007602952256
-0.2274075604
0.007960306576
0.2275719159
-0.008124662039
-0.2284653482
0.008138498762
0.2284461084
-0.008119258939
-0.2257906643
0.007981773747
0.2257172951
-0.007908404528
-0.2236620366
0.007612958956
0.2235399232
-0.007490845578
-0.2220611374
0.007060943778
0.2218987942
-0.006898600621
0.006363655795
-0.2209172925
0.2207195585
-0.006165921764
-0.4402877046
0.01096699198
0.4394472007
-0.01012648817
-0.4396210829
0.009257400925
0.4387162709
-0.008352588985
-0.01091152463
0.8747717452
0.007113467566
0.007425583465
-0.007271990332
0.8740427464
-0.003630814438
0.8735432319
0.8732108299
-0.002659904139
0.9565419463
-0.005329808206
0.956670557
-0.008006652489
0.956755701
-0.005426001042
0.956872841
-0.005266319678
-0.4771514944
0.4778396228
-0.006114129488
-0.4770303124
0.006805392174
0.477711655
-0.007486734737
-0.4768983976
0.008163558996
0.4775685791
-0.004452544391
-0.004381196144
-0.2383052708
0.004795682539
0.2384682435
-0.004958655277
-0.2379537031
0.005425727479
0.2381009812
-0.005573005617
-0.2371954779
0.005985604317
0.2373227364
-0.00611286279
-0.2359892473
0.006462792961
0.2360939905
-0.006567536169
-0.2323216835
0.006757582516
0.2322595925
-0.006695491558
-0.2279764791
0.00701977898
0.2280859066
-0.007129206443
-0.2283813626
0.007107931952
0.2283578749
-0.007084444239
-0.2255138803
0.00695685295
0.2254508664
-0.006893839022
-0.2232085183
0.006647405077
0.2231081025
-0.006546989301
-0.2214584791
0.006194878846
0.2213253487
-0.006061748521
0.005620527296
-0.2202009511
0.2200364102
-0.005455986435
-0.4386725294
0.009758682957
0.437957288
-0.009043441516
-0.4378982042
0.008295810874
0.4371115493
-0.007509156012
-0.009877142702
0.8715508537
0.0064035713
0.006694462959
-0.006604283368
0.870769887
-0.003303910028
0.8702428585
0.8699069199
-0.002489061527
0.9590310078
-0.004980455065
0.9591619506
-0.007463705618
0.9592389515
-0.005045140315
0.9593418778
-0.004887602074
-0.4784857269
0.4791140512
-0.005673464696
-0.4783557378
0.006299381744
0.4789676146
-0.006911258568
-0.4781972779
0.007513799724
0.4787872794
-0.004082599912
-0.004021201329
-0.2389217873
0.004385611682
0.2390625246
-0.004526348998
-0.2385059529
0.004924322986
0.2386296977
-0.005048067829
-0.2376680867
0.005390135102
0.2377723536
-0.005494402021
-0.2363737022
0.005778541559
0.2364566595
-0.005861498897
-0.2320764769
0.005986422526
0.2320169094
-0.005926855022
-0.228353087
0.006222078076
0.2284247365
-0.006293727578
-0.2282830091
0.006249858656
0.2282568474
-0.006223696962
-0.2252736228
0.006103630851
0.225218026
-0.006048034044
-0.2228315959
0.005836503918
0.2227466932
-0.005751601231
-0.2209601287
0.005455862352
0.2208485121
-0.005344245732
0.004973345431
-0.2196020314
0.2194629424
-0.004834256395
-0.4372949651
0.008683138457
0.4366806394
-0.008068812714
-0.4363994374
0.007421274441
0.4357124504
-0.006734287517
-0.008908462211
0.8686911804
0.005751325839
0.006016809589
-0.005972449716
0.8678338745
-0.002992740869
0.8672631497
0.8669141791
-0.002319208904
0.9613502168
-0.004634594525
0.9614773362
-0.00693044234
0.9615347993
-0.004672578492
0.9616061183
-0.004522104326
-0.4797015793
0.4802742569
-0.005245256048
-0.479545903
0.005811564903
0.4800954888
-0.00636115072
-0.4793413749
0.006898174629
0.4798621013
-0.003736672685
-0.003682228338
-0.2394549111
0.004004610532
0.2395770308
-0.004126730229
-0.2389713862
0.004468122092
0.2390762905
-0.004573026322
-0.2380575312
0.004860070742
0.2381443631
-0.004946902673
-0.2366792797
0.005181506647
0.2367456522
-0.005247879208
-0.2318438424
0.005328345418
0.2317882572
-0.005272760284
-0.2285979529
0.005541695255
0.2286438284
-0.005587570743
-0.2281755889
0.005528914675
0.2281477509
-0.005501076747
-0.2250600699
0.005387116109
0.2250100664
-0.005337112602
-0.222510271
0.00515159
0.2224369009
-0.00507821992
-0.2205394111
0.004824664975
0.2204440671
-0.004729320979
0.004412371211
-0.2190935762
0.2189743694
-0.004293164365
-0.4361091475
0.007734643071
0.4355766913
-0.007202186955
-0.4350894814
0.006637416505
0.434486508
-0.006034443212
-0.008020752211
0.8661486035
0.005162643928
0.005400685237
-0.005388662746
0.8652017851
-0.002703874866
0.8645783618
0.8642103042
-0.002155465961
0.9635056827
-0.004302312625
0.9636241828
-0.006421373862
0.9636538606
-0.004317942765
0.9636810472
-0.004178359993
-0.4808081336
0.4813300295
-0.004839838689
-0.4806152406
0.005352660553
0.4811097624
-0.005847182408
-0.4803518139
0.006327198159
0.4808132613
-0.003418382605
-0.003370262915
-0.2399182563
0.003655098601
0.2400247714
-0.003761613665
-0.2393672125
0.004056558229
0.2394569794
-0.004146325077
-0.2383836919
0.004390245472
0.2384571635
-0.004463717045
-0.2369245974
0.004660197349
0.2369782367
-0.004713836616
-0.2316285042
0.004763359913
0.2315776782
-0.004712533951
-0.2287529387
0.004957491014
0.2287811954
-0.004985747684
-0.228062595
0.004917407857
0.22803377
-0.004888582835
-0.2248669935
0.004779845765
0.2248213945
-0.004734246777
-0.2222308382
0.004568879448
0.2221663534
-0.004504394714
-0.2201780009
0.004283401108
0.2200952958
-0.004200696014
0.003926089414
-0.2186561087
0.2185527298
-0.00382271054
-0.4350791726
0.006904678246
0.4346136422
-0.006439147847
-0.4339385237
0.005943079935
0.4334063766
-0.005410932876
-0.007221409769
0.8638819204
0.004639142508
0.0048489503
-0.004859617663
0.862839993