/*--------------------------------*- C++ -*----------------------------------*\
| =========                 |                                                 |
| \\      /  F ield         | OpenFOAM: The Open Source CFD Toolbox           |
|  \\    /   O peration     | Version:  v1912                                 |
|   \\  /    A nd           | Website:  www.openfoam.com                      |
|    \\/     M anipulation  |                                                 |
\*---------------------------------------------------------------------------*/
FoamFile
{
    version     2.0;
    format      ascii;
    class       volScalarField;
    location    "1.45";
    object      nut;
}
// * * * * * * * * * * * * * * * * * * * * * * * * * * * * * * * * * * * * * //

dimensions      [0 2 -1 0 0 0 0];


internalField   nonuniform List<scalar> 
12556
(
1.155875668
1.155844222
1.155814945
1.155794283
1.156030211
1.156035273
1.156066449
1.15612947
1.156243392
1.156410277
1.156658553
1.0452315
1.00886466
1.071982386
1.156575264
1.156382392
1.156226414
1.156133006
1.156067694
1.156045808
1.155826016
1.155846234
1.15587224
1.155898195
1.155097725
1.155011577
1.154937308
1.154903012
1.155135623
1.155205754
1.155384502
1.155739143
1.156283421
1.157140587
1.112382944
0.9702398105
0.9276742986
0.9644901464
1.094632842
1.157186842
1.156362731
1.155811241
1.155394486
1.155232302
1.154972807
1.15502166
1.155097874
1.155176759
1.154290945
1.154146686
1.154035209
1.153996313
1.154289183
1.154495331
1.154948741
1.155692384
1.157009185
1.035503061
0.8541831538
0.7569411921
0.7314857852
0.7613807477
0.867814841
1.055625505
1.157108205
1.155837753
1.154921254
1.154520785
1.154149066
1.154190283
1.154305886
1.15443914
1.153462989
1.153280575
1.15315908
1.15317841
1.153535522
1.153988843
1.154975493
1.156434195
0.9912692597
0.7527716065
0.6098569284
0.5266174615
0.497808828
0.5254061635
0.6137875495
0.7720028523
1.020400405
1.15656617
1.154833742
1.154006629
1.15338788
1.153388368
1.153519583
1.153696725
1.152617276
1.152396141
1.15228483
1.152374915
1.152933477
1.153789529
1.155657816
1.063964335
0.7465183921
0.5507643795
0.4195837596
0.3327630345
0.2968111364
0.3217251383
0.4035036891
0.5453265138
0.7620661135
1.085947809
1.155317908
1.153768879
1.152727459
1.152601881
1.152721031
1.152932234
1.151764549
1.151531035
1.1514645
1.151727094
1.152561972
1.154014153
1.15718594
0.8558968149
0.5962561535
0.4207589379
0.2869511759
0.1891985936
0.1490878178
0.1753620923
0.2542509788
0.3820397829
0.5793936166
0.8685346869
1.156478461
1.153878755
1.152234963
1.151865394
1.151928823
1.152152673
1.150900374
1.15067122
1.150691892
1.15122301
1.15233264
1.154713937
1.031517766
0.732054248
0.5061236685
0.3433947702
0.2069506118
0.0960114379
0.05465518499
0.08675406601
0.1632330863
0.2797044971
0.4565183144
0.7103872289
1.09897677
1.154407064
1.151858424
1.151172228
1.15113133
1.151350563
1.150097083
1.149889663
1.150034441
1.150889549
1.152379728
1.155884066
0.9323733477
0.6691313694
0.4699092753
0.319769076
0.1896292676
0.07840114604
0.05004618608
0.1232996506
0.2255352445
0.3849220447
0.6191809883
0.979108208
1.155315654
1.151669701
1.150568435
1.150365266
1.150554671
1.149363155
1.149199981
1.149521287
1.150784819
1.152790987
1.15742234
0.879039246
0.6418602634
0.4745115217
0.3470842023
0.2423540375
0.1713519624
0.06190160073
0.1210581206
0.2092760609
0.3530017471
0.5660154946
0.901785477
1.156530549
1.151680157
1.15007743
1.149670012
1.149810983
1.148789691
1.148687845
1.149209207
1.150929585
1.153544684
1.159164317
0.8580063718
0.6522713019
0.5033048821
0.396524682
0.3235040908
0.3177710177
0.08754909379
0.1382858511
0.2187428108
0.3529356743
0.5518701764
0.8596580683
1.157949292
1.151928656
1.14977362
1.149120851
1.149195124
1.148383894
1.148366592
1.149143751
1.151415112
1.154623679
1.135710406
0.8566907228
0.6725126356
0.5414339152
0.448894576
0.3943819686
0.4382105624
0.1191235704
0.167816581
0.2471671966
0.375721793
0.5628475259
0.8480386699
1.15950746
1.152396286
1.149673128
1.148771124
1.148764481
1.148210267
1.148279682
1.149296065
1.152090209
1.155955404
1.114616169
0.8681538447
0.7024245122
0.5818255692
0.4925332106
0.4300834276
0.4461482605
0.155761333
0.2097950804
0.2930896935
0.422847664
0.5989859198
0.862898171
1.152446656
1.153113791
1.149818025
1.148651221
1.148569708
1.148208094
1.148387131
1.149733438
1.153130058
1.157469052
1.1080061
0.8928371357
0.7470924949
0.6279675131
0.5356663221
0.4516580815
0.3884425194
0.05135376159
0.2034505409
0.272844054
0.3647553315
0.4918433275
0.6634175597
0.9002694965
1.155072494
1.153940993
1.150178972
1.148782693
1.14861604
1.148421025
1.148704838
1.150339408
1.15422438
1.159168335
1.130721351
0.9562174959
0.8006547648
0.693329915
0.5967830186
0.4995995778
0.2882806177
0.1044514309
0.3013638085
0.3825126595
0.4716875991
0.5923626567
0.7463847093
0.9559316176
1.163882235
1.154861668
1.150717708
1.149111929
1.148893
1.148715103
1.149094241
1.150998887
1.155362454
1.160793965
1.168867595
1.028819813
0.8880391344
0.7841222917
0.6966780864
0.6054397073
0.108156063
0.1492587229
0.4109519603
0.5758539591
0.629265115
0.7238296263
0.8614302871
1.0472132
1.1651562
1.155790403
1.151358409
1.149591861
1.149312888
1.149135752
1.14960393
1.151745635
1.156522913
1.162351386
1.170731007
1.137723912
1.017941058
0.9273657222
0.8612143499
0.7755033621
0.04771362832
0.1800468197
0.4630698612
0.7766912997
0.8449491041
0.8983945253
1.007416057
1.16921988
1.16622086
1.156661002
1.152032794
1.150162846
1.149870163
1.149518949
1.150054901
1.152398811
1.15756157
1.163753261
1.172286108
1.173182703
1.155928883
1.100703508
0.9640566564
0.4545616239
0.02900263004
0.2644364502
0.5527433807
0.8423930709
1.032401497
1.121085531
1.157855544
1.170547278
1.167050522
1.157413416
1.152675089
1.150739974
1.150420234
1.149946348
1.150538853
1.153045599
1.158508368
1.164958158
1.173617428
1.174264353
1.155970646
1.080608546
0.7988109073
0.1113296884
0.07314166766
0.3600615963
0.649229761
0.8943510154
1.045952067
1.123802118
1.159461948
1.171293031
1.167573927
1.158014401
1.153249964
1.151303418
1.15096775
1.150256611
1.150882921
1.153514708
1.159244955
1.165938035
1.17459546
1.175090017
1.155401723
1.069804206
0.6334790039
0.05131914583
0.1768943964
0.4344553815
0.7040658706
0.9121177416
1.049029872
1.125249362
1.160221046
1.171583856
1.167826239
1.158425109
1.153682603
1.151750907
1.151408543
1.150580903
1.151236553
1.153959864
1.159866588
1.16668368
1.175281947
1.175429649
1.154321386
1.05730711
0.5632702999
0.04999494527
0.1989276693
0.4500941337
0.7090522131
0.9158413644
1.05071836
1.125804868
1.160351437
1.171508038
1.167842399
1.158717721
1.154050655
1.152146932
1.151797892
1.150754073
1.151426629
1.154214102
1.160270624
1.167214472
1.17571425
1.175474249
1.152826316
1.042311436
0.5144625862
0.0501456721
0.2067143909
0.45585032
0.7105206846
0.9176034457
1.051386351
1.125716833
1.160022642
1.171147434
1.167666933
1.1588369
1.154256778
1.152386425
1.152032624
1.150948829
1.151646451
1.154483997
1.160612889
1.167560819
1.175939151
1.175295739
1.150946668
1.024058586
0.4817978298
0.05080294929
0.2127157274
0.4598538324
0.7104134492
0.9174617189
1.051166954
1.125133726
1.159359345
1.170570788
1.167343542
1.158885087
1.154421813
1.152583643
1.152219678
1.150981162
1.151701074
1.154579697
1.16078057
1.167766561
1.17600463
1.174941211
1.148638505
1.001524787
0.4594005848
0.05180416865
0.2173087532
0.4624794865
0.7093017195
0.9157804364
1.050096315
1.124128643
1.15844106
1.169831985
1.166909313
1.158787445
1.154427731
1.152617475
1.152244071
1.151059113
1.151814463
1.15473588
1.160955933
1.167866115
1.175950002
1.174426435
1.145693796
0.976052403
0.4434647602
0.05304272178
0.2206445554
0.4640140617
0.7074822017
0.9130571236
1.048248277
1.122738461
1.157313935
1.168971768
1.166391805
1.158668742
1.154433493
1.152645214
1.152256251
1.15097008
1.151758987
1.154721244
1.160980237
1.167889981
1.175800707
1.173736755
1.141807605
0.9510755694
0.4322245507
0.05448875873
0.2230047154
0.46467025
0.7051311934
0.9096609554
1.045758146
1.121001618
1.156008744
1.168019993
1.165811454
1.158419339
1.154282762
1.152510173
1.15210626
1.150955622
1.151789719
1.154798744
1.1610557
1.167850043
1.175570494
1.172839289
1.136776512
0.9287797105
0.4246299032
0.0561328656
0.2246222592
0.4646203298
0.7023549213
0.9058038366
1.042769977
1.118967608
1.154553086
1.166998992
1.165183053
1.15819422
1.15417717
1.152413962
1.151988464
1.150772323
1.151646696
1.154698114
1.160977062
1.167761676
1.17526717
1.171695529
1.130622905
0.9094267981
0.4196225897
0.05797931216
0.2256577649
0.463985555
0.6992296851
0.9016128591
1.03940502
1.116688182
1.152973245
1.165926025
1.164518275
1.157839719
1.153911738
1.152153834
1.151708427
1.150689414
1.151613765
1.15471483
1.160982694
1.167626567
1.174896209
1.170272411
1.123589022
0.8927449555
0.4165043963
0.06005393938
0.2262731805
0.4629223658
0.6958298524
0.8971743826
1.035754233
1.114208516
1.1512921
1.164814203
1.163825906
1.157551829
1.153734618
1.151976074
1.151504419
1.150441903
1.151407821
1.154548903
1.160823934
1.16745776
1.174460021
1.168550754
1.116018768
0.8783733627
0.4149372442
0.06238015109
0.2265731335
0.4615166151
0.6922176168
0.8925489915
1.031884184
1.111565977
1.149528722
1.163673572
1.163112879
1.157126434
1.153391702
1.151632647
1.151138644
1.150305803
1.151322942
1.154514178
1.160776969
1.167252136
1.17395842
1.166533309
1.108239472
0.8660695497
0.4147566485
0.06498358389
0.2266219764
0.4598194138
0.6884388747
0.8877824626
1.027845396
1.10879119
1.147698629
1.162511698
1.162385167
1.156802599
1.153166824
1.151400329
1.15087758
1.150028053
1.151084243
1.154310294
1.160563072
1.167021955
1.173389272
1.164242349
1.100505384
0.855612443
0.415801373
0.06788340999
0.226474688
0.4578734829
0.6845347409
0.882915873
1.0236793
1.105909664
1.145814333
1.161334221
1.161645938
1.156337961
1.152784929
1.151015933
1.150470909
1.149837726
1.150945073
1.154220365
1.160466466
1.166760911
1.172751039
1.161710621
1.092951186
0.846638017
0.4176345371
0.0710961383
0.2261728773
0.4557464837
0.6805485837
0.8779903446
1.019422418
1.102943155
1.143885726
1.160145288
1.160900555
1.155981243
1.15251181
1.150731498
1.150156408
1.149574129
1.150715271
1.154019463
1.16023755
1.166480582
1.172042137
1.158979649
1.085646021
0.8388544955
0.4200113707
0.07463713089
0.2257539359
0.4534923739
0.676527145
0.8730475705
1.015108164
1.099910753
1.141920976
1.158948252
1.160146951
1.155527218
1.15214655
1.150363212
1.149768055
1.149304736
1.150497523
1.153849269
1.160062846
1.166174874
1.171265926
1.156097901
1.078647439
0.8320885545
0.4228964629
0.07853041987
0.2252741513
0.4511754775
0.6725218384
0.8681316894
1.010769461
1.096830886
1.139928334
1.157748194
1.15939601
1.155090963
1.151785629
1.149990887
1.14936417
1.149112264
1.150331578
1.1537064
1.15989408
1.165857896
1.170433494
1.153131477
1.071981546
0.8262481924
0.4261879109
0.08277683683
0.2248035115
0.4488797299
0.6685909598
0.8632860103
1.006436497
1.093720022
1.137913807
1.15656143
1.158648276
1.154758566
1.151523803
1.149725248
1.149082263
1.148733523
1.150013875
1.153442829
1.159609442
1.165557639
1.169587428
1.150230108
1.065668048
0.8211826702
0.4296962445
0.08733773215
0.2244261437
0.44670375
0.6648142462
0.8585654104
1.002143607
1.090594712
1.135880829
1.15545693
1.157974765
1.154152831
1.151024576
1.149215584
1.148534911
0.1530362736
0.0553216056
0.04309297388
0.3021121323
0.08035666019
0.05834211307
0.4253479106
0.1128335434
0.08423670834
0.4510593906
0.1428759996
0.1175826495
0.3976741024
0.03877072023
0.04820156643
0.179293879
0.1467618751
0.3317971179
0.07599007133
0.03980369004
0.09899224586
0.2442783107
0.1824114188
0.07624819529
0.05503121106
0.04445033748
0.08246351279
0.0280417416
0.01864334881
0.05933729686
0.1023960094
0.1038993713
0.3031011519
0.2950508681
0.1763783492
0.02731670496
0.040521562
0.08411677913
0.1183881614
0.1049404346
0.379473619
0.4078923363
0.3097170448
0.3631196672
0.2039077483
0.2291360976
0.04863426035
0.03423437959
0.1150722119
0.1463890938
0.1244178763
0.4249580884
0.4441624703
0.4191970951
0.4592284137
0.1333667438
0.1727093504
0.09263041206
0.06725060625
0.4431240572
0.3990727521
0.4411353371
0.4285292478
0.07909040935
0.1041517235
0.01663019632
0.1341119371
0.1263220272
0.4848450885
0.3966390475
0.3928040899
0.3710271667
0.03103637644
0.05106199753
0.2923021868
0.1056657129
0.07780274993
0.06299959879
0.1438725287
0.03010942689
0.05722073796
0.0416090988
0.02932371434
0.04698823869
0.03106537598
0.04864181446
0.2325292996
0.2567132322
0.2506172514
0.2005369983
0.1869094615
0.1619193985
0.2032707985
0.03387465125
0.02717960546
0.06985097861
0.0404824806
0.04621897858
0.04983299293
0.04068199479
0.06831225834
0.1754350088
0.2001263121
0.3789466693
0.1561735638
0.1320807556
0.185195154
0.1581709721
0.06390938316
0.04987557832
0.100581713
0.06916089597
0.08954863161
0.04671027451
0.0664701542
0.096319956
0.1055609994
0.1317241483
0.459828509
0.1058115914
0.08049824267
0.1306878388
0.1071583689
0.1224128575
0.09660670565
0.05204547889
0.07731462599
0.4168566879
0.01301703841
0.054256447
0.03263177917
0.07943993478
0.05583565948
0.01222621541
0.1409565798
0.1360950543
0.01859999016
0.004743219764
0.03073873237
0.3650652417
0.06134635774
0.01921809434
0.0112828627
0.03227913095
0.01954463803
0.05880272921
0.2245281244
0.1599692232
0.09129603004
0.09740157292
0.06191343045
0.03534314442
0.01502299358
0.008178547595
0.2313293069
0.2598907167
0.1575644917
0.009860930167
0.1488810388
0.1831239192
0.1546449263
0.0118580301
0.05337970654
0.04610659269
0.07356914045
0.157552253
0.1448542912
0.1431114446
0.06897262821
0.1086835436
0.04152417946
0.01258380047
0.02205456656
0.02137292035
0.02936704059
0.04536525678
0.04466043069
0.03225132401
0.1317841457
0.1190136905
0.1307966269
0.09283865082
0.1156593109
0.1286925145
0.02677442531
0.01346160553
0.04657107506
0.02176097311
0.03696593071
0.02937077899
0.01880165353
0.02876006235
0.02078544356
0.01433161754
0.02226121318
0.01834189368
0.009722307617
0.0157188226
0.02110836205
0.03487307672
0.03545457116
0.04144035328
0.04043176909
0.0167121646
0.01029796744
0.0812450904
0.01404839631
0.02539938037
0.009751437312
0.01233998593
0.07751361502
0.09335035176
0.2594774068
0.2471497138
0.068491357
0.05723745147
0.01151172104
0.04612992832
0.1927670947
0.1804486444
0.2097546697
0.1977576451
0.04647083296
0.04979399522
0.04188736659
0.09148058424
0.0653536562
0.0555319108
0.040144979
0.06490159786
0.1030119201
0.03648212802
0.02284644644
0.01438223358
0.05119886614
0.02545489454
0.04027958797
0.0245544179
0.0566468576
0.0398606219
0.038980734
0.1982439065
0.03145382803
0.1976364888
0.2176007678
0.03508051179
0.03913735038
0.03186054916
0.03459417966
0.2139153488
0.03234456997
0.03207975382
0.04375751337
0.06780659365
0.06321429689
0.07420180388
0.06952180139
0.04403795279
0.04862656804
0.05536908259
0.0502051703
0.0615694155
0.05681434543
0.04773851676
0.1444207154
0.1428626818
0.1729224596
0.1712420221
0.06015143343
0.009606823891
0.05890500776
0.09649336769
0.09468035252
0.1184125709
0.1168227786
0.02696762715
0.03926455458
0.1080440483
0.03017677244
0.01796228421
0.06830795766
0.2265266217
0.2141090982
0.2429583874
0.2306246802
0.06962323525
0.02421215804
0.04976426004
0.04874646452
0.0723962408
0.0715446726
0.007816648822
0.03232421765
0.08436377856
0.07249452084
0.1756530072
0.1668128164
0.02471103323
0.01233075003
0.01849709784
0.01389874072
0.03084852852
0.01277027308
0.01372413724
0.01327021267
0.03088786336
0.04981815445
0.01367465125
0.01575967913
0.003659975629
0.01748114766
0.01361397548
0.5699692693
0.3906053682
0.3955068746
0.2642058587
0.008846382666
0.005341654756
0.1436191098
0.3365822694
0.2741920427
0.005839277603
0.01241905637
0.01104347382
0.100235662
0.08867889382
0.03455929977
0.1947893216
0.1638537891
0.07668632685
0.009076274536
0.01537946834
0.01226817067
0.008294004869
0.01211883582
0.008603013624
0.0295302807
0.012411213
0.01169730427
0.0379543419
0.04513016242
0.01285399211
0.01777327624
0.008819004034
0.008959309217
0.03586652268
0.1473228996
0.3214304931
0.3100787262
0.3362949131
0.3251784361
0.1505421062
0.2753555511
0.2633523981
0.0946355928
0.03414078057
0.09860867216
0.09339865854
0.01221468229
0.01742565649
0.0841548146
0.04585724855
0.01405419745
0.01251698344
0.03777882935
0.04186613823
0.03745405552
0.04854662431
0.04344273302
0.03960821215
0.03309856371
0.008908207147
0.008822970387
0.02842891775
0.186039713
0.3507110047
0.3399081888
0.06051321782
0.06243547575
0.136693882
0.01886630167
0.02061188557
0.05340601197
0.07729638001
0.1007030062
0.09325326477
0.0527583922
0.08161636056
0.07605695068
0.09054528272
0.0837904316
0.05387288801
0.1188381165
0.2909580558
0.2792434155
0.3062830655
0.2948310639
0.1206233306
0.1019076901
0.03746194612
0.03818988593
0.02164257623
0.0224759235
0.08485782459
0.1256541187
0.0563520346
0.06010895104
0.03849175722
0.03917213487
0.1111966237
0.1119540911
0.04139883508
0.05693461253
0.008466653494
0.01649046093
0.05192315554
0.03983297822
0.07639045716
0.02102947908
0.02150079604
0.02063819071
0.06516522948
0.0118682281
0.004398576533
0.1286323083
0.1119576239
0.09163315016
0.08743865975
0.0304135642
0.01665701329
0.02730725009
0.06940112945
0.01898856716
0.0119796788
0.01778204131
0.02160380932
0.002825781277
0.03181928311
0.02060876474
0.01191489684
0.006300241098
0.0114999724
0.009865940178
0.009671385709
0.02564890445
0.01960044728
0.007655768459
0.03863413018
0.04023897965
0.01465665704
0.01083627988
0.006992631024
0.01141071853
0.01593303358
0.01083666475
0.01271135314
0.0375709817
0.01085392897
0.01081388384
0.01239511264
0.01294678192
0.03197990043
0.01258343433
0.01240739805
0.01320768015
0.01248146971
0.0128661552
0.01691826661
0.01389117792
0.02302203109
0.01848868698
0.01294196979
0.01391244461
0.02150272623
0.01783719014
0.02555898627
0.02245317167
0.01734897511
0.01546255727
0.01226343849
0.01076899578
0.008417814132
0.03125453641
0.03734237465
0.01147903902
0.01087986845
0.01205369828
0.0125392235
0.04396353206
0.008999841323
0.008936809505
0.01065946951
0.009122534474
0.008901737561
0.0369436073
0.008792187085
0.01186524026
0.01215091851
0.01119110782
0.01846633645
0.04721070692
0.04245633225
0.01051583395
0.03430725846
0.02931046506
0.04074005685
0.03621334968
0.01075644754
0.01178816223
0.03335156599
0.02794659206
0.1069829025
0.1004423498
0.03806622099
0.04864580476
0.1141475966
0.1087582882
0.0449926713
0.04415718533
0.06728761769
0.07575756676
0.09143886028
0.05681613507
0.07109872533
0.0681337344
0.05999646886
0.1365847637
0.1258845826
0.09888886995
0.1291223038
0.0599152581
0.03791665086
0.04184836625
0.05199838948
0.0328471881
0.03671134869
0.01979181693
0.01877246946
0.04474504903
0.01356367335
0.01356989867
0.01058048148
0.01973016805
0.02339839465
0.01403225905
0.019918024
0.03435033785
0.02728705269
0.02074118441
0.02964579528
0.09491956527
0.08336526885
0.1010893986
0.09730810784
0.03076794478
0.07516703892
0.07302311099
0.08006903511
0.07593921104
0.0365548743
0.1166145772
0.1124388964
0.1233342252
0.1180883219
0.0371337652
0.03296064169
0.1059807794
0.1023805557
0.1110959421
0.1072260364
0.03329799488
0.009159892477
0.00898001884
0.03287852475
0.0296669007
0.008942907043
0.009229860034
0.0438346941
0.04307196722
0.04599927736
0.04409686624
0.04165947254
0.04061373477
0.0428179326
0.0419321416
0.06975356043
0.06784078849
0.07235653195
0.07041602808
0.06244944826
0.04870882841
0.06704391296
0.06498471744
0.02162958714
0.01839915691
0.02786511823
0.02336519848
0.006614464056
0.01182362658
0.01108447379
0.01717855541
0.01209455342
0.03650258826
0.03710704806
0.1005735669
0.02167153425
0.02145429244
0.02233299253
0.02185705855
0.02078077389
0.08719775241
0.02315452459
0.03432052033
0.04132368647
0.0544791582
0.1238978373
0.03781651843
0.02449599998
0.04047481354
0.03749815051
0.02311239552
0.02256921637
0.02405064462
0.02333518449
0.112563639
0.03940113479
0.04028915178
0.007157733022
0.02512529042
0.01064958173
0.01065377308
0.01045375386
0.0234192933
0.008807296052
0.01828204586
0.0121267785
0.01250155144
0.05127358548
0.04478433738
0.02043486713
0.02092053845
0.07544985027
0.06735671815
0.01955170517
0.02037372543
0.01193994633
0.02931129819
0.0848560685
0.07647302407
0.0136445925
0.01293991977
0.01821332753
0.01240350279
0.01405366956
0.01536685516
0.03170980231
0.009234488849
0.01377346347
0.0122569412
0.01390055926
0.02145568158
0.05129348473
0.1088560208
0.1409259526
0.01146159961
0.01106156535
0.1858919927
0.2365431474
0.1942802015
0.007572939452
0.0337936388
0.01359723064
0.0166030014
0.1350333724
0.1408059318
0.15805015
0.00468409267
0.007096953093
0.00525610521
0.004833967458
0.005592820518
0.004374495337
0.05460777003
0.03409260056
0.02164774915
0.02479255528
0.02293829178
0.02664130546
0.215054242
0.3557554344
0.3679949149
0.3356431504
0.348304141
0.218620684
0.04027254411
0.03516123408
0.01232855918
0.06070063039
0.07208106562
0.1325071022
0.1213054829
0.1158602629
0.04913425295
0.02729278068
0.02827094896
0.03269927344
0.3645471001
0.3542211742
0.1894339067
0.1508897317
0.06799541922
0.07173385415
0.07475981057
0.08535754392
0.1641570402
0.05979757097
0.1294639743
0.1232011056
0.01187460634
0.01179985627
0.01387591211
0.02031351625
0.02061300507
0.03349230956
0.01178299247
0.01218913578
0.01192544395
0.02482213136
0.04841185495
0.04172916395
0.01916444313
0.03207279113
0.01986377041
0.02004482839
0.01957638204
0.01431718827
0.01004302136
0.01155176201
0.01130969943
0.0117871909
0.02146932845
0.02666244283
0.05318276212
0.0404517133
0.03606887048
0.03290213448
0.02425756245
0.03939409734
0.01423021932
0.01943489745
0.01270680682
0.009183095621
0.009255055468
0.01298566487
0.0127707253
0.02222434169
0.01410431466
0.009793078114
0.01668563461
0.01880295848
0.01745288167
0.01302227153
0.01632146164
0.01532659034
0.01056198621
0.01100859365
0.006753097188
0.01004851193
0.01050160495
0.05375802714
0.04874558736
0.02009059357
0.009666759067
0.01244860803
0.01149926663
0.01159878927
0.01351920436
0.01237211111
0.04778274035
0.03708979207
0.04261405797
0.06604712024
0.09254655965
0.09128210365
0.04168617161
0.06695690352
0.06342131342
0.09025170643
0.08865720659
0.06363114384
0.03148202702
0.03800381533
0.03433764252
0.02644228657
0.02717250519
0.02243079506
0.0465642508
0.04527578899
0.04842749159
0.02387818908
0.0342773181
0.03264272369
0.05254377123
0.05217444248
0.03119817507
0.02897818503
0.02856949528
0.03159565349
0.03089086694
0.03559827104
0.05841196126
0.05782325397
0.06185993589
0.06113202244
0.03839290207
0.03218764497
0.05373565199
0.05323048632
0.05721605933
0.05661584409
0.0341466781
0.06543462769
0.06730637882
0.1492298423
0.1381686015
0.06301411585
0.06483916073
0.09204509347
0.09509996393
0.1781879688
0.026978657
0.02683189935
0.02833357867
0.02811476484
0.02059582853
0.02656502614
0.02645746586
0.1659559021
0.08753616595
0.09090502132
0.009410471166
0.009386389698
0.0112062123
0.01081992919
0.009580266779
0.009237621621
0.006631152059
0.05462093825
0.02144613246
0.02628751065
0.1375464799
0.1315521974
0.06305547583
0.07256943483
0.144696717
0.1393305685
0.03278037951
0.03283649086
0.05011804801
0.04843030636
0.03238350117
0.03232426163
0.01154859193
0.02336600085
0.03735821108
0.03669219816
0.008877949479
0.01485258603
0.01656884788
0.01420513643
0.01378918573
0.01893466548
0.01917800285
0.03130417399
0.01295709061
0.009429623048
0.01277605595
0.01327316882
0.02928463182
0.01842653919
0.01902214072
0.01360468858
0.03060353388
0.0253875867
0.0115860843
0.0115618692
0.01107946389
0.01124489534
0.01473620626
0.006361558799
0.004085782684
0.007365167692
0.0115618508
0.01119038715
0.01118384082
0.01095977562
0.01124878922
0.01103264684
0.00986856117
0.006485476381
0.005188513222
0.01074658062
0.0110505845
0.0103779067
0.01048477522
0.01210548305
0.01855348626
0.01878116744
0.01820101142
0.01838235263
0.01198523869
0.008805630549
0.01410633839
0.0140905957
0.01458097374
0.01421649867
0.008733499435
0.01333419794
0.02086843008
0.02319093987
0.01905472006
0.01964866435
0.01291595963
0.008902618535
0.014111678
0.01411989813
0.01405919537
0.01410064376
0.008860913786
0.01004688629
0.01021855046
0.009717342212
0.01017223168
0.03762588551
0.05695351187
0.05648734736
0.02187816711
0.03648877109
0.036232054
0.03782695905
0.03685937708
0.02208980885
0.01236010239
0.01187044481
0.01216616107
0.01243850203
0.0205427355
0.02034673253
0.02098434288
0.02075894011
0.01601948426
0.03562109782
0.02121973875
0.02215311638
0.02120311135
0.03572785472
0.03550451984
0.03606918389
0.03588270734
0.02133141627
0.02191195059
0.02129779481
0.03203906843
0.02291296475
0.01643886229
0.008292268969
0.01189066114
0.01165055375
0.008166854689
0.04380145436
0.03047343035
0.0029792205
0.03041479828
0.04660999044
0.04627262783
0.01895390357
0.01190091153
0.00875344471
0.003398543684
0.01359278694
0.01399156175
0.01962083885
0.01979085861
0.03200620942
0.01999998001
0.01070363418
0.01139190095
0.01451658638
0.00469341618
0.009067080277
0.006899498358
0.007072288215
0.007542588663
0.009910967777
0.00664510718
0.01135059243
0.01129423964
0.01131439557
0.04019436623
0.03122394833
0.008183040308
0.01018761488
0.01127416775
0.01840866028
0.02062230075
0.01208453468
0.01494833315
0.01441503269
0.01107213456
0.007287066442
0.01102088015
0.01255086602
0.008774416845
0.01240924677
0.01265027079
0.01268223767
0.01293339985
0.01269767372
0.01277453354
0.01268418661
0.01261807536
0.01307256032
0.013068789
0.01281540137
0.01318263861
0.01344348956
0.01333510415
0.01728562126
0.0189552607
0.01708337908
0.02545916262
0.02134483222
0.01651424706
0.01548957859
0.01675726663
0.01032290847
0.01643832524
0.01738517266
0.01183206606
0.01637594671
0.0110291995
0.01128717532
0.01785537333
0.01801263629
0.01746299807
0.01769680521
0.01113007818
0.01223994019
0.02122132766
0.02083265187
0.00901138329
0.008971845789
0.009674312943
0.00689809454
0.009030166611
0.008980674226
0.008783371205
0.007717670305
0.009920807353
0.0175196314
0.01563228758
0.02026368399
0.01920982519
0.01116378743
0.01009464861
0.0104859271
0.01356266173
0.006862428603
0.01037751749
0.01030528017
0.01103336926
0.01009793104
0.01025880371
0.01597701382
0.01421667721
0.00996338388
0.04612676536
0.04319665042
0.08191700968
0.07363540832
0.04361143046
0.06337387335
0.08786075017
0.08455333441
0.03456410366
0.03188327448
0.02976691787
0.02258718225
0.02923463587
0.04214344901
0.04263161272
0.03756197721
0.01972853833
0.02843782329
0.02886060618
0.02585371789
0.02673287251
0.01861136441
0.01278009663
0.01371913452
0.02106474588
0.01482491068
0.01411413381
0.01586419494
0.01505899005
0.02135935241
0.01445630531
0.01506212202
0.01183438622
0.01542903468
0.0481914831
0.04837662872
0.03106361444
0.03074817557
0.0512254796
0.05121646208
0.02966294342
0.02927424006
0.03043194959
0.03001124468
0.05948739643
0.05892711977
0.03599352864
0.03774595186
0.06057667765
0.06003834001
0.05490013099
0.05436498618
0.03261569192
0.03368127176
0.05600522446
0.05544747533
0.009069590513
0.01419454442
0.01422740543
0.01415845278
0.01419250642
0.00904390395
0.00926012318
0.01323188352
0.01152255951
0.01416580724
0.01393407142
0.009265545127
0.0435687338
0.02569126403
0.02596025018
0.02526594906
0.02547266793
0.04332593852
0.04488463553
0.02690486539
0.02739423525
0.02622701639
0.02653757542
0.0444118691
0.0412814872
0.02404587711
0.02428419101
0.02367836807
0.02390820098
0.04104807035
0.04254151693
0.02487086908
0.02506186913
0.02444959236
0.02468239998
0.04226881878
0.02741464004
0.02722961551
0.06912507557
0.046573061
0.04688846672
0.04588789695
0.04616459968
0.06842835634
0.02785747
0.02765199948
0.0253132349
0.0265742447
0.06039256118
0.04218267577
0.04188343236
0.02830019976
0.02971322338
0.05400537813
0.06656943361
0.04520003541
0.04539754048
0.04449417319
0.0444450387
0.06536405308
0.02613184623
0.02617598483
0.009424418216
0.009543361555
0.009398740234
0.01048989199
0.009830307734
0.01148548247
0.009265607279
0.009288055879
0.009127814433
0.009197286324
0.01142097294
0.01537602991
0.009715349951
0.01053565886
0.009372611451
0.009225021044
0.01332611813
0.03642234204
0.05441434868
0.05411057271
0.0558058688
0.05544774108
0.03700933544
0.02162587823
0.02138417124
0.02220751784
0.02193355602
0.02187260127
0.01709035653
0.0243781861
0.04476948699
0.04015651029
0.05193510523
0.0501380632
0.03460890536
0.02659420969
0.01847612747
0.02377207413
0.0252821901
0.03980071172
0.02332272749
0.02361253033
0.0226299174
0.02337639998
0.03986789979
0.0229447785
0.02271915627
0.0237786922
0.02353125609
0.01078656993
0.0112234951
0.01103629346
0.01327012035
0.01192661718
0.01081754114
0.01038508192
0.01052660824
0.01069922253
0.01065627158
0.007012695182
0.01254018192
0.01202632057
0.01218422136
0.01244046863
0.01220075279
0.01249795695
0.0198846331
0.01984076999
0.02013996267
0.02007438548
0.03066966088
0.03063245273
0.04640484207
0.01906913703
0.02012076343
0.0196037646
0.01967361792
0.02064861225
0.03491197978
0.03454758731
0.0353418499
0.03505998687
0.02072906184
0.0201052132
0.03385285048
0.0319661993
0.03442537597
0.03382926791
0.0200884469
0.01199147407
0.04465723663
0.0441086146
0.02909274635
0.0138456152
0.01122796311
0.01093672296
0.008345570525
0.01144346222
0.01313715437
0.01877786743
0.01311788561
0.01433646523
0.01403926971
0.03142165199
0.01929284887
0.01949683001
0.01267784584
0.0125539785
0.01261794939
0.01349253376
0.01325822008
0.008940484009
0.009230633876
0.01373906395
0.01272995382
0.01327908695
0.01565111767
0.01931075707
0.02930006642
1.155641842
1.15640903
1.156126065
1.156727056
1.157934958
1.156901437
1.114674943
0.9525994574
1.135128726
0.9209344477
0.8302682834
0.9820512366
0.8157414667
0.7860303571
0.9283724914
0.7863882564
0.8054205743
0.9542059495
0.8184218857
0.9003647092
1.073296633
0.9300953475
1.076353828
1.15742856
1.125122919
1.15716693
1.156534701
1.156829696
1.155977975
1.155924004
1.156150867
1.144180324
1.156620771
1.068519862
0.867238367
1.093971585
0.8159126711
0.6963608462
0.8874990625