/*--------------------------------*- C++ -*----------------------------------*\
| =========                 |                                                 |
| \\      /  F ield         | OpenFOAM: The Open Source CFD Toolbox           |
|  \\    /   O peration     | Version:  v1912                                 |
|   \\  /    A nd           | Website:  www.openfoam.com                      |
|    \\/     M anipulation  |                                                 |
\*---------------------------------------------------------------------------*/
FoamFile
{
    version     2.0;
    format      ascii;
    class       surfaceScalarField;
    location    "1.45";
    object      phi;
}
// * * * * * * * * * * * * * * * * * * * * * * * * * * * * * * * * * * * * * //

dimensions      [0 3 -1 0 0 0 0];
oriented        oriented;


internalField   nonuniform List<scalar> 
25162
(
0.0004915425183
0.9161584575
0.0006626756721
0.9165288668
0.0008516760783
0.9164609996
0.000422090513
0.9164408166
0.0006387690089
0.4583357545
0.0004363360328
0.4582763418
0.000562656941
-0.0005389987272
-0.0007036667668
0.4582396529
0.0008140139027
-0.000923181982
0.458181601
0.001076580981
-0.001241316591
0.4581562074
0.00141510919
-0.001602666744
0.4581459003
0.001791766414
-0.001968655536
0.4581747226
0.002128932932
-0.00226502606
0.4582482029
0.002348323141
-0.002386544858
0.4583482814
0.002371763503
-0.002304955164
0.458445521
0.002194434135
-0.002051530185
0.4584980787
0.001883451442
-0.001711502173
0.4585092863
0.001537215887
-0.001357802286
0.4584937459
0.001199056373
-0.001048534541
0.4584841649
0.0008793696694
-0.0008123719959
0.4584491265
0.0007132454539
-0.000581219709
0.4584585299
0.0004726897707
-0.001841841878
0.9185943151
0.0003143104286
-0.0004167836155
-0.001153285408
0.9186614435
-3.903438629e-05
0.915735749
0.9137609656
0.001357474087
0.9148009834
0.002252203017
0.9156341379
0.00278565806
0.9159275446
0.001076183938
0.9165417579
0.001608532821
0.4578869669
0.00129417466
-0.4581049576
-0.4580511809
-0.001593385639
0.4576817523
0.001962814301
-0.457854933
-0.002411435556
0.4573251985
0.001376037595
0.001565132494
-0.2288480867
-0.00164293338
0.2287141991
0.001776820897
-0.002317118548
-0.2287804778
0.2286111001
0.00248649617
-0.003112219138
-0.2287570459
0.2285585378
0.003310727199
-0.003921307126
-0.228818974
0.2286305343
0.004109746809
-0.00455405324
-0.2289732778
0.2288268223
0.004700446965
-0.004889434895
-0.2291863452
0.2291537754
0.004922105702
-0.004662900188
-0.2293538291
0.2294421651
0.004574564198
-0.004108730036
-0.2294490254
0.2296235054
0.003934250023
-0.003362697679
-0.2294756707
0.2296850375
0.003153330848
-0.002590565266
-0.2294469755
0.229644277
0.002393263773
-0.001918008563
-0.2293905698
0.2295520721
0.001756506308
-0.4588488313
-0.002557542367
0.4602417657
0.001164607939
0.0001005249912
0.4608702906
-0.001745484509
-0.4592253311
-0.002091220282
0.9179297745
0.0008105173261
0.001945243487
-0.0012917019
0.9178619252
0.0002083653774
0.9142356817
0.913969331
0.001752051653
0.9130489317
0.004587469308
0.9127987203
0.007800220171
0.9127147937
0.0035390355
0.9137347369
0.00706820565
-0.4576860145
0.4573242686
0.003900781358
-0.4572770334
-0.004118778556
0.4576450299
0.003750782109
-0.4565967011
-0.004165630505
0.4559777211
0.002308614911
0.002475995602
-0.2280605484
-0.002817404407
0.2277727668
0.003105186036
-0.2277808884
-0.004105843706
0.2274073983
0.004479333862
-0.2276368769
-0.005836977771
0.2264186379
0.007052121538
-0.226516878
-0.01137401642
0.2251541947
0.01272410457
-0.2272415974
-0.01611607131
0.2264172392
0.01693114581
-0.2292558227
-0.01821648584
0.2292740326
0.01819975027
-0.2312296579
-0.01681833011
0.2321463691
0.01591290445
-0.2316457565
-0.01221121172
0.2331296428
0.01073903756
-0.2305778633
-0.006385605098
0.2311612635
0.005802923509
-0.2304601692
-0.004676899348
0.2308199644
0.004317104149
-0.00306804018
-0.2302656179
0.2309313068
0.002402351343
-0.4628109324
0.000873415842
0.4615599428
0.0003775736848
-0.4599039349
-0.0006014619009
0.4598120292
0.0006933675704
-0.0005713059243
0.9193810115
-0.0005559763851
-0.0003239546255
0.001150764371
0.9161398549
0.0005264858887
0.9148599602
0.9144958169
0.0007781674163
0.9122707643
0.001724427936
0.9118524597
0.003424554926
0.9110146667
0.004042429198
0.9100727113
0.003044151293
-0.4563245504
0.4556380658
0.004728913817
-0.4588597879
-0.006248200213
0.4554418604
0.00966612772
-0.4569711791
-0.01136598628
0.4580032047
0.003474253002
0.006859707614
-0.2267004642
-0.003759377859
0.2263251352
0.004134706872
-0.2254177106
-0.006058693064
0.2231756468
0.008293783925
-0.220270956
-0.01579656886
0.2176751972
0.01836102849
-0.2196887528
-0.02559878457
0.2175074592
0.02774629469
-0.2230943824
-0.03304380997
0.2217561671
0.03436234026
-0.2290982082
-0.03672779494
0.2289135666
0.03691387855
-0.2355160193
-0.03544554302
0.2367434006
0.03424043076
-0.239223842
-0.02863148096
0.2416897568
0.02620003593
-0.23765328
-0.01791045031
0.2405759714
0.01501529149
-0.2344573493
-0.002185320365
0.238971326
-0.002327683162
-0.002973466768
-0.2317565684
0.2317492165
0.002980818677
-0.4614399938
-0.00433281708
0.4625067559
0.003266054957
-0.4604364926
-0.002190419788
0.4612989197
0.001327992704
0.00200585421
0.9189515067
-0.000856865527
-0.0007194838794
0.001463000216
0.9166827089
0.0006624963322
0.9156604641
0.9151583132
0.0003537340025
0.9119170303
0.0008402486205
0.9113659451
0.001656212196
0.9101987031
0.002193210207
0.9082370154
0.001298697907
-0.455095349
0.4540455187
0.003243040497
-0.4536050862
-0.004007588335
0.4525487476
0.005063926904
-0.4513093341
-0.00645922785
0.4498941729
0.004071506695
0.003802882282
-0.2263896007
-0.006303705657
0.2240808274
0.008612259867
-0.2155269166
-0.01848714674
0.2145014168
0.01947469725
-0.2089068956
-0.02553044253
0.2059106511
0.02847047632
-0.2105534884
-0.03639366057
0.2082827081
0.03861802532
-0.2173710436
-0.04408110341
0.2158792957
0.04555012718
-0.2277581434
-0.04886551649
0.2271100479
0.04951435832
-0.2401353502
-0.0493994282
0.2412001243
0.04835966432
-0.2497754123
-0.04157232013
0.2527091443
0.03868696261
-0.2569035838
-0.02278678631
0.2574333184
0.02230400233
-0.2419447635
-0.01505498585
0.2454090494
0.01161905173
-0.004365484365
-0.2330306262
0.2335189041
0.003877206423
-0.463990135
-0.004839868343
0.4653709485
0.003459054819
-0.4620788868
-0.002520107315
0.4628609659
0.001738028227
0.002560804129
0.9203143986
-0.002295180645
-0.001628515441
0.001321058201
0.9179224548
0.0005790847317
0.9164024375
0.9157373979
-3.628638829e-05
0.9119533167
0.0001052814451
0.9112243773
0.0006438681985
0.9096601164
0.0009028883544
0.9071896953
0.0007882999595
-0.4529096175
0.4523132111
0.001499294709
-0.4516082338
-0.002794227107
0.4504267332
0.003975727669
-0.4484183193
-0.005049425862
0.4467599972
0.003365294687
0.003342453278
-0.2167931224
-0.005912266237
0.2141357554
0.008550754896
-0.2012318908
-0.01787466078
0.1978625071
0.02118504364
-0.1995299367
-0.03261650495
0.1952160952
0.03686466789
-0.204942745
-0.04287874557
0.2043216319
0.04345959611
-0.2120906531
-0.04516719951
0.2123457237
0.04490149675
-0.2240504018
-0.04896090076
0.222731558
0.05027994676
-0.2445823953
-0.04981053649
0.2441627498
0.05024449517
-0.2664148267
-0.0413710843
0.2640390836
0.0437926007
-0.2654521329
-0.03716059927
0.2693557822
0.03332074345
-0.2570658635
-0.02105082876
0.2612013225
0.01696820012
-0.005324657104
-0.2374456246
0.2395154033
0.003262789547
-0.4665094194
-0.004715808423
0.4676228015
0.003602426383
-0.4632331105
-0.002815389727
0.4635382133
0.002510286869
0.001782701607
0.9219654416
-0.001605293305
-0.001828451271
0.0008754394542
0.9188297169
0.0003058031791
0.9169720738
0.9160432011
-0.000626584237
0.912579901
-0.001059458127
0.9116572512
-0.001214645669
0.9098153039
0.0001750101362
0.9065516433
-0.0007516038101
-0.4519860167
0.4514662756
0.000694751176
-0.4490047021
-0.001178389748
0.4483188392
0.001864252615
-0.4458264218
-0.00320912805
0.4448143635
0.002050276544
0.002171079484
-0.2066544356
-0.006018751978
0.2041450448
0.008494627095
-0.1871515265
-0.01692691684
0.1865202854
0.01748447547
-0.1875674655
-0.02504575042
0.1857143602
0.02683335316
-0.1983189769
-0.03129406116
0.1968373782
0.03275272863
-0.2050346594
-0.04797059329
0.1037737433
0.09789917293
0.02349469256
0.02783764391
-0.03418525355
-0.1086916242
0.1081276966
0.0347491811
-0.02756976191
-0.2520188963
0.05196714568
-0.02795033657
0.1273956378
0.1281762113
-0.04615431616
-0.2677984913
0.2704104626
0.043573177
-0.2810627756
-0.03240328479
0.2831567682
0.03037790381
-0.2721470624
-0.02261522105
0.2760641336
0.01875943373
-0.008316849036
-0.2482587057
0.251120006
0.005479372907
-0.4686924676
-0.00355023965
0.4691982557
0.003044451525
-0.4642766718
-0.002146922154
0.4649901254
0.001433468549
0.0004108308502
0.9229550604
-0.000573086032
-0.0008273636114
-3.180446342e-05
0.9192723522
-0.0001107420698
0.9170510114
0.9159324591
-0.001288919748
0.9138688207
-0.002482897781
0.9128512292
-0.003405845676
0.9107382518
-0.001659265135
0.9072687085
-0.002463645729
-0.4513527498
0.4512619002
-0.001568415564
-0.4479290975
0.00152278081
0.4477091525
-0.001302835813
-0.4426937248
0.0009958748905
0.4413963931
4.477304963e-05
0.0002549097738
-0.1980924163
-0.002284400023
0.1967301155
0.003604582159
-0.1792289169
-0.008493436251
0.1775058491
0.01014248548
-0.1815611945
-0.01496339327
0.1801561051
0.01630935518
-0.1951630142
-0.01875237561
0.1949992259
0.01890910994
-0.0886729033
-0.01212414636
0.08837712368
0.01241992598
-0.03422554782
-0.1419009236
0.1449092284
0.03121724303
-0.03854109734
-0.2778526621
0.2806804346
0.03572876779
-0.2931434678
-0.02692503117
0.296230946
0.02389919802
-0.2867029338
-0.01501468025
0.2895617871
0.0122257351
-0.007827055768
-0.2583351965
0.260753834
0.005438360593
-0.4700656404
-0.001407914926
0.4707256158
0.000747939477
-0.4655234192
-0.0003167896387
0.4659329609
-9.275207441e-05
-0.001635214262
0.9231078666
0.00100142692
0.0004809811857
-0.001285274721
0.9189224127
-0.0006852581315
0.9164509948
0.9152472009
-0.00197449904
0.9158433198
-0.003863853078
0.9147405833
-0.005806579278
0.912680978
-0.003371418122
0.9090303064
-0.004196759041
-0.4515209486
0.451774686
-0.003625155586
-0.447782391
0.003941415085
0.4481057056
-0.004264729728
-0.4406958178
0.004589435279
0.4403198437
-0.001895397773
-0.002323370876
-0.1926756385
0.0004361954905
0.1915106477
0.0006918714717
-0.172747172
-0.004674855186
0.1713611583
0.005999581374
-0.1778344594
-0.0090592698
0.1772764141
0.009570536144
-0.1966095719
-0.008937979835
0.1975748065
0.007970224048
-0.09217334097
-0.001815922312
0.09289656684
0.001092696447
-0.01514251432
-0.1580965333
0.1585719337
0.01466711392
-0.02149156972
-0.286168807
0.286909933
0.02075786853
-0.3026978608
-0.01729774493
0.3042574211
0.01578754822
-0.2966579897
-0.01040307192
0.2985287736
0.008591271369
-0.003347113836
-0.2657969778
0.2672945172
0.00188098491
-0.4716362549
0.00140694452
0.4723536669
-0.002124356579
-0.4660463404
0.002353149506
0.4660388178
-0.00234562695
-0.00404109697
0.9220246718
0.002781861866
0.002342429838
-0.002782087724
0.9176634035
-0.001422756559
0.9150916637
0.9138244444
-0.002626248639
0.9184695684
-0.005377483311
0.9174918179
-0.008104932064
0.9154084268
-0.005096823617
0.9119495165
-0.005927318542
-0.4523846669
0.452998768
-0.005710924712
-0.448627935
0.006446315511
0.4494837892
-0.007302169739
-0.4402288081
0.008187253562
0.440259891
-0.003875022991
-0.004349156476
-0.1884441445
0.002656162443
0.1874273278
-0.00166868125
-0.1676570359
-0.001741662676
0.1665427736
0.002808879198
-0.1761479751
-0.004878750233
0.1760036981
0.004988128243
-0.2010269799
-0.00297142333
0.202298824
0.001698516217
-0.09675761279
0.001176130363
0.09718922927
-0.0007826557463
-0.0008250910775
0.003568200204
-0.1553860311
0.1543025997
-0.002484768846
-0.002655116382
-0.2874644374
0.2869025382
0.003223677559
-0.3080311533
-0.003086814874
0.3086196775
0.002540500796
-0.3026891461
-0.0002209735928
0.3035586127
-0.0005976560291
0.002429948162
-0.269075649
0.2693989389
-0.002725910425
-0.4721344945
0.005326145183
0.4714970554
-0.004688706081
-0.4656968357
0.004410941441
0.4658846895
-0.004598795195
-0.006644792293
0.9196829772
0.004779293168
0.004207193738
-0.004369860061
0.9153884712
-0.002203731574
0.9129255352
0.9116207128
-0.003339773303
0.9218093417
-0.00670593261
0.9208579773
-0.01029473124
0.9189972254
-0.006728972844
0.9158993833
-0.00751562523
-0.453937712
0.4548814744
-0.007672735326
-0.4505076426
0.008828340918
0.4516787037
-0.009999402108
-0.4406038546
0.01135638314
0.4410515783
-0.005753828168
-0.006055905636
-0.1845001329
0.004374933234
0.1835428398
-0.003438631391
-0.163461924
0.0003092610329
0.1625057623
0.0006142987895
-0.1759751813
-0.002074233428
0.1760858981
0.001940006029
-0.2061309678
0.0008048575193
0.2073968388
-0.002070986392
-0.09975967049
0.002774468305
0.1000661324
-0.001525278635
-0.001555651557
0.01343301356
-0.1450367646
0.1435969161
-0.01199316501
0.0117988931
-0.2849879101
0.2846940367
-0.01149582077
-0.310500299
0.01330885774
0.3075708171
-0.0103425949
-0.304748604
0.009566746171
0.3043964002
-0.009173944578
0.007527972979
-0.2672069355
0.2664562236
-0.006757813068
-0.4705581047
0.009019467074
0.469355763
-0.00781712533
-0.4659622737
0.006723096627
0.4649552651
-0.005716088039
-0.009029733619
0.9162911484
0.006403701692
0.006017860768
-0.005896048274
0.9122547859
-0.002907559104
0.909937046
0.9087131537
-0.003967629162
0.9257769709
-0.008007080228
0.9248974283
-0.01227825913
0.9232684043
-0.008151398802
0.9203793908
-0.008606867842
-0.456077516
0.4572652999
-0.009339182704
-0.4531195956
0.01074074194
0.4546590736
-0.01228021996
-0.4411991017
0.01398739271
0.4423979297
-0.006855252188
-0.008336006047
-0.1806354266
0.005241631269
0.1796069811
-0.004224593633
-0.159803848
0.00107865016
0.1589541544
-0.0002465260719
-0.1767742027
-0.0006815073967
0.1771572767
0.0002858786527
-0.2111923702
0.003403034077
0.21246993
-0.004680596648
-0.1021035692
0.004154859383
0.1024042878
-0.002207571591
-0.002248006362
0.01666668518
-0.1339181772
0.1325390802
-0.01528758825
0.02056804909
-0.2833703889
0.2835696164
-0.02075671176
-0.3070576683
0.01662977948
0.3115553004
-0.02110057217
-0.3023365121
0.021978138
0.3013723639
-0.02098008313
0.01200725484
-0.2609360291
0.2586450104
-0.009704198793
-0.4679321399
0.01210869722
0.4662880367
-0.01046459402
-0.4639026006
0.009001825347
0.4626261754
-0.00772540013
-0.01116444207
0.9136423082
0.00712043762
0.006692844659
-0.007226908984
0.9083172528
-0.003521989977
0.906232127
0.9051911637
-0.008194011327
0.9339709822
-0.01661583015
0.9333192472
-0.02524229999
0.9318948742
-0.009512397625
0.9296319764
-0.02498248797
-0.4587377489
0.4601803598
-0.0109550086
-0.4562715035
0.01257629065
0.4580978252
-0.01440261233
-0.440041717
0.01628825771
0.436887087
-0.006143847594
-0.006986528036
-0.1771670858
0.002331022999
0.175002629
-0.0001634249378
-0.1565209724
-0.0003662302769
0.156532701
0.0003527702787
-0.178774446
0.001588920038
0.1773632384
-0.0001808430491
-0.2163639082
0.004834085854
0.2177081939
-0.003088609403
-0.003089762165
-0.05251542391
0.002707391335
0.05261461262
-0.002806580052
-0.05820772051
0.006262401167
0.05770863906
-0.01215953486
0.006396215144
0.01477519989
-0.1244039017
0.2450476133
-0.02538734121
0.01431846147
-0.1243500317
-0.2835583719
0.02674218373
0.2866200351
-0.02979369889
-0.310824518
0.02768055033
0.3095744892
-0.02641198985
-0.2968820376
0.02137426525
0.2947920324
-0.01926841509
0.01211288126
-0.2485701652
0.2460079636
-0.009547070389
-0.4643326884
0.01422151139
0.4623802904
-0.01226911333
-0.4613049766
0.01075432731
0.4598879835
-0.009337334147
-0.01287012023
0.9098062165
0.008578473431
0.008127738545
-0.008319276294
0.9037664089
-0.004101780544
0.9020146313
0.9010893832
-0.004714036266
0.9386850185
-0.009579735711
0.9381849466
-0.01475759523
0.9370727337
-0.0101098386
0.9353169682
-0.01033274838
-0.4636816816
0.4652099865
-0.01163814348
-0.4617044095
0.0133494874
0.4635636486
-0.01520872649
-0.4357946506
0.01724616352
0.4412193375
-0.0107329628
-0.01193718962
-0.1709991183
0.01203954601
0.1712628436
-0.0123011705
-0.1537366097
0.01166636129
0.1531514223
-0.01107854559
-0.1824192828
0.008642355161
0.1814604438
-0.007682071848
-0.2221949643
0.00512192615
0.2235135583
-0.003228401394
-0.003212118744
-0.05496961913
0.00562978216
0.1103806616
-0.05494620103
-0.003045148751
-0.003049474858
-0.111843812
0.008086707056
0.11168441
-0.01576166889
0.007834363875
0.0242462127
-0.2382419875
0.2384065004
-0.02441056883
-0.2882588449
0.02742244934
0.2890599543
-0.02822068912
-0.3050150106
0.02753962167
0.3111697871
-0.03368763771
-0.2877218126
0.02955754571
0.2802828786
-0.02211004351
0.01130296756
-0.2347424184
0.2325925848
-0.009152464711
-0.4606727533
0.01509228451
0.4591413604
-0.01356089155
-0.458457224
0.01205111999
0.4567809023
-0.01037479828
-0.01234187898
0.9051388016
0.008439187806
0.008570106157
-0.009021139654
0.9004456696
-0.004423934807
0.8974174265
0.8966654484
-0.004899788456
0.943584807
-0.009943856281
0.9432290145
-0.01527967911
0.9424085565
-0.01047515551
0.9411151388
-0.01060269419
-0.4668225245
0.4684239825
-0.01207661344
-0.4654246198
0.01380912547
0.4672701781
-0.01565468381
-0.4503999322
0.01765414482
0.4607357852
-0.01407290106
-0.0139211966
-0.1765168327
0.02177844061
0.1798969605
-0.02515785357
-0.1533618976
0.0322373134
0.1544244546
-0.03329898111
-0.1754746752
0.03171793501
0.1732110556
-0.02945391518
-0.2193303263
0.01719287385
0.2135646027
-0.01142725249
-0.1135955191
0.008875461458
0.227367614
-0.009081405022
-0.1135661514
-0.2256082602
0.01542510865
0.2261631797
-0.0159800282
-0.2493016095
0.02742153855
0.2545414606
-0.03266298514
-0.2951911283
0.0412776179
0.295838839
-0.04192962207
-0.3071281092
0.03849647617
0.3045413059
-0.03591476479
-0.2684314356
0.02541939115
0.2687499834
-0.02573817323
0.0113317929
-0.2307435148
0.2284432291
-0.009031507243
-0.4577780464
0.01687519923
0.4547371198
-0.01383427259
-0.4550718244
0.01242206429
0.4531035627
-0.0104538025
-0.01275435261
0.9005436132
0.008755064344
0.008594476589
-0.009090949389
0.8967822664
-0.004635385621
0.8929618627
0.8920300628
-0.004949199652
0.9485340066
-0.01002506668
0.9483048815
-0.01535175112
0.947735241
-0.01053639849
0.9468406165
-0.01054083038
-0.4700042248
0.4715879838
-0.01212015747
-0.46907723
0.01380230512
0.470838854
-0.01556392915
-0.467838548
0.01743489756
0.4699744236
-0.009890990536
-0.009679890711
-0.1952572787
0.02323806394
0.2020865969
-0.03006766812
-0.1622186779
0.047772241
0.1666607795
-0.05221526325
-0.1692887568
0.05962741253
0.1696471942
-0.05998726468
-0.1997678583
0.05546463857
0.1969867315
-0.05268520818
-0.2189893918
0.04403201936
0.2143036953
-0.03934811461
-0.2376729318
0.04673608924
0.2408675119
-0.04993314986
-0.2674838478
0.06015095612
0.2700062515
-0.06267776361
-0.2951309517
0.06422717779
0.2933622072
-0.06246461437
-0.2926245043
0.05089948395
0.2870765736
-0.04535711676
-0.2522562839
0.02592767777
0.245426156
-0.01909936835
0.0109025813
-0.2265751687
0.2259886903
-0.0103161029
-0.4540596374
0.01733985063
0.4514238808
-0.01470409407
-0.4503024004
0.01135565742
0.4487580207
-0.009811277702
-0.01199225065
0.8944562898
0.009312595973
0.008766978178
-0.00671361441
0.8915036302
-0.004699604013
0.8909478523
0.8873304588
-0.004880668826
0.9534146755
-0.009866438772
0.9532906515
-0.01505546648
0.9529242687
-0.01034203077
0.9523526961
-0.01022551525
-0.4731076658
0.4746122596
-0.01184662453
-0.4725370607
0.01342612558
0.4741681735
-0.01505723831
-0.4718730133
0.01675822858
0.4736579599
-0.009335420654
-0.009207754454
-0.2268489792
0.01042412584
0.2343964385
-0.01797198423
-0.1859743909
0.0453673994
0.1942538378
-0.05364863503
-0.1773254553
0.07371678451
0.1821413533
-0.07853590927
-0.1953215317
0.08766963734
0.196732027
-0.08908424678
-0.2039050417
0.08359801047
0.2040004667
-0.08369823622
-0.2453843551
0.09030062573
0.2454098923
-0.09033190216
-0.2706257819
0.0881020273
0.2685529478
-0.08603600975
-0.2820256399
0.07442799683
0.2762561982
-0.06866529945
-0.2656828522
0.04657665694
0.257182674
-0.03808052738
-0.2255083835
0.01269278271
0.224556939
-0.01174130192
0.01020462196
-0.2243933119
0.223900108
-0.00971141806
-0.4477817566
0.01653533836
0.446078199
-0.01483178081
-0.4472166548
0.01320596552
0.4456444944
-0.01163380513
-0.01122544339
0.8874576876
0.01001198345
0.008212062105
-0.006346142615
0.8866243294
-0.004346939985
0.8889486497
0.8829835188
-0.004719401775
0.9581340772
-0.009520380092
0.9580916298
-0.01447198341
0.957875872
-0.009934106104
0.9575438461
-0.009729027335
-0.4760385648
0.4774338265
-0.01132936778
-0.4757191512
0.0127763126
0.4771918424
-0.01424900377
-0.4753258794
0.01575941203
0.4768793189
-0.008735598419
-0.008577253176
-0.2372401933
0.009542064648
0.2376485151
-0.009950386421
-0.2228910837
0.01595149368
0.2330562548
-0.02611719286
-0.2023765457
0.0543552891
0.210538254
-0.06251985112
-0.2033089205
0.08087221734
0.2058721209
-0.08344014696
-0.2133336386
0.0898171572
0.2170231894
-0.09351266296
-0.2420974914
0.09336381748
0.2401263219
-0.09139922936
-0.2566830575
0.08046829726
0.2513137197
-0.07510519809
-0.2542271092
0.05411764857
0.2458460116
-0.0457406836
-0.2293356776
0.01812406017
0.2235421131
-0.0123309228
-0.2231409892
0.01103450806
0.2227243971
-0.01061791599
0.009381203162
-0.22257134
0.2221628111
-0.008972674222
-0.4444809601
0.01544316645
0.4429902383
-0.01395244461
-0.4441789919
0.01250185829
0.4427537176
-0.01107658398
-0.01409730805
0.8823677458
0.009490587897
0.009696661961
-0.009261711798
0.8817887332
-0.001777977142
0.8814649151
0.8812055417
-0.004489001792
0.962623079
-0.009036065297
0.9626386933
-0.01368257839
0.9625223851
-0.009374542847
0.9623499384
-0.009114127775
-0.4787451642
0.4800179846
-0.01064736319
-0.4785785539
0.01195053735
0.4798855322
-0.01325751569
-0.478319012
0.01457524422
0.4796482468
-0.008029216346
-0.007875262612
-0.2387594317
0.008716471307
0.2390956538
-0.009052693447
-0.2378944624
0.01004452898
0.2382174363
-0.01036750282
-0.236055231
0.01131178482
0.2371575414
-0.0124139696
-0.2163659386
0.02886640517
0.2209063145
-0.03340819846
-0.22516714
0.0454960441
0.2271203967
-0.04745196148
-0.2329062071
0.04587045361
0.230390114
-0.04335712427
-0.2333475026
0.03027177674
0.2273640837
-0.02428979007
-0.2237301283
0.01215541024
0.2234862006
-0.01191148259
-0.222487485
0.01108565112
0.2221871851
-0.01078535122
-0.2216159492
0.009835150689
0.2212883536
-0.009507555066
0.008511576454
-0.2210663209
0.2207289815
-0.008174237021
-0.4416021012
0.01420117442
0.4403133044
-0.01291237771
-0.441438405
0.01163667549
0.4401663207
-0.01036459122
-0.01328941913
0.8776842454
0.008857141201
0.009115778274
-0.008768890584
0.8772682046
-0.004353346254
0.8770493708
0.8768521954
-0.004212012121
0.9668350912
-0.008460972299
0.9668876535
-0.01276435393
0.9668257668
-0.008720739844
0.9667414637
-0.008435139372
-0.481204941
0.4823551371
-0.009870935931
-0.4811089248
0.01103213518
0.4822573113
-0.01218052165
-0.4808740038
0.01332074647
0.4820030705
-0.007290697025
-0.007159116131
-0.2400102278
0.007879418604
0.2402875249
-0.008156715747
-0.2390825023
0.008959101274
0.2393396559
-0.009216254871
-0.2378647381
0.009940739808
0.2380589307
-0.01013493245
-0.2239441201
0.01023807153
0.2239615266
-0.01025547808
-0.2295778046
0.01123285711
0.2296527857
-0.01130783825
-0.2273073611
0.01132815139
0.2272777756
-0.01129856586
-0.2248412901
0.01107220285
0.2247254733
-0.01095638608
-0.2228542767
0.01050359247
0.2226719135
-0.01032122936
-0.2213982709
0.009695714948
0.2211675321
-0.009464976125
-0.2204120461
0.008722301493
0.2201513649
-0.008461620361
0.007653427118
-0.2198245134
0.2195438288
-0.007372742554
-0.4391182236
0.01291663589
0.4380112026
-0.01180961482
-0.4389996188
0.01069661878
0.4378743598
-0.009571359777
-0.0123609124
0.8734248613
0.008168548915
0.008451747667
-0.008189744171
0.8730970364
-0.00407545919
0.8729350858
0.8727767362
-0.003908789492
0.9707438807
-0.007836859727
0.9708157237
-0.01178320217
0.9707721092
-0.008026688529
0.9707182375
-0.007733287508
-0.4834179065
0.4844492164
-0.009057998386
-0.4833287805
0.01008579334
0.4843327279
-0.01108974075
-0.4830422011
0.01207355436
0.4839983104
-0.006569889281
-0.006459774324
-0.2410429474
0.007074641209
0.2412726841
-0.007304377879
-0.240030943
0.007959111354
0.2402376715
-0.008165839812
-0.2385519464
0.008728831959
0.2386912292
-0.008868114733
-0.2240755937
0.008920188951
0.2241287217
-0.008973316976
-0.2298099786
0.009723705709
0.2298464952
-0.009760222305
-0.2271939114
0.009756968591
0.2271670196
-0.009730076822
-0.2244215732
0.009550838885
0.2243322949
-0.009461560587
-0.2221927731
0.009114080246
0.222052407
-0.008973714164
-0.2205549983
0.008488087756
0.2203739529
-0.008307042394
-0.2194495416
0.007716591624
0.2192393554
-0.007506405434
0.006844355044
-0.2187948569
0.2185599177
-0.006609415789
-0.436985244
0.01166308707
0.436034631
-0.01071247414
-0.4368464436
0.009744316935
0.4358553178
-0.008753191174
-0.01137976639
0.8695841057
0.007466938622
0.007753583344
-0.00756723404
0.8692845041
-0.003773596996
0.8691414488
0.8690031392
-0.003595163377
0.9743390441
-0.007195491966
0.9744160523
-0.01078667097
0.9743632882
-0.007325829712
0.9742960622
-0.007038665932
-0.4853946746
0.4863141965
-0.008245351637
-0.4852680621
0.009151646344
0.4861438283
-0.01002741251
-0.4848813887
0.01087695889
0.485697039
-0.005897547925
-0.005795061302
-0.2418998108
0.006323350872
0.2420910761
-0.006514616158
-0.2407971984
0.007054275808
0.2409656571
-0.007222734467
-0.2390488305
0.00766845589
0.2391507822
-0.007770407592
-0.22432185
0.007802094177
0.2243956184
-0.007875862566
-0.2299232792
0.00846271509
0.2299404006
-0.008479836468
-0.2270887256
0.008458277669
0.2270632915
-0.00843284354
-0.2240929903
0.008284164671
0.2240213724
-0.008212546758
-0.2216784959
0.007937034724
0.2215675024
-0.007826041188
-0.219888672
0.007440424811
0.2197439081
-0.007295660937
-0.218669833
0.006818854549
0.2184982365
-0.006647258033
0.006099992646
-0.2179357387
0.2177384098
-0.00590266376
-0.4351530452
0.0104780768
0.4343346896
-0.009659721186
-0.4349525372
0.008817816817
0.4340814664
-0.007946746058
-0.01039438466
0.8661391741
0.006781267048
0.007058049146
-0.006933917708
0.8658240371
-0.003464251585
0.8656717826
0.8655388877
-0.003284298776
0.9776233428
-0.006562937698
0.9776946913
-0.009812641226
0.9776129917
-0.006645573524
0.9775009521
-0.006371957618
-0.4871522032
0.4879694507
-0.007462820947
-0.48695942
0.008260722956
0.4877231093
-0.009024412248
-0.4864510997
0.009758116345
0.4871488355
-0.005275112013
-0.00518074013
-0.2426154397
0.005637054944
0.2427760999
-0.005797715117
-0.2414248738
0.006247690851
0.2415640989
-0.006386916033
-0.2394147091
0.00674508074
0.2394906069
-0.006820978493
-0.2246391973
0.006851703576
0.2247265216
-0.006939027888
-0.2299731387
0.007400192465
0.2299789647
-0.007406018447
-0.2269887852
0.007372559516
0.2269645412
-0.00734831555
-0.2238264758
0.007221456835
0.2237673615
-0.007162342489
-0.221268257
0.006938088489
0.2211784191
-0.006848250583
-0.2193524449
0.006535828534
0.2192346809
-0.006418064567
-0.218030436
0.006027377855
0.2178886463
-0.005885588151
0.005428989857
-0.2172154481
0.217049008
-0.005262549752
-0.4335741293
0.009385700334
0.4328673696
-0.008678940674
-0.4332890198
0.007945544438
0.4325233054
-0.007179829987
-0.009441515505
0.8630588815
0.006130611152
0.006391197014
-0.006315416978
0.8626979386
-0.003160495418
0.8625168611
0.8623783922
-0.002984909663
0.9806082525
-0.005956214743
0.9806659964
-0.008885139653
0.9805419166
-0.006001410454
0.9803638629
-0.005746639935
-0.4887107426
0.4894358131
-0.006726480973
-0.488434469
0.007428645275
0.4891009975
-0.00809517383
-0.4877951491
0.008730151384
0.4883943627
-0.004708549859
-0.004620815083
-0.2432183377
0.00501810804
0.2433544726
-0.005154242973
-0.2419460048
0.005533621811
0.2420625079
-0.005650124899
-0.2396888948
0.00594154624
0.2397465262
-0.005999177699
-0.2250023117
0.006039407846
0.225097874
-0.006134970192
-0.2299846353
0.006498398131
0.2299832004
-0.006496963218
-0.2268935432
0.006455845832
0.2268704569
-0.006432759548
-0.2236047606
0.006322503613
0.2235549507
-0.006272693733
-0.2209338588
0.006086413626
0.2208597466
-0.006012301415
-0.2189138289
0.00575482747
0.2188165762
-0.005657574791
-0.217499943
0.005333221706
0.2173814465
-0.00521472524
0.004830081605
-0.2166070011
0.2164654573
-0.00468853781
-0.4322096324
0.00839254329
0.431597344
-0.007780254874
-0.4318271672
0.007139840653
0.4311533549
-0.006466028441
-0.008543163094
0.8603089974
0.005526490202
0.005766556934
-0.005727771377
0.8598825469
-0.002870630017
0.8596597197
0.8595077622
-0.002703279526
0.983311532
-0.005387407931
0.9833501248
-0.008020725116
0.9831752338
-0.005403571874
0.9829179589
-0.005171249313
-0.4900911198
0.490734028
-0.00604648002
-0.489722262
0.006664736674
0.4903049687
-0.007247443373
-0.4889505918
0.007798622902
0.489467442
-0.004197013463
-0.004118459678
-0.2437305736
0.004463236239
0.2438468591
-0.004579521742
-0.2423836149
0.004902508038
0.2424820509
-0.00500094399
-0.2398987348
0.005240709839
0.2399435348
-0.005285509852
-0.225391909
0.005339837367
0.2254917008
-0.005439629163
-0.2299709284
0.005726590481
0.229964561
-0.005720223071
-0.2268029533
0.00567430566
0.2267810283
-0.005652380652
-0.2234168974
0.005555341466
0.223374296
-0.005512740047
-0.2206564725
0.005355592459
0.2205944084
-0.005293528323
-0.2185499625
0.005078373563
0.2184686322
-0.004997043278
-0.2170550549
0.004724736076
0.2169550495
-0.004624730626
0.004297931711
-0.2160888896
0.2159676524
-0.004176694561
-0.4310263519
0.007501008233
0.4304936567
-0.006968313058
-0.4305408051
0.00640732454
0.4299467016
-0.005813221127
-0.007713566295
0.8578544249
0.004975725944
0.005192412901
-0.005181745935
0.8573507265
-0.002600336046
0.8570783099
0.8569074262
-0.0024428658
0.9857543978
-0.00486291658
0.9857701755
-0.007227455448
0.9855397727
-0.004857482549
0.9851959522
-0.004647966116
-0.4913135965
0.4918839373