/*--------------------------------*- C++ -*----------------------------------*\
| =========                 |                                                 |
| \\      /  F ield         | OpenFOAM: The Open Source CFD Toolbox           |
|  \\    /   O peration     | Version:  v1912                                 |
|   \\  /    A nd           | Website:  www.openfoam.com                      |
|    \\/     M anipulation  |                                                 |
\*---------------------------------------------------------------------------*/
FoamFile
{
    version     2.0;
    format      ascii;
    class       surfaceScalarField;
    location    "1.85";
    object      meshPhi;
}
// * * * * * * * * * * * * * * * * * * * * * * * * * * * * * * * * * * * * * //

dimensions      [0 3 -1 0 0 0 0];
oriented        oriented;


internalField   nonuniform List<scalar> 
25162
(
0
0
0
0
0
0
0
0
0
0
0
0
0
0
0
0
0
0
0
0
0
0
0
0
0
0
0
0
0
0
0
0
0
0
0
0
0
0
0
0
0
0
0
0
0
0
0
0
0
0
0
0
0
0
0
0
0
0
0
0
0
0
0
0
0
0
0
0
0
0
0
0
0
0
0
0
0
0
0
0
0
0
0
0
0
0
0
0
0
0
0
0
0
0
0
0
0
0
0
0
0
0
0
0
-6.421359051e-09
-4.001359946e-08
4.4804506e-07
0
1.225131616e-08
-3.808647987e-07
0
0
0
0
0
0
0
0
0
0
0
0
0
0
0
0
0
0
0
0
0
0
0
0
0
0
0
0
0
0
0
0
0
0
0
0
0
0
0
0
0
0
0
0
0
0
0
0
0
0
0
0
0
0
0
0
0
0
0
0
0
0
0
0
0
0
3.001159143e-08
7.617944161e-07
-2.700594296e-06
-4.830457212e-06
1.034150924e-05
4.261156715e-05
-2.352792799e-05
-6.022710167e-05
1.315478216e-05
0.0001111818943
-2.211109234e-05
-0.0001242452177
-2.491613645e-06
0.0001426360379
5.174010288e-06
-0.000140782651
-1.437173367e-05
0.0001124219551
2.650022283e-05
-9.684477958e-05
-6.723224904e-06
4.343140174e-05
1.851623534e-05
-2.718714726e-05
0
8.204347987e-07
4.178028011e-07
0
0
0
0
0
0
0
0
0
0
0
0
0
0
0
0
0
0
0
0
0
0
0
0
0
0
0
0
0
0
0
0
0
0
0
0
0
0
0
0
0
0
0
0
0
0
0
0
0
0
0
1.443803673e-06
1.842071319e-06
-7.235878781e-06
-1.315427149e-05
4.893007761e-05
0.0001153395908
-7.473797747e-05
-0.0001650623761
8.555958693e-05
0.0003296534909
-0.0001101023232
-0.0003827149842
5.22778151e-05
0.0005135412231
-6.090261091e-05
-0.0005438742693
-2.403045136e-05
0.0005856918508
3.447230741e-05
-0.0005822590184
-8.440168761e-05
0.0005202407527
0.0001098974371
-0.0004835389305
-8.549475146e-05
0.0003372290033
0.0001165495426
-0.000281116675
-3.302538457e-05
0.0001184822309
5.55058544e-05
-7.399036769e-05
0
1.892199313e-06
1.157982828e-06
0
0
0
0
0
0
0
0
0
0
0
0
0
0
0
0
0
0
0
0
0
0
0
0
0
0
0
0
0
0
0
0
0
0
0
0
0
0
0
0
0
0
0
0
0
-4.811367855e-07
-7.814217819e-07
5.604850027e-05
9.547593222e-05
-8.04964555e-05
-0.0001631317473
0.0001673011075
0.0004308167574
-0.0001993770378
-0.0005306674232
0.0001806996046
0.000815271416
-0.0002007360158
-0.0008965000082
7.670255914e-05
0.001078195843
-7.868048575e-05
-0.001116513377
-7.400844402e-05
0.001166980898
8.735949118e-05
-0.001163204017
-0.0001951656731
0.001088520252
0.0002230710559
-0.001041297949
-0.0002245904788
0.0008323340914
0.0002622687342
-0.000742702028
-0.0001590093757
0.000462166133
0.0001983237015
-0.0003642715295
-3.412545932e-05
0.0001101626659
5.370414302e-05
-5.504866793e-05
0
0
0
0
0
0
0
0
0
0
0
0
0
0
0
0
0
0
0
0
0
0
0
0
0
0
0
0
0
0
0
0
0
0
0
0
0
0
0
0
0
0
1.430698822e-05
1.206683617e-05
-2.309590276e-05
-5.213660337e-05
0.0001644676873
0.0003174594992
-0.0001912287474
-0.0004414215081
0.0003020170363
0.0008692529521
-0.0003201830037
-0.001013738605
0.000251436207
0.001345297869
-0.0002745959676
-0.001413420106
8.026383765e-05
0.001548444128
-8.349659716e-05
-0.001565059145
-0.0001148194344
0.001580560356
0.0001173097576
-0.001579726092
-0.0002960029119
0.001557727846
0.0003095872591
-0.001528782095
-0.0004108255528
0.001387017361
0.0004336212162
-0.00128065191
-0.0002979370271
0.0008871226318
0.0003324535727
-0.0007481015296
-0.0001250147156
0.0003430169353
0.0001500151413
-0.0002294751383
1.593158237e-05
-3.429727945e-06
6.030525959e-06
-2.455560131e-07
0
0
0
0
0
0
0
0
0
0
0
0
0
0
0
0
0
0
0
0
0
0
0
0
0
0
0
0
0
0
0
0
0
0
0
-4.240129069e-07
-9.70516696e-09
-3.752694722e-07
5.163504229e-05
6.546163413e-05
-6.200085679e-05
-0.0001475589163
0.0002583003627
0.0005461552578
-0.0002741245518
-0.0007196437823
0.0003683615856
0.001232121739
-0.0003812070457
-0.00138167612
0.0002934769132
0.00171024554
-0.0002820559545
-0.001775981487
0.0001130167764
0.00183352329
-9.409512827e-05
-6.29587913e-05
-0.0008778524414
-0.0009116337052
0.0008722088847
-5.26641158e-05
5.289773363e-05
-0.0008724425025
0.0009012366815
-0.0003641835077
-0.001820633155
0.0009274202676
0.0001741997732
0.0001819599399
0.001712454747
-0.0004608324161
0.0004753479534
-0.001642615092
-0.0004220651337
0.001285065926
0.0004421846059
-0.001123627909
-0.0002171987772
0.0005989281475
0.0002389156983
-0.0004408902108
8.898195695e-05
-2.728566894e-05
3.546306778e-05
-2.835183215e-05
0
0
0
0
0
0
0
0
0
0
0
0
0
0
0
0
0
0
0
0
0
0
0
0
0
0
0
0
0
0
0
0
0
1.774925001e-06
0
-3.793105576e-06
-3.598185425e-06
-5.599545381e-06
8.316780871e-05
0.0001173402329
-8.570609039e-05
-0.0002296176822
0.0003109126972
0.0007278670988
-0.0003153994897
-0.0009244018699
0.0004026936474
0.001493575984
-0.0004039065423
-0.001651595503
0.0002765404794
0.001942005504
-0.0002741504708
-0.001963202821
5.099489942e-05
0.0009897445473
-5.268112339e-05
-0.0009880583233
0.0009803020159
-0.0001569619648
0.0001554667208
-0.0009788067719
0.001945008544
-0.0004958364186
0.0004993169656
-0.001903552135
-0.000487839857
0.001563489247
0.0004955021802
-0.001394022228
-0.0002856112526
0.0008116259388
0.0002938215393
-0.0006204642172
0.0001684461305
-5.45850005e-05
6.300076352e-05
-7.396301799e-05
0
0
0
0
0
0
0
0
0
0
0
0
0
0
0
0
0
0
0
0
0
0
0
0
0
0
0
0
0
0
0
0
0
4.918362027e-06
0
-6.202685418e-06
-1.049572491e-05
-1.200482656e-05
9.864254422e-05
0.0001565576949
-0.0001013785532
-0.0002885007635
0.0003316248942
0.0008496030057
-0.0003348703528
-0.0010654757
0.0004103883497
0.00167517014
-0.0004116745684
-0.00183737813
0.0002718730881
0.002108275971
-0.0002716873079
-0.002117231846
4.710248105e-05
0.001054152247
-4.70937587e-05
-0.001054160969
0.001060302585
-0.0001524166417
0.000151863643
-0.001059749586
0.002125563959
-0.0004996280542
0.0004992357363
-0.002098837507
-0.0005169303998
0.001774520855
0.0005208809738
-0.001599183812
-0.0003192456299
0.0009716644612
0.00032466865
-0.0007577688275
0.0002257213808
-7.361475911e-05
7.708176253e-05
-0.0001098131269
0
0
0
0
0
0
0
0
0
0
0
0
0
0
0
0
0
0
0
0
0
0
0
0
0
0
0
0
0
0
0
0
0
7.451176015e-06
0
-9.161281236e-06
-1.688046051e-05
-1.905594722e-05
0.0001081568959
0.0001884190447
-0.0001108860112
-0.0003365518204
0.0003429040122
0.000951851804
-0.0003460662711
-0.001185079969
0.0004149249505
0.001834709557
-0.0004161896184
-0.002004280167
0.0002713458665
0.002275099072
-0.0002713510691
-0.002280358866
4.688690679e-05
0.001134401821
-4.723969984e-05
-0.0005654714757
-0.000568577552
0.001141356087
-0.0001501150281
0.0001496837114
-0.00114092477
0.002286572908
-0.000496808874
0.0004957118836
-0.002256248863
-0.0005169265897
0.001903108967
0.0005143214612
-0.001713758477
-0.000320553297
0.001037671722
0.0003182775985
-0.0008084549747
0.0002393312633
-7.466071212e-05
7.356620966e-05
-0.0001157492889
0
0
0
0
0
0
0
0
0
0
0
0
0
0
0
0
0
0
0
0
0
0
0
0
0
0
0
0
0
0
0
0
0
1.101805607e-05
0
-1.314193635e-05
-2.659537343e-05
-2.95229318e-05
0.00011937923
0.0002279614223
-0.0001223544572
-0.000394215662
0.0003556467085
0.001067596676
-0.0003589356729
-0.001318696272
0.0004199552871
0.002007181174
-0.0004212237321
-0.002182889163
0.0002710218826
0.002448279986
-0.0002709401745
-0.002450464771
4.694009976e-05
0.001219846877
-4.70274617e-05
-0.0006085052706
-0.0006112542441
0.001224400486
-0.0001482191747
0.0001477597355
-0.001223941047
0.002445731714
-0.0004892794147
0.0004862862246
-0.002390688383
-0.0004932560637
0.001954702681
0.0004837418414
-0.001747864471
-0.0002920978383
0.001017032097
0.0002840457332
-0.0007768670858
0.0002028934437
-5.818299454e-05
5.46480878e-05
-8.710688402e-05
0
0
0
0
0
0
0
0
0
0
0
0
0
0
0
0
0
0
0
0
0
0
0
0
0
0
0
0
0
0
0
0
0
1.570157887e-05
0
-1.665073741e-05
-4.043470745e-05
-4.222956969e-05
0.0001320182164
0.0002752795741
-0.0001357746771
-0.0004610023263
0.0003693333933
0.001193909355
-0.0003732841159
-0.001462415472
0.0004251720028
0.002185752846
-0.0004266279776
-0.002365625894
0.0002706999424
0.002618604437
-0.0002708530222
-0.002618658785
4.712459613e-05
0.001304084053
-4.709361514e-05
-0.0006504973028
-0.000653617731
0.001304508196
-0.0001459770992
0.0001458015914
-0.001304332688
0.002569329261
-0.0004753686475
0.0004701175886
-0.002473512732
-0.0004501445789
0.001934460047
0.000438060828
-0.001699367242
-0.0002469519648
0.0009189808285
0.0002288514684
-0.0006755851973
0.0001401786383
-3.645012542e-05
3.107626635e-05
-4.562054833e-05
0
0
0
0
0
0
0
0
0
0
0
0
0
0
0
0
0
0
0
0
0
0
0
0
0
0
0
0
0
0
0
0
0
2.321362447e-05
0
-3.041570437e-05
-6.544277582e-05
-7.54205172e-05
0.0001471404187
0.0003412554981
-0.0001566779048
-0.0005473539441
0.0003864836134
0.001344048823
-0.0003916851076
-0.001627875445
0.0004312471276
0.002374966168
-0.0004328719512
-0.00255913608
0.0002706813061
0.002787475655
-0.0002715639785
-0.001388073718
-0.001398519265
2.498312508e-05
0.0006920094197
-2.517264925e-05
-0.0006918198955
-1.813694638e-05
0.0003448824618
1.749587696e-05
-0.000689921931
0.0003456805387
0.001381988178
-0.0001449337726
0.0003021156523
-0.00277486299
0.001392014005
-0.0001563210731
-0.00045369954
0.002635340145
0.0004410001258
-0.002486737379
-0.0003931431555
0.001837695052
0.0003771052864
-0.001570117268
-0.0001852509617
0.0007608547951
0.0001731586307
-0.0005261503518
5.95880906e-05
-1.250117995e-05
9.780274796e-06
-5.863046602e-06
0
0
0
0
0
0
0
0
0
0
0
0
0
0
0
0
0
0
0
0
0
0
0
0
0
0
0
0
0
0
0
0
0
3.405301412e-05
0
-2.816774852e-05
-9.135759245e-05
-8.445412042e-05
0.000171006528
0.0004110385097
-0.0001661440443
-0.0006420631265
0.0004054831006
0.001499677514
-0.0003996713909
-0.001800152254
0.0004335329183
0.002572505696
-0.00043098854
-0.002751259033
0.000265388696
0.002957467788
-0.000265388696
-0.001473801127
-0.001483666662
2.29863456e-05
0.001473801127
-4.298257891e-05
1.99962333e-05
-0.0007352386188
-0.0007385625077
-5.270548419e-05
0.0007352386579
5.270542559e-05
-0.001473801127
0.0007385625273
0.002957467788
-0.0003085287531
0.0003076654652
-0.002950384412
-0.00041199601
0.002613037922
0.0004019112449
-0.002417748468
-0.0003245332597
0.001635112291
0.0003080608584
-0.001356111191
-0.0001262045936
0.000551370726
0.0001106746059
-0.0003509341942
8.454649283e-06
-1.878439084e-06
8.502877472e-07
0
0
0
0
0
0
0
0
0
0
0
0
0
0
0
0
0
0
0
0
0
0
0
0
0
0
0
0
0
0
0
0
0
0
1.769890353e-05
0
-6.550425992e-06
-4.351155663e-05
-2.749613679e-05
0.0001316072823
0.0003041168784
-0.0001148564482
-0.0005111992281
0.0003558323887
0.001330688199
-0.00033280216
-0.00163240825
0.0004088335204
0.002460512338
-0.0003953768271
-0.002677751071
0.0002659969699
0.003070436365
-0.0002652390996
-0.003114035659
4.29825789e-05
0.003127058831
-7.400580132e-05
-0.003127058831
3.102322244e-05
-0.000117371706
0.003127058831
0.000117371706
-0.003127058831
-0.0002987379025
0.003074129034
0.0002905395883
-0.002991145141
-0.0003578292898
0.00247714231
0.0003384502473
-0.002228116042
-0.0002441284931
0.001358191299
0.0002246506761
-0.001063352373
-6.702184082e-05
0.0003247196652
5.432404125e-05
-0.0001699339584
0
0
0
0
0
0
0
0
0
0
0
0
0
0
0
0
0
0
0
0
0
0
0
0
0
0
0
0
0
0
0
0
0
0
0
0
0
1.606812293e-07
0
0
-2.483802278e-07
0
5.841017433e-05
0.0001069751963
-4.054578221e-05
-0.0002396661084
0.0002430258209
0.0008779001688
-0.0002082873033
-0.001140808582
0.0003326381226
0.001942554746
-0.0003041670692
-0.002184507781
0.0002491590444
0.002749502647
-0.0002380179996
-0.00287645121
7.540412891e-05
0.003090262984
-7.617797843e-05
-0.003116626344
-0.0001075568254
0.003091180912
9.806740816e-05
-0.00304527435
-0.0002438207901
0.00275467177
0.0002214097876
-0.002598426713
-0.0002610685773
0.001957607599
0.0002305654923
-0.001700459817
-0.0001533210044
0.000901048017
0.0001274872716
-0.0006563412674
-2.210587692e-05
0.000119465505
1.308561636e-05
-3.262332084e-05
0
0
0
0
0
0
0
0
0
0
0
0
0
0
0
0
0
0
0
0
0
0
0
0
0
0
0
0
0
0
0
0
0
0
0
0
0
0
0
0
0
0
4.379993659e-06
2.519941888e-07
-7.267870724e-07
-1.890985465e-05
0.000103207935
0.0003233686481
-7.204571041e-05
-0.0004911920473
0.0002017102152
0.001089650199
-0.0001647920807
-0.001295342491
0.0001855160172
0.001841150505
-0.0001623871381
-0.001984403059
7.3669342e-05
0.0022642868
-6.973578728e-05
-0.002304814742
-5.928754884e-05
0.00226598651
4.599476859e-05
-0.002199828108
-0.0001435315948
0.001848475156
0.0001172848275
-0.001685471877
-0.0001357898839
0.001105287784
0.000106091982
-0.0008992503634
-5.504646875e-05
0.0003395813251
3.544042162e-05
-0.0001977766771
-1.840954339e-07
8.366160031e-07
0
0
0
0
0
0
0
0
0
0
0
0
0
0
0
0
0
0
0
0
0
0
0
0
0
0
0
0
0
0
0
0
0
0
0
0
0
0
0
0
0
0
0
0
0
0
0
0
8.617708205e-06
8.715840055e-06
-1.356924308e-06
-4.032437672e-05
6.327483984e-05
0.0002779129271
-3.72972711e-05
-0.0003861063925
8.552481697e-05
0.0007199730278
-6.105640575e-05
-0.0008183153428
4.675445931e-05
0.001024459025
-3.652712349e-05
-0.001056161679
-1.534688681e-05
0.001027389118
9.213352629e-06
-0.0009775307987
-4.991458809e-05
0.0007287091681
3.315100487e-05
-0.0006221165597
-3.421913458e-05
0.0002887495236
1.821734225e-05
-0.0001902447882
-1.710339483e-06
1.083857301e-05
4.759139097e-09
-1.165194202e-07
0
0
0
0
0
0
0
0
0
0
0
0
0
0
0
0
0
0
0
0
0
0
0
0
0
0
0
0
0
0
0
0
0
0
0
0
0
0
0
0
0
0
0
0
0
0
0
0
0
0
0
0
0
0
2.095721355e-07
0
0
-1.485465496e-06
8.461590166e-06
4.050965658e-05
-1.345779372e-06
-6.273076051e-05
8.519471838e-06
0.000122284783
-2.891424947e-06
-0.0001328688854
-9.217825353e-07
0.0001237582358
2.295029959e-07
-0.0001080117672
-3.276345496e-06
4.293471391e-05
2.711029323e-07
-2.364329904e-05
0
0
0
0
0
0
0
0
0
0
0
0
0
0
0
0
0
0
0
0
0
0
0
0
0
0
0
0
0
0
0
0
0
0
0
0
0
0
0
0
0
0
0
0
0
0
0
0
0
0
0
0
0
0
0
0
0
0
0
0
0
0
0
0
0
0
0
0
0
0
0
0
0
0
0
0
0
0
0
0
0
0
0
0
0
0
0
0
0
0
0
0
0
0
0
0
0
0
0
0
0
0
0
0
0
0
0
0
0
0
0
0
0
0
0
0
0
0
0
0
0
0
0
0
0
0
0
0
0
0
0
0
0
0
0
0
0
0
0
0
0
0
0
0
0
0
0
0
0
0
0
0
0
0
0
0
0
0
0
0
0
0
0
0
0
0
0
0
0
0
0
0
0
0
0
0
0
0
0
0
0
0
0
0
0
0
0
0
0
0
0
0
0
0
0
0
0
0
0
0
0
0
0
0
0
0
0
0
0
0
0
0
0
0
0
0
0
0
0
0
0
0
0
0
0
0
0
0
0
0
0
0
0
0
0
0
0
0
0
0
0
0
0
0
0
0
0
0
0
0
0
0
0
0
0
0
0
0
0
0
0
0
0
0
0
0
0
0
0
0
0
0
0
0
0
0
0
0
0
0
0
0
0
0
0
0
0
0
0
0
0
0
0
0
0
0
0
0
0
0
0
0
0
0
0
0
0
0
0
0
0
0
0
0
0
0
0
0
0
0
0
0
0
0
0
0
0
0
0
0
0
0
0
0
0
0
0
0
0
0
0
0
0
0
0
0
0
0
0
0
0
0
0
0
0
0
0
0
0
0
0
0
0
0
0
0
0
0
0
0
0
0
0
0
0
0
0
0
0
0
0
0
0
0
0
0
0
0
0
0
0
0
0
0
0
0
0
0
0
0
0
0
0
0
0
0
0
0
0
0
0
0
0
0
0
0
0
0
0
0
0
0
0
0
0
0
0
0
0
0
0
0
0
0
0
0
0
0
0
0
0
0
0
0
0
0
0
0
0
0
0
0
0
0
0
0
0
0
0
0
0
0
0
0
0
0
0
0
0
0
0
0
0
0
0
0
0
0
0
0
0
0
0
0
0
0
0
0
0
0
0
0
0
0
0
0
0
0
0
0
0
0
0
0
0
0
0
0
0
0
0
0
0
0
0
0
0
0
0
0
0
0
0
0
0
0
0
0
0
0
0
0
0
0
0
0
0
0
0
0
0
0
0
0
0
0
0
0
0
0
0
0
0
0
0
0
0
0
0
0
0
0
0
0
0
0
0
0
0
0
0
0
0
0
0
0
0
0
0
0
0
0
0
0
0
0
0
0
0
0
0
0
0
0
0
0
0
0
0
0
0
0
0
0
0
0
0
0
0
0
0
0
0
0
0
0
0
0
0
0
0
0
0
0
0
0
0
0
0
0
0
0
0
0
0
0
0
0
0
0
0
0
0
0
0
0
0
0
0
0
0
0
0
0
0
0
0
0
0
0
0
0
0
0
0
0
0
0
0
0
0
0
0
0
0
0
0
0
0
0
0
0
0
0
0
0
0
0
0
0
0
0
0
0
0
0
0
0
0
0
0
0
0
0
0
0
0
0
0
0
0
0
0
0
0
0
0
0
0
0
0
0
0
0
0
0
0
0
0
0
0
0
0
0
0
0
0
0
0
0
0
0
0
0
0
0
0
0
0
0
0
0
0
0
0
0
0
0
0
0
0
0
0
0
0
0
0
0
0
0
0
0
0
0
0
0
0
0
0
0
0
0
0
0
0
0
0
0
0
0
0
0
0
0
0
0
0
0
0
0
0
0
0
0
0
0
0
0
0
0
0
0
0
0
0
0
0
0
0
0
0
0
0
0
0
0
0
0
0
0
0
0
0
0
0
0
0
0
0
0
0
0
0
0
0
0
0
0
0
0
0
0
0
0
0
0
0
0
0
0
0
0
0
0
0
0
0
0
0
0
0
0
0
0
0
0
0
0
0
0
0
0
0
0
0
0
0
0
0
0
0
0
0
0
0
0
0
0
0
0
0
0
0
0
0
0
0
0
0
0
0
0
0
0
0
0
0
0
0
0
0
0
0
0
0
0
0
0
0
0
0
0
0
0
0
0
0
0
0
0
0
0
0
0
0
0
0
0
0
0
0
0
0
0
0
0
0
0
0
0
0
0
0
0
0
0
0
0
0
0
0
0
0
0
0
0
0
0
0
0
0
0
0
0
0
0
0
0
0
0
0
0
0
0
0
0
0
0
0
0
0
0
0
0
0
0
0
0
0
0
0
0
0
0
0
0
0
0
0
0
0
0
0
0
0
0
0
0
0
0
0
0
0
0
0
0
0
0
0
0
0
0
0
0
0
0
0
0
0
0
0
0
0
0
0
0
0
0
0
0
0
0
0
0
0
0
0
0
0
0
0
0
0
0
0
0
0
0
0
0
0
0
0
0
0
0
0
0
0
0
0
0
0
0
0
0
0
0
0
0
0
0
0
0
0
0
0
0
0
0
0
0
0
0
0
0
0
0
0
0
0
0
0
0
0
0
0
0
0
0
0
0
0
0
0
0
0
0
0
0
0
0
0
0
0
0
0
0
0
0
0
0
0
0
0
0
0
0
0
0
0
0
0
0
0
0
0
0
0
0
0
0
0
0
0
0
0
0
0
0
0
0
0
0
0
0
0
0
0
0
0
0
0
0
0
0
0
0
0
0
0
0
0
0
0
0
0
0
0
0
0
0
0
0
0
0
0
0
0
0
0
0
0
0
0
0
0
0
0
0
0
0
0
0
0
0
0
0
0
0
0
0
0
0
0
0
0
0
0
0
0
0
0
0
0
0
0
0
0
0
0
0
0
0
0
0
0
0
0
0
0
0
0
0
0
0
0
0
0
0
0
0
0
0
0
0
0
0
0
0
0
0
0
0
0
0
0
0
0
0
0
0
0
0
0
0
0
0
0
0
0
0
0
0
0
0
0
0
0
0
0
0
0
0
0
0
0
0
0
0
0
0
0
0
0
0
0
0
0
0
0
0
0
0
0
0
0
0
0
0
0
0
0
0
0
0
0
0
0
0
0
0
0
0
0
0
0
0
0
0
0
0
0
0
0
0
0
0
0
0
0
0
0
0
0
0
0
0
0
0
0
0
0
0
0
0
0
0
0
0
0
0
0
0
0
0
0
0
0
0
0
0
0
0
0
0
0
0
0
0.001045136524
-0.001045190744
4.715670169e-05
0.0001419572344
-0.001047953621
-0.0001425332778
0.0005265163126
0.0005220133514
-0.0001510920159
0.0009844958529
0.0001468981789
0.001123921884
4.664501683e-05
-0.0005608375904
-0.0005628424041
0.0001377452589
-0.001132075882
-0.0001383314255
0.0005675805704
0.0005650814779
0.000140166037
0.0005324611653
0.000529632617
0.001209188016
4.679594839e-05
-0.000603344069
-0.0006056997961
0.000136368422
-0.001212810859
-0.0001356171214
0.0006071146113
0.0006049449468
0.0001373180012
0.000571488911
0.0005702944334
0.001293179793
4.691510562e-05
-0.0006452286685
-0.0006477416339
0.0001330279644
-0.001293408888
-0.0001339280819
0.001294309005
0.001225014407
0.0001357545003
0.0006900168843
-0.0006900211742
2.4987415e-05
-0.0003448723248
8.175457545e-06
-8.28181149e-06
0.0003449786787
0.0003442064519
-0.000688263302
-1.895242111e-05
0.0001319055468
-0.001373239885
-0.0001319198077
0.001373254146
0.001304892794
0.000132643366
0.0007332813444
-0.0007332813444
2.29863456e-05
-0.000733281453
2.186746577e-05
-2.186771274e-05
0.0007332817
0.0003452771387
7.780780649e-06
-0.001463243704
0.0006691915824
1.098031375e-05
-2.915129865e-06
0.0002334561191
-0.002878908594
0.001458806582
0.001439766962
-0.0001215664113
-0.0001315546583
0.00138199677
0.0001318969554
0.0009787377888
-0.0009782274362
5.048454681e-05
-3.985518694e-05
0.000872490161
3.957391062e-05
-0.0009743921156
-0.0001493789789
0.0009726790785
-0.0001568164347
0.0008936504817
0.0001644026346
2.443490512e-05
-0.0002553730377
-2.453774762e-05
0.0002554758802
-0.0004960989109
-5.49420101e-05
0.0004974361093
5.360481166e-05
-0.001047530165
-0.0001528400976
0.0004583062419
-0.002079335391
-0.0004611970738
0.002082822372
-0.0004667252041
0.001958619567
0.0004610075243
0.002232264414
-0.002238406318
0.0002713898207
-5.873512731e-05
5.870215794e-05
0.001123954854
5.890952335e-05
0.001054045085
-5.880236184e-05
2.710440884e-05
-0.0002736724023
-2.691470606e-05
0.0002734826995
-2.418681439e-05
-0.0002645786639
0.0002645098167
2.425566152e-05
-0.0011317645
-0.0001504264102
0.0004545691381
-0.002249012778
-0.0004555718304
0.00225012527
0.002126982356
0.0004571033863
0.002405558304
-0.002408434162
0.0002711125591
-5.866356051e-05
5.863133604e-05
0.001209220241
0.00113443295
-5.876625642e-05
-4.708029514e-05
0.00116747767
4.704718056e-05
-0.0005822932522
-0.0005851513035
-4.552398373e-06
-0.000292934188
4.547170815e-06
0.000585154968
-0.0002922155524
4.442043706e-06
-0.0002819932307
0.0005652745607
-4.651598033e-06
-0.0002830717758
2.351929529e-05
-0.0002946898113
-2.36515169e-05
0.0002948220329
-2.527211828e-05
-0.0002844916389
0.0002838570492
2.590670798e-05
-0.001212853336
-0.0001481766972
0.0004492509461
-0.002405229936
-0.0004513055584
0.002411750776
0.002287996916
0.0004535196443
0.002575643323
-0.002576092673
0.000270541015
-5.866516799e-05
5.863682371e-05
0.001293208137
0.001219819313
-5.86359971e-05
-4.659802285e-05
0.001251548833
4.685988256e-05
-0.0006246738998
-0.0006271367929
-1.82767526e-06
-0.0003138896847
1.771930018e-06
0.0003139454299
4.7654039e-06
-0.0003038783937
0.0006085240469
-4.707727181e-06
-0.0003047033299
4.451391897e-05
-0.000628028937
-4.476625835e-05
0.0006282812764
-4.578131617e-05
-0.0006111938363
4.445643415e-05
0.0003069037637
0.0003056149546
0.002745429508
0.0002709692845
-0.001367592759
-0.001378124728
-5.884983153e-05
-0.0006879509299
5.865125466e-05
0.001378166391
0.001304115162
-5.869627674e-05
-2.496953561e-05
0.0006695467912
-0.0006696174448
2.504018917e-05
-5.903294593e-07
-0.0003356385485
9.01232405e-07
0.0003353276456
1.237520572e-06
-0.0003244388949
0.000324553721
-1.352346648e-06
0.0003376614379
1.110077986e-05
-0.0003366719636
-1.209025422e-05
4.293813333e-05
-0.0006692108487
-4.277247504e-05
0.0006690451905
-4.392401364e-05
-0.0006512816676
0.0006512966819
4.390899926e-05
0.002856611124
0.0002646551284
-0.001392633853
-0.001463243704
-5.494568669e-05
-0.0007299623591
5.49456867e-05
0.001463243704
-0.0006960091666
0.001388007541
-5.88387858e-05
-2.496633751e-05
0.0007112146444
-0.0007111500718
2.490176488e-05
-1.642023285e-06
-0.0003537669849
7.78554624e-07
0.0003546304535
5.081185044e-08
-0.0003440419745
0.0003444210237
-4.298610346e-07
0.001547693281
-0.001547693281
4.298257891e-05
-0.001547693281
4.074423724e-05
-4.074423722e-05
0.001547693281
0.0007352387966
2.186732704e-05
1.536567747e-06
0.0005068013658
-1.948259643e-06
-0.0002525568862
-0.0002538327877
-1.201346106e-06
0.0005234897658
1.253359578e-06
-0.0002618024079
-0.0002617393714
0.0004965340282
1.074923217e-05
-1.184239749e-05
-0.0004954408629
0.0005055533424
-0.0005059363398
1.919565217e-06
-0.0002640388503
-2.409359917e-05
0.0002639456351
-0.0002553013061
0.0002555287429
2.420746829e-05
-0.0001442885055
-0.001020374545
0.0001431989973
0.0005130197967
0.0005084442565
-5.323350143e-05
0.0002552966657
5.23204668e-05
-0.0005096849372
2.503974113e-05
-0.0002640870576
-2.499153386e-05
-0.0002812343386
4.181701625e-06
0.0005626474495
-0.0002811527688
-0.0005451321281
4.389475159e-06
0.0005451824074
-4.439754482e-06
4.690227103e-05
0.001093625918
-4.693897496e-05
-0.001093589215
1.364556123e-06
-1.720820239e-06
-0.0002721347457
-0.0002726411183
-1.045772408e-06
-0.0002812339053
1.045339057e-06
0.0005254660526
-1.445033544e-06
-0.0002622074674
-0.0002630148978
0.0005430507566
1.463134959e-06
-0.0002714208008
-0.0002717285346
-0.0002833345692
-2.458159619e-05
0.0002826440471
-0.0002752085885
0.0002748328609
2.748013645e-05
-7.117353407e-05
-0.0005501399792
0.0005502574846
7.105602869e-05
-2.746077923e-05
2.755330858e-05
-0.0002753011179
2.549904406e-05
-0.0002837451733
-2.508843993e-05
2.505009815e-05
-0.0002645890209
-0.0002738584915
-2.727469001e-05
-0.0005467198442
-7.118252421e-05
0.0005467288343
-0.0003030497642
4.542510326e-06
0.0006055529969
-0.0003022803391
-0.0002938646261
0.0005882922212
-4.335457902e-06
-0.0002946445355
0.001178473489
-4.678768503e-05
-0.0005881710862
-0.0005905950132
8.807898062e-07
-8.227777069e-07
-0.0002939226382
-1.323247925e-06
-0.0003029936593
1.267143027e-06
-1.097630561e-06
-0.0002819413725
-0.0002930412407
9.878425017e-07
-0.0006077684131
-4.566459575e-05
0.0003041554371
0.0003034962555
-0.0002952125166
0.0002951452216
2.358659024e-05
-0.0001357807116
-0.001181513073
0.0001358989248
0.0005915528934
0.0005898419661
-4.929406036e-05
0.0002950140692
4.88203462e-05
-0.0005897528716
4.859383321e-05
-0.0006076794114
-4.868283486e-05
2.590253607e-05
-0.0002848951309
0.0002935917923
-0.000587680548
-2.442366757e-05
-2.547144838e-05
-0.001171518649
-0.0001368198756
0.0005874806184
0.000585077195
-0.0003237794271
1.18253947e-06
0.0003238344082
-0.0003144906316
0.0003144873851
-1.824428741e-06
0.00126115237
-4.697842534e-05
-0.0006293647054
-0.0006314072623
9.215245785e-07
-1.09667977e-06
-0.0003143154764
1.383864712e-08
-0.0003235981904
-1.950754206e-07
-1.324314633e-06
-0.000303877327
-0.0003138317059
8.635457977e-07
-0.0006490808238
-4.399590383e-05
0.000649152714
-0.0006311036381
0.0006311132602
4.450429694e-05
-0.0003447775818
-1.942510918e-07
0.0003450226448
-0.0003357665774
0.0003358853408
-7.090928255e-07
0.0006719994738
-2.496298001e-05
-0.0006720060294
-8.354033517e-06
-0.0003359427559
0.0003348233227
9.47346669e-06
-7.171650478e-07
5.353766472e-07
-0.000335584789
4.143301058e-07
-0.0003442642068
-9.277051741e-07
-2.293212563e-07
-0.000324195735
-0.0003358407425
-5.149710301e-07
-1.022770241e-05
0.0003395351068
8.292923663e-05
-0.001372817049
-8.273184093e-05
0.0006871840794
0.0006854355734
-0.0006712323277
0.0006710341986
4.313626242e-05
1.109089353e-05
-0.0003359328695
-0.000739382027
-4.099056091e-06
0.0007359995742
4.793077187e-06
2.688431717e-06
-0.0003544248544
0.0003549024644
-2.119633228e-06
0.0007135937503
-2.510092858e-05
-0.0007134591593
-9.883760632e-06
-0.0007048834821
0.0007053941912
9.373051486e-06
2.01702642e-06
-2.321708215e-06
-0.0003541201726
9.241321469e-07
-0.0007394024315
1.956814361e-06
-2.860542053e-06
-1.166053424e-07
-0.000343511039
1.388600193e-06
-0.0003531385586
-0.0007028136543
-1.081900963e-05
0.0007037489033
0.002066813193
-0.002077569555
0.0002724465277
5.901494938e-05
0.001045031098
6.249308286e-05
0.0009884206346
-6.116917025e-05
-4.834587873e-05
0.001009220703
-0.001009120606
4.824578207e-05
-4.675751592e-06
4.737755212e-06
0.0005054913387
7.250486282e-06
0.0004980203618
-8.736819937e-06
4.518808512e-05
-0.0002472474876
-3.813706009e-06
0.0002058731085
-0.0002545475389
-2.455937763e-05
0.0002580640638
2.104285275e-05
0.00108367053
-0.001083786261
4.701800215e-05
4.390693525e-06
0.0005430495382
4.442260124e-06
0.000525467022
-4.443229498e-06
9.845961536e-05
-0.0003124120061
-4.245331622e-05
0.0002564057069
-0.00129298379
-0.0001464021974
0.0004446612063
-0.002543930723
-0.0004466339246
0.002576640842
0.002454038572
0.0004492668884
9.635944116e-05
-0.0003312066971
-3.703603905e-05
0.000271883295
3.123034258e-05
-0.000659079897
-3.16610261e-05
0.0003300448023
0.0003294657781
-1.635710695e-05
-0.000325415073
0.0003253623472
1.64098328e-05
1.534254121e-05
-0.0007023439223
-1.581227324e-05
8.92442306e-05
-0.001409438496
-8.635202217e-05
0.001406546288
-0.00138186374
8.323617192e-05
0.0006917857076
0.0006897710974
4.439890126e-06
0.0005234921358
0.00050682948
-4.703865841e-06
0.001013610262
-4.768301079e-05
-0.00101427313
-3.466939512e-06
0.0002576881967
3.948921115e-06
-0.0002581701783
0.0002559762249
5.055076265e-06
-1.606863823e-06
-0.0002594244373
0.0002516072128
1.573177106e-06
-0.0002519653722
-1.215017689e-06
-6.093227903e-05
5.682755903e-05
-0.0004919941909
0.0002538185168
-0.0005081297657
-5.429529018e-05
-0.001009144348
-0.0001423541943
0.0005052050026
0.0005020050339
-0.0003253303011
-1.662010274e-05
0.0003255932969
-2.001279862e-05
-0.0003210097412
0.0003219542525
1.906828731e-05
-0.0001350186392
-0.001262693091
0.001263174383
0.0001345373477
-4.790485975e-05
4.766277044e-05
-0.0006308615488
4.711247512e-05
-0.0006489024238
-4.729087521e-05
4.817928123e-05
-0.0006107792843
-0.0006280274632
-4.790633353e-05
-0.00125401623
-0.000135201812
0.001254199403
-1.17811086e-05
-0.000341532362
0.000342723476
1.058999459e-05
0.0003473406217
8.527612239e-06
-0.000347305155
-8.563078895e-06
1.223758297e-05
-0.0006959380986
-1.251450691e-05
0.0003480465283
0.0003481684943
-0.0004559795701
-1.911621379e-05
0.0004559838534
1.911193048e-05
0.0009847495793
2.187817794e-05
-2.47475227e-05
-1.447151657e-05
-0.0004784775476
-0.0004889311704
0.0004894367753
-0.000499514147
2.082660386e-05
-0.0004923051341
-5.561557459e-05
0.0004929786986
-0.0009630915506
-0.0001251093535
0.0004839155857
0.0004622720259
6.381423159e-05
7.81990609e-05
-3.157625987e-05
3.223538604e-05
-0.0004566386963
-0.0003143441794
0.0003595322645
-5.107518563e-05
-0.0005034189304
5.008341967e-05
0.0002523424855
0.0002520682108
-2.440118535e-05
-3.569226494e-05
-0.0002542507291
-2.249555682e-05
2.074876163e-05
-0.0002528007437
-0.0002531541918
-1.849448113e-05
-0.0004990161443
-4.953368128e-05
0.0002494297861
0.0002480448538
-2.3808038e-05
-0.0002693563571
0.0002693929109
2.377148426e-05
-0.000269148721
-2.390180638e-05
0.0002692424894
-2.3172877e-05
-0.0002906702398
0.0002905478894
2.32952274e-05
-0.0002909052395
-2.359634157e-05
0.0002913287041
-0.0003139116104
2.000960554e-05
-1.776931189e-05
0.0003116713168
-0.0003178637447
0.0004038839487
1.243941133e-05
-4.516108712e-05
-0.0006200050617
0.0006200033203
4.516282854e-05
-2.348699917e-05
1.909930602e-05
-0.0003134760515
2.060679729e-05
-0.0003145353528
-1.998305497e-05
-2.106264053e-05
4.219871494e-05
-0.0003020542115
0.0002809181371
-0.0003106620281
-2.52369771e-05
-0.0006178723652
-4.523909697e-05
0.0003092044426
0.0003087459324
-0.0003302523657
2.351291098e-06
0.0003303709818
-2.469907156e-06
1.347385313e-05
0.0006609933655
-1.352743843e-05
-0.0006609397802
-1.351171779e-05
0.0006695154421
-0.0006695837553
1.358003094e-05
3.002970011e-05
-0.0006689592926
-3.025002922e-05
0.0006691796217
-0.0006614560456
3.075807112e-05
0.0003313929491
0.0003305353679
0.0004269838859
6.736632848e-06
-0.0003373610776
3.782004101e-06
-0.000350432987
0.0003508745908
-4.223607976e-06
1.379812105e-05
0.0007029645675
-1.386610326e-05
-0.0007028965853
-1.386825411e-05
0.0007110873486
1.354168686e-05
-0.0003550123187
-0.0003557484627
1.365281473e-05
0.0006917125089
-1.383365182e-05
-0.0006915316718
0.0007002673152
-0.0007002115013
1.374230717e-05
-0.0003488222907
3.203278192e-06
0.0003494010166
0.0002596972112
-1.271207235e-06
6.831006117e-05
-0.0003267360652
0.0002559470061
-3.702285101e-06
-0.0002557116605
-1.778988618e-06
0.0005142690348
1.583550164e-06
-0.000256323218
-0.0002577503784
3.610762767e-06
-4.11479167e-06
0.000256451035
-3.773269465e-06
0.0002571444716
6.326009133e-06
7.110590568e-06
-2.266450232e-05
0.0002623991281
-0.0002468452163
0.000258043981
3.254978528e-06
0.0005173710103
-1.209759353e-06
-0.000258944925
-0.0002589953146
-3.074131105e-06
0.0005045010333
-0.0005048174172
3.390515005e-06
2.735870296e-06
-3.021492996e-06
0.0002518928355
1.118881437e-05
0.0002481693331
-3.381922571e-06
-0.0002562727048
-2.81429827e-06
0.0002553137336
-0.0002518807976
0.0002519312944
2.685373436e-06
0.0005031152498
-2.758387234e-06
-0.0005034309936
3.177664816e-06
-0.0002534852853
-0.0002559232218
-1.620690269e-06
-2.487999233e-05
-0.0002602417298
0.0002596794127