/*--------------------------------*- C++ -*----------------------------------*\
| =========                 |                                                 |
| \\      /  F ield         | OpenFOAM: The Open Source CFD Toolbox           |
|  \\    /   O peration     | Version:  v1912                                 |
|   \\  /    A nd           | Website:  www.openfoam.com                      |
|    \\/     M anipulation  |                                                 |
\*---------------------------------------------------------------------------*/
FoamFile
{
    version     2.0;
    format      ascii;
    class       surfaceVectorField;
    location    "1.85";
    object      Uf;
}
// * * * * * * * * * * * * * * * * * * * * * * * * * * * * * * * * * * * * * //

dimensions      [0 1 -1 0 0 0 0];


internalField   nonuniform List<vector> 
25162
(
(99.99763376 0.01019938539 -2.244044924e-21)
(99.99044803 0.009321246536 6.657773391e-21)
(99.99665434 0.02361358612 -2.208226571e-21)
(99.98744274 0.03076400284 2.268480275e-21)
(99.99470734 0.04442629508 -4.397714775e-21)
(99.98052066 0.06245945629 1.332624501e-20)
(99.99774753 0.04899242764 1.345547079e-21)
(99.9682599 0.1109367581 -8.697651546e-21)
(99.98691566 0.1077042606 -1.459458292e-21)
(99.9970815 0.08769695065 2.103911983e-21)
(99.99892706 0.05210464817 1.030927783e-21)
(99.98489299 0.1414746315 2.08388801e-21)
(99.99655792 0.07980275472 1.011774596e-21)
(99.99744942 0.06364667683 -1.056765233e-21)
(99.99580198 0.09979378511 1.011733272e-21)
(99.9772957 0.2225403351 2.007852035e-21)
(99.99548385 0.1240710708 0)
(99.99532014 0.1503375255 -3.586247366e-21)
(99.97139384 0.3296456789 -3.586228701e-21)
(99.99478989 0.180932339 -9.266007866e-22)
(99.99423645 0.215258748 3.122023282e-21)
(99.96489323 0.466670451 3.356592778e-21)
(99.9937952 0.2528414725 4.120929589e-22)
(99.99356209 0.2926376621 -2.583903528e-21)
(99.96216486 0.625117816 3.7410277e-22)
(99.99363345 0.333113778 -2.518728089e-21)
(99.99409718 0.3721990418 4.752335438e-22)
(99.96684331 0.7807728175 -1.620355372e-21)
(99.99455769 0.4076552108 2.317981055e-21)
(99.9951112 0.4371268978 1.850270938e-21)
(99.98063658 0.8954765117 -7.851757185e-22)
(99.99671542 0.4578905427 0)
(99.99920889 0.4678754987 0)
(100.0014618 0.9352263328 9.469848265e-23)
(100.0017636 0.4663060786 0)
(100.0039753 0.4536238682 8.320303418e-22)
(100.0212585 0.8852551042 -1.507310535e-23)
(100.005293 0.4308787602 1.350618851e-21)
(100.005718 0.4006253422 -5.875736878e-22)
(100.032743 0.7677274374 -8.183708752e-22)
(100.0060284 0.365571296 -1.51489607e-21)
(100.0062979 0.3279231005 8.083462855e-23)
(100.0358576 0.6176786203 2.031959936e-21)
(100.0062433 0.2895734967 5.341008403e-22)
(100.0059417 0.2521981209 0)
(100.0328281 0.4687070856 0)
(100.0054952 0.2170897766 0)
(100.005086 0.1849092386 7.997392354e-22)
(100.0266566 0.3408479367 1.661289115e-21)
(100.0050379 0.1564087251 -4.045873378e-21)
(100.0047857 0.1295051452 -1.51399311e-21)
(100.0213575 0.2349084781 3.269756561e-21)
(100.0040372 0.1066769363 3.269512567e-21)
(100.0030083 0.0877814518 -8.97449824e-22)
(100.0126427 0.1576884661 -4.2031426e-23)
(100.0009685 0.07427392193 1.759500418e-21)
(100.0073537 0.06984307943 -7.745399125e-21)
(100.0426843 0.1724827949 3.12425825e-22)
(100.0158406 0.1579540593 -2.742257376e-21)
(100.0026562 0.07286416412 -1.576588919e-21)
(100.0050138 0.03974842927 -9.65205568e-22)
(100.0281433 0.104142062 1.531793078e-20)
(100.004028 0.01841318361 -7.742707598e-21)
(100.020045 0.05463065699 -1.633199068e-20)
(100.0173523 0.01705901704 1.308345988e-21)
(99.9781812 0.02853944844 1.110515427e-20)
(99.96362235 0.01587406902 3.497752774e-22)
(99.96838548 0.06662822816 1.767653446e-20)
(99.95173069 0.05304739923 -1.556350472e-20)
(99.94990481 0.1251364635 9.263205069e-21)
(99.9257586 0.108993914 -2.400963504e-20)
(99.94217707 0.1926045194 -1.581218722e-21)
(99.88141235 0.1963063233 4.62283172e-20)
(99.90200035 0.2434161967 -1.015257679e-20)
(99.91542204 0.2455718894 -2.182594729e-21)
(99.93564629 0.2402670997 4.269318613e-21)
(99.96002889 0.1719438864 2.121093381e-21)
(99.93875425 0.2770842417 2.05281662e-21)
(99.91817009 0.3056404843 2.098909315e-21)
(99.86316989 0.4016696418 -4.25897248e-21)
(99.89907477 0.3864347746 -3.135977017e-23)
(99.90856441 0.4345267364 2.008167143e-21)
(99.87728216 0.4845928379 -2.53454358e-23)
(99.79995811 0.630759006 0)
(99.86648616 0.5594900367 0)
(99.83117124 0.6419245406 -2.487148614e-21)
(99.87906373 0.6329965042 -4.865756328e-21)
(99.86195975 0.6704043361 -7.507497854e-23)
(99.82392279 0.7735489982 -1.094168799e-20)
(99.85244243 0.7292649408 -3.761490166e-21)
(99.82348997 0.9617344672 2.879890927e-23)
(99.84979362 0.9028880172 -2.425466309e-21)
(99.77748724 1.110116941 -1.320027082e-20)
(99.81734123 1.038924337 -3.224378596e-21)
(99.80206839 1.314157667 -5.792328362e-21)
(99.83740574 1.221880009 -5.502375193e-21)
(99.75426631 1.511916148 7.550042328e-22)
(99.80296641 1.402883163 -6.930032152e-21)
(99.81654731 1.678327034 4.583554575e-25)
(99.85814413 1.542230917 -4.298148491e-21)
(99.77796787 1.9189363 2.137220501e-21)
(99.82910818 1.763833632 -3.198479748e-21)
(99.87824488 1.96936175 -3.314685355e-21)
(99.91990649 1.786668094 -5.433046454e-21)
(99.85863748 2.236612252 2.021280487e-20)
(99.90172663 2.034560443 -3.092572794e-21)
(99.97906299 2.10549323 -8.202241061e-22)
(100.0078963 1.881518964 9.100482202e-23)
(99.98505028 2.365482488 7.689015804e-22)
(100.0059815 2.129639734 6.683341325e-22)
(100.0853888 2.045146974 1.437086585e-22)
(100.0783086 1.793815265 -1.604486705e-23)
(100.1104045 2.261136344 -2.194332636e-21)
(100.1073038 2.010463805 -1.101458597e-21)
(100.1595984 1.810196713 -3.426601514e-22)
(100.1206748 1.562929747 -2.567580598e-22)
(100.1909133 1.970601243 -7.635621655e-23)
(100.1691458 1.734773658 2.6439652e-21)
(100.1875511 1.479878145 2.749848225e-21)
(100.1328403 1.260883597 4.777964194e-21)
(100.2189513 1.59005308 4.770905956e-21)
(100.1866995 1.38758234 5.866636733e-22)
(100.1783439 1.134064648 -7.352561178e-21)
(100.1218919 0.9570586125 -6.821792062e-21)
(100.2038838 1.204953242 -2.481631234e-21)
(100.1709185 1.046240921 -2.424884193e-21)
(100.1476045 0.8309689315 -5.653282102e-21)
(100.0963717 0.6969591915 5.113359457e-22)
(100.1636277 0.8733789358 -1.494849778e-21)
(100.1375132 0.7589694801 6.07055543e-21)
(100.0859608 0.4639954967 -1.373165894e-20)
(100.1387561 0.6362993795 -1.373059201e-20)
(100.1919895 0.6809469344 1.387140061e-20)
(100.1174665 0.5228083652 -2.795365752e-20)
(100.0977643 0.42685583 1.212203171e-20)
(100.1344358 0.4510510854 -1.678515666e-20)
(100.0787266 0.346619559 2.448547705e-20)
(100.0594025 0.3089418315 2.71824615e-20)
(100.0695958 0.2022830718 2.282530982e-20)
(100.1601225 0.3184714064 -1.55099821e-22)
(100.1254762 0.3658544969 4.843981011e-20)
(100.0738319 0.2888077763 2.595569696e-21)
(100.0483575 0.115735182 -7.153212891e-22)
(100.1093406 0.1909461676 3.268442087e-20)
(100.0375966 0.0525135712 -7.624378141e-21)
(100.0796428 0.100183431 -1.732292012e-20)
(100.0668849 0.0311969492 7.742007177e-21)
(99.94079745 0.03884943669 -2.669046658e-20)
(99.92693537 0.01720987563 -1.334051768e-20)
(99.91380983 0.09220233123 -5.767734587e-20)
(99.90144777 0.05916825311 1.215726456e-20)
(99.86433714 0.1757937642 1.121441012e-20)
(99.84724494 0.1262773657 -4.881170457e-20)
(99.81554322 0.2937827421 2.942843591e-20)
(99.75840675 0.2342030704 5.298937757e-20)
(99.75262091 0.3207605313 -4.47876935e-20)
(99.84389275 0.3081739213 -8.747899245e-21)
(99.76006166 0.3531711083 -6.469393479e-20)
(99.78223847 0.3834349434 -4.375438285e-21)
(99.76017412 0.5096232407 -8.472310631e-21)
(99.73000332 0.496225029 -4.219852894e-21)
(99.63195098 0.5955643037 2.964324453e-20)
(99.67032556 0.6335257957 8.28868863e-21)
(99.65094124 0.8086623916 -7.309652709e-21)
(99.60267395 0.7999604364 5.423187481e-21)
(99.46376142 0.9592177306 -4.170565871e-20)
(99.56587625 0.9640775662 2.882869106e-21)
(99.49470101 1.036151425 -1.809447282e-20)
(99.55528424 1.180061482 -7.365804781e-21)
(99.51787207 1.182484839 0)
(99.43731336 1.302389504 7.668279912e-21)
(99.48320883 1.308559742 -7.317553515e-21)
(99.43569918 1.727361241 3.532239495e-21)
(99.38129176 1.746709146 1.381796317e-20)
(99.28311448 1.920887222 6.835199099e-21)
(99.35186395 1.909795204 1.713975822e-20)
(99.36966728 2.392487282 0)
(99.29470954 2.444371184 -6.327745585e-21)
(99.19741974 2.674857706 -5.146474564e-20)
(99.29140691 2.627939317 -1.204875586e-20)
(99.4230354 3.079958715 -1.631485909e-19)
(99.33478686 3.184476572 -1.132239304e-19)
(99.25729845 3.467998349 8.173930011e-20)
(99.36929669 3.359541892 -1.115581298e-20)
(99.62704366 3.646971373 -3.343485317e-20)
(99.54158837 3.825552251 -2.032051648e-19)
(99.51447097 4.13950522 1.294880672e-20)
(99.62206698 3.943762828 9.371202844e-20)
(99.96796238 3.8991334 3.969075333e-20)
(99.91418044 4.157511402 -7.933359636e-21)
(99.95722182 4.450858429 7.009475144e-21)
(100.0192864 4.166762692 3.466218596e-21)
(100.3147502 3.727062907 7.584995061e-20)
(100.3181804 4.032125721 4.147818549e-20)
(100.4109841 4.253240884 8.406962348e-20)
(100.4027199 3.926354067 2.825760021e-20)
(100.5287623 3.201712952 -1.552624928e-20)
(100.5845461 3.497451979 4.699501082e-20)
(100.6874353 3.630470141 -6.382321533e-21)
(100.6205105 3.325214892 -1.712796264e-20)
(100.5913911 2.545169853 3.320347718e-21)
(100.6695932 2.79144975 2.207747424e-21)
(100.7581769 2.857123265 1.167786004e-20)
(100.6700723 2.612871622 7.038508328e-21)
(100.5464037 1.905235212 -6.761530816e-21)
(100.6306307 2.101086902 -1.585589417e-20)
(100.6984317 2.128386614 -5.467117716e-21)
(100.6065744 1.938517101 5.950513108e-21)
(100.5207983 1.501294682 -1.851010652e-20)
(100.4469031 1.357132196 -1.244307249e-20)
(100.5689685 1.506458533 -1.245985248e-20)
(100.4925841 1.370583649 6.59348689e-21)
(100.3377013 0.8800599135 -5.431776657e-20)
(100.4547165 1.079632885 -2.846491166e-20)
(100.5228088 1.056062278 -8.239120357e-20)
(100.3880579 0.8823820353 -3.92833687e-20)
(100.2395156 0.5793976282 -6.146054418e-20)
(100.3271114 0.7154863032 2.454803839e-20)
(100.3706733 0.6882970598 -2.917798944e-20)
(100.2716662 0.5757895985 -2.549911089e-20)
(100.1924727 0.3032767577 1.030772712e-20)
(100.3341042 0.4131691221 -2.606974823e-20)
(100.3211444 0.5099255266 -1.288215472e-22)
(100.2394374 0.4675596859 -1.496085177e-20)
(100.1355336 0.1725084045 1.532521706e-20)
(100.2323426 0.2451223504 2.719628236e-20)
(100.1048003 0.07771778901 -1.94418203e-21)
(100.1690667 0.1273926453 -3.917671636e-21)
(100.1401782 0.03936777591 0)
(99.89448664 0.03630233263 2.680305107e-20)
(99.89271741 0.01138071213 -4.478218287e-21)
(99.84328044 0.09058719336 2.258671656e-20)
(99.85028229 0.04279863762 3.132129795e-20)
(99.75128617 0.1828754988 -8.971533441e-21)
(99.76029693 0.1038533667 -4.410460526e-21)
(99.63608164 0.3358102768 0)
(99.61429428 0.2082467648 6.855919715e-21)
(99.56131143 0.3367445668 2.077842574e-20)
(99.65815405 0.3801324526 -6.050483283e-20)
(99.54918843 0.3852174829 1.562203967e-20)
(99.56050788 0.4517461694 0)
(99.48211042 0.6545534292 1.65383995e-22)
(99.45869721 0.5960766578 -3.426820487e-20)
(99.31491643 0.6826438996 -3.424515169e-20)
(99.33868025 0.7747228463 6.93594286e-20)
(99.24108436 1.074916902 -1.028635501e-19)
(99.19949677 0.9938168514 3.899653877e-20)
(98.99336828 1.144006129 -6.888936578e-20)
(99.09395471 1.249633944 -3.432732478e-20)
(98.99372011 1.272748143 -5.628946825e-20)
(99.00110798 1.608921977 8.068382411e-21)
(98.95900348 1.563401002 1.600706957e-20)
(98.82986641 1.685931322 4.059777571e-20)
(98.87745715 1.746453274 8.001961603e-21)
(98.7109481 2.430396957 -4.733032451e-20)
(98.63889483 2.38620041 -5.319741665e-20)
(98.48498611 2.566011703 8.271496023e-20)
(98.56985116 2.626928473 -4.393792801e-20)
(98.5276912 3.454699613 -6.297358936e-19)
(98.41409678 3.430132987 -4.666668141e-19)
(98.24977419 3.683594228 -4.505772872e-19)
(98.38630145 3.722268762 -6.235356693e-19)
(98.5739641 4.619511984 -3.880776293e-19)
(98.4125998 4.649587978 5.368097103e-20)
(98.27192785 4.993293482 5.343928193e-20)
(98.46794848 4.964461862 -1.570101614e-20)
(99.00829376 5.710351088 -2.31676334e-19)
(98.81462206 5.852263619 2.955151264e-21)
(98.76440035 6.271850322 -2.587370061e-19)
(98.99556763 6.102388229 -3.112119584e-19)
(99.86564537 6.294224227 3.767554352e-20)
(99.70626928 6.591731754 -2.356057549e-19)
(99.80672138 6.992930475 -1.421314508e-19)
(99.97682647 6.641396058 3.625146657e-21)
(100.7940078 6.009898806 -3.637880853e-20)
(100.7567628 6.415840395 1.60114976e-20)
(100.9609966 6.674589324 -1.28212699e-19)
(100.9744383 6.223426935 0)
(101.3363855 5.008952126 3.330136689e-19)
(101.424143 5.409160701 2.610043572e-19)
(101.624076 5.505785 5.079532954e-19)
(101.5029191 5.090028841 -1.879177451e-20)
(101.4214063 3.79665786 -1.563052607e-19)
(101.5642527 4.112563659 3.664520214e-20)
(101.7069065 4.110977048 8.833802939e-20)
(101.5410586 3.800744905 8.40243569e-20)
(101.2643895 2.738010548 1.905186405e-19)
(101.4021932 2.958094138 4.837238681e-20)
(101.4934395 2.914284946 9.696321937e-20)
(101.3431854 2.710357051 3.667558195e-19)
(101.1451645 2.058060044 0)
(101.0235042 1.901502232 4.982418781e-20)
(101.2030039 2.011557458 0)
(101.0740148 1.867028982 0)
(100.7444728 1.20139363 2.970687482e-20)
(100.9376212 1.41116556 1.929871676e-20)
(100.9980603 1.308795483 -1.661921437e-20)
(100.7959922 1.140657335 3.723526423e-20)
(100.5279486 0.7737546271 -3.38059199e-20)
(100.6700727 0.9137623729 -1.51088496e-20)
(100.7050836 0.8329556749 -1.523453452e-20)
(100.5601668 0.7248983247 -7.43860445e-21)
(100.3624934 0.3530150116 -9.554286744e-21)
(100.5498502 0.4352804068 -1.949928748e-20)
(100.5859796 0.5931191784 -2.588448874e-21)
(100.4823776 0.5718690405 5.947061712e-21)
(100.2554988 0.1975352807 7.812677948e-21)
(100.3789026 0.2535070619 1.185182768e-20)
(100.1958441 0.0878459691 -1.973140358e-21)
(100.2725085 0.1281606068 -3.478164469e-21)
(100.2230216 0.0390025148 -4.987057231e-22)
(99.85582392 0.01737472332 0)
(99.87635185 -0.002623028983 0)
(99.77646349 0.0542337058 4.548524761e-21)
(99.81558937 0.0004898302003 0)
(99.63389478 0.1315630099 1.156853709e-20)
(99.68749139 0.03447803799 -3.607415127e-21)
(99.43796479 0.3024864092 1.906440569e-20)
(99.4740113 0.1109162951 2.544370823e-20)
(99.36618032 0.2589897206 -7.650789279e-21)
(99.43968162 0.3668899786 2.691090146e-20)
(99.32787468 0.3231783678 2.149974864e-21)
(99.30774215 0.4217853397 -1.093007205e-20)
(99.13696735 0.675368623 0)
(99.13934533 0.5755254937 -2.262849531e-20)
(98.95468602 0.6285937809 -1.861800852e-20)
(98.93940898 0.7701641092 4.615151329e-21)
(98.7197175 1.157724198 0)
(98.70608518 1.015807174 4.614657216e-21)
(98.43389486 1.1130975 -4.783634384e-21)
(98.48665056 1.323832682 2.29220726e-20)
(98.37217541 1.317448347 5.95653975e-21)
(98.25596097 1.807573874 2.278730286e-19)
(98.22691251 1.707229175 -3.432327297e-20)
(98.05095962 1.806692386 1.40784296e-21)
(98.08288118 1.92471035 9.922610418e-20)
(97.70722295 2.835976575 -2.853755738e-19)
(97.63833567 2.712426646 -2.939528397e-19)
(97.41968552 2.863739096 -8.79052667e-19)
(97.49387668 3.020177888 6.082469714e-19)
(97.23899874 4.226714223 -9.953142827e-19)
(97.10475839 4.094687229 -1.441093414e-19)
(96.84226963 4.343981617 -1.202946594e-19)
(97.0002448 4.508689477 -1.432419678e-18)
(97.07576974 6.037453973 -4.62304605e-20)
(96.83590988 5.93448123 5.052127591e-19)
(96.56199079 6.340726215 -5.447977052e-19)
(96.85805178 6.466969509 -1.481575489e-19)
(97.68409032 8.097011916 -4.715303754e-20)
(97.31065608 8.143044879 8.157292813e-19)
(97.16425318 8.757082829 -4.722076172e-20)
(97.62726525 8.675585696 -2.046710928e-19)
(99.48313202 9.47680718 0)
(99.10271404 9.844672607 0)
(99.30659636 10.48562696 -1.422335175e-19)
(99.71821544 10.0021651 1.515497809e-20)
(101.6417754 9.016747805 -9.408141121e-20)
(101.5222735 9.62615973 -1.432885281e-19)
(101.9594166 9.947626613 -3.993439731e-19)
(102.0130667 9.250671234 -4.421332024e-20)
(102.7834599 7.124013222 3.029874249e-19)
(102.9402333 7.69609756 7.619162288e-21)
(103.2978112 7.698939102 3.088739501e-19)
(103.0700658 7.116064606 -3.294575187e-19)
(102.8035112 5.011970608 1.79521916e-19)
(103.0608136 5.418522164 -1.011381238e-20)
(103.2688275 5.29390315 -1.323205041e-19)
(102.968871 4.910039029 -1.275791052e-19)
(102.3293224 3.373698579 -1.091102166e-19)
(102.5627236 3.622501397 -1.055530235e-19)
(102.6573035 3.492961111 -1.133847187e-19)
(102.4115156 3.267688189 1.103837093e-19)
(101.9869327 2.398981827 -2.23041313e-20)
(101.8122239 2.24710185 -3.835451916e-21)
(102.0361713 2.291119541 -4.130598014e-21)
(101.8573738 2.160061115 2.28519778e-20)
(101.2790237 1.372231753 -9.47919178e-20)
(101.553974 1.57062665 -5.993337281e-20)
(101.582245 1.385234722 -3.345911499e-20)
(101.3106104 1.247394108 -1.706185537e-20)
(100.897118 0.8599532977 1.163977291e-20)
(101.0960617 0.9824872551 3.518722775e-20)
(101.1004455 0.8506729596 -3.91893979e-21)
(100.9110871 0.7657820286 -3.843992422e-21)
(100.5537904 0.3374600066 2.003647212e-21)
(100.7769652 0.3697860698 0)
(100.8811062 0.568537208 -6.582180493e-23)
(100.769972 0.5886907611 -1.044791623e-20)
(100.3853672 0.1818657002 4.472952532e-22)
(100.5255983 0.2059083871 2.003466575e-21)
(100.290817 0.07850791783 -2.00661224e-21)
(100.3699828 0.09717771324 -2.00855077e-21)
(100.2970656 0.02853591325 -2.006770519e-21)
(99.84308364 -0.0194384173 0)
(99.89471154 -0.02483753128 2.231673314e-21)
(99.735473 -0.01992516158 -9.098071929e-21)
(99.81613348 -0.06765365586 -2.249832949e-21)
(99.54081759 0.01637098577 9.498098992e-21)
(99.65343144 -0.08306650197 -4.500967711e-21)
(99.25554071 0.1511644006 1.239890669e-20)
(99.37947467 -0.0601816231 3.93197324e-21)
(99.19463306 0.08312910428 -3.950955349e-23)
(99.22923313 0.2518937962 -9.167642881e-21)
(99.11951401 0.1550319436 -9.316882273e-21)
(99.06372254 0.2677817891 0)
(98.77609073 0.5394928602 -1.861754892e-20)
(98.82187251 0.4068575498 0)
(98.60907538 0.4079383703 -1.370817918e-22)
(98.5320824 0.5852509106 -1.00792649e-22)
(98.14539083 1.005736423 9.664589885e-21)
(98.18930411 0.8155632658 1.445353024e-20)
(97.86959709 0.8339669249 1.955211211e-20)
(97.84568052 1.148016714 -4.124604623e-20)
(97.740127 1.071846786 -3.538898458e-21)
(97.42928674 1.665187788 -7.869097714e-20)
(97.43809489 1.521160984 1.519346176e-20)
(97.22550228 1.568502932 -7.843547119e-20)
(97.20912823 1.739301969 -7.763569294e-20)
(96.49879263 2.744975846 -3.541986597e-19)
(96.47160457 2.546808801 -3.526693698e-19)
(96.18639912 2.637102794 1.500349496e-20)
(96.21283375 2.878063239 -3.515399749e-19)
(95.49598167 4.378414564 1.121270826e-18)
(95.39946732 4.12543675 -3.505082898e-19)
(95.01126736 4.274362743 -1.58926394e-19)
(95.11985515 4.630935485 -3.551559752e-19)
(94.60384742 6.957419061 -8.418951523e-20)
(94.33230613 6.603941537 -8.427510112e-20)
(93.80505544 7.007361337 -6.47886426e-19)
(94.13851172 7.449062452 -9.885584554e-20)
(94.83554592 10.87814435 -5.454373238e-20)
(94.17611483 10.62919054 0)
(93.68595461 11.59655903 -2.659064759e-19)
(94.57471452 11.85342914 0)
(98.44411638 14.44921797 0)
(97.54538827 14.95798083 -1.212508836e-19)
(98.01512436 16.25157102 0)
(99.01907408 15.41893864 0)
(103.4796194 13.34993052 -1.426251747e-19)
(103.2817946 14.41675985 -7.699539267e-21)
(104.306357 14.7294896 -2.922956551e-20)
(104.2817085 13.51025662 -4.392148719e-19)
(105.4259898 9.439071432 0)
(105.7829297 10.26578296 2.225609681e-19)
(106.3932097 9.993908151 -6.542653887e-19)
(105.8821766 9.204073362 0)
(104.9630574 5.997885639 0)
(105.4275193 6.476235378 0)
(105.6564781 6.153602687 -5.251315895e-19)
(105.1368792 5.706870098 0)
(103.7858965 3.696017101 7.255111156e-19)
(104.1541631 3.945941094 8.560455279e-21)
(104.2050083 3.694901811 -5.225362839e-19)
(103.8339722 3.488576708 2.478012992e-19)
(102.999544 2.422742312 1.273274645e-21)
(102.7528769 2.298071171 6.514601236e-20)
(103.007951 2.253191985 -5.644696976e-22)
(102.7681068 2.151069671 -1.99513175e-21)
(101.8960736 1.339342371 2.753359816e-20)
(102.242368 1.482291356 -2.208397958e-22)
(102.2068212 1.22785509 1.659311858e-20)
(101.8785324 1.150897038 1.237809782e-20)
(101.3041211 0.8009878862 -1.620598029e-20)
(101.5555491 0.8827760246 -8.240710801e-21)
(101.5061077 0.7087015736 -8.242307322e-21)
(101.2798654 0.6679207309 1.25073475e-20)
(100.735445 0.2431799204 0)
(100.9807136 0.2107402981 1.316091275e-21)
(101.1643284 0.4226001068 -1.104842771e-20)
(101.0632741 0.496006357 2.74529679e-20)
(100.4993047 0.1195886944 -5.03839329e-22)
(100.6420835 0.09678725713 -1.557925009e-21)
(100.3675877 0.04726997866 -2.015650313e-21)
(100.4381571 0.03264110096 -2.275063111e-21)
(100.3416395 0.007492369255 2.590569359e-21)
(99.87396879 -0.07238730184 -1.744814606e-23)
(99.96301066 -0.05420419081 9.631786328e-23)
(99.74180391 -0.1295760209 2.34382838e-21)
(99.87014883 -0.15784922 -1.160766764e-22)
(99.5020023 -0.1574496891 -1.224731418e-20)
(99.67989264 -0.2416454062 1.875763953e-21)
(99.12585428 -0.08128465894 -1.097720375e-20)
(99.35681153 -0.2967771638 -1.859815844e-20)
(99.09608498 -0.1848591402 -1.590990328e-20)
(99.05496966 0.02987232835 -8.646117466e-21)
(98.98127583 -0.1174344561 -3.48491863e-21)
(98.8735282 -0.003031010363 3.184870285e-23)
(98.46325644 0.2354599369 1.413672985e-20)
(98.5658401 0.08791177292 1.443027884e-20)
(98.34671012 0.02513930524 7.124250588e-21)
(98.19639395 0.211482813 2.462800037e-20)
(97.63123161 0.5980181377 -2.478543399e-20)
(97.75898284 0.3735295552 -1.995081708e-20)
(97.43714269 0.3006508451 6.25793113e-21)
(97.28714773 0.6373517532 8.861453231e-20)
(97.20555208 0.5266173703 -1.818014803e-20)
(96.66152256 1.130062706 -1.813191008e-19)
(96.72738906 0.9569114828 -3.696760903e-19)
(96.49956682 0.9374718693 -4.357550977e-19)
(96.41358997 1.134533933 -3.357284783e-19)
(95.30169789 2.067342497 3.981966022e-19)
(95.3562692 1.811105251 0)
(95.0400744 1.799775481 -4.224752923e-19)
(94.96011276 2.093582497 0)
(93.53629438 3.579426813 -1.199009625e-20)
(93.56913283 3.184714314 -3.257186483e-19)
(93.08524395 3.202801992 -1.066704123e-19)
(93.016308 3.662195251 -1.0713472e-19)
(91.05382323 6.369332197 7.956445344e-19)
(90.9798191 5.696925672 1.094696886e-18)
(90.11152139 5.83413348 -4.738181376e-19)
(90.15838238 6.700796544 4.288900354e-19)
(88.25062839 13.0489363 3.567537321e-19)
(87.46907033 11.78945412 8.385078863e-20)
(85.52757854 13.25835995 6.15342622e-19)
(85.78659474 12.39405483 1.879016727e-18)
(87.32985242 14.62178126 1.514396382e-18)
(86.28154115 14.66304189 6.125718723e-19)
(93.23394672 24.96585352 -2.63294474e-20)
(94.6584523 24.54158498 -1.590978835e-19)
(93.76102522 26.82945536 -2.946821375e-19)
(95.49163044 25.96266343 -1.619239632e-19)
(108.8702252 21.32245051 1.098897362e-19)
(108.9808165 19.48430684 1.625301301e-19)
(110.6584637 18.94255613 9.071818397e-20)
(109.8010031 22.05672217 6.258631041e-20)
(111.880609 20.69294192 -1.039077471e-18)
(111.5063811 21.54980092 6.00844679e-20)
(111.0943805 12.1960057 1.768530461e-19)
(110.1762356 11.18804879 -3.758933707e-21)
(111.7402613 11.26470048 1.063238427e-18)
(110.6549508 10.48750214 1.807425835e-19)
(107.9620955 6.17034546 3.233815478e-19)
(108.7290799 6.611442816 -4.45117021e-21)
(108.8118549 5.981839442 -3.509247194e-19)
(108.0296839 5.671460157 3.256304559e-19)
(105.5512933 3.42217475 -2.782303977e-19)
(106.0741898 3.606771518 -2.982853595e-19)
(106.0091058 3.230658023 0)
(105.5055772 3.112491278 -2.82504987e-19)
(104.0967978 2.020562568 3.542707484e-20)
(103.7718857 1.953533095 3.497868611e-20)
(104.0267844 1.795286302 3.6165348e-19)
(103.7194597 1.748612125 6.778769196e-20)
(102.4999331 1.047252628 4.325999262e-21)
(102.9034931 1.090987559 -2.804434869e-20)
(102.7610698 0.7973225591 -2.452280599e-21)
(102.4082797 0.8134434806 -4.458502325e-21)
(101.6923433 0.5710392467 4.43078145e-21)
(101.9805782 0.590338559 -2.441798651e-23)
(101.8615839 0.3919352187 -7.285848771e-21)
(101.612654 0.4106926122 8.929513804e-21)
(100.8711045 0.06844946292 -2.113422953e-22)
(101.1084212 -0.03783470958 -2.808761455e-22)
(101.3929293 0.1515903902 8.526655984e-22)
(101.3152811 0.2564384199 6.586590857e-21)
(100.5701853 0.009442505753 -3.331009597e-21)
(100.6976261 -0.07065343669 -2.502981032e-22)
(100.4037545 -0.006438707444 2.50197083e-21)
(100.4530828 -0.0628250078 -2.18978805e-21)
(100.33555 -0.02340468469 4.097973051e-22)
(99.96380631 -0.1384191152 1.825641137e-23)
(100.0935878 -0.08861380752 -3.309732526e-21)
(99.81388652 -0.2669485931 -6.097624192e-22)
(99.99141945 -0.2635118983 1.439370766e-21)
(99.54194817 -0.3777216288 -4.767359501e-21)
(99.78446692 -0.4286195211 -3.137625859e-21)
(99.09328349 -0.3918822699 9.829760486e-21)
(99.43170723 -0.57798941 -1.08465098e-21)
(99.10510491 -0.5221157057 1.040720766e-21)
(98.97027001 -0.2874894191 4.84095585e-21)
(98.95357416 -0.470620247 9.997831489e-21)
(98.79284304 -0.3740450874 7.067122582e-21)
(98.26950135 -0.21619052 -2.398343039e-21)
(98.4364352 -0.3559056322 3.748366364e-21)
(98.23588689 -0.4824417053 2.473385163e-21)
(98.01278716 -0.3200667874 7.504134374e-21)
(97.29941526 -0.04786938372 3.446082361e-20)
(97.51524847 -0.2656917038 3.201094261e-22)
(97.22652077 -0.4335065989 -2.027222158e-20)
(96.9381219 -0.1084515074 -2.312262303e-19)
(96.90432358 -0.2633344657 3.466125184e-19)
(96.12731248 0.2400261147 -2.746154903e-19)
(96.26035727 0.0685310546 9.655936973e-20)
(96.04661284 -0.02304778112 9.494478742e-20)
(95.88445568 0.163787672 3.968307133e-19)
(94.43481036 0.798000005 2.197275131e-19)
(94.59626231 0.5384015439 4.30155451e-19)
(94.3009843 0.4158834009 6.788790145e-19)
(94.09791092 0.6949248871 2.197429438e-19)
(92.03618343 1.678387992 -5.20032893e-21)
(92.27351677 1.275557037 -1.981455197e-19)
(91.8229814 1.08443282 1.03092555e-18)
(91.50746091 1.514069869 5.403480241e-19)
(87.93090304 3.137781451 -5.167564323e-19)
(88.38141978 2.412788963 -5.075656908e-19)
(87.59678996 2.016274248 5.377229875e-21)
(86.91255047 2.781424617 -9.049284916e-19)
(79.36756319 5.760281957 1.28332814e-18)
(80.00484693 4.802379573 2.737566378e-20)
(79.08453319 4.122166785 2.722800425e-20)
(78.13561582 5.122348429 -1.382198538e-18)
(126.671431 24.25839008 -9.103783294e-19)
(124.6938867 23.19200923 1.688302784e-18)
(127.301606 22.15590723 1.758620741e-18)
(125.3951817 21.53076955 -1.445175223e-18)
(118.7882762 10.2276118 7.657534957e-19)
(117.0095087 9.745556455 -6.598605216e-19)
(118.6625462 8.555227679 4.060458646e-20)
(117.0124353 8.468103172 -6.508699365e-19)
(111.349417 4.698047628 1.889168097e-19)
(112.4193772 4.83941522 1.736956955e-19)
(112.0987233 4.010857233 -4.353969611e-20)
(111.1251606 4.024127338 -5.655082724e-19)
(107.2862597 2.312102634 1.596610609e-19)
(107.9252636 2.327062168 -1.890514725e-19)
(107.647873 1.894109387 -1.749897732e-19)
(107.0720215 1.940764193 6.24068029e-19)
(105.0657985 1.12124214 3.099464904e-19)
(104.69222 1.147549665 6.67476622e-19)
(104.8874909 0.8760421601 2.977805269e-19)
(104.5494767 0.9226045237 4.379720581e-19)
(102.9780228 0.484306006 -4.78657118e-21)
(103.407809 0.4111288156 3.706158485e-20)
(103.1387324 0.1170510346 7.538096148e-21)
(102.7962331 0.2401993365 1.140020878e-21)
(101.992299 0.174086988 -2.028065935e-21)
(102.2850124 0.1117469878 1.346363918e-20)
(102.0851406 -0.07753890645 4.986522125e-21)
(101.8460285 0.01311450889 9.902580548e-21)
(100.9238009 -0.1735037332 -3.425864624e-22)
(101.1285356 -0.3586836162 -1.052514811e-21)
(101.507534 -0.2240528911 -1.064365027e-21)
(101.4767455 -0.07985170915 -1.160972589e-21)
(100.5720316 -0.1409920695 1.075942012e-21)
(100.6668436 -0.2831062861 1.30798497e-21)
(100.3780826 -0.0785618087 -4.247000559e-21)
(100.394135 -0.182249851 1.669885545e-21)
(100.2614236 -0.06209640413 -2.093946858e-21)
(100.1235926 -0.2122250886 -1.888576205e-21)
(100.2937823 -0.1253151153 1.046636555e-21)
(99.96481069 -0.4209792016 -1.102776855e-21)
(100.1883709 -0.3761489119 -7.754105913e-22)
(99.67763181 -0.6253863933 5.661627167e-22)
(99.97733583 -0.6279634076 -2.779823395e-22)
(99.18268192 -0.7496483798 6.415994903e-22)
(99.61745821 -0.8787131949 9.394550457e-22)
(99.24212838 -0.89479579 5.628206502e-22)
(99.00815835 -0.6685994716 1.637534089e-21)
(99.06114996 -0.8696755674 -1.631047957e-23)
(98.85355969 -0.805697617 -1.631279942e-23)
(98.25110031 -0.7660465412 -2.468482031e-21)
(98.47622918 -0.875092562 0)
(98.31655285 -1.058501599 -1.213434688e-21)
(98.03434541 -0.9442959487 -1.292724806e-21)
(97.22356754 -0.8422594292 -4.085714045e-20)
(97.51825276 -1.015487298 -2.390992589e-20)
(97.29248902 -1.259611176 -2.256351353e-20)
(96.88578671 -0.9992600057 2.183731816e-22)
(96.90918502 -1.173476782 -1.465224348e-20)
(95.96562889 -0.8599288386 9.830447166e-20)
(96.15610903 -1.001126669 -2.658641538e-19)
(95.98866901 -1.147006384 -1.675464666e-22)
(95.75760846 -1.004474488 -4.700189932e-19)
(94.16324614 -0.7861125451 6.898119468e-19)
(94.40659567 -0.9897711772 4.518564826e-19)
(94.1962175 -1.185351187 -9.619635579e-22)
(93.89104368 -0.9834101503 7.053472853e-19)
(91.66217017 -0.7350937906 -9.961485862e-19)
(92.04729057 -1.010136548 -5.106286932e-19)
(91.74662732 -1.307914903 -5.058322899e-19)
(91.29570541 -1.055450856 -4.313767266e-19)
(87.73291526 -1.119029258 -1.548455347e-18)
(88.42964264 -1.448396269 -4.816851665e-19)
(88.0252091 -1.976874912 -5.113277715e-19)
(87.23043663 -1.742048445 -1.314102353e-18)
(82.28680214 -3.496763246 5.776152509e-19)
(82.93364415 -3.498890455 -1.332716848e-20)
(82.86975859 -4.004908574 1.141422842e-18)
(82.27944781 -4.108016179 5.756579277e-19)
(140.154304 6.305877035 -1.273046154e-18)
(138.4123209 7.3334583 -1.166040798e-18)
(138.7828866 4.898434352 3.811675533e-20)
(137.328913 5.927295376 1.083194647e-19)
(123.9509764 2.614257412 7.299226094e-19)
(122.1663798 3.322491609 -6.970828165e-19)
(122.6859741 1.274046391 1.233654614e-20)
(121.2802756 2.094337409 1.399201311e-18)
(113.7672693 1.303290017 5.633393037e-19)
(114.8589309 0.9447648203 7.299141567e-19)
(114.0624024 0.2557019208 -4.937955445e-19)
(113.1557795 0.6809732358 -9.469670387e-20)