/*--------------------------------*- C++ -*----------------------------------*\
| =========                 |                                                 |
| \\      /  F ield         | OpenFOAM: The Open Source CFD Toolbox           |
|  \\    /   O peration     | Version:  v1912                                 |
|   \\  /    A nd           | Website:  www.openfoam.com                      |
|    \\/     M anipulation  |                                                 |
\*---------------------------------------------------------------------------*/
FoamFile
{
    version     2.0;
    format      ascii;
    class       volScalarField;
    location    "2.89";
    object      k;
}
// * * * * * * * * * * * * * * * * * * * * * * * * * * * * * * * * * * * * * //

dimensions      [0 2 -2 0 0 0 0];


internalField   nonuniform List<scalar> 
12556
(
36.90870945
36.90877455
36.90891078
36.90912852
36.95445752
36.95529572
36.95678863
36.96001149
36.96618984
36.97625917
36.98881553
37.00282517
37.0065174
37.00480027
36.9950574
36.98210245
36.97099467
36.96308385
36.95874924
36.95620755
36.91003266
36.90913661
36.9086944
36.9084208
36.72746803
36.72768808
36.72798118
36.72872219
36.77480007
36.77916002
36.788003
36.82297049
36.8520816
36.89984547
36.96564084
37.01866666
37.03708989
37.0321054
36.99959285
36.94036955
36.8840443
36.84433259
36.79886654
36.78427861
36.73233543
36.72944369
36.72804153
36.72729793
36.54750058
36.54810739
36.54914803
36.55126883
36.59891656
36.60999135
36.63145554
36.68686434
36.75793406
36.8706057
36.98987869
37.07650489
37.11212023
37.10232829
37.04632952
36.94647396
36.82740641
36.73617355
36.65476766
36.62161153
36.56027133
36.5534437
36.55024319
36.54894238
36.36885022
36.36959905
36.37140571
36.37596122
36.42786018
36.45103985
36.49902755
36.59247751
36.73815189
36.91457141
37.0902811
37.22404416
37.28550494
37.26683429
37.17396623
37.01942094
36.84380827
36.68022044
36.54042234
36.47563519
36.39491528
36.38214865
36.37590676
36.37347114
36.19214241
36.19350012
36.19721973
36.20678284
36.26534312
36.30770036
36.39899759
36.55728994
36.78182596
37.0380578
37.30760292
37.54033714
37.666779
37.62964939
37.45987034
37.19901744
36.92900502
36.69367104
36.47135692
36.35187062
36.23980742
36.21547009
36.20432755
36.19998829
36.016832
36.01893586
36.02523191
36.04129917
36.11389729
36.18621193
36.34544609
36.57600732
36.88200059
37.25609472
37.71068428
38.21397938
38.54772413
38.4397853
38.02006898
37.5501276
37.1114455
36.76000924
36.4535302
36.25538856
36.09643951
36.05328331
36.03470742
36.02742299
35.84428351
35.84806457
35.85919642
35.88683531
35.9756179
36.0894229
36.33600979
36.63412669
37.04759438
37.59421345
38.40566779
39.76728488
40.52378683
40.36830043
39.04452496
38.12646698
37.40822557
36.88660659
36.47087861
36.19059989
35.96392406
35.89606103
35.86679409
35.85538068
35.67553792
35.68132227
35.69838467
35.74122281
35.85060859
36.01967567
36.35503245
36.72759662
37.26691235
38.0365795
39.39407366
42.47015398
43.38454076
40.68752568
38.9460892
37.81448237
37.06852118
36.51718919
36.15293694
35.84502365
35.74517048
35.70161986
35.68485071
35.51393968
35.52312482
35.54922549
35.61204024
35.74311344
35.97640919
36.3949266
36.84916985
37.51748315
38.50207914
40.34102789
44.98849248
48.4400529
42.68789912
39.92132026
38.29832343
37.2892627
36.58369783
36.13609943
35.73994258
35.60281708
35.54200211
35.51872373
35.36126642
35.37402821
35.40962212
35.49418121
35.65533353
35.95559576
36.45025239
36.98796822
37.77210842
38.92416798
41.05214616
46.18831903
51.87406993
44.4988462
40.88255586
38.7834457
37.51911988
36.6622728
36.13600827
35.65039084
35.47251727
35.39199566
35.36111295
35.22106581
35.23902196
35.28740689
35.39911117
35.58680256
35.95614065
36.51879048
37.134337
38.015373
39.29498059
41.62826037
46.66529629
53.533883
45.83308272
41.66594686
39.20402449
37.73307579
36.74190406
36.14214223
35.57526534
35.35660481
35.25555267
35.21629067
35.09318626
35.11580028
35.17567416
35.31339565
35.53466404
35.9673147
36.59563846
37.2811562
38.24548265
39.63252682
42.15992446
46.39613633
54.23520182
46.67739732
42.22103878
39.52543804
37.91262729
36.81373087
36.14987733
35.51533824
35.25595691
35.13467286
35.08676176
34.97907657
35.00783887
35.08389651
35.25149568
35.49428537
35.98464705
36.67223257
37.4268125
38.45880268
39.9469339
42.71905527
45.8447777
43.72456611
54.03911036
47.11214196
42.55319845
39.72299286
38.04509316
36.87090278
36.15546752
35.4633584
35.16967893
35.02899192
34.97290027
34.87589677
34.91036494
35.00095697
35.19366422
35.47919602
36.03321976
36.7919096
37.59180224
38.68962575
40.29383655
43.33655205
44.28834154
54.36711149
53.98859218
47.24034625
42.63534303
39.82014419
38.13625687
36.91165508
36.15514077
35.41431615
35.09370594
34.93569136
34.87227112
34.78207471
34.82209059
34.92628501
35.14283781
35.45724317
36.05967631
36.88172467
37.76586865
38.96760687
40.68022276
43.7421976
40.45825569
55.08123409
53.25580276
46.91919709
42.53133687
39.82286723
38.18728207
36.93033241
36.14282405
35.36547316
35.02347652
34.85078821
34.78120253
34.69335036
34.73865834
34.8552006
35.09420625
35.43559637
36.0770896
36.95819595
37.96289209
39.35128228
41.26880649
44.15794806
34.66508419
53.3824158
51.69253086
46.15507345
42.24042137
39.75868059
38.19147781
36.92439814
36.11177775
35.30936244
34.95224967
34.76914111
34.69458325
34.6079554
34.65810475
34.78527617
35.04414043
35.40943676
36.08033435
37.00691086
38.12306381
39.79481141
42.0124278
43.7463078
26.93981339
52.37196222
49.71461906
45.08661851
41.83460256
39.67781423
38.16178284
36.88869829
36.06146397
35.24518228
34.87873313
34.68708138
34.60847704
34.52134223
34.57588049
34.71230271
34.98884925
35.37517015
36.0687415
37.02617805
38.18716661
40.079688
42.49480675
40.28855144
31.94920775
50.99561444
47.83547123
44.11218659
41.4687994
39.55013422
38.08164066
36.81341376
35.98637913
35.16647603
34.79543251
34.60013018
34.51862055
34.4338158
34.49219012
34.63627988
34.92742851
35.33063413
36.03936391
37.01856886
38.20571347
40.11060399
42.22645311
33.20640272
42.01397857
49.6109157
46.53498319
43.50651794
41.179941
39.36718004
37.95449972
36.70913905
35.89117582
35.07541594
34.70374915
34.50675861
34.42375948
34.34112502
34.40288291
34.55371812
34.85765934
35.27505767
35.99378716
36.98749392
38.19096136
40.07090276
41.68642583
29.64735666
42.44455932
48.42624127
45.80812171
43.05497939
40.87689304
39.155367
37.79692962
36.58283824
35.77865147
34.97176219
34.60193947
34.40477391
34.32097093
34.24638882
34.31102231
34.4674018
34.78117967
35.20870648
35.93390338
36.93645419
38.14887714
39.97432414
41.04576955
26.68282025
41.76731775
47.36506255
45.15580196
42.62969253
40.5740193
38.9299994
37.62055525
36.44012955
35.65199013
34.85803916
34.49236323
34.29619416
34.21214931
34.1447001
34.21191021
34.37350444
34.69628816
35.13261527
35.86193172
36.86998432
38.08521709
39.82868737
40.33183134
24.26914587
40.981646
46.39896095
44.55467573
42.23079744
40.27867801
38.69988695
37.43342565
36.28550004
35.51436665
34.73432954
34.37339184
34.17866722
34.09473269
34.04238376
34.11179856
34.27771328
34.60684516
35.04809308
35.78012419
36.79159598
38.00393683
39.63856088
39.57310849
22.36215874
40.18253865
45.51432956
43.99618664
41.85515735
39.99401546
38.47018619
37.24096194
36.12276066
35.36858317
34.60455529
34.24963097
34.05682914
33.97326306
33.93212213
34.00364822
34.17406251
34.50998858
34.95675674
35.69059548
36.70417353
37.90779303
39.40691781
38.7838611
20.84105665
39.40235429
44.69870989
43.47391412
41.49945179
39.72061757
38.24381865
37.04663667
35.95497745
35.21702445
34.467369
34.11767559
33.92661705
33.84350418
33.82435669
33.89771614
34.07180668
34.41181805
34.85993124
35.59524196
36.60996121
37.79793992
39.13907525
37.97656322
19.62376541
38.64915823
43.94207204
42.98304782
41.16122932
39.45792614
38.02228049
36.85268816
35.78444267
35.06154211
34.32818538
33.98487211
33.79581143
33.71323703
33.70701784
33.78228577
33.96060951
34.30646947
34.75904955
35.49563663
36.51043714
37.67444446
38.84069893
37.16332536
18.65329765
37.91651308
43.23976861
42.51986751
40.83860667
39.20503979
37.80613922
36.66046039
35.61276257
34.90365559
34.18266749
33.84387486
33.6563021
33.57420532
33.59683898
33.67375048
33.85534855
34.20369985
34.65496595
35.3930041
36.40639338
37.53750542
38.52200106
36.35484981
17.8809929
37.21324453
42.5849238
42.08143064
40.53003385
38.96108502
37.59548783
36.47073805
35.44107235
34.7444145
34.03939301
33.70690636
33.52112442
33.43952213
33.4736191
33.55238905
33.73813928
34.09221984
34.54885362
35.28824239
36.2981332
37.38788651
38.19167191
35.55815054
17.21151182
36.5437448
41.97060841
41.6651541
40.2340638
38.72521278
37.3901475
36.28392126
35.27012591
34.58476587
33.88857786
33.55934303
33.37464571
33.29341381
33.36435071
33.44465592
33.63335846
33.98860476
34.44103849
35.18199483
36.18574766
37.22687717
37.85140037
34.77888239
16.63773951
35.90831524
41.39184499
41.26873464
39.94935736
38.4966464
37.1898524
36.10021685
35.10044984
34.42517478
33.74558525
33.42267264
33.23951064
33.15865022
33.23540256
33.31760398
33.51044474
33.87184276
34.33264153
35.07473025
36.06927419
37.05596639
37.50336842
34.02171436
16.16475772
35.30643157
40.84374216
40.88991063
39.67457595
38.27461331
36.9942732
35.91969245
34.93240196
34.26634319
33.59022346
33.26901361
33.08657379
33.00594514
33.13076473
33.2144082
33.40992572
33.77133277
34.22343591
34.96678604
35.94889665
36.87667865
37.15023703
33.2889083
15.79683744
34.73758575
40.32350756
40.52631623
39.40832375
38.05833159
36.80305842
35.74235484
34.76624562
34.10831355
33.45207983
33.13740458
32.95622188
32.87582844
32.99475665
33.08040168
33.2800676
33.64823582
34.11481481
34.85847136
35.82505966
36.69061231
36.79451648
32.58182179
15.53050509
34.19879585
39.82662907
40.17523434
39.14905823
37.84699681
36.61585088
35.56814165
34.60218386
33.95185676
33.29008601
32.97563057
32.79496441
32.71467391
32.89935837
32.98632045
33.18844674
33.55601138
34.00588249
34.7500987
35.69844984
36.49947957
36.43909286
31.91077428
15.35319035
33.68329191
39.34770977
39.83339874
38.8950798
37.63978512
36.43228505
35.39694643
34.44045806
33.79661347
33.1634569
32.85538858
32.67559727
32.59542647
32.75311658
32.84224925
33.04857811
33.42264938
33.89900149
34.64226575
35.57005597
36.30557534
36.08848215
31.29113111
15.24610974
33.18140408
38.88090314
39.49760673
38.64490054
37.43602717
36.25208462
35.22875833
34.28158845
33.64411047
32.98800125
32.68011929
32.50087799
32.42070563
32.67232553
32.76263304
32.97119175
33.34636421
33.79275387
34.53597338
35.44173185
36.11080476
35.74753179
30.74362351
15.1898479
32.68547003
38.42245777
39.16581798
38.39755276
37.23525426
36.0750187
35.06345892
34.12701383
33.49445619
32.88476866
32.58012006
32.40124286
32.32107216
32.48654782
32.57966125
32.79351137
33.17584433
33.69262042
34.43354166
35.31795482
35.91731392
35.42327329
30.27762878
15.16983191
32.1954072
37.97515456
38.84000101
38.1537629
37.03771614
35.90121835
34.90113905
33.98120749
33.35363348
32.6585926
32.35512889
32.17680892
32.09653333
44.78455744
49.05183848
43.80131625
46.07270116
52.83573121
49.52014795
46.66373868
54.53833999
53.14377763
46.45143835
55.20415031
54.64953804
45.8823478
40.09646484
42.80097417
55.48022615
55.24303959
44.83214265
49.13764354
40.34152242
53.87388319
55.91684974
55.49915632
42.04125701
40.49116554
43.28993694
40.25323091
53.5787503
45.72377259
47.88425728
43.17096385
41.31594803
40.89221128
44.98353335
43.94975723
56.80166951
59.57472306
51.56141577
45.42226268
43.77269759
41.49407828
45.77666698
45.10459196
46.47691225
48.81408276
49.84915738
54.9525729
54.53130331
53.40063353
47.04995079
45.8843262
42.04253577
46.0187323
45.83726628
46.61641041
44.86090358
47.0306054
56.63150002
55.61397783
42.59422468
45.92259993
46.02302141
46.16521867
39.6941914
42.32508461
40.28755908
57.72028315
57.42598066
43.2232741
45.40784102
45.88834192
45.51776577
32.91297209
36.11831356
43.14346367
51.6003466
49.55265831
49.65130307
51.82943919
44.76850544
49.16560653
59.52995557
53.94447612
46.80036554
52.7709586
58.1164477
49.97271411
50.67243275
45.64415357
51.48341985
50.08091527
52.0094817
51.63530806
54.64899807
56.53751874
51.38312817
57.82332217
56.46853545
58.30182107
57.96498121
51.1275427
47.23790609
48.63655099
46.54990965
48.25181172
46.24818643
49.99015024
48.37551023
55.42252856
55.04669836
54.07799793
56.97831809
57.23114953
56.39745879
56.93392098
53.89021512
42.47068252
44.72616614
46.58363172
43.66887012
40.93065344
46.11385067
43.82079295
57.36353559
56.74596908
36.28673545
39.5017167
46.13445329
42.95982627
37.359793
33.72694509
40.77537391
37.59356624
44.78246748
57.92115235
57.75770161
39.87404983
40.17574085
32.8470745
45.46701023
45.6700032
31.99385276
83.7829487
33.62430402
32.02154629
44.97362519
40.12856442
43.75524106
41.74356882
43.66304972
47.96362735
44.27917645
67.48887069
49.57064877
45.51595405
50.74125236
50.38542192
56.13210306
54.19493664
48.07496495
47.34764674
66.5186212
47.62181118
45.89613346
49.41409142
58.19446992
58.00996809
50.1978166
48.34142236
43.99192338
58.59282927
47.37145899
56.38192656
45.27072132
51.68696091
46.1307507
45.40977214
41.84563515
55.0048106
57.54290365
57.67993413
57.26575591
57.5150104
54.93730792
39.18498953
58.33428581
41.85782917
42.3333497
41.83659912
44.19613175
45.09109064
42.28787338
42.33712175
73.23159875
50.22919372
67.14281821
48.30199973
62.81567569
49.28110068
58.7920072
58.97418623
54.64358258
54.61876245
41.39429702
50.74420649
56.2326464
42.10713993
41.4119634
53.56113504
42.71680437
56.09535883
41.12856758
45.68515206
45.30341185
51.04548446
48.61327522
58.56826825
35.0591849
43.30452128
42.76298615
43.99332289
43.49982044
35.20043018
63.61078804
59.1363386
50.76143119
59.60428991
60.71356148
54.52930933
59.21481539
51.05743224
46.80558563
53.71560147
46.63333841
59.78322084
54.60552209
47.4966086
57.23787118
63.44968566
57.69953853
57.28985133
50.8258632
46.33745996
50.73709513
52.08024538
50.18049458
53.89614247
46.78290662
49.6964845
52.00600822
55.71660109
55.88010316
57.18400482
55.78458822
55.18820141
56.34952194
55.94448694
57.07798562
58.80310707
53.79767921
52.69587673
54.9555091
54.11833912
58.76580905
47.34121191
47.21193919
49.29142015
49.18968261
55.64255201
54.47890718
55.56222085
42.58280071
42.39542559
45.03431759
44.87881992
41.57390141
44.55673736
57.05630017
41.40385008
41.17646122
38.26117078
44.61543744
44.1557161
45.1707035
44.75944212
38.42886425
39.22750594
36.38191084
36.21938851
39.68096151
39.52553114
67.99556001
39.28688733
53.50836467
51.75228676
42.55324368
42.03752669
32.26969366
32.72018638
41.35684822
45.26461461
33.13349459
83.12056675
46.69012359
73.88203906
33.05637657
42.61434976
53.90644069
41.75657333
67.36370086
40.29432998
41.72195664
43.64583137
44.82353309
45.28967831
43.70009655
36.35294769
41.88909992
55.55563108
55.18279958
55.81120298
57.31180571
42.77394948
49.4894496
55.16870297
53.99971118
39.47698041
58.29913936
58.24706389
50.06378134
44.12774894
43.74255994
46.82566759
48.33587863
43.97426246
44.25592422
57.74303142
61.33284072
59.63811748
59.48874863
54.73269668
44.5707324
44.47698397
49.83255383
49.37652114
54.34299485
45.82837245
47.35295901
47.0808057
47.68619187
47.43965194
45.9867959
46.15683187
45.80544803
41.28097643
33.43778699
39.45954363
38.99555486
76.68152366
57.49096662
49.79977003
59.01316128
63.34365319
61.77115824
55.52382447
50.39913827
48.79322045
52.27950779
50.90165424
55.9178397
55.05866666
50.54713001
50.14175317
56.06782558
47.86789301
47.96553994
47.76196104
42.16281678
42.72979981
46.66911743
44.56381415
44.58623417
55.24840019
57.09448217
56.99353106
56.93670457
56.32831122
56.70627822
56.45274777
56.90895303
56.76591027
56.33667316
43.61106408
46.58879464
46.26828513
46.98623372
46.69137534
43.76249114
43.2140612
37.18205761
37.56093082
33.81038233
34.1124124
41.46159869
45.66347566
41.24834907
42.0067393
37.71015578
38.13400247
44.27438758
57.13656454
45.21415964
49.98135068
72.57068583
40.27472628
36.89039205
34.87634469
40.31156616
33.49483282
33.73909331
32.96098482
38.6766836
59.10223222
38.05855696
40.57854568
39.68311186
38.84474708
38.40408386
32.68351947
41.28806849
40.41741185
47.7374115
31.90324244
97.74982687
43.79607683
41.18960837
45.02464596
33.43163198
32.16121647
59.88305908
59.28532725
58.59247644
55.85913348
55.57873223
39.71134299
40.07993955
67.06869189
56.28501948
56.16239881
51.00146629
63.46971941
50.84640021
63.93803203
52.14685515
48.72155466
42.51037118
43.17989973
54.82644467
62.50137963
56.37387751
44.86733164
39.20002295
59.16419373
72.64512997
45.20074538
55.75293997
79.59327886
40.41095096
43.39324792
39.35013682
39.99152115
71.66329877
73.63910265
58.70196807
54.42935321
63.11621438
59.60967312
53.6036871
50.06411633
56.5950192
56.81268161
56.20336826
58.09953207
59.3720196
59.17195816
57.4585564
46.03323886
44.88206408
54.67476805
50.51370706
49.87986833
46.00779252
49.92254797
49.579389
54.38717721
49.27772726
46.50496048
43.03436265
44.11977937
41.41772366
50.01616357
48.8479789
46.39537259
46.46544221
44.97196396
48.38544982
47.04092049
45.03279258
46.23788475
40.02666944
39.72028777
40.11492643
39.59835363
33.96454342
35.59751363
40.68966195
40.26029083
61.94922468
61.28323648
60.86253681
54.39684207
55.07337477
53.21279514
54.1324443
61.20393027
57.39633534
55.49689902
55.3392251
55.23941868
55.49176443
57.72399637
57.97220191
51.76097866
52.89889115
61.58414239
62.09697732
63.47394851
62.66329399
58.71671705
64.50198108
65.77554886
65.20873786
65.03556219
64.22614839
66.20756781
64.81308964
55.90198141
62.47913576
63.61240352
44.73322982
50.95421832
49.949899
51.89910789
51.22583667
45.40911354
48.56284591
47.87724537
49.60099869
48.79911224
51.66374935
54.4739252
53.86111481
55.19856231
54.66837694
52.1938331
47.94897012
52.78895662
52.1263716
53.6501336
53.00679235
48.3716593
51.26741058
50.61927481
55.21696733
56.07212563
52.82248121
51.59081623
41.58257255
41.03188466
42.53727997
41.77556505
40.15266056
39.61316597
40.85705266
40.31430615
46.78779263
46.14792245
47.65652054
47.00721923
44.87529118
43.03958814
45.91567822
45.27584103
43.26189592
43.1510791
44.5648553
43.50828037
54.27982387
43.94826596
45.24414965
43.15480781
43.55010611
36.6790535
37.03179611
43.0611869
34.44457173
34.19939597
34.80539581
34.54562632
34.04319694
41.68963113
34.29681432
36.24263356
39.07302753
40.96100191
45.51160867
38.63736132
35.93062076
39.50425667
38.67099815
35.24028419
34.92093026
35.73747465
35.36158923
44.42486739
38.28531317
38.79576453
62.46155563
40.94548235
61.11145717
53.80631972
60.64659091
40.91291466
75.6479616
39.83400275
72.22359509
63.1648439
36.7537725
35.56135294
33.19285796
33.42812435
40.15704956
38.95248543
32.95795062
33.14280095
67.99763907
32.60706803
38.19582974
37.45055389
83.56856519
89.02452239
31.84806429
92.93839641
75.98749504
42.64844824
33.36033996
82.67542834
54.0326745
91.80835781
57.86199699
32.3023325
42.91079651
40.74251187
39.31501249
65.76719546
65.21362149
54.66270947
48.63079033
48.24205001
66.07354701
39.36094315
43.38020174
40.39518044
57.68918522
57.78829357
55.37080428
46.83316665
45.96153912
50.25802391
57.1588089
46.57544995
46.82345242
41.70678325
42.08549572
44.75612274
52.04409402
56.4318763
59.54994524
49.29682995
48.29902381
48.21443488
48.31749768
48.31394071
49.4432445
41.59846085
40.34107895
43.60132557
50.77806093
52.72948436
57.59148951
41.23622489
40.8247088
35.72380375
60.45773488
62.27979388
55.46397768
48.1747745
48.02483699
48.06751222
47.86352326
44.44208067
45.15482599
45.50370263
46.57637996
48.7455414
37.21860776
41.80370015
41.37168468
54.84989614
51.32144654
41.80447109
32.50266554
32.55116192
33.90029808
47.99162012
69.2461101
61.1313576
39.3406705
44.24335479
42.07797996
31.96247186
33.55552211
32.42749001
32.46839362
32.05373752
68.19694062
55.54471184
45.53597594
48.14790318
65.49761014
40.21130189
39.98041572
48.10604237
57.74228294
48.23470931
46.5036576
48.91688849
43.74875327
41.57234905
40.37117397
76.1774969
79.35282646
81.14081315
68.76193722
78.06022576
43.54431292
43.93016777
47.44525657
69.47094211
63.67226772
60.67322474
72.87441671
69.57076623
41.6417061
47.45486718
45.76272099
57.86231727
57.00253419
46.79436871
51.39912625
50.40522629
41.30450136
54.24544151
42.85178028
43.46228787
52.34900557
41.83821772
43.20551155
63.24092288
64.08772568
59.88893096
60.04854504
58.68232477
58.51535125
55.19655522
56.42269464
55.97713088
58.3202499
58.06784562
58.70613985
50.00739707
51.38406338
57.37938993
58.97839093
65.5248183
61.29066852
65.5006021
65.88746688
62.68380368
42.81929575
45.3719668
44.77843224
49.57970884
49.30767539
46.06467586
42.35821278
42.07951687
44.27557775
43.8726991
50.66784013
53.23135687
52.8496861
55.56435698
55.16946168
53.30455613
47.12371055
50.28271661
49.96161656
52.46585345
52.09122396
49.24382752
43.66848331
44.24358662
47.73777721
46.80189424
42.91185632
43.4808921
47.63408855
48.20295053
49.60137797
40.49031243
40.32006725
41.83989263
41.62112336
37.78824956
40.07277445
39.93274679
48.85646925
46.8410761
47.43711666
53.43061836
52.84572548
44.14566693
44.84585079
54.04922802
52.5907713
52.89453022
55.32636454
44.6730246
45.78302526
42.34326165
41.94205949
37.5863728
38.87449847
42.82553915
42.46331285
34.0937309
34.16001646
36.49709136
36.08980741
33.90119834
33.98985706
68.13168174
32.26613045
33.77274161
32.84526423
109.6468511
32.15039379
42.12492306
71.03276122
63.96684686
32.10723385
32.14600149
33.21184636
81.15209834
87.30964067
84.54899678
67.61941534
32.93176365
32.02321359
32.06112936
45.93795678
39.424833
39.35814474
65.39541267
64.3652889
50.41622523
48.18782065
41.09030443
58.83815879
61.37114043
63.57218551
44.66370018
63.53955447
55.98067615
63.94832144
62.30459781
46.84093255
45.48941115
46.39324909
52.10573419
54.48005299
54.92644763
53.77829294
54.09687935
60.81717497
60.28684371
60.65873793
59.4605002
59.83395132
60.21436507
49.84384806
46.97005698
47.28938603
46.48509989
46.6895237
50.01324937
62.65388921
61.67276241
61.73840645
61.07405578
61.40038001
62.19367788
50.18680534
48.31153118
48.67913533
47.61998152
47.95909498
50.1351153
53.11467111
53.13399479
52.32195989
52.43866007
37.28656181
39.86509918
39.72209443
33.90154554
36.2542591
36.12538051
36.64802048
36.40620998
33.99029227
69.31970024
70.7102306
62.23399218
70.62429628
32.95591449
32.89675466
33.10674644
33.04030462
32.47997595
34.2450459
32.61606251
32.76352473
33.58459826
35.80473866
35.68945359
36.01795315
35.90772383
33.65523182
33.25600205
33.16868922
34.381051
33.42457805
32.95162997
71.13251036
68.18545026
52.24891478
70.93701651
35.34795937
34.20275682
38.73992841
32.74504367
34.78125596
34.64516677
31.92439658
96.88108776
97.88023973
63.75549249
90.58573567
81.6369232
32.31799603
32.38273234
33.50015031
32.10190572
64.62882658
71.405453
65.08518982
68.01522404
62.89345494
53.27037877
69.66872289
63.9085827
56.57151945
55.87089201
67.21853626
51.17819822
57.43916262
57.30846224
54.06045622
60.17860298
53.74622402
57.33272249
65.20161042
66.73847876
58.41393248
63.86926847
68.17962829
62.103957
63.8952361
60.92925094
65.8482262
75.90620758
75.54638244
73.89123681
47.83577158
66.54391066
59.89281406
74.1445613
76.11441166
51.8347457
56.78476616
62.1508256
78.1806194
65.38794501
49.11922749
52.15974665
68.40598691
64.18498196
68.95084164
61.766855
65.1304062
68.28512336
70.14904847
69.36621151
56.21415966
56.84058455
57.186576
55.76300089
55.99202354
55.79865108
58.52452206
58.62059147
58.98677404
57.76081892
58.10674391
58.02424535
45.63265964
46.98347513
46.98145157
50.21198001
50.1003915
47.64713923
51.14523833
50.99471234
50.08665598
49.7960311
50.46440555
47.88883507
46.54362249
46.41100289
46.91487671
46.74304682
47.00012898
57.5019831
51.71818307
42.13961103
59.56062891
59.40726391
58.95997031
45.25825579
57.43888481
56.66805134
42.23182202
42.45413812
49.58229376
62.65200679
60.52458437
57.33260018
56.89128369
55.83857134
58.33820785
57.85393249
57.55229842
66.81432602
66.5314371
60.52811345
67.37630405
69.6008713
62.56526404
66.53277777
66.77106538
63.24395397
61.74144191
61.7031585
61.69242925
61.72660047
62.95408836
64.93267771
65.27864314
64.94289353
68.69244016
68.49891241
68.751479
68.7795484
64.7826822
66.52101299
67.92408103
69.74236931
66.66332909
48.00205977
47.81897748
44.70499696
45.58599751
48.87454735
48.68363212
42.92265975
42.62798564
43.5358194
43.21795115
53.99979362
53.61208971
51.14523072
52.74358712
54.78004033
54.38954879
50.99636447
50.6543916
47.57035587
48.78253646
51.71596614
51.35872667
51.15995353
49.82750817
50.22851289
49.0458534
49.43478613
50.75188158
52.22027387
51.36225628
51.71922697
50.63507431
51.01726698
52.00448632
41.39294472
38.08719061
38.26365636
37.76884488
37.9309035
41.21330644
42.22058242
38.84825608
39.10936461
38.43883138
38.6350061
41.98424247
39.95993225
36.84104078
37.00736023
36.56389979
36.72779138
39.81836296
40.67468003
37.45468461
37.61755447
37.13842529
37.30908433
40.50305081
40.92608187
40.7315245
46.57603466
44.22079442
44.43519729
43.78056803
43.9759792
46.35314098
41.37703211
41.16485334
39.15974246
39.08461515
44.56968077
42.26998092
42.34599467
39.49476768
40.0204016
43.76917394
45.72349678
43.35652794
43.51786764
42.92648024
43.04112701
45.45866799
39.66142613
39.55917385
52.65583745
52.3944691
53.86309089
46.01218066
48.74238912
44.30034756
51.80711032
52.33039859
51.24752819
51.57181081
44.78957618
43.16872609
48.22521854
45.87123752
51.45043505
51.71361281
43.31161298
36.74779036
39.22213298
39.0831609
39.55392772
39.4223494
36.94757902
34.38140967
34.25783155
34.72172149
34.61092039
33.95608183
33.58726444
34.61218997
37.77269834
37.07907419
38.75650151
38.45221734
36.17382095
36.70875456
34.92566316
35.81945279
36.23689212
39.25276545
36.28966518
36.47411394
35.95830878
36.21240707
39.17106559
35.13661411
35.01695942
35.60193576
35.47303582
59.77021868
44.84201061
46.31595981
42.11732641
43.42746292
60.81247898
59.29321113
58.40587987
48.18635509
52.89347353
61.3712181
70.97543067
52.36907174
55.96229078
45.53165532
48.98812093
72.75387487
32.71731216
32.66072929
32.8310089
32.78622562
33.40175148
33.72112584
35.81962314
32.44198353
32.41720056
32.58704937
32.52891848
33.27983286
35.37022588
35.23759934
35.5866905
35.46484456
33.33875979
33.02711989
34.92406125
34.6524529
35.15807248
34.99577128
33.06672308
66.62481946
34.50900525
34.25886794
32.44629011
81.67180294
103.4478054
106.5269431
103.6240141
103.5809289
85.69744711
31.96538132
85.36367121
66.90873574
70.63018966
33.28093635
32.18873725
32.25408669
82.28733937
89.34995273
87.93203321
75.23940459
80.93208899
93.37310845
90.25367824
62.51383503
86.11117177
77.10166108
32.15768791
31.9930052
32.66171241
36.71777173
36.75872594
36.84282203
36.77567202
36.84325971
36.88539966
36.86921663
36.95297276
36.94642039
36.97759161
37.04117921
37.00737143
37.05556683
37.0833597
37.03441859
37.08682069
37.08413858
37.03568291
37.07882981
37.04567967
37.01366756
37.02948311
36.96416558
36.95754133
36.93995849
36.85816535
36.89726372
36.8351442
36.77401039
36.85309794
36.61127367
36.69806256
36.73684085
36.73603419
36.85578896
36.84019542
36.89680941
37.01871818
36.96231173
37.0562383
37.15184346
37.06010422
37.17582036
37.2225554
37.10807926
37.22960402
37.22518385
37.10860207
37.21463383
37.15626358
37.06471875
37.13001446
37.03066224
36.97398779
36.99293284
36.87416054
36.85682381
36.83468331
36.72022791
36.7542349
36.56030862
36.71153928
36.6966485
36.76541844
36.93843805
36.86939619
36.99849957
37.18037379
37.0486852
37.23895878
37.3976897
37.19683029
37.44152312
37.53275061
37.27801922
37.54704345
37.54398408
37.27832179
37.52163804
37.41007419
37.2049941
37.36613872
37.20237786
37.06150501
37.14126568
36.95791312
36.88790189
36.89933683
36.73701128
36.71964753
36.56767988
36.77437134
36.72183838
36.85019
37.09976218
36.9714946
37.19085696
37.48504086
37.24104818
37.58796375
37.90498835
37.48919462
38.00105099
38.22914892
37.64872261
38.25755214
38.2475533
37.64749453
38.16886878
37.9335909
37.51704054
37.84444192
37.54489209
37.26845072
37.44201206
37.14679209
36.99423424
37.0556889
36.81211926
36.74964206
36.61624251
36.89590511
36.79962222
37.0002347
37.35953849
37.15554141
37.49856924
37.99653302
37.58934789
38.19740736
38.95332858
38.08568207
39.24388334
40.15023575
38.49176775
40.17365497
39.94702283
38.45862692
39.57081466
38.95386026
38.13567969
38.73854333
38.13840497
37.66873063
37.95639866
37.46619613
37.21411941
37.32282546
36.95375372
36.84043626
36.7004335
37.06615718
36.93447737
37.20606246
37.70977929
37.44033051
37.91742053
38.74677736
38.16538143
39.13243701
41.38626271
39.33678504
40.55578921
41.11626017
40.04897886
41.78869859
41.80486607
40.51824836
41.20184046
40.49553284
39.99915839
40.2270137
39.03310736
38.33664331
38.7145333
37.92396951
37.56894687
37.70527053
37.16403901
37.00036573
36.81620051
37.27564266
37.117103
37.45368735
38.11010421
37.81036762
38.38860208
39.55623139
38.95808062
39.65233759
40.26569279
39.9510276
42.89176756
43.59895907
43.06319429
45.35067737
43.87919858
42.47405398
42.19342478
40.1586409
39.30599496
39.65795205
38.48325337
38.05626786
38.17259933
37.42706851
37.22652032
36.95241329
37.49793639
37.33078944
37.70934735
38.49112776
38.20787481
38.82411693
40.21817801
39.73675895
40.53832598
41.33627622
41.10428715
45.18194091
46.4079403
46.18633936
49.97905284
47.14446485
45.95394224
44.09517371
41.30694885
40.46449504
40.6289949
39.0676446
38.63487409
38.6638427
37.70922662
37.49792879
37.09823623
37.71807309
37.55335051
37.95674787
38.83456514
38.58028456
39.20662205
40.75195326
40.36022772
41.20564265
42.10057753
41.92643124
46.29474467
47.77574393
47.70403105
52.6637707
49.46583512
48.7283553
45.56160747
42.28337066
41.59066423
41.47127105
39.58793039
39.21372764
39.1054863
37.97191802
37.7765527
37.24837122
37.93015054
37.77079362
38.19103093
39.14690087
38.91425909
39.55139449
41.22993991
40.87294191
41.76975442
42.74332804
42.57913436
46.6592185
47.31946373
47.48007653
53.89002818
50.77914463
50.41379501