/*--------------------------------*- C++ -*----------------------------------*\
| =========                 |                                                 |
| \\      /  F ield         | OpenFOAM: The Open Source CFD Toolbox           |
|  \\    /   O peration     | Version:  v1912                                 |
|   \\  /    A nd           | Website:  www.openfoam.com                      |
|    \\/     M anipulation  |                                                 |
\*---------------------------------------------------------------------------*/
FoamFile
{
    version     2.0;
    format      ascii;
    class       volScalarField;
    location    "2.89";
    object      p;
}
// * * * * * * * * * * * * * * * * * * * * * * * * * * * * * * * * * * * * * //

dimensions      [0 2 -2 0 0 0 0];


internalField   nonuniform List<scalar> 
12556
(
934.6638768
933.2163602
929.7817766
922.8733494
913.3226964
893.2900966
861.0810316
810.5329062
736.0040827
631.1422314
492.426204
322.125515
130.351212
-64.96587624
-245.3827606
-398.5349497
-520.2296056
-611.9044317
-678.0209632
-723.4746129
-760.8359714
-777.4577071
-786.9521081
-791.2842978
935.5703149
934.5698498
932.026459
926.7179989
917.1845688
899.9369646
871.1682013
829.9731796
762.2913675
663.8982269
528.9520031
356.8397812
158.665111
-46.23250395
-237.3464158
-397.9581697
-523.2514654
-616.2017353
-689.0928607
-731.2987726
-767.7048862
-782.0557702
-790.3151479
-794.0727351
937.7125074
937.6963245
937.2334393
935.4215913
928.4754405
917.5804813
897.1906938
861.0755374
803.0603691
711.6380863
573.9429789
386.6505226
162.1248106
-69.60208943
-276.6336151
-442.8194761
-565.6013186
-650.8939356
-719.3126747
-753.3203149
-783.4381814
-792.9909652
-798.4922202
-800.8957596
940.3097336
941.6865703
944.2004975
947.0951036
945.256915
943.3574539
936.0788352
912.1893141
872.6164219
794.9578284
659.5003114
449.4431666
171.0112569
-121.9839066
-363.5044194
-531.6128515
-642.4944666
-713.2419073
-765.6421023
-786.3393851
-805.6593392
-808.9205155
-810.2898248
-810.7090932
941.9088153
944.8806812
950.8591551
959.2978017
963.8183945
973.7688078
983.3899156
980.3656002
968.264879
921.5868275
810.4775126
581.1173122
198.312406
-224.9836701
-524.7901482
-686.3472339
-762.2171899
-799.299211
-825.285582
-827.7209687
-831.3250448
-826.7997548
-823.183391
-821.2604806
940.931815
945.493373
954.916524
969.3571914
980.526447
1003.883044
1033.087036
1055.539365
1083.802481
1097.295927
1063.57759
864.9169
261.1057201
-468.5948334
-828.8472534
-924.5158163
-924.3461328
-905.9005951
-893.3409522
-872.4079298
-856.8567769
-843.6732744
-834.6117019
-830.2213128
935.8627492
941.8160453
954.1451493
973.7567583
992.7384458
1027.773684
1075.595311
1124.171391
1196.61826
1290.803441
1424.455586
1528.725638
477.7154736
-1202.501643
-1365.980889
-1249.165567
-1117.423039
-1021.043753
-960.6536384
-914.1322678
-878.5472531
-856.2419391
-842.0392535
-835.3502294
925.3979681
932.3427
946.7106189
969.894342
995.5492335
1039.27676
1100.359145
1170.324791
1276.31094
1433.328544
1715.143283
2303.841465
-3068.786077
-2111.617118
-1603.522738
-1302.282337
-1124.382679
-1014.322136
-945.3959795
-890.5133119
-861.118585
-843.002591
-834.4057042
908.5619188
915.9631583
931.2412105
955.993921
986.5227537
1034.298909
1101.082222
1182.569578
1300.298761
1463.778261
1712.649136
2041.344501
-4450.85453
-2613.846338
-1838.584084
-1422.099666
-1188.535194
-1042.140225
-958.1729303
-889.2603371
-855.7021876
-835.3271749
-825.6024704
884.8487646
892.123385
907.080563
931.2333139
964.3613637
1011.250506
1076.054514
1157.366795
1265.892768
1403.809494
1575.343181
1740.584135
-4021.082181
-2561.809247
-1842.275889
-1427.412177
-1193.05777
-1035.724254
-948.2791464
-872.6279058
-838.4788084
-817.7793333
-807.8637131
854.288629
860.9029512
874.402718
895.9126334
929.5506624
971.3070599
1028.222052
1101.977825
1192.797452
1299.641425
1419.639557
1530.519509
-2970.263394
-2131.50059
-1646.414759
-1333.887974
-1138.922914
-994.5930003
-915.0871713
-840.5362124
-809.3268397
-790.2281408
-781.018921
817.4014172
822.9229489
834.1587903
851.1022739
884.3083451
917.3834341
962.1903436
1024.079018
1094.305385
1172.883862
1259.459036
1362.050849
-1910.35977
-1572.524436
-1346.856602
-1169.197843
-1039.185155
-925.0044942
-861.9574184
-794.8395353
-769.5811666
-753.5777628
-745.7953168
775.1395306
779.2882593
787.8708786
800.0215922
828.8272035
852.7678818
882.9775413
931.26922
979.6087728
1029.995821
1081.213546
1167.853063
-712.2420223
-960.9439204
-1048.952307
-1035.877062
-979.8514944
-915.4989778
-837.5474228
-794.3248184
-739.7914254
-721.6774094
-709.5400797
-703.6378068
728.6651553
731.3456907
737.0858003
744.7788638
767.9600894
782.4556071
798.1741945
830.8762228
857.3328247
877.906505
883.4846978
902.2928862
301.5563809
-377.8173833
-655.837572
-772.2386091
-799.9550009
-785.4787629
-743.3595095
-719.0644664
-679.6545834
-668.2962507
-660.258256
-656.4146485
679.2785557
680.4240743
682.9867657
686.0161486
703.8933231
708.3653172
710.758185
725.9712359
731.1609238
724.1763177
685.5253462
573.3216425
271.4184083
-137.2247266
-418.1994369
-576.5145028
-646.1965233
-663.7657503
-649.7302197
-642.540026
-617.0805163
-611.9579442
-607.9572728
-606.1000873
628.2778877
628.0227778
627.5851151
626.3010621
639.1975531
635.2288004
626.8002121
625.1608633
610.0863748
581.6542916
521.2500127
413.1435223
202.334262
-70.15075497
-294.4322338
-443.0340175
-522.6087336
-556.8920585
-562.9373406
-568.6604797
-554.8771546
-555.0991421
-554.6773933
-554.5427372
576.9191139
575.5110024
572.5968759
567.7767767
576.0106132
565.394399
548.6052728
534.1942315
500.8006782
455.444435
387.2071198
285.6492403
124.5536166
-62.37952046
-230.1270272
-351.4213396
-424.473209
-466.7718418
-485.2415266
-499.8230988
-495.2832724
-499.7095511
-502.1368487
-503.32581
526.3088243
524.0081036
519.177361
511.6740627
515.9975536
500.6152727
478.2789928
457.2034731
412.4034319
355.7799312
282.351031
194.8114356
67.69021127
-67.3286421
-188.7067897
-281.1050838
-345.6604811
-391.1824173
-417.2472191
-437.2507439
-439.6326716
-447.0372405
-451.576391
-453.7198867
477.3083134
474.3606972
468.141024
458.7593037
460.1225783
441.7392291
416.2498974
392.1113346
346.3625145
288.0501558
215.0886451
137.4575329
37.13996555
-62.87547636
-151.6998156
-225.999215
-284.8846897
-329.6630686
-358.8449121
-381.5505677
-388.544066
-397.8400772
-403.7857546
-406.6185707
430.5456461
427.1828888
420.0714688
409.5314561
408.8283953
388.8953977
362.0233658
337.2062195
293.2337658
239.900667
176.7455895
110.5751821
29.59616281
-49.21511413
-121.7960671
-184.9864437
-237.4094666
-279.3810837
-309.0504674
-332.5016237
-342.2580419
-352.5616394
-359.3181137
-362.5378553
386.4440782
382.8697906
375.3077309
364.2236981
362.1655416
341.8039897
314.9735117
290.7700582
249.8477121
202.2177991
148.1925978
90.96443021
25.21088036
-39.44312484
-99.78279168
-153.5994428
-199.6871798
-237.9315317
-266.6266934
-289.5369552
-300.6878186
-311.3218423
-318.4090664
-321.7914143
345.248868
341.6257258
333.9675216
322.8342302
319.9490184
299.9788189
274.2315654
251.2606352
213.9714538
171.8031163
125.1536056
76.21339255
21.47808453
-32.32703611
-82.98512656
-128.9380481
-169.1899665
-203.4398993
-230.3349665
-251.9698733
-263.553192
-274.02452
-281.0880182
-284.4646332
307.0509809
303.5008783
296.0079451
285.1895524
281.8965105
262.8576078
238.8002743
217.4503283
183.9315785
146.7764952
106.4382324
64.44007026
18.35108905
-26.91116663
-69.76634495
-109.1058649
-144.1353309
-174.5159047
-199.1032776
-219.1006486
-230.4642445
-240.4431467
-247.2409138
-250.4950983
271.8210128
268.4319087
261.2880339
251.0346036
247.6486565
229.8840727
207.7814747
188.3065973
158.4728156
125.8518461
90.96225873
54.81088306
15.71792052
-22.63719279
-59.08692874
-92.82881263
-123.2388168
-149.9946051
-172.1139268
-190.2816359
-201.0021608
-210.2860865
-216.6620519
-219.7172293
239.4457895
236.2783886
229.6078533
220.0812751
216.8314878
200.5337574
180.5066061
162.9958893
136.6466923
108.108572
77.95034084
46.78808503
13.48086517
-19.16625871
-50.2679808
-79.23241118
-105.5709585
-128.997195
-148.6495897
-164.9366136
-174.7573676
-183.2342023
-189.0944582
-191.9038241
209.7564543
206.8494634
200.7304483
192.0267045
189.0703455
174.3268951
156.3923127
140.8453545
117.7322889
92.86946401
66.84590074
39.99564841
11.56172029
-16.28120364
-42.84901532
-67.6982475
-90.44567583
-110.8454962
-128.1216122
-142.5599287
-151.3414621
-158.961552
-164.2572809
-166.7961136
182.5449504
179.9201073
174.3957967
166.562939
164.0112147
150.8402867
134.9532655
121.3137623
101.1781658
79.62927333
57.24092829
34.16127488
9.898185969
-13.83716321
-36.50845006
-57.77985406
-77.35013833
-95.01265851
-110.0472077
-122.7161729
-130.3915549
-137.1468742
-141.8608832
-144.120122
157.5781993
155.2450836
150.3336629
143.386808
141.3160481
129.6929184
115.773287
103.9561251
86.55095903
67.99890603
48.82977158
29.08128501
8.439702709
-11.73340442
-31.01311838
-49.14419042
-65.88988481
-81.07915147
-94.02243293
-105.0243259
-111.5736463
-117.4820894
-121.6178692
-123.598715
134.611412
132.571603
128.2746806
122.2073299
120.6723816
110.5480858
98.50135612
88.40394041
73.50581295
57.67694853
41.37973742
24.60013307
7.144870739
-9.897813369
-26.18970223
-41.53783903
-55.75668857
-68.70739568
-79.71045279
-89.15462931
-94.58410207
-99.67844125
-103.2518353
-104.9615824
113.3968347
111.6467485
107.955521
102.7483289
101.7887175
93.10313825
82.86533104
74.34258025
61.76094041
48.41764602
34.70214524
20.59452122
5.979000405
-8.276281647
-21.90434642
-34.76153412
-46.70196184
-57.61283489
-66.82745679
-74.81808351
-79.1476782
-83.46747403
-86.5009308
-87.95024911
93.681285
92.21551657
89.11618581
84.73984587
84.40213296
77.08094285
68.59212677
61.52662947
51.08701753
40.02177119
28.64168875
16.96308396
4.913505005
-6.826195521
-18.05094304
-28.65614099
-38.525429
-47.55419567
-55.12411304
-61.75951739
-65.00876439
-68.5971734
-71.11540911
-72.3156065
75.24238218
74.05227017
71.52900617
67.95522472
68.24746613
62.23029879
55.36540343
49.75407207
41.29295015
32.32108611
23.06966818
13.6229867
3.92661322
-5.512517161
-14.54362291
-23.09225573
-31.06640654
-38.37566327
-44.35925194
-49.74716505
-51.95258213
-54.84886524
-56.87673624
-57.84072292
57.75635554
56.84363164
54.88941627
52.07755471
53.1505317
48.32335091
42.91805823
38.8078276
32.19770105
25.17231452
17.8790178
10.51140261
3.003284895
-4.306161898
-11.31106692
-17.95909464
-24.17996369
-29.91478327
-34.35512642
-38.57323623
-39.70686841
-41.96113905
-43.51637406
-44.24821193
41.30582487
40.64224842
39.23967532
37.23190752
38.61630933
35.1453305
31.16802375
28.47895899
23.62547686
18.43375532
12.98702433
7.586360757
2.132852536
-3.184016126
-8.293533286
-13.15988581
-17.73186054
-21.967943
-24.9654812
-28.02595304
-28.33041961
-29.92564476
-31.02912664
-31.55526231
24.53227693
24.20719067
23.37484263
22.16644049
24.76787316
22.51389962
19.89243489
18.58635798
15.40604713
11.97286947
8.326496078
4.815578426
1.305876363
-2.126605271
-5.438434276
-8.60825999
-11.60365047
-14.40538222
-16.0119228
-18.02069647
-16.89211082
-17.84964143
-18.49886663
-18.75134152
12.13445833
11.84005977
11.4134329
10.75617355
11.25414748
10.10068526
8.844798732
8.965265927
7.364020293
5.655502519
3.821059196
2.17237725
0.5151028238
-1.114683474
-2.697797187
-4.226505959
-5.686530133
-7.078488572
-7.259643808
-8.179114736
-8.257990371
-8.728492688
-9.03892466
-9.269728749
2091.10027
-4789.540112
-3272.667576
1771.334578
-4389.067045
-4828.173989
1553.194219
-3234.712956
-4265.163699
1383.467358
-2082.733998
-3084.08836
1182.817411
-762.9772826
-807.2536981
-1073.22162
-1947.352295
931.3337946
388.1181578
-714.8965108
249.8860487
-385.8687095
-961.2991841
2253.325344
728.2878239
-2896.834153
-1005.008225
-6533.159743
-4357.596364
-4403.959515
-2818.557207
-2290.516401
1613.213447
1753.569656
2000.188589
-6279.072365
-6741.355709
-4126.588933
-2890.814304
-2904.837624
1458.786671
1542.354314
1724.122092
1654.337856
1688.506598
1800.722253
-4519.237008
-5414.131323
-3107.492298
-2438.632145
-2812.359949
1300.550312
1369.789074
1519.528805
1466.40337
1504.371848
1573.754779
-2930.553755
-3598.917609
1127.900697
1178.738921
1348.146282
1284.947619
1344.621867
1423.861615
-1579.78121
-1554.954475
-2136.53521
933.5859351
933.4102145
1151.113832
1063.356577
1107.332869
1232.327696
642.4879533
386.8697268
401.741384
2614.070082
2187.007576
3067.632218
2695.732699
-6763.087217
-6581.774015
-4428.545265
-6281.609131
-6588.422414
1816.217825
1931.086762
1872.825549
1935.872384
1819.697299
2146.618945
1955.152888
-5469.0668
-6238.644009
-4630.075562
-6104.48097
-5377.438606
-6570.304723
-6143.451213
-4672.089631
1584.893282
1673.630528
1627.452538
1681.484082
1586.323428
1811.558053
1689.686881
-3698.626285
-4456.833138
-3687.59593
-4349.779728
-3626.930416
-5323.581916
-4463.635077
-3837.463211
1429.26868
1500.214702
1445.790394
1503.669632
1433.619236
1580.3697
1507.600344
-2222.159888
-2839.03598
1239.62802
1338.997322
1272.424458
-1532.115866
1344.362717
1244.849502
1428.084479
1350.04651
-1573.911195
-973.2924554
-1475.532802
-1528.436045
1054.792315
1097.74267
1045.947136
12.51750525
1103.302127
966.3279307
1237.577949
1112.102766
-61.84668687
1734.3955
2041.78456
2182.229863
2285.056276
2641.063519
2915.780573
-8519.310488
-5640.498812
1910.615736
1950.795189
2145.173277
-3509.606293
-2037.771557
-1798.323768
-2285.823935
-1995.688409
-1950.612989
-2256.556525
-119.2978987
-446.5628914
-829.3434859
2184.199769
2571.442653
2243.510025
2322.624476
3948.619996
3530.345386
-4121.058809
-6153.425286
-4210.300393
-2306.94194
-2637.767846
-2501.554413
-2795.627095
-2197.205855
-3530.977487
-2884.389415
-2644.687787
-1117.387184
-230.0426141
-400.089211
1105.289035
2126.600146
3011.336465
-3849.929173
-1263.019669
751.8680367
-8605.64144
-5985.079832
-8238.582868
-5345.408726
-8091.415026
-5652.628349
-6494.615556
-6527.950409
-4940.4096
-5001.171836
-3090.387082
-3430.728107
-3210.202677
-3412.827898
-3062.695027
-3855.139381
-3465.793886
-3305.899478
1381.92003
1351.722237
1317.507336
-1579.150277
-1857.77048
-1911.577996
1171.294328
1137.493866
1085.464223
1198.740347
1153.488697
1178.873018
2683.111539
2360.909109
2396.329565
2368.286264
2701.807428
2149.020287
2332.387772
2336.001377
3015.291518
3459.085725
3797.721107
2768.107033
3364.420247
2945.444223
3415.825763
2762.69536
-6794.330881
-6789.654633
1880.038026
1949.783964
1871.84314
2048.582863
2030.22972
2133.991078
1955.953924
2019.052587
2021.993443
-5827.26954
-5875.691669
-5774.560145
-5167.978294
-5357.02203
-4864.141854
-5097.053685
-5727.104195
-6392.486868
-5576.128052
-5625.468932
-5410.922872
-5543.893739
-6360.902387
1633.562018
1626.708208
1754.934298
1746.000021
-4011.168666
-3898.85319
-4065.964469
1471.844547
1466.901586
1542.974253
1538.207869
-3009.172751
-2665.572827
-2570.092855
-2684.350596
-3030.123304
1284.281983
1254.088682
1212.926803
1305.474373
1267.451264
1292.121764
-1167.924794
1296.302955
1287.976882
1390.730919
1386.098165
-1918.020717
-1171.591544
-1215.189671
-1487.501055
1066.40482
1007.845858
957.5154681
979.1284922
526.1923998
240.4604577
1184.771313
-217.2995565
199.3353648
-131.48398
1177.853787
-309.6796355
-166.9987988
166.603382
-7235.984622
-2154.288423
-2315.394608
732.1215537
677.8633104
898.414108
786.6800451
811.3066615
1005.865068
283.3648078
-76.97245576
-270.170701
4795.044545
-2348.167994
-2526.386396
-868.4785408
-1125.891844
-1122.439674
-91.60555149
-340.3768802
-48.08407608
1663.709796
2807.156727
3879.66558
-4971.126505
-1636.137674
708.8614682
-6381.771915
-7288.843806
-7145.977748
-6658.826699
-4697.221401
-4891.457545
-4683.803077
-5685.527093
-5502.971854
-5242.765863
1535.736086
1515.04877
1485.20903
1557.641101
1525.357761
1540.823494
1394.858652
1362.664405
1386.807445
1135.72732
1121.802996
1092.977435
914.6373327
707.328883
442.1815922
-6788.22146
-7335.620772
-7343.850459
-6594.649106
-5494.615469
-5232.590573
-5623.239932
-5546.906293
-6594.166519
-5628.57337
-5915.875039
-5748.431394
-6095.57632
1619.991643
1604.306539
1568.886571
1593.014726
1608.467585
1602.720519
-4618.914449
-4423.994924
-4285.236707
-4026.920676
-3778.290818
-4052.851877
-4928.341653
-4515.876934
-4780.334325
-4145.688534
-4424.415899
-4870.146247
1463.284713
1436.009206
1405.361619
1475.46465
1446.029904
1468.176689
1491.315415
1505.195767
1514.045256
1446.394194
1467.0887
1449.291335
1564.115016
1569.633388
1587.390674
1516.622847
1526.392065
1519.851205
-2482.340341
-2618.725693
-2302.190776
-1361.402359
-1374.652995
1326.318154
1256.465534
1411.058809
1419.278301
1441.39131
1384.791876
1365.750386
-1711.192376
812.7542298
990.6024317
950.5940491
1082.647912
1047.611539
1058.844792
207.8268864
436.5126298
203.2864592
1066.542528
480.7504453
749.0494424
563.6595288
601.9565497
1210.670749
1140.799419
-7830.050289
-6975.116874
-7462.642874
-3657.45367
-3725.15814
-1962.881097
-2105.682612
-2111.7706
2240.514857
2215.106793
3919.415102
4439.010566
4545.134913
4279.727007
3847.041766
-2711.713553
-2531.037784
-2492.421705
-2531.049413
-2729.051539
-1121.524157
-943.274005
-963.229161
-945.4221606
-1121.377797
-721.3953625
-896.2960365
-477.0049934
-509.7756816
-672.6622652
-302.0255025
-456.9915586
-376.3420063
-8495.301716
-7370.891041
-6936.394367
-7650.915445
-7468.781098
-6753.900781
-6031.700491
-7279.559477
-6887.42121
-6770.190857
-6408.363578
-6627.808275
-7092.073302
-6937.142835
-5159.294841
-4960.023297
-4758.438274
-5018.686806
-5225.822818
-4746.725999
-4956.010479
-5293.748724
-5183.21297
-5444.804292
-5229.05957
-3233.355322
-3299.128321
-3268.690345
-3187.603112
-3333.353402
-3699.181211
-3589.302465
-3745.857556
-3382.036182
-3537.754945
-3641.849627
-1782.747982
-1765.043469
-1911.123891
1156.279581
1131.124858
1141.863455
1199.056872
1187.284454
1164.634143
2523.85678
2478.777033
2488.049588
2503.241554
2386.939836
2693.018128
2546.748586
2535.017961
2219.325082
2236.932768
2169.092716
2352.547775
2262.844179
2245.890371
2997.106967
2924.155016
2751.116113
3108.02007
3009.41149
-7444.360786
-7349.906074
-6792.91376
-7535.137642
-7679.935043
-7487.693876
-7693.252333
-7710.808388
-7738.304285
-7678.017516
-6738.095404
-7436.664968
-7479.497509
1912.941673
1911.92843
1890.495794
1946.669784
1920.448694
1923.199228
1859.415904
1840.469026
1884.748614
1865.556127
2068.92061
2082.150742
2040.670472
2149.886235
2097.657241
2082.814659
1983.617381
1984.783468
1955.539007
2028.318893
1995.201429
1994.447032
-6121.151633
-5969.636184
-5679.822403
-6038.642741
-6346.197331
-6164.410261
1659.29253
1640.071772
1689.081462
1665.013857
1609.877179
1595.501737
1632.89385
1614.504009
1797.416864
1769.351867
1833.270502
1806.76177
1722.758307
1696.413447
1760.019117
1732.189815
-4007.370254
-4182.06328
-3800.451918
-3956.948517
-4048.24888
-4474.150882
-4674.807163
-4236.756501
-4414.26483
1482.083841
1500.293907
1486.740122
1505.84733
1484.656254
1517.107057
1511.262041
1480.09746
1453.378435
1468.918807
1477.085191
1550.414419
1563.882573
1558.306035
1566.856495
1552.873047
1589.771758
1571.923581
1527.430574
1518.856279
1545.404966
1531.129722
1524.210532
1530.294767
1544.861653
-2731.001121
-2835.417994
-2899.645225
-2719.31928
-2953.056539
-2881.368684
-1130.899303
-1327.243341
-1349.622071
-1132.050064
1320.125283
1265.117394
1400.315704
1413.286673
1405.592397
1371.287817
1390.816203
1397.537918
-1799.103545
1040.699218
1034.580386
995.3910965
657.4933091
574.5283455
1050.361706
316.7916311
462.2858317
366.0628765
1201.237547
-368.1246609
54.6918896
264.9825183
11.97985311
1140.746815
-2759.786113
-2052.984064
-1373.265234
-2298.066931
-2353.60505
-1096.884269
-1175.686978
-1635.275317
-2358.379453
-913.4943094
-895.5266731
-729.9967381
-2113.957538
-1585.607896
-1553.724256
1828.829372
3371.952731
4489.158676
-5938.510874
-2110.237411
714.2488331
-1880.990588
-1556.757272
-3697.010629
-6290.974188
-7121.372411
-7334.043095
1736.02368
1713.253838
1669.872701
1774.583322
1728.349393
1752.344541
-1570.03829
-1715.51385
-1719.716424
-2209.67195
-1934.022762
-1882.657968
1217.224004
1195.34943
1207.562506
-7385.180495
-7435.229495
-6723.026398
1656.043995
1616.751813
1632.608372
1660.226186
1664.475333
1687.624065
1695.23256
1720.61888
1712.859801
1255.452243
1244.393275
1224.64988
-1543.71758
-1496.629271
-1487.047534
1249.63178
1257.482084
1251.194002
-1646.614884
-1656.365816
-1555.059643
-1375.874168
-1373.29734
-1521.110215
1093.041251
1230.257835
1236.879931
1242.923578
1118.216427
-8426.696448
-3546.971704
-1977.963123
-2049.702395
-2054.252883
-2298.131516
-2146.53977
-2115.856068
2289.04461
-5103.468023
-4585.270247
-5539.401127
-2446.163463
-2498.277204
-2342.548406
-717.8070964
-731.9475128
-551.6994474
-558.3214139
-660.3039005
-2467.07315
-1988.160879
-4791.666072
-8401.170203
-7942.025537
-7789.863435
-8232.847328
-8245.328053
-3138.656034
-3171.745238
-3120.873136
-3446.380051
-3445.749911
-3418.472958
-2991.284798
-3135.878388
-3209.961262
-3817.634043
-3762.248491
-3816.814859
-1907.381083
-1885.836174
-1918.122277
2622.119696
2697.517404
2399.281198
2405.90718
2413.785546
2376.36324
2164.786821
2178.206587
2158.605139
2341.287513
2309.006692
2299.824895
3177.168549
2990.67645
3086.199602
3306.629207
3321.577018
3467.742708
2761.507276
2829.559223
2836.191145
1897.380259
1895.255163
1894.983024
1948.39969
1940.285933
1942.087048
1858.516442
1853.873826
1891.19392
1884.128635
2043.780196
2047.294815
2034.42708
2140.360743
2122.470782
2117.14824
1962.578119
1963.814538
1955.866915
2022.824334
2013.024182
2011.032651
1638.541784
1657.995192
1652.78881
1608.93343
1613.65041
1631.844593
1765.796972
1792.918291
1779.387962
1785.606067
1775.697272
1848.113492
1838.970018
1705.799452
1765.889487
1756.177471
1721.657526
1729.643619
1756.728884
-4185.364689
-4256.486443
-3872.389493
-3937.909
-3961.806004
-4323.913667
-4338.222749
-4226.941355
-4364.775358
-4192.988391
1271.991872
1251.587621
1262.199787
1314.386957
1299.201428
1279.34245
1300.202594
1310.038767
1304.87694
1280.125413
1283.520441
1291.287664
-1919.1245
978.3792779
990.1241343
966.2694252
704.7455715
986.4247216
406.4766463
526.7445503
639.3472856
1190.743455
1194.143797
1190.10044
-281.3817166
-123.9932979
-103.6625467
-119.4307521
1168.81398
1175.464625
1184.62444
-23.86431219
-107.7506435
-250.9176023
-2188.501895
-2234.09166
-2339.85482
-2291.34147
-2270.726401
4912.265764
5058.470119
4814.263222
-2407.095535
-2432.306251
-2347.044321
-2543.662137
-2487.100401
-2476.818609
-3246.928866
-2515.0088
-5620.18795
-6642.345323
-6653.734554
-6557.70554
-6604.247712
-7238.636667
-7059.534673
-7101.58442
-6978.127237
-7019.440411
-7193.076921
-5628.744147
-5543.479144
-5601.997041
-5418.044206
-5483.661007
-5569.333177
-7384.132111
-7176.843863
-7164.528963
-7142.454288
-7170.263892
-7382.858555
-5857.157118
-5769.777438
-5824.343664
-5660.441377
-5715.486375
-5804.90754
-6476.276237
-6516.749739
-6362.155679
-6421.288085
1508.690637
1503.961816
1500.029501
1451.816274
1448.277139
1442.486418
1460.101008
1454.72092
1459.210834
-1496.298292
-1550.980744
-1357.384376
-1440.941332
1341.331374
1338.179665
1351.724396
1345.21948
1259.440903
1254.145117
1260.196454
1254.388532
1426.620903
1423.945457
1417.358114
1436.975745
1430.794643
1434.66256
1363.986345
1360.055179
1377.465721
1360.93933
1368.343635
-1716.657552
-1711.368141
-1702.648436
-1555.259399
981.5581258
1011.209445
1105.150548
1073.825108
1067.576766
1053.067677
1081.438031
429.1731647
417.2347571
1074.628121
966.8415977
753.8936688
1212.161176
1226.458665
1221.326033
1129.244872
-8303.000015
-8604.016496
-8157.375013
-7798.607868
-7382.752306
-6514.519148
-8184.419772
-7856.801955
-3595.123483
-3744.738965
-2111.423755
-2101.466659
-2107.35672
2263.371704
2186.433491
4539.924521
4349.770485
4265.753195
3786.027657
3645.995062
4121.298001
3937.90879
4076.410685
-2615.605962
-2543.122604
-2670.67408
-959.6949087
-955.261145
-944.2828668
-1063.013927
-759.1979186
-735.199508
-723.4321737
-884.0284351
-822.9022839
-823.4074357
-485.3339835
-540.7554876
-535.5862267
-358.8728998
-366.507098
-412.843038
-8147.921805
-8055.592672
-8459.154766
-7594.516061
-7929.712571
-7964.662151
-8274.629768
-8256.603048
-6835.990741
-6718.653903
-6757.384503
-6668.95382
-6683.909742
-6789.975191
-7035.967768
-6887.173484
-6933.753217
-6799.389605
-6842.177851
-6985.68458
-5094.114927
-5019.194044
-5083.538857
-5084.377804
-5157.637376
-4795.452917
-4825.274503
-4795.155754
-4893.753537
-5367.866184
-5406.891033
-5361.841682
-5277.950555
-5348.679389
-5150.283284
-5216.255431
-5301.794829
-3272.550074
-3182.568559
-3175.831913
-3196.830322
-3133.199966
-3191.570407
-3368.097239
-3392.538655
-3326.072909
-3658.117554
-3702.241495
-3726.478961
2571.751894
2437.507392
2226.378834
2200.250586
2186.645582
2271.647878
2279.802372
2252.762813
3103.244467
3202.449276
3208.863127
3507.189114
3375.786615
2916.901084
2909.560232
3003.296316
-7405.035178
-7197.750285
-7217.808662
-7169.874771
-7180.322241
-7373.492213
-7582.058514
-7625.891244
-7724.389033
-8017.489363
-7954.993277
-8059.843215
-8071.224745
-7735.876197
-7750.908527
-7918.414765
-7909.629242
-7685.761475
1913.132023
1905.348935
1905.271361
1933.139402
1931.472174
1922.291655
1867.398148
1862.850536
1877.539197
1872.205626
2073.784454
2060.340855
2056.578525
2099.260257
2104.896315
2088.49721
1983.866586
1973.308195
1972.085273
2003.373509
2003.87553
1994.179487
-6075.221369
-5979.958243
-6026.344948
-5876.681717
-5928.817099
-6020.549347
-6288.478523
-6196.794931
-6282.826462
-6072.178395
-6126.859611
-6221.203718
1653.441861
1655.085103
1660.006529
1641.607827
1648.983272
1647.026172
1680.156451
1678.651848
1689.424167
1664.251062
1669.857321
1671.728968
1605.422399
1607.41715
1611.037313
1598.347345
1603.267762
1600.686735
1626.067723
1626.160418
1633.617845
1614.773316
1619.730412
1619.864166
1805.743577
1795.704671
1788.100723
1792.137422
1801.753675
1772.765437
1782.431175
1778.728656
1827.110154
1815.850883
1727.766925
1719.093601
1713.524279
1716.215142
1725.256536
1697.24562
1700.542214
1703.444308
1750.7255
1753.666254
1763.182538
1734.864696
1744.240314
1741.462108
1746.690242
1737.294998
-4096.285503
-4132.096752
-4029.839508
-3997.065081
-4023.784662
-4531.668795
-4563.05993
-4513.156053
-4713.472477
-4628.359589
-4597.369747
-4283.814822
-4316.576339
-4287.53499
-4459.454942
-4406.119822
-4348.8672
1487.566882
1484.199373
1478.777604
1495.340988
1489.893941
1493.985276
1497.89006
1490.323745
1515.600211
1513.830047
1477.007651
1467.630277
1462.572235
1462.927377
1461.962824
1473.508733
1468.860765
1473.518828
1554.385892
1558.799035
1569.6893
1556.554561
1583.703829
1585.828638
1592.335487
1574.430201
1579.906507
1577.806526
1523.995289
1521.100668
1539.23035
1534.893028
-2840.375151
-2824.34182
-2889.309534
-2714.47945
-2765.731437
-2800.407145
-3022.845378
-3068.784426
-2936.168054
-2940.659132
-2952.148406
-1284.357076
-1290.977542
-1345.87455
-1150.035784
-1215.010572
-1221.307883
1315.022516
1303.276879
1333.970642
1326.319693
1269.631581
1275.893107
1272.316189
1278.574006
1272.63893
1293.609486
1285.860414
1403.994354
1401.965085
1397.859594
1411.577084
1406.514248
1408.303205
1393.872876
1387.596733
1383.002311
1394.234523
1390.970468
1395.671042
-1860.487262
1036.079815
1017.239584
1020.223516
619.4757436
630.5258708
683.364859
577.3371006
582.7651689
568.8176141
1032.354929
409.6192728
361.0568592
296.7149259
1194.866886
1196.495309
1201.223637
-347.5218767
141.8510178
86.03490868
249.3367832
240.1707676
250.7335744
69.59217181
-61.63560163
-42.291698
58.17718576
1152.979674
1167.085089
1159.984992
851.173959
808.1813947
782.4845976
789.9882696
723.4711341
692.4222516
696.106306
598.3580094
566.5227219
559.2815356
426.6226279
402.4253265
376.6965765
217.2452406
208.1191826
160.905424
-6.417624233
2.894403331
-61.48502519
-215.3257193
-192.5623268
-263.073942
-390.3873974
-361.0030319
-428.2267409
-524.2827927
-494.6366249
-551.810602
-620.2217149
-594.9776431
897.686272
866.5636701
820.3575465
852.6200488
795.5782726
738.4389143
770.4328448
673.5231202
613.3011765
633.2018506
486.5891978
437.966842
429.2031717
236.6012422
220.6252594
167.763252
-39.35238766
-12.69013344
-105.4722855
-284.3201671
-228.2451205
-336.2383693
-467.7448415
-405.1137819
-504.160266
-594.7000211
-538.6997166
-619.5177162
-679.5494764
-632.4082205
962.139465
949.6197627
885.2108973
941.9999879
904.2857233
819.051053
885.4299265
802.9984593
699.8707091
764.7188752
607.2123517
509.3656747
538.4659686
284.9511002
244.9059245
188.836341
-102.1614539
-51.44172067
-191.804942
-416.3370296
-310.0341015
-474.9125611
-607.1063854
-495.8920629
-639.6817107
-711.3964966
-618.691182
-728.4411407
-766.2834015
-698.9393457
1036.788656
1051.209141
973.8671666
1053.688654
1053.980578
937.7724603
1049.550016
1012.521484
846.8248993
988.6840904
850.4342353
653.0031611
771.4290995
401.8627852
305.3898895
241.3860192
-246.1960974
-126.404473
-383.372183
-672.6911031
-464.7400297
-733.7984474
-840.6448803
-655.4529459
-857.0085585
-878.2614553
-748.4936466
-879.9405661
-878.957787
-792.1085278
1108.555348
1153.843156
1077.71008
1170.099786
1223.940546
1095.553999
1244.101559
1308.960121
1080.305
1329.324592
1343.999039
943.7724918
1304.229923
657.7460251
451.1231889
452.8691936
-728.1834033
-315.0614536
-930.4536756
-1188.950983
-770.3053784
-1206.360111
-1182.238501
-914.93843
-1160.856243
-1090.373938
-928.3239107
-1067.71987
-1008.966885
-910.2957923
1161.724843
1233.322058
1177.046045
1261.178495
1363.839305
1264.213845
1407.209247
1584.315482
1387.38178
1667.476595
2140.035271
1522.880774
1838.114659
1885.459287
1352.704924
552.3902637
-888.9617453
-306.1300783
-1666.164927
-1610.038168
-1307.952592
-1923.775466
-1605.31868
-1284.02651
-1519.66036
-1313.75798
-1147.652171
-1259.905196
-1133.708197
-1041.744183
1182.934568
1267.273972
1246.518712
1299.981287
1418.875129
1386.604924
1467.789839
1654.485137