/*--------------------------------*- C++ -*----------------------------------*\
| =========                 |                                                 |
| \\      /  F ield         | OpenFOAM: The Open Source CFD Toolbox           |
|  \\    /   O peration     | Version:  v1912                                 |
|   \\  /    A nd           | Website:  www.openfoam.com                      |
|    \\/     M anipulation  |                                                 |
\*---------------------------------------------------------------------------*/
FoamFile
{
    version     2.0;
    format      ascii;
    class       surfaceVectorField;
    location    "2.89";
    object      Uf;
}
// * * * * * * * * * * * * * * * * * * * * * * * * * * * * * * * * * * * * * //

dimensions      [0 1 -1 0 0 0 0];


internalField   nonuniform List<vector> 
25162
(
(99.99829077 0.007251274545 -2.228820787e-21)
(99.99320904 0.00655617422 6.605916465e-21)
(99.99739977 0.01745484875 -2.197868231e-21)
(99.9904485 0.02225542072 2.238652368e-21)
(99.99566091 0.03430053642 -4.381361516e-21)
(99.98423408 0.04721165424 1.324672345e-20)
(99.99801894 0.03906771428 1.352981123e-21)
(99.9732632 0.08734937884 -8.684385348e-21)
(99.98852824 0.08668511247 -1.455599541e-21)
(99.99692737 0.07095563158 2.106593553e-21)
(99.99897042 0.04234650671 1.038448035e-21)
(99.98664285 0.1180931464 2.091152759e-21)
(99.99695573 0.06686228108 1.019893683e-21)
(99.99774361 0.05257719108 -1.057026239e-21)
(99.99625164 0.08468159235 1.019852027e-21)
(99.97954676 0.1905646875 2.027482384e-21)
(99.99593377 0.1065529744 0)
(99.99573848 0.1304267137 -3.680502392e-21)
(99.9737001 0.2881960824 -3.680483236e-21)
(99.99518931 0.1585566308 -9.533511423e-22)
(99.99460355 0.1905190085 3.206213412e-21)
(99.96682485 0.4161187201 3.476135682e-21)
(99.99409954 0.2260353358 4.280906756e-22)
(99.99375496 0.264295136 -2.778165316e-21)
(99.96279872 0.5688262403 3.978092825e-22)
(99.99365279 0.3040984917 -2.78151403e-21)
(99.99388504 0.3436376503 3.89272376e-22)
(99.96545536 0.726145708 -1.837836377e-21)
(99.99445685 0.380588058 2.514273608e-21)
(99.9951608 0.4128610576 2.097026923e-21)
(99.97671937 0.8520034643 -9.160673252e-22)
(99.99612997 0.4378258791 0)
(99.99798105 0.4530808289 0)
(99.9960588 0.9122952407 1.739851508e-22)
(100.000527 0.4573054391 0)
(100.0029186 0.4500522404 5.180019307e-22)
(100.0164137 0.883974594 -1.189210584e-23)
(100.0044294 0.4325020718 1.055543484e-21)
(100.0050577 0.4065742831 -2.958554765e-22)
(100.0297479 0.7831736129 -6.619221487e-22)
(100.005556 0.3747316661 -1.173271794e-21)
(100.0059935 0.3393578954 8.440907481e-23)
(100.0346123 0.6420301416 1.784137863e-21)
(100.0060863 0.3023454753 4.649413848e-22)
(100.0058996 0.2655230337 0)
(100.0328734 0.4952723203 0)
(100.0055337 0.2303691994 0)
(100.0051919 0.1977168302 7.488503331e-22)
(100.0273738 0.3655533677 1.559557148e-21)
(100.0052027 0.1684512862 -3.793525127e-21)
(100.0049855 0.1405867938 -1.409933395e-21)
(100.0223472 0.255823145 3.07262964e-21)
(100.0042459 0.1167018319 3.072400357e-21)
(100.0031644 0.09676904938 -8.569708957e-22)
(100.0132999 0.1743819516 -4.681854836e-23)
(100.000921 0.082560365 1.67260585e-21)
(100.0081223 0.07936167793 -7.431990296e-21)
(100.0465158 0.1945670386 4.045602166e-22)
(100.0168354 0.176314069 -2.641178115e-21)
(100.0028002 0.08171067632 -1.531360564e-21)
(100.0056766 0.04586268765 -9.31448018e-22)
(100.0313278 0.1190816588 1.477074766e-20)
(100.0046839 0.02149047662 -7.480083476e-21)
(100.0228989 0.0633290007 -1.574928166e-20)
(100.0202523 0.0199164419 1.336099977e-21)
(99.98397364 0.02030709805 1.102608642e-20)
(99.97412274 0.01081395821 3.175788741e-22)
(99.97511197 0.04930976616 1.75914121e-20)
(99.96326086 0.03743568401 -1.543055137e-20)
(99.95855492 0.09685175506 9.167993284e-21)
(99.93974062 0.08119779376 -2.388346552e-20)
(99.9502756 0.1546416418 -1.559648051e-21)
(99.90002384 0.1528260831 4.59915422e-20)
(99.915369 0.1957198124 -1.012267356e-20)
(99.92614385 0.1989109037 -2.173867711e-21)
(99.94371564 0.1965860067 4.269817244e-21)
(99.96539665 0.1393388367 2.122334393e-21)
(99.94580346 0.2317267833 2.065586101e-21)
(99.92786564 0.2540569599 2.10704333e-21)
(99.87880145 0.3361866047 -4.262429649e-21)
(99.91023574 0.3256804837 -2.476535916e-23)
(99.91741534 0.3726885373 2.027800572e-21)
(99.88975938 0.4135064517 -2.154359107e-23)
(99.81940346 0.5413516046 0)
(99.87936985 0.482668156 0)
(99.84698398 0.5539294614 -2.523433098e-21)
(99.88864381 0.5532391393 -4.952046564e-21)
(99.87362319 0.5844392259 -7.163472288e-23)
(99.83820253 0.6759205772 -1.113788182e-20)
(99.86418778 0.6382903541 -3.828666429e-21)
(99.8343882 0.8549142328 3.132600033e-23)
(99.8579587 0.8046546064 -2.50053506e-21)
(99.79034214 0.9889613409 -1.364004046e-20)
(99.82730843 0.9271094118 -3.326781742e-21)
(99.8074808 1.191529913 -6.129199588e-21)
(99.83978252 1.110802449 -5.793490244e-21)
(99.75982997 1.373661092 6.824443956e-22)
(99.80610549 1.276874584 -7.345718639e-21)
(99.81103326 1.555309557 -2.361767676e-23)
(99.85065713 1.43354801 -4.710385165e-21)
(99.76956464 1.783115275 -2.434004815e-21)
(99.82066872 1.641831059 -3.5269358e-21)
(99.8613329 1.867477463 -2.507557839e-21)
(99.90239517 1.698755937 -4.088916967e-21)
(99.83675113 2.125720003 -4.860170547e-21)
(99.88252384 1.937396432 -3.211810153e-21)
(99.95459833 2.04569641 -7.328791385e-22)
(99.98601012 1.8341671 -1.572589225e-21)
(99.9541967 2.30556982 1.254709734e-20)
(99.98190509 2.079501222 -3.757026825e-22)
(100.0596174 2.031564988 1.740300376e-22)
(100.0618334 1.78965641 -2.24440244e-22)
(100.0806577 2.255637187 3.299469605e-22)
(100.0829113 2.011110752 -7.874527559e-22)
(100.1412096 1.837796823 -2.673261683e-22)
(100.1101959 1.592884263 -2.355224623e-22)
(100.1711061 2.008583686 -8.274715899e-23)
(100.1533345 1.77236861 2.13501191e-21)
(100.1790298 1.532257035 2.39813336e-21)
(100.1286128 1.309845171 4.174567606e-21)
(100.2103937 1.652015468 4.170109863e-21)
(100.1804639 1.444596869 5.189561703e-22)
(100.1773674 1.194094946 -6.62955586e-21)
(100.1222542 1.010679243 -6.18318399e-21)
(100.2035754 1.272588297 -2.237107285e-21)
(100.1712954 1.106987106 -2.189656868e-21)
(100.1508022 0.8883123571 -5.216841212e-21)
(100.0987811 0.7469688773 4.752265651e-22)
(100.1673222 0.9360971381 -1.392290086e-21)
(100.1413159 0.8149357895 5.664332593e-21)
(100.089964 0.5054095755 -1.299951522e-20)
(100.1445157 0.6904551261 -1.299850518e-20)
(100.2011038 0.7423956621 1.315375271e-20)
(100.1234876 0.5715009415 -2.656276652e-20)
(100.1035844 0.4702136157 1.143711083e-20)
(100.1430254 0.4990228973 -1.615865493e-20)
(100.0839449 0.3848652506 2.327261696e-20)
(100.0631987 0.3415910912 2.585018217e-20)
(100.0766837 0.2296518496 2.197516348e-20)
(100.1749388 0.3606077913 -1.778149242e-22)
(100.1350836 0.4090956276 4.63193754e-20)
(100.0796064 0.3236588806 2.500870232e-21)
(100.0545392 0.1332842367 -6.971904785e-22)
(100.1217455 0.2192644634 3.151702427e-20)
(100.0434343 0.0610093383 -7.340061588e-21)
(100.0910348 0.1167573973 -1.670764928e-20)
(100.0777987 0.03661471801 7.477378824e-21)
(99.95667948 0.0265438486 -2.647825657e-20)
(99.9490618 0.01055392115 -1.323377423e-20)
(99.93213489 0.06631891623 -5.73057932e-20)
(99.92579595 0.03854095873 1.219893777e-20)
(99.88739679 0.1338483502 1.179993063e-20)
(99.8763483 0.08980705349 -4.8508814e-20)
(99.84082737 0.2336603461 2.927419437e-20)
(99.7956744 0.1770372632 5.272200734e-20)
(99.7863294 0.2572189609 -4.682786104e-20)
(99.86436199 0.2489328048 -8.700310143e-21)
(99.79035496 0.2837192723 -6.450331017e-20)
(99.8094532 0.3128207294 -4.357671869e-21)
(99.78747862 0.4263043069 -8.494392877e-21)
(99.76173976 0.4119512634 -4.23302422e-21)
(99.67381089 0.4971613587 2.97116583e-20)
(99.70641871 0.5336799834 8.337740538e-21)
(99.68493824 0.6939478644 -7.345981929e-21)
(99.64289907 0.6824938767 5.431150138e-21)
(99.51594178 0.8226261999 -4.185132798e-20)
(99.60647553 0.8320623642 2.934940833e-21)
(99.54191878 0.8943662391 -1.821580453e-20)
(99.59167334 1.031587774 -7.491043179e-21)
(99.5584988 1.03123207 0)
(99.48357777 1.138269221 7.766307604e-21)
(99.52423405 1.146761585 -7.457228631e-21)
(99.46918977 1.538812032 3.629039947e-21)
(99.4200936 1.552438194 1.421820191e-20)
(99.32622517 1.710625733 7.041447546e-21)
(99.38819741 1.705257483 1.765514596e-20)
(99.38377823 2.175563626 2.339081529e-20)
(99.31478128 2.217012291 1.233146078e-20)
(99.21650585 2.432605387 2.695065513e-20)
(99.30366634 2.396175432 -2.105615842e-20)
(99.40738277 2.862043812 -7.989489597e-20)
(99.32257905 2.951617311 -7.962972194e-20)
(99.24150725 3.225921966 -7.939938225e-20)
(99.34841391 3.13258376 -5.336047479e-22)
(99.57606296 3.472723424 -9.20698061e-21)
(99.49104526 3.634061055 -1.114033459e-20)
(99.45548863 3.947760943 -1.132190157e-19)
(99.56228761 3.769790115 -7.201489794e-20)
(99.89383402 3.807649149 3.042677875e-20)
(99.83268586 4.049084387 2.152947026e-20)
(99.8694145 4.349925163 -2.210433197e-20)
(99.93482123 4.082789122 5.792907358e-21)
(100.2405097 3.724257665 -4.717101181e-21)
(100.2348223 4.017140215 0)
(100.3218159 4.250967583 7.079892228e-21)
(100.3233459 3.935484093 1.160218981e-21)
(100.4795569 3.273690473 1.029854941e-20)
(100.5257969 3.567277554 3.219457744e-20)
(100.6279621 3.714259519 -1.458732231e-20)
(100.5700896 3.410287902 -5.038348969e-20)
(100.5705511 2.651857461 3.393220647e-21)
(100.6435688 2.904383148 1.926141713e-21)
(100.7338753 2.981754495 4.51829817e-21)
(100.6511213 2.729653812 6.705226615e-21)
(100.5479129 2.01780488 -6.165204455e-21)
(100.630423 2.222062347 -1.439064052e-20)
(100.7013948 2.256960492 -4.993765836e-21)
(100.6108147 2.05794574 5.514652896e-21)
(100.5339129 1.610824448 -1.729168851e-20)
(100.4591237 1.458002911 -1.164447222e-20)
(100.5852851 1.620294413 -1.166017527e-20)
(100.5076882 1.475737448 6.217869179e-21)
(100.3541733 0.9610302069 -5.141143886e-20)
(100.4751653 1.175377664 -2.698244491e-20)
(100.5493962 1.156006749 -7.799386338e-20)
(100.4088461 0.9674307511 -3.689044498e-20)
(100.255275 0.6419866923 -5.871505619e-20)
(100.3473622 0.7902728963 2.334867861e-20)
(100.3955921 0.7646602403 -2.78720337e-20)
(100.2907812 0.6408451478 -2.436848654e-20)
(100.2123902 0.3466313494 9.820835038e-21)
(100.3657071 0.4724743 -2.507268674e-20)
(100.346969 0.5756371239 -1.431405463e-22)
(100.2588746 0.524280461 -1.436713795e-20)
(100.1530325 0.1998870567 1.477300634e-20)
(100.2597906 0.2845225201 2.625847542e-20)
(100.1210774 0.09103322296 -1.878288382e-21)
(100.1937293 0.1504606095 -3.790324393e-21)
(100.1636502 0.04685525958 0)
(99.92425151 0.02149915157 2.658667543e-20)
(99.92880455 0.0039786378 -4.436929471e-21)
(99.87754471 0.05949921861 2.23885381e-20)
(99.8900002 0.01976029038 3.105472514e-20)
(99.79370545 0.1321853571 -8.893369286e-21)
(99.80789992 0.06315646065 -4.393750988e-21)
(99.68706536 0.2637214053 0)
(99.67411625 0.1455901082 6.78660813e-21)
(99.62292561 0.2595165537 2.064217415e-20)
(99.70403492 0.3026703277 -6.025348322e-20)
(99.61006135 0.3024369501 1.551960035e-20)
(99.61685947 0.3637381622 0)
(99.54114555 0.5441636626 2.73474699e-22)
(99.52274552 0.4901011109 -3.421336568e-20)
(99.39318456 0.5635419415 -3.41903494e-20)
(99.41132473 0.6482862819 6.935453869e-20)
(99.31660796 0.9196092931 -1.029919081e-19)
(99.28155914 0.8442242114 3.797435626e-20)
(99.09345883 0.9740979427 -6.890808966e-20)
(99.17870261 1.074403605 -3.429761731e-20)
(99.08835968 1.096061365 -5.63434894e-20)
(99.0848345 1.403340484 8.125299866e-21)
(99.04845603 1.359695842 1.613843555e-20)
(98.92876171 1.469105153 4.084558594e-20)
(98.96934737 1.526543598 8.057655245e-21)
(98.78881831 2.164469445 -2.498123251e-22)
(98.72595057 2.119255308 -5.464780899e-20)
(98.57856031 2.284900125 -1.266933113e-20)
(98.6526306 2.345306888 -2.874781761e-20)
(98.57861692 3.14860818 -1.081861232e-19)
(98.47683646 3.118566227 -2.988912377e-21)
(98.31602839 3.364947938 1.142203635e-19)
(98.43833815 3.408084229 5.93446556e-20)
(98.57348194 4.329280371 -6.906014184e-20)
(98.42426809 4.350450487 5.2000573e-20)
(98.28334693 4.697923223 3.002703608e-20)
(98.46473844 4.67711511 -2.305847402e-20)
(98.94776125 5.485374911 8.869291092e-20)
(98.76553497 5.615760541 2.085137897e-19)
(98.71425561 6.044501046 2.584378708e-19)
(98.93210038 5.886807272 8.526474755e-20)
(99.75817674 6.168556431 2.412037775e-20)
(99.60695063 6.449724512 -5.414815625e-20)
(99.70649988 6.86117522 1.728664145e-20)
(99.86886352 6.527051412 -3.780090927e-20)
(100.6770702 6.002530934 2.019390869e-20)
(100.6380215 6.389869186 1.879285518e-20)
(100.8447177 6.661750875 7.992211508e-21)
(100.8589068 6.229365744 2.506449665e-20)
(101.2545619 5.118148226 -5.047476981e-20)
(101.3339141 5.506536567 -1.848260249e-20)
(101.5399485 5.617903355 -1.216597119e-20)
(101.4253215 5.213645199 4.903998683e-21)
(101.3927721 3.97391005 -7.086474535e-20)
(101.5287582 4.292067218 1.254265299e-19)
(101.6800721 4.302633242 1.717199161e-19)
(101.5189956 3.989814445 9.095246434e-20)
(101.27576 2.916388158 4.477440668e-20)
(101.4123409 3.148801942 0)
(101.5114703 3.111024566 -2.589463995e-19)
(101.3609268 2.894600072 2.091048426e-19)
(101.1811481 2.222192854 0)
(101.0579565 2.05525505 4.659206455e-20)
(101.2450928 2.178438758 0)
(101.1136564 2.023094455 0)
(100.7840086 1.319454114 2.837244262e-20)
(100.9844918 1.546601311 1.83909304e-20)
(101.0537136 1.443429402 -1.613855148e-20)
(100.8419307 1.258943256 3.558409497e-20)
(100.5641514 0.8627324449 -3.24299922e-20)
(100.7138192 1.016399353 -1.447919115e-20)
(100.754874 0.932974709 -1.462556415e-20)
(100.6009159 0.8130780765 -7.092340311e-21)
(100.4009305 0.4080546346 -9.071022898e-21)
(100.6035006 0.5072796105 -1.882963752e-20)
(100.634746 0.6738423625 -2.488564175e-21)
(100.522142 0.6480302067 5.365952386e-21)
(100.2893762 0.2325982082 7.554413853e-21)
(100.4251974 0.3010724764 1.147770854e-20)
(100.2271488 0.1048806518 -1.911697693e-21)
(100.3141782 0.1559059526 -3.374542888e-21)
(100.2625598 0.0479653982 -4.85024672e-22)
(99.90110225 0.00189358839 0)
(99.92703983 -0.009890161743 0)
(99.82860703 0.02178867698 4.487193142e-21)
(99.8713094 -0.02207706265 0)
(99.69828949 0.0786667648 1.139636513e-20)
(99.75438477 -0.005343151182 -3.670854413e-21)
(99.51756537 0.2210050663 1.912075948e-20)
(99.55923208 0.05064373919 2.509768506e-20)
(99.45522321 0.1807525005 -7.565920022e-21)
(99.51611151 0.2813060461 2.672571169e-20)
(99.41786963 0.2377438742 2.157041928e-21)
(99.39701345 0.3258478932 -1.083520906e-20)
(99.2357903 0.5513444453 0)
(99.24151435 0.4606725884 -2.242633893e-20)
(99.07472683 0.5041076594 -1.843243492e-20)
(99.05646918 0.632688028 4.57744728e-21)
(98.84781687 0.9795780925 0)
(98.83966992 0.8515025923 4.576957204e-21)
(98.59110718 0.9340173984 -4.731843949e-21)
(98.63301975 1.130976578 2.287186387e-20)
(98.52987888 1.1196747 5.917536527e-21)
(98.40519736 1.570070876 2.9690642e-19)
(98.38295531 1.477336628 3.419183838e-20)
(98.21669653 1.567759862 -1.087116905e-19)
(98.24157542 1.677530419 1.694791435e-19)
(97.86251232 2.52789721 -1.120033536e-19)
(97.80588031 2.409491742 -1.346979942e-19)
(97.59801738 2.556976619 -7.038620169e-19)
(97.65910162 2.705832389 3.200585428e-22)
(97.36275495 3.905586121 0)
(97.24507444 3.775125935 0)
(96.98761975 4.034614892 0)
(97.12784271 4.19675522 0)
(97.14376682 5.768078482 -1.107176689e-19)
(96.92172184 5.666506005 -1.373485528e-19)
(96.65393257 6.094594507 -1.333379284e-19)
(96.93108584 6.217565432 -3.310607169e-19)
(97.70472691 7.89723862 2.267174011e-19)
(97.3522552 7.946782687 -1.862407399e-19)
(97.22036449 8.579326193 0)
(97.6599859 8.493713629 0)
(99.45682315 9.337244825 -5.344177007e-20)
(99.10457104 9.698609669 0)
(99.32257498 10.34652051 -1.258046458e-19)
(99.70727811 9.869838706 3.467218384e-20)
(101.5708194 8.968542454 -5.588826692e-20)
(101.4720383 9.553861935 -1.867324414e-20)
(101.9181976 9.87918577 -5.902158692e-20)
(101.9518319 9.208213729 -5.91167412e-20)
(102.7142481 7.220052493 -6.890087749e-20)
(102.8730806 7.765800982 -3.493499115e-20)
(103.2409794 7.778706281 -1.451693052e-19)
(103.0112413 7.225228605 -1.102716277e-19)
(102.7961258 5.228053848 -8.356516114e-20)
(103.0487671 5.624990969 1.361841259e-19)
(103.2729396 5.510105293 -5.308953999e-20)
(102.9749523 5.136581077 2.688198876e-19)
(102.3784966 3.618264585 -3.107695873e-19)
(102.6131462 3.874517198 -4.238204198e-19)
(102.7203579 3.748612774 2.133833866e-19)
(102.4717277 3.516427 -3.218646558e-21)
(102.0613019 2.611682582 -1.438045995e-20)
(101.8814211 2.446739347 -3.709578618e-21)
(102.1185829 2.501110633 1.059045519e-20)
(101.9335812 2.358704393 2.195687961e-20)
(101.3532824 1.52124279 -9.134406047e-20)
(101.639438 1.737605599 -5.78252803e-20)
(101.6774893 1.54521957 -3.240702012e-20)
(101.3924793 1.392095087 -1.660353035e-20)
(100.9626185 0.969349965 1.12270471e-20)
(101.1726893 1.106335427 3.389378574e-20)
(101.183552 0.9677924588 -3.787594264e-21)
(100.9821846 0.870915984 -3.708041312e-21)
(100.61485 0.4013336231 1.947787402e-21)
(100.8561506 0.4480032653 0)
(100.9598313 0.6623408234 -8.486897986e-23)
(100.8373687 0.67679035 -1.010006358e-20)
(100.4390795 0.2220465143 4.319836077e-22)
(100.5942506 0.2581580328 1.947611802e-21)
(100.3402504 0.09798333159 -1.951939884e-21)
(100.4311887 0.1274684756 -1.954122128e-21)
(100.3549746 0.03830203078 -1.959403606e-21)
(99.90349073 -0.03359510656 0)
(99.9587542 -0.03111815677 2.196658127e-21)
(99.80497393 -0.04969596008 -8.989160885e-21)
(99.88658828 -0.08699833261 -2.213875128e-21)
(99.62668362 -0.03152545669 9.330178486e-21)
(99.73742964 -0.116878694 -4.466946262e-21)
(99.36259038 0.07948473424 1.221433544e-20)
(99.48562743 -0.1106280337 3.677060566e-21)
(99.31120906 0.01459332343 -2.960454222e-23)
(99.33418842 0.1694199645 -9.069317106e-21)
(99.24017016 0.07832078078 -9.171211216e-21)
(99.18524531 0.1794342121 0)
(98.91724193 0.4194106474 -1.84319799e-20)
(98.96279094 0.300086867 0)
(98.77023352 0.2970682836 -1.214999408e-22)
(98.69551999 0.4571464386 -8.473559396e-23)
(98.33048134 0.8347078291 9.51815741e-21)
(98.3767858 0.6618424585 1.429149387e-20)
(98.08235449 0.6792935262 1.92792572e-20)
(98.05190248 0.9589996047 -1.547822031e-20)
(97.95468349 0.8944745641 9.149531587e-21)
(97.65436201 1.434906167 -3.794247237e-20)
(97.66713696 1.3024894 -5.139032945e-22)
(97.4710142 1.346813647 -3.510014628e-19)
(97.45144878 1.503467744 -3.777880766e-20)
(96.74402698 2.473550261 -6.191304361e-19)
(96.73007056 2.283033653 -1.297754468e-18)
(96.45519715 2.384383705 -1.329127231e-18)
(96.46617863 2.611651215 -6.446911828e-19)
(95.70156997 4.143500711 6.542096054e-19)
(95.61973719 3.894161779 9.854793088e-19)
(95.23201481 4.076614239 4.67103336e-19)
(95.32748023 4.421498342 -1.845073497e-20)
(94.7676227 6.820263298 1.200922759e-18)
(94.50924341 6.477694157 2.922527336e-20)
(93.98803211 6.916251417 1.240178567e-19)
(94.3112779 7.347330554 1.071491919e-18)
(95.01195438 10.79853541 -3.118349755e-20)
(94.3662619 10.56950619 -3.231753468e-19)
(93.89878853 11.55297603 -5.439567011e-20)
(94.77618325 11.78935664 -8.927801876e-20)
(98.6288104 14.30627276 -4.092861298e-20)
(97.76069642 14.83107641 5.101219035e-19)
(98.24670327 16.10786893 -2.406071556e-19)
(99.22656025 15.26803492 -6.323859281e-20)
(103.55974 13.1924544 -4.039078021e-19)
(103.4029326 14.2372094 -3.932121168e-19)
(104.4256045 14.53313744 -7.634871086e-19)
(104.3668183 13.34440607 1.275901891e-19)
(105.4223826 9.439784908 1.013651268e-19)
(105.7937381 10.22205792 6.399565311e-19)
(106.4077622 9.956890531 -2.509958548e-19)
(105.8888523 9.214271475 2.409407576e-19)
(105.0078934 6.186993279 -3.495433663e-19)
(105.4675757 6.637991775 0)
(105.7100565 6.325370081 2.725622586e-19)
(105.1974691 5.915858908 0)
(103.9034686 3.967694503 1.956882958e-19)
(104.2730493 4.211951366 -9.860494015e-19)
(104.3399917 3.965578755 -3.693464519e-19)
(103.9657076 3.762171969 -1.193546835e-19)
(103.1431386 2.673082839 0)
(102.8853965 2.534970485 0)
(103.1603907 2.495979254 8.231195864e-21)
(102.9090989 2.382810845 -3.194130869e-20)
(102.014171 1.506285357 2.652169099e-20)
(102.3757285 1.666133552 -2.299737694e-22)
(102.3486419 1.398098611 1.60925413e-20)
(102.0041533 1.309524245 1.19914424e-20)
(101.4055082 0.9236551177 -1.573778577e-20)
(101.671801 1.018377609 -8.017965256e-21)
(101.6267302 0.8337481603 -8.019518624e-21)
(101.3860648 0.7831008953 1.220156177e-20)
(100.8219853 0.3104068996 0)
(101.0891698 0.28857744 1.290070589e-21)
(101.2736995 0.5197751784 -1.077804832e-20)
(101.1619866 0.595298037 2.674163833e-20)
(100.5748522 0.1617504435 -4.915799529e-22)
(100.734388 0.1494292853 -1.526139531e-21)
(100.4367814 0.06777868742 -1.970003309e-21)
(100.5197899 0.0630114665 -2.22824658e-21)
(100.4188939 0.01736381775 2.518903735e-21)
(99.94730877 -0.08373788983 -1.651691672e-23)
(100.0377601 -0.05881155391 8.36600996e-23)
(99.82577545 -0.1529352137 2.304944952e-21)
(99.95193131 -0.1718781879 -1.019543896e-22)
(99.6051574 -0.1941383684 -1.207544185e-20)
(99.77646391 -0.2655508459 1.833185666e-21)
(99.25684236 -0.1374324701 -1.090960142e-20)
(99.47808089 -0.3311088487 -1.832979451e-20)
(99.2332787 -0.2341295256 -1.563527777e-20)
(99.18726261 -0.03822737048 -8.547672552e-21)
(99.12575172 -0.1746577134 -3.413640336e-21)
(99.02336949 -0.0720675671 3.939383029e-23)
(98.64211819 0.1382256576 1.391477275e-20)
(98.7396784 0.005602627127 1.417870133e-20)
(98.54006786 -0.05463145479 7.001434166e-21)
(98.39746103 0.1138472715 2.416121612e-20)
(97.86520531 0.4652199544 -2.430663952e-20)
(97.98817815 0.260908412 -1.958851064e-20)
(97.68770222 0.1953433429 -6.988436695e-20)
(97.54670524 0.5021492047 5.97080639e-21)
(97.4738579 0.4009548893 -4.600418047e-20)
(96.96131942 0.9540605966 0)
(97.02698642 0.794886531 6.39229799e-19)
(96.81364051 0.782356485 0)
(96.7289281 0.9648133156 -1.827914619e-19)
(95.61899318 1.894050814 7.418049796e-19)
(95.68384117 1.6468505 7.423219055e-19)
(95.36873839 1.658125694 7.85953839e-22)
(95.27871462 1.943317213 1.476721103e-18)
(93.79342619 3.499392062 3.986145945e-19)
(93.8373882 3.109724915 3.987877273e-19)
(93.34605441 3.16283435 4.016601056e-19)
(93.26442998 3.62097205 2.992004862e-24)
(91.26067983 6.424519457 7.760921969e-19)
(91.1876669 5.761268344 -6.290015479e-19)
(90.31876499 5.931902727 8.803538951e-19)
(90.36852551 6.791993745 8.500521777e-19)
(88.55363914 13.10443591 7.685687126e-19)
(87.76907035 11.88656731 -1.322091398e-18)
(85.86935425 13.35990668 2.22254315e-19)
(86.11336069 12.50036114 1.611156111e-19)
(87.66542757 14.67759687 2.176089391e-19)
(86.63364218 14.75371654 8.089431679e-19)
(93.65026409 24.82643018 -3.863716469e-19)
(95.05300134 24.38633329 0)
(94.1977842 26.66727644 0)
(95.89871535 25.78205955 -1.110598306e-19)
(109.0764587 20.98669562 -1.11642617e-18)
(109.1564581 19.16555383 -7.855246652e-19)
(110.8129582 18.60722276 1.462604541e-18)
(110.0103721 21.71011995 9.063843378e-19)
(112.0503233 20.32313448 -2.663845936e-20)
(111.6922175 21.17782857 -2.672170735e-20)
(111.1410033 11.96696833 1.137667875e-18)
(110.2138521 11.01869546 -2.654540985e-19)
(111.7759595 11.05425673 -4.281657768e-19)
(110.6922308 10.32838041 2.017573296e-20)
(108.0621051 6.280371871 1.832539659e-19)
(108.8207405 6.677280452 1.944147662e-19)
(108.9234843 6.066694431 -1.745402159e-19)
(108.1505707 5.795481399 1.993076919e-19)
(105.7483831 3.671815055 3.040219559e-19)
(106.2724304 3.840142624 7.41713158e-19)
(106.2254352 3.465479758 2.467137594e-19)
(105.7196928 3.361588577 1.577770024e-19)
(104.3225314 2.268931768 2.834078099e-19)
(103.9842462 2.198571417 3.674407971e-20)
(104.2581704 2.035333386 3.265445408e-19)
(103.9387739 1.985657869 3.069778884e-19)
(102.6669015 1.216274622 4.218491097e-21)
(103.0944407 1.272773781 4.654372685e-21)
(102.9542522 0.95894801 -2.424022067e-21)
(102.5804595 0.9674463772 -4.381534018e-21)
(101.8325642 0.6945902662 4.3579613e-21)
(102.1378309 0.7223847887 -2.032624858e-23)
(102.0210517 0.510607886 -7.112998292e-21)
(101.7549688 0.5223550203 8.816409767e-21)
(100.9835521 0.1329158395 -1.90484236e-22)
(101.242668 0.03295975807 -2.813736286e-22)
(101.5347255 0.2427794538 8.173762771e-22)
(101.4455861 0.3488574775 6.454388052e-21)
(100.6677725 0.05047414177 -3.268914323e-21)
(100.8120364 -0.02210299766 -2.402727128e-22)
(100.4929154 0.01327393156 2.445324735e-21)
(100.5548244 -0.03482468076 -2.179041431e-21)
(100.4313992 -0.01417218174 4.058793036e-22)
(100.046419 -0.1457637546 1.731295271e-23)
(100.1752649 -0.09118644047 -3.254913423e-21)
(99.90761028 -0.2816204143 -5.97283129e-22)
(100.0801124 -0.2711141409 1.418675171e-21)
(99.65577291 -0.3994947947 -4.684918897e-21)
(99.88773296 -0.4404977753 -3.083967517e-21)
(99.23839067 -0.4248022836 9.679985129e-21)
(99.55937877 -0.5928902375 -1.066580435e-21)
(99.25225225 -0.5463277202 1.009616051e-21)
(99.12080482 -0.3317639477 4.733588345e-21)
(99.11047061 -0.5008923114 9.799399115e-21)
(98.95922081 -0.4137174092 6.914577477e-21)
(98.47206354 -0.2752748403 -2.361323046e-21)
(98.62857006 -0.4009721913 3.662758336e-21)
(98.4427137 -0.5183652392 2.419120247e-21)
(98.23198146 -0.3696687185 7.33327312e-21)
(97.56129239 -0.1199740251 -2.710327806e-21)
(97.76459881 -0.3179549752 4.062659711e-20)
(97.49326645 -0.4693486331 3.811790548e-20)
(97.23134523 -0.1737488697 5.270582107e-20)
(97.20001825 -0.3132685395 4.099678052e-19)
(96.4693013 0.1573058296 8.784723411e-20)
(96.59838003 -0.002523333289 6.776427876e-20)
(96.39300034 -0.07938902031 8.76172086e-20)
(96.23630909 0.09618703217 -1.632805266e-18)
(94.77659947 0.759880484 -2.472041653e-21)
(94.94535653 0.507418099 1.76013378e-20)
(94.64248811 0.412245307 7.828125817e-19)
(94.43179702 0.6856474972 7.819062474e-19)
(92.28592646 1.757408778 1.167338866e-19)
(92.53177638 1.356679626 5.377346586e-19)
(92.06395989 1.199950625 -4.481661648e-19)
(91.73643628 1.630704022 -8.92771004e-19)
(88.115524 3.354264597 1.920003283e-18)
(88.55316628 2.633916311 9.712842986e-19)
(87.76517884 2.267899668 9.75055625e-19)
(87.09596799 3.029978322 6.828235754e-19)
(79.68712057 6.079997024 1.207347548e-18)
(80.30216763 5.129716189 -1.141372513e-18)
(79.38639377 4.474824245 1.254005801e-18)
(78.46340092 5.471477988 1.943104704e-18)
(126.7745093 23.65498923 -1.560797158e-19)
(124.7974636 22.62568242 6.691266653e-19)
(127.3693023 21.56289208 3.223960721e-18)
(125.4690692 20.9690981 3.907611821e-18)
(118.7491989 9.866354203 -1.644778366e-19)
(116.9900518 9.435995359 -9.54924979e-19)
(118.6136273 8.225906626 -1.313501717e-19)
(116.9840829 8.178708996 1.203439132e-18)
(111.472975 4.697631399 3.969392761e-19)
(112.5158049 4.789027528 2.104068113e-19)
(112.2239202 3.985690403 2.124958719e-19)
(111.2722243 4.041318929 2.131264016e-19)
(107.5564227 2.492083062 1.400929918e-18)
(108.1917297 2.482842913 -2.389484332e-19)
(107.9351575 2.052279765 9.014920626e-19)
(107.3612331 2.121539767 1.742605516e-18)
(105.3693243 1.323534911 3.803984398e-20)
(104.9820784 1.354886467 3.759074771e-20)
(105.1942184 1.067732829 7.903803073e-20)
(104.8433156 1.118665016 -3.17198537e-21)
(103.195322 0.6326102796 -4.733010971e-21)
(103.6553756 0.5643027447 2.476217676e-21)
(103.376955 0.2477567127 7.509643085e-21)
(103.0116471 0.3711764514 1.127258724e-21)
(102.1680079 0.2846552297 -1.943278747e-21)
(102.4781081 0.2253608989 1.328377394e-20)
(102.2760728 0.02177725543 4.91173146e-21)
(102.0214434 0.1105827204 9.732056283e-21)
(101.0593054 -0.1179341944 -3.407263089e-22)
(101.2851903 -0.3007532764 -1.033209231e-21)
(101.6757931 -0.1479244257 -1.0473554e-21)
(101.6368468 0.002665553356 -1.152086322e-21)
(100.6897009 -0.1053076177 1.051763042e-21)
(100.8000148 -0.2423126541 1.286219614e-21)
(100.4857547 -0.06110387607 -4.173459747e-21)
(100.5130719 -0.1585851379 1.625071269e-21)
(100.3737421 -0.05419816486 -2.062816804e-21)
(100.2109982 -0.2151704053 -1.853509997e-21)
(100.3782373 -0.1258386153 1.027731397e-21)
(100.0626452 -0.4260587028 -1.081264445e-21)
(100.2790752 -0.3772810155 -7.58836889e-22)
(99.79425297 -0.6307087565 5.534763199e-22)
(100.0808282 -0.627742214 -2.727629239e-22)
(99.33027437 -0.7565056274 6.333078411e-22)
(99.74219456 -0.8741638002 9.19032312e-22)
(99.38726009 -0.8923689709 5.508822421e-22)
(99.16477112 -0.6839743429 1.6092582e-21)
(99.21721794 -0.8705590461 -1.610256599e-23)
(99.02183364 -0.8119851274 -1.610485627e-23)
(98.45640591 -0.7777038974 -2.412330453e-21)
(98.66754513 -0.8777440258 0)
(98.51500594 -1.046308937 -1.182020433e-21)
(98.24897438 -0.9396955378 -1.256633715e-21)
(97.48745881 -0.8415928362 -1.354737842e-21)
(97.76175499 -1.001403066 -2.597130703e-21)
(97.54601749 -1.223810346 1.240147719e-21)
(97.1766034 -0.9818256266 4.130368737e-20)
(97.19540539 -1.140740341 -8.892417296e-22)
(96.30190481 -0.8372876162 -8.035752358e-19)
(96.48650459 -0.9695514777 -2.115490991e-20)
(96.31704059 -1.098037795 0)
(96.09651767 -0.9613622622 7.516050036e-19)
(94.47348916 -0.6905270691 -2.134745434e-19)
(94.72151938 -0.8905275347 7.996782396e-19)
(94.48949826 -1.060174761 0)
(94.18289847 -0.8594300864 4.250158936e-19)
(91.85154874 -0.5229614401 5.048105832e-19)
(92.23955854 -0.8011298879 -3.857919848e-19)
(91.9102992 -1.070613557 -7.177461711e-22)
(91.45123026 -0.8132227491 5.729883823e-20)
(87.83436159 -0.7814356544 -5.528950434e-19)
(88.51631316 -1.114571063 -5.330074211e-19)
(88.10146863 -1.616022005 4.594144422e-19)
(87.32290267 -1.375350861 -5.201793674e-19)
(82.43745681 -3.007032475 5.782018906e-19)
(83.07060001 -3.016664622 5.520842369e-19)
(83.00009539 -3.503309336 0)
(82.42291439 -3.601600387 0)
(139.8994605 5.672473038 2.59471106e-18)
(138.1843365 6.716298124 1.14246731e-18)
(138.517471 4.297817358 -2.414804093e-18)
(137.0892668 5.338807606 0)
(123.7638178 2.250895603 2.906796275e-18)
(122.0144843 2.982027452 2.179725192e-18)
(122.5014574 0.9450818033 5.192984649e-18)
(121.1258209 1.782747368 8.465132785e-19)
(113.8692973 1.209883578 -2.466156711e-19)
(114.9124168 0.8114607789 -2.458409693e-19)
(114.1511061 0.1461138787 -5.14733865e-22)
(113.2845381 0.6036087724 -1.131574546e-18)
(108.7729137 0.4415783171 -1.306648494e-18)
(109.4025391 0.1950512369 0)