/*--------------------------------*- C++ -*----------------------------------*\
| =========                 |                                                 |
| \\      /  F ield         | OpenFOAM: The Open Source CFD Toolbox           |
|  \\    /   O peration     | Version:  v1912                                 |
|   \\  /    A nd           | Website:  www.openfoam.com                      |
|    \\/     M anipulation  |                                                 |
\*---------------------------------------------------------------------------*/
FoamFile
{
    version     2.0;
    format      ascii;
    class       volScalarField;
    location    "0.71";
    object      omega;
}
// * * * * * * * * * * * * * * * * * * * * * * * * * * * * * * * * * * * * * //

dimensions      [0 0 -1 0 0 0 0];


internalField   nonuniform List<scalar> 
12556
(
31.93067192
31.93146905
31.93239216
31.9332559
31.96660411
31.96717433
31.96763394
31.9685634
31.97045334
31.97390679
31.97934659
31.98614532
31.99139325
31.99394196
31.99050978
31.98477143
31.97864714
31.97316325
31.97047223
31.96826457
31.93494708
31.9335655
31.93234322
31.93129858
31.79347038
31.79597905
31.79861161
31.80105771
31.83526012
31.83731179
31.83989984
31.85970343
31.86849167
31.88462857
31.91018731
31.94195714
31.96787532
31.97979794
31.96838415
31.94251674
31.91283101
31.88824531
31.85622721
31.84481812
31.80661099
31.80273384
31.79929326
31.79622692
31.65816915
31.66252197
31.66720787
31.67118795
31.70585387
31.70990697
31.71595014
31.7412653
31.76280977
31.80150578
31.8628916
31.93727915
31.98862477
32.0135451
31.98727305
31.93195871
31.86476169
31.80960576
31.75350712
31.72848286
31.68332536
31.67554935
31.66945196
31.66437668
31.52410319
31.53004111
31.53625134
31.54178353
31.57791776
31.58520957
31.59788493
31.63475093
31.68029175
31.76816757
31.90392962
32.07180393
32.18098353
32.20260192
32.12080154
32.00248248
31.87596208
31.76701361
31.67333797
31.62526984
31.56532612
31.55237621
31.54285807
31.5354589
31.39247954
31.40002003
31.40823585
31.4156429
31.45296311
31.46493875
31.48827065
31.54366837
31.63841189
31.82725738
32.15256048
32.561973
32.89600035
32.84656349
32.56117838
32.26075827
32.00373619
31.78788734
31.6262482
31.54022651
31.4560302
31.4334993
31.4191574
31.40902822
31.26178715
31.27086966
31.28077398
31.29038544
31.33144287
31.35112133
31.39243169
31.47820095
31.65399167
32.06466183
32.89786837
34.36586356
35.57829595
35.04154029
33.79055833
32.9119011
32.33760937
31.91120047
31.62421243
31.47687624
31.3558491
31.3178985
31.29697532
31.28344886
31.13416934
31.14493147
31.15705303
31.16973913
31.21384682
31.2441184
31.31074726
31.43926665
31.75065958
32.57751156
34.7193752
41.45786999
48.49159933
45.12122375
37.04914215
34.30557215
32.98967512
32.18414526
31.6664724
31.43687297
31.26445089
31.20622181
31.17606944
31.1583453
31.00781737
31.02029477
31.03478308
31.05109706
31.10168365
31.14561268
31.24446789
31.42184046
31.91913643
33.33046895
37.76615828
59.26673453
77.23176972
44.522844
36.76740314
34.04359243
32.62900981
31.77527465
31.41705446
31.18232145
31.09827519
31.05638418
31.03368341
30.88594567
30.90059721
30.91833034
30.9397446
30.99646993
31.05678692
31.19146315
31.42842438
32.13500175
34.13062567
40.40926926
72.85253041
149.0736421
55.49498163
40.14844558
35.42263866
33.20925556
31.93346073
31.41903371
31.10915747
30.9960311
30.93984553
30.91133804
30.76713934
30.78384443
30.80476646
30.83214359
30.89790325
30.9773753
31.14901327
31.45244055
32.3573296
34.80679248
42.04025322
80.07377248
186.8618158
65.14009078
43.66839899
36.92994392
33.83885371
32.11788813
31.43274917
31.04465906
30.90061448
30.8289508
30.79399913
30.65444938
30.67378892
30.69903281
30.73436232
30.80574577
30.90659456
31.11543709
31.49106731
32.57953865
35.38522195
43.33955376
90.61972887
187.0496949
70.90380621
46.61975114
38.30324263
34.44366724
32.29781151
31.45696725
30.98839149
30.81476007
30.7267817
30.68474554
30.5461763
30.5676541
30.59665389
30.63960132
30.72012438
30.84306772
31.08927152
31.53942189
32.79399081
35.91128082
44.69943105
102.4192462
173.1401025
73.36393591
48.65718352
39.34847967
34.91933464
32.44740328
31.48192954
30.93973705
30.73746125
30.63449352
30.58532755
30.4447934
30.46915221
30.50332831
30.5548915
30.64039908
30.78522226
31.06940781
31.59048321
32.99709033
36.41042662
46.38798771
112.5672403
816.2243011
148.814898
73.82082422
49.78480496
40.04339802
35.23300155
32.55064532
31.49874575
30.89540009
30.66927264
30.55174194
30.49575001
30.34700793
30.37397618
30.41302323
30.47218771
30.5700713
30.74293446
31.06772344
31.66523029
33.24617465
37.05213413
48.91961596
160.9481823
505.6041516
139.1188215
73.45858631
50.35240874
40.33481461
35.37408038
32.60798627
31.50037975
30.84949184
30.60576449
30.47611901
30.4138195
30.25461228
30.28425513
30.32793933
30.39392621
30.49990299
30.69371305
31.05178595
31.70105418
33.36631696
37.38836524
51.38988991
446.5763911
361.7252757
130.5509982
72.46733145
50.28237752
40.33895497
35.38344532
32.61005067
31.48427377
30.80275682
30.54519638
30.40437649
30.33673604
30.16331128
30.19550026
30.24369204
30.31694538
30.43192611
30.64417074
31.03524829
31.73097667
33.45196975
37.61239409
53.43003293
621.7351514
321.2046151
126.2363103
71.63634376
49.95325357
40.10985552
35.28808491
32.57623437
31.4490145
30.74839632
30.48121674
30.33287527
30.26068183
30.07550687
30.11026992
30.16251687
30.24179807
30.36436695
30.59273896
31.01566669
31.76270493
33.55728862
37.88709971
55.00488096
584.6425872
303.4292617
123.8103321
70.56782671
49.35224734
39.78436292
35.15008916
32.50888894
31.39942819
30.68841921
30.41526258
30.25996989
30.18390475
29.98587483
30.02297534
30.07914236
30.1649417
30.29594913
30.53835206
30.99085784
31.79253429
33.6947382
38.32887859
57.83602966
579.8741549
282.131704
120.208081
68.88761204
48.53173114
39.41476699
34.98025509
32.4180091
31.33003942
30.61645571
30.33991761
30.18127916
30.10228918
29.8984219
29.93774148
29.99734626
30.08823276
30.22565553
30.48048258
30.96058386
31.81415318
33.84784052
38.96934021
63.54903144
611.1211084
254.5105647
114.8162115
66.90637166
47.70619148
39.05561883
34.79463929
32.31082374
31.24684167
30.53649486
30.25908704
30.09817127
30.01749845
29.80682337
29.84796301
29.91091655
30.00773824
30.152941
30.41903667
30.92529162
31.82885451
33.99794426
39.69572842
71.63511013
606.5329371
230.7064669
109.6770026
65.27904987
46.98798136
38.71662596
34.60365153
32.19286614
31.15248626
30.44635025
30.16878652
30.00668651
29.9251324
29.71744294
29.76011676
29.82580269
29.92685751
30.07735951
30.35416517
30.88576661
31.83875427
34.14950411
40.52540463
79.96500955
568.4111253
212.497162
105.3218454
63.96030862
46.37958468
38.40181365
34.41351275
32.06778929
31.04933397
30.3503286
30.07423397
29.91185151
29.82995571
29.62225761
29.66601156
29.73438383
29.84085339
29.99887176
30.28614845
30.84287349
31.84561886
34.30766542
41.577686
87.63873732
522.9643838
197.8812513
101.5654626
62.82585113
45.87734321
38.11484552
34.22802038
31.9384198
30.93943052
30.24566521
29.97058727
29.80843353
29.72680338
29.53074509
29.57527255
29.64559325
29.75527794
29.91744057
30.21533466
30.79747788
31.85137899
34.48189199
42.96901303
94.67514924
481.6775332
185.7424957
98.27559868
61.81493794
45.45835918
37.85830106
34.04994272
31.80712109
30.8245618
30.13842848
29.86571256
29.7042889
29.62317212
29.43184914
29.47681014
29.54922666
29.66388601
29.83353364
30.14222557
30.75060997
31.85873707
34.69055445
44.60011755
101.0941584
445.3535894
175.4228167
95.35623494
60.89751338
45.09471217
37.63047741
33.88106108
31.67576504
30.70634909
30.02397944
29.75221989
29.59157327
29.51128544
29.33929141
29.38446747
29.45820545
29.57510127
29.74745488
30.06749688
30.70354178
31.87101743
34.95508946
46.29485401
106.9025175
412.774684
166.4874814
92.73125691
60.053454
44.76628419
37.4261727
33.72178277
31.5456017
30.58604868
29.91057138
29.64133096
29.48176109
29.40231923
29.23705794
29.28227272
29.35775924
29.47957639
29.65999652
29.99186348
30.65752211
31.89161685
35.28622857
47.96601904
112.1734134
383.0838639
158.6214393
90.34174153
59.2679573
44.46133439
37.23959292
33.57137655
31.4172827
30.46469214
29.79006701
29.52102423
29.36227981
29.28382367
29.14509732
29.19022583
29.26665604
29.38993028
29.57141157
29.91600576
30.61364991
31.92368668
35.67807167
49.58308228
116.865135
355.9635055
151.6158076
88.14571705
58.5302845
44.17305678
37.06601723
33.42864249
31.29107929
30.34291695
29.67454128
29.40796876
29.25031056
29.17273709
29.03968333
29.08467642
29.16272628
29.29128594
29.48255749
29.84048961
30.57283282
31.96985458
36.11567627
51.1367453
120.9695391
331.183123
145.3224953
86.11058215
57.83119398
43.8968088
36.90194758
33.29231923
31.1670164
30.22131124
29.54996545
29.28252044
29.12550386
29.04887521
28.95019214
28.99498849
29.07380826
29.20320542
29.3933475
29.76578575
30.53592614
32.03211241
36.58437942
52.62667281
124.5063994
308.5252076
139.6143447
84.20618585
57.16233844
43.62937264
36.74494714
33.16129858
31.04501905
30.10006682
29.43558661
29.17067537
29.01460296
28.93875767
28.84112535
28.88575247
28.96618545
29.10149964
29.30474168
29.6923121
30.50385677
32.11141056
37.07341375
54.05597872
127.5174898
287.5592531
134.3805704
82.4078177
56.51791555
43.36882001
36.59333468
33.03463278
30.9249569
29.97960076
29.30715002
29.04020674
28.88454302
28.80952553
28.75629071
28.80072474
28.88190168
29.01761937
29.21622833
29.62045068
30.47736935
32.20767185
37.57557418
55.43070914
130.0757964
268.1572018
129.5467344
80.7006073
55.89497729
43.11411041
36.44591536
32.91152573
30.80669011
29.85980827
29.19727302
28.93305273
28.77812069
28.70374125
28.64225389
28.68656251
28.76939267
28.91163818
29.12910455
29.55057397
30.45729116
32.32004731
38.08574741
56.75422526
132.2714204
250.3410379
125.0637951
79.07610228
55.29215178
42.864635
36.30176882
32.79127751
30.69007293
29.74115745
29.06315031
28.79593907
28.64124582
28.56756392
28.56486155
28.60904342
28.69270721
28.83542448
29.04232785
29.48306719
30.44416009
32.44720542
38.59996144
58.02722238
134.2056268
234.1132155
120.8946957
77.52938516
54.7088777
42.61995329
36.16009679
32.67321499
30.57500461
29.62328899
28.96240141
28.69778405
28.54353122
28.4703273
28.44350056
28.48763344
28.57302123
28.72219003
28.95806025
29.41845665
30.4381498
32.58740858
39.11421736
59.24540595
135.8359003
219.4692517
117.0171515
76.05897077
54.14512637
42.37965367
36.02017196
32.55677371
30.46159485
29.50716645
28.81762331
28.55018794
28.39613155
28.32351682
28.376949
28.42108325
28.50744471
28.65872215
28.87481924
29.35749917
30.43984233
32.73867426
39.62439048
60.40286488
137.1280416
206.3757398
113.4211578
74.66539747
53.60065352
42.14306133
35.88121084
32.44132676
30.35047904
29.39273611
28.73367453
28.4668279
28.31289438
28.24057825
28.2226585
28.26691814
28.35575937
28.5150704
28.79695005
29.30143915
30.44798674
32.89803075
40.12285701
61.48549791
138.0585279
194.7671212
110.110973
73.35722466
53.07832242
41.91048563
35.74291808
32.3265572
30.24363042
29.28336884
28.54618567
28.27672899
28.12298613
28.05130196
72.06360415
176.3756954
87.47230907
79.02632141
225.7924648
183.1829039
89.27440454
222.421543
227.4546756
101.0316891
200.6006313
219.7315263
111.4593011
1001.058052
852.1018828
180.6649615
197.5594906
140.2900099
624.356471
980.3739347
527.9195479
176.3429761
178.7328024
56.37758472
48.0130761
79.82953118
44.78067237
547.687213
185.6968688
140.9212366
60.80124066
48.86514078
41.70330944
67.48544696
63.05147949
1886.280306
1331.038205
184.7166277
74.95798535
64.79270252
43.06048086
74.33898829
68.1793841
83.70320431
239.7896014
215.7876527
1049.600085
1459.455546
188.2977499
82.86051111
77.57658411
44.42918252
83.26110929
75.41348018
94.75452786
342.9143055
275.5492664
583.4582444
779.8732411
46.04971437
94.32104221
84.35800882
104.5128877
517.3079811
416.9581479
2358.89821
377.7456257
438.479109
48.51365923
115.7279501
95.95401898
121.2089889
1099.11107
731.863697
160.5184535
471.7670771
615.0873014
179.5808154
211.790408
110.8896566
173.2949069
1295.264756
578.3209329
137.9351338
463.4869155
903.3965741
212.8377893
193.0139593
75.9914736
252.4772719
266.6254359
217.9380231
249.3308252
1477.152195
1887.979649
207.1676504
1305.660531
1127.243355
934.2846247
1302.041147
204.397727
272.2150873
243.7408384
85.09934714
311.0109262
355.2217632
268.8101133
307.6836262
816.2218726
1026.261514
227.3683822
774.6284102
606.9964532
1114.917318
803.5537918
228.3566675
412.6753115
346.2984344
96.18629536
421.6343774
522.081918
358.1235215
417.6339527
451.5593001
561.4153419
721.2683698
526.7963701
104.8498981
3336.113557
709.978753
1066.281271
527.1710519
694.047545
3749.136419
346.9832336
371.3826518
2066.791627
8533.583107
1108.269202
122.6232637
715.9986576
1716.857233
7546.149124
1074.859793
1688.10579
735.4899818
39.87851089
62.32341099
52.43921547
66.70820199
141.8940472
96.20511101
3304.523477
582.3512268
75.39017045
190.6873616
168.22225
6036.847909
175.3273298
85.49340815
83.94935719
5989.944516
846.2713541
940.1847502
646.2944929
307.4876624
335.1445245
165.2039395
145.5580843
68.38928361
1414.18965
256.2331414
598.1943197
155.0617558
409.8463092
127.2766944
960.0084929
1230.070629
208.6959535
463.5518965
395.3521953
586.667388
476.3750176
211.7807418
1416.46928
4637.277829
865.7313187
79.92461135
63.40484677
100.8030958
162.2676529
75.39763507
81.38784418
4589.750264
383.1997992
3244.908033
431.5077438
2376.466964
345.0021073
1529.744774
1509.230542
1216.655722
1245.350572
2373.343459
5121.165618
657.364993
2868.718436
1549.799596
5752.978757
3372.83072
686.1070983
453.1861272
180.085774
188.0242794
711.8269893
806.8846983
5412.607235
788.2076293
233.3240527
246.9540769
216.9667944
228.1836476
785.1834393
1266.515396
1415.237072
193.4960776
904.9341137
737.361702
1368.233211
905.8327936
197.5107514
142.6925175
439.9484875
207.9259582
653.5668372
471.5845323
152.8058747
627.0825635
929.8157331
906.8793398
858.4078307
253.5657362
1498.217386
254.0136426
232.9981369
1448.176642
1388.269099
1492.463908
1455.158294
236.9813221
1571.353061
1588.245179
1199.955295
403.1349996
392.6800947
405.2664112
404.7372731
1190.8419
1104.86792
357.5012598
327.1439205
387.494722
366.4446191
1125.0863
331.24697
334.1156535
285.2939375
287.6902546
867.1061778
5950.337402
883.3584539
451.9074273
458.6823929
387.2843648
391.358353
1462.872856
1066.330721
506.7082883
1304.913175
2195.098628
578.7549217
202.9776652
213.1218851
190.8739384
199.8250262
570.1408927
1563.494198
754.8412434
767.3221907
563.9958159
568.5896742
6157.030588
1178.70505
609.7190688
682.8934174
252.8510774
264.0999479
1358.833886
2737.358412
1976.363354
3023.984238
1110.318367
6727.48654
3282.91503
5807.206794
1106.448698
823.3242835
4252.746624
2449.177226
4045.744608
2226.690446
3015.105642
50.77301416
121.9697559
118.6194641
176.3119456
4216.475243
7873.000031
377.4693873
161.9215656
172.8822868
1224.147848
3431.22207
4650.042111
531.9477307
586.3359019
1105.589062
281.9454525
298.4806946
628.889635
156.1002125
114.0548296
235.589547
458.9924262
143.7720467
169.553639
1773.882514
4433.893533
4605.456225
1421.340121
1123.068979
3177.071276
2305.191549
5352.33478
5260.011577
1391.158416
316.0195737
148.2422685
153.2957496
142.0064738
146.6330639
310.1494896
170.7995167
177.7403642
448.5565982
1015.310287
416.6382559
435.4098837
6428.562451
3424.48331
570.2763747
1123.185983
4028.234139
4428.762102
623.1932768
262.1666003
219.6445431
314.8242884
276.7472215
652.6994507
1520.582467
5283.799697
5361.068357
1793.053653
259.2610883
136.2661849
140.5433146
711.5257575
698.3096162
345.8598543
2176.142488
1994.512526
964.8002398
697.5400586
362.2793746
376.6301205
992.2008117
397.130921
404.1181974
381.635533
393.4776189
973.0353913
375.4530262
162.5082376
168.6660051
155.0510121
160.5636891
371.041926
433.6618165
1017.926674
1008.429805
1596.41855
1550.650075
501.21917
369.344252
748.2733107
713.7317023
1004.309885
997.6818512
406.2073726
490.327643
1026.692493
831.5149393
6204.781222
2382.263046
732.9842582
904.3500038
542.439495
1628.647079
1603.573372
1634.450877
611.4825875
5265.903744
8688.999471
331.4363101
376.2122276
442.4167857
459.2489328
1116.296522
2243.825823
1364.537108
662.7004183
1734.394103
8262.626501
2041.665434
1858.457869
15887.33807
1085.061753
1607.666909
2016.258022
2449.725356
1823.230513
5994.891869
6076.826666
1495.445677
1971.739764
6196.258794
1466.312726
1402.438709
401.2347218
1489.62384
591.4664437
1477.635991
437.8408079
4645.361504
3303.855786
1084.499093
5345.647318
6164.073626
4853.723282
3583.8193
1188.160182
4996.512794
6082.488386
3543.32563
4767.891181
6451.586893
2360.065686
3199.188224
1639.451714
2115.844556
5804.901792
4698.429559
1344.399719
821.16956
2199.104963
1481.654629
738.57032
463.2066086
1345.623517
4784.151757
6083.383414
1685.590568
1442.268441
4657.038087
4794.578047
3494.616744
3289.422126
1150.585668
5615.671785
5513.917522
4103.801917
5459.911624
5471.992912
1353.188752
5399.102163
3592.826406
3486.094209
3916.093489
2136.220646
992.3075905
1072.966863
4428.698698
1255.477282
1423.580878
1105.751384
1205.874628
4157.68542
4070.096868
1156.042718
1372.489946
389.5788052
410.1481849
925.512336
757.9421658
369.727209
384.4470277
1372.72285
1385.090058
894.1722154
330.2445658
352.3481315
303.1175257
323.71685
886.8759827
954.7204702
396.9401835
431.4968989
360.390129
387.0658123
961.5108072
588.4907054
276.3087679
297.0429987
844.9731066
878.2313081
2864.491462
2987.346876
1064.461495
4280.70749
4334.382037
5495.538116
2932.432416
2440.917277
4191.057903
2896.846969
719.4497194
2044.761224
2733.315113
1536.901187
538.0965139
602.7786377
513.0189767
527.16878
1501.971876
652.4028566
663.0169152
623.9399971
648.5288064
1428.130123
461.6833933
474.9625877
440.0324862
457.00727
1419.59012
1476.736736
496.1399005
508.3374858
479.2963128
491.9747547
1473.891554
5151.968743
5229.130739
1534.232851
1719.960332
5436.969081
5129.138285
968.8059925
973.3891402
943.4728885
967.3508552
985.4584045
997.7388068
975.1068361
982.9274942
679.7350607
690.078014
666.3395833
676.2112808
730.5605059
900.8824628
695.1161599
707.7794588
1869.34156
2195.920025
1484.24693
1737.159561
6186.966738
3500.69878
3851.957965
2351.630151
3380.549576
1031.042969
1023.686014
438.0148513
1626.498177
1630.9522
1594.749931
1617.309693
1675.564156
490.2833202
1515.171112
1083.811733
968.220845
768.8423026
373.5077277
1045.654041
1500.923527
998.4422717
1055.591098
1559.882729
1583.100968
1520.320508
1550.138193
402.4933427
995.6634551
986.2664901
6231.451076
1556.137725
6143.461599
5310.827978
6122.183535
1670.232712
6414.527886
2108.099117
6149.628754
5376.550514
739.7066306
820.2073732
1661.720687
1633.717667
547.2200623
595.5975127
1725.716124
1664.4021
6095.876066
1156.707799
471.1849446
514.0876337
6217.179784
7021.909516
1808.720467
7615.908084
5605.190742
2520.560225
1086.662894
6710.563536
4056.010875
7404.657322
4478.323572
1550.624271
71.31621595
45.44094062
38.1718646
6152.192676
6126.651746
163.6228045
85.32869755
85.64879141
6389.102693
1130.99431
3264.855019
2404.278392
385.5646596
321.6544574
190.0612188
379.0328612
256.9954962
606.9309338
2184.725274
369.4400296
408.3285643
58.24704621
69.29595402
140.5694504
477.5319001
954.8198985
1413.479953
228.6971703
125.9202584
129.6451371
120.8471795
124.6837645
225.32018
988.3835492
1102.554375
3584.455279
793.9418569
698.2647481
410.4687992
352.0316568
365.335893
752.8989454
1537.583762
1966.367824
676.441869
130.9294497
134.9042375
255.3972086
319.8606948
665.1772585
639.7747536
618.1732213
552.9022044
298.1640198
643.6391301
333.8854211
347.629934
4899.940439
4613.6888
3007.723293
1642.869274
1621.36303
1044.148537
4240.565018
6049.670199
5476.925387
1530.40417
871.8001398
963.7534981
1719.853192
1079.892753
1676.207216
1663.465095
1688.059901
3545.322104
5849.427353
4041.48344
4452.008409
5927.176162
1804.70048
1444.901372
857.1464708
1433.857626
204.6157837
161.3985547
292.9727363
1047.746714
2860.374122
2002.088244
6231.499011
6559.609553
6696.819517
5588.131455
6395.987182
105.398809
136.6518196
360.1628204
3729.991
2441.278101
1881.959295
4909.895986
3789.543815
2612.031661
4590.280293
4202.447648
6363.950567
6042.668778
4512.487139
900.5666183
969.9125276
1959.641584
5906.698093
3319.076505
3670.227428
4781.776945
3063.164407
3517.68908
1314.314177
1725.865704
1405.719064
900.4768742
622.9617422
630.7801939
1332.676402
840.7413814
882.2499824
635.7880672
645.9244193
918.0044664
244.7471109
270.1511339
561.4504813
704.9408395
1242.80361
913.3205964
1392.74626
1443.634501
935.6065519
1829.489242
1346.813543
1396.966211
953.4668033
955.1612668
1501.777346
1491.273176
1503.226772
1427.304316
1447.135012
1439.888971
915.751583
918.9954672
899.0061804
903.9802045
1400.516674
1487.531853
944.530827
947.7602034
922.5533627
926.1857881
1461.610763
680.0279375
669.2084389
322.7482792
342.9815575
694.6945795
683.5163711
523.0350655
511.5289291
278.0249782
1533.340772
1535.193366
1507.398372
1511.336837
1874.439367
1541.507534
1542.279074
295.4188987
541.8655939
527.7039322
5882.505947
5820.351526
3851.407025
4064.386829
5909.2117
5866.967078
6072.741488
945.5799345
1920.493996
1600.434748
317.8573359
329.5571683
616.3290388
552.9358231
305.1925967
314.5752935
1072.152796
1072.160506
751.7675259
769.6838678
1079.477782
1083.719731
6114.817089
1434.749992
947.0244042
934.6469764
12042.13493
2242.768832
2337.905038
5081.823825
4290.492641
1742.511233
1721.902617
1096.368019
6502.520679
7065.284379
6760.076227
5375.833502
1162.79893
1786.329744
1732.111523
3305.049678
1249.71725
1494.731144
6035.494993
5954.614478
4746.140099
4440.096993
2723.338312
1453.71068
2065.871446
1634.232048
3914.028272
6094.278546
5280.340151
6170.705997
5920.179538
4370.16277
234.5182493
336.9940174
1153.232822
4602.12685
4507.196836
4690.047229
4679.931833
4527.663342
2920.725355
2898.056638
2940.279979
2923.611174
4525.535346
5392.780965
3023.105089
3046.310648
2898.323601
2984.111939
5481.888119
4202.632528
2652.057124
2385.685919
2877.840281
2801.430286
4305.731104
5265.267573
3104.385419
3126.407068
3073.053657
3085.233926
5313.017168
4790.473686
4709.24267
4890.996152
4667.108806
1016.322298
717.5286434
720.9383094
1582.78899
1022.126913
1025.723536
996.6412218
1016.163462
1571.963578
5944.289058
6144.985673
5459.384865
6014.820952
1642.622962
1655.791847
1615.192943
1629.514547
2076.163217
992.0706589
1578.093348
1518.33976
1619.097969
1030.830041
1034.053261
1027.200296
1029.419484
1612.814634
1554.869022
1594.867619
1103.457386
1496.399425
2051.140032
6370.136111
5999.429232
4729.607558
6183.447358
843.5094905
1175.296511
12930.53928
1118.241543
778.3282581
781.3397722
1738.329817
7931.284993
8211.43709
9432.050911
6156.53483
5855.799446
1691.305437
1680.169013
1080.593148
1653.507712
2975.710584
4300.876455
3011.897271
3967.2377
2983.070026
1223.204839
4057.924143
3040.489649
6053.730713
6271.593679
6146.610753
4774.380102
5400.745072
1431.948838
1748.864648
1353.24973
678.2015566
884.9881445
1334.349963
1426.133194
914.1576718
1306.660268
1699.246081
5993.42744
6250.371541
5905.796136
5579.00223
6330.28103
6282.587137
6147.790349
3956.996002
5464.998794
5018.596144
6100.198103
6303.057731
4357.099813
4642.828924
5070.424973
6356.307312
5245.951278
3893.881337
4200.901937
3525.296827
2524.126121
3523.634004
1864.149137
2716.771113
3661.52229
4010.532557
3688.394086
4952.025084
3123.456625
2964.499636
4260.171293
3079.8827
4568.171265
4697.313786
2958.841586
2944.268662
2984.591228
2955.062174
4724.653636
3421.696261
2022.203499
2058.282476
5553.155796
5543.785031
4780.843831
5912.721985
5716.48165
5591.086337
5550.362193
5784.220321
4513.749974
2421.374048
2702.960316
2113.453934
2220.084105
3864.938587
6070.780595
5150.807469
3002.025507
6390.668021
6120.755928
6100.972808
4115.313215
6065.146523
5868.891096
2502.573975
2832.278937
5117.928108
1351.618032
1400.860466
693.5047527
768.3383974
1287.016751
916.1528211
649.973492
673.4975624
1352.922109
1320.277691
799.1516619
1378.611733
1717.139354
880.8861579
1396.076658
1384.426434
2863.582989
1946.082068
1915.826356
2140.681703
2070.463901
3027.694786
4548.151095
4248.82262
2742.132651
4087.610623
4298.054808
3825.904584
4043.0256
2695.132453
4095.025703
4001.956281
5225.360421
3827.78591
1009.173486
1001.27381
1463.94824
1509.029595
965.1856678
961.616634
1475.374372
1485.273146
1457.84445
1467.91378
911.0948636
913.7279874
1436.902826
1410.348945
906.46169
908.6787333
936.6225726
939.9188712
1481.00227
1468.89321
930.0945493
933.430345
5199.003815
3183.586977
3202.623012
3140.569199
3158.652152
5183.785824
5169.228228
3524.034691
4079.25558
3243.385926
3323.69064
5151.597464
970.4537341
1515.56967
1506.600779
1528.21153
1522.297451
971.799588
960.0354731
1475.703284
1459.258017
1498.080848
1487.950056
965.0801473
989.9216783
1567.003627
1558.371845
1579.593793
1571.231203
992.0615701
977.2346603
1539.637982
1534.512781
1553.277031
1545.433617
979.4745087
1524.792471
1527.877724
683.0514093
966.4387848
964.4270229
971.5362273
969.9129958
687.0045499
1516.659712
1520.195853
1581.069865
1502.696793
750.6364156
1021.907487
1031.268983
1426.417063
1376.238158
825.3066299
697.2491851
977.1945156
976.4965334
983.2775646
987.018387
706.431145
1551.26088
1544.498161
5816.327202
5683.766733
5991.531022
4345.544535
5030.17472
3629.223852
5722.537638
5791.389171
5705.590227
5719.236441
3697.735955
2629.546043
4948.089781
4244.244836
5616.958874
5757.907109
3052.072605
1035.144019
739.464888
741.0478762
726.8517349
729.1800809
1024.106867
1626.841756
1639.295921
1599.85563
1614.879252
1585.727125
1997.835573
1454.992226
866.317806
949.5377313
765.8334451
787.2253165
1073.373884
1412.549318
1930.711484
1541.017128
1466.935871
1009.136715
1591.658777
1580.036142
1624.920718
1584.542645
1005.329
1566.603773
1577.023478
1531.652175
1542.180801
5912.538748
4040.193499
4271.494563
3116.043534
3630.759825
6015.257145
6107.078981
5913.011448
4634.284645
5199.288885
6420.754521
5975.827619
4637.646855
4878.376147
3800.624002
4231.783548
6150.127442
1685.335407
1686.37006
1669.578064
1672.790553
1122.768618
1134.079399
797.3744994
1743.830269
1651.089827
1702.946952
1694.137761
1648.296002
1042.169309
1049.261641
1035.749375
1040.600643
1644.951881
1681.531511
1061.338803
1114.866082
1050.638411
1064.168608
1684.640482
5911.333769
807.2766833
811.944254
1159.263922
6073.321021
8789.093684
9104.524534
8750.95018
8690.321004
6676.202447
1758.711981
6663.799898
4898.392929
5272.543331
1094.340413
1713.693576
1698.734484
6667.616388
7279.145131
7043.971898
5808.129475
6308.699866
7711.920475
7349.439972
4843.428349
6959.440513
6052.680381
2111.316744
1703.218322
1152.029307
31.77001816
31.78223796
31.8654332
31.78745827
31.81013037
31.87920145
31.81906795
31.85586694
31.90207946
31.86867
31.9164063
31.93279839
31.93015744
31.96711184
31.96120816
31.97504068
31.99479561
31.97870064
31.99556973
31.98448853
31.97379434
31.97668653
31.94174458
31.95102908
31.92926299
31.88571522
31.92093727
31.87325067
31.83601359
31.89422566
31.66008793
31.68614223
31.75629254
31.6979289
31.74786287
31.79029357
31.76860749
31.85005085
31.84596234
31.88186235
31.9836753
31.92048354
32.00815795
32.08515769
31.97815947
32.10798575
32.12876691
32.01345676
32.12071264
32.09282382
31.99631766
32.07256712
32.00228703
31.94666419
31.97629489
31.89215452
31.87960845
31.86623472
31.79277735
31.82114313
31.56507589
31.61948777
31.66590103
31.64494645
31.75090479
31.74047349
31.79870581
31.98605277
31.86495318
32.0587117
32.29658391
32.02961608
32.35735887
32.56677054
32.16506177
32.59002173
32.62933104
32.20101422
32.56774147
32.47270773
32.1423257
32.41122949
32.24411636
32.03272216
32.18539337
32.01005371
31.90791374
31.95637061
31.81598953
31.79180662
31.49178259
31.59419347
31.6083296
31.6432132
31.8727808
31.76745944
31.98236733
32.4445222
32.05885047
32.63878065
33.40962044
32.42991165
33.58088721
34.27239398
32.84854134
34.37534662
34.38529424
32.82944834
34.06939202
33.58166553
32.6232378
33.37439766
32.88012087
32.33401101
32.73241501
32.33954942
32.06462322
32.22716589
31.95395616
31.83637256
31.44680259
31.62433904
31.59625135
31.72106374
32.18740274
31.92988653
32.42262608
33.55063979
32.63675614
34.12649612
37.14925445
33.84268969
38.33515803
45.41563828
35.32131388
45.40954041
42.61275689
35.14044557
40.1448064
36.78039782
34.03400155
35.93976737
34.30855117
33.09972808
33.92351555
33.02885698
32.46163513
32.79280739
32.25026164
32.0078705
31.42540524
31.71755928
31.64118323
31.87813097
32.69490867
32.29273284
33.14020045
35.53148726
33.96388697
36.96978996
50.34997085
38.53098618
46.17242033
53.39851806
43.60814213
67.77904335
65.31816725
48.3659859
51.83796578
45.20411939
42.10407151
42.18366417
37.09390045
34.79771176
36.14771822
34.18937985
33.25624385
33.73604405
32.75042137
32.35154492
31.42474691
31.84744838
31.74230323
32.07948662
33.27627213
32.82822519
33.94133634
37.62040802
36.09195966
38.55106124
41.3279864
40.27636044
62.06306556
71.34310765
67.40832756
104.8196407
72.96385327
60.33395088
52.66074802
41.29988818
37.94668299
39.43088088
35.8549557
34.54959873
35.08020669
33.4408186
32.90217969
31.44489924
32.00102611
31.88532202
32.30088181
33.81926529
33.41825839
34.64852843
39.08336274
38.03849399
40.89465636
44.45207606
43.82581887
73.78209236
88.13216595
86.69474687
168.8953979
102.5910548
91.95097104
63.01808952
45.87421484
42.32425727
43.05335594
37.70936512
36.25689457
36.58020113
34.22911264
33.62887621
31.47985052
32.16221191
32.04153985
32.52244122
34.29961774
33.94534876
35.24656098
40.1700355
39.36806159
42.40282244
46.41778601
45.93783127
81.19783022
108.4764649
105.0911456
190.0246772
118.6816951
114.4350779
69.72879592
49.60843808
46.76225736
46.10535796
39.44401256
38.11334393
37.99575529
34.99184827
34.41599089
31.52458847
32.32464009
32.20517449
32.73892024
34.73786242
34.41355426
35.78389693
41.17420407
40.40627039
43.72455734
48.31537714
47.72468957
91.97164657
125.5040131
122.0271206
182.7539042
121.5462478