/*--------------------------------*- C++ -*----------------------------------*\
| =========                 |                                                 |
| \\      /  F ield         | OpenFOAM: The Open Source CFD Toolbox           |
|  \\    /   O peration     | Version:  v1912                                 |
|   \\  /    A nd           | Website:  www.openfoam.com                      |
|    \\/     M anipulation  |                                                 |
\*---------------------------------------------------------------------------*/
FoamFile
{
    version     2.0;
    format      ascii;
    class       volScalarField;
    location    "1.82";
    object      k;
}
// * * * * * * * * * * * * * * * * * * * * * * * * * * * * * * * * * * * * * //

dimensions      [0 2 -2 0 0 0 0];


internalField   nonuniform List<scalar> 
12556
(
36.90869903
36.90875783
36.9088723
36.90909316
36.95450534
36.95536225
36.95687398
36.96007788
36.96612824
36.97590441
36.98845203
37.00141395
37.00548122
37.00361124
36.99258562
36.98057566
36.9699355
36.96244549
36.95839121
36.95602227
36.90989697
36.90907947
36.90867873
36.90842448
36.72749508
36.72774244
36.72811204
36.72893726
36.77492836
36.7792153
36.78777087
36.82233809
36.85013205
36.89543604
36.95684318
37.01166149
37.03097179
37.02606759
36.99102272
36.93275766
36.8791083
36.8413835
36.79715887
36.78340965
36.73188199
36.72922636
36.72793851
36.7272385
36.54752968
36.54813557
36.54915612
36.55121083
36.59888688
36.60941342
36.62950947
36.68285706
36.74895698
36.85444076
36.97030733
37.05810303
37.09663432
37.08826923
37.03169643
36.93250747
36.81704226
36.73009691
36.65142945
36.61984329
36.55928769
36.55289697
36.54990914
36.54870127
36.36895875
36.36974285
36.3715866
36.37598469
36.42722139
36.44866633
36.4923693
36.58002855
36.71521579
36.88234873
37.0513939
37.18661506
37.25301179
37.23949525
37.15099123
37.00043185
36.8289471
36.66966212
36.53479608
36.47259981
36.39331689
36.3811272
36.3752171
36.37291666
36.19221811
36.19350617
36.19695636
36.20576959
36.26302846
36.30128375
36.38304869
36.528672
36.74055798
36.98196369
37.24113407
37.47379623
37.60332963
37.57599022
37.41866647
37.171448
36.91026261
36.68035339
36.46271008
36.34721591
36.23728593
36.21390515
36.20326485
36.19912714
36.01682274
36.01883389
36.02466925
36.03924557
36.10807554
36.17234174
36.31326529
36.52938989
36.8157538
37.1694001
37.60569527
38.09952218
38.42679501
38.33338191
37.94242855
37.50312307
37.08639355
36.74481698
36.44254192
36.24929659
36.09325088
36.05137473
36.033414
36.02640771
35.84387361
35.84727343
35.85711401
35.88082511
35.96461067
36.06329895
36.27985352
36.56305295
36.95065838
37.46911629
38.24403217
39.55254031
40.32434894
40.1449487
38.90534788
38.04585895
37.37236182
36.87002007
36.46059277
36.18367501
35.96050246
35.89407261
35.86551174
35.85443372
35.67438564
35.67952355
35.69440164
35.73076333
35.83195473
35.97574309
36.27648982
36.6252275
37.13237203
37.8630731
39.14967256
42.07814802
43.04999235
40.45887976
38.82021156
37.76388203
37.05081875
36.50877725
36.14686112
35.84210892
35.7436113
35.70068595
35.6842368
35.51111473
35.51899458
35.54109834
35.59354609
35.71192631
35.90898426
36.28736189
36.70794419
37.33717002
38.27143523
40.00016811
44.3547428
47.86279368
42.35867307
39.74673686
38.23272883
37.27237878
36.57882266
36.13289865
35.73854572
35.60205789
35.541708
35.51866957
35.35568852
35.36648857
35.39622913
35.46580782
35.60711981
35.85979779
36.3081289
36.80148036
37.54052027
38.63385801
40.62179272
45.3897302
51.19572626
44.0819458
40.66425158
38.70981818
37.50832433
36.66319509
36.13656964
35.6514761
35.47316778
35.39255006
35.36171694
35.21087052
35.22570333
35.26516499
35.35550557
35.51689663
35.8243933
36.33557967
36.89686917
37.72905151
38.94574412
41.1160289
45.73236765
52.82840946
45.35601974
41.42749744
39.13393648
37.73263953
36.75079345
36.14928366
35.57973753
35.35880806
35.25705088
35.21754864
35.07640176
35.09476422
35.14286093
35.25268412
35.43847202
35.79831243
36.36612848
36.98849423
37.90236272
39.2260631
41.57041665
45.40082469
53.52888773
46.17344174
41.98600293
39.47180157
37.92745876
36.83234934
36.16385913
35.52399402
35.26016248
35.13704158
35.08852743
34.95309188
34.97598708
35.03600903
35.16724065
35.36794998
35.77620492
36.39219252
37.07503488
38.05925255
39.4858811
42.05299163
44.84372022
45.50688361
53.34678875
46.61833646
42.3434054
39.70219844
38.07898803
36.90070987
36.17701552
35.4757361
35.17594951
35.03212631
34.97498935
34.83818743
34.86512296
34.9354255
35.08361009
35.31556573
35.77342052
36.45178407
37.17573534
38.22999387
39.7769565
42.59309219
43.38692583
55.63017526
53.32813916
46.77958046
42.48773313
39.83927703
38.18923762
36.95305266
36.18538188
35.43068089
35.10183462
34.93937406
34.87436224
34.73013861
34.76081721
34.84024118
35.00375519
35.25552584
35.74974906
36.47810727
37.26472494
38.40325192
40.0549872
42.93011243
39.68733768
55.73549394
52.71160907
46.56658863
42.46114428
39.88638011
38.25798388
36.98279138
36.18048732
35.38577406
35.03311311
34.85467111
34.78295561
34.62494601
34.6590052
34.7461731
34.92342351
35.19342033
35.71552813
36.4824971
37.35368173
38.61223402
40.41349565
43.19986913
34.45275904
53.84345934
51.38262686
46.01105956
42.27563903
39.86450655
38.27862773
36.98657552
36.15582243
35.33305621
34.96294356
34.77283745
34.69553475
34.52129358
34.5582406
34.65143132
34.8398258
35.12518486
35.66707085
36.46412961
37.40300209
38.82395492
40.82585021
42.91481822
26.86850731
52.42870066
49.75532341
45.18600575
41.97888889
39.81097063
38.26310811
36.9594762
36.11142234
35.27180461
34.89012522
34.69011623
34.6081726
34.41504649
34.45439208
34.55225054
34.74982829
35.04810679
35.60249345
36.41718616
37.38372761
38.91941669
41.05864803
41.7066949
26.12262016
51.00433839
48.22619079
44.40104127
41.67113082
39.69318264
38.19049408
36.89073305
36.04134456
35.19536955
34.80700217
34.60209002
34.51662909
34.30704795
34.3482635
34.44930258
34.65328252
34.96084118
35.52181631
36.34518089
37.32465886
38.86337708
40.93251042
39.65181398
28.36175831
49.62060335
47.10585655
43.85799211
41.39697342
39.52043304
38.07064186
36.79246777
35.9504583
35.10608382
34.71511373
34.50724387
34.41970518
34.19335193
34.23598189
34.33933623
34.54833924
34.86327751
35.42638194
36.25158281
37.23503289
38.75470473
40.62115235
38.29380214
28.48250055
48.36247151
46.37054248
43.42042299
41.10795206
39.31917266
37.92035551
36.67183031
35.84176522
35.00383878
34.61282418
34.40349473
34.31456068
34.07757443
34.12116724
34.22575398
34.43722703
34.7560096
35.31813194
36.14053068
37.12193095
38.61042392
40.24444242
37.09935569
28.00273358
47.18497403
45.69037188
43.006381
40.81892248
39.10477711
37.7516502
36.53457553
35.71865375
34.89127482
34.50258499
34.29296088
34.20318798
33.95486564
33.99910139
34.10461878
34.31820166
34.64024709
35.19920626
36.01580464
36.99109188
38.43912998
39.82802972
36.02066001
27.4651676
46.0815654
45.05015591
42.61469658
40.5373469
38.88614572
37.57276108
36.38541779
35.58446767
34.76862686
34.38289962
34.17340634
34.08312602
33.83203619
33.87660434
33.98227881
34.19566511
34.51733683
35.07174974
35.88064879
36.84701188
38.24733006
39.39465609
35.05632202
26.87080028
45.03684714
44.44322844
42.24142413
40.26607943
38.6685169
37.38916702
36.2284014
35.44213734
34.63988159
34.25842752
34.04953863
33.95899729
33.7015074
33.74625155
33.85223887
34.06630695
34.38889866
34.93779449
35.73779312
36.69326451
38.03966086
38.95622981
34.20250866
26.23039875
44.03924991
43.86379155
41.88334441
40.00517758
38.45477672
37.20437923
36.06673543
35.29417442
34.50385354
34.12591273
33.91741661
33.82666831
33.57433885
33.61906627
33.72470128
33.93699266
34.25618382
34.79911434
35.58955092
36.53255664
37.81908941
38.51891317
33.45145194
25.55040603
43.07733396
43.30698853
41.53817437
39.75364334
38.24626773
37.0206533
35.90279811
35.14253794
34.36593701
33.99266404
33.78482102
33.69394392
33.43778127
33.48245295
33.58820851
33.80087114
34.12056642
34.65717207
35.43774815
36.36673709
37.58777308
38.08771853
32.79509684
24.83891485
42.1485939
42.76873983
41.20398426
39.51031392
38.04337567
36.83932411
35.73825506
34.9888264
34.22200489
33.85153632
33.64378802
33.55267646
33.30954819
33.35404193
33.4592081
33.66903252
33.98277348
34.51313857
35.28374807
36.19700749
37.34826369
37.66665726
32.220411
24.11461998
41.24792944
42.24584362
40.87909048
39.27416856
37.84603791
36.66114765
35.57428015
34.83415299
34.08045951
33.71455974
33.50723799
33.41591504
33.16812115
33.21246182
33.31772223
33.52827045
33.84391891
34.36790079
35.12848353
36.02414843
37.10322866
37.25780813
31.71655248
23.40502505
40.36975983
41.73550303
40.56195505
39.04426604
37.65394747
36.48647946
35.4116471
34.67950186
33.93186334
33.56745211
33.35976971
33.26804602
33.04219178
33.08630192
33.19086886
33.39766274
33.70415573
34.22212751
34.97259824
35.84878428
36.85500056
36.86208741
31.27231095
22.71555642
39.51405444
41.23592949
40.25128029
38.81977856
37.46672114
36.31545792
35.25087591
34.52536433
33.79112136
33.43124218
33.22372892
33.13164429
32.89576679
32.93969209
33.04434535
33.25256593
33.5645902
34.07633766
34.81652244
35.67147047
36.60561534
36.48000312
30.87820341
22.06084821
38.68112414
40.74520724
39.94594137
38.59994
37.28392383
36.14805955
35.09229163
34.3724287
33.6387256
33.27870819
33.07040665
32.97772237
32.77585383
32.81955536
32.92353108
33.12721273
33.42477762
33.93092932
34.66058039
35.49274618
36.35655547
36.11162622
30.52338974
21.43987717
37.86940745
40.26277019
39.64498407
38.38406153
37.10511882
35.98418605
34.93610665
34.22073066
33.50325435
33.14794293
32.93957047
32.84639025
32.62261416
32.66612794
32.77010421
32.97582054
33.28620303
33.78628104
34.50508232
35.31315784
36.10891567
35.75670518
30.20054336
20.85608287
37.0785887
39.78835703
39.34764707
38.17155012
36.92989123
35.82366297
34.78245773
34.07098877
33.34507973
32.98802949
32.77857041
32.68459705
32.51345273
32.55677863
32.66025385
32.8613406
33.1476693
33.6427443
34.3503899
35.13321743
35.8633976
35.41493869
29.90908329
20.31581322
36.30866923
39.32159989
39.05330878
37.96187895
36.75783541
35.66627361
34.63150027
33.92283404
33.22129218
32.86883945
32.65903397
32.56449253
32.34936114
32.39250743
32.49577799
32.6981744
33.01184761
33.50095848
34.19702752
34.95344768
35.6207061
35.08580984
29.64456027
19.82493158
35.56015437
38.8608754
38.76157939
37.75465139
36.58862987
35.51190536
34.48365091
33.77769075
33.05069341
32.69621225
32.48519638
32.38966636
32.25734812
32.30038086
32.40345049
32.60383153
32.87704593
33.36213615
34.04643033
34.77428389
35.38143471
34.76886873
29.40273219
19.38878728
34.83505123
38.40579309
38.47230367
37.54956439
36.42198825
35.36034027
34.34016637
33.63559052
32.95020115
32.59747295
32.38579671
32.2896899
32.04768432
32.09053821
32.19334394
32.39397431
32.75025646
33.22946239
33.90346173
34.59657944
35.14698214
34.46625848
29.18199175
19.01219627
34.13990707
37.96117266
38.18734783
37.34709192
36.25799923
35.21152535
34.20511541
33.502253
32.73070603
32.37605764
32.16261576
32.06510976
44.17474666
48.41400989
43.4394963
45.29389851
52.09192936
48.87197171
45.73845551
53.79232323
52.39715889
45.46308236
54.47969223
53.90664085
44.88186496
41.25645511
44.50106982
54.78694653
54.52064113
43.88929056
51.45175493
41.59892526
55.18364072
55.26935017
54.81144223
41.68291879
40.2890563
42.93141625
40.0472343
52.47815687
45.19130737
47.33111713
42.81303088
41.05160865
40.48332819
44.27959144
43.37892082
56.19310075
58.42996673
50.89139341
44.9608701
43.38908657
41.00170619
44.93611454
44.3834944
45.61893463
47.67594963
48.67882826
54.83394486
54.31139787
52.69509795
46.5149192
45.40563169
41.47161115
45.08611503
44.98155083
45.65409122
43.92125167
45.97108848
56.41252698
55.48303679
41.94541317
44.93350935
45.08216644
45.17017499
39.0524432
41.53237865
39.71774898
57.32375717
57.08314841
42.49601408
44.43017923
44.8962732
44.52624271
32.8024149
35.70753624
42.36954224
53.51705208
51.84551772
48.73577476
50.71438973
44.26191387
48.28769286
58.34761326
52.82037588
46.26445401
51.74392799
56.95737259
48.80270183
49.52029763
44.92556907
50.23831503
48.88365535
50.86598171
50.39077261
54.4067719
55.95897837
50.68017791
57.11859355
56.06524495
57.15989776
57.23550931
50.430387
46.16854128
47.50487975
45.67287856
47.1375096
45.23902054
48.79561095
47.25514575
55.31044625
54.92546159
53.32649171
56.5921967
56.84615584
56.0093074
56.54703567
53.13939738
41.670033
43.79414522
45.61374252
42.80492705
40.21986757
45.11185997
42.9480721
57.03658049
56.51318679
35.86655728
38.87198782
45.13751558
41.27233923
36.86783749
33.53077615
40.07213429
37.08478086
42.50290157
57.57935689
57.35309575
39.54583
40.33386514
32.74444606
44.47764561
47.93395746
32.08902861
80.19430962
33.4383071
32.1051736
47.18589545
39.81150417
43.20679238
41.37454794
43.16802437
47.18463329
43.80725609
65.11151726
48.47285418
44.81420575
49.59505026
49.38354336
50.50324974
53.48858834
47.49507257
46.80332876
59.39042196
48.79749938
47.14319255
51.24980448
57.89729953
57.67479321
49.21469346
47.53049208
43.46570862
56.90326821
46.58720562
54.79681167
44.78301466
50.71947749
45.619119
46.67445585
42.75565267
54.27345174
57.11062303
57.23179374
56.87757584
57.09133482
54.20444893
39.26109109
51.72537441
43.62790171
41.96557024
41.54936926
43.75458322
44.5540196
42.00743122
41.98527007
70.21098342
49.31187931
64.74283349
47.36728119
60.80788608
48.41894739
57.89980513
58.0554301
54.48796242
54.4545134
40.96482451
46.87115688
56.06023838
41.49658642
41.76040777
48.85666247
41.78201748
55.93760274
40.40117963
44.68258268
44.32019442
51.95338339
49.71934767
52.69178779
34.71422662
42.43883098
41.9322718
43.08471136
42.62140584
34.85189463
61.57084031
57.41051055
49.74813675
57.80671614
58.85920559
53.07310702
57.44167517
50.01635891
46.11959769
52.26575088
45.90113952
58.01122407
53.09804549
46.75541434
55.57707043
61.38790535
56.4301223
56.03566246
49.6023542
45.3830885
49.51595243
50.86741334
48.9909092
52.48016735
45.80141284
48.53583407
50.77103826
55.29723547
55.43422013
56.61938568
54.8851004
54.28626032
55.46933505
55.04890653
56.53564704
57.84267156
52.92200553
51.85468816
54.05545222
53.23384242
57.82918407
46.27334795
46.15064103
48.12715606
48.02999048
55.50057165
49.62818674
55.4276112
41.78250685
41.60532078
44.0933773
43.94647121
42.11551618
45.79569702
56.77926203
42.14661025
40.82310646
37.71255341
43.67031511
43.23717069
44.19537157
43.80610011
37.86797267
39.21474687
35.95597428
35.81031804
39.03649694
38.88960944
60.87746452
39.77969279
54.17837633
52.59381882
41.73771479
41.25714968
32.29691375
32.97899365
41.21092018
42.68488717
32.99042535
75.94081607
43.45542773
66.34057779
32.91456206
44.54676214
48.21282875
40.7917042
64.57165646
39.89527917
40.67999007
42.85692103
43.91142441
44.32458189
42.85470409
35.13400108
41.9594713
56.23135143
54.65255906
55.19236884
56.0655168
41.3249533
45.96604172
55.64426881
54.61107666
40.26542655
58.04744769
57.96117667
51.84414089
43.7500408
43.32926806
46.09721028
47.38827912
43.53298415
43.91321904
57.00054471
60.31031072
58.89373621
58.44005558
54.60463505
44.67613136
44.83007451
48.60175588
48.03798835
54.16812839
44.83388595
46.29504454
46.02674881
46.62714576
46.38099767
44.98315822
45.13265177
44.79719751
40.54504353
33.25331788
38.83399722
38.39827282
72.60931079
53.18309748
52.24158646
57.76929541
61.91780128
60.67314576
54.36956926
49.64250751
48.10179452
51.45307967
50.12518124
54.74940659
54.74569534
49.62901862
48.9447192
55.5708398
46.76852231
46.91381717
46.70387653
41.41019793
41.94464145
45.63692748
44.98890659
45.19869989
55.12918587
56.71179384
56.19393469
56.11925679
56.00206194
55.85400991
55.57895041
56.08515526
55.9209161
56.01340315
42.74439901
45.54805261
45.23955092
45.93394171
45.64721519
42.88699206
42.37661012
36.72690821
37.08299526
33.80698225
34.07639473
40.72471241
44.68673974
40.55152378
41.26219568
37.22483417
37.62731211
43.37589696
56.8503621
46.44980641
50.81585346
65.43804767
39.66315228
36.4312975
34.5477531
39.63226379
33.48568005
33.73268679
32.96093519
38.09437292
53.53917782
38.5339854
39.88629903
39.04433372
38.25672603
37.84272115
32.58982027
40.64098312
40.91298956
50.02133207
32.03270991
93.03583488
43.10682898
41.22056268
45.77891948
33.25967315
32.22436925
58.02698575
57.38169759
56.80533502
50.5238921
50.35286985
39.76453902
39.78388262
59.76230594
54.73384238
54.61726099
49.81112948
61.1081512
49.97359887
61.56433681
50.84555918
45.4149384
41.23549886
44.42558308
49.85601584
55.54057884
50.64118398
42.34856459
39.65634315
53.09594219
65.51084168
42.49012023
49.88782931
72.40463121
39.7285935
41.3404727
39.42485504
39.56746863
64.11415258
70.45492206
57.11803068
53.10858765
61.27138279
58.00140288
52.33695572
49.03853809
55.03402461
56.41527685
55.63941592
57.31616278
58.36627244
58.46482228
56.97359054
45.86044124
44.92633357
54.54168515
48.04196147
47.91035886
45.24877343
47.55226138
47.82314878
54.21894661
47.81616978
46.23895772
41.7655034
42.43644787
41.17431616
50.66005643
49.64220661
44.17320992
47.490904
45.95398764
49.2420339
48.02482131
43.21923855
43.40496133
40.76092038
39.91697544
39.44815057
38.96363487
33.69721782
35.21933684
39.98740908
39.58455999
60.04009108
59.42064159
58.99233685
53.08040782
53.69750852
51.99070369
52.83702975
59.31565987
55.73835262
54.0300857
53.85434781
53.84618247
54.03896444
56.04517327
56.27841442
50.65818696
51.7020526
59.62863101
60.11302653
61.82626842
61.14699126
57.4662486
62.93988414
63.98539814
63.85010514
63.07112008
62.28479037
64.3231643
62.88205069
54.68194831
60.84114993
61.93141561
43.88169404
49.69082204
48.74781845
50.57984784
49.94610405
44.51116512
47.44557357
46.80167307
48.42046385
47.66750492
50.38435748
53.01549682
52.43210103
53.7145501
53.20179204
50.88279314
46.89575899
51.41835945
50.7936059
52.23196464
51.62384092
47.29322121
50.64611558
49.76807612
54.87824082
55.58350658
52.26907571
51.05069773
40.88199209
40.36167395
41.78546904
41.06456535
39.53231807
39.024647
40.19675766
39.68427324
45.77778323
45.17525288
46.59431021
45.98422933
43.97700447
42.25734761
44.95636327
44.35338543
43.80274528
43.39122412
45.52065196
44.19394935
49.78628418
43.66118447
44.75594414
43.28045161
43.36575506
36.25250971
36.58659662
42.23251395
34.2782352
34.05561284
34.60066271
34.3711738
33.93612027
40.94107317
34.20611613
35.90064511
38.51791702
40.27551221
44.54323113
38.10928849
35.62142348
38.92214665
38.1447982
34.99287377
34.70552983
35.444169
35.1033297
43.51789594
37.77157073
38.25670403
55.50954039
41.14865061
54.38435035
49.06209413
54.0326138
40.94299566
68.04997394
39.45131315
65.49139134
56.98411793
36.30526242
35.18525654
33.18724273
33.41633378
39.48564867
38.35146473
32.96561299
33.13452948
60.53821435
32.54614919
37.64702035
36.94091247
76.76498943
83.42672667
31.97230327
87.60537493
68.57512204
41.40702445
33.19238608
75.31920504
47.98925414
86.03031744
50.70446347
32.35438282
42.58014957
40.50718332
39.15866932
58.43766326
57.94412649
53.97165646
48.03784138
47.66134884
58.44915272
40.00398234
41.36146991
39.68012659
57.24370339
57.28904825
54.66212095
46.0694148
45.42656767
49.11416751
55.32417663
45.93341749
46.14574263
41.46601956
41.81999578
44.31713908
51.0226744
55.03737991
57.99833601
48.14285565
47.28205552
47.18101196
47.33310412
47.30472224
48.28505605
42.89526978
41.26959717
41.66002439
51.53962467
53.29472022
57.23317603
40.50022431
40.11412492
35.33881202
58.85569561
60.6058146
54.26963706
47.13632364
46.97584276
46.95930126
46.76872268
43.56191427
44.23422516
44.56201471
45.56986778
47.60723406
36.73265945
41.0328337
40.62723347
49.47304303
46.80520052
40.52551137
32.51197192
32.55579556
33.68531545
44.75958573
61.93983254
54.78198536
39.31648097
45.72104376
43.43856957
32.06450563
33.37545159
32.45750974
32.48737453
32.1325179
65.74459161
50.22530557
42.98719278
44.87844967
58.46463084
39.98496206
40.11576276
49.1516524
56.10065871
47.56700644
45.91086365
48.11129312
45.02003175
40.68700967
40.0646215
69.04534163
71.99231845
73.8174236
61.45899853
70.56950522
43.19458925
43.52737921
46.62468297
66.83485641
61.65144371
58.8872262
69.88013178
66.83196803
41.11941403
44.60245162
43.44756129
51.84699678
51.21127649
44.27917546
51.88510023
51.00747553
41.19307593
49.24090092
42.17142122
42.48634162
47.8363394
40.62432048
41.48357065
61.23666288
62.06187893
58.1190902
58.22401544
56.97480939
56.81225886
53.6961664
54.82460371
54.4059832
56.62212687
56.3820422
56.96446919
49.04515059
50.31450798
55.71680874
57.20427556
63.26040049
59.27099984
63.34294321
63.72509384
60.68629591
42.10046187
44.47222103
43.91292063
48.41089804
48.15609859
45.12716799
41.65174692
41.39281194
43.4428695
43.06667378
49.4487811
51.83112085
51.47343197
54.01840404
53.64780059
51.92544905
46.12062773
49.06965513
48.76894818
51.11397476
50.76343692
48.11127075
42.83120776
43.3742561
46.64913095
45.76260138
42.11650626
42.65388216
46.56633838
47.10232531
48.4205518
39.90300155
39.74480525
41.16870805
40.96527733
37.41293852
39.51114658
39.38032508
47.71291693
45.81886727
46.38062603
49.12277452
48.7762703
42.93801613
43.43152283
49.36313539
48.68836909
49.10600022
55.20181061
45.34838464
46.66449951
41.53975729
41.16277003
37.07977845
38.28583845
41.99288822
41.65251106
33.85619065
33.92299696
36.06743616
35.68047473
33.6758038
33.76872632
61.04330568
32.3459427
33.50843966
32.73678775
110.3247115
32.32804747
41.311618
63.06814669
55.37925616
32.18571926
32.2210349
33.0547463
74.04375009
80.37519671
77.53121368
59.75947462
32.82534304
32.12140241
32.15212076
42.92732728
39.86254354
39.48027671
58.26080519
57.39114971
46.61669079
44.94456394
40.29134017
57.51123184
58.77101478
61.78351236
42.50785107
56.4235
50.76765635
56.78745343
55.53865506
43.99023993
44.89976428
45.71757359
50.89466244
54.16091457
54.57902258
53.51049232
53.82548011
59.89011005
59.1745842
59.50857145
58.46894893
58.81161581
59.36330179
48.41837112
47.38886915
47.69562052
46.95554996
47.16618701
48.39641732
61.38776461
60.32772973
60.36361323
59.84250749
60.12583323
61.02278177
49.22703351
48.58781957
48.92372375
47.96723958
48.28964541
49.02475807
52.77285539
52.90815408
52.00038919
52.17764307
36.82408543
39.23691009
39.10183902
33.89764653
35.77453481
35.66416481
36.12312145
35.90691419
33.98514162
62.25227726
63.88736182
55.79818174
63.37089073
32.93126255
32.8804457
33.05789011
33.00372314
32.56714893
33.99250842
32.61158947
32.75142705
33.57463589
35.38955678
35.28945093
35.57268015
35.47889906
33.64796061
33.19317472
33.11543708
34.10612914
33.35520675
33.00189635
63.26468867
60.9304023
47.87023759
63.81662746
34.98656973
34.01671335
39.29136479
32.6535698
34.45942742
34.32099471
32.03322716
91.74407481
92.7401368
63.7923131
84.18369645
74.1863883
32.36745385
32.42003564
33.32349721
32.1740498
62.62985696
68.7400485
62.90148074
65.46631948
60.75915511
51.90533821
67.2336751
61.71360845
51.04844839
50.63680302
59.84392023
47.13643452
51.82273569
55.69512991
52.66306799
57.9264706
52.21390131
55.57408693
62.89507072
64.46022779
56.57450315
61.64704447
65.72237412
55.22374232
56.71794526
54.37304479
58.80465388
68.51516275
68.42791952
66.61911535
44.23767088
59.79894989
53.24224667
67.10337645
68.60777088
47.02967157
50.59579365
55.11281725
71.01221842
58.2164104
45.03607783
47.14374151
65.8805615
62.12870456
66.35874762
60.03986487
63.05680851
65.84473305
67.40261914
66.73393627
55.82050882
56.23159677
56.58971054
55.3448465
55.59824972
55.49707499
57.92523045
57.74890296
58.09527582
57.01094701
57.35306554
57.4601303
45.54036477
47.63160807
47.60841734
47.89638892
47.98278152
46.15306458
48.46001613
48.12841187
47.55819955
48.19115915
48.61635501
47.1193055
47.0236503
46.94246164
47.51399352
47.30091548
46.59592718
51.51766837
47.50964016
41.37025098
53.08474606
53.01426171
52.68031382
43.21488485
51.52917171
51.01239878
41.82204971
41.93585608
46.21854399
60.69284797
58.71173715
55.68140471
55.26402961
54.29714959
56.61998748
56.17819091
55.89006308
64.54641235
64.23363229
58.64643083
64.9953959
67.23982448
60.55198593
64.30259445
64.51189061
61.62945997
60.29922827
60.22978054
60.29005135
60.31591171
61.38416707
63.36313972
63.61020894
62.96458157
66.29022689
66.17309996
66.24464141
66.32237515
62.8152291
64.54711106
65.60133723
67.52636378
64.62917052
46.93145953
46.75934558
43.84426069
44.67835086
47.74972113
47.57041643
42.17880832
41.90394505
42.75182491
42.45503381
52.55101505
52.18774703
49.89763546
51.39866041
53.2823372
52.9163378
49.73855875
49.41817966
46.5405688
47.67825453
50.4121921
50.07801528
50.47291359
49.92230817
50.28026581
49.23743035
49.59010536
50.03490938
51.75437511
51.22735333
51.4971108
50.62234834
50.95256673
51.45818101
40.70255789
37.64599978
37.81014132
37.34972641
37.50139023
40.53311853
41.48618271
38.35283567
38.59630587
37.97230998
38.15493226
41.26244177
39.35050179
36.48420004
36.6404476
36.2276599
36.38076456
39.21771282
40.02428468
37.05618286
37.20950271
36.76091095
36.92129772
39.86266111
40.31250398
40.13149984
45.57833015
43.37391644
43.57534713
42.95927505
43.14294517
45.3684998
40.73579281
40.53796311
38.6662294
38.57221431
43.68966329
41.5384619
41.61039396
38.955448
39.45242872
42.94112354
44.77513118
42.55957036
42.71140199
42.15408867
42.26250818
44.52596068
39.12624357
39.02773566
48.40956762
48.31807647
49.30902864
44.22110279
45.92517493
43.98141916
48.37488243
48.67630141
48.20272381
48.32205998
44.37259857
43.19248642
45.9483491
44.53383755
48.011927
48.09782105
43.19163685
36.32001731
38.63159935
38.49802681
38.94370751
38.81902898
36.50715992
34.22006103
34.10910315
34.52717146
34.42825931
33.88486928
33.77272835
34.44282259
37.20963254
36.52742857
38.19501279
37.91927899
35.65524309
36.34693784
34.76954242
35.52285196
35.9033481
38.68623209
35.97394723
36.1438115
35.67822797
35.89854597
38.6087383
34.89944055
34.79086211
35.32124966
35.20407215
53.42802471
42.70676728
43.71781223
41.04424539
41.78878908
54.1649426
52.92872676
52.34246082
45.05087951
48.36313895
54.54243955
63.95922948
47.45134178
50.26976897
42.74594488
45.03616002
65.1937261
32.73102897
32.67549128
32.82726411
32.78727587
33.22496422
33.53004834
35.44287716
32.48120731
32.44611974
32.61555257
32.55526593
33.26854445
35.00578348
34.89190204
35.19847995
35.09228146
33.33000125
33.02526576
34.59887521
34.38781861
34.81356323
34.68106265
33.06727232
59.62727728
34.21097226
33.95623497
32.38711176
75.16992484
98.74952162
103.6801272
98.79622725
99.32485397
79.9598625
32.12923015
79.00529476
58.13860732
62.35218019
33.12029234
32.25238281
32.31424917
75.10221501
83.24997244
81.22472083
67.37249476
73.77985469
88.41385649
83.73378828
54.99324685
79.49907889
69.87984732
32.29854616
32.08500964
32.5825509
36.71497219
36.75331423
36.84130113
36.76913226
36.83241675
36.88174826
36.85591097
36.93792525
36.93962502
36.96143781
37.02526773
36.99821644
37.04063154
37.07037295
37.02837041
37.07422271
37.07216061
37.02963002
37.06702325
37.03285414
37.00611677
37.01642474
36.95095471
36.94894324
36.92742442
36.84820554
36.89168328
36.82629624
36.76808609
36.84969128
36.60156132
36.68126447
36.72936173
36.71538633
36.83039889
36.82484848
36.86943705
36.98631987
36.94337178
37.02296386
37.11890478
37.04076165
37.14387816
37.19441725
37.09199223
37.2023158
37.20043931
37.0943138
37.19115712
37.13553436
37.05018081
37.10985902
37.01234007
36.95952817
36.97529551
36.85913939
36.84469974
36.82089695
36.70964602
36.74727975
36.53661472
36.67883599
36.67472403
36.72938454
36.89216262
36.83945741
36.94906341
37.12305658
37.01076958
37.1802115
37.33836315
37.15831925
37.38235175
37.47784131
37.24411747
37.49328988
37.4943444
37.25042623
37.47554914
37.37299879
37.18074401
37.33140047
37.17540231
37.04160753
37.11652057
36.93878998
36.8718406
36.88168558
36.72324962
36.70752218
36.52641458
36.71981173
36.68402884
36.79072256
37.02612395
36.91895695
37.11267522
37.39452245
37.17641161
37.49440456
37.80492904
37.42133309
37.89711351
38.12438474
37.58367314
38.154627
38.14945539
37.59244869
38.07802784
37.86158043
37.47153395
37.77790623
37.49888425
37.23771873
37.40184429
37.12048246
36.97368595
37.0326879
36.79561213
36.73522069
36.55187846
36.81350981
36.73864664
36.9116407
37.2515981
37.07370797
37.38404388
37.85991001
37.48896024
38.05244522
38.78137062
37.97101695
39.05886599
39.95369143
38.37187212
39.9796386
39.74582932
38.34823224
39.39666685
38.8179332
38.0488336
38.61554725
38.05734986
37.61473626
37.887556
37.4263683
37.184631
37.29030429
36.93465532
36.8233963
36.60664125
36.94947339
36.84405893
37.08174939
37.5597243
37.3227028
37.75705688
38.54511783
38.01445389
38.91100903
41.04445275
39.13646806
40.28152533
40.86975551
39.84548385
41.53350368
41.54594177
40.32000438
40.9501525
40.27659856
39.79460758
40.01995038
38.90172788
38.24282618
38.60421451
37.86469843
37.52429568
37.65876747
37.14194798
36.98058657
36.68539133
37.1165834
36.99059754
37.28530178
37.90852784
37.64823129
38.17259014
39.27442502
38.73694652
39.38386367
39.96256947
39.6754905
42.46502143
43.12993203
42.63567815
44.90309048
43.50027938
42.15936844
41.88573606
39.96869063
39.15734152
39.50065797
38.40233207
37.99087106
38.1108487
37.40290934
37.20367304
36.77782208
37.29032951
37.16010694
37.49097772
38.23359075
37.99261754
38.54871814
39.85601259
39.43459099
40.17420505
40.92156309
40.71702577
44.52343116
45.67500901
45.48237596
49.34799753
46.63412937
45.49077831
43.69395098
41.06226212
40.25588251
40.42787272
38.97059774
38.5478796
38.59165453
37.68665596
37.47357034
36.87372881
37.45683834
37.33277133
37.68397952
38.51968807
38.30847374
38.87181281
40.31535356
39.97890207
40.75431633
41.58407797
41.43437625
45.47614109
46.8236296
46.78353451
51.96671265
48.87140081
48.16025267
45.09096011
42.00083146
41.32851742
41.24241587
39.48620482
39.11175739
39.03383624
37.95862024
37.75673428
36.96861439
37.61220857
37.49603829
37.86169543
38.77556812
38.5853969
39.15902509
40.72366056
40.41851176
41.23754181
42.13442233
41.99317417
45.71635391
46.28652793
46.45454356
53.18408046