/*--------------------------------*- C++ -*----------------------------------*\
| =========                 |                                                 |
| \\      /  F ield         | OpenFOAM: The Open Source CFD Toolbox           |
|  \\    /   O peration     | Version:  v1912                                 |
|   \\  /    A nd           | Website:  www.openfoam.com                      |
|    \\/     M anipulation  |                                                 |
\*---------------------------------------------------------------------------*/
FoamFile
{
    version     2.0;
    format      ascii;
    class       surfaceScalarField;
    location    "1.82";
    object      meshPhi;
}
// * * * * * * * * * * * * * * * * * * * * * * * * * * * * * * * * * * * * * //

dimensions      [0 3 -1 0 0 0 0];
oriented        oriented;


internalField   nonuniform List<scalar> 
25162
(
0
0
0
0
0
0
0
0
0
0
0
0
0
0
0
0
0
0
0
0
0
0
0
0
0
0
0
0
0
0
0
0
0
0
0
0
0
0
0
0
0
0
0
0
0
0
0
0
0
0
0
0
0
0
0
0
0
0
0
0
0
0
0
0
0
0
0
0
0
0
0
0
0
0
0
0
0
0
0
0
0
0
0
0
0
0
0
0
0
0
0
0
0
0
0
0
0
0
0
0
0
0
0
0
-6.146861831e-09
-8.209814902e-08
9.193204558e-07
0
1.105346011e-08
-7.815085965e-07
0
0
0
0
0
0
0
0
0
0
0
0
0
0
0
0
0
0
0
0
0
0
0
0
0
0
0
0
0
0
0
0
0
0
0
0
0
0
0
0
0
0
0
0
0
0
0
0
0
0
0
0
0
0
0
0
0
0
0
0
0
0
0
0
0
0
2.861650836e-08
1.4369504e-06
-2.592129174e-06
-9.107061372e-06
9.977430837e-06
8.06029587e-05
-2.283759459e-05
-0.0001139719394
1.266573503e-05
0.0002107100706
-2.13363975e-05
-0.0002356200313
-2.374338947e-06
0.0002710686366
4.980148723e-06
-0.0002677285252
-1.354799912e-05
0.0002141060269
2.493309432e-05
-0.0001844719943
-6.339004574e-06
8.263126113e-05
1.735102126e-05
-5.165773708e-05
0
1.548530755e-06
3.973785274e-07
0
0
0
0
0
0
0
0
0
0
0
0
0
0
0
0
0
0
0
0
0
0
0
0
0
0
0
0
0
0
0
0
0
0
0
0
0
0
0
0
0
0
0
0
0
0
0
0
0
0
0
1.381542153e-06
3.248805841e-06
-6.986190397e-06
-2.32308238e-05
4.81429725e-05
0.0002035666672
-7.411434423e-05
-0.0002912207698
8.451615844e-05
0.0005817589303
-0.0001093328599
-0.0006757553282
5.072545107e-05
0.0009090215749
-5.916116982e-05
-0.0009637062246
-2.348086045e-05
0.001041173417
3.37724181e-05
-0.001036173218
-7.920983727e-05
0.0009284481478
0.0001031689485
-0.0008636094123
-7.879697126e-05
0.0006031008746
0.0001069763175
-0.0005027602416
-3.063869183e-05
0.0002115295458
5.107213889e-05
-0.0001319164504
0
3.322328004e-06
1.121417349e-06
0
0
0
0
0
0
0
0
0
0
0
0
0
0
0
0
0
0
0
0
0
0
0
0
0
0
0
0
0
0
0
0
0
0
0
0
0
0
0
0
0
0
0
0
0
-4.602288317e-07
-1.298605767e-06
5.554884993e-05
0.0001586265012
-8.091088315e-05
-0.0002714294432
0.0001693535021
0.0007181497592
-0.0002029456839
-0.0008846923915
0.0001815751464
0.001361400501
-0.0002021694767
-0.001498381871
7.456608479e-05
0.00180751969
-7.636868768e-05
-0.001873607843
-7.285576981e-05
0.001963550735
8.608882799e-05
-0.001958815394
-0.0001840723958
0.001837542598
0.0002109380485
-0.001759133553
-0.0002047504145
0.001407965961
0.0002390512123
-0.001256676707
-0.000149199756
0.0007776912016
0.0001853386209
-0.0006139655049
-3.154218559e-05
0.0001856767098
4.916676262e-05
-9.261207569e-05
0
0
0
0
0
0
0
0
0
0
0
0
0
0
0
0
0
0
0
0
0
0
0
0
0
0
0
0
0
0
0
0
0
0
0
0
0
0
0
0
0
0
1.388244495e-05
1.927061616e-05
-2.255564446e-05
-8.323482886e-05
0.0001670043444
0.0005055043356
-0.0001950877506
-0.0007025089124
0.0003161644205
0.001382041061
-0.0003321424378
-0.001611743132
0.0002541526819
0.002146639642
-0.0002833512043
-0.002258818949
7.719437907e-05
0.002483787295
-8.11949837e-05
-0.002512522491
-0.0001134472506
0.002539525626
0.0001159422806
-0.002538433641
-0.0002852328373
0.002503079168
0.0003002111813
-0.002458045796
-0.0003984264915
0.002226991979
0.0004192096449
-0.002061019656
-0.0002639782031
0.001431963538
0.0002940590449
-0.001207586495
-0.0001119299653
0.0005528738281
0.0001337079496
-0.0003694677582
2.549946727e-05
-3.255510556e-06
5.699726475e-06
-3.910824245e-07
0
0
0
0
0
0
0
0
0
0
0
0
0
0
0
0
0
0
0
0
0
0
0
0
0
0
0
0
0
0
0
0
0
0
0
-4.056042647e-07
-1.488486089e-08
-5.704706799e-07
5.107175065e-05
0.0001006176909
-6.155959484e-05
-0.0002266500409
0.0002681150579
0.0008375603491
-0.0002832077268
-0.001104849436
0.0003786244486
0.00189235246
-0.0003921644569
-0.002123198767
0.0002990015523
0.002633320264
-0.0002785033719
-0.002736581722
0.0001233827158
0.002827858062
-0.0001215138398
-6.751649648e-05
-0.001358574722
-0.001403635719
0.001350277083
-5.178275655e-05
5.196741979e-05
-0.001350461746
0.001392032503
-0.0003768906508
-0.002805662882
0.001425234037
0.0001737829202
0.0001915040716
0.002644940353
-0.0004291745049
0.0004458200733
-0.002538320869
-0.000376292378
0.001986005107
0.0003956637857
-0.001737570981
-0.000191346289
0.0009273267734
0.0002093001488
-0.0006823090485
0.0001373412919
-2.521715309e-05
3.262079679e-05
-4.369918769e-05
0
0
0
0
0
0
0
0
0
0
0
0
0
0
0
0
0
0
0
0
0
0
0
0
0
0
0
0
0
0
0
0
0
1.696787275e-06
0
-3.620926786e-06
-5.358355233e-06
-8.266247142e-06
8.3125943e-05
0.0001746819729
-8.572395648e-05
-0.0003417849681
0.0003224087147
0.001083345031
-0.0003271557553
-0.001376064444
0.0004125500461
0.002224388408
-0.0004129601703
-0.002460209473
0.0002648716184
0.002894777219
-0.0002606106154
-0.002927028747
4.884141002e-05
0.001478621059
-5.12913284e-05
-0.001476171141
0.001464451512
-0.0001542694165
0.0001520575429
-0.001462239638
0.002900670232
-0.0004700830664
0.0004747878882
-0.002839681386
-0.0004330920533
0.002333851263
0.0004401199657
-0.00208107362
-0.0002487057873
0.001211543217
0.000256189419
-0.0009260224871
0.0002514706101
-4.974458692e-05
5.721837446e-05
-0.0001103398695
0
0
0
0
0
0
0
0
0
0
0
0
0
0
0
0
0
0
0
0
0
0
0
0
0
0
0
0
0
0
0
0
0
4.689273854e-06
0
-5.913931935e-06
-1.51796143e-05
-1.724690963e-05
9.894416691e-05
0.0002264190227
-0.000101752739
-0.0004171955962
0.0003441771609
0.001228541361
-0.0003475779016
-0.00154081941
0.0004182851883
0.002423586704
-0.0004193625272
-0.00265873011
0.0002561890983
0.00305200649
-0.0002557713534
-0.003065116345
4.298796926e-05
0.001528678125
-4.297994175e-05
-0.001528686153
0.001537621664
-0.0001475412713
0.0001467469055
-0.001536827298
0.003077365438
-0.000475423511
0.0004750398471
-0.003039073924
-0.0004606888168
0.002570434067
0.0004645264694
-0.002316704341
-0.0002769971457
0.001407818152
0.0002816456924
-0.001097932115
0.0003269365273
-6.657444839e-05
6.962063251e-05
-0.0001590153416
0
0
0
0
0
0
0
0
0
0
0
0
0
0
0
0
0
0
0
0
0
0
0
0
0
0
0
0
0
0
0
0
0
7.108929758e-06
0
-8.747305558e-06
-2.379609486e-05
-2.670626188e-05
0.0001087176934
0.0002655941157
-0.0001115267872
-0.0004743552848
0.0003560522297
0.001341561181
-0.0003593798731
-0.001670413926
0.0004221959621
0.002587175664
-0.0004232795112
-0.002826754444
0.0002550097456
0.003209946643
-0.0002549219791
-0.003217458667
4.273688801e-05
0.001602941778
-4.324336423e-05
-0.0007996311482
-0.0008028041535
0.001612691514
-0.0001443751222
0.0001437940659
-0.001612110458
0.003226338228
-0.0004717169353
0.0004701507332
-0.003183258099
-0.0004605093309
0.002684171749
0.0004580204353
-0.002416865262
-0.000277998224
0.001463142414
0.0002761045976
-0.00113993474
0.0003375140221
-6.746817964e-05
6.650631632e-05
-0.0001632481115
0
0
0
0
0
0
0
0
0
0
0
0
0
0
0
0
0
0
0
0
0
0
0
0
0
0
0
0
0
0
0
0
0
1.052657223e-05
0
-1.256478003e-05
-3.665459374e-05
-4.047595562e-05
0.0001202819507
0.0003141082304
-0.0001233535176
-0.0005431409367
0.0003694443533
0.001470901104
-0.0003728992736
-0.001817012993
0.0004264612983
0.002766857925
-0.000427517597
-0.003009560414
0.0002542330593
0.003376758767
-0.0002540629026
-0.003379825473
4.288827059e-05
0.001684681182
-4.30206333e-05
-0.0008409429718
-0.0008436058472
0.001690922541
-0.0001419854847
0.0001414018865
-0.001690338943
0.003373062699
-0.0004611578874
0.0004571932705
-0.003296135058
-0.0004376909712
0.002691354579
0.0004305675234
-0.002407224287
-0.0002536824535
0.001400352235
0.00024692004
-0.001069764344
0.0002795622003
-5.288478211e-05
4.97572533e-05
-0.0001200584053
0
0
0
0
0
0
0
0
0
0
0
0
0
0
0
0
0
0
0
0
0
0
0
0
0
0
0
0
0
0
0
0
0
1.502932425e-05
0
-1.59451162e-05
-5.460923399e-05
-5.679700465e-05
0.0001333458774
0.0003716683555
-0.0001372362511
-0.000622358904
0.0003837981892
0.001611792893
-0.0003879352622
-0.001974478185
0.0004307486454
0.002952522356
-0.0004319123323
-0.003196083719
0.0002536156299
0.003539427255
-0.0002538012611
-0.003539520121
4.323826716e-05
0.001764736217
-4.320925144e-05
-0.0008808014345
-0.0008839637982
0.001765361452
-0.000139267865
0.0001391003504
-0.001765193937
0.003471993587
-0.0004436429356
0.0004373990531
-0.003341104991
-0.000399373767
0.002611532306
0.000385945748
-0.002291581923
-0.0002153258718
0.001237899308
0.0001996562689
-0.0009100750172
0.000189222598
-3.345741139e-05
2.860408722e-05
-6.162568586e-05
0
0
0
0
0
0
0
0
0
0
0
0
0
0
0
0
0
0
0
0
0
0
0
0
0
0
0
0
0
0
0
0
0
2.231665262e-05
0
-2.954162003e-05
-8.675225796e-05
-9.95852682e-05
0.0001489010814
0.0004520245899
-0.0001588759788
-0.0007247783892
0.0004017269602
0.00178118164
-0.000406761937
-0.002157964085
0.000435456801
0.003151389086
-0.0004380174435
-0.003395233406
0.000253551794
0.003699947273
-0.0002547068063
-0.001844454379
-0.001854337881
2.299463677e-05
0.000920032539
-2.324790247e-05
-0.0009197792733
-1.535648157e-05
0.0004586074554
1.455033762e-05
-0.0009171952489
0.0004593939375
0.001836829289
-0.0001382552869
0.0002885747099
-0.003684380029
0.001846215896
-0.0001489845794
-0.0004196974522
0.003495757759
0.0004052234793
-0.003296362021
-0.0003448222004
0.00243352075
0.0003308636372
-0.002078868764
-0.00016256464
0.001007536572
0.0001523913792
-0.0006969391913
7.904824873e-05
-1.165652218e-05
9.147121053e-06
-7.785648103e-06
0
0
0
0
0
0
0
0
0
0
0
0
0
0
0
0
0
0
0
0
0
0
0
0
0
0
0
0
0
0
0
0
0
3.283385527e-05
0
-2.709448501e-05
-0.0001193076461
-0.0001099060879
0.0001738810088
0.0005369984794
-0.0001687713992
-0.0008389582149
0.0004214116814
0.001960161142
-0.0004152177939
-0.002352949246
0.0004356184982
0.0033617799
-0.0004336335637
-0.003594791325
0.000248286966
0.003861761131
-0.000248286966
-0.00192631183
-0.001935449301
2.083947415e-05
0.00192631183
-3.883561604e-05
1.799614188e-05
-0.000961453663
-0.0009648581669
-5.215533184e-05
0.0009614537019
5.215527357e-05
-0.00192631183
0.0009648581863
0.003861761131
-0.000297326977
0.0002960089735
-0.003852052108
-0.0003754441983
0.003409705128
0.0003662302264
-0.003153677831
-0.0002860443198
0.00213096981
0.0002701474124
-0.001765143828
-0.0001121402346
0.0007176052784
9.935758724e-05
-0.0004573042677
1.10458221e-05
-1.779428886e-06
8.072598897e-07
0
0
0
0
0
0
0
0
0
0
0
0
0
0
0
0
0
0
0
0
0
0
0
0
0
0
0
0
0
0
0
0
0
0
1.695243696e-05
0
-6.245663385e-06
-5.604226907e-05
-3.529424525e-05
0.0001326930511
0.000392245996
-0.0001153411751
-0.0006597588657
0.0003683315474
0.001719406601
-0.0003436963025
-0.002109450262
0.0004142233633
0.003177413696
-0.000401461799
-0.003456215155
0.0002523083008
0.003955193616
-0.0002544331798
-0.004008591962
3.883561603e-05
0.004023270989
-6.629885318e-05
-0.004023270989
2.746323716e-05
-0.0001156842523
0.004023270989
0.0001156842523
-0.004023270989
-0.000284479352
0.003953393738
0.0002755253559
-0.003845064509
-0.0003228871303
0.003179627037
0.000304884109
-0.002858747303
-0.0002136418675
0.001741452068
0.0001970804479
-0.001363489179
-6.093139256e-05
0.000416811666
4.934247508e-05
-0.00021809978
0
0
0
0
0
0
0
0
0
0
0
0
0
0
0
0
0
0
0
0
0
0
0
0
0
0
0
0
0
0
0
0
0
0
0
0
0
1.528038216e-07
0
0
-3.157202302e-07
0
5.770446748e-05
0.0001361461121
-3.978505745e-05
-0.0003053364147
0.0002481737085
0.001121075035
-0.0002115748275
-0.001457394239
0.0003383786171
0.00248158058
-0.0003089556909
-0.002789637466
0.0002447298648
0.003504895147
-0.0002347206772
-0.003664229618
6.913116149e-05
0.003929650892
-7.049332699e-05
-0.003961439406
-0.0001060924998
0.003924895646
9.673382708e-05
-0.003865096012
-0.0002286902906
0.003490794922
0.0002070609341
-0.003290747739
-0.0002344955057
0.002474901909
0.0002071674044
-0.002148949099
-0.0001361123733
0.001138490415
0.0001138201516
-0.0008295808853
-2.044980567e-05
0.0001513395828
1.219396391e-05
-4.137983604e-05
0
0
0
0
0
0
0
0
0
0
0
0
0
0
0
0
0
0
0
0
0
0
0
0
0
0
0
0
0
0
0
0
0
0
0
0
0
0
0
0
0
0
4.198767664e-06
3.163577293e-07
-6.920754647e-07
-2.375840639e-05
0.0001027353911
0.000407462266
-7.114818579e-05
-0.0006194202621
0.0002026533171
0.001375710942
-0.0001646551632
-0.001635380301
0.0001832631349
0.00232214949
-0.0001600855169
-0.002501420462
6.947839917e-05
0.002848486334
-6.601193184e-05
-0.002897381389
-5.838667673e-05
0.002842275188
4.523915958e-05
-0.002757228172
-0.0001334295161
0.002311814626
0.0001089391353
-0.002106602187
-0.0001228249867
0.001379685312
9.637438062e-05
-0.001122371288
-5.023420455e-05
0.0004242293191
3.262270472e-05
-0.0002472664834
-1.749837875e-07
1.050207599e-06
0
0
0
0
0
0
0
0
0
0
0
0
0
0
0
0
0
0
0
0
0
0
0
0
0
0
0
0
0
0
0
0
0
0
0
0
0
0
0
0
0
0
0
0
0
0
0
0
8.293316352e-06
1.08246267e-05
-1.294517234e-06
-5.011654336e-05
6.197100548e-05
0.0003460451336
-3.626274161e-05
-0.0004809322057
8.341871503e-05
0.0008968351238
-5.929272733e-05
-0.001019046032
4.451881965e-05
0.001273858729
-3.48070159e-05
-0.001312438559
-1.4990963e-05
0.001274038705
8.966236099e-06
-0.001211391724
-4.646303059e-05
0.0009015327622
3.093534288e-05
-0.0007693837541
-3.166385267e-05
0.0003570522452
1.69840257e-05
-0.0002353272096
-1.618025267e-06
1.344453252e-05
4.52544678e-09
-1.446181376e-07
0
0
0
0
0
0
0
0
0
0
0
0
0
0
0
0
0
0
0
0
0
0
0
0
0
0
0
0
0
0
0
0
0
0
0
0
0
0
0
0
0
0
0
0
0
0
0
0
0
0
0
0
0
0
1.994189367e-07
0
0
-1.824578951e-06
8.105156924e-06
4.979607864e-05
-1.283274549e-06
-7.711148886e-05
8.118023782e-06
0.0001502596791
-2.753338625e-06
-0.0001632262087
-8.827392316e-07
0.0001519145949
2.186985496e-07
-0.0001325584161
-3.094764591e-06
5.269003442e-05
2.573552712e-07
-2.902360776e-05
0
0
0
0
0
0
0
0
0
0
0
0
0
0
0
0
0
0
0
0
0
0
0
0
0
0
0
0
0
0
0
0
0
0
0
0
0
0
0
0
0
0
0
0
0
0
0
0
0
0
0
0
0
0
0
0
0
0
0
0
0
0
0
0
0
0
0
0
0
0
0
0
0
0
0
0
0
0
0
0
0
0
0
0
0
0
0
0
0
0
0
0
0
0
0
0
0
0
0
0
0
0
0
0
0
0
0
0
0
0
0
0
0
0
0
0
0
0
0
0
0
0
0
0
0
0
0
0
0
0
0
0
0
0
0
0
0
0
0
0
0
0
0
0
0
0
0
0
0
0
0
0
0
0
0
0
0
0
0
0
0
0
0
0
0
0
0
0
0
0
0
0
0
0
0
0
0
0
0
0
0
0
0
0
0
0
0
0
0
0
0
0
0
0
0
0
0
0
0
0
0
0
0
0
0
0
0
0
0
0
0
0
0
0
0
0
0
0
0
0
0
0
0
0
0
0
0
0
0
0
0
0
0
0
0
0
0
0
0
0
0
0
0
0
0
0
0
0
0
0
0
0
0
0
0
0
0
0
0
0
0
0
0
0
0
0
0
0
0
0
0
0
0
0
0
0
0
0
0
0
0
0
0
0
0
0
0
0
0
0
0
0
0
0
0
0
0
0
0
0
0
0
0
0
0
0
0
0
0
0
0
0
0
0
0
0
0
0
0
0
0
0
0
0
0
0
0
0
0
0
0
0
0
0
0
0
0
0
0
0
0
0
0
0
0
0
0
0
0
0
0
0
0
0
0
0
0
0
0
0
0
0
0
0
0
0
0
0
0
0
0
0
0
0
0
0
0
0
0
0
0
0
0
0
0
0
0
0
0
0
0
0
0
0
0
0
0
0
0
0
0
0
0
0
0
0
0
0
0
0
0
0
0
0
0
0
0
0
0
0
0
0
0
0
0
0
0
0
0
0
0
0
0
0
0
0
0
0
0
0
0
0
0
0
0
0
0
0
0
0
0
0
0
0
0
0
0
0
0
0
0
0
0
0
0
0
0
0
0
0
0
0
0
0
0
0
0
0
0
0
0
0
0
0
0
0
0
0
0
0
0
0
0
0
0
0
0
0
0
0
0
0
0
0
0
0
0
0
0
0
0
0
0
0
0
0
0
0
0
0
0
0
0
0
0
0
0
0
0
0
0
0
0
0
0
0
0
0
0
0
0
0
0
0
0
0
0
0
0
0
0
0
0
0
0
0
0
0
0
0
0
0
0
0
0
0
0
0
0
0
0
0
0
0
0
0
0
0
0
0
0
0
0
0
0
0
0
0
0
0
0
0
0
0
0
0
0
0
0
0
0
0
0
0
0
0
0
0
0
0
0
0
0
0
0
0
0
0
0
0
0
0
0
0
0
0
0
0
0
0
0
0
0
0
0
0
0
0
0
0
0
0
0
0
0
0
0
0
0
0
0
0
0
0
0
0
0
0
0
0
0
0
0
0
0
0
0
0
0
0
0
0
0
0
0
0
0
0
0
0
0
0
0
0
0
0
0
0
0
0
0
0
0
0
0
0
0
0
0
0
0
0
0
0
0
0
0
0
0
0
0
0
0
0
0
0
0
0
0
0
0
0
0
0
0
0
0
0
0
0
0
0
0
0
0
0
0
0
0
0
0
0
0
0
0
0
0
0
0
0
0
0
0
0
0
0
0
0
0
0
0
0
0
0
0
0
0
0
0
0
0
0
0
0
0
0
0
0
0
0
0
0
0
0
0
0
0
0
0
0
0
0
0
0
0
0
0
0
0
0
0
0
0
0
0
0
0
0
0
0
0
0
0
0
0
0
0
0
0
0
0
0
0
0
0
0
0
0
0
0
0
0
0
0
0
0
0
0
0
0
0
0
0
0
0
0
0
0
0
0
0
0
0
0
0
0
0
0
0
0
0
0
0
0
0
0
0
0
0
0
0
0
0
0
0
0
0
0
0
0
0
0
0
0
0
0
0
0
0
0
0
0
0
0
0
0
0
0
0
0
0
0
0
0
0
0
0
0
0
0
0
0
0
0
0
0
0
0
0
0
0
0
0
0
0
0
0
0
0
0
0
0
0
0
0
0
0
0
0
0
0
0
0
0
0
0
0
0
0
0
0
0
0
0
0
0
0
0
0
0
0
0
0
0
0
0
0
0
0
0
0
0
0
0
0
0
0
0
0
0
0
0
0
0
0
0
0
0
0
0
0
0
0
0
0
0
0
0
0
0
0
0
0
0
0
0
0
0
0
0
0
0
0
0
0
0
0
0
0
0
0
0
0
0
0
0
0
0
0
0
0
0
0
0
0
0
0
0
0
0
0
0
0
0
0
0
0
0
0
0
0
0
0
0
0
0
0
0
0
0
0
0
0
0
0
0
0
0
0
0
0
0
0
0
0
0
0
0
0
0
0
0
0
0
0
0
0
0
0
0
0
0
0
0
0
0
0
0
0
0
0
0
0
0
0
0
0
0
0
0
0
0
0
0
0
0
0
0
0
0
0
0
0
0
0
0
0
0
0
0
0
0
0
0
0
0
0
0
0
0
0
0
0
0
0
0
0
0
0
0
0
0
0
0
0
0
0
0
0
0
0
0
0
0
0
0
0
0
0
0
0
0
0
0
0
0
0
0
0
0
0
0
0
0
0
0
0
0
0
0
0
0
0
0
0
0
0
0
0
0
0
0
0
0
0
0
0
0
0
0
0
0
0
0
0
0
0
0
0
0
0
0
0
0
0
0
0
0
0
0
0
0
0
0
0
0
0
0
0
0
0
0
0
0
0
0
0
0
0
0
0
0
0
0
0
0
0
0
0
0
0
0
0
0
0
0
0
0
0
0
0
0
0
0
0
0
0
0
0
0
0
0
0
0
0
0
0
0
0
0
0
0
0
0
0
0
0
0
0
0
0
0
0
0
0
0
0
0
0
0
0
0
0
0
0
0
0
0
0
0
0
0
0
0
0
0
0
0
0
0
0
0
0
0
0
0
0
0
0
0
0
0
0
0
0
0
0
0
0
0
0
0
0
0
0
0
0
0
0
0
0
0
0
0
0
0
0
0
0
0
0
0
0
0
0
0
0
0
0
0
0
0
0
0
0
0
0
0
0
0
0
0
0
0
0
0
0
0
0
0
0
0
0
0
0
0
0
0
0
0
0
0
0
0
0
0
0
0
0
0.001520908998
-0.001520984669
4.306363957e-05
0.0001382772608
-0.001525050396
-0.000139118007
0.000765537789
0.0007603533536
-0.0001518067412
0.001470640579
0.0001456176744
0.001593000664
4.238462672e-05
-0.0007955172686
-0.0007971311337
0.0001323673642
-0.001604501043
-0.0001331688919
0.0008038027929
0.0008014997775
0.0001356955842
0.0007714829978
0.0007687203425
0.001674496615
4.267761708e-05
-0.0008360838816
-0.0008382020798
0.0001306911115
-0.001679416495
-0.0001296112885
0.0008401021813
0.0008382344903
0.0001317902565
0.0008068609854
0.0008064076367
0.001754220785
4.294110396e-05
-0.0008757913405
-0.0008781322813
0.0001264665576
-0.00175458759
-0.0001276626256
0.001755783658
0.001691725995
0.0001298876581
0.0009183816825
-0.0009183858507
2.299880499e-05
-0.0004588199172
6.87911962e-06
-7.005629004e-06
0.0004589464266
0.0004581863612
-0.0009159614819
-1.640127808e-05
0.0001255197942
-0.001829051284
-0.0001254837991
0.001829015289
0.001765754393
0.0001260736162
0.0009598362478
-0.0009598362478
2.083947415e-05
-0.0009598363558
2.181257389e-05
-2.181282178e-05
0.0009598366037
0.0004591067867
6.379788336e-06
-0.001916272655
0.0008777891019
2.192051041e-05
4.571354629e-06
0.0002174766146
-0.003776516432
0.001911045693
0.001890123811
-0.0001165047526
-0.0001256249334
0.001836764058
0.0001255850251
0.001468118203
-0.001467423451
4.814665744e-05
-3.957504535e-05
0.001350758235
3.909389257e-05
-0.001461339252
-0.0001493565013
0.001458889012
-0.0001606041277
0.001380935137
0.0001717014941
2.373714875e-05
-0.0003765699292
-2.392375461e-05
0.0003767565351
-0.000741807783
-5.7206618e-05
0.0007438208595
5.519354144e-05
-0.001524451992
-0.0001481396752
0.0004406670664
-0.003031603648
-0.0004447850345
0.00303655741
-0.0004524752986
0.00292021315
0.0004443238303
0.003168864744
-0.003177662751
0.0002551529406
-5.402645325e-05
5.397045768e-05
0.001593056659
5.421462193e-05
0.001528527646
-5.406414269e-05
2.627494906e-05
-0.0003924132236
-2.599721557e-05
0.0003921354902
-2.299165958e-05
-0.0003840195648
0.0003837660782
2.324514618e-05
-0.001604082878
-0.0001447932866
0.0004356154117
-0.003192884298
-0.0004369587337
0.003194394789
0.003079328231
0.0004389988424
0.003335884324
-0.003339930771
0.0002544212263
-5.400973328e-05
5.395444604e-05
0.001674551902
0.001602996112
-5.408078779e-05
-4.304427302e-05
0.001635052456
4.298787268e-05
-0.0008160904395
-0.0008189056163
-3.48846251e-06
-0.0004098072224
3.486833844e-06
0.000818909901
-0.00040910105
3.337240231e-06
-0.0003989139585
0.0007993455877
-3.634730796e-06
-0.0004001341386
2.257770932e-05
-0.0004121349495
-2.270627598e-05
0.0004122635161
-2.476955508e-05
-0.0004025732128
0.0004018164841
2.55262838e-05
-0.00167952931
-0.0001418726697
0.0004283586224
-0.00333548586
-0.0004311960818
0.00334468981
0.003228309359
0.0004341980478
0.003498228687
-0.003498897334
0.0002534621063
-5.411117372e-05
5.405957618e-05
0.001754272383
0.001684655327
-5.398387848e-05
-4.246742947e-05
0.001714851938
4.281350225e-05
-0.0008564645311
-0.0008587334796
-1.281211082e-06
-0.0004296568052
1.202339863e-06
0.0004297356764
3.798195017e-06
-0.0004200895928
0.0008409598485
-3.719771615e-06
-0.0004209486792
4.228300914e-05
-0.0008598656627
-4.259714434e-05
0.0008601797979
-4.388174129e-05
-0.0008445419984
4.206117611e-05
0.0004239165522
0.0004224460114
0.003660064041
0.0002539489481
-0.001825222934
-0.00183523826
-5.443250678e-05
-0.000916636722
5.417161058e-05
0.001835279301
0.001764790354
-5.416531112e-05
-2.295742532e-05
0.0008991602145
-0.0008992516888
2.304889967e-05
4.107948748e-07
-0.0004506190794
1.136727977e-08
0.0004501969173
4.607974827e-07
-0.0004394164844
0.0004395778432
-6.221562252e-07
0.0004531023079
1.037403422e-05
-0.0004518152472
-1.166109491e-05
4.039417358e-05
-0.0008986800238
-4.013991764e-05
0.0008984257679
-4.159926491e-05
-0.0008817807198
0.0008817945616
4.158542313e-05
0.00375252294
0.0002462059093
-0.001834169228
-0.001916272655
-5.021138431e-05
-0.0009564364068
5.021138431e-05
0.001916272655
-0.0009243475259
0.001844369206
-5.442164771e-05
-2.297805105e-05
0.0009385615661
-0.0009384757853
2.289227024e-05
-1.075689999e-06
-0.0004666708141
-7.320367919e-08
0.0004678197078
-1.102803105e-06
-0.0004574856702
0.0004580002203
5.882530026e-07
0.001996576731
-0.001996576731
3.883561605e-05
-0.001996576731
4.078124123e-05
-4.078124123e-05
0.001996576731
0.000961453841
2.181243478e-05
6.038320434e-07
0.000746274466
-1.206833913e-06
-0.000372070934
-0.0003736005302
-1.026445568e-07
0.0007611240885
1.789894339e-07
-0.0003808143558
-0.0003803860776
0.0007427102693
1.447466747e-05
-1.605976735e-05
-0.0007411251695
0.000745837756
-0.000746406692
1.172768011e-06
-0.0003836492554
-2.276103696e-05
0.0003834186327
-0.000376130205
0.0003764542559
2.341309789e-05
-0.0001416894643
-0.001501091232
0.0001400938498
0.000753998139
0.000748688707
-5.295092016e-05
0.0003757300229
5.161853719e-05
-0.0007505278449
2.406115922e-05
-0.0003837661856
-2.394422899e-05
-0.0003981431189
2.967254833e-06
0.0007968474373
-0.000398334333
-0.0007806304526
3.264296488e-06
0.0007807029084
-3.336752298e-06
4.272578674e-05
0.001564825263
-4.278533355e-05
-0.001564765716
3.410391044e-07
-8.515715677e-07
-0.0003898550715
-0.0003902648487
-5.119082207e-07
-0.0003981424313
5.112205817e-07
0.0007626611822
-4.564195224e-07
-0.0003807348215
-0.0003815725857
0.0007789189655
4.822458547e-07
-0.0003894687173
-0.0003895914549
-0.0004012531936
-2.393515496e-05
0.0004004187935
-0.0003941718875
0.000393620318
2.682651861e-05
-6.871373025e-05
-0.0007878045601
0.000787965231
6.855305934e-05
-2.664866144e-05
2.680849361e-05
-0.0003943317197
2.485774487e-05
-0.0004017454204
-2.436551811e-05
2.416463513e-05
-0.0003841230407
-0.0003926640852
-2.639779984e-05
-0.0007841869116
-6.872236796e-05
0.0007841955493
-0.0004192287723
3.487042213e-06
0.0008379878418
-0.0004184479167
-0.0004108149076
0.0008221117528
-3.18341503e-06
-0.0004116018927
0.00164570362
-4.264449249e-05
-0.0008219479859
-0.0008241554143
2.755348334e-07
-1.951036001e-07
-0.0004108953388
-9.067372635e-07
-0.0004191495857
8.275507128e-07
-5.863275938e-07
-0.0003988395391
-0.0004099615982
4.299106735e-07
-0.0008409438415
-4.369836333e-05
0.0004206936079
0.0004200668556
-0.000412629027
0.0004125171063
2.26896301e-05
-0.0001297188035
-0.001649851248
0.0001299282812
0.000825427054
0.0008242147165
-4.739434041e-05
0.0004120737452
4.674842985e-05
-0.0008240568617
4.653088489e-05
-0.0008408345464
-4.664017999e-05
2.534303975e-05
-0.0004030585077
0.0004109191271
-0.0008223308448
-2.346435869e-05
-2.465321357e-05
-0.001640592371
-0.0001311693376
0.000822115107
0.000819927798
-0.0004387904111
3.813017611e-07
0.0004388699069
-0.0004302038835
0.0004302024497
-1.279777294e-06
0.001723594271
-4.300024872e-05
-0.0008606813815
-0.0008623800707
3.417235608e-07
-5.844367903e-07
-0.0004299611703
9.374827385e-07
-0.0004385400126
-1.187881267e-06
-9.084982865e-07
-0.0004200878317
-0.00042957429
2.592084184e-07
-0.0008798820735
-4.166839058e-05
0.0008799511992
-0.000862937317
0.00086294612
4.227420613e-05
-0.0004587320695
-1.438068184e-06
0.0004590673346
-0.0004505101063
0.0004506730579
2.478432703e-07
0.0009014193648
-2.295119154e-05
-0.0009014255986
-7.046011296e-06
-0.0004506286458
0.0004491686792
8.505977897e-06
-1.861485884e-06
1.611513935e-06
-0.0004502601343
1.391910779e-06
-0.0004580389692
-2.085011077e-06
6.032094923e-07
-0.0004390822112
-0.0004508891487
-1.591416652e-06
-9.494400223e-06
0.0004555506969
7.823458861e-05
-0.001828301637
-7.79220774e-05
0.0009146669903
0.0009133221359
-0.0009003817676
0.0009000958881
4.068005309e-05
1.036444119e-05
-0.0004506190528
-0.0009678333486
-3.612760276e-06
0.0009633941175
5.268787705e-06
2.783203709e-06
-0.0004672945409
0.0004679281871
-1.70933619e-06
0.000940726018
-2.315470226e-05
-0.0009405493668
-5.910413283e-06
-0.0009293576564
0.0009299665472
5.301522501e-06
1.939480294e-06
-2.330264272e-06
-0.0004669037569
1.894812622e-06
-0.0009678590716
2.090104817e-06
-3.959194496e-06
6.823787823e-07
-0.0004567761382
1.114687492e-06
-0.0004658460213
-0.0009275835867
-7.070581875e-06
0.0009287437553
0.003012863639
-0.003028765025
0.0002572563333
5.4363362e-05
0.001520760258
5.958752102e-05
0.00147660292
-5.756938156e-05
-4.480752169e-05
0.001490244131
-0.001490109765
4.467315612e-05
-3.691687799e-06
3.787223578e-06
0.0007457422202
7.622577599e-06
0.0007449001614
-9.812469676e-06
6.007473208e-05
-0.0003668291113
3.603138639e-06
0.0003031512406
-0.0003810160106
-2.692906913e-05
0.0003863484067
2.159667312e-05
0.001555651016
-0.001555809466
4.288423713e-05
3.264832811e-06
0.0007789184292
3.33469042e-06
0.000762662104
-3.335612211e-06
0.000126486423
-0.0004294924816
-5.084949144e-05
0.00035385555
-0.001754037892
-0.0001398175635
0.0004211612132
-0.003454632313
-0.0004240968081
0.003499980287
0.003384948741
0.0004282321865
0.0001242391102
-0.000446591191
-4.521982983e-05
0.0003675719106
2.916087737e-05
-0.0008890978965
-2.969481577e-05
0.0004450674532
0.0004445643817
-1.539647244e-05
-0.0004406878659
0.0004406133148
1.547102357e-05
1.201352982e-05
-0.0009270151869
-1.258192964e-05
8.660666435e-05
-0.001861382746
-8.28457337e-05
0.001857621815
-0.001836413749
7.869984044e-05
0.0009188221834
0.0009171263133
3.333147886e-06
0.0007611256311
0.000746313478
-3.730699831e-06
0.001491139163
-4.383155933e-05
-0.001492115125
-3.310108736e-06
0.0003769628694
4.056557077e-06
-0.0003777093178
0.0003832322486
9.860772016e-06
-4.655787625e-06
-0.000388437233
0.0003739032873
1.8066812e-07
-0.0003744729623
3.890069315e-07
-6.447905676e-05
5.840853016e-05
-0.0007357372564
0.0003746615631
-0.000749644281
-5.453813149e-05
-0.001490147566
-0.0001388890807
0.0007453374235
0.0007420097587
-0.0004408275547
-1.574447e-05
0.0004411755523
-2.010988538e-05
-0.0004367960139
0.0004380160252
1.888987408e-05
-0.0001289928956
-0.001725675587
0.001726279876
0.0001283886067
-4.567980177e-05
4.537563571e-05
-0.0008626331509
4.472980599e-05
-0.0008796632482
-4.494863126e-05
4.596607251e-05
-0.0008439771861
-0.0008598647857
-4.568067875e-05
-0.001718205199
-0.0001291918103
0.001718404114
-1.15398176e-05
-0.000456087378
0.0004576389744
9.988221142e-06
0.0004601300682
9.165506818e-06
-0.0004600760713
-9.219503683e-06
8.787926759e-06
-0.0009222515956
-9.101539088e-06
0.0004610785651
0.0004614866429
-0.0006942640186
-1.674737465e-05
0.0006942402474
1.677114588e-05
0.001496672185
3.281708288e-05
-3.790127715e-05
-2.05240121e-05
-0.0007284175965
-0.0007426463823
0.0007336065301
-0.0007487668934
2.963503077e-05
-0.0007376404582
-5.822242852e-05
0.0007386562687
-0.001461531609
-0.0001385221305
0.0007333850275
0.0007032603163
7.042573673e-05
9.298265912e-05
-3.312805233e-05
3.401589643e-05
-0.0006951518627
-0.0004692068902
0.0005292816223
-5.13817696e-05
-0.0007469428484
4.983873026e-05
0.0003742612375
0.0003742246503
-2.668914791e-05
-6.482474917e-05
-0.0003776929931
-2.357214956e-05
2.087385275e-05
-0.0003783177138
-0.0003760442768
-1.747398237e-05
-0.0007418736264
-4.914176751e-05
0.0003706607009
0.0003689729234
-2.350863811e-05
-0.0003885503994
0.0003886091634
2.344987412e-05
-0.0003884325786
-2.357654565e-05
0.0003885004861
-2.217053113e-05
-0.0004086983487
0.0004085792931
2.228958669e-05
-0.0004092430817
-2.272168067e-05
0.0004097942312
-0.0004296737523
2.006194208e-05
-1.718615772e-05
0.000426797968
-0.0004363122681
0.0005524464238
1.035226737e-05
-4.309517469e-05
-0.0008521644622
0.0008521622729
4.309736396e-05
-2.433390958e-05
1.86495415e-05
-0.0004306279001
2.06019917e-05
-0.0004304661931
-1.98095509e-05
-2.189486405e-05
5.033458169e-05
-0.0004179131445
0.0003894734269
-0.0004272325097
-2.659388151e-05
-0.0008503557603
-4.319368866e-05
0.0004253966669
0.0004250576073
-0.0004451647291
2.011663015e-06
0.0004453293896
-2.176323468e-06
1.210451557e-05
0.0008907578836
-1.218020397e-05
-0.0008906821952
-1.216561059e-05
0.0008991055819
-0.0008991947418
1.225477053e-05
2.76736145e-05
-0.0008982697971
-2.793317281e-05
0.0008985293555
-0.0008912594562
2.856371679e-05
0.0004463728128
0.000445483804
0.0005739628978
4.669569088e-06
-0.0004543933567
3.930237654e-06
-0.0004640073787
0.0004646063952
-4.529254142e-06
1.258893367e-05
0.0009305957387
-1.267751224e-05
-0.0009305071601
-1.267937973e-05
0.0009383915854
1.224650894e-05
-0.0004686176978
-0.0004693410168
1.237415962e-05
0.0009196280467
-1.262005357e-05
-0.0009193821527
0.0009280064235
-0.0009279283492
1.251085942e-05
-0.0004621019907
3.151363211e-06
0.0004628808651
0.000382316146
1.056943723e-08
9.785017557e-05
-0.000480176891
0.0003747679384
-3.611204395e-06
-0.0003744668427
-9.503692542e-07
0.0007530852832
6.660438536e-07
-0.0003755270148
-0.000377273943
3.688625276e-06
-4.372242633e-06
0.0003754515557
-3.86514387e-06
0.0003787122965
7.468993405e-06
8.645343595e-06
-3.111010904e-05
0.0003812770322
-0.0003588122668
0.0003774322165
3.219278232e-06
0.0007562547446
-1.172493706e-07
-0.000378678142
-0.0003784097225
-2.908755958e-06
0.0007500747298
-0.0007505633554
3.397381525e-06
2.28697821e-06
-2.713852352e-06
0.0003743301614
1.864328444e-05
0.0003714904241
-6.901459923e-06
-0.0003777709826
-2.51231935e-06
0.000376418158
-0.000373894607
0.0003739992521
2.182333158e-06
0.0007465392785
-2.427999057e-06
-0.0007470200354
2.540828928e-06
-0.0003762547678
-0.0003772618582
-4.985549058e-07
-2.434233975e-05
-0.0003805253776
0.0003796283812
2.523933622e-05
-0.0003789831193
-2.440542031e-05