/*--------------------------------*- C++ -*----------------------------------*\
| =========                 |                                                 |
| \\      /  F ield         | OpenFOAM: The Open Source CFD Toolbox           |
|  \\    /   O peration     | Version:  v1912                                 |
|   \\  /    A nd           | Website:  www.openfoam.com                      |
|    \\/     M anipulation  |                                                 |
\*---------------------------------------------------------------------------*/
FoamFile
{
    version     2.0;
    format      ascii;
    class       volVectorField;
    location    "1.82";
    object      U;
}
// * * * * * * * * * * * * * * * * * * * * * * * * * * * * * * * * * * * * * //

dimensions      [0 1 -1 0 0 0 0];


internalField   nonuniform List<vector> 
12556
(
(99.99826811 0.004129178907 -4.212095124e-21)
(99.99782055 0.01361639597 4.603325309e-25)
(99.99652413 0.02783889498 -4.200606276e-21)
(99.9943816 0.04983576934 -4.168053241e-21)
(99.99982619 0.0384525722 4.010931527e-21)
(99.99728476 0.06177516703 0)
(99.99590599 0.09743304932 0)
(99.99554707 0.1457170487 -6.916759865e-21)
(99.99442604 0.2082723833 7.9936774e-22)
(99.99379076 0.2822738672 -5.087092179e-21)
(99.9942929 0.3577543275 7.231650408e-22)
(99.99592441 0.4183072714 0)
(99.99939952 0.4462975805 0)
(100.0036683 0.4308561997 1.487749938e-21)
(100.0053097 0.3805787597 -1.972758357e-21)
(100.0060494 0.3115265172 1.03383959e-21)
(100.0056381 0.2398906888 0)
(100.0049398 0.1762888345 1.589265623e-21)
(100.0045022 0.1232039577 6.506302876e-21)
(100.0024041 0.08524255529 -1.79809062e-21)
(100.009242 0.09562287508 -1.554246618e-20)
(100.006195 0.05823802326 0)
(100.0044501 0.03066314206 -1.940539069e-21)
(100.0042089 0.009592491389 -1.365166035e-20)
(99.98464487 0.01103099221 1.688736768e-20)
(99.97935797 0.03682092396 4.214201124e-21)
(99.96733467 0.07592897501 2.940734928e-20)
(99.94679508 0.136805447 -1.259397026e-20)
(99.95122885 0.1814319732 4.042980173e-21)
(99.92013523 0.2945131245 -5.513815483e-23)
(99.88043177 0.464930756 0)
(99.85989246 0.6154073026 -7.007979268e-21)
(99.81852077 0.8899687257 -6.42419777e-21)
(99.79016459 1.225158547 -1.096973417e-20)
(99.79368052 1.579871985 -4.40971356e-21)
(99.84406333 1.873615651 -7.748975971e-21)
(99.93538633 2.022548301 -1.602030127e-21)
(100.0381992 1.973692833 6.389546747e-22)
(100.1168851 1.756230108 -6.401922546e-22)
(100.1531111 1.441353609 5.316559306e-21)
(100.1519916 1.1089078 -1.003058941e-20)
(100.1278711 0.8166895854 0)
(100.1302217 0.6025215019 -2.741740797e-20)
(100.0910057 0.4044443175 5.26060101e-20)
(100.0870224 0.2721656957 1.504745956e-20)
(100.0593984 0.1652029731 3.08621687e-20)
(100.0434887 0.08730820997 -3.095362823e-20)
(100.0373991 0.02736399486 1.559271611e-20)
(99.95889098 0.01437947318 -1.684975963e-20)
(99.94392518 0.048941499 -3.385489451e-20)
(99.9113448 0.1032702884 -7.577972609e-20)
(99.85681643 0.1906291497 1.007871876e-19)
(99.83191997 0.2855654352 -8.321302839e-21)
(99.73891197 0.4769144691 -8.054929365e-21)
(99.61630467 0.7687385167 -1.396146883e-20)
(99.55104607 1.082253241 0)
(99.41789056 1.60679837 2.668146889e-20)
(99.32432692 2.267381485 -5.347955433e-20)
(99.34794844 2.981132485 1.975926797e-20)
(99.53390598 3.61940185 -2.99227779e-21)
(99.88286561 3.970220579 2.880130247e-20)
(100.2720824 3.879077389 -1.246254405e-20)
(100.5381761 3.399144694 2.444296591e-20)
(100.6369241 2.739494652 6.457861703e-21)
(100.6079649 2.073866165 -1.073252803e-20)
(100.5072696 1.490275434 -2.468836852e-20)
(100.4297883 1.023678944 -1.646507061e-19)
(100.3084815 0.6777287377 -3.626197742e-20)
(100.2394809 0.4095353102 -1.537595111e-20)
(100.1665397 0.2462417337 3.491567598e-20)
(100.1226006 0.1301624996 -3.916324628e-21)
(100.1034034 0.04059375624 0)
(99.92866943 0.01206557258 -8.503698984e-21)
(99.8999734 0.04351703295 5.950408666e-20)
(99.8386839 0.09945546122 -1.7027196e-20)
(99.73836144 0.1930695092 0)
(99.66006954 0.3261790011 0)
(99.47907105 0.5713385267 -6.536938466e-20)
(99.22888153 0.9591673657 -1.30629996e-19)
(99.03570928 1.424142869 3.05815657e-20)
(98.72317062 2.189247434 0)
(98.49001152 3.178140355 0)
(98.45795495 4.373681681 0)
(98.82940195 5.568864392 -1.993720422e-19)
(99.68352088 6.299277884 6.140496451e-20)
(100.6838262 6.144728128 -2.319247073e-20)
(101.3259479 5.223943954 -1.054435446e-19)
(101.4883489 4.028107701 7.298219861e-20)
(101.3601654 2.929967553 0)
(101.1222716 2.051862859 0)
(100.8867813 1.338983172 5.942545926e-20)
(100.6344435 0.8654794794 -4.565994834e-20)
(100.4515144 0.482502593 -3.92895017e-20)
(100.3157375 0.2867752013 1.985155821e-20)
(100.2313428 0.1493048308 -3.979361471e-21)
(100.1928308 0.04610149021 0)
(99.90760576 0.002790214954 0)
(99.86299438 0.01609502646 0)
(99.76849401 0.0569467039 8.621579228e-21)
(99.61321651 0.134793198 1.299507408e-20)
(99.47000238 0.2870851717 2.147331502e-20)
(99.17272239 0.5484367658 0)
(98.75741992 0.9672316659 0)
(98.36217572 1.547684409 0)
(97.79527575 2.47967706 0)
(97.24017397 3.813631018 0)
(96.93140747 5.651570134 -3.876280634e-19)
(97.40907793 7.848321936 0)
(99.20027573 9.438170782 0)
(101.4833154 9.138833635 -2.263552552e-19)
(102.7647478 7.335098016 1.08294852e-20)
(102.9046319 5.254466179 -4.583129753e-20)
(102.4813841 3.590397499 5.609309384e-20)
(101.9550588 2.401898061 -4.204790316e-22)
(101.472466 1.489162192 -9.726252278e-20)
(101.0391058 0.9341314855 8.071182385e-21)
(100.6955712 0.47080237 0)
(100.4816116 0.273841802 4.046149045e-21)
(100.3481163 0.1376812016 -3.039044653e-21)
(100.2861826 0.04173909937 -1.007317959e-21)
(99.9107325 -0.0138566299 0)
(99.84990165 -0.03477998519 0)
(99.72255455 -0.02916877892 -1.725430679e-20)
(99.50965364 0.01232301672 3.521936695e-20)
(99.29316569 0.1555466233 0)
(98.8688138 0.3827935887 0)
(98.26097002 0.7676439264 2.753267333e-20)
(97.63943104 1.366318508 -1.497078974e-19)
(96.70560191 2.321802221 -1.271770922e-18)
(95.5818651 3.847788332 3.230663441e-19)
(94.46429749 6.402274099 1.055249059e-18)
(94.39869794 10.48154987 5.486404496e-19)
(98.01424807 14.45480899 -9.552313074e-20)
(103.3722671 13.48495334 -2.985176717e-19)
(105.4522341 9.58640539 -5.634191718e-19)
(105.0995201 6.20020073 -5.166443466e-19)
(104.0012293 3.897556947 -2.556750665e-19)
(102.9579257 2.447318734 6.657257014e-20)
(102.1318249 1.413229666 2.496691227e-20)
(101.4745705 0.8451595836 -1.664192409e-20)
(100.9380921 0.361755789 0)
(100.6350758 0.198712014 0)
(100.4487809 0.09101936019 -1.018938579e-21)
(100.3617737 0.02634910124 -3.052227232e-21)
(99.95246097 -0.03743735058 4.227924803e-21)
(99.87714473 -0.1071813944 -4.260485576e-21)
(99.72176619 -0.1555369176 8.696617892e-21)
(99.45877004 -0.1741054675 -3.177955916e-20)
(99.16166771 -0.06936130083 6.364076766e-23)
(98.62435481 0.0733335521 2.725487644e-20)
(97.84310026 0.3502411826 -1.334266587e-19)
(96.99910977 0.84152507 0)
(95.65820369 1.635469121 1.783474317e-18)
(93.78582468 2.988499624 0)
(91.05510456 5.554842835 0)
(87.48580673 11.90530335 -1.905287826e-19)
(93.88833054 24.11417346 2.666275322e-19)
(109.2755979 19.65057168 4.467026876e-19)
(110.2503234 11.15125748 0)
(108.1228947 6.25631509 0)
(105.8180701 3.561105185 -6.043828859e-19)
(104.0369646 2.062296611 0)
(102.7565378 1.055971814 0)
(101.8799046 0.570995315 9.001156704e-21)
(101.1349486 0.1549239924 2.667217967e-21)
(100.7441211 0.05728429519 -3.156540661e-21)
(100.5088342 0.009256677323 -3.589098051e-21)
(100.3975379 6.162649264e-05 8.656410504e-21)
(100.0451211 -0.06650416539 -4.228373643e-21)
(99.95899281 -0.1964281787 4.262017807e-21)
(99.78369069 -0.3130209103 -5.413529259e-21)
(99.48520787 -0.4098223377 -3.646356607e-21)
(99.1206209 -0.3716998807 1.556047342e-20)
(98.49857973 -0.3540758344 9.287317651e-21)
(97.607547 -0.2614476505 3.458908421e-20)
(96.58256643 0.0237313841 0)
(94.94684687 0.4430547726 -1.160990327e-18)
(92.52546406 1.125588465 -4.360085366e-19)
(88.46717926 2.165760193 0)
(80.42503264 4.061019868 1.274717359e-18)
(124.3487757 22.62325891 0)
(116.9803164 9.351072952 0)
(111.4434002 4.612945652 2.124372359e-19)
(107.5606048 2.342600646 -6.975608186e-19)
(104.9954317 1.18343284 0)
(103.2319664 0.4144814921 -4.762828553e-21)
(102.1745779 0.1260620391 2.029071789e-20)
(101.238434 -0.142897152 -3.242064465e-21)
(100.777713 -0.1407866036 2.654008069e-21)
(100.5043201 -0.1025931099 -4.955689088e-22)
(100.3726882 -0.03606974027 -8.116037586e-21)
(100.1976231 -0.09888134005 -2.042442757e-21)
(100.1056541 -0.2957776628 -1.535326351e-21)
(99.92079865 -0.4888130875 -5.262899925e-22)
(99.60552866 -0.6742827853 1.59681774e-21)
(99.19295887 -0.7223120679 -3.005829374e-23)
(98.53133826 -0.8521326016 0)
(97.60857307 -0.9762730429 4.207338002e-20)
(96.49525126 -0.9551666529 5.590648561e-19)
(94.77940745 -0.9849977935 -5.981532069e-19)
(92.34399773 -1.081967626 -4.334352668e-19)
(88.70371631 -1.660231543 -4.828132297e-19)
(83.97707687 -3.784063186 -1.099350273e-18)
(137.2012326 6.938811075 0)
(121.6775566 2.77658202 8.052223915e-19)
(113.6866991 1.101909383 -4.818608489e-19)
(108.6874928 0.2812729872 3.931254063e-19)
(105.5698769 -0.1135281169 8.169222478e-20)
(103.4512409 -0.4361645195 -4.844759406e-21)
(102.2784601 -0.4524227441 1.136770011e-20)
(101.2130933 -0.503657928 1.10984788e-21)
(100.711217 -0.3775896149 0)
(100.4152606 -0.2351246617 4.088367702e-21)
(100.2707089 -0.0790549001 4.042080808e-21)
(100.4141903 -0.1319958678 4.025551144e-21)
(100.3218515 -0.3972960655 6.027677528e-23)
(100.1386648 -0.6680073591 0)
(99.82668832 -0.9442716337 2.095117658e-22)
(99.39032752 -1.087289056 -2.141197982e-21)
(98.73659507 -1.366661629 2.286751236e-21)
(97.85428772 -1.701668009 -7.770486749e-20)
(96.75666283 -1.933052295 -6.387576084e-19)
(95.14860639 -2.339839555 0)
(92.99359497 -2.952722352 0)
(90.1418739 -4.112186887 -4.321528806e-19)
(87.2074073 -5.980081314 1.156786566e-19)
(134.4928631 -9.308939476 -2.269706787e-18)
(121.4326025 -5.00568658 0)
(113.7808983 -3.128783995 2.486229121e-19)
(108.7522315 -2.153173818 -1.150285222e-18)
(105.567274 -1.610108975 8.500904642e-20)
(103.338058 -1.379797582 4.090399499e-20)
(102.1505319 -1.09292576 0)
(101.0385346 -0.8880651189 -1.083130789e-21)
(100.5301721 -0.6292428358 -4.502517969e-21)
(100.2301095 -0.3758385745 5.031101098e-22)
(100.0816616 -0.1247716251 0)
(100.6939524 -0.1633724446 -1.982934078e-21)
(100.6063427 -0.4932055735 2.000977924e-21)
(100.4349473 -0.8361679547 1.953426043e-21)
(100.1463891 -1.197717635 -1.82910304e-21)
(99.70741057 -1.434146668 -2.113939887e-21)
(99.10283753 -1.846486778 0)
(98.31371442 -2.360885221 -2.29485491e-21)
(97.30200424 -2.801193288 8.162231131e-20)
(95.88299897 -3.472908584 -7.430876028e-19)
(94.04379353 -4.37447198 3.989854496e-19)
(91.69586041 -5.714503969 3.893298452e-19)
(89.33131226 -7.286680306 -7.096053855e-19)
(125.6621495 -18.26371488 8.026885999e-19)
(117.6064771 -10.72453984 5.955415252e-19)
(111.9284047 -6.66789576 -2.870673681e-21)
(107.7696426 -4.343632791 -4.76891017e-20)
(104.9694692 -3.022319165 -3.151464454e-19)
(102.8866102 -2.274916649 0)
(101.7912188 -1.709982856 -2.677728191e-20)
(100.7124023 -1.254588323 -1.356261172e-20)
(100.2335116 -0.8700688318 1.029660278e-21)
(99.94750034 -0.5112826945 -3.251783954e-21)
(99.80400751 -0.1689214751 4.764498034e-22)
(101.0312429 -0.1908659752 7.274647805e-21)
(100.9527551 -0.5766884058 0)
(100.8006923 -0.9791300268 -1.949599143e-21)
(100.5489142 -1.422445296 0)
(100.1216663 -1.737026459 0)
(99.60249173 -2.252464086 -6.290804124e-21)
(98.94011414 -2.903637402 -6.855336028e-20)
(98.05644684 -3.500060074 0)
(96.85561996 -4.347632327 0)
(95.30468538 -5.432707912 0)
(93.27188334 -6.9285605 -1.092750043e-18)
(91.04951674 -8.531261343 -8.175035203e-19)
(116.2774065 -21.49590072 -5.303164804e-19)
(112.4343863 -13.5749608 4.407595543e-19)
(109.0204591 -8.83168575 1.677649445e-19)
(106.0882737 -5.891288766 0)
(103.9185883 -4.127188608 0)
(102.1579465 -3.007571573 2.137207314e-21)
(101.2348748 -2.234508416 -3.26276823e-20)
(100.257113 -1.575561279 8.03556204e-21)
(99.83382543 -1.076388619 0)
(99.57576309 -0.6297596519 3.744636267e-21)
(99.44457734 -0.2077348119 0)
(101.4169248 -0.2136923774 7.265334804e-21)
(101.3501788 -0.6465073242 1.147145694e-19)
(101.2209987 -1.096798716 -2.311693974e-19)
(101.009476 -1.600810653 -5.904979167e-22)
(100.6357792 -1.972633894 -1.832969053e-21)
(100.2036819 -2.560496135 0)
(99.68628777 -3.303541114 0)
(98.94857594 -3.998597895 -1.424814309e-19)
(97.98382826 -4.950345845 -6.928859578e-21)
(96.72922968 -6.162082997 3.141373131e-19)
(95.04376492 -7.877485303 0)
(93.05958153 -9.795696486 1.391472135e-22)
(103.6792009 -30.6908061 1.112002168e-19)
(107.6780749 -19.94108401 0)
(107.4733222 -13.92223823 0)
(105.9316334 -9.602591959 0)
(104.1394054 -6.691975165 -5.989177001e-19)
(102.6249736 -4.824315131 -2.940591371e-19)
(101.2562153 -3.510840946 -6.514949848e-20)
(100.5352949 -2.61827853 0)
(99.70909736 -1.817801394 0)
(99.35251622 -1.235698736 1.171041572e-20)
(99.13075046 -0.7236154389 2.159482895e-21)
(99.01691009 -0.2385396281 -7.007503605e-21)
(101.8390329 -0.2296904811 0)
(101.7855491 -0.6960894371 0)
(101.6827116 -1.179100898 0)
(101.5136681 -1.716359734 0)
(101.1925753 -2.143095971 0)
(100.850417 -2.782014518 0)
(100.4692742 -3.576161776 1.14226894e-19)
(99.89791766 -4.312365609 -3.190815093e-20)
(99.16829408 -5.301135278 0)
(98.2349825 -6.560372545 3.989694857e-19)
(97.03707659 -8.398969371 -3.250874101e-19)
(95.83473987 -10.9939746 -2.999618315e-19)
(96.65437682 -20.10326711 7.491888525e-20)
(102.4821043 -16.41905175 -5.762346358e-20)
(103.6721419 -12.63532708 -4.698132306e-20)
(103.2437031 -9.331273215 0)
(102.2634167 -6.853745319 -2.143300358e-19)
(101.2760126 -5.129511195 -8.545653913e-20)
(100.2863441 -3.783929859 -9.089305531e-20)
(99.76393526 -2.857358147 -3.423011389e-20)
(99.10254952 -1.969836127 -1.906668587e-20)
(98.81443286 -1.344104563 1.878089131e-20)
(98.63279335 -0.7887114575 0)
(98.53862602 -0.259884906 1.878886116e-20)
(102.2854279 -0.238867439 0)
(102.2459374 -0.7247646379 0)
(102.1715043 -1.226057936 0)
(102.0463137 -1.773764725 0)
(101.7770109 -2.229331118 0)
(101.5324346 -2.883809372 0)
(101.2759205 -3.666345733 0)
(100.8680241 -4.425127288 0)
(100.3524162 -5.388968153 -2.355147691e-19)
(99.72841752 -6.56180453 0)
(99.08774846 -8.156936918 5.731628773e-19)
(98.8584814 -10.52133091 0)
(98.07579742 -13.09370344 7.465832048e-20)
(100.3624316 -12.64611478 -9.606954723e-21)
(101.2605147 -10.71562365 2.09297815e-19)
(101.1857697 -8.493143448 -2.901644089e-19)
(100.6462333 -6.584840296 1.698585214e-19)
(100.0209455 -5.134834497 -2.43564563e-20)
(99.32545621 -3.858434319 0)
(98.98343425 -2.961642613 0)
(98.46898609 -2.038927985 -3.548184042e-20)
(98.24553729 -1.401148754 1.75093615e-20)
(98.10344127 -0.8240668808 7.338036259e-22)
(98.02872011 -0.2715606489 -1.294101915e-20)
(102.74346 -0.2416110315 0)
(102.7170541 -0.733200189 0)
(102.6691386 -1.238869805 0)
(102.5846563 -1.780647251 0)
(102.3636988 -2.246337752 0)
(102.2035177 -2.887448323 0)
(102.0481976 -3.627284072 0)
(101.7778891 -4.373124164 1.778269812e-19)
(101.4288079 -5.269378959 0)
(101.0175832 -6.281891506 6.058919537e-19)
(100.678207 -7.484623142 0)
(97.92984388 -8.56474191 1.156683165e-19)
(98.97657518 -10.0019197 1.81914642e-20)
(99.64215466 -9.928002087 2.445275408e-20)
(99.86058628 -8.904407609 6.250189929e-19)
(99.7057705 -7.47296296 -4.389847847e-19)
(99.33775892 -6.083533359 5.899239244e-21)
(98.92184932 -4.919123095 0)
(98.44021274 -3.780907083 -3.001751523e-20)
(98.23083111 -2.953327027 4.557950561e-20)
(97.83757888 -2.038473803 1.104058002e-20)
(97.6704255 -1.412640923 1.884791047e-20)
(97.56284997 -0.8326342104 -2.14106407e-20)
(97.50529954 -0.2744431703 0)
(103.2013876 -0.2388209293 0)
(103.1862207 -0.7242034308 0)
(103.1604839 -1.222210204 0)
(103.1102365 -1.744980876 0)
(102.9325269 -2.205642923 0)
(102.8397247 -2.812504272 0)
(102.7616731 -3.487252186 0)
(102.5819513 -4.186762961 1.112875698e-19)
(102.3463128 -4.988656801 5.804358707e-19)
(102.0340219 -5.824135837 -6.098447133e-19)
(101.7971152 -6.688827895 8.530129742e-19)
(94.98961063 -6.762594042 -6.515288706e-19)
(99.48037816 -8.061528458 2.876114257e-19)
(99.27001049 -8.026285434 -2.171902803e-19)
(98.98549872 -7.411953407 2.64344833e-19)
(98.65696763 -6.482731758 -4.088060804e-19)
(98.31559849 -5.503072238 0)
(98.00091273 -4.581719724 0)
(97.65748826 -3.603347411 0)
(97.52971473 -2.857312821 0)
(97.2307332 -1.983387915 3.826527134e-20)
(97.10836373 -1.386672036 -3.579803552e-20)
(97.02801502 -0.8186416164 -2.418369368e-21)
(96.98419297 -0.2702388512 2.426484816e-21)
(103.6491687 -0.2315712798 0)
(103.6431194 -0.7012423398 0)
(103.6346796 -1.181979344 0)
(103.6111193 -1.675843607 0)
(103.4692635 -2.119155768 0)
(103.4252917 -2.679144734 0)
(103.3978937 -3.280397956 0)
(103.2716432 -3.899287172 0)
(103.0851516 -4.586561754 3.655240431e-20)
(102.7727201 -5.262616118 0)
(102.5578158 -5.912402114 0)
(94.56348175 -5.923847984 8.531015141e-19)
(99.61825116 -6.718271006 1.657461979e-19)
(98.96040201 -6.649659703 -2.114955342e-19)
(98.37208889 -6.238763316 1.322586704e-20)
(97.9063062 -5.621134562 -9.851578318e-21)
(97.53228313 -4.913821585 0)
(97.24715646 -4.187422791 0)
(96.97424959 -3.357827148 0)
(96.89251692 -2.699122812 0)
(96.66122115 -1.886721223 0)
(96.57162173 -1.330087973 0)
(96.51187264 -0.7877278628 0)
(96.47829773 -0.261085639 0)
(104.0790652 -0.2209235902 0)
(104.0799936 -0.667736374 0)
(104.084095 -1.124113541 0)
(104.0797195 -1.582925817 0)
(103.9651955 -2.000301027 0)
(103.9526699 -2.507702014 0)
(103.9524384 -3.035914232 0)
(103.8499373 -3.570988893 0)
(103.6704409 -4.130586193 0)
(103.3245547 -4.668144413 -4.853780272e-21)
(102.7779554 -5.128377496 1.186927708e-20)
(96.17490438 -5.335413362 -1.685240095e-19)
(99.61607953 -5.674172526 -8.555726441e-22)
(98.7135957 -5.598228024 -2.785401118e-20)
(97.95004787 -5.319554176 0)
(97.36560632 -4.884774334 0)
(96.93107927 -4.352353843 0)
(96.63525934 -3.776305518 0)
(96.38855201 -3.078659466 0)
(96.3258979 -2.505943276 0)
(96.13701195 -1.764452914 0)
(96.06870515 -1.253314726 0)
(96.02247912 -0.7441519744 0)
(95.99681608 -0.247233923 0)
(104.4855359 -0.207902762 0)
(104.4913776 -0.6269589689 0)
(104.5035796 -1.054240371 0)
(104.5115004 -1.475163781 0)
(104.416399 -1.861555069 0)
(104.4207014 -2.315288685 0)
(104.4295294 -2.777558103 0)
(104.3306091 -3.232727314 0)
(104.1341568 -3.687387321 0)
(103.7515515 -4.106926947 0)
(102.9320312 -4.426864969 0)
(97.02807458 -4.644529524 0)
(99.6386167 -4.83353539 0)
(98.56319143 -4.775715579 0)
(97.65608764 -4.57171067 0)
(96.96358033 -4.24845466 0)
(96.46340295 -3.838895343 0)
(96.13649857 -3.376894696 0)
(95.89022576 -2.790682523 0)
(95.82753749 -2.296978108 0)
(95.66138149 -1.6289134 0)
(95.60477753 -1.164732307 0)
(95.56605098 -0.6930986756 0)
(95.54522938 -0.2307253594 0)
(104.8650014 -0.1934464497 0)
(104.8738994 -0.5818857513 0)
(104.8903101 -0.9773657357 0)
(104.9045919 -1.359952949 0)
(104.8224303 -1.713112496 0)
(104.8321778 -2.115461029 0)
(104.8363696 -2.519076952 0)
(104.7296038 -2.903291665 0)
(104.5041517 -3.274265503 0)
(104.0790358 -3.605436562 0)
(103.0358909 -3.841437318 0)
(97.5490181 -4.044915748 0)
(99.65264519 -4.152191014 -3.108452457e-35)
(98.45234649 -4.104461665 0)
(97.43650439 -3.948933654 0)
(96.65627217 -3.701126644 0)
(96.09391751 -3.379644564 0)
(95.7275509 -3.005135812 0)
(95.46644999 -2.510692693 0)
(95.39160378 -2.086020152 0)
(95.23392318 -1.489114766 0)
(95.18146756 -1.070890471 0)
(95.14543671 -0.6385013242 0)
(95.127127 -0.2129783145 0)
(105.2155533 -0.1783427997 0)
(105.2259603 -0.5350163358 0)
(105.2434357 -0.8976949831 0)
(105.25926 -1.242933247 0)
(105.1851592 -1.562712317 0)
(105.1920192 -1.917752565 0)
(105.1824026 -2.268905491 0)
(105.0614453 -2.5931927 0)
(104.8023348 -2.897862077 0)
(104.3347884 -3.163217503 0)
(103.1095376 -3.342449328 0)
(97.93169477 -3.532480601 0)
(99.65268148 -3.590533832 0)
(98.36489322 -3.548402751 0)
(97.26681549 -3.42568845 0)
(96.41572552 -3.230750384 0)
(95.79757964 -2.973793472 0)
(95.39055718 -2.667335044 0)
(95.1048281 -2.248284779 0)
(95.0110752 -1.882074824 0)
(94.85205614 -1.351425615 0)
(94.79819483 -0.9766869444 0)
(94.76131808 -0.5833184749 0)
(94.74370098 -0.1949747143 0)
(105.5366775 -0.1632082231 0)
(105.5473718 -0.4882826112 0)
(105.5635593 -0.818488808 0)
(105.577293 -1.128318193 0)
(105.5074179 -1.415896985 0)
(105.5058799 -1.728346426 0)
(105.4771522 -2.032145033 0)
(105.3382566 -2.307789009 0)
(105.0452334 -2.559718694 0)
(104.5383591 -2.77540934 0)
(103.1667327 -2.914694979 0)
(98.21530293 -3.093940648 0)
(99.64344737 -3.120356649 -4.035890849e-35)
(98.29356206 -3.082228975 0)
(97.13206781 -2.982888662 0)
(96.2235813 -2.82623147 0)
(95.55653694 -2.617539168 0)
(95.1102988 -2.363975305 0)
(94.7954579 -2.007227071 0)
(94.67891501 -1.690497144 0)
(94.51209592 -1.220127283 0)
(94.4530187 -0.8855303268 0)
(94.41285901 -0.529634979 0)
(94.39459062 -0.1773990052 0)
(105.8289384 -0.1485030492 0)
(105.8389876 -0.4430920839 0)
(105.8522208 -0.7420980118 0)
(105.8613049 -1.019072047 0)
(105.7928072 -1.276405599 0)
(105.7793898 -1.550860939 0)
(105.7293571 -1.813371945 0)
(105.5702102 -2.048740306 0)
(105.245207 -2.258702277 0)
(104.702847 -2.436263633 0)
(103.2155798 -2.546940098 0)
(98.42598676 -2.717495562 0)
(99.62811986 -2.722952001 0)
(98.23407891 -2.688021657 0)
(97.02276026 -2.606074846 0)
(96.06743337 -2.477994938 0)
(95.35793999 -2.306161882 0)
(94.87506563 -2.094215569 0)
(94.52982408 -1.789043906 0)
(94.3886466 -1.514213003 0)
(94.20997483 -1.097871079 0)
(94.14323528 -0.799637144 0)
(94.09820949 -0.4788394901 0)
(94.07833651 -0.1607122118 0)
(106.0936437 -0.134558227 0)
(106.1023592 -0.4004291938 0)
(106.1115126 -0.6701350335 0)
(106.1142514 -0.917163516 0)
(106.0450639 -1.146625437 0)
(106.0177424 -1.387524501 0)
(105.9455556 -1.614637257 0)
(105.7656693 -1.816292127 0)
(105.4115381 -1.992618317 0)
(104.8373635 -2.140411038 0)
(103.2606628 -2.230321431 0)
(98.58299705 -2.393870554 0)
(99.60868885 -2.385127871 1.328479068e-35)
(98.18369667 -2.352833457 0)
(96.93263021 -2.284266664 0)
(95.93872055 -2.178094051 0)
(95.19249352 -2.034954023 0)
(94.67598818 -1.856187462 0)
(94.30066872 -1.593860182 0)
(94.13447207 -1.354512486 0)
(93.94160629 -0.9861074663 0)
(93.86576008 -0.7203454701 0)
(93.81491823 -0.4318001031 0)
(93.79279461 -0.1452083913 0)
(106.3325895 -0.1215997764 0)
(106.3394842 -0.3609481665 0)
(106.3438487 -0.6036440689 0)
(106.339203 -0.8237816127 0)
(106.2678989 -1.027919342 0)
(106.2256896 -1.239436052 0)
(106.1314463 -1.436363474 0)
(105.931319 -1.609658478 0)
(105.5512541 -1.758844518 0)
(104.9486041 -1.883032957 0)
(103.304282 -1.957587077 0)
(98.70057656 -2.115493202 0)
(99.58640278 -2.097049287 0)
(98.14049481 -2.06695764 0)
(96.85734901 -2.008938613 0)
(95.83135183 -1.919931018 0)
(95.0533176 -1.79950097 0)
(94.50624246 -1.647501286 0)
(94.10201043 -1.420924603 0)
(93.91128617 -1.211633058 0)
(93.70305433 -0.8854542729 0)
(93.61736631 -0.6483592827 0)
(93.56021887 -0.3889992607 0)
(93.53543516 -0.1310564676 0)
(106.5478932 -0.1097691125 0)
(106.5526407 -0.3250444252 0)
(106.5518207 -0.5432380209 0)
(106.5392326 -0.7395477791 0)
(106.4648145 -0.9209542433 0)
(106.4074252 -1.106919313 0)
(106.2918109 -1.278189993 0)
(106.0725035 -1.427567568 0)
(105.6696451 -1.554716229 0)
(105.0414962 -1.659926943 0)
(103.3474986 -1.722929449 0)
(98.78974143 -1.876239829 0)
(99.56212524 -1.851202056 0)
(98.10307048 -1.822982318 0)
(96.7938179 -1.773427946 0)
(95.74089107 -1.698097216 0)
(94.93523804 -1.595877386 0)
(94.3605112 -1.465667782 0)
(93.9289358 -1.269046891 0)
(93.71466829 -1.085202321 0)
(93.49061462 -0.7959855538 0)
(93.39483016 -0.5839383059 0)
(93.33120667 -0.3506403433 0)
(93.30352738 -0.1183335404 0)
(106.7418718 -0.099143102 0)
(106.7442665 -0.2929188325 0)
(106.7380912 -0.4892114731 0)
(106.7173391 -0.6646807813 0)
(106.6391222 -0.8258841211 0)
(106.5667016 -0.9897787115 0)
(106.4307332 -1.139307583 0)
(106.193576 -1.268506206 0)
(105.7707787 -1.377680339 0)
(105.1197958 -1.467522949 0)
(103.3906864 -1.52172176 0)
(98.8588008 -1.671260172 0)
(99.53646144 -1.641736338 0)
(98.07034831 -1.615096629 0)
(96.73972184 -1.57241262 0)
(95.66399082 -1.508107803 0)
(94.83424637 -1.420623709 0)
(94.23454175 -1.308260109 0)
(93.77732407 -1.136802766 0)
(93.5407327 -0.9744710985 0)
(93.30084678 -0.7174296921 0)
(93.19501905 -0.5270448005 0)
(93.12495446 -0.3167368082 0)
(93.09426458 -0.1070535104 0)
(106.9169037 -0.0897542546 0)
(106.9168275 -0.2646396285 0)
(106.905278 -0.4416456864 0)
(106.8763641 -0.5991504312 0)
(106.793873 -0.7425660646 0)
(106.7068321 -0.8875430649 0)
(106.5516739 -1.018715779 0)
(106.2981044 -1.130931445 0)
(105.8578479 -1.225421364 0)
(105.1864188 -1.302768823 0)
(103.4337949 -1.350164056 0)
(98.91405223 -1.496513544 0)
(99.5097981 -1.464081575 0)
(98.04146791 -1.438733646 0)
(96.6932779 -1.401647345 0)
(95.59806408 -1.346285001 0)
(94.74718207 -1.270778265 0)
(94.1248897 -1.173054687 0)
(93.64372037 -1.022739545 0)
(93.38609341 -0.8785321006 0)
(93.130612 -0.6493370602 0)
(93.01497666 -0.4774664501 0)
(92.93862783 -0.2871880127 0)
(92.90489295 -0.09719190641 0)
(107.0754302 -0.0816038589 0)
(107.0728195 -0.2401848755 0)
(107.055968 -0.4004805221 0)
(107.0190381 -0.542760789 0)
(106.9318823 -0.6706832746 0)
(106.8307736 -0.799611502 0)
(106.6575051 -0.9152206084 0)
(106.3890834 -1.013372929 0)
(105.9334272 -1.095861381 0)
(105.2436671 -1.163028562 0)
(103.4766697 -1.20513865 0)
(98.9605477 -1.348685445 0)
(99.4823871 -1.314564267 0)
(98.015704 -1.290232922 0)
(96.65305308 -1.257689272 0)
(95.54103975 -1.20958089 0)
(94.67147542 -1.143811314 0)
(94.02864574 -1.058049823 0)
(93.52518917 -0.9254791438 0)
(93.24776438 -0.7964386495 0)
(92.97699323 -0.5911626149 0)
(92.85188566 -0.4348934706 0)
(92.76946856 -0.2618263466 0)
(92.73269915 -0.08870058022 0)
(107.2196776 -0.07467971848 0)
(107.2145181 -0.219488871 0)
(107.1924939 -0.3655724485 0)
(107.1477824 -0.4952869773 0)
(107.0557337 -0.6098242138 0)
(106.941201 -0.7253255846 0)
(106.7508207 -0.8274592326 0)
(106.4689384 -0.9145396656 0)
(105.9996088 -0.9871901534 0)
(105.2933698 -1.046069378 0)
(103.5192034 -1.08405132 0)
(99.00242617 -1.225039018 0)
(99.45440731 -1.190234627 -1.781889272e-36)
(97.99242441 -1.166654441 0)
(96.61785921 -1.137747024 0)
(95.49122205 -1.095483189 0)
(94.60502393 -1.037601601 0)
(93.94344642 -0.9618318312 0)
(93.41909705 -0.8439378268 0)
(93.12308056 -0.7272560718 0)
(92.83746405 -0.5423937187 0)
(92.70326033 -0.3989774329 0)
(92.61501727 -0.240464757 0)
(92.57526312 -0.08152604015 0)
(107.3524791 -0.06894532048 0)
(107.3447319 -0.2024363895 0)
(107.3176428 -0.3367260562 0)
(107.2653954 -0.4563223539 0)
(107.1678522 -0.5595550141 0)
(107.0405371 -0.6639396778 0)
(106.8342986 -0.7548310312 0)
(106.5396758 -0.8331282369 0)
(106.0581472 -0.8978472668 0)
(105.3370269 -0.9500723016 0)
(103.5612584 -0.9848270087 0)
(99.04297352 -1.123398748 0)
(99.42597925 -1.088721245 0)
(97.97106337 -1.065633006 0)
(96.58668231 -1.039563415 0)
(95.44718377 -1.001927968 0)
(94.54607291 -0.9503334942 0)
(93.86746814 -0.8827738154 0)
(93.32303799 -0.7769944798 0)
(93.0096432 -0.670139325 0)
(92.7091741 -0.5023946934 0)
(92.56623836 -0.3693625945 0)
(92.47236449 -0.2228887921 0)
(92.42963566 -0.07559741145 0)
(107.4741186 -0.06441427808 0)
(107.4638909 -0.1890050933 0)
(107.4319287 -0.3137897198 0)
(107.3724589 -0.4259982375 0)
(107.2704731 -0.5193506681 0)
(107.130956 -0.6147500652 0)
(106.9102575 -0.6974960712 0)
(106.6031865 -0.7678647003 0)
(106.1106168 -0.8264940222 0)
(105.3759408 -0.8735234624 0)
(103.6025993 -0.9057552985 0)
(99.08470822 -1.041884431 0)
(99.39718733 -1.008087344 0)
(97.9511082 -0.985257285 0)
(96.55862723 -0.9613114545 0)
(95.40766807 -0.9272254368 0)
(94.49302139 -0.8804710611 0)
(93.79869655 -0.8189384222 0)
(93.23517892 -0.7232281617 0)
(92.90521027 -0.6241250623 0)
(92.59156667 -0.4711348292 0)
(92.44028365 -0.345758021 0)
(92.34103385 -0.2090008768 0)
(92.29549287 -0.07090533768 0)
(107.5941199 -0.060924655 0)
(107.5810557 -0.1788679589 0)
(107.544045 -0.2964524847 0)
(107.4767537 -0.4021678774 0)
(107.3662303 -0.488973752 0)
(107.2143625 -0.5775535337 0)
(106.9798557 -0.6546705299 0)
(106.6613339 -0.7180287906 0)
(106.1584322 -0.7720697521 0)
(105.4112318 -0.8151804802 0)
(103.6430091 -0.8455124391 0)
(99.12967132 -0.9789632603 0)
(99.3681333 -0.9468147042 0)
(97.93209823 -0.924038051 0)
(96.53289322 -0.9015646045 0)
(95.37155716 -0.8700558782 0)
(94.44443115 -0.8268668126 0)
(93.7352574 -0.76981105 0)
(93.15382964 -0.6819356151 0)
(92.80795615 -0.5893251091 0)
(92.47672121 -0.4462116522 0)
(92.31654043 -0.3277535596 0)
(92.21176635 -0.1983951896 0)
(92.16303475 -0.06725213696 0)
(107.6861519 -0.05893266841 0)
(107.6712388 -0.17282668 0)
(107.6303268 -0.2856761946 0)
(107.557959 -0.3898220258 0)
(107.4548803 -0.4677043218 0)
(107.2924162 -0.5516809778 0)
(107.0447319 -0.6253310416 0)
(106.7155058 -0.682941346 0)
(106.2028284 -0.7337339789 0)
(105.4438979 -0.7740838478 0)
(103.6824496 -0.8031561261 0)
(99.17946745 -0.9336100849 0)
(99.33891237 -0.9037711363 0)
(97.91360459 -0.8808468642 0)
(96.50874148 -0.859234302 0)
(95.33783832 -0.82940441 0)
(94.39904929 -0.7886198619 0)
(93.67584221 -0.7346532278 0)
(93.07732709 -0.6525983406 0)
(92.71640556 -0.5647781623 0)
(92.3862895 -0.4328128042 0)
(92.2200383 -0.3163368041 0)
(92.11100359 -0.1919498339 0)
(92.06025449 -0.06515068446 0)
(107.8591968 -0.05683782079 0)
(107.8403784 -0.1676219702 0)
(107.7920058 -0.2768170833 0)
(107.7063864 -0.3753653085 0)
(107.5367411 -0.4562335747 0)
(107.3631548 -0.5372954576 0)
(107.1037953 -0.6095801585 0)
(106.7669805 -0.6620199531 0)
(106.2448934 -0.7108093617 0)
(105.47488 -0.7495037068 0)
(103.7209263 -0.7780413571 0)
(99.23498146 -0.9053482566 0)
(99.30963958 -0.8781440264 0)
(97.89524618 -0.8548947248 0)
(96.4854928 -0.8335440042 0)
(95.30559067 -0.8045331143 0)
(94.35572512 -0.765043725 0)