/*--------------------------------*- C++ -*----------------------------------*\
| =========                 |                                                 |
| \\      /  F ield         | OpenFOAM: The Open Source CFD Toolbox           |
|  \\    /   O peration     | Version:  v1912                                 |
|   \\  /    A nd           | Website:  www.openfoam.com                      |
|    \\/     M anipulation  |                                                 |
\*---------------------------------------------------------------------------*/
FoamFile
{
    version     2.0;
    format      ascii;
    class       surfaceVectorField;
    location    "1.82";
    object      Uf;
}
// * * * * * * * * * * * * * * * * * * * * * * * * * * * * * * * * * * * * * //

dimensions      [0 1 -1 0 0 0 0];


internalField   nonuniform List<vector> 
25162
(
(99.9980441 0.008342611928 -2.132135258e-21)
(99.99218696 0.007575794801 6.324037465e-21)
(99.99717167 0.01953577634 -2.100203654e-21)
(99.989522 0.02521110207 2.148719971e-21)
(99.99545201 0.03726722859 -4.184329301e-21)
(99.98340475 0.05187593381 1.266542942e-20)
(99.99801105 0.04153822046 1.284687869e-21)
(99.97261423 0.09330561063 -8.286307606e-21)
(99.98851634 0.09153394007 -1.389275395e-21)
(99.99721727 0.07467113065 2.005622988e-21)
(99.99901878 0.04450659552 9.857635936e-22)
(99.98668657 0.1217872998 1.988601954e-21)
(99.99695684 0.06891480133 9.675003707e-22)
(99.9977473 0.05467668021 -1.006914044e-21)
(99.99626728 0.0866136318 9.674608552e-22)
(99.9797673 0.1935402842 1.921657224e-21)
(99.99596237 0.1082486745 0)
(99.99578258 0.131795729 -3.458486293e-21)
(99.97413327 0.2895468155 -3.458468293e-21)
(99.99525716 0.1594617212 -8.957703819e-22)
(99.99469666 0.1908123893 3.01170586e-21)
(99.96754555 0.4147148489 3.251211711e-21)
(99.99421878 0.2255567686 3.996732738e-22)
(99.99390134 0.2628903283 -2.543645208e-21)
(99.96379948 0.5634673335 3.676958189e-22)
(99.99382331 0.3016219221 -2.514588469e-21)
(99.99407483 0.3400110557 4.226145251e-22)
(99.9665758 0.7159964534 -1.629067211e-21)
(99.99471654 0.3757615534 2.282988741e-21)
(99.99553281 0.4067180709 1.859079304e-21)
(99.9778658 0.83753926 -7.967244089e-22)
(99.99652383 0.4304534724 0)
(99.99826162 0.4447661105 0)
(99.99684918 0.8938469214 1.14627018e-22)
(100.0006928 0.4481432113 0)
(100.0028271 0.4402453355 7.438646601e-22)
(100.0167348 0.8633571664 -1.320906765e-23)
(100.0041408 0.422349772 1.267048603e-21)
(100.0049609 0.3964497559 -5.0091277e-22)
(100.0295089 0.762942069 -7.712689485e-22)
(100.0055797 0.3648620281 -1.420218743e-21)
(100.0059492 0.3297897577 8.306085088e-23)
(100.0341532 0.623530328 1.978097745e-21)
(100.0060035 0.2932671031 5.16934891e-22)
(100.0057976 0.2570429808 0)
(100.0322648 0.4792717223 0)
(100.0054225 0.2225391792 0)
(100.0050732 0.1905603291 7.946040394e-22)
(100.0267516 0.3522437486 1.650180431e-21)
(100.0050744 0.1619594359 -4.021161015e-21)
(100.0048552 0.1347645046 -1.503088082e-21)
(100.0217582 0.2451289508 3.253400377e-21)
(100.0041262 0.1115085942 3.253157604e-21)
(100.0030771 0.09213130347 -8.989700318e-22)
(100.0129352 0.1659586164 -4.443397668e-23)
(100.0009474 0.07831189001 1.759422853e-21)
(100.0077267 0.07448803547 -7.777341179e-21)
(100.0446502 0.1837438558 3.555410476e-22)
(100.0163436 0.1671480502 -2.758711839e-21)
(100.0027362 0.07715117557 -1.592990912e-21)
(100.0053244 0.04269717747 -9.715570354e-22)
(100.02973 0.1116618156 1.541381897e-20)
(100.0043294 0.0198864508 -7.797146719e-21)
(100.0214317 0.05896391373 -1.6434527e-20)
(100.0187407 0.0184772509 1.34531823e-21)
(99.98200076 0.02322005511 1.055136653e-20)
(99.97036185 0.01270022968 3.097304752e-22)
(99.97334323 0.05484179363 1.681107711e-20)
(99.95987571 0.04286436769 -1.477858027e-20)
(99.95706412 0.1044891726 8.781600198e-21)
(99.9369381 0.08956586853 -2.283341646e-20)
(99.94975028 0.1629394249 -1.498741249e-21)
(99.89797204 0.1636464992 4.395471504e-20)
(99.91483803 0.2056886683 -9.661202475e-21)
(99.92612114 0.2081595136 -2.075470761e-21)
(99.94370565 0.2046802237 4.067250958e-21)
(99.96518472 0.1461602046 2.021408287e-21)
(99.94609958 0.2381560605 1.961430865e-21)
(99.92815951 0.2618524875 2.002609583e-21)
(99.87973405 0.3444347205 -4.058861632e-21)
(99.91098585 0.3327942051 -2.76477034e-23)
(99.91855605 0.3772889549 1.921958804e-21)
(99.89113517 0.4194077898 -2.244080766e-23)
(99.82224611 0.5463232009 0)
(99.8809746 0.4867446595 0)
(99.84936447 0.5580129223 -2.384008016e-21)
(99.89076996 0.5547090011 -4.670897249e-21)
(99.87580642 0.5864378706 -6.921549552e-23)
(99.84131147 0.6769122679 -1.050438813e-20)
(99.86669002 0.6392374719 -3.611069998e-21)
(99.83801299 0.8507113242 2.792160507e-23)
(99.86132597 0.8003245422 -2.341780234e-21)
(99.79528293 0.9824634802 -1.27656748e-20)
(99.83129176 0.9212238409 -3.115732286e-21)
(99.81261818 1.178320445 -5.664534788e-21)
(99.84444304 1.098250603 -5.369315553e-21)
(99.76652339 1.356615675 6.811560407e-22)
(99.81151095 1.261492412 -6.782047604e-21)
(99.81672904 1.531310285 -2.020604236e-23)
(99.85569565 1.411256225 -4.266727279e-21)
(99.77645693 1.754356513 2.134613787e-21)
(99.82617972 1.615852128 -3.182854153e-21)
(99.8667057 1.83402862 -4.661510857e-21)
(99.90731501 1.667879999 -7.022919196e-21)
(99.84413345 2.085500108 -4.298467938e-21)
(99.88766733 1.901315662 -1.462549491e-21)
(99.95789674 2.002540379 -1.615389163e-21)
(99.98913527 1.795373493 -1.788684772e-21)
(99.95874421 2.255298136 -8.08662559e-22)
(99.98429385 2.034801631 -2.125375054e-22)
(100.0611021 1.984773228 1.633496537e-22)
(100.0624603 1.747636669 -7.904423605e-23)
(100.0822822 2.202256997 -7.91341582e-22)
(100.0836942 1.963256052 -1.003350034e-21)
(100.1403925 1.792258956 -3.201213504e-22)
(100.1087604 1.552493642 -2.491293358e-22)
(100.1697467 1.957629404 -7.855957507e-23)
(100.1523039 1.726752546 2.498269737e-21)
(100.1767811 1.48967027 2.658398745e-21)
(100.1266399 1.272646199 4.617795468e-21)
(100.207361 1.605397503 4.614479868e-21)
(100.1778674 1.403146959 5.788856531e-22)
(100.1742434 1.157321653 -7.198701088e-21)
(100.1198244 0.9787744117 -6.685762704e-21)
(100.1997683 1.232841128 -2.428011534e-21)
(100.1681278 1.071689604 -2.378498526e-21)
(100.1476189 0.8576421502 -5.579392502e-21)
(100.0965538 0.7204899385 5.065261966e-22)
(100.1637415 0.9033237354 -1.480423482e-21)
(100.1381902 0.7857147722 6.017497239e-21)
(100.08762 0.4847620014 -1.370470028e-20)
(100.1409183 0.6634778585 -1.370363545e-20)
(100.1958859 0.712683098 1.385019524e-20)
(100.1201468 0.5475974271 -2.79571232e-20)
(100.1005465 0.4492029776 1.198077154e-20)
(100.1387596 0.4759630968 -1.687189521e-20)
(100.0813146 0.366255874 2.447888146e-20)
(100.0611834 0.3254756742 2.718021074e-20)
(100.073225 0.2163011042 2.295262057e-20)
(100.1679902 0.3408667646 -1.686280432e-22)
(100.1304245 0.3885583938 4.855381654e-20)
(100.0767878 0.3066868454 2.611677484e-21)
(100.0514349 0.124619986 -7.144608422e-22)
(100.1157473 0.2057275175 3.288930901e-20)
(100.0404423 0.05678132194 -7.666931853e-21)
(100.0853841 0.1087353871 -1.74329415e-20)
(100.0722991 0.03397745812 7.795632474e-21)
(99.95140851 0.03101423905 -2.535065826e-20)
(99.94107625 0.01321497595 -1.267062784e-20)
(99.92763172 0.0748046105 -5.481427344e-20)
(99.91861398 0.04621949482 1.164209189e-20)
(99.88409917 0.1450145923 1.091916947e-20)
(99.87100868 0.101354806 -4.639251542e-20)
(99.84016396 0.2462001802 2.798250214e-20)
(99.79288298 0.1918468347 5.038547297e-20)
(99.78582901 0.2685378533 -4.313760837e-20)
(99.8643099 0.2602132128 -8.309767496e-21)
(99.79129708 0.2966330942 -6.154555171e-20)
(99.81021088 0.3242901481 -4.160291423e-21)
(99.78955871 0.435618888 -8.080377659e-21)
(99.76373245 0.4223713102 -4.025669072e-21)
(99.67766532 0.5069890545 2.826360506e-20)
(99.71018632 0.5421949815 7.922111689e-21)
(99.69048775 0.6982223956 -6.979438551e-21)
(99.64889516 0.6880662997 5.165332905e-21)
(99.52555204 0.8251784441 -3.979169245e-20)
(99.61405762 0.8338037803 2.762616607e-21)
(99.55108057 0.8950806709 -1.72797251e-20)
(99.60065084 1.027992081 -7.068508018e-21)
(99.56813013 1.028036997 0)
(99.49542125 1.132450783 7.344333111e-21)
(99.53517975 1.140502449 -7.029996661e-21)
(99.48294074 1.521231919 3.408574471e-21)
(99.43509867 1.534763179 1.334143797e-20)
(99.34418967 1.688276119 6.603210485e-21)
(99.40450434 1.683077915 1.655747279e-20)
(99.40102911 2.139947449 -2.676553709e-20)
(99.3336776 2.180593144 -2.378391772e-20)
(99.23752525 2.390211132 -1.588895343e-20)
(99.32248677 2.355263832 -2.671812698e-20)
(99.42334453 2.805993746 2.847752284e-20)
(99.34024124 2.893037868 -1.094036691e-20)
(99.26007344 3.156792475 -5.03132258e-20)
(99.36535264 3.06755994 -3.232024798e-21)
(99.58947316 3.394121554 -1.393419573e-23)
(99.5048838 3.550176744 -2.357702703e-21)
(99.46804796 3.851355759 -5.623760693e-20)
(99.57407374 3.680538001 1.400470504e-20)
(99.89642857 3.714070565 1.542305511e-20)
(99.83691956 3.9472118 -1.915140112e-20)
(99.86575485 4.237531459 4.001415628e-20)
(99.93647316 3.980486323 1.441071332e-20)
(100.2372917 3.629061095 -1.380893859e-21)
(100.2297053 3.913363552 7.016356816e-22)
(100.311867 4.139463283 -6.238676168e-21)
(100.3163097 3.83327066 7.76781725e-21)
(100.4718571 3.187706227 1.083917128e-20)
(100.5158352 3.472986751 1.222471853e-20)
(100.6145026 3.615557753 1.224773222e-20)
(100.5600684 3.319561773 -6.831982278e-21)
(100.5620609 2.578968771 4.313288156e-21)
(100.6334093 2.825014164 7.157456768e-21)
(100.7217852 2.899769738 1.072744332e-20)
(100.6406425 2.654083404 7.921192907e-21)
(100.5372244 1.956308164 -6.632718541e-21)
(100.6182796 2.15552984 -1.552218005e-20)
(100.6876833 2.188871934 -5.366594721e-21)
(100.5986215 1.994644424 5.875704385e-21)
(100.5221738 1.557131977 -1.83455226e-20)
(100.4489146 1.408572193 -1.234250211e-20)
(100.5720379 1.565966092 -1.235914648e-20)
(100.4962807 1.425297111 6.546140022e-21)
(100.3451126 0.9232269997 -5.42097134e-20)
(100.4634424 1.131099091 -2.836966955e-20)
(100.535417 1.111182849 -8.221068898e-20)
(100.3979901 0.9283740416 -3.905862362e-20)
(100.2475799 0.6128138498 -6.156747128e-20)
(100.3373734 0.7559598788 2.455377779e-20)
(100.3838026 0.7302189007 -2.922897367e-20)
(100.2816203 0.6108852653 -2.55501363e-20)
(100.2030009 0.3264689115 1.032568433e-20)
(100.3513528 0.44599434 -2.6236229e-20)
(100.3350587 0.5457370052 -1.396927308e-22)
(100.2496882 0.4980936766 -1.502462846e-20)
(100.1445467 0.1869408564 1.541968069e-20)
(100.2469981 0.2665036545 2.738212612e-20)
(100.113001 0.08467400908 -1.957943171e-21)
(100.1818632 0.139729635 -3.94784625e-21)
(100.1521532 0.04334398475 0)
(99.91432297 0.02738588773 2.545635024e-20)
(99.91526607 0.007423094434 -4.251209089e-21)
(99.86933461 0.07050767171 2.143813383e-20)
(99.87797932 0.02979603982 2.974175258e-20)
(99.78855009 0.1468638547 -8.518036653e-21)
(99.79908557 0.07818268365 -4.195646471e-21)
(99.68617303 0.277513588 0)
(99.67105827 0.1638989708 6.50375514e-21)
(99.62221899 0.2756153369 1.973250906e-20)
(99.70415618 0.3169976555 -5.753219442e-20)
(99.61043995 0.3180809845 1.483567827e-20)
(99.61884044 0.3772402144 0)
(99.54745609 0.5542440554 1.938451549e-22)
(99.52842184 0.5016759797 -3.26168874e-20)
(99.40279628 0.5739826084 -3.259494511e-20)
(99.4213164 0.6563081606 6.605263406e-20)
(99.33082368 0.9202975346 -9.803090592e-20)
(99.29636188 0.8467655167 3.66170171e-20)
(99.11472786 0.9733159738 -6.562025818e-20)
(99.19850611 1.070903008 -3.268837412e-20)
(99.11086183 1.089363764 -5.362815241e-20)
(99.10856574 1.389498692 7.705567805e-21)
(99.07320244 1.346953029 1.529612439e-20)
(98.9575816 1.452177043 3.875248517e-20)
(98.99699432 1.50836223 7.641203775e-21)
(98.82212085 2.126888836 -1.790686021e-21)
(98.76113227 2.082660041 7.305844613e-21)
(98.61715538 2.242142846 -6.210172299e-20)
(98.6886965 2.301758113 -5.750866488e-20)
(98.61240482 3.073864605 0)
(98.51318507 3.043257732 -1.122633391e-19)
(98.35413576 3.274649956 0)
(98.47314892 3.319483289 -5.205452901e-20)
(98.59417492 4.201728217 7.849529742e-20)
(98.44739132 4.21773819 -2.367903531e-20)
(98.30292681 4.543015147 1.984942618e-19)
(98.48189902 4.529662069 -1.602636928e-19)
(98.94244031 5.312268538 -1.285043163e-19)
(98.75947455 5.430730674 -9.988699854e-20)
(98.69716886 5.835986349 -9.96706109e-20)
(98.91628208 5.693263674 -8.315504368e-21)
(99.71774685 5.981227288 4.948916342e-20)
(99.55974704 6.246444679 -1.02319736e-19)
(99.64200378 6.64129093 -8.651385823e-22)
(99.81297198 6.326274484 3.981278569e-20)
(100.6189135 5.836066293 3.808832303e-20)
(100.5680356 6.209409356 -1.15817926e-20)
(100.7581539 6.475103914 3.542565509e-22)
(100.7878031 6.057908252 -2.806372474e-20)
(101.2028152 4.983387352 -1.019431186e-20)
(101.2701245 5.362188474 -1.415188174e-19)
(101.4661409 5.473122491 -5.666932072e-20)
(101.3665963 5.077524514 5.763580939e-20)
(101.3587499 3.866275516 7.362657025e-20)
(101.4865927 4.177302438 -4.054667335e-20)
(101.6335013 4.18851793 7.763231154e-20)
(101.4815133 3.881372915 1.564116383e-20)
(101.2507417 2.831745243 4.767266882e-20)
(101.3839383 3.058269981 -2.841058855e-21)
(101.4808656 3.021414757 -9.766506855e-20)
(101.3338424 2.809859231 2.216698751e-19)
(101.155391 2.150892152 0)
(101.0342968 1.987800626 4.936978565e-20)
(101.2174925 2.107630127 0)
(101.088313 1.955978652 0)
(100.764218 1.268808257 2.975254844e-20)
(100.9605259 1.489661352 1.930827257e-20)
(101.0272526 1.388382759 -1.677124141e-20)
(100.8200125 1.209110345 3.729887376e-20)
(100.5476492 0.8240297068 -3.392945703e-20)
(100.6938433 0.9727976184 -1.515537402e-20)
(100.7330113 0.8911952633 -1.529389729e-20)
(100.5827828 0.775184225 -7.445088115e-21)
(100.383567 0.3838340074 -9.551623167e-21)
(100.5804442 0.4766422609 -1.963403664e-20)
(100.6136979 0.640124979 -2.60328739e-21)
(100.5045583 0.6148306716 5.793480466e-21)
(100.2735299 0.2167531963 7.870676108e-21)
(100.4045038 0.2803014893 1.19483903e-20)
(100.2120856 0.09707899491 -1.989550951e-21)
(100.2947247 0.1434891139 -3.509237271e-21)
(100.2437048 0.04391694677 -5.036462389e-22)
(99.88530163 0.009409997151 0)
(99.9064108 -0.005535944236 0)
(99.8157473 0.0358431626 4.310481436e-21)
(99.85311549 -0.009342279923 0)
(99.69085623 0.09740195133 1.095890516e-20)
(99.74114565 0.01389869467 -3.497896335e-21)
(99.51781606 0.2420057476 1.807708577e-20)
(99.55435287 0.07358001429 2.410068745e-20)
(99.45723364 0.2010567114 -7.246172883e-21)
(99.51725726 0.2985464619 2.554807831e-20)
(99.42234174 0.2568438856 2.050860082e-21)
(99.40262593 0.343296301 -1.041567852e-20)
(99.24960413 0.5625036593 0)
(99.25398104 0.4743889034 -2.146385558e-20)
(99.09359422 0.5164483743 -1.764231659e-20)
(99.07687596 0.6410004842 4.376940864e-21)
(98.87751336 0.9773511136 0)
(98.8692071 0.8519592038 4.376472254e-21)
(98.63103793 0.9305936589 -4.529011651e-21)
(98.67087261 1.11977278 2.178531094e-20)
(98.57157617 1.109962499 5.647891533e-21)
(98.45170457 1.545087585 2.497266334e-19)
(98.43039752 1.454575538 0)
(98.26976399 1.541166237 6.778398874e-20)
(98.29286241 1.647749289 0)
(97.92140036 2.461502826 2.586613521e-19)
(97.86703847 2.346736929 -2.619223749e-19)
(97.66530288 2.480608979 -5.374490678e-19)
(97.72235788 2.625181469 1.343687807e-19)
(97.41688309 3.753273582 0)
(97.30463523 3.62418548 0)
(97.04964644 3.857022849 2.797960969e-19)
(97.18251074 4.017762218 1.30081807e-19)
(97.16080026 5.503918555 3.809267155e-21)
(96.94666411 5.395944749 3.322578996e-20)
(96.6734522 5.785141676 1.93540748e-20)
(96.94008065 5.9167493 -1.941867472e-19)
(97.63938082 7.544702105 -2.116300239e-19)
(97.2923875 7.572685555 9.704275078e-20)
(97.13801727 8.16423026 -9.468713211e-20)
(97.5704109 8.105873041 -1.261572692e-19)
(99.28314627 8.988307776 2.327126685e-20)
(98.92067805 9.316594825 0)
(99.09997519 9.941843913 0)
(99.49721359 9.505446147 0)
(101.3514058 8.716073664 -3.606678333e-20)
(101.2239969 9.275081617 -1.31807211e-19)
(101.636613 9.603600868 -2.0544205e-19)
(101.7058135 8.959945587 1.884632672e-20)
(102.5393123 7.057372049 -1.210844227e-19)
(102.6669302 7.592765383 5.407477571e-21)
(103.0201165 7.616756366 -4.745053397e-21)
(102.8251109 7.069699508 5.429321208e-21)
(102.6927491 5.108813939 -3.778265504e-20)
(102.9240455 5.502800838 6.783814248e-20)
(103.143288 5.395151653 3.062752698e-20)
(102.8676631 5.021346891 -2.268584293e-20)
(102.3223631 3.51963928 2.803880899e-20)
(102.5462511 3.77319567 1.343020846e-19)
(102.6526582 3.650279851 -2.932577277e-20)
(102.4137898 3.41971811 6.619732587e-21)
(102.018066 2.531704768 -1.315467136e-20)
(101.8420705 2.370189649 -3.863875416e-21)
(102.0742968 2.423786678 1.884940362e-20)
(101.8930463 2.283991684 2.290319655e-20)
(101.3199018 1.463470326 -9.531255698e-20)
(101.6008308 1.675374484 -6.030384743e-20)
(101.6373608 1.486692613 -3.372436253e-20)
(101.3573273 1.337046794 -1.724528059e-20)
(100.9349015 0.9255571285 1.171141192e-20)
(101.1406214 1.058188749 3.537864863e-20)
(101.1498161 0.922774143 -3.947619081e-21)
(100.9526225 0.8291712175 -3.867827314e-21)
(100.5885809 0.3746100981 2.023254932e-21)
(100.8240018 0.4162872851 0)
(100.9277589 0.62499685 -7.664767307e-23)
(100.8092202 0.6414009986 -1.052311226e-20)
(100.4148601 0.2046396117 4.483909961e-22)
(100.5647661 0.2362697671 2.023072528e-21)
(100.3171477 0.08941425629 -2.026727374e-21)
(100.4033966 0.1143445422 -2.028883794e-21)
(100.3280366 0.03404147006 -2.029835783e-21)
(99.88032129 -0.02414092473 0)
(99.92920486 -0.02564939522 2.11419847e-21)
(99.78623667 -0.03190896096 -8.625994979e-21)
(99.86052444 -0.07099355613 -2.130896364e-21)
(99.61611932 -0.007747840517 8.978874267e-21)
(99.71852315 -0.09237752027 -4.274501779e-21)
(99.36531498 0.1032025837 1.173796347e-20)
(99.47937256 -0.08086832328 3.530897918e-21)
(99.31493992 0.04129026395 -2.485598937e-23)
(99.33983105 0.1910834386 -8.688013549e-21)
(99.24773513 0.1032023619 -8.81083214e-21)
(99.19666531 0.2011035395 0)
(98.94175276 0.4336430264 -1.764188107e-20)
(98.984532 0.3179244877 0)
(98.80074999 0.3142382899 -1.220776447e-22)
(98.72979896 0.4685652797 -8.803836473e-23)
(98.38220696 0.8308512413 9.134909016e-21)
(98.42587032 0.6640872343 1.367881254e-20)
(98.14416545 0.6775390663 1.847879177e-20)
(98.11336316 0.9512376875 8.485154495e-21)
(98.02065499 0.885199671 3.264851778e-20)
(97.72750381 1.405604049 -1.466533558e-19)
(97.74019503 1.27788304 -9.288450631e-20)
(97.55257432 1.316480094 3.538868844e-20)
(97.53234669 1.465951048 -1.506508252e-19)
(96.84312234 2.363376838 -1.849464087e-19)
(96.83194115 2.18062948 -6.37752447e-19)
(96.56707601 2.26243958 -3.145207098e-19)
(96.57210531 2.479125505 -3.175885598e-19)
(95.80792684 3.883539471 8.928075791e-19)
(95.73047546 3.634542202 -1.524692207e-19)
(95.34706277 3.789075013 -4.362295645e-21)
(95.43674689 4.126502383 1.626951828e-19)
(94.82399333 6.356604021 6.001111717e-19)
(94.58659097 6.016416557 5.274079305e-19)
(94.07326404 6.399514229 -1.127892391e-19)
(94.36669906 6.826848323 2.054639645e-20)
(94.90343173 10.14435783 4.749051053e-19)
(94.29150125 9.889174443 1.750073441e-21)
(93.80114142 10.80063949 2.864472329e-19)
(94.63183667 11.07368158 5.105228104e-19)
(98.21948275 13.68247807 -4.777812798e-20)
(97.35658419 14.13681695 -1.706709318e-19)
(97.76393904 15.38407026 -4.775907622e-20)
(98.74376044 14.63087967 1.739378552e-20)
(103.0290555 12.85491805 -2.739962311e-19)
(102.820234 13.85029589 -4.934293982e-20)
(103.7900788 14.18284683 -1.493664031e-19)
(103.7968788 13.03809671 1.059511317e-19)
(105.0279662 9.31015045 -3.752442972e-19)
(105.3416357 10.08481981 -2.29094708e-19)
(105.9454136 9.852669726 -2.919079639e-19)
(105.4868401 9.108666788 7.172219577e-20)
(104.7867501 6.108560837 -1.42506404e-19)
(105.2062212 6.567957178 -5.711614021e-19)
(105.4397309 6.266715038 -2.58242164e-19)
(104.9761485 5.862956308 1.26564976e-19)
(103.7949553 3.883184211 6.741527581e-20)
(104.1449446 4.133989411 -1.281280974e-19)
(104.2171715 3.892165117 -1.956127179e-19)
(103.8601086 3.681299353 -6.197260095e-20)
(103.0761721 2.595069892 1.72945145e-20)
(102.8249933 2.459114359 3.317170266e-20)
(103.0941816 2.421545945 1.662798919e-20)
(102.8477271 2.309334303 -4.33619554e-23)
(101.9676078 1.448691689 2.76824194e-20)
(102.3234198 1.605627615 -2.310578527e-22)
(102.2962828 1.342620354 1.673885099e-20)
(101.9563903 1.255191733 1.247955747e-20)
(101.3661885 0.8782966795 -1.635565644e-20)
(101.62774 0.9700893141 -8.325288997e-21)
(101.5819812 0.7892093079 -8.326901904e-21)
(101.3453202 0.7405796635 1.264086617e-20)
(100.786563 0.2834604859 0)
(101.0475601 0.2582918267 1.334136346e-21)
(101.2321422 0.4833581552 -1.117525671e-20)
(101.1234436 0.5577754034 2.774907376e-20)
(100.5419205 0.1440936458 -5.095127856e-22)
(100.6961378 0.1279802198 -1.57857565e-21)
(100.4052754 0.05904891951 -2.040125473e-21)
(100.4835763 0.05013224532 -2.304131697e-21)
(100.3837213 0.01320322233 2.61370752e-21)
(99.91480515 -0.07182059061 -1.602404365e-23)
(99.99696803 -0.05197193851 8.424544643e-23)
(99.79946439 -0.1304030215 2.217335329e-21)
(99.91584907 -0.1518130571 -1.018040975e-22)
(99.59029945 -0.1636238677 -1.159540888e-20)
(99.75001573 -0.2343109244 1.765165551e-21)
(99.26076949 -0.1054505896 -1.044556411e-20)
(99.46845396 -0.2920948027 -1.761508906e-20)
(99.23808238 -0.19798029 -1.504936453e-20)
(99.19605396 -0.009196046027 -8.211167514e-21)
(99.1363439 -0.1406675652 -3.29101458e-21)
(99.03989466 -0.04200811379 3.182491773e-23)
(98.67879981 0.1596345152 1.336414744e-20)
(98.77124559 0.03192178247 1.362554071e-20)
(98.58278284 -0.02757032048 6.721525803e-21)
(98.44675138 0.1337775259 2.322817735e-20)
(97.93742724 0.4690185902 -6.175212727e-20)
(98.05610903 0.2721467884 -5.720879013e-20)
(97.7694281 0.2067482941 -2.86497039e-20)
(97.63115086 0.5016520099 -4.425644413e-20)
(97.56286955 0.4035633935 -4.417939596e-20)
(97.07110641 0.9225143992 0)
(97.13458505 0.7717941479 0)
(96.93346349 0.7518513857 0)
(96.85041366 0.923000453 -3.277256649e-19)
(95.77904845 1.747445947 3.684515024e-19)
(95.84591423 1.516558583 8.945814635e-19)
(95.54707467 1.506868727 7.140022753e-19)
(95.45397843 1.771883493 3.542421577e-19)
(93.99823793 3.146691736 0)
(94.05287273 2.780881559 -1.928097807e-19)
(93.5854473 2.797870258 1.00221279e-19)
(93.49355836 3.227854379 6.220801027e-21)
(91.49252353 5.770294212 3.788048378e-19)
(91.45045109 5.134075975 0)
(90.62134047 5.248265072 0)
(90.63287563 6.069308502 0)
(88.63187913 11.99350953 1.225682268e-20)
(87.94077196 10.79300476 -5.099370169e-19)
(86.05642675 12.08516206 -6.309068081e-20)
(86.33382783 11.28210159 -3.804480156e-19)
(87.70280945 13.44701202 -6.177201157e-20)
(86.71932668 13.49972747 -1.349196771e-19)
(92.92023554 23.48828236 1.323379096e-19)
(94.28797258 23.15013718 1.343700486e-21)
(93.3464138 25.28849461 1.334932988e-19)
(95.02913281 24.52930656 1.354905538e-19)
(107.9595567 20.59668047 -2.117679242e-19)
(108.1115694 18.85707958 4.487073806e-19)
(109.7453271 18.41418735 5.882138512e-19)
(108.8202681 21.37994524 1.350648021e-18)
(110.8435003 20.11243565 -1.448252362e-19)
(110.4633208 20.90990067 -6.289393765e-19)
(110.3853507 12.00354546 1.812259406e-19)
(109.5417661 11.04540551 -3.329890554e-19)
(111.0417355 11.15117015 0)
(110.038783 10.39317687 -4.543789261e-19)
(107.7144497 6.316710115 -3.197784063e-19)
(108.4240835 6.738582122 3.4903613e-20)
(108.5510007 6.142854021 0)
(107.8203207 5.8399893 1.585227112e-19)
(105.5861981 3.640800574 -1.461579902e-19)
(106.08646 3.826281828 1.82594089e-20)
(106.0518859 3.453070388 -3.019257803e-19)
(105.5662378 3.331249927 -4.494787192e-19)
(104.2306066 2.209415478 1.452476777e-19)
(103.9013284 2.134558812 0)
(104.1711083 1.976759759 0)
(103.8574811 1.922982919 1.476455843e-19)
(102.6089812 1.164092732 4.376212156e-21)
(103.029934 1.219361689 -2.425621989e-21)
(102.8910331 0.9113888489 -2.499768286e-21)
(102.5221592 0.9196595737 -4.527527118e-21)
(101.7829169 0.6520905847 4.500526105e-21)
(102.0839101 0.6790237078 -2.364680301e-23)
(101.9670592 0.4710134111 -7.368112594e-21)
(101.7047803 0.4835994828 9.084632496e-21)
(100.939532 0.1077908454 -2.032203681e-22)
(101.1934593 0.00600818207 -2.874707216e-22)
(101.484409 0.2100760026 8.552815312e-22)
(101.3980818 0.3152005339 6.676854205e-21)
(100.6264746 0.03370344629 -3.378155614e-21)
(100.7659055 -0.04174575148 -2.514866248e-22)
(100.453184 0.004797282144 2.533025885e-21)
(100.5107874 -0.04666581918 -2.237762401e-21)
(100.3882307 -0.01800480743 4.15021888e-22)
(100.0020573 -0.1308329272 1.679038859e-23)
(100.1203883 -0.08269306566 -3.135401267e-21)
(99.87134299 -0.2530601969 -5.756872512e-22)
(100.031172 -0.2461044612 1.363270216e-21)
(99.63444723 -0.3599167997 -4.511421937e-21)
(99.85088726 -0.4009225463 -2.969763487e-21)
(99.24216412 -0.3817823745 9.286622152e-21)
(99.54369096 -0.5420632249 -1.024564231e-21)
(99.25589681 -0.4973538358 9.80833414e-22)
(99.13188942 -0.2917959194 4.563720137e-21)
(99.12217369 -0.4541518344 9.440994753e-21)
(98.97974374 -0.3713602386 6.671852433e-21)
(98.520329 -0.2411810847 -2.265787236e-21)
(98.66872199 -0.3610218873 3.530627559e-21)
(98.4955492 -0.4756499877 2.329439376e-21)
(98.2936049 -0.3345706449 7.067484693e-21)
(97.65159343 -0.09930460054 5.576074876e-20)
(97.8480522 -0.2884065827 1.968923763e-20)
(97.59147098 -0.4366020805 -2.467450167e-20)
(97.34045912 -0.1552238659 1.142856201e-20)
(97.31378477 -0.2903327791 1.140525447e-20)
(96.62070057 0.1368316386 3.307468106e-19)
(96.74456104 -0.01102982038 0)
(96.55474271 -0.09408066598 3.405665108e-19)
(96.40327563 0.06628792459 0)
(95.01280859 0.6095583416 -3.885533862e-19)
(95.17915809 0.3802507598 -2.120786673e-19)
(94.89784913 0.268498909 1.959008158e-19)
(94.69056184 0.5152836531 -5.809040129e-19)
(92.63621978 1.392463027 -6.303015601e-19)
(92.88208324 1.026993976 -4.232743692e-19)
(92.44912886 0.8477059417 -2.181585803e-19)
(92.12583334 1.23860787 6.529855236e-20)
(88.66109017 2.682913355 2.298633601e-19)
(89.10371093 2.020068356 6.920140165e-19)
(88.38285748 1.635691868 -7.418219592e-21)
(87.72055018 2.325872321 6.644419328e-20)
(80.60308561 4.832476118 1.260388553e-18)
(81.23404567 3.968550476 6.373146831e-19)
(80.41365207 3.297138364 1.285069354e-18)
(79.48545622 4.187557342 -3.263254092e-20)
(124.9353916 24.05615543 8.943680227e-19)
(123.0735704 22.96132337 0)
(125.6219604 22.06040938 -4.548557833e-19)
(123.8100742 21.38871393 -7.930627435e-19)
(117.83613 10.31303427 1.029173539e-18)
(116.151473 9.817738222 2.545515783e-19)
(117.7796192 8.712578285 -6.624079775e-19)
(116.2062314 8.590130516 5.406702312e-19)
(111.0548201 4.914357431 -4.071990423e-19)
(112.0539868 5.054698548 -3.768729757e-19)
(111.8068406 4.249571217 1.066829226e-19)
(110.8888538 4.254857917 -9.27081289e-20)
(107.3635727 2.539617851 -1.576250467e-19)
(107.9772053 2.558863799 -3.490768223e-19)
(107.7417987 2.119542841 1.164703878e-20)
(107.1844079 2.162266676 -2.639625437e-19)
(105.2634931 1.297082459 0)
(104.8851103 1.318070515 1.555889692e-19)
(105.0952206 1.039173386 3.263240448e-19)
(104.750764 1.081756297 0)
(103.1284549 0.5907345278 -4.878821134e-21)
(103.5825172 0.5243130618 -2.388665462e-21)
(103.3080072 0.2119633104 7.715341702e-21)
(102.9463042 0.3334014438 1.161397755e-21)
(102.1108346 0.248593879 -2.028057013e-21)
(102.41764 0.1900168266 1.369611755e-20)
(102.2163592 -0.0102501857 5.07052166e-21)
(101.9641837 0.07793392578 1.004738235e-20)
(101.0080769 -0.1395580115 -3.502115297e-22)
(101.2296685 -0.3231617602 -1.067526074e-21)
(101.6194638 -0.1750441153 -1.08078776e-21)
(101.581992 -0.02684693229 -1.188662953e-21)
(100.6410127 -0.1200060761 1.089521896e-21)
(100.7473499 -0.2591488311 1.327452718e-21)
(100.4385016 -0.06847989522 -4.305953815e-21)
(100.4621267 -0.1688465288 1.687960102e-21)
(100.3236152 -0.05756138147 -2.126143024e-21)
(100.1516381 -0.1966442505 -1.788881695e-21)
(100.305885 -0.1154388524 9.910585912e-22)
(100.0132268 -0.3902368232 -1.043463169e-21)
(100.2138179 -0.3465383253 -7.360652737e-22)
(99.76316141 -0.5800302044 5.352789998e-22)
(100.0299655 -0.5784144715 -2.631323907e-22)
(99.33049935 -0.6988761391 6.035620987e-22)
(99.71654667 -0.809289133 8.931663008e-22)
(99.38582032 -0.8275317635 5.323284412e-22)
(99.17519796 -0.6294406778 1.552390209e-21)
(99.22631199 -0.8074833277 -1.50271404e-23)
(99.04286093 -0.7529494819 -1.502927772e-23)
(98.51230437 -0.724651967 -2.32596685e-21)
(98.71205038 -0.8185263712 0)
(98.57207162 -0.981373709 -1.143484006e-21)
(98.31710203 -0.8817227655 -1.214521974e-21)
(97.59253442 -0.794003262 -2.103207372e-20)
(97.8554348 -0.9448625097 1.985989539e-20)
(97.6558769 -1.159816349 4.059469313e-20)
(97.30704047 -0.9349253245 4.091986521e-20)
(97.32914109 -1.086519915 1.383145286e-20)
(96.4920688 -0.8286408012 -6.333634977e-20)
(96.66731059 -0.9477979087 1.173941391e-19)
(96.51473836 -1.080112534 -4.784305313e-19)
(96.3051397 -0.9596888919 3.22316296e-19)
(94.7792924 -0.8050907539 4.816543873e-19)
(95.02073257 -0.9808741824 -8.755721085e-19)
(94.80974129 -1.161993874 -2.988244695e-19)
(94.515901 -0.9885712577 -2.957755598e-19)
(92.31910589 -0.8144519957 -4.234070889e-22)
(92.69563741 -1.058820299 4.026044688e-21)
(92.39818337 -1.337652035 -2.302366369e-19)
(91.95955413 -1.116039335 -2.740013642e-19)
(88.5845633 -1.247333487 -2.415303511e-19)
(89.23455428 -1.536675667 1.142700432e-22)
(88.86800885 -2.026068834 -2.330788822e-19)
(88.13464297 -1.827112428 -1.766338538e-19)
(83.69457091 -3.548668887 -8.287102063e-19)
(84.27767501 -3.528062357 -5.423501489e-19)
(84.23970172 -3.981093627 -8.15554788e-19)
(83.71684562 -4.099336718 -2.007772715e-19)
(138.6363034 7.182503707 0)
(136.9053124 8.119872014 -1.166254845e-18)
(137.3530346 5.765433047 6.210590477e-19)
(135.9066995 6.719120139 -1.229000393e-20)
(123.0476049 3.103919451 -8.509690159e-19)
(121.3137225 3.745179688 4.177736988e-19)
(121.8744008 1.77307084 4.045017002e-19)
(120.5015591 2.532229813 7.391876082e-19)
(113.4974676 1.605270249 -3.570750108e-19)
(114.5199898 1.270401557 -5.253110553e-19)
(113.8073427 0.5752612031 -7.480310213e-19)
(112.9526079 0.9762503106 -9.243688138e-21)
(108.591265 0.5687957342 1.960371504e-19)
(109.2077316 0.3601803035 3.980292129e-19)