/*--------------------------------*- C++ -*----------------------------------*\
| =========                 |                                                 |
| \\      /  F ield         | OpenFOAM: The Open Source CFD Toolbox           |
|  \\    /   O peration     | Version:  v1912                                 |
|   \\  /    A nd           | Website:  www.openfoam.com                      |
|    \\/     M anipulation  |                                                 |
\*---------------------------------------------------------------------------*/
FoamFile
{
    version     2.0;
    format      ascii;
    class       surfaceScalarField;
    location    "1.74";
    object      phi;
}
// * * * * * * * * * * * * * * * * * * * * * * * * * * * * * * * * * * * * * //

dimensions      [0 3 -1 0 0 0 0];
oriented        oriented;


internalField   nonuniform List<scalar> 
25162
(
0.0004294205818
0.9162205794
0.0005258055146
0.9166036151
0.0006086855139
0.91656712
0.0002957172918
0.9165986985
0.0003642696806
0.4583393516
0.0003063656903
0.4583103057
0.0003744138357
-0.0003847195549
-0.0004745443689
0.4582874043
0.0005371400745
-0.0005969687607
0.458236338
0.0006956307847
-0.0008035022234
0.4582125449
0.0009209573212
-0.001057067815
0.4581870839
0.001204983872
-0.001356307951
0.4581814545
0.001509853433
-0.001663138781
0.4582039329
0.001790705848
-0.001895228869
0.4582637917
0.001964937214
-0.001993263091
0.4583476229
0.001980640173
-0.001928676386
0.4584208349
0.001837841505
-0.001726175867
0.4584644616
0.001596714267
-0.001447525061
0.4584759525
0.00130657255
-0.001164059922
0.4584834775
0.0009955824368
-0.0009246182334
0.4584568249
0.0008177933197
-0.0006767183496
0.4584652981
0.0005614203104
-0.001633015967
0.9186817342
0.0001131495975
-0.0005118677844
-0.001020924689
0.9187379087
2.645191908e-05
0.9158026234
0.9138264519
0.001179445553
0.9150411339
0.001857227772
0.9159258328
0.002086826168
0.9163375216
0.0005736858097
0.9171560104
0.0009558284922
0.4580906893
0.000685607768
-0.4582026113
-0.4581899239
-0.000841302396
0.4579938049
0.001037421348
-0.4580481083
-0.001281314863
0.4577529941
0.0007420933555
0.0008343357151
-0.2289641369
-0.0009047702373
0.2288853635
0.0009835436933
-0.001325655271
-0.2289013996
0.2287963149
0.001430740003
-0.001869141292
-0.2288441948
0.2287041187
0.002009217428
-0.002525931818
-0.228823175
0.2286631023
0.002686004522
-0.003202084809
-0.2288631021
0.2287493652
0.003315941052
-0.003295912723
-0.2289957829
0.2288262147
0.003465282219
-0.003971120344
-0.2291787004
0.2291440628
0.004005757879
-0.00384602826
-0.2293090959
0.2293775853
0.003777538872
-0.003410418351
-0.2293936928
0.2295350906
0.00326902055
-0.002807547534
-0.2294140666
0.2295816324
0.002639981831
-0.002191338259
-0.2293876532
0.2295438745
0.002035116982
-0.4588810858
-0.003138602997
0.4603196591
0.001700029698
-0.0003823045435
0.4609632145
-0.001313775329
-0.4592671346
-0.0014598733
0.9182815604
0.0003110477606
0.001548999378
-0.0008923757424
0.9181704112
0.000401305732
0.9145089419
0.9142277577
0.001489690191
0.9135514437
0.004002119949
0.9134134031
0.006766849088
0.9135727925
0.002738655938
0.9149976026
0.006186600938
-0.4580603436
0.4579023827
0.002896616847
-0.4578289106
-0.002858391102
0.4585022137
0.002185087972
-0.4573527855
-0.002238825002
0.4571550362
0.001180768011
0.001255806251
-0.2285051037
-0.001471817885
0.2283407162
0.001636205387
-0.2282685468
-0.002231678838
0.228034999
0.002465226653
-0.2280883145
-0.002638897977
0.2310893966
-0.0003515635591
-0.2338125993
0.01066475462
0.2366796987
-0.0134848718
-0.2327690404
0.0196198642
0.2340325437
-0.02084882288
-0.2277530295
0.02207166066
0.2273809053
-0.02170494084
-0.2235028407
0.01813876365
0.221498255
-0.01617554866
-0.2246831159
0.008077469874
0.2212940397
-0.00473113569
-0.2301946453
-0.005760711613
0.2298051794
0.006148054959
-0.2303127091
-0.005204868528
0.2306414646
0.004876113063
-0.0036512637
-0.2302644301
0.2309382222
0.002977471572
-0.4629581064
-0.0002464361819
0.4618155825
0.001388960088
-0.4600821268
-0.001496843575
0.4601052191
0.001473751354
0.0004609031568
0.9202047709
-0.001381344974
-0.00100276868
0.001799591128
0.9168317232
0.0008395405136
0.9154689926
0.9150672982
0.0004850952701
0.9130663484
0.001060211569
0.9128382868
0.002221594644
0.9124114094
0.003069823435
0.9121212249
0.002028148972
-0.4571730198
0.4567726466
0.003470196634
-0.4600784875
-0.00464387808
0.4570722506
0.007650114962
-0.4586761369
-0.008859343576
0.4602905818
0.001943604603
0.005301294059
-0.2277407263
-0.00189493312
0.2275571907
0.002078468627
-0.2290020678
-0.001596874812
0.2331719286
-0.002547038203
-0.2427177306
0.01442341645
0.2462560513
-0.01784592988
-0.2442443754
0.02567147088
0.2460821394
-0.02738629094
-0.2367478302
0.03012594689
0.2370969119
-0.03040666144
-0.226212035
0.03009157507
0.2258462256
-0.02973638601
-0.2164253711
0.02780296372
0.2153030295
-0.02676696243
-0.2118817584
0.02176503296
0.2093359485
-0.0193480731
-0.2177025661
0.009842695224
0.2138322597
-0.00607390256
-0.2342030442
-0.001333382521
0.2368054639
-0.001273355753
-0.003967483696
-0.2318231308
0.2318502601
0.003940354393
-0.4618543466
-0.006062369758
0.4631344384
0.00478227802
-0.4608760903
-0.003505210482
0.4619289654
0.00245233544
0.003391224517
0.920393025
-0.001894507636
-0.001684971009
0.002329109503
0.9178938382
0.001077640078
0.916720462
0.9161449383
9.854249527e-05
0.9129678059
0.0002438901118
0.9126929392
0.0005333611325
0.9121219384
0.001158258571
0.9111500707
0.0003462567064
-0.4565334249
0.4557637253
0.001927958199
-0.455692364
-0.002313680419
0.4551118007
0.002894243689
-0.4542675716
-0.003697987275
0.4535673924
0.002343449477
0.002054716942
-0.2282650926
-0.004133163974
0.2268946654
0.005505168939
-0.2458615854
0.00192383684
0.2515862217
-0.007507961416
-0.2545898234
0.01928747692
0.2564640321
-0.02095611773
-0.2483318761
0.02216695616
0.2477700032
-0.02143968202
-0.235541131
0.01708110738
0.2339170451
-0.01538120844
-0.2248933784
0.01181599299
0.2245403442
-0.01147417734
-0.2146820799
0.0132912226
0.2157884721
-0.0144979081
-0.2048331239
0.01782873955
0.2047569074
-0.01793645917
-0.214549073
0.02570750394
0.2066189182
-0.01797302084
-0.2186708159
0.00507905315
0.2150470325
-0.001566015154
-0.00583421065
-0.2332945326
0.2338750444
0.005253698818
-0.4648853113
-0.00716451176
0.4665831559
0.005466667208
-0.4629439963
-0.004220243028
0.4640003994
0.003163839895
0.004235082526
0.9225585044
-0.003576506791
-0.002824055138
0.002348899459
0.9197800213
0.001068420305
0.9180009412
0.9172133586
-0.0001745491704
0.9131423551
-0.000257408589
0.9127757986
-0.0001097466917
0.9119742765
0.0001318506833
0.9107835801
0.0001248932705
-0.4549179937
0.454639798
0.0004100463576
-0.454651998
-0.00133402328
0.4539343652
0.002051656084
-0.4528199587
-0.00254168803
0.4518766382
0.001714094322
0.001770914219
-0.2347315411
0.0003353598696
0.2374511447
-0.002982017515
-0.2560972922
0.009983000897
0.2580353452
-0.01169411372
-0.2588615597
0.01176338682
0.2569229445
-0.009574696811
-0.2416244608
0.000293422215
0.2418610389
-0.0003827182929
-0.2250896779
-0.01325875194
0.2218480294
0.01653637833
-0.2234053738
-0.02640616211
0.2229982452
0.02681093341
-0.2254584118
-0.01659701986
0.2291807962
0.01281716872
-0.2156624819
0.005373883132
0.2164664228
-0.006360450327
-0.1990713078
0.007899371762
0.199006266
-0.008086372007
-0.2065063372
0.00528505306
0.2045734153
-0.003557444689
-0.003322538339
-0.2328398243
0.2312856296
0.004848470724
-0.4681068943
-0.007509569728
0.4696621554
0.005954308671
-0.4646765742
-0.004788232956
0.4653147197
0.004150087396
0.003599985513
0.9251446761
-0.002989807557
-0.003196349704
0.001980735266
0.9213992716
0.0008305898299
0.9191510866
0.9180439484
-0.0005768627863
0.9137192179
-0.001028257222
0.9132271931
-0.001335612902
0.9122816322
-0.0001818222136
0.9105431019
-0.000913312458
-0.4545401346
0.454263744
9.456842385e-05
-0.4529311298
-0.0002956734736
0.4526032834
0.0006235198728
-0.4515633782
-0.001546163035
0.4513763964
0.0008949311042
0.0008388706192
-0.2431658207
0.002219056649
0.2448320077
-0.003749675537
-0.2640867359
0.007087595797
0.261501065
-0.004217598701
-0.253190045
0.003388865582
0.2519165095
-0.001867147868
-0.2260729645
-0.007382033658
0.2203515037
0.01318853132
-0.210961168
-0.03184461663
0.1072543957
0.1015737768
0.01486783809
0.01910977398
-0.02370285288
-0.1088752924
0.1082738364
0.02430430888
-0.01935790683
-0.2471247054
0.03700221678
-0.01976143342
0.1241723523
0.1250694765
-0.02073803371
-0.2258509244
0.2311698778
0.01529739445
-0.2020792179
-0.005315630729
0.2053630376
0.001764859179
-0.2021017944
0.00295986022
0.201253937
-0.002369976655
-0.001021590723
-0.2243913047
0.2228621664
0.002451205099
-0.4712346511
-0.006511469909
0.4722789006
0.00546722039
-0.466399752
-0.004162479004
0.4674698578
0.003092373196
0.002178416591
0.9270274769
-0.001897896519
-0.002163320801
0.00104694534
0.9225307428
0.0004000709864
0.9197979609
0.9184440194
-0.0009927782375
0.9147119961
-0.001934994312
0.9141694091
-0.00268673591
0.9130333738
-0.001414822747
0.9112366332
-0.001965444478
-0.4542604817
0.4542877453
-0.00144208628
-0.4524747986
0.001521479701
0.4524081214
-0.001454802508
-0.4506568095
0.001325709106
0.4511953325
-0.000635326799
-0.001215086878
-0.2475826502
0.0005406310991
0.2477625442
-0.0005516742031
-0.2622316456
0.0001335525856
0.2623502781
4.406171061e-05
-0.2478862239
-0.001854943499
0.2471448344
0.002832040683
-0.2106375799
-0.006610544861
0.2092002709
0.008075853394
-0.09531540775
-0.005378891988
0.09535053778
0.005343761953
-0.02716728392
-0.1358985462
0.1385277117
0.02453811842
-0.02596608437
-0.2488100019
0.2537612564
0.02095041736
-0.2108210971
-0.01123330896
0.2126435155
0.009155197667
-0.2011872684
-0.005092826898
0.2017366557
0.004254370556
-1.28258737e-05
-0.2205749948
0.2198101263
0.000635374192
-0.4736790024
-0.00402353027
0.4748321154
0.002870417235
-0.4683225163
-0.002069864065
0.4690291533
0.001363227023
-0.0001363455981
0.9279460677
-7.926303311e-05
-0.0007029821925
-0.000361325906
0.9227557231
-0.0002463136545
0.9196829487
0.9181977057
-0.001398379405
0.9161103755
-0.002726362471
0.9154973922
-0.004126753594
0.9144337649
-0.00242008459
0.9124891467
-0.002959182541
-0.454509486
0.4547217032
-0.002632301819
-0.4525127769
0.002876910575
0.4527438356
-0.003107969242
-0.4515491657
0.003320312872
0.4522302798
-0.001897646995
-0.00207271101
-0.2492453342
0.00260076081
0.2494966533
-0.002668270295
-0.2618325141
0.002143106313
0.2617427986
-0.001752717894
-0.2452229072
0.0002957571838
0.2449907483
0.0001621664998
-0.208329722
-0.000846409019
0.2086597856
0.0005284896029
-0.09894957343
0.001313766198
0.09945040634
-0.001814599113
-0.01221249566
-0.1514613272
0.1521393418
0.01153448104
-0.01409776574
-0.2652679859
0.2674069139
0.01192275426
-0.2183174405
-0.006471539668
0.2195401874
0.005004386283
-0.2032305587
-0.001611019067
0.2036203149
0.0009236256372
9.160634376e-05
-0.2193300835
0.219149275
-7.214797999e-05
-0.4761716467
-0.0003943582636
0.4772097427
-0.0006437377119
-0.4693835084
0.001114569723
0.4695603717
-0.001291433021
-0.002929790859
0.9273601467
0.002047616175
0.001468095699
-0.002084300127
0.9219102324
-0.001087672879
0.9186863214
0.9171100328
-0.001764687838
0.9178750634
-0.003640092834
0.9173727972
-0.005450827607
0.9162444997
-0.00341500053
0.9144155051
-0.003962185405
-0.455132686
0.4555388087
-0.003821123239
-0.4530522934
0.004286100323
0.4535844758
-0.004818282676
-0.4530610544
0.005322901285
0.4543286883
-0.003074274685
-0.003470005605
-0.2502720416
0.003943914009
0.2506276574
-0.004107367625
-0.2617918622
0.004010637398
0.2619081352
-0.003824341889
-0.2449096965
0.003122843648
0.2449594942
-0.00295274744
-0.2100967176
0.003032063679
0.2105841061
-0.003512671865
-0.1017062489
0.002879528349
0.1019245942
-0.001535589527
-0.001562284099
0.00483287221
-0.1506190969
0.149760752
-0.003974527358
0.002194691885
-0.2673822604
0.2658486911
-0.0006995776
-0.2201360719
-0.001118998836
0.2198733047
0.001136806253
-0.204595537
-0.0002850081267
0.2047383337
-0.0001546267492
0.001416971242
-0.2199929951
0.2201708376
-0.001754818956
-0.4771795735
0.004624407976
0.4765938629
-0.004038697338
-0.4693279362
0.003818883496
0.4695674392
-0.004058386519
-0.006015528618
0.9251941369
0.004453797655
0.003727740723
-0.003948179399
0.9198428832
-0.001994617561
0.9167327596
0.9151154153
-0.002214400748
0.9200894641
-0.0044168423
0.9195752388
-0.006756433616
0.918584091
-0.004374829221
0.9169410272
-0.004907126525
-0.456130387
0.4567186001
-0.004963042365
-0.4541851162
0.005680607721
0.4548465588
-0.006342050346
-0.4559994616
0.007109107982
0.4580035403
-0.004420984224
-0.004624539449
-0.2518692154
0.005221268522
0.2523341854
-0.005484285136
-0.2624723327
0.005734456705
0.2627209636
-0.005678064942
-0.2453121304
0.005411433847
0.2454821064
-0.005368056887
-0.2121054236
0.005666155253
0.2126387344
-0.006196941496
-0.1032006419
0.003972782034
0.1033421495
-0.002043737615
-0.002070551961
0.01436329501
-0.1418964422
0.1406308209
-0.0130976737
0.01360300369
-0.2573797709
0.2533707344
-0.009659722426
-0.2164527808
0.001130460275
0.2172952994
-0.002223869046
-0.2048269589
0.001984706157
0.2048670619
-0.002315701876
0.003841761178
-0.2220794631
0.2224623499
-0.00436490759
-0.4755808273
0.009356312803
0.4741951225
-0.007970607996
-0.4696212665
0.006753719645
0.4685241686
-0.005656621753
-0.008859668434
0.9217026244
0.006434778855
0.005916402031
-0.005742856819
0.9167260715
-0.002821738279
0.9138116411
0.912293677
-0.002622069814
0.922711534
-0.005258834765
0.9222120038
-0.008016809022
0.9213420653
-0.005241602448
0.9197294574
-0.005563636761
-0.4574567882
0.458184345
-0.005969159218
-0.4557071201
0.006809965678
0.4566084794
-0.007711324947
-0.4601351191
0.008690862996
0.4618208879
-0.005444163715
-0.004838802646
-0.2538782225
0.006476535461
0.2544645095
-0.006850502542
-0.2636158434
0.007380285089
0.2639568484
-0.007414358016
-0.2461002205
0.007342032387
0.2463139611
-0.007350291382
-0.2144249043
0.007754056783
0.2151131395
-0.008442064657
-0.1042710247
0.005183753249
0.1044138798
-0.002644475547
-0.0026821328
0.01780119776
-0.1319954791
0.1307423078
-0.01654802646
0.01801739659
-0.2414338633
0.2371963919
-0.0138882553
-0.2127720013
0.008622122737
0.2080442558
-0.004160997855
-0.2044737119
0.001020355827
0.2041277266
-0.0009508459379
0.005697210741
-0.2244703562
0.2251372769
-0.006471670811
-0.4725025234
0.01316099769
0.4705354437
-0.01119391799
-0.4673286929
0.009494168419
0.4658726283
-0.00803810387
-0.01134762429
0.9187484921
0.007427451094
0.006874305519
-0.007286329621
0.9126647769
-0.003535655759
0.9100609672
0.9087580213
-0.006668167934
0.9293797019
-0.01350612583
0.9290499617
-0.02043111902
0.9282670585
-0.006189291673
0.927061313
-0.02157368291
-0.4590741532
0.4599783184
-0.007093456755
-0.4575394092
0.00807791175
0.4586484491
-0.009186951586
-0.465468474
0.01027623141
0.4687597652
-0.006908994174
-0.00650656121
-0.2558464248
0.009189534561
0.2570912016
-0.01021097541
-0.2650299807
0.009286247263
0.2649467394
-0.008896561418
-0.2469471981
0.007540329589
0.2483638403
-0.008757659295
-0.2175452326
0.009355002204
0.2184558648
-0.00510100585
-0.005164628541
-0.05292639558
0.003268025926
0.05298164999
-0.003323280329
-0.05789533185
0.006534398414
0.05740662749
-0.01272887682
0.006683182761
0.01633993773
-0.123251381
0.2430253154
-0.02888412445
0.01596969146
-0.1231994391
-0.2263243759
0.01565203549
0.2207852449
-0.01026955573
-0.2027027679
0.005930891131
0.2017718777
-0.005287543355
-0.2044156773
0.005877455237
0.2047990431
-0.006513441427
0.008621440611
-0.2284980609
0.2289813556
-0.009162486623
-0.4682356656
0.01555429598
0.465938431
-0.01325706133
-0.4643571634
0.01147537949
0.4627297032
-0.009847919233
-0.01325072556
0.914568139
0.008949064699
0.008482013994
-0.008509092178
0.9079231435
-0.004178308799
0.9057301839
0.9045797125
-0.003101673873
0.9324813758
-0.006289954691
0.9322382425
-0.009656046171
0.93163315
-0.006576839115
0.9307106644
-0.00672855842
-0.4628936898
0.4638425996
-0.007525748923
-0.4615561664
0.008584672084
0.4626912464
-0.009719752058
-0.4722436237
0.01095000842
0.4713999104
-0.005199760214
-0.004728673261
-0.2593457768
0.004504370451
0.2592044031
-0.004127715925
-0.2664757245
0.003305284359
0.2667571807
-0.003280493354
-0.2477003806
0.004538097651
0.2488821578
-0.005537018431
-0.2218538238
0.01042892128
0.2229113397
-0.005735091921
-0.005751345257
-0.05475278121
0.007803843567
0.1099177839
-0.05469689468
-0.004122908203
-0.004149043406
-0.1113959239
0.008922196765
0.11131366
-0.01751299947
0.008673066625
0.02838260611
-0.2359255905
0.2327772628
-0.02524119316
-0.2113443084
0.009927971015
0.2093481691
-0.008132241662
-0.201043038
0.006138607011
0.1975175255
-0.002898646949
-0.2065094599
0.002916876131
0.2100236154
-0.006635634019
0.009943568771
-0.2322333325
0.2323636904
-0.0100824993
-0.4638979836
0.01634231312
0.4620761199
-0.01452044932
-0.4610934455
0.01277638629
0.4592262378
-0.01090917853
-0.0127749152
0.9095595338
0.008826599959
0.0089569205
-0.00925338175
0.9044016101
-0.004522910387
0.9009997125
0.9000568021
-0.003249163954
0.9357305398
-0.006584516071
0.9355735946
-0.01009434434
0.9351429783
-0.006880369604
0.9344856248
-0.006988935171
-0.4648762427
0.4658938417
-0.007897968644
-0.4638466065
0.008998440187
0.4650133664
-0.01016520003
-0.4689545156
0.01142122297
0.4663020469
-0.004240132308
-0.0044610075
-0.2567267772
0.0009126686267
0.2552256372
0.000787487396
-0.2666065439
-0.005014160594
0.2660922523
0.005818500674
-0.2536921904
-0.005323663647
0.2552659537
0.003960224218
-0.2298955924
0.004257027275
0.2340283216
-0.008346097025
-0.1130150984
0.0147402998
0.2252131313
-0.01438724032
-0.1125510923
-0.2252192966
0.02024669662
0.2258124936
-0.02083989356
-0.2219494814
0.01440104669
0.2185598003
-0.01109055637
-0.201971634
0.004592639457
0.2007905335
-0.003651560377
-0.1953924921
0.003949798988
0.1959982295
-0.004840760077
-0.2129058632
0.008650803984
0.211893824
-0.007788052009
0.01207066562
-0.2322558038
0.2298757393
-0.009690601128
-0.4604757154
0.01779843256
0.4572378627
-0.01456057989
-0.4573591864
0.01298765276
0.4552635825
-0.01089204892
-0.01311946744
0.9046967307
0.009060149132
0.008922121391
-0.009290859328
0.900573002
-0.004723053694
0.8964319069
0.8953337484
-0.003316819664
0.9390473595
-0.006712992435
0.9389697674
-0.01026781432
0.9386978002
-0.007007080251
0.9382833218
-0.007058431064
-0.466925769
0.4679588671
-0.008040178288
-0.4661754675
0.009137220951
0.4673267757
-0.01028852916
-0.4653636881
0.01151652972
0.4666227139
-0.006362786188
-0.006412553684
-0.2488541343
0.001430052387
0.2461867193
0.001358296176
-0.2625566495
-0.009264192674
0.2606614163
0.01139853316
-0.258162311
-0.01505005103
0.2582608088
0.01517268605
-0.243377771
-0.01229739309
0.2452787809
0.01051390176
-0.2280388868
-0.004902384902
0.2295079094
0.00345868177
-0.2225500142
-0.001960247912
0.2217653358
0.002703964007
-0.2115313219
-0.006368945398
0.210379075
0.007379245513
-0.1996055748
-0.007988918016
0.2001436494
0.007215236711
-0.2000596625
-0.002228560838
0.2021591646
-9.598813072e-05
-0.2173987599
0.007743930714
0.2197565527
-0.01018150255
0.01126665162
-0.2278866516
0.2272821374
-0.01066213735
-0.4564326447
0.01783662133
0.4537082233
-0.01511219993
-0.452373018
0.0116828634
0.4507709677
-0.01008081316
-0.01219875586
0.8984519786
0.009463149953
0.008980358047
-0.006819408227
0.8951936544
-0.004750938134
0.8943634368
0.8905828103
-0.003311715111
0.9423590746
-0.006692638089
0.9423506904
-0.01020857214
0.9422137342
-0.006975938534
0.9420051979
-0.006954509687
-0.4689646627
0.4699734469
-0.007984722745
-0.4684535098
0.009043313419
0.4695526461
-0.01014244971
-0.4678988072
0.01130134259
0.4691254708
-0.006288178261
-0.006239827967
-0.2371381788
0.006893265594
0.2346451423
-0.004383998735
-0.2529641049
-0.005774625319
0.2498599986
0.009023841322
-0.2556248714
-0.01712058857
0.2538536979
0.0190697486
-0.2475091467
-0.02243207105
0.2472458726
0.02282024277
-0.2332221854
-0.02266834899
0.2340899229
0.02183699901
-0.2211238309
-0.02059599084
0.2212923552
0.02037101944
-0.2103299997
-0.01836626725
0.2112992188
0.01725547478
-0.2045742597
-0.01191971711
0.2068689782
0.00944482068
-0.2103262373
-0.0004244781955
0.2135030991
-0.002876569613
-0.2262216481
0.01198790359
0.2259179392
-0.01168492218
0.01024252723
-0.2256862173
0.2252085998
-0.009764909736
-0.4500184692
0.01661537304
0.4483190216
-0.01491592539
-0.4492028035
0.01329058379
0.4476280274
-0.0117158077
-0.01123837369
0.8914083084
0.01000532678
0.008276717147
-0.006341475753
0.8902967564
-0.004346787438
0.8923687485
0.8862360228
-0.0032460459
0.9456051205
-0.006549198583
0.9456538431
-0.009959629799
0.9456241654
-0.006807819011
0.9455780709
-0.006724683853
-0.4709394054
0.4718977023
-0.007766115927
-0.4706140511
0.008762695352
0.4716376385
-0.00978628278
-0.4702970226
0.01085166023
0.4714088838
-0.006020257385
-0.00594326408
-0.2350240527
0.006607577293
0.2353249093
-0.006908433842
-0.2398180913
0.006067877406
0.2364934365
-0.002717029071
-0.2466711165
-0.006950232981
0.2439131543
0.009797346079
-0.2442759788
-0.01653476053
0.242785156
0.0181066645
-0.2353180823
-0.02081357334
0.2353056084
0.02085228372
-0.2223774995
-0.01895693383
0.2229042233
0.01838877066
-0.2162803271
-0.01367787355
0.2183868959
0.01148233776
-0.2153165157
-0.003295510417
0.2183846738
0.000144994288
-0.2234486944
0.009758321109
0.2252464956
-0.01156511513
-0.2246845594
0.01060923354
0.2243323688
-0.01025704295
0.009161197589
-0.2239572443
0.223580053
-0.008784006223
-0.4467617923
0.01516774965
0.4453393448
-0.01374530213
-0.4461847523
0.01234848173
0.444801424
-0.01096515343
-0.01392817338
0.8863861415
0.009333957832
0.009616382481
-0.009152265256
0.8855208483
-0.001713622048
0.8849301053
0.8845224008
-0.003132064022
0.9487371845
-0.006308197022
0.9488299761
-0.009562486576
0.948878455
-0.006531011678
0.948949598
-0.006403001923
-0.4728074825
0.4737018438
-0.00742537291
-0.4726161112
0.008346746603
0.4735518626
-0.009282497968
-0.4724590717
0.01024388144
0.473447381
-0.005663523417
-0.005568667298
-0.2361634205
0.006177540978
0.2364225892
-0.006436709747
-0.2359993019
0.007219321338
0.2362604519
-0.007480471361
-0.2358117604
0.008257779696
0.2357844426
-0.008229263871
-0.2377582355
0.003102428939
0.2361062222
-0.001432949638
-0.2344363286
-0.001752610385
0.2339565018
0.002240543539
-0.2250133468
-0.000781913074
0.2258821253
-9.965998926e-05
-0.2249959769
0.004781746772
0.2270657092
-0.006866983326
-0.2259728129
0.01078246888
0.2258512057
-0.01066086169
-0.2245184147
0.01015863826
0.2243106287
-0.009950852308
-0.2234169855
0.009232146025
0.2231520872
-0.008967247753
0.008121094045
-0.2225955087
0.2222938027
-0.007819388068
-0.4440405437
0.01366450739
0.4428551391
-0.01247910276
-0.4435443967
0.01128933419
0.4423431293
-0.01008806676
-0.01294359237
0.8818574659
0.008577374997
0.008894892882
-0.008550804777
0.8811280607
-0.004247672416
0.880626973
0.8802747284
-0.002982370964
0.9517195555
-0.005996080047
0.9518436852
-0.009060645119
0.95194302
-0.006179215306
0.9520896086
-0.006021440414
-0.4745453019
0.4753685477
-0.00700246118
-0.4744399203
0.007843019559
0.4752842418
-0.008687341038
-0.4743756256
0.009544115939
0.4752452412
-0.005256297579
-0.005157433948
-0.2371403241
0.005701657623
0.2373612759
-0.005922609419
-0.2369691574
0.006576402857
0.2371825305
-0.006789775977
-0.2364572507
0.007409183223
0.2366548352
-0.007606767678
-0.2355482983
0.008162438246
0.235718406
-0.008332545926
-0.2329996275
0.008739281169
0.2328962564
-0.008635910063
-0.2272919259
0.009204278475
0.2274230962
-0.009335448827
-0.2277728041
0.009376227826
0.2277594707
-0.009362894421
-0.225537061
0.009202986913
0.2254458677
-0.009111793592
-0.2237721735
0.008736934574
0.2236162587
-0.008581019753
-0.2224548961
0.008034646814
0.2222504113
-0.007830162044
0.007165092293
-0.2215116344
0.2212694982
-0.006922956111
-0.4417708848
0.01221360326
0.4407783122
-0.01122103065
-0.4412565311
0.01020906193
0.4402177011
-0.009170231971
-0.01187375429
0.8778140908
0.007796622685
0.008120506777
-0.007881498857
0.8771358053
-0.003925897536
0.8766713716
0.8763488309
-0.002809166645
0.9545287221
-0.005638214964
0.9546727335
-0.008494017754
0.9547988228
-0.005781647826
0.9549845963
-0.005607357636
-0.4761412309
0.4768920578
-0.006532474682
-0.4760815077
0.007292301808
0.476836764
-0.008047558077
-0.4760574769
0.008804720886
0.4768154072
-0.0048255139
-0.004737137327
-0.2379719366
0.005214597667
0.2381598116
-0.005402472671
-0.2377618538
0.005948201918
0.2379365255
-0.00612287366
-0.2371802101
0.006619691245
0.2373355074
-0.006774988507
-0.2361649414
0.007205040868
0.2362951002
-0.007335199732
-0.2326305615
0.007593471228
0.2325556164
-0.007518526075
-0.227740473
0.007989372918
0.2278234366
-0.008072336503
-0.2277126664
0.008072667053
0.2276953856
-0.008055386255
-0.2252028117
0.007920177254
0.2251302483
-0.007847613921
-0.2232041553
0.007554128723
0.2230824922
-0.007432465653
-0.2217054194
0.0070037125
0.2215435136
-0.006841806724
0.006308716582
-0.2206404754
0.2204434761
-0.006111717262
-0.4398684703
0.0108631075
0.4390338052
-0.01002844233
-0.439280167
0.00916574768
0.4383822196
-0.008267800296
-0.01079040942
0.8742245898
0.007032241763
0.00734766862
-0.007191262393
0.8735366583
-0.003590494514
0.8730706038
0.8727583363
-0.002622553499
0.9571512757
-0.005255190338
0.9573053704
-0.007894447852
0.9574380803
-0.005359523091
0.9576321966
-0.005182525068
-0.4775934967
0.4782749398
-0.00604096623
-0.4775476841
0.006723804454
0.4782197331
-0.007395853535
-0.4775221085
0.008062550893
0.4781808258
-0.00439856302
-0.004322705169
-0.2386787341
0.004738196847
0.2388384378
-0.004897900518
-0.2384118661
0.005354407174
0.2385555334
-0.005498074443
-0.2377510248
0.00589983024
0.2378746071
-0.006023412488
-0.2366382337
0.006361674163
0.2367385459
-0.006461986366
-0.2323650986
0.00662525101
0.2323116929
-0.006571845348
-0.2280194731
0.006970329285
0.2280701534
-0.007021009642
-0.2276398796
0.006997272618
0.2276204102
-0.006977803211
-0.2249326734
0.006859348396
0.2248725738
-0.006799248813
-0.2227554792
0.006560800264
0.2226574094
-0.006462730483
-0.2211069323
0.006116958526
0.2209757881
-0.005985814329
0.005550534443
-0.2199293362
0.2197667115
-0.005387909749
-0.4382665577
0.009632547795
0.4375603876
-0.008926377649
-0.4375725463
0.008187990326
0.4367952329
-0.00741067691
-0.009738920943
0.8710486607
0.006309844901
0.0066050051
-0.006512477545
0.8703102149
-0.003258158881
0.8698162851
0.8695001775
-0.002431764152
0.9595830398
-0.004865573855
0.9597391801
-0.007290343933
0.9598628504
-0.004936514285
0.9600413891
-0.004763022161
-0.4789077849
0.4795234513
-0.005552180701
-0.4788513468
0.006163677009
0.4794478812
-0.006760211375
-0.4787948935
0.007346532438
0.4793674191
-0.003991977913
-0.003927080056
-0.2392799081
0.004288554574
0.2394160054
-0.004424651884
-0.2389477959
0.004808268637
0.2390667596
-0.004927232393
-0.2382074414
0.00525524963
0.23830709
-0.005354898137
-0.2370035328
0.005624818113
0.237081102
-0.005702387349
-0.2321771807
0.005804982347
0.232140061
-0.005767862655
-0.2281883687
0.006110435572
0.2282183989
-0.006140465755
-0.2275598919
0.00610152971
0.2275391753
-0.006080813082
-0.224706378
0.005974544783
0.2246551091
-0.005923275887
-0.222390111
0.005723824185
0.2223089034
-0.005642616605
-0.2206184996
0.005357169147
0.2205101291
-0.005248798595
0.004887353189
-0.219340198
0.2192040901
-0.004751245259
-0.4369087767
0.008532600878
0.4363067889
-0.007930613126
-0.4360941021
0.007295243874
0.435419089
-0.00662023079
-0.008751028172
0.8682417551
0.005643799085
0.005914134734
-0.005868240718
0.8674274274
-0.002940918485
0.8668889629
0.866559259
-0.002243502201
0.961826542
-0.004482682286
0.9619783602
-0.006701172833
0.9620813409
-0.004525663618
0.9622265373
-0.004360657381
-0.4800925315
0.480647349
-0.005080481181
-0.4800081919
0.005627278274
0.480537421
-0.006156507337
-0.4799014182
0.006672369778
0.4803994845
-0.003614006529
-0.003556429505
-0.2397927655
0.003873135524
0.2399092118
-0.003989581827
-0.239392746
0.004313814688
0.2394920207
-0.004413089435
-0.2385772198
0.004683711535
0.2386586721
-0.0047651638
-0.2372861625
0.004983189756
0.2373462458
-0.005043273027
-0.2320488176
0.005105932154
0.2320244738
-0.005081588405
-0.2282868925
0.005380430334
0.228303752
-0.005397289851
-0.2274758428
0.005348922624
0.2274544135
-0.005327493296
-0.2245116357
0.005230340957
0.2244668683
-0.005185573588
-0.2220851099
0.005014865299
0.2220163994
-0.004946154855
-0.220212377
0.004705936994
0.2201213115
-0.004614871432
0.004310375531
-0.2188455905
0.2187303081
-0.004195093169
-0.4357491964
0.007559182191
0.4352321506
-0.007042136349
-0.4348097204
0.006492352286
0.4342213174
-0.005903949319
-0.007843008079
0.8657600047
0.005040783088
0.005283975369
-0.005271308546
0.8648557279
-0.002645608476
0.8642632628
0.8639136505
-0.002063003729
0.9638895457
-0.004116797488
0.9640321539
-0.006141629193
0.9641061727
-0.00413670589
0.9642055142
-0.003983900239
-0.4811583572
0.4816578728
-0.004636221478
-0.4810346678
0.005125235653
0.4815046879
-0.005595255763
-0.480865323
0.006050269911
0.4813011726
-0.00326931858
-0.003216800989
-0.240232009
0.003494024393
0.2403320218
-0.003594037177
-0.2397650832
0.003869747301
0.239848618
-0.003953282101
-0.2388809279
0.004179054774
0.2389484343
-0.004246561156
-0.2375051824
0.004424569545
0.2375518155
-0.004471202651
-0.2319673252
0.004506734799
0.2319530884
-0.004492497925
-0.2283404035
0.004756837523
0.228348686
-0.004765120052
-0.2273893799
0.00471091822
0.2273674778
-0.004689016095
-0.2243404124
0.004598762935
0.2243005988
-0.004558949352
-0.221825454
0.004410257289
0.2217663511
-0.004351154406
-0.2198694132
0.004145923843
0.2197918437
-0.004068354397
0.003808751866
-0.2184255373
0.218326905
-0.003710119521
-0.4347514664
0.006704870448
0.4343041298
-0.006257533823
-0.4336894402
0.005779057161
0.4331743129
-0.005263929859
-0.0070231189
0.8635620591
0.004502999587
0.004718064925