/*--------------------------------*- C++ -*----------------------------------*\
| =========                 |                                                 |
| \\      /  F ield         | OpenFOAM: The Open Source CFD Toolbox           |
|  \\    /   O peration     | Version:  v1912                                 |
|   \\  /    A nd           | Website:  www.openfoam.com                      |
|    \\/     M anipulation  |                                                 |
\*---------------------------------------------------------------------------*/
FoamFile
{
    version     2.0;
    format      ascii;
    class       volVectorField;
    location    "1.74";
    object      U;
}
// * * * * * * * * * * * * * * * * * * * * * * * * * * * * * * * * * * * * * //

dimensions      [0 1 -1 0 0 0 0];


internalField   nonuniform List<vector> 
12556
(
(99.99930628 0.001701346235 -3.646242673e-21)
(99.99896283 0.005987751852 -8.751767012e-26)
(99.99811769 0.01336377249 -3.644060041e-21)
(99.99658929 0.02607571089 -3.628078526e-21)
(99.99972917 0.02125159434 3.510401753e-21)
(99.99823212 0.03608757465 0)
(99.99722191 0.0597633915 0)
(99.99683183 0.09323961422 -6.307231668e-21)
(99.99575575 0.1390858953 7.437513287e-22)
(99.99480479 0.1979138111 -4.999654741e-21)
(99.99442046 0.2656263782 5.651452678e-22)
(99.99530562 0.3314922642 0)
(99.99759544 0.3789411804 0)
(100.0005328 0.3939225388 6.447946374e-22)
(100.0032641 0.3724688034 -1.233856663e-21)
(100.0048701 0.3234435078 8.460268582e-22)
(100.0052149 0.2616673312 0)
(100.0050228 0.2002791218 1.489618745e-21)
(100.0048503 0.1451205331 6.140475539e-21)
(100.0026169 0.1037261029 -1.752228049e-21)
(100.011001 0.1204568564 -1.530590969e-20)
(100.0077079 0.07501626293 0)
(100.0057759 0.04034526409 -1.933300049e-21)
(100.0055993 0.01281575376 -1.362580741e-20)
(99.99383234 0.004233617642 1.459215272e-20)
(99.99020264 0.01533792566 3.648897381e-21)
(99.98233933 0.03496978927 2.551730969e-20)
(99.96876773 0.07016314957 -1.093005433e-20)
(99.96990045 0.09906804302 3.534385012e-21)
(99.94825798 0.1705684334 -3.304673069e-23)
(99.91937549 0.2829995302 0)
(99.90242043 0.3890213399 -6.28891879e-21)
(99.86576477 0.5872897384 -5.901644173e-21)
(99.8305077 0.8474232152 -1.05062615e-20)
(99.80944297 1.156277767 -4.462219108e-21)
(99.82224402 1.469600644 -6.09630273e-21)
(99.88172925 1.709141966 -3.235187377e-21)
(99.96738309 1.79712202 -2.007090762e-22)
(100.0543018 1.715553269 -4.216544477e-22)
(100.113697 1.495985299 4.334115186e-21)
(100.1354289 1.210746542 -8.795624663e-21)
(100.1263849 0.9293722314 0)
(100.1404793 0.7142194478 -2.624963038e-20)
(100.102761 0.4946480177 5.081544898e-20)
(100.1034481 0.3461096773 1.482196649e-20)
(100.0739851 0.2147857268 3.07001579e-20)
(100.0563843 0.1158273222 -3.079103802e-20)
(100.0497368 0.03681726986 1.556007809e-20)
(99.98423367 0.004435664527 -1.455966743e-20)
(99.9740958 0.01743501845 -2.921502134e-20)
(99.95250282 0.04323455956 -6.564202069e-20)
(99.9166415 0.09056029589 8.737565195e-20)
(99.89479506 0.1503480997 -7.217959289e-21)
(99.83206014 0.2700608386 -7.066477906e-21)
(99.74393704 0.4586801818 -1.22858568e-20)
(99.68819986 0.6727665941 0)
(99.57139758 1.040489514 2.43836197e-20)
(99.45551118 1.537875277 -1.960996218e-19)
(99.38381302 2.168423514 -8.99578614e-21)
(99.4408879 2.834906409 -8.576283583e-19)
(99.67034142 3.346454281 -1.19780305e-19)
(99.99831252 3.530946582 0)
(100.3094637 3.347895089 -4.798758446e-22)
(100.5056051 2.885772886 3.450704139e-21)
(100.5621976 2.299287541 -9.483209568e-21)
(100.514558 1.720706932 -2.298511902e-20)
(100.4682566 1.231794263 -1.574075388e-19)
(100.3513473 0.8403465237 -3.527157505e-20)
(100.2885632 0.5287464124 -1.526559671e-20)
(100.2085631 0.326563225 3.472862504e-20)
(100.1597078 0.1759718309 -3.910681802e-21)
(100.138365 0.05564003526 0)
(99.9756834 0.0009111606431 -7.327209086e-21)
(99.95640124 0.007802297045 5.132528117e-20)
(99.91565497 0.03085850551 -1.468063228e-20)
(99.8487369 0.07800369103 0)
(99.79314183 0.1594919562 0)
(99.66908386 0.309426959 -5.689399719e-20)
(99.49346407 0.553136847 -1.139754228e-19)
(99.34185018 0.8609041245 2.697317226e-20)
(99.07879414 1.380509773 2.049799697e-19)
(98.78370515 2.16033055 0)
(98.59110891 3.217883764 0)
(98.70166664 4.423664119 7.409531829e-21)
(99.28447044 5.356763387 -7.466370221e-21)
(100.1462718 5.600840682 0)
(100.8530408 5.153330888 1.50327013e-21)
(101.2230806 4.31498285 5.502838282e-19)
(101.2912055 3.334654535 -8.759351509e-20)
(101.1631837 2.428717698 0)
(100.9827601 1.650349146 5.779628994e-20)
(100.7309773 1.098672316 -4.499107048e-20)
(100.5502416 0.6448335535 -3.919182351e-20)
(100.3989559 0.3925345027 1.988845871e-20)
(100.3045337 0.2094835704 -3.996300325e-21)
(100.2612973 0.06572136259 0)
(99.97691933 -0.007181614751 0)
(99.94709401 -0.01630681061 0)
(99.88471731 -0.007776269505 7.37965956e-21)
(99.78123258 0.02688802764 1.117202609e-20)
(99.68334962 0.1161178796 1.848268552e-20)
(99.48175715 0.2695563936 0)
(99.19640851 0.5242622887 0)
(98.90718231 0.8953261818 -5.63727156e-20)
(98.40765614 1.552965383 3.120420538e-19)
(97.80052803 2.626344891 0)
(97.27174726 4.2839843 -1.483762221e-18)
(97.40296459 6.406720089 -1.096686464e-18)
(98.74748227 8.141027815 -3.374265986e-20)
(100.722775 8.30254777 2.323096945e-19)
(102.0353528 7.177458376 0)
(102.5138838 5.657849418 -1.036085056e-19)
(102.4421862 4.209785384 0)
(102.0765526 2.93928998 -6.435075769e-22)
(101.6647498 1.896482246 -9.698436743e-20)
(101.2188609 1.226873841 8.097349237e-21)
(100.858197 0.6627445301 0)
(100.617358 0.3979666669 4.090984295e-21)
(100.4664173 0.2080600239 -3.071951453e-21)
(100.396045 0.06446190399 -1.019236169e-21)
(99.9977422 -0.02010079224 0)
(99.95725485 -0.05552346597 0)
(99.87366979 -0.07420631897 -1.479952275e-20)
(99.73321993 -0.06751540737 3.005369039e-20)
(99.58343792 0.01264006812 0)
(99.30234734 0.1386413501 0)
(98.893358 0.3649243755 2.34683559e-20)
(98.43714435 0.7453451242 -2.331505399e-19)
(97.624151 1.440544618 -1.439108741e-18)
(96.47502372 2.700234169 9.033811097e-19)
(95.15726345 4.99004786 0)
(94.74660734 8.721340058 4.694226681e-19)
(97.63823313 12.52631135 -4.060074097e-20)
(102.347861 12.17597242 0)
(104.4368555 9.256576672 -1.796652914e-18)
(104.6102942 6.653842864 0)
(104.0606715 4.677882708 7.935892775e-20)
(103.265968 3.1414261 3.051436892e-19)
(102.4534277 1.88552366 2.504168164e-20)
(101.7614943 1.17992709 -1.685621689e-20)
(101.1771898 0.5659427062 0)
(100.8314936 0.3312594329 0)
(100.6176459 0.1655490445 -1.037508097e-21)
(100.5174722 0.05019772303 -3.119129562e-21)
(100.047537 -0.03750520988 3.612199637e-21)
(99.99753746 -0.1086594362 -3.637476071e-21)
(99.89557225 -0.1664424209 7.412934521e-21)
(99.72278419 -0.202741567 -2.713700965e-20)
(99.52124253 -0.1508969215 6.822195475e-23)
(99.16717893 -0.08290350615 2.307987501e-20)
(98.64657158 0.07095032402 -4.767023955e-20)
(98.00938583 0.3903016196 2.354278904e-19)
(96.87358013 0.9606756711 4.760973754e-19)
(95.02326311 2.077836577 0)
(92.28700451 4.271803207 -6.72416989e-22)
(88.75476932 9.492884899 0)
(93.26351535 20.67246982 0)
(107.2606819 18.00742569 0)
(108.7587815 10.73977021 2.109447289e-19)
(107.5578211 6.770584302 -8.500697921e-19)
(106.0647443 4.417927753 -7.93840192e-19)
(104.6022037 2.827357205 5.017354307e-19)
(103.2524598 1.540222134 0)
(102.286775 0.9058770819 9.345910682e-21)
(101.455601 0.3507108575 2.74502169e-21)
(101.0032798 0.1845390959 -3.242587696e-21)
(100.7291508 0.08039249016 -3.688652704e-21)
(100.5997986 0.02272223379 8.862053066e-21)
(100.1343323 -0.05849379231 -3.612586139e-21)
(100.077101 -0.1728745069 3.638790929e-21)
(99.96173593 -0.2789399487 -4.611880275e-21)
(99.76558289 -0.3700765319 -3.093040842e-21)
(99.51902006 -0.3638310078 1.316664378e-20)
(99.11045078 -0.3783348949 7.813092706e-21)
(98.50805518 -0.3392951892 -4.034300491e-21)
(97.73288258 -0.1557611494 -3.015184236e-20)
(96.36424231 0.1212129157 0)
(94.03467582 0.643982772 0)
(90.3181553 1.37649157 2.037637071e-19)
(83.56705929 2.301450453 -1.357996763e-19)
(120.6556207 21.87304391 0)
(114.9783137 9.408085246 3.109384803e-19)
(110.8602 5.223550715 1.026429293e-19)
(108.0493519 3.157689205 -7.974891867e-21)
(105.8455369 1.868557524 -2.862614251e-19)
(103.9118932 0.8331542953 -5.018349908e-21)
(102.6909173 0.4119840454 2.117005862e-20)
(101.6331445 0.02213888905 -3.363210916e-21)
(101.0932933 -0.03250114626 2.747296132e-21)
(100.7714651 -0.04206251569 -5.3155752e-22)
(100.617476 -0.01663576858 -8.348841838e-21)
(100.2639971 -0.08171073276 -1.741897347e-21)
(100.2026529 -0.2439458448 -1.308694439e-21)
(100.0804338 -0.4037730739 -4.479864046e-22)
(99.87246388 -0.5566482638 1.354677982e-21)
(99.59305273 -0.6082128486 -2.40992506e-23)
(99.15590642 -0.7195902004 0)
(98.51419418 -0.8166878564 -6.341370886e-23)
(97.67734738 -0.8126681174 1.785926849e-19)
(96.24052521 -0.8925081511 1.891415391e-19)
(93.89723704 -1.045265572 -4.68320935e-21)
(90.69526684 -1.629091728 3.327126025e-21)
(87.22723466 -3.48353793 0)
(133.6901032 8.420327105 -5.466923982e-19)
(119.6751726 3.618738983 7.677478485e-19)
(113.2066864 1.821088385 8.036077715e-20)
(109.3898476 0.9083798057 1.300668473e-19)
(106.6483752 0.3564189611 0)
(104.270343 -0.1567196779 -5.169009979e-21)
(102.8751565 -0.2532325849 1.198189941e-20)
(101.6628333 -0.3871597156 1.163060823e-21)
(101.0698731 -0.2993356557 0)
(100.7195373 -0.1905083112 4.221441675e-21)
(100.5494347 -0.06453651235 4.167074848e-21)
(100.4394746 -0.1055242334 3.434006898e-21)
(100.3775018 -0.316833976 5.041982689e-23)
(100.2556079 -0.5316210286 0)
(100.0484174 -0.7481895551 1.789058771e-22)
(99.75062978 -0.8637577147 -1.809301084e-21)
(99.31265718 -1.074341489 1.918007221e-21)
(98.67596681 -1.308002465 4.073934794e-21)
(97.84677167 -1.485092164 5.887855163e-20)
(96.47666574 -1.87817881 1.251108071e-19)
(94.3618114 -2.483030043 9.377586014e-21)
(91.82950418 -3.461354553 1.937877989e-19)
(89.62672961 -4.818309502 -1.931002645e-19)
(132.2525267 -6.95915501 0)
(119.8913553 -3.617087728 1.435136198e-20)
(113.5131366 -2.379755077 0)
(109.5983437 -1.79980246 0)
(106.7522099 -1.440069066 3.169648113e-19)
(104.2147482 -1.279568595 4.387868424e-20)
(102.781774 -1.002599439 0)
(101.5157349 -0.8290484411 -1.139879081e-21)
(100.9144769 -0.5864197682 -4.685430398e-21)
(100.5584955 -0.3498285575 5.227013325e-22)
(100.3832076 -0.1161168598 0)
(100.6604894 -0.1283511731 -1.691963427e-21)
(100.6012034 -0.386544542 1.705977463e-21)
(100.4862405 -0.6532799803 1.665773302e-21)
(100.2929667 -0.9307951578 -1.552281451e-21)
(99.98957106 -1.110433685 -1.785909866e-21)
(99.5758838 -1.411527619 0)
(98.98101259 -1.767905727 -1.889066703e-21)
(98.20681556 -2.105053598 -5.679799109e-20)
(96.97133226 -2.738027276 0)
(95.10639786 -3.613615305 0)
(92.94203522 -4.699616335 0)
(91.05310194 -5.760294994 2.167929883e-20)
(124.4249673 -15.86216051 -6.017098988e-19)
(116.62646 -9.170675229 6.76769166e-19)
(111.8953407 -6.034400334 -1.226392535e-18)
(108.6482646 -4.298597952 2.499929089e-19)
(106.1181766 -3.148056433 2.006728065e-19)
(103.7296947 -2.343191337 0)
(102.4071996 -1.723917202 -2.850787651e-20)
(101.1885112 -1.250645681 -1.416949218e-20)
(100.6248264 -0.86090636 1.067546257e-21)
(100.2859482 -0.5033125311 -3.36762224e-21)
(100.1165306 -0.166030056 4.937544454e-22)
(100.923632 -0.1487657976 6.230481533e-21)
(100.8700078 -0.4485133241 0)
(100.7670762 -0.7591761438 -1.662530065e-21)
(100.5969674 -1.096707561 0)
(100.2965503 -1.331554285 0)
(99.93144323 -1.705973271 -5.318381361e-21)
(99.40546116 -2.162828004 -4.317410806e-22)
(98.71569788 -2.630400617 -5.119312565e-20)
(97.6490623 -3.439900481 5.447542369e-20)
(96.01527252 -4.50947133 7.907133084e-21)
(94.04346122 -5.730719244 -7.828608093e-20)
(92.16483115 -6.818535502 7.959824384e-20)
(115.7316322 -19.34357489 4.184858057e-19)
(111.9213017 -12.1419652 0)
(109.135881 -8.408770769 6.295422253e-20)
(106.8773139 -6.11233426 -8.65376984e-19)
(104.9101249 -4.467189514 1.722611056e-19)
(102.9009567 -3.193252533 2.264579398e-21)
(101.796134 -2.325962916 -3.445973775e-20)
(100.7083466 -1.611571811 8.398098786e-21)
(100.2160659 -1.093817492 0)
(99.91183431 -0.636306332 3.880999709e-21)
(99.75737173 -0.2095413188 0)
(101.2231691 -0.1662848631 6.222548371e-21)
(101.1771238 -0.5020913203 9.833756173e-20)
(101.0888698 -0.8494117572 -1.981026976e-19)
(100.9446566 -1.234194246 -5.526937359e-22)
(100.6761162 -1.510822864 -1.56622098e-21)
(100.3623895 -1.940681977 0)
(99.92308252 -2.472607595 8.322787266e-20)
(99.33137224 -3.036274059 0)
(98.45878759 -3.967551567 1.975524621e-19)
(97.08203165 -5.193351299 -2.644960076e-20)
(95.34459183 -6.652435795 -1.756879914e-20)
(93.52994881 -8.042132989 1.744802681e-19)
(104.0386927 -28.64808482 -5.16062773e-20)
(107.5293565 -18.19912956 2.136204426e-19)
(107.2446128 -12.77389981 7.097507678e-19)
(106.0649963 -9.384548838 0)
(104.7605511 -7.060517406 -7.069753012e-19)
(103.4065553 -5.253894818 1.076084467e-19)
(101.8733883 -3.745432528 -6.82952623e-20)
(101.0234459 -2.750441582 0)
(100.1234369 -1.879861543 0)
(99.71558278 -1.268544408 1.207007858e-20)
(99.45565907 -0.7393391842 2.230170632e-21)
(99.32204247 -0.2434171488 -7.213557958e-21)
(101.5512592 -0.1792208107 0)
(101.514024 -0.542206192 0)
(101.4431735 -0.9161429581 0)
(101.3269055 -1.329527989 0)
(101.0919748 -1.648535898 0)
(100.8318401 -2.121368472 0)
(100.4785834 -2.705006013 1.746994778e-20)
(100.0042672 -3.325040526 0)
(99.33687148 -4.319718446 1.724842978e-19)
(98.26627137 -5.637457991 -1.951352487e-19)
(96.96723661 -7.335392038 -8.747792784e-20)
(95.64861634 -9.688973689 1.414983354e-19)
(96.99335857 -18.58414395 -1.006811466e-20)
(102.4992751 -15.00507131 6.022433108e-20)
(103.5415609 -11.73261272 -4.769192182e-19)
(103.3427428 -9.232665354 1.091404442e-18)
(102.7189945 -7.243616618 0)
(101.8580781 -5.528380336 -6.199906325e-20)
(100.7838916 -4.011434062 -9.352688939e-20)
(100.1762615 -2.991809873 -3.531812928e-20)
(99.47924574 -2.03863753 -1.961510913e-20)
(99.15456625 -1.38219637 1.924984535e-20)
(98.94217912 -0.8083524957 0)
(98.83177551 -0.2660972939 1.928339203e-20)
(101.8998312 -0.1874764676 0)
(101.8722217 -0.5680571912 0)
(101.8208915 -0.9588620585 0)
(101.7343898 -1.384843508 0)
(101.5332622 -1.728762239 0)
(101.3368931 -2.221538323 0)
(101.0742871 -2.809522546 -2.201993775e-20)
(100.7256127 -3.438405392 7.718117712e-20)
(100.2889284 -4.390949546 0)
(99.55511046 -5.650646971 6.351698739e-19)
(98.80764941 -7.255175843 6.159608423e-21)
(98.31023674 -9.405854655 6.720862221e-21)
(98.34631845 -11.91552029 3.810244831e-20)
(100.3889917 -11.516602 1.468844832e-19)
(101.1848028 -10.0040826 5.94408802e-19)
(101.2752611 -8.411141741 0)
(100.9961117 -6.887582631 -3.973300356e-19)
(100.468896 -5.43129545 -2.4348427e-20)
(99.73321633 -4.040810065 0)
(99.33367292 -3.07649427 0)
(98.81284148 -2.09950544 -3.616248823e-20)
(98.56351613 -1.436603028 1.784465008e-20)
(98.39693031 -0.8430551061 7.499879316e-22)
(98.30899869 -0.2775732101 -1.32591705e-20)
(102.2601345 -0.1911850724 0)
(102.2418146 -0.5796245511 0)
(102.2094016 -0.9775871639 0)
(102.1515216 -1.403928556 0)
(101.9833416 -1.760249067 0)
(101.8447135 -2.252261309 0)
(101.6629979 -2.820761869 0)
(101.4238712 -3.417485403 -3.945661178e-19)
(101.1631561 -4.261777993 5.331320728e-19)
(100.7046465 -5.320384394 4.833156775e-19)
(100.2681544 -6.585204762 0)
(98.43824532 -7.785402761 4.848134988e-19)
(99.08525272 -9.05880578 0)
(99.62677581 -9.040945599 7.260136853e-21)
(99.87196043 -8.361666013 -3.900064243e-19)
(99.86383474 -7.383030498 -5.434951033e-19)
(99.66513424 -6.256900822 -7.432625274e-20)
(99.30688484 -5.095090991 0)
(98.79301095 -3.899815116 -2.970156877e-20)
(98.54558968 -3.036467545 4.57496884e-20)
(98.15659476 -2.082793421 1.118443501e-20)
(97.9705369 -1.4399281 1.914246619e-20)
(97.84310015 -0.8475034739 -2.173346673e-20)
(97.77444754 -0.2791157438 0)
(102.6237639 -0.1908469403 0)
(102.61369 -0.5784073635 0)
(102.5977046 -0.9747262082 0)
(102.5648196 -1.391734192 0)
(102.4264873 -1.749526257 0)
(102.3369553 -2.224799808 0)
(102.2197346 -2.757107466 0)
(102.0593627 -3.306921844 0)
(101.9153468 -4.011327479 2.077250597e-19)
(101.6212558 -4.838557912 4.257499521e-19)
(101.267329 -5.740515569 7.437570591e-19)
(100.0184481 -6.374450982 0)
(99.48736675 -7.174360838 0)
(99.38577096 -7.320256502 0)
(99.18191926 -6.992583594 -3.913970259e-21)
(98.95499405 -6.367354753 -1.760089896e-19)
(98.68129172 -5.540315148 0)
(98.37493277 -4.650897066 0)
(97.9890658 -3.659545541 0)
(97.82773069 -2.903842976 0)
(97.53461077 -2.007727697 3.846107051e-20)
(97.3969619 -1.40267448 -3.596723761e-20)
(97.29941548 -0.8273312356 -2.443250848e-21)
(97.2456227 -0.2729580293 2.451326565e-21)
(102.9832428 -0.1871201646 0)
(102.9801013 -0.5665390734 0)
(102.9774348 -0.9538454145 0)
(102.9648318 -1.353656392 0)
(102.8524431 -1.703548045 0)
(102.8007379 -2.151330467 0)
(102.7310658 -2.637983954 0)
(102.6212566 -3.138893611 0)
(102.5360379 -3.716177062 -9.7829071e-20)
(102.3167572 -4.341267051 -3.55203354e-19)
(101.973913 -4.979758903 -1.164723905e-21)
(101.2879274 -5.410967841 -7.155881984e-21)
(99.26384506 -5.907200338 -1.881509856e-19)
(99.37393605 -6.066180472 4.553410359e-20)
(98.8184186 -5.88381816 -9.394438842e-20)
(98.35245092 -5.452964475 -2.154609495e-21)
(97.96290671 -4.848032239 0)
(97.64286111 -4.171873312 0)
(97.30906336 -3.359313047 0)
(97.18984363 -2.710063914 0)
(96.95935544 -1.891091398 0)
(96.85537459 -1.333919198 0)
(96.77936532 -0.7895799162 0)
(96.73624085 -0.2616644334 0)
(103.3325454 -0.1806901526 0)
(103.3349372 -0.5462413546 0)
(103.3424042 -0.918788371 0)
(103.345075 -1.295934111 0)
(103.2534263 -1.630830338 0)
(103.2282747 -2.045044342 0)
(103.1894424 -2.482516988 0)
(103.1092872 -2.929136729 0)
(103.0407092 -3.413798502 0)
(102.8346815 -3.895044825 0)
(102.4758018 -4.351189279 4.800704758e-22)
(101.7745918 -4.690351293 -8.95214856e-22)
(98.99316308 -5.017343742 -3.590903715e-22)
(99.40459274 -5.109544648 1.117572194e-21)
(98.57919972 -4.982868772 0)
(97.92519347 -4.67225702 0)
(97.42977772 -4.227721417 0)
(97.06568901 -3.704500274 0)
(96.74246015 -3.038132012 0)
(96.63401477 -2.486993853 0)
(96.43739712 -1.751430752 0)
(96.35364503 -1.245791218 0)
(96.29083379 -0.7395341194 0)
(96.25554662 -0.245772631 0)
(103.6671051 -0.1722487092 0)
(103.6736097 -0.5197355581 0)
(103.6881032 -0.873399447 0)
(103.7011992 -1.224700885 0)
(103.6250322 -1.539927364 0)
(103.6163081 -1.917918512 0)
(103.5944396 -2.30728117 0)
(103.5271078 -2.699496448 0)
(103.4532337 -3.104392286 0)
(103.2265855 -3.487830793 0)
(102.8216889 -3.831687048 0)
(101.6492292 -4.065142658 0)
(99.2128731 -4.335382899 0)
(99.38762491 -4.354237836 0)
(98.39630467 -4.255467725 0)
(97.61153272 -4.023530531 0)
(97.02376802 -3.685495391 0)
(96.60610343 -3.273717548 0)
(96.26952443 -2.723081068 0)
(96.15312386 -2.25578106 0)
(95.96998115 -1.602058284 0)
(95.89570525 -1.147760112 0)
(95.8393986 -0.6830222626 0)
(95.80857459 -0.2275167216 0)
(103.9837222 -0.1624623669 0)
(103.9929921 -0.4891357101 0)
(104.0116599 -0.8212632492 0)
(104.0308431 -1.14542513 0)
(103.9653878 -1.438308301 0)
(103.9646924 -1.779882256 0)
(103.9489742 -2.125594274 0)
(103.8826304 -2.465763217 0)
(103.7904601 -2.803783078 0)
(103.5324825 -3.111367507 0)
(103.0816706 -3.377510555 0)
(101.4953005 -3.526869749 0)
(99.3969663 -3.751825097 -5.370134846e-35)
(99.36038847 -3.747084676 0)
(98.25476558 -3.663397096 0)
(97.37153569 -3.481749614 0)
(96.70643277 -3.216419548 0)
(96.23615458 -2.88624909 0)
(95.87260893 -2.4276063 0)
(95.73786881 -2.029801289 0)
(95.55453518 -1.452212515 0)
(95.48178848 -1.046816701 0)
(95.42698489 -0.6242394127 0)
(95.39816765 -0.2084069911 0)
(104.280414 -0.1519220303 0)
(104.2912666 -0.456310118 0)
(104.3116607 -0.7654915783 0)
(104.3332546 -1.062600484 0)
(104.2746038 -1.332025332 0)
(104.275348 -1.638831944 0)
(104.2573364 -1.945333743 0)
(104.1847674 -2.238589151 0)
(104.0671441 -2.521436864 0)
(103.7743924 -2.770265979 0)
(103.2814421 -2.979617087 0)
(101.384306 -3.074377522 0)
(99.51125982 -3.264090571 0)
(99.32811929 -3.247421854 0)
(98.13974246 -3.173924808 0)
(97.18113821 -3.026280526 0)
(96.45226585 -2.812207343 0)
(95.93358234 -2.542487353 0)
(95.53791702 -2.157175947 0)
(95.3790036 -1.816883166 0)
(95.18672637 -1.308058754 0)
(95.11008331 -0.9478096512 0)
(95.05331252 -0.5661507287 0)
(95.02467748 -0.1894414942 0)
(104.5562671 -0.1411141434 0)
(104.5677224 -0.4228009087 0)
(104.5878749 -0.7086726129 0)
(104.6088952 -0.9796671242 0)
(104.554098 -1.225745243 0)
(104.5513528 -1.50040171 0)
(104.5252719 -1.771792951 0)
(104.4418258 -2.024286321 0)
(104.2954597 -2.261990311 0)
(103.9681488 -2.46519118 0)
(103.4357075 -2.63213956 0)
(101.3059575 -2.692095604 0)
(99.58019543 -2.854788106 -6.624283797e-35)
(99.29292432 -2.830653558 0)
(98.04300489 -2.764652772 0)
(97.02553674 -2.641142383 0)
(96.24428978 -2.464386542 0)
(95.68246386 -2.240367704 0)
(95.25368641 -1.913870441 0)
(95.06807548 -1.621177167 0)
(94.86166356 -1.173380079 0)
(94.77766907 -0.8538793803 0)
(94.71667922 -0.5107265679 0)
(94.68694872 -0.1712776029 0)
(104.8112455 -0.1304202146 0)
(104.8225203 -0.3898022628 0)
(104.8409449 -0.652822009 0)
(104.8591163 -0.8992113293 0)
(104.8058161 -1.12284194 0)
(104.7962058 -1.368376985 0)
(104.7582524 -1.608395878 0)
(104.6612261 -1.82634525 0)
(104.4852009 -2.027218973 0)
(104.125399 -2.194863712 0)
(103.5550895 -2.329544394 0)
(101.2528041 -2.366667847 0)
(99.62014633 -2.508897353 0)
(99.25608325 -2.48000847 0)
(97.95949934 -2.419668464 0)
(96.89527216 -2.313976012 0)
(96.0709797 -2.165241524 0)
(95.47130628 -1.976527991 0)
(95.01046347 -1.697622359 0)
(94.79770756 -1.444420446 0)
(94.57443069 -1.050205989 0)
(94.48106699 -0.7669022443 0)
(94.41450981 -0.4591860574 0)
(94.38283661 -0.1543256254 0)
(105.0459612 -0.120128977 0)
(105.0564474 -0.3581946864 0)
(105.0720759 -0.5994148011 0)
(105.0857706 -0.8230799767 0)
(105.0321774 -1.025659118 0)
(105.0135021 -1.245190163 0)
(104.9614414 -1.457093785 0)
(104.8492235 -1.646460766 0)
(104.6441431 -1.817275036 0)
(104.2547809 -1.957163399 0)
(103.6476247 -2.066994909 0)
(101.2195043 -2.088631187 0)
(99.64152928 -2.215316129 2.10248351e-35)
(99.21824718 -2.183376653 0)
(97.88590053 -2.127322793 0)
(96.7841315 -2.035255881 0)
(95.92436134 -1.908169808 0)
(95.29173859 -1.747255867 0)
(94.80078679 -1.507209065 0)
(94.56162697 -1.286876834 0)
(94.32033969 -0.9393811862 0)
(94.21659694 -0.6878571446 0)
(94.14377474 -0.412201423 0)
(94.10963552 -0.1388176862 0)
(105.2614829 -0.1104511874 0)
(105.2707216 -0.3286018955 0)
(105.2828195 -0.5494775641 0)
(105.2909374 -0.7525168506 0)
(105.2357394 -0.9357030317 0)
(105.2066661 -1.132184566 0)
(105.1395705 -1.319562147 0)
(105.011168 -1.484908747 0)
(104.7785074 -1.63127971 0)
(104.3627448 -1.749424611 0)
(103.7195469 -1.839907061 0)
(101.2019666 -1.851252443 0)
(99.65037812 -1.965747721 0)
(99.17971468 -1.931490013 0)
(97.81997192 -1.878822057 0)
(96.68788842 -1.797553601 0)
(95.79872212 -1.687599414 0)
(95.13747162 -1.548903455 0)
(94.61871418 -1.340839487 0)
(94.35451831 -1.147944291 0)
(94.09506555 -0.8409905145 0)
(93.9806084 -0.6171052927 0)
(93.9012714 -0.370058668 0)
(93.86437754 -0.1248598304 0)
(105.4592022 -0.1015327833 0)
(105.4668584 -0.3014432748 0)
(105.4749472 -0.5036866705 0)
(105.4767919 -0.6883032663 0)
(105.4190112 -0.853888518 0)
(105.3788077 -1.030128809 0)
(105.2963116 -1.196423369 0)
(105.1515672 -1.341418849 0)
(104.8931958 -1.467839171 0)
(104.4539676 -1.568741501 0)
(103.7756522 -1.643928069 0)
(101.1966546 -1.649655097 0)
(99.64980267 -1.753597699 0)
(99.14086704 -1.717135952 0)
(97.76027924 -1.667503208 0)
(96.60357503 -1.595069984 0)
(95.6898412 -1.498885437 0)
(95.00368928 -1.37812835 0)
(94.45949494 -1.196550104 0)
(94.17191569 -1.026591547 0)
(93.89468478 -0.7546646804 0)
(93.76960224 -0.5546060193 0)
(93.68378741 -0.332784464 0)
(93.6440112 -0.1124724185 0)
(105.6407372 -0.09346776594 0)
(105.646574 -0.2769795298 0)
(105.6503661 -0.4624519406 0)
(105.6455373 -0.630870509 0)
(105.5844594 -0.7806769133 0)
(105.5328048 -0.9393148031 0)
(105.4349235 -1.08759145 0)
(105.2741267 -1.215312492 0)
(104.992016 -1.325367588 0)
(104.5318033 -1.412367983 0)
(103.8198958 -1.475420832 0)
(101.1999798 -1.479450381 0)
(99.6416224 -1.573354852 0)
(99.10222955 -1.534694857 0)
(97.70592992 -1.488027745 0)
(96.52898758 -1.423029987 0)
(95.59448569 -1.338065368 0)
(94.88659588 -1.231907496 0)
(94.31922502 -1.07235112 0)
(94.00998946 -0.9215652304 0)
(93.71565586 -0.6797770387 0)
(93.58028447 -0.5000724869 0)
(93.48819595 -0.3002435149 0)
(93.44551311 -0.1016214258 0)
(105.8078103 -0.08631199425 0)
(105.8116666 -0.255356309 0)
(105.8110135 -0.4259935767 0)
(105.7993219 -0.5804183094 0)
(105.7344164 -0.7162429641 0)
(105.6712539 -0.859741831 0)
(105.5581269 -0.9925513182 0)
(105.3818971 -1.105817985 0)
(105.0779313 -1.202418157 0)
(104.5987929 -1.278159898 0)
(103.8557381 -1.331826322 0)
(101.2081639 -1.33653954 0)
(99.62748645 -1.420666129 0)
(99.06418994 -1.380046975 0)
(97.65632041 -1.336229537 0)
(96.46245601 -1.277563054 0)
(95.51015429 -1.201819275 0)
(94.78317259 -1.107599208 0)
(94.19468499 -0.9663808917 0)
(93.86546613 -0.83157837 0)
(93.55481841 -0.6156030473 0)
(93.40962028 -0.4530929905 0)
(93.31154707 -0.2722145867 0)
(93.26599656 -0.09224332754 0)
(105.9622634 -0.08009223892 0)
(105.9640279 -0.2366344138 0)
(105.9588723 -0.3943955469 0)
(105.940277 -0.5369764763 0)
(105.8710853 -0.6605743175 0)
(105.7965368 -0.7912085456 0)
(105.6684574 -0.9106091564 0)
(105.4773916 -1.012145275 0)
(105.1533825 -1.097746958 0)
(104.6571381 -1.164513522 0)
(103.8860693 -1.211248037 0)
(101.2182662 -1.217276705 0)
(99.60907402 -1.292322388 0)
(99.0267836 -1.250201857 0)
(97.61087821 -1.208869662 0)
(96.40262815 -1.15555046 0)
(95.43484028 -1.087393747 0)
(94.69093724 -1.002918072 0)
(94.08317324 -0.8769616228 0)
(93.73550623 -0.7554049041 0)
(93.40928924 -0.5613911341 0)
(93.25477585 -0.4132033093 0)
(93.15103314 -0.2484354772 0)
(93.10268274 -0.08425906743 0)
(106.1057565 -0.07482185189 0)
(106.1053679 -0.2208295133 0)
(106.0957167 -0.3676520782 0)
(106.0702821 -0.5005370774 0)
(105.9965158 -0.6135302651 0)
(105.9108212 -0.7333613173 0)
(105.7682683 -0.8414046339 0)
(105.562804 -0.9334737237 0)
(105.220482 -1.010250079 0)
(104.7088164 -1.070050269 0)
(103.9129286 -1.111805714 0)
(101.2286602 -1.118890262 0)
(99.58789739 -1.185999815 -2.917843336e-36)
(98.98976858 -1.1428653 0)
(97.56894493 -1.103460717 0)
(96.34833787 -1.054532173 0)
(95.36688577 -0.9925684029 0)
(94.60776344 -0.9160589949 0)
(93.98237768 -0.8026997174 0)
(93.61761215 -0.6919193547 0)
(93.27661422 -0.5164754068 0)
(93.11329188 -0.3799391913 0)
(93.00419298 -0.2286468673 0)
(92.95313505 -0.07759122644 0)
(106.2406775 -0.07048730018 0)
(106.2380496 -0.2079014846 0)
(106.2238973 -0.3456928726 0)
(106.1917048 -0.4708656388 0)
(106.1126795 -0.5749211426 0)
(106.0160892 -0.6858227063 0)
(105.8597818 -0.784854459 0)
(105.6400667 -0.8689950482 0)
(105.281082 -0.9389025515 0)
(104.755505 -0.9934626182 0)
(103.937535 -1.031671311 0)
(101.2385833 -1.039323004 0)
(99.56521592 -1.099802169 0)
(98.95283383 -1.056112442 0)
(97.52979436 -1.018028965 0)
(96.29853112 -0.9725583585 0)
(95.30490259 -0.9155485183 0)
(94.53208718 -0.84567475 0)
(93.89010977 -0.7425320966 0)
(93.50955642 -0.6401795653 0)
(93.15403141 -0.4801165669 0)
(92.9823653 -0.3528658859 0)
(92.8681579 -0.2125823443 0)
(92.81443498 -0.07215169755 0)
(106.3666392 -0.06712467147 0)
(106.3618457 -0.1978964215 0)
(106.34329 -0.3284845531 0)
(106.3045279 -0.4482818809 0)
(106.2214225 -0.5444413482 0)
(106.1141598 -0.6482502546 0)
(105.9446424 -0.7410450188 0)
(105.7110983 -0.8179275076 0)
(105.3368158 -0.882760024 0)
(104.7985701 -0.9335295921 0)
(103.9605914 -0.9692395356 0)
(101.247692 -0.9770591034 0)
(99.54204388 -1.032090433 0)
(98.91572231 -0.9882647146 0)
(97.49269454 -0.9509503684 0)
(96.25221671 -0.9080485508 0)
(95.24762174 -0.8548184649 0)
(94.46246023 -0.7899424478 0)
(93.80453848 -0.6951579333 0)
(93.4092296 -0.599105373 0)
(93.04105132 -0.4522097655 0)
(92.86151777 -0.3316220806 0)
(92.74248844 -0.2000992177 0)
(92.68627937 -0.06791600026 0)
(106.493526 -0.0645902799 0)
(106.4861618 -0.1905573924 0)
(106.4629585 -0.3158382989 0)
(106.4168279 -0.4306182199 0)
(106.3250664 -0.5220493894 0)
(106.2066627 -0.6206740936 0)
(106.0241185 -0.7090016872 0)
(105.777492 -0.779860866 0)
(105.3890571 -0.8410293404 0)
(104.8391054 -0.8892006215 0)
(103.982565 -0.9232352511 0)
(101.2557325 -0.9309512725 0)
(99.51919533 -0.9815102812 0)
(98.87828039 -0.9379339726 0)
(97.45696697 -0.9009264199 0)
(96.20846559 -0.8597648614 0)
(95.19381795 -0.809222523 0)
(94.39700067 -0.7477679152 0)
(93.72432776 -0.659492652 0)
(93.31494648 -0.5687366058 0)
(92.92994916 -0.4303697299 0)
(92.742075 -0.3157763568 0)
(92.61811508 -0.1907900766 0)
(92.55907535 -0.06468815532 0)
(106.5916779 -0.06332367875 0)
(106.5827157 -0.1865932684 0)
(106.555953 -0.3085854965 0)
(106.5054447 -0.4231343095 0)
(106.422855 -0.5071043036 0)
(106.2949468 -0.6024784931 0)
(106.0997408 -0.6882334561 0)
(105.8405784 -0.7542621129 0)
(105.4389536 -0.8130254603 0)
(104.8780114 -0.8595880861 0)
(104.0038633 -0.8926511351 0)
(101.2625169 -0.9001709876 0)
(99.49731677 -0.9470707837 0)
(98.84043081 -0.904064165 0)
(97.42198836 -0.8669663752 0)
(96.16640708 -0.8267664898 0)
(95.14240521 -0.7779093492 0)
(94.33459025 -0.7186824216 0)
(93.64801462 -0.6350690076 0)
(93.22539946 -0.5480826989 0)
(92.84209538 -0.4194532389 0)
(92.64875425 -0.3061114729 0)
(92.52104149 -0.1853840516 0)
(92.46027233 -0.0629244941 0)
(106.7806869 -0.06201119441 0)
(106.7681429 -0.183650595 0)
(106.7343426 -0.303475602 0)
(106.6706378 -0.4133536454 0)
(106.514406 -0.500533245 0)
(106.3761823 -0.5939021818 0)
(106.1697254 -0.6790457022 0)
(105.9015364 -0.7407394257 0)
(105.48743 -0.798209569 0)
(104.9159854 -0.8439323134 0)
(104.0249024 -0.8766557767 0)
(101.2680605 -0.8841549216 0)
(99.4768945 -0.9282420512 0)
(98.80219923 -0.8859484777 0)