/*--------------------------------*- C++ -*----------------------------------*\
| =========                 |                                                 |
| \\      /  F ield         | OpenFOAM: The Open Source CFD Toolbox           |
|  \\    /   O peration     | Version:  v1912                                 |
|   \\  /    A nd           | Website:  www.openfoam.com                      |
|    \\/     M anipulation  |                                                 |
\*---------------------------------------------------------------------------*/
FoamFile
{
    version     2.0;
    format      ascii;
    class       surfaceVectorField;
    location    "1.74";
    object      Uf;
}
// * * * * * * * * * * * * * * * * * * * * * * * * * * * * * * * * * * * * * //

dimensions      [0 1 -1 0 0 0 0];


internalField   nonuniform List<vector> 
25162
(
(99.99913437 0.003429375788 -1.843794109e-21)
(99.99678838 0.002965896912 5.461200195e-21)
(99.99853979 0.008838482723 -1.822187132e-21)
(99.99493683 0.01065978728 1.839400385e-21)
(99.99735283 0.01850698848 -3.636069059e-21)
(99.99095179 0.02416320244 1.096481983e-20)
(99.99868233 0.0223331608 1.130982162e-21)
(99.98348277 0.04811176663 -7.24083612e-21)
(99.99272038 0.0499896419 -1.209293629e-21)
(99.99766783 0.04109876938 1.755338481e-21)
(99.99927259 0.02482313772 8.717771131e-22)
(99.991332 0.07099437894 1.746794976e-21)
(99.99800033 0.04071853276 8.561229135e-22)
(99.99852364 0.03144800323 -8.797814039e-22)
(99.99749509 0.05243447313 8.560879469e-22)
(99.9863174 0.1184984171 1.705541595e-21)
(99.99721521 0.06706692432 0)
(99.99701994 0.08339584461 -3.153712822e-21)
(99.98170558 0.1849441938 -3.153696408e-21)
(99.99656692 0.102965192 -8.199198955e-22)
(99.99602884 0.1258648468 2.749389625e-21)
(99.97543374 0.2763950053 3.011849319e-21)
(99.99549729 0.1521667785 3.718658054e-22)
(99.99502186 0.1816885092 -2.499924785e-21)
(99.96982266 0.3942300078 3.562860146e-22)
(99.99465263 0.2139848876 -2.581188929e-21)
(99.99446073 0.248233959 2.205978564e-22)
(99.9674741 0.5304941217 -1.731035375e-21)
(99.99454608 0.2830435829 2.273521859e-21)
(99.99498912 0.316601384 1.972633416e-21)
(99.97194895 0.6638996031 -8.767295398e-22)
(99.99581206 0.3466819815 0)
(99.99695733 0.3708911564 0)
(99.98467104 0.7603782452 2.057004019e-22)
(99.99827794 0.3873286252 0)
(99.99974671 0.3950079231 3.223928508e-22)
(100.0017494 0.7907579182 -4.490668335e-24)
(100.0012919 0.3931772831 8.579217174e-22)
(100.0026574 0.3820999993 -9.876342525e-23)
(100.017718 0.7477239244 -5.422359103e-22)
(100.0037459 0.3631503342 -9.499054939e-22)
(100.0045485 0.3381255861 9.001588765e-23)
(100.0272963 0.6484169783 1.665418671e-21)
(100.00503 0.3089528832 4.230257826e-22)
(100.0052021 0.2775532396 0)
(100.0297762 0.5236526167 0)
(100.0051323 0.2457201689 0)
(100.0050361 0.2147056615 7.447824045e-22)
(100.0270264 0.400681947 1.545230584e-21)
(100.0052254 0.1858161826 -3.775029415e-21)
(100.0051387 0.1575260681 -1.402579642e-21)
(100.0233695 0.289194357 3.070472712e-21)
(100.0044873 0.132550975 3.070243589e-21)
(100.0033705 0.1112772196 -8.760406665e-22)
(100.0142889 0.2020746999 -5.522743151e-23)
(100.0008386 0.09601378122 1.700895528e-21)
(100.009363 0.09519639197 -7.658969972e-21)
(100.052757 0.2330910202 5.409353537e-22)
(100.0184999 0.2068887234 -2.738715001e-21)
(100.0030345 0.09610658031 -1.610570337e-21)
(100.0067438 0.05579604888 -9.679327226e-22)
(100.0368484 0.1448243125 1.533290421e-20)
(100.0056875 0.02633906654 -7.780679152e-21)
(100.0276778 0.07805731727 -1.634967962e-20)
(100.0248221 0.02481525641 1.486618105e-21)
(99.99201697 0.009249141273 9.121027711e-21)
(99.98809691 0.00433293344 2.141401176e-22)
(99.986269 0.02416896764 1.45833656e-20)
(99.98095601 0.01638179207 -1.274700627e-20)
(99.97555232 0.05095321694 7.61619728e-21)
(99.9658895 0.03909152066 -1.980947929e-20)
(99.96952209 0.08718040739 -1.283679074e-21)
(99.94065247 0.0803343504 3.80997717e-20)
(99.94761279 0.1063532111 -8.40055914e-21)
(99.95427359 0.1126451018 -1.800316025e-21)
(99.96464936 0.1133094905 3.556242183e-21)
(99.97872382 0.08000672259 1.767120997e-21)
(99.96503033 0.1382347026 1.730620419e-21)
(99.95382867 0.1496522874 1.757914478e-21)
(99.92217715 0.1984084952 -3.548410045e-21)
(99.94174515 0.1954649189 -1.631699947e-23)
(99.9449625 0.2301163439 1.705809259e-21)
(99.92730452 0.252432864 -1.423640981e-23)
(99.88044244 0.3308603084 0)
(99.91962252 0.2999060049 0)
(99.89756123 0.342938996 -2.128419495e-21)
(99.92286726 0.3515500359 -4.191635328e-21)
(99.91353909 0.3689514293 -4.572885662e-23)
(99.8884163 0.4270790053 -9.428912403e-21)
(99.90586963 0.4057414841 -3.241231368e-21)
(99.88013836 0.5588293999 2.889387623e-23)
(99.89529374 0.5294005724 -2.144414221e-21)
(99.84712637 0.6468549357 -1.175170619e-20)
(99.87285027 0.610275926 -2.861309699e-21)
(99.84853684 0.8108397891 -5.423272851e-21)
(99.87007527 0.7617441941 -5.097193477e-21)
(99.8087539 0.9360095779 4.618180668e-22)
(99.8432327 0.8763314074 -6.511004478e-21)
(99.8298029 1.113923516 -6.92476122e-23)
(99.85842379 1.035917859 -4.317038369e-21)
(99.78838371 1.281028239 -1.050601785e-22)
(99.83047762 1.188722205 -3.25043882e-21)
(99.84242592 1.428253788 -3.922744682e-21)
(99.87554727 1.311733672 -5.436506516e-21)
(99.80846351 1.634079135 -3.049342976e-21)
(99.85349466 1.499840433 -3.048792617e-21)
(99.8999988 1.679331376 -4.140656726e-22)
(99.93204779 1.519932578 -2.563659517e-21)
(99.88544137 1.90430307 6.968850933e-23)
(99.92108755 1.729065484 -1.251481661e-21)
(99.9862602 1.785663582 3.789849063e-22)
(100.0092992 1.593851256 -3.517798767e-22)
(99.99230207 2.004036686 -1.718517911e-21)
(100.0083486 1.803646524 -5.440771981e-22)
(100.0732432 1.731344525 -2.108438367e-22)
(100.0665829 1.517940535 -2.102884919e-22)
(100.0946568 1.913878298 -8.88569684e-23)
(100.0914462 1.701115794 1.77388405e-21)
(100.1343981 1.531235846 2.167154678e-21)
(100.1016896 1.321684469 3.761766467e-21)
(100.1614224 1.66837608 3.772825122e-21)
(100.1423636 1.467191193 5.14306998e-22)
(100.1563889 1.2535234 -6.273955283e-21)
(100.1106354 1.068992207 -5.862612548e-21)
(100.1818045 1.347986746 -2.109960506e-21)
(100.1554268 1.177281902 -2.09057656e-21)
(100.1463789 0.9698103156 -5.068980848e-21)
(100.0969796 0.8199027908 4.677918812e-22)
(100.1631878 1.029417239 -1.368273857e-21)
(100.139862 0.8989273999 5.585144226e-21)
(100.0942814 0.5737131629 -1.312098201e-20)
(100.1493829 0.779416124 -1.311996254e-20)
(100.2116845 0.8479743461 1.328209375e-20)
(100.1310284 0.6537779045 -2.694890924e-20)
(100.1121786 0.5443736655 1.167126684e-20)
(100.156542 0.5839291295 -1.670394703e-20)
(100.0924474 0.4511041815 2.362810176e-20)
(100.0692732 0.3974321884 2.62674316e-20)
(100.0887313 0.2780958132 2.275885983e-20)
(100.2001808 0.4374512516 -2.261490018e-22)
(100.1516012 0.4856832737 4.744696464e-20)
(100.0892712 0.3843498258 2.594961182e-21)
(100.0651747 0.1636251322 -7.252104651e-22)
(100.144267 0.2706823757 3.271477575e-20)
(100.0530588 0.0756220258 -7.602012483e-21)
(100.1106476 0.1459005541 -1.734883679e-20)
(100.0961527 0.04622727769 7.779314983e-21)
(99.9791649 0.01042132433 -2.188590617e-20)
(99.97826435 0.002667150666 -1.09381509e-20)
(99.96329667 0.02936415249 -4.742588239e-20)
(99.96313615 0.01260939496 1.031493468e-20)
(99.93458862 0.06622254889 1.026817158e-20)
(99.93132448 0.03703916274 -4.015183235e-20)
(99.90204095 0.1259457468 2.42562917e-20)
(99.87961578 0.08427922354 4.368078575e-20)
(99.86921119 0.1371730726 -3.952038564e-20)
(99.91491069 0.1382785976 -7.224737359e-21)
(99.86950747 0.1535450071 -5.344698284e-20)
(99.880454 0.1745278758 -3.608667381e-21)
(99.86433191 0.2481460812 -7.083291166e-21)
(99.84910208 0.2356547417 -3.531663689e-21)
(99.79328271 0.2843550827 2.474452443e-20)
(99.81175088 0.3117603502 6.985297181e-21)
(99.79297738 0.4186981816 -6.14178806e-21)
(99.76769793 0.4059603164 4.510105449e-21)
(99.68439069 0.4889854018 -3.492028981e-20)
(99.73971088 0.5046110723 2.467801066e-21)
(99.69773827 0.5395820559 -1.522067045e-20)
(99.72216727 0.6406049772 -6.334185318e-21)
(99.70177299 0.635981854 0)
(99.65030811 0.7018289509 6.532007741e-21)
(99.67500839 0.7127975523 -6.320384402e-21)
(99.61847836 0.987668066 3.106474991e-21)
(99.5873776 0.9890004924 1.219245279e-20)
(99.51848278 1.0896548 6.047900989e-21)
(99.55727582 1.095918111 1.515938746e-20)
(99.51641546 1.454607163 -9.795080214e-20)
(99.47033002 1.469487113 -9.776326554e-20)
(99.38581127 1.618842309 -2.620200171e-19)
(99.44458073 1.610050687 -1.316661266e-20)
(99.45526308 2.039565539 -8.194353436e-21)
(99.39016151 2.084803864 -9.375855805e-21)
(99.30382886 2.297548128 -5.939253219e-19)
(99.38526632 2.25213749 -2.646829034e-19)
(99.50638419 2.657187213 -4.276178597e-19)
(99.42772097 2.754788994 -2.071728824e-19)
(99.36886496 3.019454347 3.429919898e-20)
(99.46394678 2.910644892 -2.296831606e-19)
(99.71535141 3.131936278 6.546464526e-20)
(99.63748181 3.301797502 -1.349665368e-19)
(99.65132351 3.572226273 -3.123354534e-19)
(99.7082465 3.38037041 -2.368224455e-19)
(99.99385035 3.303145869 1.176274142e-20)
(99.95675704 3.524842037 3.992642036e-20)
(100.0049588 3.769473988 0)
(100.043049 3.523603943 -6.22360463e-22)
(100.2694484 3.137622706 -8.859550575e-24)
(100.2769973 3.387324915 1.547779441e-22)
(100.3578539 3.564425159 -2.394234706e-22)
(100.342539 3.2997422 8.265602604e-20)
(100.4442659 2.710186485 2.637477683e-21)
(100.4897354 2.953474367 1.720168093e-21)
(100.5745565 3.063570171 -5.424377824e-20)
(100.5208745 2.814404686 5.636088731e-21)
(100.4955663 2.16399228 -5.840623418e-21)
(100.5628796 2.375069756 -1.352605348e-20)
(100.6374083 2.433097132 -4.741896996e-21)
(100.5611951 2.223426678 5.347534004e-21)
(100.5243827 1.789455109 -1.701119627e-20)
(100.4543744 1.622886669 -1.149099341e-20)
(100.5818434 1.812855583 -1.150648948e-20)
(100.5079299 1.653001508 6.174044447e-21)
(100.37482 1.106713618 -5.186110596e-20)
(100.4975862 1.349065858 -2.714827555e-20)
(100.5857464 1.344906166 -7.859414954e-20)
(100.4383903 1.124645989 -3.669366881e-20)
(100.2813828 0.7570397326 -6.002601569e-20)
(100.3799674 0.9296321609 2.370041847e-20)
(100.4385206 0.9109396206 -2.84814757e-20)
(100.3242137 0.7623578419 -2.492428235e-20)
(100.2485528 0.4260984567 1.033803224e-20)
(100.4269843 0.5867533292 -2.581093579e-20)
(100.3942454 0.7059021781 -1.814452219e-22)
(100.2942697 0.6296263926 -1.481339375e-20)
(100.1841096 0.2495732199 1.530871576e-20)
(100.3103594 0.359545457 2.730707306e-20)
(100.1490353 0.1149218074 -1.955122074e-21)
(100.2376869 0.1927237112 -3.95349541e-21)
(100.2045347 0.06067652202 0)
(99.96604337 0.004090052792 2.196925597e-20)
(99.97442126 -0.003138523099 -3.66305274e-21)
(99.93603203 0.01864448946 1.846405958e-20)
(99.949452 -0.004259867403 2.565376429e-20)
(99.88221436 0.05490134839 -7.344143092e-21)
(99.8972197 0.01152602292 -3.644326459e-21)
(99.81169945 0.1330040509 0)
(99.81077459 0.05241737756 5.591358825e-21)
(99.7752549 0.1234887199 1.703632827e-20)
(99.81932787 0.1581329493 -4.990080175e-20)
(99.76464702 0.1501358811 1.280858326e-20)
(99.76509878 0.1912393013 0)
(99.71168514 0.304064887 2.759818836e-22)
(99.70312002 0.2666240598 -2.838798484e-20)
(99.62208724 0.3049560881 -2.836888745e-20)
(99.62886336 0.3625528579 5.758190649e-20)
(99.55944714 0.5361777671 -8.568276141e-20)
(99.54116892 0.4830333276 3.04476429e-20)
(99.42077027 0.5538390177 -5.725405268e-20)
(99.46591311 0.6281758975 -2.848722896e-20)
(99.40941961 0.637949639 -4.682409041e-20)
(99.39021749 0.8432554977 6.782609534e-21)
(99.37036446 0.8100704807 1.349129741e-20)
(99.29047621 0.8739605851 3.405247069e-20)
(99.31148905 0.9167220864 6.727196302e-21)
(99.14904248 1.344831331 7.521320318e-20)
(99.11439849 1.305036544 1.083268902e-19)
(99.00313947 1.411191726 1.288277463e-19)
(99.04259499 1.462796405 2.911356946e-20)
(98.88237124 2.086585959 7.232873159e-19)
(98.81981545 2.04782794 -2.396924082e-20)
(98.677191 2.228404683 7.395532637e-19)
(98.75192187 2.278879688 2.174998945e-20)
(98.7113796 3.083913996 -9.50314778e-21)
(98.60607291 3.072949945 2.066216455e-20)
(98.45698888 3.352855593 -1.307989021e-18)
(98.58630486 3.366715182 2.323375726e-21)
(98.81497211 4.209724718 -4.352120361e-19)
(98.66805104 4.274249602 3.725641512e-21)
(98.57520657 4.649843893 -4.378139741e-21)
(98.75195267 4.561688015 3.682076028e-21)
(99.38988383 5.077341916 -2.828047457e-19)
(99.18905069 5.265520273 -3.759052972e-21)
(99.28624719 5.659427567 -2.14322292e-19)
(99.39040466 5.418803963 -1.373918082e-19)
(100.1137719 5.319835701 3.215664509e-22)
(100.039882 5.605517392 0)
(100.1896948 5.90159083 -1.334197298e-19)
(100.2491264 5.57053623 1.829248651e-19)
(100.7627886 4.918101861 1.163049395e-19)
(100.7799613 5.232990916 -1.440935706e-21)
(100.9620251 5.396651933 -2.107318546e-23)
(100.915848 5.06006927 -2.282854635e-19)
(101.11184 4.136628145 6.797912205e-19)
(101.1927154 4.43033912 2.480450923e-19)
(101.3520264 4.492917261 5.80099405e-19)
(101.2440908 4.195971426 1.174065983e-19)
(101.1819784 3.20974819 -5.139576433e-22)
(101.2946752 3.460371013 1.241106207e-19)
(101.4132069 3.45415833 -3.78787965e-20)
(101.2814455 3.213093825 1.598829546e-19)
(101.1852118 2.532566306 0)
(101.0695393 2.345141007 4.567373317e-20)
(101.2648027 2.503202368 0)
(101.1379778 2.325030518 0)
(100.8432571 1.554155482 2.893687213e-20)
(101.0503741 1.821062604 1.866019733e-20)
(101.1449298 1.725297904 -1.688988852e-20)
(100.9174993 1.499451553 3.6337394e-20)
(100.6287621 1.040014709 -3.334320114e-20)
(100.7916067 1.224409727 -1.489742166e-20)
(100.8484478 1.139518201 -1.504005549e-20)
(100.6758864 0.9902936152 -7.21478325e-21)
(100.4745352 0.5159808677 -9.116072634e-21)
(100.7111468 0.6537868872 -1.958522418e-20)
(100.7298685 0.8365704676 -2.581890108e-21)
(100.5972538 0.7995597625 5.045233746e-21)
(100.3517333 0.2995250344 7.871237449e-21)
(100.5144491 0.3952435856 1.198925841e-20)
(100.2829142 0.1367745559 -1.998019825e-21)
(100.3911856 0.2087669038 -3.534159517e-21)
(100.3335253 0.06508771387 -5.096051933e-22)
(99.96200772 -0.01176822814 0)
(99.98553639 -0.01364297464 0)
(99.91590779 -0.01227993263 3.689565994e-21)
(99.94999242 -0.03591449089 0)
(99.83297516 0.009760123492 9.295916875e-21)
(99.87653331 -0.04098281846 -3.212067069e-21)
(99.71601692 0.0837877794 1.629311158e-20)
(99.75371557 -0.02029292373 2.060730778e-20)
(99.68042767 0.05726607801 -6.202140049e-21)
(99.71239351 0.1284637376 2.205877945e-20)
(99.65308167 0.09255067867 1.794672958e-21)
(99.63751541 0.1471035955 -8.813753666e-21)
(99.52841617 0.2850089246 0)
(99.53672012 0.2255058991 -1.845308821e-20)
(99.43438001 0.2427966448 -1.512288399e-20)
(99.416218 0.3259910821 3.762479959e-21)
(99.27159452 0.5393057022 0)
(99.27353488 0.455246329 3.762077135e-21)
(99.11848463 0.4925573609 -3.870795975e-21)
(99.1322289 0.627277116 1.886436971e-20)
(99.07051063 0.6100023776 4.851875683e-21)
(98.96442658 0.8996397489 1.890798576e-19)
(98.95728601 0.836513217 -2.811343013e-20)
(98.84815045 0.8856140822 6.699449791e-22)
(98.85356103 0.96028054 -2.856761456e-20)
(98.49916236 1.542181013 2.081227811e-19)
(98.47864407 1.45194587 4.860050805e-20)
(98.31378844 1.553376887 2.579772656e-19)
(98.33445494 1.664307518 -9.607424165e-20)
(97.94035854 2.579135442 3.790816422e-19)
(97.87905375 2.466701923 0)
(97.64986025 2.662601529 -4.103560536e-19)
(97.72330563 2.802910241 8.064803826e-19)
(97.47009466 4.15498734 -1.464161779e-18)
(97.32188862 4.046568861 -7.458558336e-19)
(97.05149373 4.40405482 4.021323726e-20)
(97.24223826 4.535439687 7.038714727e-19)
(97.60720416 6.137115339 -5.6550439e-19)
(97.33506014 6.136579829 -5.312204372e-19)
(97.16335138 6.689151911 -5.684895231e-19)
(97.51499633 6.668750918 5.95810238e-20)
(98.90931882 7.74326517 2.878354336e-19)
(98.53509751 7.970598759 -2.872166725e-20)
(98.71258495 8.584170071 -4.349366966e-20)
(98.99963414 8.255410795 -1.198322606e-19)
(100.6178974 7.92341005 1.161405414e-19)
(100.4923786 8.360685785 2.242306708e-19)
(100.8541551 8.716620894 1.089715821e-19)
(100.9325157 8.199509749 -1.38840509e-19)
(101.8437789 6.915081551 -4.826341507e-19)
(101.9165411 7.347102496 4.807421243e-19)
(102.2604584 7.438609533 6.023485908e-19)
(102.1287565 6.993465964 6.951607984e-19)
(102.3181302 5.501459054 -4.188552848e-21)
(102.4845816 5.852376203 -5.736814384e-20)
(102.7415433 5.809293693 -1.345105223e-18)
(102.5268001 5.470360663 -2.201671394e-20)
(102.2775859 4.114574729 -1.95438986e-19)
(102.4707079 4.385016727 -2.962508411e-20)
(102.6232067 4.293183427 -2.509668655e-19)
(102.4057353 4.041765388 1.147240905e-19)
(102.1291772 3.086039249 -7.464847489e-20)
(101.9487779 2.886182342 -3.841489624e-21)
(102.213823 2.980914438 1.830585055e-20)
(102.0211034 2.803470924 2.243804063e-20)
(101.4857853 1.848353308 -9.449668595e-20)
(101.7871092 2.1115766 -5.991504432e-20)
(101.8589099 1.912380198 -3.355630154e-20)
(101.5480821 1.714258079 -1.733996549e-20)
(101.0923511 1.203680791 1.164242175e-20)
(101.3251094 1.378337231 3.504130914e-20)
(101.3554095 1.227725361 -3.955432231e-21)
(101.1263099 1.098169299 -3.846163284e-21)
(100.7377659 0.5324680336 2.045674556e-21)
(101.0256443 0.614348708 0)
(101.1243891 0.8656929769 -1.243632885e-22)
(100.975176 0.8668605882 -1.051167873e-20)
(100.5418833 0.3018094222 4.504025483e-22)
(100.7319794 0.364604662 2.045490131e-21)
(100.4312292 0.1356975887 -2.052410552e-21)
(100.547871 0.186798433 -2.054621188e-21)
(100.4615155 0.05732684781 -2.069247752e-21)
(99.97750134 -0.03766318554 0)
(100.0210827 -0.02880468183 1.806301508e-21)
(99.91546802 -0.06461640975 -7.398767766e-21)
(99.97549155 -0.08210072207 -1.819296039e-21)
(99.80345481 -0.07057396512 7.623958923e-21)
(99.88230015 -0.120342058 -3.689577045e-21)
(99.63335676 -0.01565502808 1.001633903e-20)
(99.72478314 -0.1351111877 2.663671738e-21)
(99.60829257 -0.06337149736 9.038842601e-24)
(99.60974644 0.04082052227 -7.448572307e-21)
(99.559833 -0.02509407592 -7.495875267e-21)
(99.51975082 0.03744617648 0)
(99.34481305 0.1773520247 -1.512251067e-20)
(99.379234 0.1021458436 0)
(99.26394855 0.08878815565 -8.270800964e-23)
(99.20933543 0.1886138522 -5.422401385e-23)
(98.96595344 0.412929745 7.77166986e-21)
(99.004834 0.3030705208 1.168039291e-20)
(98.82491812 0.2998783456 1.570874142e-20)
(98.78952528 0.4751597986 -2.221574427e-20)
(98.73148476 0.4323418092 -2.282892782e-20)
(98.49582837 0.7736164579 -8.735727053e-20)
(98.51724741 0.685854494 -1.29857381e-19)
(98.37951713 0.7108781323 -2.331583699e-19)
(98.35022716 0.8134229482 -6.600172094e-21)
(97.7230298 1.469935498 -6.646752057e-19)
(97.73894582 1.333848857 -6.008918456e-19)
(97.52444419 1.399436911 -7.206569026e-19)
(97.49916154 1.562126217 -3.404862242e-19)
(96.65551548 2.718679389 5.579891875e-19)
(96.63514202 2.50259161 3.420257877e-19)
(96.28664283 2.66074713 9.021659217e-19)
(96.30787489 2.92595667 2.290815524e-19)
(95.46624058 4.94203633 0)
(95.31087475 4.640928886 0)
(94.81977941 4.994105236 0)
(95.02610375 5.383856359 0)
(95.19380415 8.434512745 2.587155519e-19)
(94.69704802 8.181855588 -3.534356963e-20)
(94.21650182 8.97580373 2.347791343e-19)
(94.91002236 9.269657468 2.328837143e-19)
(97.84483555 11.85454841 9.788965022e-20)
(97.08365219 12.19839829 -5.883118349e-20)
(97.36473098 13.32618327 -1.23313511e-20)
(98.26408075 12.74339899 -2.030444745e-20)
(102.0558866 11.61030374 1.468434439e-19)
(101.8537397 12.43588727 4.399805615e-20)
(102.6983837 12.80523789 0)
(102.745479 11.84190318 -3.564796645e-20)
(104.0555981 9.002371752 -8.944309221e-19)
(104.2942994 9.629106449 -2.984831678e-20)
(104.8820926 9.499238776 -8.94369229e-19)
(104.5229966 8.894151877 -8.825624277e-19)
(104.3096424 6.558841341 -1.67234912e-20)
(104.6396486 6.944132751 9.682174983e-21)
(104.9414434 6.722950425 0)
(104.5617088 6.379348366 -2.949227576e-21)
(103.8378725 4.646635696 -5.300061705e-19)
(104.1479661 4.901743176 8.006551755e-20)
(104.2976823 4.684644323 -3.294530311e-19)
(103.9686497 4.46955925 7.643632262e-20)
(103.3726481 3.31863934 -2.816180151e-19)
(103.1046533 3.135267562 1.603277894e-19)
(103.4341425 3.130107958 1.345795579e-19)
(103.1620945 2.975402674 1.208947074e-19)
(102.2550206 1.906886563 2.740136119e-20)
(102.6518813 2.122645846 -2.650177634e-22)
(102.6596291 1.821825191 1.682078356e-20)
(102.2724899 1.691558532 1.251693048e-20)
(101.6250779 1.204252617 -1.649622986e-20)
(101.926497 1.337080965 -8.432491118e-21)
(101.8991565 1.12733769 -8.434124794e-21)
(101.6193091 1.045709937 1.290898403e-20)
(101.0043176 0.4528812408 0)
(101.3304932 0.4582750746 1.37305359e-21)
(101.5193086 0.7398297301 -1.138392537e-20)
(101.3771811 0.8123556812 2.817589552e-20)
(100.7245608 0.2474834115 -5.187983376e-22)
(100.9256592 0.2578796921 -1.621607491e-21)
(100.5675569 0.1081213619 -2.08144055e-21)
(100.6792921 0.1229643338 -2.363197355e-21)
(100.5634885 0.03645748907 2.646583058e-21)
(100.0225388 -0.07278228271 -1.241928292e-23)
(100.0897499 -0.04800032086 5.469040427e-23)
(99.94656075 -0.1367436178 1.88710594e-21)
(100.035878 -0.1407728819 -6.589561109e-23)
(99.80919879 -0.1838512205 -9.894144956e-21)
(99.92686267 -0.2227140051 1.481860931e-21)
(99.5884694 -0.168646291 -8.961900164e-21)
(99.74188481 -0.2865019326 -1.504788111e-20)
(99.58164398 -0.2347324748 -1.279067119e-20)
(99.53815948 -0.1068225834 -7.055287638e-21)
(99.51020023 -0.2006463636 -2.783333971e-21)
(99.44100354 -0.1388378834 3.411583765e-23)
(99.19650684 -0.02189665757 1.136802434e-20)
(99.26397602 -0.1035018666 1.153833066e-20)
(99.14650566 -0.1530174986 5.699926365e-21)
(99.04988315 -0.05034267267 1.960068256e-20)
(98.70217038 0.153021298 -1.973788043e-20)
(98.78958007 0.0262461625 -1.579793044e-20)
(98.60298691 -0.02575921341 -2.383807025e-20)
(98.49495815 0.1661822519 -1.605193124e-20)
(98.45270309 0.09970086296 6.530963611e-20)
(98.05797781 0.4443039864 1.17529779e-19)
(98.11943282 0.3419607895 8.495666671e-20)
(97.96509108 0.3305937319 -5.77525253e-20)
(97.89030969 0.4461867719 1.193602652e-19)
(96.95968655 1.039538485 4.716291515e-19)
(97.04351543 0.8708392733 2.359222473e-19)
(96.79358224 0.8707010931 2.381965966e-19)
(96.68114403 1.067527857 2.431632266e-19)
(95.19445879 2.19638507 0)
(95.29193901 1.903492692 -6.442114482e-20)
(94.86404922 1.930546593 0)
(94.72144206 2.287487181 0)
(92.64419923 4.463357159 -3.37866321e-22)
(92.66734434 3.924204272 -2.0561463e-20)
(91.93299301 4.000112129 4.684426937e-20)
(91.86678468 4.708862563 3.375569467e-20)
(89.74444031 9.657868591 3.474204787e-19)
(89.22134608 8.537877862 0)
(87.51073934 9.512888804 0)
(87.80248186 8.869925621 0)
(88.8092371 10.85379069 0)
(87.96593158 10.82328764 0)
(92.4722929 20.03501834 0)
(93.70128657 19.85086748 -2.940679981e-20)
(92.69334822 21.66696299 0)
(94.25966762 21.14279358 0)
(106.0344545 18.74260656 0)
(106.2696862 17.22455815 0)
(107.7849363 16.98200805 3.135537028e-19)
(106.7362227 19.59265268 1.494133804e-19)
(108.6329829 18.5551966 0)
(108.2319999 19.22702529 0)
(108.8068826 11.44768941 1.07210528e-19)
(108.1185332 10.62702546 4.621225529e-19)
(109.4694682 10.76921469 3.070230643e-21)
(108.6452053 10.12473701 5.473433847e-20)
(107.153983 6.81638271 -4.232946084e-19)
(107.734114 7.154927104 -4.377151559e-19)
(107.9811362 6.664883613 -4.093043371e-19)
(107.3724743 6.417797872 -4.212041239e-19)
(105.8085739 4.49562262 -3.987336312e-19)
(106.2538728 4.666121641 -3.946009221e-19)
(106.323913 4.308153831 -3.960261413e-19)
(105.8804747 4.193744573 -1.484415852e-20)
(104.7849672 3.000463147 7.048774556e-20)
(104.4339341 2.895989951 1.237294268e-20)
(104.7703904 2.738672789 2.50484334e-19)
(104.4291994 2.66049282 1.354546268e-19)
(103.0599225 1.649275487 4.457682519e-21)
(103.5565909 1.760372264 9.932044401e-21)
(103.436116 1.384576975 -2.632696599e-21)
(102.9925927 1.360936389 -4.696947345e-21)
(102.1596436 0.9902792226 4.672901092e-21)
(102.5098242 1.047273596 -2.056587902e-23)
(102.4039298 0.7964689743 -7.523039068e-21)
(102.090391 0.7881645529 9.469470182e-21)
(101.2294369 0.2705169512 -1.777029994e-22)
(101.5531788 0.1864185314 -3.091436842e-22)
(101.8692247 0.4525483492 8.42992183e-22)
(101.7478676 0.5609666359 6.871126881e-21)
(100.8662116 0.1332803474 -3.475657055e-21)
(101.0549935 0.07602436993 -2.478729106e-22)
(100.6644723 0.05230304153 2.582334997e-21)
(100.7556172 0.01916733836 -2.356598847e-21)
(100.6128093 0.003042116216 4.503920016e-22)
(100.1057169 -0.1152858858 1.307532688e-23)
(100.1985029 -0.07010247763 -2.67723581e-21)
(100.0194193 -0.2246886021 -4.864862823e-22)
(100.1390969 -0.2084112686 1.164983803e-21)
(99.86365806 -0.3235375419 -3.840507984e-21)
(100.020161 -0.3413604422 -2.529808831e-21)
(99.60121763 -0.3631764494 7.880702134e-21)
(99.81787939 -0.4633699135 -8.690073593e-22)
(99.61897326 -0.4448638719 8.203446127e-22)
(99.52037251 -0.3070858 3.841807232e-21)
(99.52637866 -0.4206339525 7.986362898e-21)
(99.42660658 -0.3694570033 5.629125186e-21)
(99.11836299 -0.3006670501 -1.920951525e-21)
(99.22232098 -0.3762892388 2.964170245e-21)
(99.11461682 -0.4616558051 1.959119885e-21)
(98.97483963 -0.3721912426 5.933243731e-21)
(98.53390067 -0.2310002327 -2.019159985e-21)
(98.67387808 -0.3532770119 7.189740617e-24)
(98.49938951 -0.4561536097 -2.016591083e-21)
(98.31639169 -0.2717629791 4.43041795e-20)
(98.29965679 -0.3602318524 -1.044999525e-21)
(97.75693586 -0.08008986218 -7.504123739e-20)
(97.86278375 -0.1787839498 -1.863559797e-20)
(97.71547027 -0.2342325043 -1.510023071e-20)
(97.59523751 -0.1291308975 -3.003759804e-20)
(96.40904501 0.2392039937 6.11261679e-20)
(96.57401832 0.07715104866 3.010280926e-20)
(96.33124872 -0.001550757461 1.268167304e-19)
(96.12484757 0.174578394 6.381995905e-20)
(94.11819412 0.8493739324 0)
(94.37694763 0.5683872566 -4.530338825e-22)
(93.97997007 0.4308761879 -8.692495372e-20)
(93.64296874 0.7326907459 -2.078227297e-20)
(90.44798112 1.804716553 3.968495037e-20)
(90.85871389 1.287892565 5.694804824e-20)
(90.28405675 0.9464553677 1.530844059e-19)
(89.68293164 1.466587089 1.009740328e-19)
(83.63512064 2.956688865 8.567370484e-25)
(84.24217462 2.308059919 -6.78951511e-20)
(83.64732516 1.676195745 -6.752893655e-20)
(82.77751449 2.311726419 -6.791308234e-20)
(121.0688548 23.20657576 4.017157253e-19)
(119.471904 22.07314894 0)
(121.8623952 21.46194865 -5.147379594e-20)
(120.2680259 20.7025749 0)
(115.6550678 10.27649207 1.582313136e-19)
(114.1942799 9.790917053 1.555943838e-19)
(115.7480228 8.865779129 4.594596785e-21)
(114.3594009 8.695982411 8.027751266e-20)
(110.463817 5.506220783 -1.486326168e-20)
(111.2876349 5.596919883 6.935624636e-20)
(111.2378447 4.874447267 3.45500295e-20)
(110.4619832 4.903497167 1.872914857e-19)
(107.815028 3.362955458 1.192871075e-19)
(108.3646296 3.36689605 1.24460022e-19)
(108.2660528 2.914216488 4.878045932e-19)
(107.7564461 2.974428378 -7.603337309e-21)
(106.1059039 2.011235288 -1.405687864e-19)
(105.7015544 2.02071452 -2.377740804e-19)
(105.9764668 1.703166459 7.317568396e-21)
(105.6022687 1.742200245 -9.716071373e-20)
(103.7647525 1.031140074 -5.139384838e-21)
(104.3220697 0.9936696659 -2.384962417e-20)
(104.0275205 0.5995979736 8.281371132e-21)
(103.5766438 0.7145083837 1.219269637e-21)
(102.6013417 0.5495739971 -2.025489779e-21)
(102.9661915 0.5045434532 1.433075052e-20)
(102.7559694 0.2563842478 5.270828023e-21)
(102.4541891 0.3403828844 1.04374733e-20)
(101.363223 -0.004060518873 -3.355391421e-22)
(101.6536474 -0.1823796163 -1.101549632e-21)
(102.0863678 0.01839472016 -1.121173632e-21)
(102.0226748 0.1869506164 -1.308174429e-21)
(100.9323747 -0.03608860705 1.11515894e-21)
(101.0850989 -0.1658742135 1.374112521e-21)
(100.6944675 -0.028599771 -4.440354136e-21)
(100.7485012 -0.1162716661 1.705529844e-21)
(100.5858155 -0.04058514882 -2.200686783e-21)
(100.2333247 -0.1623898279 -1.525293451e-21)
(100.3516863 -0.09361766846 8.449129932e-22)
(100.1415436 -0.3224155612 -8.872168246e-22)
(100.2900708 -0.2803909703 -6.293300083e-22)
(99.97644737 -0.4792114769 4.533586316e-22)
(100.1680998 -0.4677000991 -2.239824722e-22)
(99.68620164 -0.5851087405 5.082451165e-22)
(99.96055894 -0.652427395 7.641764952e-22)
(99.73167789 -0.6757209851 4.516067176e-22)
(99.57498119 -0.5428129124 1.326316649e-21)
(99.6214635 -0.6670577199 -1.204801661e-23)
(99.49410983 -0.6343056665 -1.204973021e-23)
(99.13755671 -0.6322653763 -1.954594906e-21)
(99.27553639 -0.6910194247 0)
(99.18818761 -0.8084129983 -9.590725923e-22)
(99.0111277 -0.7445799655 -1.011932832e-21)
(98.50283555 -0.6948416703 -3.171339462e-23)
(98.69070416 -0.7936958414 -1.041615122e-21)
(98.54527455 -0.9402442242 -2.094987798e-21)
(98.29686118 -0.7890719097 2.031450002e-20)
(98.31046607 -0.8886472813 4.755302903e-21)
(97.67336236 -0.7279621804 -6.09946299e-23)
(97.81174687 -0.8036944761 1.644633128e-19)
(97.68841055 -0.8974906343 4.51654993e-24)
(97.53504709 -0.8213340811 9.040971375e-20)
(96.23742475 -0.7639896908 3.140604571e-20)
(96.4608374 -0.8813605395 1.247606517e-19)
(96.2552229 -1.019941083 1.257313006e-19)
(95.99178798 -0.9041381865 9.455062425e-20)
(93.87912877 -0.8408230242 -4.963514223e-20)
(94.23087159 -1.016352376 -2.364958907e-21)
(93.93622896 -1.240777526 2.376262374e-21)
(93.52731236 -1.085924386 -4.873599448e-21)
(90.58546851 -1.315103348 -4.621730527e-20)
(91.11803561 -1.517019696 4.846293017e-20)
(90.83346404 -1.903476786 1.060505669e-19)
(90.25056504 -1.780411029 1.557460308e-20)
(86.9899252 -3.340605653 5.852393835e-20)
(87.42615645 -3.274161229 1.141680598e-19)
(87.43974962 -3.600693612 0)
(87.07041747 -3.747455662 -1.438456974e-19)
(135.0102308 8.751989471 -6.213180013e-19)
(133.3254513 9.49634586 -2.731534413e-19)
(133.9196843 7.338120874 -8.487075958e-19)
(132.5120076 8.129430982 -2.680613519e-19)
(120.8764728 3.9848724 -1.186861158e-20)
(119.2845634 4.492264684 3.833007809e-19)
(119.9175611 2.702436032 3.776195145e-19)
(118.6410283 3.337223669 2.8512414e-19)
(113.0023949 2.312825722 1.050586562e-20)
(113.8307609 1.991422828 -1.033776881e-20)
(113.347983 1.304332413 -3.836132007e-20)
(112.6434209 1.681916039 1.943061218e-19)
(109.2722643 1.224143737 -8.074319106e-20)
(109.7993056 1.000845578 1.350509824e-19)
(109.4721796 0.5774197448 9.098689343e-20)