/*--------------------------------*- C++ -*----------------------------------*\
| =========                 |                                                 |
| \\      /  F ield         | OpenFOAM: The Open Source CFD Toolbox           |
|  \\    /   O peration     | Version:  v1912                                 |
|   \\  /    A nd           | Website:  www.openfoam.com                      |
|    \\/     M anipulation  |                                                 |
\*---------------------------------------------------------------------------*/
FoamFile
{
    version     2.0;
    format      ascii;
    class       surfaceScalarField;
    location    "2.74";
    object      phi;
}
// * * * * * * * * * * * * * * * * * * * * * * * * * * * * * * * * * * * * * //

dimensions      [0 3 -1 0 0 0 0];
oriented        oriented;


internalField   nonuniform List<scalar> 
25162
(
0.0004760635844
0.9161739364
0.0006282728452
0.9165477907
0.0007900796805
0.9164881932
0.0003896865385
0.916482813
0.0005675801468
0.4583365948
0.000403091701
0.4582850399
0.0005144509776
-0.0004994908979
-0.0006451074731
0.4582514945
0.0007436129255
-0.0008407540837
0.458194293
0.0009814610373
-0.001133708153
0.4581674881
0.001296220064
-0.001475043373
0.4581503348
0.00165970858
-0.001837359365
0.4581694285
0.002002930831
-0.002152535306
0.4582262677
0.002257767564
-0.00232037004
0.4583210725
0.002332797498
-0.002291259186
0.4584214635
0.002204795726
-0.002080893091
0.4584851108
0.001925782273
-0.001762318301
0.4585052042
0.001592114103
-0.001413204583
0.4584958078
0.001252396769
-0.001098151677
0.4584888382
0.0009243134365
-0.0008519557243
0.4584544809
0.0007474747868
-0.0006105077461
0.4584620325
0.0004984752118
-0.001789317469
0.9186252651
0.0002572369255
-0.0004431845481
-0.001121811771
0.9186824943
-2.38878357e-05
0.9157520761
0.9137761122
0.001311819753
0.9148621167
0.002150115621
0.9157094949
0.002603413217
0.9160348956
0.0009439288948
0.9167034607
0.001438836656
0.4579395055
0.001134537981
-0.4581301146
-0.4580870609
-0.001395743625
0.457763259
0.00171954545
-0.4579032339
-0.00211479781
0.4574338823
0.001210703876
0.001373445592
-0.2288754745
-0.001452395925
0.2287551114
0.001572759004
-0.002067665212
-0.2288052234
0.228649902
0.002222986681
-0.002814622666
-0.2287664215
0.2285778617
0.00300318247
-0.003618853402
-0.22880139
0.2286116879
0.003808555466
-0.004299220435
-0.2289270225
0.2287781971
0.004448135688
-0.004616819334
-0.2291298319
0.2290521115
0.004694388482
-0.004632290448
-0.2293116776
0.229365671
0.004578297018
-0.004176760729
-0.2294247023
0.229576714
0.004024749024
-0.003484660145
-0.2294685568
0.2296692759
0.003283940994
-0.002722297324
-0.2294511523
0.2296493416
0.002524108017
-0.002035513285
-0.2293989213
0.2295657156
0.001868719004
-0.458870923
-0.002763806929
0.4602928117
0.001341918233
-5.041510952e-05
0.4609122088
-0.001618312337
-0.4592434813
-0.001930105359
0.9180520386
0.0006690892043
0.001834242672
-0.001195370363
0.9179477593
0.0002527750973
0.9143039306
0.9140288873
0.001683046962
0.9131790697
0.004432247035
0.9129602948
0.007522576767
0.9129445658
0.003322687397
0.9140764542
0.006826895864
-0.4577871577
0.4574802513
0.003629593759
-0.4574228007
-0.003777884401
0.4578739318
0.003326753284
-0.4567913919
-0.00364383475
0.4562852049
0.002004814981
0.002145206827
-0.2281693809
-0.002457387084
0.2279130828
0.002713685239
-0.2278867698
-0.003615230421
0.2275449639
0.003957036346
-0.2277022965
-0.0050427618
0.2275584198
0.005196666989
-0.22831451
-0.005840908117
0.2280489305
0.006151589274
-0.2285864003
-0.007185347573
0.228306402
0.007497923543
-0.2288246032
-0.008182996323
0.2287243361
0.008277140983
-0.2292475466
-0.008153670728
0.2293849425
0.0079759798
-0.2299028034
-0.007268231774
0.2301112614
0.007018683532
-0.23053833
-0.006434724023
0.2308880624
0.006083071857
-0.2304791955
-0.004956355027
0.2308459772
0.004589573334
-0.003304995913
-0.2303081087
0.2309878473
0.002625257238
-0.4629036741
0.0004887264528
0.4617109849
0.0007039627965
-0.4599814445
-0.0008745701495
0.4599370285
0.0009189861215
-0.0003073945744
0.9196410857
-0.0007697694509
-0.0005118830999
0.001305174441
0.9163351903
0.0005978518803
0.9150112532
0.9146267391
0.0006990957996
0.9124799739
0.001543561941
0.9121158287
0.003093042529
0.9113950852
0.003769035468
0.9106426243
0.002757836878
-0.4565553602
0.4559466484
0.00437774725
-0.4591888344
-0.005799831194
0.4558871594
0.009101506137
-0.4574231891
-0.01066209408
0.4586191461
0.003046491902
0.006419645097
-0.2269651183
-0.003240065849
0.2266412563
0.003563927824
-0.2263122605
-0.004866064997
0.225782472
0.005420852263
-0.2261210815
-0.007885345556
0.2252021611
0.008915112509
-0.2260866358
-0.01233530904
0.2250252323
0.01351206921
-0.2266341201
-0.01679234915
0.2257806677
0.01770617318
-0.2282514796
-0.0195352912
0.2280129275
0.01975741289
-0.230410715
-0.01911936279
0.2309584756
0.0184836258
-0.2319751972
-0.0156138069
0.2330193631
0.01444343483
-0.2324479256
-0.01079962155
0.2335004695
0.009649177158
-0.2345211891
-0.002140549131
0.2385436279
-0.001886208784
-0.003345226173
-0.2318717927
0.2318899301
0.003327088786
-0.4616679129
-0.004896404161
0.4628298261
0.003734490993
-0.4606214546
-0.002576021049
0.4615556041
0.001641871568
0.002343545458
0.9194080511
-0.001136353029
-0.000974157789
0.001659877536
0.9170188582
0.000753018624
0.9159181121
0.9153797578
0.0002828606407
0.9121971133
0.0006729994964
0.9117256898
0.001337110226
0.9107309745
0.001904116397
0.9090551736
0.001020444572
-0.4554905547
0.4545284431
0.002866228023
-0.4541836549
-0.003517675179
0.4532683221
0.004433008008
-0.4521185582
-0.005651924361
0.450911943
0.003566854613
0.003291684954
-0.2268699051
-0.005682889694
0.224818442
0.007736046067
-0.2237402342
-0.01293697314
0.2246255768
0.01218655045
-0.2212375066
-0.01363363992
0.2196495521
0.01541646151
-0.2207347881
-0.0211338077
0.2189902723
0.02303074935
-0.2222718499
-0.02836646366
0.2207733864
0.02992930972
-0.2269172429
-0.0333081353
0.2263794677
0.03382637102
-0.2331224774
-0.03308420943
0.234170783
0.03193115469
-0.2373888165
-0.02589739118
0.239388604
0.02371488388
-0.2453524462
-0.009845520416
0.2434204293
0.01158227626
-0.2357219599
-0.009711512489
0.2371779055
0.00814752644
-0.004859770449
-0.2332624852
0.2337946459
0.004327609766
-0.4644250371
-0.005550611626
0.4659327696
0.004042879163
-0.4624179666
-0.002990693687
0.4632943053
0.002114354974
0.002938647259
0.9210033018
-0.002604590814
-0.001929307198
0.00153665373
0.9184208518
0.0006770641841
0.9167777016
0.916056822
-7.693473808e-05
0.912274048
-3.332077055e-06
0.9116520871
0.0004155494262
0.910312093
0.0006689487566
0.9082202234
0.0005815508401
-0.453479256
0.4529782637
0.001169941012
-0.4524733074
-0.002351071894
0.4514350003
0.003389379017
-0.4496448037
-0.004289268748
0.448184876
0.002877457576
0.00287173883
-0.2218057123
-0.004123316155
0.2207064044
0.005293503384
-0.2165072151
-0.01022690008
0.2147352861
0.0122181893
-0.2159394005
-0.02086671675
0.2123596724
0.0246850717
-0.2149786134
-0.03200131126
0.2146153362
0.03250118059
-0.2155804957
-0.03786395346
0.2148013858
0.03867427201
-0.2239593811
-0.04448704043
0.2229159113
0.04552665359
-0.2393670274
-0.04200882057
0.2401995822
0.0411167305
-0.2520417203
-0.02924102244
0.2505375162
0.03056160501
-0.2466971096
-0.02511038258
0.2493523406
0.02220606154
-0.2429647421
-0.01388242708
0.2452805411
0.01136622035
-0.004800424849
-0.2363599264
0.237397461
0.003735928183
-0.4672105019
-0.005482245202
0.4684667119
0.004226035183
-0.4637665364
-0.003314565231
0.464177926
0.002903175609
0.00214359112
0.9228981422
-0.001901558365
-0.002136873154
0.001076923083
0.9194875198
0.0003962778295
0.9174583469
0.9164530998
-0.0006169533714
0.9128910014
-0.001062053771
0.9120971875
-0.001273832504
0.9105238718
5.159304694e-05
0.907717733
-0.0008229351031
-0.452723842
0.4522830564
0.0004923786387
-0.4501454139
-0.000883996289
0.4495742832
0.001455126957
-0.4474296408
-0.002677446714
0.4466688207
0.001686877139
0.001752315243
-0.2171560729
-0.003635606025
0.2159176116
0.005007081188
-0.209074721
-0.01035655324
0.2079883901
0.01171812505
-0.2060156743
-0.01780890882
0.2043877107
0.0196746742
-0.2057385509
-0.02594772291
0.2029679125
0.02879868451
-0.2060995237
-0.04550491323
0.1044048286
0.09855895083
0.02214724785
0.02649340976
-0.03254973629
-0.1088077317
0.1082416054
0.03311586268
-0.02628633825
-0.2513755796
0.04964147411
-0.0266766732
0.1269454544
0.1277516625
-0.04022117064
-0.2559079279
0.2593571783
0.03665110818
-0.2582326914
-0.02548218434
0.2605914207
0.02286154864
-0.2520700557
-0.01556642856
0.2544920288
0.01288820125
-0.006201734504
-0.241576399
0.2431248826
0.004554866432
-0.4696858247
-0.00425606108
0.4703431157
0.003598770097
-0.4650214844
-0.002588065209
0.4658346998
0.001774849804
0.000689420958
0.9240898399
-0.0008011521854
-0.001079966484
0.0001191200561
0.9200578207
-4.690830387e-05
0.9176243753
0.9164061915
-0.001211493397
0.9141024948
-0.002343734811
0.913229429
-0.003234896922
0.9114150339
-0.001621100312
0.9084568621
-0.002352925711
-0.4522112823
0.4521631265
-0.00157294454
-0.4492669316
0.00157433065
0.4490963
-0.001403699085
-0.4449843971
0.001152790533
0.4442677338
-0.0001976228292
-0.0002235506406
-0.2126535594
-0.001463037804
0.2118251586
0.002456847701
-0.2033482201
-0.006363790142
0.2022815247
0.00772032748
-0.2004538065
-0.01208998731
0.199312561
0.01346123558
-0.1987682303
-0.01661038786
0.1981906916
0.01721515392
-0.08979219104
-0.01106551601
0.08954875505
0.01130895199
-0.03311979534
-0.1410047952
0.1439497392
0.03017485132
-0.03625329603
-0.2699894282
0.2734956022
0.03268305553
-0.2689593459
-0.02327290271
0.2715832437
0.02039581494
-0.2616560733
-0.01250748432
0.2637213091
0.01015681269
-0.005476643145
-0.2474025429
0.2488185955
0.003916390525
-0.4713553358
-0.001902434467
0.4721398938
0.001117876474
-0.4664486705
-0.0006051852228
0.4669249536
0.0001289021809
-0.001503094534
0.9243733182
0.0008948158794
0.0003248004379
-0.001223201304
0.9197779275
-0.0006617260608
0.9170629
0.9157444654
-0.001818763009
0.9159212578
-0.00355983283
0.9149704988
-0.005366839617
0.9132220407
-0.003135913153
0.9101043771
-0.003878441506
-0.4524230596
0.4526743566
-0.003387210203
-0.4491808352
0.003692508759
0.4494788712
-0.003990544771
-0.4439272953
0.004296067765
0.4439223137
-0.001952982659
-0.002305597232
-0.2096639817
0.00107363715
0.2090106487
-0.0002326961727
-0.1991512626
-0.003039214604
0.1982858915
0.004210520086
-0.1973716193
-0.007143784056
0.1970135689
0.007730727073
-0.1990747932
-0.007605160205
0.1998877907
0.006804453549
-0.09332054563
-0.001322674241
0.09400970265
0.0006335172181
-0.01470498595
-0.1570937824
0.157602277
0.01419649132
-0.02036040515
-0.2808423064
0.2819848676
0.01918107763
-0.2775350918
-0.01491852105
0.2788932277
0.01331066638
-0.2687880844
-0.008137085632
0.2700899373
0.006530419362
-0.002232426229
-0.2520162635
0.2529375933
0.001145505172
-0.4731498973
0.001256698784
0.473927218
-0.002034019523
-0.4670784432
0.002296184454
0.4670888281
-0.002306569267
-0.004096978959
0.9233100362
0.00283249353
0.002327767384
-0.002831652971
0.9185126015
-0.001451781171
0.9156830282
0.9142926842
-0.002389557461
0.9183108153
-0.004903331392
0.9174842727
-0.007388665534
0.9157073748
-0.004654093555
0.9127714585
-0.005401653301
-0.4532384691
0.453801865
-0.005217489434
-0.4499414953
0.005882207701
0.4507085629
-0.006649275343
-0.4441713952
0.007442804888
0.4446494222
-0.003709539386
-0.004161156859
-0.2073773345
0.00305517217
0.206873526
-0.002347396416
-0.1961353747
-0.0003591155426
0.1955431606
0.001271565528
-0.1965558403
-0.003214946027
0.1965995843
0.003403169879
-0.2029116175
-0.001977735328
0.2040163727
0.0008801283442
-0.09762231328
0.001446283772
0.09802111589
-0.0009023617388
-0.0009427246395
0.003756519418
-0.1546673165
0.1536155816
-0.002704784576
-0.001981338601
-0.2821765589
0.2812339701
0.002883871048
-0.2813781248
-0.003249494013
0.2815891824
0.002782795494
-0.272910847
-0.0005403653776
0.2734301481
-0.0002892497365
0.002255754448
-0.2542191983
0.2544233026
-0.002627260587
-0.4737239086
0.005583826806
0.4730557499
-0.004915668028
-0.4667394311
0.004609564587
0.4668989171
-0.004769050553
-0.006903878661
0.9208662395
0.004992974088
0.004354701297
-0.004540173389
0.9161488962
-0.002289117133
0.913431972
0.9120035671
-0.003027319784
0.9213381351
-0.006073398376
0.9205303513
-0.009324372177
0.9189583486
-0.006093321982
0.9163453829
-0.006804974604
-0.4546509528
0.4555000739
-0.006942443116
-0.4516179295
0.007977318662
0.4526519036
-0.009011292745
-0.4454788717
0.01021958893
0.4464940518
-0.005443271235
-0.005715688567
-0.205524519
0.004662533176
0.2051108026
-0.004026142246
-0.1940402419
0.001647323866
0.1936139855
-0.0008857173633
-0.1970934947
-0.0004616139886
0.1973611413
0.0004277700345
-0.2073665907
0.001605294141
0.2084838746
-0.002719806561
-0.1003907076
0.002965690292
0.1006719573
-0.001607838891
-0.001639101137
0.01357151569
-0.1445453912
0.1431292619
-0.0121553863
0.01165692839
-0.276998619
0.2754399424
-0.01016831087
-0.2814650392
0.008852336905
0.2796010522
-0.00725474383
-0.2739027608
0.007001310602
0.2735432473
-0.006953412762
0.006575578901
-0.2532823166
0.2528162022
-0.006260004805
-0.4720444991
0.009648656355
0.470735079
-0.008339236292
-0.4669237244
0.007159822605
0.4658400955
-0.006076193639
-0.009472319868
0.9172596316
0.006761290984
0.006317636741
-0.00617802168
0.912854598
-0.00304523204
0.9102991823
0.9089583351
-0.003591040262
0.9249291753
-0.007240964381
0.9241802755
-0.01109752746
0.9228149117
-0.007354739525
0.9203671024
-0.007764507418
-0.4565722796
0.4576328826
-0.008415342496
-0.4539367399
0.009660588526
0.4553040709
-0.01102791947
-0.4473546525
0.0125480903
0.448798128
-0.006533769349
-0.007350527142
-0.2039115789
0.005667400792
0.2035000434
-0.005012760702
-0.1925107791
0.002720551924
0.1921946995
-0.002054206713
-0.1984440485
0.001145638628
0.1989109766
-0.001378929384
-0.2118911607
0.004100744892
0.2130641012
-0.005273422429
-0.1025386031
0.004320036279
0.1028147487
-0.002278118593
-0.002318063246
0.01683312915
-0.1335885767
0.1322252332
-0.01546978565
0.01906233484
-0.2704665448
0.2691558592
-0.01787078989
-0.2774570463
0.01355526641
0.2788974199
-0.01528909775
-0.271628774
0.01525648453
0.270739755
-0.01466722095
0.01026826171
-0.2494704617
0.2480578859
-0.008973535758
-0.4691769327
0.01299712486
0.4673802553
-0.01120044746
-0.4646935541
0.009614060129
0.4633077404
-0.008228246427
-0.01174897613
0.9143512036
0.007546398294
0.00711100589
-0.007597081921
0.9087027038
-0.003701260272
0.9064033607
0.9052570748
-0.007764154918
0.9326933303
-0.0157431839
0.9321593045
-0.02390049063
0.9309722185
-0.008593813753
0.9290964699
-0.02403604436
-0.4589473457
0.4602389797
-0.009885447672
-0.4567312862
0.01132863299
0.458360381
-0.01295772775
-0.4484684084
0.01463372018
0.4475105675
-0.006523725615
-0.006968455196
-0.2025979062
0.004561230885
0.2016352798
-0.003330194953
-0.1913453792
0.002338764021
0.191478684
-0.002109146964
-0.2006125099
0.002731636442
0.2002350634
-0.002119837669
-0.2167312772
0.00553825378
0.2180072601
-0.003406876586
-0.003407360023
-0.05262927521
0.002796624437
0.05272236794
-0.002889717171
-0.05813319679
0.006316016087
0.05763032029
-0.01226587893
0.006452739346
0.01499965532
-0.1241612578
0.2445908263
-0.02587423031
0.01455426004
-0.1241092536
-0.2653681816
0.02244937008
0.2655711016
-0.02282831804
-0.2763039275
0.02023532148
0.2750284896
-0.01928491033
-0.2674195126
0.01642181971
0.2660106894
-0.01529998281
0.01130637756
-0.2421174439
0.2404937366
-0.009748381288
-0.4652648424
0.01522644531
0.4631499459
-0.01311154875
-0.4618665191
0.01145836099
0.4603275642
-0.009919406107
-0.01354590984
0.9102044406
0.00908091064
0.008611762258
-0.008745431799
0.9039022258
-0.00430806907
0.901965998
0.9009490058
-0.004256862305
0.9369501926
-0.008650011233
0.9365524534
-0.01332288106
0.9356450883
-0.009122912423
0.9342185569
-0.009322055617
-0.4635796378
0.4649471804
-0.01049045499
-0.461775656
0.01202087143
0.4634345638
-0.0136797792
-0.4480327077
0.01549645188
0.451527992
-0.009062976538
-0.009716382746
-0.1999809263
0.009585924093
0.2002210943
-0.009544062645
-0.1905212881
0.00849298763
0.1903607149
-0.007965020781
-0.2037996719
0.006434868824
0.2036419689
-0.006057513103
-0.2223300844
0.005941658001
0.223612104
-0.003614583959
-0.003609093545
-0.05499210727
0.005978956181
0.1104243733
-0.05496373904
-0.003218681973
-0.003228801149
-0.1116352497
0.008201797736
0.1114884903
-0.01600312782
0.007948089541
0.02479338176
-0.2375398858
0.2365874178
-0.02384884102
-0.2633222627
0.02096037123
0.2631164784
-0.02098866728
-0.2713575651
0.02023176324
0.2742571731
-0.02346406517
-0.261468749
0.02106015989
0.2574945654
-0.0173219974
0.01121482759
-0.233819541
0.232389329
-0.009794257251
-0.4612806864
0.01609657638
0.4595993459
-0.0144152359
-0.4587767138
0.0127735004
0.4569805381
-0.0109773246
-0.01304594377
0.9052316848
0.008947577736
0.009071121844
-0.009468419645
0.9003247017
-0.004641511693
0.89713909
0.8963074941
-0.004428600748
0.9413787933
-0.008988220732
0.9411120734
-0.01381256242
0.94046943
-0.009464342847
0.9394535039
-0.009583166627
-0.4663993383
0.4678382011
-0.01090320567
-0.4651022786
0.01246249853
0.4667649401
-0.01412516006
-0.4569823688
0.01591591319
0.4630889909
-0.01098383522
-0.01096165397
-0.2032415357
0.0149550113
0.2051031367
-0.01657878185
-0.1908597318
0.01960692992
0.1915279752
-0.01992730416
-0.2014874963
0.018689897
0.2005834328
-0.01753193756
-0.2231921929
0.01186943363
0.2207161328
-0.009340129221
-0.1136423324
0.009759398767
0.2273710314
-0.009912046018
-0.1135760518
-0.2252799708
0.0160343204
0.2258448119
-0.01659916154
-0.2402624748
0.0221542732
0.2426230532
-0.02460838095
-0.2645540379
0.02847496257
0.2645155192
-0.02872279733
-0.270521495
0.02695184894
0.2688838636
-0.0256567964
-0.250225
0.02019862004
0.2500450856
-0.02019651879
0.01193916956
-0.2310576571
0.2287144606
-0.009595973105
-0.4581012877
0.01778422322
0.4549369887
-0.01461992422
-0.4551632138
0.01309384864
0.4530979654
-0.01102860019
-0.01343930849
0.9003510982
0.009238215507
0.009081679605
-0.009529426425
0.8964148196
-0.004849983551
0.8924596472
0.8914575105
-0.004479552821
0.9458583462
-0.009075494115
0.9457080147
-0.01390190525
0.9452958411
-0.009535612353
0.9446392133
-0.009552002266
-0.4692653133
0.4706961034
-0.01096640239
-0.4684007586
0.01248864645
0.4700017322
-0.01408962012
-0.4675596697
0.01579104855
0.4694386574
-0.008895931405
-0.008773939386
-0.2134790781
0.01612174192
0.2172012566
-0.01970005573
-0.1959292371
0.02864062609
0.1983690005
-0.03079481227
-0.1991993336
0.03420357011
0.1995622398
-0.03429994965
-0.2147051884
0.03199779954
0.2135218841
-0.03067047648
-0.2229555346
0.02693651574
0.2203817512
-0.02432940808
-0.2324879969
0.02948896246
0.234351031
-0.03139796595
-0.2488165473
0.03720593273
0.250074539
-0.0386310986
-0.2634435547
0.03978347346
0.2623839341
-0.03900573813
-0.2619836133
0.03335786227
0.2588941834
-0.03053997276
-0.2406200101
0.02030046247
0.2367818283
-0.01655878474
0.01138736378
-0.2267560793
0.2261466638
-0.01077794826
-0.4541563428
0.01810076428
0.4514297193
-0.01537414084
-0.4502168413
0.01194435308
0.4486018919
-0.01032940358
-0.01262044706
0.8940181658
0.009738646738
0.00921473273
-0.007122150245
0.8909165228
-0.004900204424
0.8902377014
0.8865573061
-0.004424865964
0.9502832121
-0.008947627163
0.9502307759
-0.01365953721
0.9500077512
-0.009377713709
0.9496450925
-0.009287702661
-0.4720705274
0.4734382208
-0.01074540713
-0.4715501148
0.01218274079
0.473042019
-0.01367464495
-0.4711686584
0.01523735447
0.4728069997
-0.00849047589
-0.008385219862
-0.2307518881
0.009436959956
0.2349416043
-0.01360768676
-0.2089167984
0.02829938486
0.2134441997
-0.03265496278
-0.2040577314
0.04306651743
0.206738653
-0.04553542665
-0.2131920301
0.05013259997
0.2141823398
-0.05097222782
-0.2127526939
0.04924531028
0.2111089433
-0.0475555412
-0.2372522718
0.05245796133
0.2374083476
-0.05267949408
-0.2504718907
0.05207954628
0.2493950352
-0.05117206936
-0.2561651436
0.04557363578
0.253044726
-0.04267126136
-0.2471475799
0.03124025403
0.2424921505
-0.02673582867
-0.2255210082
0.01288242437
0.2247658249
-0.01212807664
0.01056886905
-0.2245004241
0.22399486
-0.01006330491
-0.4477136019
0.01713512394
0.4459563593
-0.01537788131
-0.4470022274
0.01370058718
0.4453790693
-0.01207742913
-0.01177677446
0.886819266
0.01037308868
0.008602585614
-0.006709946386
0.8858496948
-0.00452642973
0.8880541847
0.8820308764
-0.004286021854
0.954569234
-0.008649559814
0.9545943139
-0.01315634817
0.9545145395
-0.009028119707
0.9543735695
-0.008856705499
-0.4747337652
0.4760083647
-0.01030271926
-0.4744651915
0.01162708512
0.4758210788
-0.01298297241
-0.474346957
0.01438122023
0.4757868713
-0.007978254371
-0.007842880149
-0.2369894814
0.008732308407
0.2373722832
-0.009115110152
-0.2291962012
0.01283968385
0.2348287043
-0.01844143681
-0.2178732993
0.03381530651
0.2223648368
-0.03820261387
-0.2198173114
0.04865433868
0.222300993
-0.05104369949
-0.2113456625
0.05174403711
0.2128726577
-0.05324202518
-0.2359512183
0.05543521027
0.234971492
-0.05450773369
-0.2431342034
0.04902741211
0.240258249
-0.04626120362
-0.241098983
0.03523933603
0.2365249253
-0.03076654313
-0.2271718871
0.01576670104
0.2239021308
-0.01250801352
-0.2233602043
0.01127941643
0.2229502519
-0.01086946401
0.009636709584
-0.2226457135
0.2222343857
-0.009225381863
-0.4443195691
0.01589655614
0.4428010801
-0.01437806716
-0.4438732082
0.01289750005
0.4424145261
-0.01143881799
-0.01455950098
0.8815732259
0.009784377875
0.01002116314
-0.009570112439
0.8808603062
-0.001935009177
0.8804190815
0.8800958672
-0.004083485547
0.9586527196
-0.008223779113
0.9587346075
-0.01246215868
0.9587529191
-0.008538688952
0.9587636198
-0.008313520046
-0.4772051531
0.4783728134
-0.009706349303
-0.4771020505
0.01090569443
0.4783130461
-0.01211669004
-0.4771295671
0.01334652965
0.4783766109
-0.007370066087
-0.007223507367
-0.2384205677
0.008011781075
0.2387394655
-0.008330678805
-0.2379050112
0.009282576353
0.2382178596
-0.009595424777
-0.2365522836
0.01050618151
0.2372917547
-0.01124411982
-0.230565203
0.02112041188
0.2334571885
-0.02399276821
-0.218669925
0.02878901018
0.2204100278
-0.03052158296
-0.2312482375
0.0304661298
0.2299207947
-0.02915614954
-0.2304944544
0.02212135471
0.2272130699
-0.01885962813
-0.2243284094
0.01212032873
0.2241181121
-0.0119100314
-0.2229172937
0.0111643956
0.2226373954
-0.01088449734
-0.221867401
0.009978750202
0.2215495704
-0.009660919558
0.008681296097
-0.2211381634
0.2208016334
-0.008344766114
-0.4413957267
0.0145263079
0.4400984681
-0.01322904926
-0.4410745114
0.01193959228
0.4397832514
-0.01064833223
-0.01366373933
0.8767743841
0.009087817156
0.009374764012
-0.009022499989
0.8762190669
-0.004481265016
0.8758778465
0.8756146022
-0.003837032694
0.9624897523
-0.007711875649
0.9626094504
-0.01164447472
0.9626855182
-0.007960544938
0.9627859636
-0.007706273562
-0.4794611414
0.4805181864
-0.009017589965
-0.4794496482
0.01009068295
0.4805189407
-0.01115997541
-0.479530927
0.01222992559
0.4805980222
-0.006713725784
-0.006583295054
-0.2396107713
0.007265390311
0.2398758057
-0.007530424747
-0.2390557078
0.008304738936
0.2393049977
-0.008554028852
-0.2380653095
0.009267972789
0.238290422
-0.009493085253
-0.2354795306
0.01002276779
0.2355304117
-0.01007364882
-0.2230685033
0.01041091982
0.2234387305
-0.01078114703
-0.2283310302
0.01097214308
0.2283399804
-0.01098109334
-0.2257683914
0.01086488615
0.2256860882
-0.01078258303
-0.2235765545
0.0104209564
0.223420903
-0.0102653049
-0.221906897
0.009707370122
0.2216944763
-0.009494949399
-0.2207043044
0.008795278411
0.2204542198
-0.008545193847
0.007758724126
-0.2199079043
0.2196303927
-0.007481212528
-0.4389012295
0.01313948381
0.4377969674
-0.01203522172
-0.4386039409
0.01091940652
0.4374696322
-0.009785097796
-0.01265397557
0.8724355416
0.00834379252
0.008649025559
-0.008391561613
0.8719566529
-0.004178129106
0.871664414
0.8714364731
-0.003564765455
0.9660545177
-0.007151152393
0.9661958374
-0.01076179473
0.9662961605
-0.007336949416
0.9664340964
-0.007072978083
-0.4814963225
0.4824466495
-0.00828727641
-0.4815185606
0.009240180029
0.4824565581
-0.01017817755
-0.4815835974
0.0111047679
0.4824933846
-0.006061906066
-0.005952649048
-0.2405997819
0.00653673624
0.2408203398
-0.006757294136
-0.2399756016
0.007390458708
0.2401761868
-0.007591043863
-0.2388838608
0.008157224546
0.2390581373
-0.008331501044
-0.2356536996
0.008717268495
0.2356874015
-0.008750970333
-0.2243624816
0.009093719907
0.2246203142
-0.009351552425
-0.2283528644
0.00944737035
0.2283528274
-0.009447333343
-0.225468912
0.009350170834
0.2254047251
-0.009285983916
-0.2230128546
0.009007938683
0.2228934899
-0.008888573952
-0.2211330023
0.008458266333
0.220967675
-0.008292939027
-0.2197839695
0.007741424117
0.2195841004
-0.007541554997
0.006903070957
-0.2188972725
0.2186672817
-0.006673080059
-0.436777537
0.01180781813
0.4358356069
-0.01086588802
-0.4364376371
0.009901779035
0.4354446898
-0.008908831756
-0.0116021292
0.8685421281
0.007595156902
0.00790038575
-0.007722801254
0.868077325
-0.003853470148
0.8677950829
0.867583003
-0.00328101878
0.9693355365
-0.006570494598
0.9694853132
-0.009858345166
0.9695840111
-0.006701943663
0.9697191903
-0.006441495407
-0.4833187031
0.4841673914
-0.007550631936
-0.4833313642
0.008392365729
0.4841511067
-0.009212108192
-0.4833324189
0.01001317094
0.4841071009
-0.00544056793
-0.00534728498
-0.2414236272
0.005848052858
0.2416077576
-0.006032183305
-0.2407188914
0.006553612421
0.2408821347
-0.006716855727
-0.2395226274
0.007172784342
0.2396603926
-0.007310549539
-0.2357752267
0.007601148677
0.235801623
-0.007627545034
-0.2252739686
0.007962862437
0.2254574389
-0.008146332675
-0.2283425651
0.008185556703
0.2283362934
-0.008179285035
-0.2252316003
0.00809347409
0.2251794548
-0.008041328564
-0.2225757024
0.007820073032
0.2224813866
-0.007725757291
-0.2205257907
0.007385282827
0.2203943012
-0.007253793359
-0.2190445036
0.006811213458
0.2188824601
-0.00664917
0.0061254063
-0.2180623038
0.2178711824
-0.005934284857
-0.4349642251
0.01056303836
0.4341581832
-0.009756996497
-0.434543337
0.008923289425
0.433675087
-0.008055039466
-0.01055702212
0.8650653006
0.006870868027
0.00716298159
-0.007049806431
0.8645701093
-0.003524393186
0.8642696697
0.8640586098
-0.002998044572
0.9723335811
-0.005994264224
0.9724815329
-0.008969829821
0.9725595767
-0.006081472844
0.9726625335
-0.005831700138
-0.4849412125
0.485696083
-0.006836343441
-0.4849150006
0.007578030508
0.4856305072
-0.008293537162
-0.4848240036
0.008986554627
0.485487411
-0.004868360379
-0.004781601659
-0.2421122029
0.005214232487
0.2422665409
-0.005368570539
-0.2413263858
0.005801380795
0.2414607774
-0.005935772454
-0.2400307674
0.006308334933
0.2401414874
-0.006419054977
-0.2358771443
0.006644234237
0.2359019086
-0.006668998594
-0.2259233213
0.006995013006
0.2260540489
-0.007125740647
-0.2283108745
0.007129178147
0.228300573
-0.007118876678
-0.2250367156
0.007041421397
0.224993176
-0.00699788187
-0.2222270706
0.006817117145
0.222150702
-0.006740748505
-0.2200394043
0.006465419598
0.2199328171
-0.006358832329
-0.2184418785
0.005997821254
0.2183086695
-0.005864612247
0.005429982425
-0.2173671009
0.2172067178
-0.005269599307
-0.4334115248
0.009424378488
0.4327196565
-0.008732510205
-0.4328877135
0.008009915398
0.4321280113
-0.007250213279
-0.009554943181
0.8619689505
0.00618916766
0.006462125594
-0.006398206028
0.8614133722
-0.00320404514
0.8610755088
0.8608545646
-0.002724151421
0.9750577325
-0.005438748247
0.9751961297
-0.008119405154
0.9752402336
-0.005490676431
0.9752905897
-0.005256784963
-0.4863807668
0.4870504146
-0.006160324237
-0.4862969931
0.006812975135
0.4869213105
-0.007437292519
-0.4861017468
0.008036861168
0.4866709597
-0.004343609663
-0.00426246436
-0.2426905513
0.004638735107
0.2428207323
-0.004768916111
-0.2418285222
0.005131253676
0.2419404232
-0.005243154612
-0.2404412393
0.005551645997
0.240531497
-0.005641903708
-0.2359772457
0.005821432219
0.23600303
-0.005847216571
-0.2263855382
0.006164028827
0.2264783631
-0.00625685371
-0.2282654054
0.006236343965
0.2282524893
-0.006223427876
-0.2248728293
0.006152742216
0.2248357933
-0.006115706212
-0.221942753
0.005965107221
0.2218797216
-0.005902075832
-0.2196427941
0.005675435174
0.2195549911
-0.00558763217
-0.2179442692
0.005288957173
0.2178334098
-0.005178097816
0.004813620421
-0.2167827592
0.2166469846
-0.004677845797
-0.4320774032
0.008397096121
0.4314809421
-0.007800635081
-0.4314393696
0.007172436731
0.4307736089
-0.0065066761
-0.008616884971
0.8592147864
0.005560599625
0.005810449489
-0.005783513347
0.8585800005
-0.002900512036
0.8581925075
0.8579540526
-0.002465436528
0.9775231691
-0.004915744864
0.977646438
-0.007323422754
0.9776479115
-0.004939802855
0.9776325315
-0.004725561704
-0.4876553244
0.4882485667
-0.00553304521
-0.4875029472
0.006107179891
0.4880480954
-0.006652328034
-0.4871987936
0.007171896876
0.4876885598
-0.003867325959
-0.003794337064
-0.2431792684
0.004120136059
0.2432897136
-0.004230581197
-0.2422481684
0.004536356192
0.2423423204
-0.004630508201
-0.2407773718
0.004888821826
0.2408518961
-0.004963346181
-0.2360832489
0.005110379708
0.236111069
-0.005138199759
-0.2267128396
0.005446539693
0.2267781741
-0.005511874247
-0.2282109157
0.005474815053
0.2281962526
-0.005460151974
-0.2247327341
0.005395142081
0.2247008102
-0.005363218171
-0.2217068265
0.005235934177
0.2216540405
-0.005183148262
-0.219314535
0.004993968764
0.2192412609
-0.004920694671
-0.2175286243
0.004670696841
0.2174354125
-0.004577484968
0.004269092129
-0.2162874048
0.2161716062
-0.004153293595
-0.4309259305
0.007480396393
0.4304092478
-0.00696371364
-0.4301700496
0.006415655058
0.4295852567
-0.005830862131
-0.007755779349
0.85676459
0.004990799515
0.005215176195
-0.005215762267
0.8560399835
-0.002619153456
0.8555958987
0.8553348992
-0.002225417283
0.9797485863
-0.00443187033
0.9798528911
-0.006590510844
0.979806552
-0.004434819964
0.9797177666