/*--------------------------------*- C++ -*----------------------------------*\
| =========                 |                                                 |
| \\      /  F ield         | OpenFOAM: The Open Source CFD Toolbox           |
|  \\    /   O peration     | Version:  v1912                                 |
|   \\  /    A nd           | Website:  www.openfoam.com                      |
|    \\/     M anipulation  |                                                 |
\*---------------------------------------------------------------------------*/
FoamFile
{
    version     2.0;
    format      ascii;
    class       volScalarField;
    location    "1.13";
    object      k;
}
// * * * * * * * * * * * * * * * * * * * * * * * * * * * * * * * * * * * * * //

dimensions      [0 2 -2 0 0 0 0];


internalField   nonuniform List<scalar> 
12556
(
36.90869625
36.90874904
36.9088141
36.90888863
36.9543935
36.95484609
36.9556978
36.95776632
36.96201782
36.96979425
36.9816772
36.99559241
37.00529304
37.00676424
37.00336819
36.99026593
36.97813121
36.96783953
36.96139602
36.95743597
36.91091572
36.90948664
36.90879711
36.90842126
36.72743858
36.72762487
36.72783121
36.72827278
36.77386678
36.77631041
36.78166628
36.81218669
36.83229952
36.86881061
36.92570034
36.99544583
37.03052775
37.03923899
37.02693909
36.98366934
36.92083782
36.86882424
36.8139223
36.79162318
36.7361778
36.73105575
36.72872761
36.72764045
36.54735651
36.5478471
36.54844402
36.54947404
36.59612195
36.60262907
36.6159332
36.65999155
36.7100382
36.79827188
36.92710509
37.0435868
37.10219206
37.11829487
37.09182999
37.01999661
36.90920455
36.79447533
36.68991668
36.63991288
36.56902007
36.5579906
36.55271002
36.55062826
36.36862937
36.36912339
36.3701188
36.37281625
36.42130322
36.43535899
36.46473333
36.53562972
36.64179154
36.82065941
37.02532839
37.19987725
37.2890005
37.29631086
37.23767652
37.12339329
36.96312639
36.79096882
36.61089398
36.5138953
36.41358582
36.39202125
36.38166608
36.37767017
36.19192014
36.19267585
36.19467682
36.19985217
36.25247373
36.27838226
36.33560685
36.44930993
36.65542074
36.9376587
37.25821868
37.52843621
37.69365634
37.67373553
37.53761478
37.33322783
37.09725346
36.84969452
36.60195658
36.42329769
36.2744739
36.23323934
36.21452514
36.2073238
36.0169863
36.01807642
36.02153431
36.03116561
36.09115538
36.13594903
36.23623561
36.42115681
36.73280994
37.16308082
37.69445927
38.23743969
38.58758154
38.47830769
38.10415005
37.71220495
37.33774898
36.98170819
36.63447347
36.37538077
36.15217489
36.08069035
36.04973581
36.03761707
35.84500906
35.84704252
35.85334656
35.86882003
35.93917669
36.01004582
36.17123317
36.43941126
36.87207997
37.51439532
38.43221922
39.82573585
40.58430229
40.42906545
39.12517211
38.32265262
37.70698671
37.18967607
36.70875074
36.37201233
36.04703698
35.93494463
35.88633762
35.8673646
35.67696116
35.6801801
35.69000458
35.7145337
35.80008435
35.90433177
36.14079791
36.48288366
37.05474117
37.95337586
39.45671212
42.57969378
43.4750325
40.77936564
39.1826687
38.20683051
37.47006226
36.82313011
36.38900497
35.95978447
35.7969688
35.72525371
35.69750343
35.51540073
35.52077844
35.5363249
35.57403255
35.67313453
35.82087317
36.13807945
36.55138207
37.26570009
38.41405861
40.43172127
45.17506925
48.60146187
42.81083405
40.2143998
38.7924268
37.80071606
36.96372465
36.4213047
35.89025196
35.66970952
35.5702105
35.53195711
35.3616686
35.36938066
35.39107813
35.44333779
35.56087167
35.75878332
36.15099887
36.63644374
37.48105009
38.83249692
41.16450059
46.41186181
52.05958266
44.66201942
41.2577637
39.40422524
38.14452625
37.11600739
36.4640293
35.8375487
35.55724042
35.4270806
35.37680406
35.21849168
35.22965813
35.25988761
35.33073234
35.4649329
35.71555916
36.17967651
36.73423447
37.69615396
39.20881406
41.75663372
46.92736216
53.72680771
46.05299282
42.18131113
39.97180667
38.47422476
37.26339362
36.51224866
35.7994221
35.46289321
35.30142597
35.23825451
35.08562858
35.09996782
35.13815036
35.22701351
35.38372212
35.68781591
36.21738021
36.83997061
37.90500548
39.55488388
42.30007954
46.66691644
54.43040804
46.99864924
42.90964518
40.4421465
38.75298995
37.39303816
36.55964941
35.77654837
35.38709268
35.19622324
35.12004341
34.96433288
34.98290609
35.03242763
35.14224104
35.3143817
35.67236823
36.25716455
36.9470168
38.10356007
39.87757356
42.86785127
46.10827907
43.3115393
54.24132477
47.59077768
43.41842465
40.79340109
38.96504543
37.49590502
36.59952692
35.76062135
35.32822408
35.11038723
35.02231158
34.85239715
34.87500612
34.93497901
35.06284306
35.26599528
35.67767373
36.33080211
37.07601542
38.32425434
40.23919407
43.49045667
44.52670125
54.0244666
54.20091653
47.88704384
43.73396378
41.01298857
39.10310519
37.57108504
36.62843937
35.74340408
35.28051187
35.0397001
34.94131927
34.7487879
34.77537232
34.84526037
34.9906304
35.21609954
35.67181463
36.37176102
37.17167152
38.47884769
40.48798209
43.87231459
40.66468193
54.96021061
53.56658255
47.84950736
43.83132104
41.10962017
39.17443375
37.61205543
36.64351692
35.72278852
35.23729171
34.97799355
34.87143781
34.65003381
34.68047937
34.75950511
34.92182533
35.16925377
35.66158667
36.40365901
37.26178593
38.62696154
40.71070012
43.97056731
36.75108615
52.87611475
52.46984838
47.4989428
43.74800076
41.08497862
39.18096266
37.61827748
36.64052776
35.68974409
35.18992766
34.91849579
34.80567599
34.55501246
34.58904135
34.67600832
34.85365803
35.12129554
35.64313813
36.42032067
37.33046812
38.77476671
40.92609673
43.75198016
31.31949919
51.0838016
51.21688427
46.86742282
43.47901379
40.99264494
39.14662985
37.59852712
36.61331509
35.64348137
35.13690642
34.8561087
34.73857559
34.45972515
34.49705434
34.59104894
34.78282971
35.06908718
35.6141002
36.41677198
37.36480149
38.87628288
41.0702744
43.2237109
25.18767353
49.82917157
49.9272668
46.13113045
43.09762577
40.80736755
39.05104641
37.52968125
36.55077693
35.57631309
35.0689268
34.78561036
34.6650224
34.36472336
34.40497121
34.50483063
34.7085977
35.01057794
35.57324668
36.39604079
37.36875982
38.90959784
41.09208449
42.39427997
22.53621651
48.73008127
48.74117009
45.44814559
42.70190744
40.56705095
38.89856743
37.42179123
36.45991918
35.49161337
34.98830768
34.705066
34.58335528
34.26591928
34.30878524
34.41391302
34.62869009
34.94483741
35.52076338
36.35694827
37.34773119
38.90195255
40.99334431
41.37828516
21.07807158
47.50056149
47.73914976
44.84151676
42.30838571
40.30260299
38.71232822
37.28600446
36.34595279
35.39005195
34.8938095
34.61262857
34.49073599
34.1663355
34.21144548
34.32092009
34.54448728
34.87161923
35.45744978
36.30277652
37.30639286
38.86341753
40.81884033
40.26410959
20.26836167
46.33693402
46.83358719
44.28210948
41.92929684
40.03042578
38.50774846
37.13049959
36.21400027
35.27517001
34.78845016
34.51073917
34.38936146
34.06099891
34.1081502
34.22185062
34.45395659
34.79137101
35.3846043
36.23626563
37.24918781
38.79921449
40.57810656
39.08101571
20.02650124
45.26570071
46.00828141
43.76259745
41.56880751
39.75926592
38.29441503
36.96171416
36.06860055
35.14793752
34.67124333
34.39752961
34.2770827
33.9559952
34.00488766
34.1221005
34.36056974
34.70483182
35.30377695
36.15997352
37.17971979
38.71293611
40.26774179
37.85514058
20.17094613
44.27592809
45.25109711
43.27730718
41.22668897
39.49365871
38.0780518
36.78461997
35.91353626
35.01303301
34.54740443
34.27813428
34.15888461
33.84389979
33.89448292
34.01551656
34.26114107
34.61310403
35.21655999
36.07623417
37.10086047
38.60610748
39.90312694
36.6134859
20.661147
43.35572794
44.55200385
42.82186698
40.90107066
39.23554069
37.86209791
36.60284926
35.75190979
34.86964227
34.41397263
34.14888684
34.03091164
33.7349192
33.78695561
33.91111442
34.16146252
34.51706877
35.12440383
35.98705499
37.01466679
38.47826239
39.50791397
35.38159004
21.35993233
42.49739006
43.90292131
42.39270644
40.59011869
38.98540942
37.64856264
36.41893879
35.58605079
34.72363328
34.278719
34.01794978
33.90129964
33.61692132
33.67050762
33.79844378
34.0554616
34.41780445
35.02853014
35.89398146
36.92216718
38.32898836
39.08783909
34.17134816
22.13257075
41.69673097
43.2976404
41.98673828
40.29227813
38.74306101
37.43849213
36.23458472
35.41778128
34.57088163
34.1344941
33.87742169
33.76201557
33.50644512
33.56135303
33.69221761
33.95268813
34.31590252
34.9299599
35.79811161
36.82354146
38.15921271
38.64653175
32.96201994
22.9076883
40.95068671
42.7311571
41.60130698
40.00623549
38.50807634
37.232393
36.05093095
35.24832819
34.42026053
33.99385232
33.74063847
33.62644469
33.38327901
33.43973682
33.57448721
33.84173194
34.21233828
34.82950111
35.70011189
36.71854942
37.97116999
38.18936692
31.76151567
23.5972957
40.25523621
42.19839641
41.23391904
39.73074035
38.27993147
37.03042834
35.86869529
35.07873731
34.26193571
33.84211467
33.59197033
33.47886001
33.27425158
33.33197693
33.46950604
33.73900285
34.10729072
34.72778624
35.6003342
36.60695778
37.76722552
37.71992962
30.58218399
24.1493859
39.60388624
41.69528473
40.88230015
39.46467082
38.058126
36.83261437
35.68835226
34.90951814
34.11162948
33.70119407
33.45441232
33.34232504
33.14576205
33.20512082
33.34667897
33.62344286
34.00177057
34.62532293
35.49892228
36.48870722
37.55011958
37.24160212
29.44123101
24.54873066
38.99063557
41.21815161
40.54446924
39.20703379
37.84218054
36.63886747
35.51020494
34.74139968
33.94874396
33.5427842
33.29853768
33.18736676
33.04165189
33.10223782
33.24642792
33.52426612
33.89547277
34.52249144
35.39592641
36.36393346
37.32172744
36.75845805
28.35500275
24.80839824
38.41121865
40.76383703
40.21885737
38.95700505
37.63167236
36.44908559
35.33446808
34.57441435
33.80362456
33.40674446
33.16534699
33.05500071
32.90630488
32.9686682
33.11701603
33.40270772
33.78972669
34.41962206
35.29139869
36.23291982
37.08311527
36.27337848
27.33206874
24.95113632
37.86262043
40.33070337
39.90422265
38.71390962
37.42623821
36.2631408
35.16129719
34.40934249
33.63404348
33.23972778
33.00056367
32.89100877
32.81155599
32.87507452
33.02591699
33.31191957
33.68359952
34.3170002
35.18534517
36.096113
36.83654893
35.78837774
26.36915769
25.00101772
37.34197761
39.91595109
39.59947764
38.47715738
37.22553944
36.08085392
34.99088092
34.24578136
33.5011009
33.11521897
32.87825191
32.76933312
32.66607347
32.73156236
32.88669397
33.18025824
33.57940948
34.21513048
35.07800506
35.95408193
36.58458042
35.30640238
25.46558414
24.98501739
36.84673546
39.5173149
39.30381205
38.24634093
37.02936423
35.90221878
34.82373877
34.08531332
33.31761081
32.93406613
32.69937449
32.59118046
32.5858692
32.65243112
32.80985461
33.10512177
33.47570479
34.11487111
34.97033482
35.80742633
36.32886984
34.83132015
24.60200475
24.91980908
36.37557517
39.13366508
39.01678971
38.02123312
36.83758788
35.72714748
34.66139323
33.92803955
33.20945794
32.83045804
32.59708141
32.48929954
32.40123466
32.47038729
32.63322461
32.93671527
33.37792599
34.01829395
34.86560953
35.65734132
36.07204012
34.36955544
23.77697108
24.82492363
35.93145369
38.76767703
38.73996072
37.80248889
36.65054824
35.55581511
34.50863877
33.78032492
32.97310428
32.59761713
32.3668063
32.25981827
44.96477959
49.23330508
43.89673128
46.29177977
53.04057037
49.70330451
46.92146861
54.7417528
53.34884827
46.72184674
55.402964
54.85258381
46.14636722
39.9864855
42.43301552
55.67925269
55.44165657
45.07629046
48.56356999
40.19435931
53.51029362
56.1141805
55.69859705
42.13805732
40.552065
43.38441592
40.31075927
53.92782189
45.87328918
48.03952985
43.27564682
41.40206961
40.99977132
45.18028728
44.11726331
57.01895843
59.93701184
51.74571461
45.55872921
43.89511246
41.61917483
46.00229341
45.30467427
46.71484521
49.15510512
50.20320198
54.97593859
54.60694868
53.59284325
47.21300557
46.0400523
42.18029161
46.26646007
46.06670953
46.88385243
45.14417695
47.34664466
56.67754654
55.62943449
42.74168091
46.176987
46.27278975
46.43156721
39.905159
42.57088758
40.76064512
57.83368347
57.51038671
43.37793877
45.65135368
46.14268409
45.77627003
32.99297669
36.27114773
43.35628956
51.08149119
48.97581255
49.91413469
52.15544906
44.89519701
49.4164665
59.90961527
54.29798491
46.94932642
53.08619629
58.46694846
50.3274807
51.02345801
45.85067084
51.86709819
50.44659873
52.35004756
52.01865273
54.73244464
56.74714416
51.57899553
58.04519508
56.5835686
58.64647662
58.19394064
51.32218421
47.5571094
48.9752695
46.79300964
48.58914308
46.5556776
50.35455834
48.71471657
55.43230802
55.06864244
54.28267622
57.06763302
57.31999082
56.50766482
57.02378353
54.09492182
42.718358
45.00726214
46.85214101
43.93621401
41.15937383
46.41934592
44.09057039
57.44550914
56.79599934
36.44252109
39.70976257
46.40063697
43.90986873
37.53600588
33.82628029
41.00227783
37.77401424
45.98171841
58.03240148
57.87297038
40.2557268
40.2562167
32.92573634
45.72465852
45.12971262
32.01606664
84.96610088
33.72193575
32.04801091
44.4569756
40.21272019
43.91712257
41.85484729
43.8080977
48.18318212
44.39899582
68.47116239
49.91577291
45.71885933
51.09084595
50.67478
58.70046403
54.38973475
48.27506354
47.53646467
69.23276108
47.26795175
45.54404058
48.90767904
58.29794521
58.12496612
50.48078388
48.57155822
44.14689364
59.19262824
47.65400737
56.91382549
45.40891043
51.98046387
46.27146065
45.05985895
41.71421902
55.20555869
57.65120793
57.80639835
57.35649117
57.62137988
55.13865856
39.391472
61.09805228
41.53443689
42.41790171
41.91258435
44.31116764
45.23866931
42.36876427
42.42847557
74.53814511
50.50712817
68.10929318
48.57889388
63.57270568
49.53954318
59.09574308
59.2849553
54.68997981
54.66989829
41.68650868
52.59529467
56.26376869
42.53897076
41.4989182
55.80865158
43.32465109
56.12151505
41.35919639
45.96619796
45.57900216
50.74955855
48.26848136
60.97156371
35.19676351
43.55395125
43.00637853
44.25116151
43.75153995
35.33679839
64.33958931
59.7511645
51.05718097
60.22454534
61.32478819
55.03344071
59.82551369
51.36212038
46.99071881
54.14096307
46.86045054
60.35890305
55.05591743
47.70193681
57.79446002
64.16545496
58.09642108
57.68927052
51.20119056
46.66942388
51.11137683
52.45339186
50.58702727
54.38527838
47.12245119
50.09314379
52.38716189
55.85908593
56.03147978
57.35258038
56.04516754
55.45291789
56.60097444
56.2029125
57.23947573
59.09321642
54.061223
52.95101019
55.22111482
54.38336339
59.04850063
47.66480826
47.53365247
49.64508265
49.54174549
55.66062617
56.81594002
55.57893074
42.83290705
42.64318148
45.32340869
45.16546306
41.59038076
44.24005085
57.1202194
41.36006519
41.46725414
38.44990146
44.88141922
44.41564405
45.44436218
45.02737793
38.62018053
39.44979053
36.54129136
36.37530143
39.89401912
39.73648358
70.52179435
39.38309337
53.29643379
51.48096666
42.7944218
42.27227258
32.31731679
32.69968994
41.97462158
46.99257288
33.22244187
85.12381201
48.77708155
76.10028216
33.14374708
42.22683177
56.87756302
42.64984458
68.37730144
40.6615504
42.34381334
43.79726435
45.03864868
45.52817206
43.92195599
36.87523123
42.00449639
55.44038622
55.37811258
56.01043912
57.75054621
43.57819228
51.09235351
55.02011976
53.81030575
39.48782142
58.39551791
58.34864154
49.56954284
44.25936995
43.85807629
47.05985742
48.62123418
44.09426387
44.38647801
58.00919346
61.70982513
59.90689115
59.83492034
54.76419172
44.66519263
44.48577022
50.71713786
50.25631027
54.40225929
46.12692824
47.65646718
47.38089143
47.99315045
47.74423589
46.28770182
46.44439987
46.08819863
41.51359303
33.53804242
39.66368828
39.19405018
78.03617165
59.24428023
49.20161804
59.40489943
63.89635262
62.17949324
55.88036319
50.62517535
48.9957591
52.53012603
51.13508229
56.27523124
55.16569098
51.20881715
50.96580424
56.24572114
48.19609502
48.27319299
48.06936963
42.41441209
42.98960165
46.98284569
44.52486429
44.4925301
55.26529066
57.1810056
57.2186363
57.16722029
56.41102425
56.94764555
56.70158093
57.14136592
57.00484008
56.41694608
43.87471898
46.8822757
46.55738433
47.28511893
46.98626107
44.02836284
43.47405446
37.35097151
37.73659443
33.85552937
34.16149979
41.69650936
45.96224395
41.48552465
42.25605147
37.88782786
38.31922731
44.55144511
57.20498519
44.87964821
49.71000477
75.22270846
40.77932346
37.05842087
35.00974148
40.53285338
33.54135376
33.783872
33.00121799
38.87503139
61.31437724
37.98543972
40.79877352
39.89162944
39.04155603
38.59613125
32.75809369
42.04328214
40.6465043
47.16403125
31.91731819
98.85303844
44.74367548
41.72639123
44.88429236
33.52660865
32.19277891
60.55220843
59.97303132
59.23206417
58.38356591
58.08978443
39.89992872
40.34182152
69.68797208
56.8323024
56.70539524
51.39214837
64.34155158
51.17153157
64.78172747
52.57596463
50.23303881
43.22699495
42.89438509
56.98138248
65.42059458
58.9179268
46.21123694
39.31878855
61.55903278
75.11535465
46.59906435
58.20926312
82.02827593
41.04942269
44.55106511
39.6520425
40.51031443
74.00653057
75.00761594
59.23832409
54.84572751
63.8201086
60.16724865
53.99770514
50.36489745
57.12847979
56.97330739
56.54129937
58.37049986
59.71115253
59.43729763
57.65062886
46.22099054
45.01240823
54.70999374
52.03089785
51.14386357
46.61717401
51.3650191
50.74215907
54.44309868
50.25659998
46.73676905
43.77020701
45.01181724
41.65842777
49.77792381
48.57007185
47.54867479
46.16180729
44.74414947
48.09068378
46.73682442
46.00635552
47.70669298
40.01760605
39.861225
40.32703475
39.80419652
34.08221148
35.74212018
40.90911785
40.4742808
62.63693088
61.95176297
61.50988374
54.79282451
55.49273447
53.57928196
54.5211139
61.85666578
57.96345098
55.96794446
55.81834853
55.66659992
55.94552896
58.3001117
58.50533366
52.09041441
53.25764941
62.25173954
62.77684153
64.13898132
63.27569524
59.11504659
65.0990664
66.49781611
65.6927948
65.85462738
64.99322971
66.95727782
65.61876374
56.28538247
63.11168763
64.28932399
45.03579162
51.35796309
50.33744463
52.31924133
51.63411141
45.72476941
48.92632265
48.22791401
49.98277348
49.16688194
52.10203056
54.94275085
54.31865726
55.67745179
55.14045568
52.64391327
48.3107444
53.22558706
52.55062345
54.10346035
53.44752438
48.74108276
51.75247839
51.24391818
55.33242174
56.24464001
53.22499634
52.01523374
41.82271435
41.2636728
42.7921541
42.01870349
40.3713589
39.82376383
41.08617372
40.53562955
47.11779795
46.46570768
48.0030051
47.34132227
45.17025926
43.30278148
46.22927762
45.57748153
43.28545736
43.28627807
44.36219963
43.46549811
56.54639195
44.31617981
45.69494955
43.30901611
43.85069976
36.84024814
37.19791887
43.31887942
34.53406925
34.28189694
34.90751838
34.63781023
34.11626794
41.92730094
34.36084578
36.39708528
39.27282646
41.19540987
45.80807148
38.83098647
36.06363811
39.71298845
38.86526605
35.35508082
35.02654191
35.86575302
35.4793807
44.70432347
38.4729336
38.99122212
65.39638065
41.06840709
63.95584004
55.89243331
63.46120708
41.06195973
78.12634766
40.24507071
74.80919862
65.69012095
36.91920504
35.70472195
33.23849784
33.47357931
40.37641904
39.155119
32.99996451
33.18835081
70.83449741
32.67778293
38.38603004
37.63405752
85.5378791
90.545573
31.86377135
94.29960563
78.18147347
43.78805421
33.45430719
84.87979407
57.00051699
93.30960795
60.98208838
32.33666825
43.00093135
40.81491231
39.37829135
68.71693228
68.13945545
54.86282616
48.90832799
48.48117074
69.16688664
39.42513389
44.52673454
41.01576202
57.81674044
57.9293091
55.56897938
47.07480156
46.14978594
50.65130574
57.82294491
46.77768038
47.06342845
41.77889057
42.16880312
44.89038433
52.36193502
56.88359842
60.07750346
49.64414373
48.59994794
48.51957516
48.6069218
48.61166965
49.79243991
41.35878732
40.25974507
44.67105838
50.52596695
52.53522864
57.68861417
41.46281288
41.04589937
35.86979903
61.02188922
62.90098942
55.84439533
48.48073784
48.33239065
48.39849868
48.19492639
44.72707368
45.45114093
45.80573136
46.89595637
49.09049276
37.39170782
42.03785916
41.60006885
57.01925053
53.41850526
42.60032587
32.54523242
32.59508842
34.00371344
49.57099579
71.94863642
63.71545863
39.54678001
43.8666271
41.80421242
31.98334625
33.65208989
32.46294339
32.50818234
32.08186511
69.21942663
58.00579703
46.88367079
49.87145055
68.14454947
40.46267819
40.11353228
47.7809473
58.32397166
48.4286461
46.67217104
49.1516493
43.43956516
42.12416914
40.63202031
78.72241464
82.016489
83.52694467
71.37930366
80.4894888
43.64696548
44.04982072
47.6806135
70.58755443
64.44961088
61.31961416
74.11006152
70.75417384
42.04211172
48.8616165
46.95165222
60.62445685
59.65594207
48.06291326
51.22259119
50.18474873
41.53921806
56.62564414
43.37629513
44.12454975
54.55103003
42.60987528
44.19954818
63.96542505
64.8349518
60.52074688
60.67902368
59.24400015
59.08165394
55.71639942
56.96137488
56.50683859
58.88809625
58.63131779
59.30554005
50.28924264
51.70335142
57.89842056
59.57947581
66.32838603
61.97922923
66.29567219
66.69041584
63.37229522
43.08418649
45.6868708
45.084848
49.969084
49.69154759
46.3912742
42.61722443
42.33232977
44.57232345
44.16201483
51.08469574
53.69677764
53.30642412
56.08489093
55.6808036
53.77986865
47.47018141
50.68547714
50.35781295
52.91404819
52.53104051
49.63087829
43.94177224
44.52551022
48.06730772
47.1175737
43.17433251
43.75146123
47.97247208
48.55185698
49.96228326
40.70916445
40.53460632
42.08766482
41.86379973
37.93847748
40.28237129
40.13894549
49.20316206
47.16517039
47.77192304
55.5728834
54.91758399
44.91523984
45.69336984
56.32521212
54.60939296
54.91881016
55.34326022
44.54381431
45.52865982
42.58465962
42.17805889
37.76451641
39.07271762
43.07362824
42.70635491
34.20571007
34.27084046
36.65788549
36.24425211
34.01087482
34.09552946
70.54554083
32.30101091
33.89822086
32.93128727
109.2144475
32.15272074
43.00384793
73.51418581
66.91800167
32.13144846
32.17096146
33.30302668
83.36975239
89.18405717
86.57494525
70.32138699
33.01437823
32.04283884
32.08460962
47.6894801
39.63220388
39.6448656
68.19533055
67.18086059
52.14346152
49.71470743
41.60585494
59.29884424
62.00297028
64.41451681
45.7473628
66.46121613
58.1954545
66.91497364
65.10127362
48.16196758
45.65077264
46.58040238
52.53425425
54.66991817
55.11581713
53.963784
54.27110366
61.15400245
60.71670704
61.10727428
59.840307
60.23084333
60.53135962
50.78972564
46.90532125
47.24424983
46.39928201
46.62090696
51.0697088
63.13570641
62.19687724
62.27555796
61.55317009
61.89830773
62.63405339
50.89174749
48.29781056
48.68803163
47.58121102
47.93835359
50.92626013
53.37158959
53.34617417
52.59062016
52.67373925
37.45776106
40.07871114
39.93276639
33.9456991
36.42860847
36.29506464
36.83428643
36.58604393
34.03566774
71.88093515
73.3363847
64.81742804
73.23295567
33.00559613
32.94430795
33.16308566
33.09342856
32.49892099
34.35849241
32.66265901
32.8123099
33.6301918
35.96243419
35.84368619
36.1832558
36.06905472
33.70147608
33.31619414
33.22626967
34.49992236
33.49016588
32.98331163
74.0768564
70.88256339
54.22944808
73.63737332
35.5079047
34.31464131
38.68533099
32.82186869
34.91742573
34.78036843
31.94422538
98.15125464
99.15496911
63.91017106
92.22522959
83.78385528
32.34968512
32.41700622
33.59606752
32.13107002
65.38684387
72.57889751
65.93124192
68.93399794
63.68878611
53.76345506
70.63742496
64.71364335
59.16597796
58.47187305
69.72647953
53.27365228
59.88013397
57.87748283
54.55484012
61.00332323
54.22911785
57.89737242
66.0024922
67.56832963
59.00460959
64.65001776
69.14202183
64.99080423
66.87781539
63.68171519
68.51144996
78.55913084
78.11829625
76.46198031
49.54310278
69.26827637
62.31079653
76.65937027
78.65664803
53.94464361
59.33096476
64.92840943
80.60930802
68.02170468
51.32475094
54.81101345
69.45779815
64.98747214
70.07457231
62.41155189
65.98652263
69.32016467
71.31895008
70.49253378
56.40362132
57.06830212
57.41425514
55.96067437
56.13613675
55.92985893
58.74487085
58.95150996
59.33141609
58.04204124
58.39262255
58.24706905
45.80636376
46.82789219
46.83868938
51.64665164
51.4570836
48.61617778
52.72588436
52.64682818
51.60915081
50.9038574
51.67159394
48.47789358
46.44181608
46.32241477
46.79379101
46.6400556
47.27043041
60.17699538
53.65225655
42.64813247
62.39150151
62.1934516
61.70676105
46.33198369
60.13711992
59.21975929
42.51876036
42.81190991
51.28065171
63.35850534
61.17423401
57.88707225
57.43936759
56.37286331
58.92773814
58.41391866
58.10937495
67.64695834
67.36046579
61.16971087
68.23261942
70.5107321
63.25397947
67.35528461
67.60214313
63.89726884
62.28078306
62.24815053
62.2356643
62.26485659
63.58982657
65.52869134
65.92296957
65.75343629
69.68276066
69.44692936
69.80941062
69.80302936
65.58367927
67.31677949
68.88204032
70.59831213
67.49181726
48.36371695
48.17694454
45.01078809
45.90432256
49.25101551
49.056595
43.19314854
42.89247378
43.81830122
43.49420721
54.48345562
54.08653157
51.5720892
53.2061149
55.28220018
54.88241601
51.41316011
51.06413827
47.92457624
49.16051033
52.14771796
51.78277441
51.68094005
49.88440563
50.3092158
49.06434426
49.47560411
51.3009349
52.58140512
51.52425973
51.9386631
50.73672299
51.14833193
52.42411305
41.63021243
38.25511047
38.43518124
37.93047246
38.09544367
41.44776346
42.4704822
39.03282284
39.29956035
38.614326
38.81469904
42.23050052
40.17594496
36.98622982
37.15504783
36.70369994
36.87033139
40.03192902
40.90123658
37.61071162
37.77613458
37.28897082
37.46225089
40.72696677
41.15431498
40.95502123
46.90194294
44.51103941
44.72991807
44.06208545
44.26172612
46.67493943
41.61482838
41.39774429
39.34596625
39.27686402
44.85946992
42.52247866
42.60050501
39.69282173
40.22645571
44.04472041
46.03328727
43.62970125
43.7946447
43.19159374
43.30855068
45.76386137
39.86155019
39.75777303
54.85289383
54.46655157
56.10871768
47.04486371
50.2424133
44.65344492
53.70594881
54.33374574
52.97851524
53.39458303
45.21159837
43.37289514
49.53864191
46.71335894
53.31790397
53.6533671
43.61598273
36.9088199
39.42669168
39.28131552
39.76276315
39.62754199
37.11226958
34.46931949
34.34180544
34.8204091
34.70575928
34.0178397
33.57408969
34.7047405
37.97040115
37.27319611
38.95697539
38.63563206
36.33512061
36.85627197
35.01636322
35.94977693
36.37686349
39.45746662
36.42395112
36.61235156
36.08181089
36.34629348
39.37462645
35.24828328
35.12573718
35.72635003
35.59414551
62.47441716
45.95270358
47.58956055
42.75724489
44.3038161
63.63228364
62.05197252
61.05322005
49.66589704
54.92330967
64.3056532
73.49944821
54.58385866
58.20258816
46.95675583
50.84611758
75.39492473
32.75657973
32.69998996
32.87498649
32.82914648
33.50156838
33.81641386
35.9685863
32.47956147
32.45192036
32.62233002
32.56498963
33.32553493
35.51497792
35.3780289
35.73795153
35.61241188
33.384902
33.07172693
35.0574887
34.77194237
35.29705785
35.1282853
33.11073289
69.22235225
34.64128944
34.38979974
32.50939652
83.57860241
104.3411962
106.9444919
104.5716978
104.4162007
87.29610809
31.96886981
87.06712983
69.72130597
73.17456372
33.3734222
32.21666674
32.28316058
84.46443169
90.97677455
89.764309
77.56220228
82.99370957
94.62684639
91.76409286
65.49406464
87.94513569
79.44453152
32.16625782
32.01467477
32.73490805
36.69597229
36.72428074
36.82570316
36.73653675
36.7881168
36.85730774
36.80875792
36.89056375
36.90886809
36.91817964
37.00044549
36.97555617
37.02264407
37.06793658
37.0240384
37.07581231
37.09251241
37.03884341
37.09202535
37.07866464
37.03277668
37.07006354
37.02581944
37.00157731
37.00591331
36.93182111
36.93712332
36.9062105
36.82733592
36.88079341
36.56353539
36.62429564
36.69473843
36.65177854
36.76405302
36.7726587
36.80684578
36.94445052
36.89491378
36.99048983
37.11548537
37.01912886
37.14596578
37.21488224
37.09141539
37.22944278
37.24159195
37.11941732
37.2368022
37.20696802
37.10208637
37.18999642
37.11899834
37.04219864
37.08931156
36.98272972
36.93798446
36.94314379
36.82342698
36.81883816
36.46702401
36.59279899
36.60837712
36.6462825
36.8303185
36.77229537
36.89848933
37.11340509
36.97434905
37.18387689
37.3710525
37.16360151
37.42281101
37.5508995
37.27312556
37.5685715
37.56967416
37.29985629
37.54696665
37.47540278
37.25824272
37.44150663
37.31677241
37.15642323
37.26856355
37.11020807
37.00698583
37.05462794
36.88541255
36.83193713
36.42193819
36.62661264
36.59507949
36.70669734
36.98813474
36.86133742
37.09462564
37.44327569
37.17852711
37.56154798
37.91335394
37.46946206
38.01746508
38.25990676
37.67249819
38.29984683
38.28468574
37.67698061
38.19575593
38.00192594
37.58087974
37.92684865
37.68281175
37.38957844
37.59821959
37.34783129
37.1581957
37.26502649
37.02411534
36.91202043
36.43186582
36.71649205
36.6446129
36.83314708
37.25257689
37.0445964
37.41563221
37.99280399
37.55519251
38.21460017
38.99997666
38.1046814
39.29874308
40.20497456
38.52315425
40.23099646
40.00261106
38.49583122
39.61925948
39.01383816
38.20314285
38.81540326
38.29760839
37.80900764
38.14350366
37.73002371
37.42878347
37.60118702
37.24410516
37.07004253
36.47085334
36.85211042
36.74661637
37.00980437
37.59881906
37.33053502
37.84239181
38.77775882
38.16922557
39.18844152
41.48892059
39.39319065
40.62953736
41.18218617
40.10433701
41.86477767
41.88459562
40.59018467
41.27194083
40.55779221
40.05403643
40.30980648
39.22489122
38.49836636
38.94904649
38.26064152
37.84974472
38.0646686
37.54967301
37.31146323
36.53238199
37.01160473
36.88669825
37.21207032
37.97702841
37.68820205
38.30251548
39.61002136
38.99300821
39.72276992
40.34955907
40.02710533
43.01380543
43.72734408
43.17657118
45.47380522
43.98357119
42.56005057
42.30017004
40.40356332
39.49680631
39.96490314
38.92676755
38.42156973
38.64453442
37.9227353
37.63629277
36.61384962
37.187521
37.05513033
37.4269154
38.34205323
38.07040778
38.73212539
40.29252954
39.79619841
40.6350516
41.4500053
41.21118027
45.37487285
46.62032707
46.3906218
50.15440658
47.28413147
46.08050624
44.2370779
41.62673587
40.70044222
41.02912349
39.63038454
39.09444031
39.25836347
38.32387497
38.02086051
36.7089079
37.36884466
37.23265109
37.64232468
38.67976673
38.42920078
39.1178214
40.84492869
40.43949346
41.32271916
42.23626483
42.05714033
46.52294539
48.05137056
47.96854821
52.85252896
49.62865671
48.88342748
45.7441315
42.69725406
41.89845157
41.9788948
40.29343445
39.79474089
39.83972687
38.71055856
38.42003862
36.81216885
37.54961046
37.41483257
37.85274329
38.99287583
38.76059525
39.47028951
41.33743818
40.96980272
41.90166941
42.89499819
42.72673678
46.92280671
47.61463718
47.77539703
54.08435514
50.95929466