/*--------------------------------*- C++ -*----------------------------------*\
| =========                 |                                                 |
| \\      /  F ield         | OpenFOAM: The Open Source CFD Toolbox           |
|  \\    /   O peration     | Version:  v1912                                 |
|   \\  /    A nd           | Website:  www.openfoam.com                      |
|    \\/     M anipulation  |                                                 |
\*---------------------------------------------------------------------------*/
FoamFile
{
    version     2.0;
    format      ascii;
    class       surfaceVectorField;
    location    "1.13";
    object      Uf;
}
// * * * * * * * * * * * * * * * * * * * * * * * * * * * * * * * * * * * * * //

dimensions      [0 1 -1 0 0 0 0];


internalField   nonuniform List<vector> 
25162
(
(99.99911652 0.003405898206 -2.129737232e-21)
(99.99681039 0.002856915065 6.303570904e-21)
(99.99838398 0.009294196888 -2.105501852e-21)
(99.99448845 0.01079693609 2.120226258e-21)
(99.99692506 0.02039352492 -4.202714361e-21)
(99.98961309 0.02586399266 1.266793745e-20)
(99.9984214 0.02550737533 1.314014156e-21)
(99.98037667 0.05419180059 -8.374029739e-21)
(99.99123594 0.05722937038 -1.39824453e-21)
(99.9970683 0.04728971338 2.034346518e-21)
(99.99910159 0.0286379067 1.011504528e-21)
(99.98949284 0.0834340659 2.025261672e-21)
(99.99758275 0.04792879012 9.937920746e-22)
(99.99821222 0.03669111507 -1.019415948e-21)
(99.99696669 0.06215297342 9.937514852e-22)
(99.98337325 0.1412428181 1.980150198e-21)
(99.99661634 0.07993424341 0)
(99.99637071 0.0998036703 -3.673991469e-21)
(99.97779554 0.2222131237 -3.673972347e-21)
(99.99582037 0.1235557534 -9.563945945e-22)
(99.99516895 0.151298644 3.203409794e-21)
(99.97031673 0.3331659179 3.513143504e-21)
(99.9945327 0.1830791148 4.342288335e-22)
(99.99397908 0.2186194147 -2.940812193e-21)
(99.96386468 0.4751527862 4.163650795e-22)
(99.99358538 0.2572916372 -3.046099067e-21)
(99.99347352 0.2979475119 2.385746539e-22)
(99.96201248 0.636916252 -2.062027612e-21)
(99.99378276 0.3385999017 2.701885541e-21)
(99.99452024 0.3768038461 2.350556129e-21)
(99.96876939 0.7893137697 -1.053975938e-21)
(99.9953063 0.4102941494 0)
(99.99616238 0.4365586582 0)
(99.98409207 0.8919104821 2.67765134e-22)
(99.99777959 0.4536167902 0)
(100.0000114 0.4603780196 1.764486492e-22)
(100.0037861 0.9186975024 -4.519924175e-24)
(100.0022875 0.4563703561 7.669777939e-22)
(100.0040623 0.4417345141 6.399115168e-23)
(100.0224149 0.8608040851 -5.073042853e-22)
(100.0050041 0.4177566679 -8.352527485e-22)
(100.0055289 0.387099173 9.644872027e-23)
(100.0324481 0.7412753405 1.624614806e-21)
(100.0059219 0.3524172183 4.136860552e-22)
(100.0060814 0.315474423 0)
(100.0347379 0.5940278092 0)
(100.0059607 0.2783349301 0)
(100.0058033 0.2424312697 7.55047792e-22)
(100.0310621 0.4515468125 1.577506465e-21)
(100.0059815 0.2092267665 -3.830684486e-21)
(100.0058545 0.1768866041 -1.413017519e-21)
(100.0265659 0.3240714337 3.116469177e-21)
(100.0050855 0.1484949935 3.116236622e-21)
(100.0038111 0.1244257293 -8.927479178e-22)
(100.0161565 0.2254027194 -6.135422969e-23)
(100.0008889 0.1071669375 1.731364507e-21)
(100.0104395 0.1056655188 -7.802726706e-21)
(100.0589655 0.2585751931 6.15917191e-22)
(100.020634 0.2295676685 -2.789626869e-21)
(100.0033005 0.107620897 -1.635951076e-21)
(100.0075205 0.06193423325 -9.867211607e-22)
(100.0408983 0.1596802266 1.562870124e-20)
(100.0063373 0.02912340675 -7.931104273e-21)
(100.0308284 0.08617456672 -1.666517533e-20)
(100.0274459 0.02736901902 1.559300329e-21)
(99.99170033 0.009128330316 1.053038675e-20)
(99.98823358 0.003872016583 2.610112496e-22)
(99.98459065 0.02533418145 1.684949807e-20)
(99.9793058 0.01591726019 -1.470936179e-20)
(99.97145504 0.05631919893 8.815979806e-21)
(99.96062233 0.04122344941 -2.287086872e-20)
(99.96360724 0.1001443021 -1.476151606e-21)
(99.92982882 0.08982006081 4.402278102e-20)
(99.93683253 0.1206380039 -9.719126918e-21)
(99.94492412 0.1301647085 -2.083931529e-21)
(99.95732656 0.131707954 4.122562929e-21)
(99.97445893 0.09229878534 2.047353893e-21)
(99.95753141 0.1629665845 2.007762181e-21)
(99.94397506 0.1758909011 2.039639009e-21)
(99.90527025 0.2346237805 -4.112266097e-21)
(99.92912172 0.2317620648 -1.589614375e-23)
(99.93296306 0.2752015723 1.980460958e-21)
(99.9113967 0.301410079 -1.57069306e-23)
(99.85389059 0.3970510978 0)
(99.90232944 0.3602348044 0)
(99.87512819 0.4116869466 -2.481352296e-21)
(99.90595579 0.423307469 -4.889095362e-21)
(99.89510988 0.4442341891 -5.759798474e-23)
(99.86409726 0.5149461131 -1.10003386e-20)
(99.88592828 0.4889348439 -3.78063788e-21)
(99.85532725 0.6754855497 2.754562868e-23)
(99.8728971 0.6396017193 -2.512694034e-21)
(99.81468683 0.7826377777 -1.374635355e-20)
(99.84679594 0.7376572534 -3.345484323e-21)
(99.81871001 0.9804601229 -6.369428908e-21)
(99.84313816 0.9201320677 -5.985001649e-21)
(99.77003751 1.132227403 5.278088449e-22)
(99.81289296 1.058526673 -7.649941868e-21)
(99.79932687 1.343164801 -1.046064841e-22)
(99.83074651 1.246662912 -5.103516069e-21)
(99.75001919 1.543914076 -3.898973189e-21)
(99.80151707 1.429359221 -3.850345562e-21)
(99.82283781 1.706198008 -7.549282375e-21)
(99.85828436 1.56212203 -1.018843502e-20)
(99.7868562 1.946887588 -6.842752766e-20)
(99.83835206 1.782379103 -6.475133108e-21)
(99.89523571 1.974493596 -1.295537688e-21)
(99.93037183 1.784521015 4.418232822e-21)
(99.87951003 2.238474847 3.698294737e-21)
(99.91935457 2.028782415 3.697839381e-21)
(99.99409247 2.077133022 -8.279059985e-24)
(100.0198853 1.852762169 -4.874189593e-22)
(100.0008345 2.331078417 8.97322011e-21)
(100.0186845 2.097278615 -4.328359365e-22)
(100.0939333 1.995097095 -1.886617033e-22)
(100.0848277 1.747008864 -2.180614886e-22)
(100.119853 2.203498223 -1.095958309e-22)
(100.1137093 1.957396998 1.64309058e-21)
(100.1608648 1.751567402 2.132919648e-21)
(100.1216412 1.510754991 3.702242186e-21)
(100.1919332 1.905262135 3.723428297e-21)
(100.1688972 1.676203916 5.106812396e-22)
(100.1833165 1.423549016 -6.286387544e-21)
(100.1302597 1.212704333 -5.890582017e-21)
(100.2131985 1.528904333 -2.112732453e-21)
(100.1813524 1.334700381 -2.095589371e-21)
(100.1687963 1.093228933 -5.130665791e-21)
(100.1124016 0.9236087369 4.73034277e-22)
(100.1883007 1.159103564 -1.390502313e-21)
(100.1606935 1.011971622 5.675879456e-21)
(100.1071906 0.6419943277 -1.334647911e-20)
(100.1703037 0.8729701803 -1.334544211e-20)
(100.2405847 0.9470301824 1.35359914e-20)
(100.1485988 0.7302139238 -2.739676381e-20)
(100.1266784 0.6065931174 1.191244041e-20)
(100.176229 0.6488383534 -1.705791916e-20)
(100.1038804 0.5017873167 2.4056338e-20)
(100.0781762 0.442568636 2.674944326e-20)
(100.0988273 0.3074661858 2.319384641e-20)
(100.223099 0.4831232329 -2.340314532e-22)
(100.1696197 0.5369263168 4.836041465e-20)
(100.0998045 0.4274343177 2.643031033e-21)
(100.072373 0.1805627658 -6.820670115e-22)
(100.1599802 0.2970284819 3.334970277e-20)
(100.0587866 0.08332340074 -7.746719388e-21)
(100.1225048 0.1602654459 -1.768410934e-20)
(100.1060405 0.05066190253 7.931306011e-21)
(99.97847644 0.009405404638 -2.526034785e-20)
(99.97936459 0.001257480632 -1.262463995e-20)
(99.95868125 0.02950598283 -5.476926038e-20)
(99.96041107 0.009627721108 1.184554841e-20)
(99.92312615 0.07232554374 1.210057518e-20)
(99.92048318 0.03634750595 -4.63739593e-20)
(99.88187558 0.1464322498 2.801758853e-20)
(99.85601772 0.09158831077 5.047182637e-20)
(99.8421657 0.1562926591 -4.543695549e-20)
(99.89616969 0.1598084786 -8.396557479e-21)
(99.84240078 0.1771107116 -6.180175661e-20)
(99.85472233 0.2039750644 -4.177065689e-21)
(99.83443273 0.2942560753 -8.215121585e-21)
(99.81599502 0.2784250372 -4.095578535e-21)
(99.74713834 0.337903026 2.870073378e-20)
(99.76976957 0.3719342563 8.096639129e-21)
(99.74648266 0.5041486963 -7.125431442e-21)
(99.71538317 0.4880122179 5.239103994e-21)
(99.61246224 0.5908832358 -4.050493512e-20)
(99.6812832 0.6100853256 2.894240997e-21)
(99.62956918 0.6526151987 -1.770646784e-20)
(99.66055298 0.7767772484 -7.389301391e-21)
(99.63532235 0.7713330347 0)
(99.57219158 0.8528071095 7.61453628e-21)
(99.60290356 0.8657879972 -7.375349173e-21)
(99.53623837 1.202006056 3.628278178e-21)
(99.4977778 1.20459605 1.424777424e-20)
(99.4139711 1.329149877 7.069401095e-21)
(99.46211495 1.335323092 1.771794905e-20)
(99.41771094 1.76945216 -8.870349768e-20)
(99.36137508 1.789528872 -1.015369467e-19)
(99.26062432 1.973880975 -1.412202953e-19)
(99.33273727 1.959283794 4.80424336e-20)
(99.36348225 2.465008856 1.04960812e-20)
(99.28395309 2.521376 2.240570057e-20)
(99.1905006 2.781110014 0)
(99.28542967 2.718440834 0)
(99.45503306 3.187955716 9.995435164e-19)
(99.35951278 3.316131504 0)
(99.30483514 3.639041655 5.605356527e-20)
(99.40742154 3.496766844 -2.86540683e-20)
(99.71810176 3.696616106 2.547205931e-19)
(99.60580961 3.903354163 -1.345380004e-22)
(99.64660681 4.240005477 -6.550958444e-20)
(99.69852032 4.003585364 -1.331606899e-22)
(100.0352441 3.866632676 6.633955011e-20)
(100.0030547 4.138392179 1.702813221e-20)
(100.0708265 4.421331929 5.812856578e-20)
(100.102712 4.121305526 4.360643415e-20)
(100.3479327 3.621345565 -1.328869719e-19)
(100.3665729 3.919299157 -2.763660571e-19)
(100.4670582 4.117965592 -1.329420688e-19)
(100.4376419 3.803726219 -2.514789291e-21)
(100.5296169 3.087208916 2.624726103e-21)
(100.5892334 3.369666736 1.709124903e-21)
(100.6878284 3.489195269 1.761975937e-20)
(100.618659 3.200812737 5.647868474e-21)
(100.5775972 2.445197286 -5.911159018e-21)
(100.6558378 2.682140522 -1.367497971e-20)
(100.7401983 2.742507014 -4.804063403e-21)
(100.6524948 2.508296342 5.439672713e-21)
(100.6047192 2.009821074 -1.733120497e-20)
(100.5230925 1.821974393 -1.171047154e-20)
(100.6695764 2.032670615 -1.172626358e-20)
(100.5834372 1.853003107 6.338147422e-21)
(100.4253226 1.2330112 -5.281358361e-20)
(100.5659263 1.503752806 -2.778724754e-20)
(100.6638569 1.494151053 -8.002365715e-20)
(100.4962749 1.24989408 -3.731241152e-20)
(100.3167141 0.8388626399 -6.122977977e-20)
(100.4283385 1.030434252 2.414649199e-20)
(100.4928115 1.006034682 -2.905160324e-20)
(100.3637606 0.8429583552 -2.541892366e-20)
(100.2758076 0.4678753801 1.078777462e-20)
(100.4730909 0.6429443082 -2.625091497e-20)
(100.4403676 0.7734714852 -1.801292433e-22)
(100.328477 0.6950631453 -1.51051616e-20)
(100.2036829 0.2734797326 1.56104738e-20)
(100.3428789 0.3918383539 2.784507624e-20)
(100.1644285 0.1257783392 -1.99345628e-21)
(100.2618544 0.2101235391 -4.031789356e-21)
(100.2246606 0.0659357327 0)
(99.9659588 0.0005925043858 2.535488791e-20)
(99.97882401 -0.006411961558 -4.22609587e-21)
(99.92828136 0.0144548969 2.131578844e-20)
(99.94739518 -0.01271790658 2.960388494e-20)
(99.86082463 0.05577363566 -8.47502743e-21)
(99.8816336 0.002605744141 -4.21322407e-21)
(99.77232855 0.1516971263 0)
(99.77253638 0.05000149549 6.452680038e-21)
(99.72780524 0.137757909 1.97122403e-20)
(99.78052696 0.1815588269 -5.774871493e-20)
(99.71431608 0.1707724134 1.482043942e-20)
(99.71383289 0.2222243403 0)
(99.64638815 0.3617125574 3.754200124e-22)
(99.63623899 0.3151777964 -3.288903541e-20)
(99.53513635 0.3626544137 -3.286691004e-20)
(99.54356524 0.4342951004 6.676124969e-20)
(99.4578427 0.6499621402 -9.935268248e-20)
(99.43470513 0.584521486 3.510903275e-20)
(99.2845663 0.6733357598 -6.637865882e-20)
(99.34182507 0.7649997999 -3.298524443e-20)
(99.27146125 0.7789188755 -5.43282325e-20)
(99.25047706 1.031716749 7.899960763e-21)
(99.22518144 0.9913034979 1.571666746e-20)
(99.12634878 1.07201644 3.965737335e-20)
(99.15344088 1.124027204 7.835552011e-21)
(98.96006447 1.653877133 -2.410447219e-19)
(98.91606439 1.606337842 -1.99335489e-19)
(98.78064797 1.741577881 -5.687730733e-19)
(98.8319782 1.802155422 -4.348553081e-19)
(98.67199208 2.560204935 1.249748144e-18)
(98.59421173 2.516903809 4.92069069e-19)
(98.43183011 2.746939781 9.429371884e-19)
(98.52536976 2.800604685 9.319493571e-19)
(98.5091973 3.788330958 7.117528093e-19)
(98.38524956 3.783860998 -4.692988724e-20)
(98.2206703 4.147012293 0)
(98.3744528 4.142394865 0)
(98.74532091 5.144277969 -5.011343055e-20)
(98.50422128 5.226965084 -6.963850658e-19)
(98.49853937 5.721656144 1.110141858e-18)
(98.63595184 5.564927712 5.757293118e-19)
(99.43752892 6.096576699 -6.165211594e-19)
(99.24194228 6.341095099 -4.252651518e-20)
(99.37421698 6.813421186 2.113437693e-19)
(99.49136978 6.498047285 -3.036923099e-19)
(100.3208639 6.26722687 5.801651081e-20)
(100.2663563 6.621276336 -1.381332291e-20)
(100.4749438 6.954995673 -9.849048286e-20)
(100.5044703 6.546276456 -1.989441697e-20)
(101.0274551 5.685373785 -6.986235104e-19)
(101.0789195 6.06094096 -4.175251035e-19)
(101.3060005 6.232222542 -8.919799935e-19)
(101.2155445 5.83460449 -1.971190137e-20)
(101.350865 4.705443312 -4.007346997e-19)
(101.4662393 5.047018816 -5.401545844e-19)
(101.6513817 5.103933059 -6.295923991e-19)
(101.5038311 4.762736176 -3.707129217e-19)
(101.3750148 3.603577169 4.403913768e-20)
(101.5130886 3.889380813 1.587685699e-19)
(101.6454311 3.872149999 0)
(101.4867654 3.600103429 2.08921091e-19)
(101.3539351 2.815637495 0)
(101.2219398 2.610057986 4.669340242e-20)
(101.4414231 2.777336886 0)
(101.2969966 2.582310755 0)
(100.9545982 1.720576195 2.955738244e-20)
(101.1903763 2.014510531 1.910674603e-20)
(101.2922881 1.900704928 -1.731669438e-20)
(101.0352185 1.654463357 3.704828429e-20)
(100.7056795 1.14430282 -3.404987542e-20)
(100.8894164 1.347184426 -1.520393365e-20)
(100.9499558 1.24865713 -1.537870675e-20)
(100.7569988 1.086839164 -7.373477473e-21)
(100.5246272 0.5620470716 -9.312670118e-21)
(100.7859121 0.7081291751 -1.997616843e-20)
(100.8123425 0.9143074908 -2.61122557e-21)
(100.6659881 0.8749564533 4.892835908e-21)
(100.3874822 0.3253220473 8.029680515e-21)
(100.5660714 0.4262148418 1.223012502e-20)
(100.3106801 0.1483241552 -2.037972504e-21)
(100.4287877 0.2249910268 -3.605447358e-21)
(100.3645428 0.06985933248 -5.199501861e-22)
(99.96546416 -0.0199912974 0)
(99.99769929 -0.01990254406 0)
(99.90734586 -0.02558058298 4.249979148e-21)
(99.9527421 -0.05334061565 0)
(99.80268938 -0.002494398614 1.069424782e-20)
(99.85999026 -0.06466753465 -3.673745054e-21)
(99.655052 0.08586195391 1.901624001e-20)
(99.70463642 -0.04240978855 2.375524809e-20)
(99.6103973 0.05380915197 -7.178422811e-21)
(99.65012196 0.1431204013 2.553163866e-20)
(99.57541478 0.0978921571 2.08244831e-21)
(99.55592622 0.1656122384 -1.013732335e-20)
(99.41813561 0.3379972593 0)
(99.42885271 0.2637431615 -2.134311358e-20)
(99.29991423 0.2858085932 -1.750215662e-20)
(99.27733122 0.3900713127 4.356459826e-21)
(99.09690828 0.6577406754 0)
(99.09845777 0.5532615519 4.355993409e-21)
(98.9027147 0.6025731359 -4.48286881e-21)
(98.92329971 0.7712084569 2.193907857e-20)
(98.8452255 0.7497507225 5.640095493e-21)
(98.71774305 1.112633307 1.875163221e-19)
(98.707164 1.034468971 -6.496578492e-20)
(98.5703339 1.098896172 -1.321364819e-19)
(98.5796926 1.191406495 1.198367994e-19)
(98.17222247 1.92282811 -2.414560489e-19)
(98.1414618 1.812801514 7.202435808e-21)
(97.9495686 1.945184896 -2.40778811e-20)
(97.98201081 2.080492945 -2.482614852e-19)
(97.54971242 3.259498398 -1.82267282e-18)
(97.46804895 3.125997905 1.207732298e-20)
(97.19770138 3.400234954 -9.240578694e-19)
(97.29887818 3.565265157 -1.035891937e-18)
(97.10234132 5.273601363 -7.418684499e-19)
(96.91445989 5.162835004 1.092409544e-19)
(96.62238208 5.645358203 -6.948179806e-22)
(96.86824795 5.775804988 2.130364882e-19)
(97.49027879 7.654474767 -8.762107146e-19)
(97.17787978 7.711337306 1.101401627e-18)
(97.03705432 8.399122467 -4.312062883e-19)
(97.45818186 8.324069295 -1.057579794e-18)
(99.2027884 9.39059763 -1.451814052e-19)
(98.8158986 9.741484737 5.927316593e-20)
(99.14335801 10.44300956 1.5833087e-19)
(99.42452856 9.9603179 -1.186767441e-19)
(101.2611473 9.309053861 3.637204185e-19)
(101.1827522 9.847305771 4.019573402e-20)
(101.6641712 10.2152712 2.09477372e-19)
(101.6704177 9.583812305 -1.250816726e-19)
(102.5270637 7.921417882 -5.479728939e-19)
(102.6782717 8.422120741 3.405497365e-20)
(103.0923522 8.480953602 -7.265940308e-19)
(102.8671519 7.974650065 -4.432104819e-20)
(102.8639979 6.193786844 0)
(103.1033771 6.588010141 8.907431065e-19)
(103.3934223 6.508192921 1.126334182e-18)
(103.0988423 6.135852341 0)
(102.6610404 4.580238723 -3.545387967e-19)
(102.9053657 4.879732511 -9.52632174e-19)
(103.0680506 4.76155523 2.521856576e-19)
(102.799847 4.487567847 -4.913962099e-19)
(102.4278439 3.400789996 -1.26750047e-22)
(102.2170896 3.179796198 -3.961229639e-21)
(102.51729 3.275427244 1.890362371e-20)
(102.2943636 3.08069266 2.329033357e-20)
(101.6692988 2.022882126 -9.669715469e-20)
(102.0066933 2.304530337 -6.138551937e-20)
(102.0781356 2.076358056 -3.454936399e-20)
(101.733923 1.86907915 -1.789285919e-20)
(101.2193063 1.312052089 1.190049984e-20)
(101.4803523 1.500223201 3.585150381e-20)
(101.5087466 1.329225625 -4.024413925e-21)
(101.253692 1.191916091 -3.927526568e-21)
(100.8119981 0.5719920192 2.087313846e-21)
(101.1272194 0.6537131923 0)
(101.2437716 0.9317489906 -1.252406813e-22)
(101.0809633 0.9368185425 -1.074379208e-20)
(100.5938967 0.3231802734 4.601740033e-22)
(100.8007111 0.3858913906 2.087125666e-21)
(100.4709445 0.144985568 -2.094605902e-21)
(100.5968661 0.1971912267 -2.096529144e-21)
(100.5012923 0.06018631094 -2.111439554e-21)
(99.98993107 -0.0530479736 0)
(100.0477638 -0.03922445169 2.076838087e-21)
(99.91136262 -0.09225263971 -8.529390989e-21)
(99.98982148 -0.1121014048 -2.091935902e-21)
(99.76932916 -0.1041148143 8.780989477e-21)
(99.87137137 -0.1654678235 -4.261074133e-21)
(99.55270871 -0.037026853 1.154162316e-20)
(99.67083377 -0.1879500044 3.211027254e-21)
(99.52159662 -0.09853869017 -1.046481988e-23)
(99.52170115 0.03281780897 -8.611648797e-21)
(99.4598734 -0.05011686441 -8.652985083e-21)
(99.40828608 0.02875366808 0)
(99.18654189 0.2046591237 -1.750172455e-20)
(99.23013303 0.1102358161 0)
(99.08341532 0.09431736586 -9.529789537e-23)
(99.01478523 0.2205030833 -6.059937714e-23)
(98.70805244 0.5063510797 8.989873842e-21)
(98.75598777 0.3673696116 1.352967763e-20)
(98.5265977 0.3674493569 1.818608731e-20)
(98.48547793 0.5865733257 -3.729497202e-20)
(98.41019498 0.5358478046 -1.467661493e-20)
(98.12298453 0.9712661872 -1.974937111e-19)
(98.14722253 0.8599663159 -3.727679252e-19)
(97.97615471 0.8965218961 -3.370967533e-19)
(97.94663579 1.026433454 -3.488197851e-19)
(97.21775201 1.889660774 5.056027474e-19)
(97.23126612 1.716059152 0)
(96.96374385 1.822846747 -5.275618139e-19)
(96.94095872 2.033032609 5.040031549e-19)
(95.964308 3.60956966 7.530394734e-19)
(95.92521222 3.338502345 1.998250835e-21)
(95.5070575 3.592681326 -2.921645083e-19)
(95.5600599 3.909851832 -1.976923205e-19)
(94.75659987 6.567349176 -1.27966304e-19)
(94.5278771 6.221439295 2.655391794e-19)
(93.97049434 6.739074582 1.187285907e-19)
(94.27771354 7.184299808 5.441638557e-19)
(94.93437603 10.86843691 0)
(94.29362234 10.65346827 -2.655241542e-19)
(93.83491683 11.69725868 0)
(94.72401019 11.92752915 0)
(98.66418574 14.49756707 0)
(97.81080398 15.02998446 2.507093706e-19)
(98.312481 16.32934993 0)
(99.29401947 15.48081406 0)
(103.5515692 13.44281617 -1.075942152e-19)
(103.451119 14.45267058 -2.436025622e-19)
(104.4978376 14.74302238 0)
(104.392823 13.59787357 0)
(105.4409432 10.05505203 4.779616797e-19)
(105.8238197 10.75082321 -2.015371266e-20)
(106.485786 10.51087624 -1.882043053e-19)
(105.9650968 9.860026049 -5.196857334e-19)
(105.321431 7.194294816 -1.333338534e-18)
(105.7685106 7.593859568 -3.717613664e-19)
(106.0819236 7.304273083 -1.404937434e-18)
(105.5836995 6.959236283 -1.345304799e-18)
(104.4902561 5.070258043 3.117397951e-19)
(104.8796083 5.331900916 -6.696693341e-19)
(105.0229229 5.074689638 3.362345695e-19)
(104.6193504 4.860157069 -3.109510122e-19)
(103.828906 3.600336324 0)
(103.5162473 3.405904427 0)
(103.8819438 3.383145973 2.228308738e-19)
(103.5714317 3.222119031 -3.406576996e-20)
(102.5102274 2.050501045 2.799575004e-20)
(102.9580427 2.276610298 -2.8642961e-22)
(102.9507371 1.936363664 1.723374635e-20)
(102.5215933 1.80716376 1.28396983e-20)
(101.8020363 1.292295255 -1.687918615e-20)
(102.1332558 1.42781795 -8.629050665e-21)
(102.0966199 1.194310695 -8.630722422e-21)
(101.790342 1.114609159 1.322500382e-20)
(101.0985739 0.4745507759 0)
(101.4518576 0.4701156502 1.401930961e-21)
(101.6697043 0.7767783511 -1.164570413e-20)
(101.5172922 0.8607716776 2.882201606e-20)
(100.7888896 0.257848847 -5.293774838e-22)
(101.0050362 0.2613262194 -1.655348926e-21)
(100.6155536 0.1120966364 -2.124510171e-21)
(100.734308 0.1231729364 -2.411370709e-21)
(100.607013 0.03606117322 2.685456979e-21)
(100.0519234 -0.09769060325 -1.443635156e-23)
(100.1399305 -0.06363919752 6.590836747e-23)
(99.95515651 -0.183826834 2.173168454e-21)
(100.0711409 -0.1866437243 -8.017108733e-23)
(99.77996325 -0.2477705379 -1.141334573e-20)
(99.93185222 -0.2953683933 1.71433822e-21)
(99.49765752 -0.2307293175 -1.03625826e-20)
(99.69487038 -0.3798808382 -1.733011876e-20)
(99.48896744 -0.3150260696 -1.472447569e-20)
(99.43264229 -0.1531750186 -8.105040442e-21)
(99.39764986 -0.2717545878 -3.203955861e-21)
(99.30883454 -0.1934156987 4.461942379e-23)
(98.99643417 -0.04427566817 1.312716105e-20)
(99.08220606 -0.147903678 1.333035404e-20)
(98.93078836 -0.2092261362 6.595508587e-21)
(98.80824249 -0.07813236588 2.265314597e-20)
(98.36618695 0.1848861738 -2.751801415e-20)
(98.47567127 0.02309448318 -2.298681196e-20)
(98.2348633 -0.03906417828 1.008285468e-20)
(98.1026918 0.206165087 -2.176004351e-20)
(98.04783182 0.1224313758 1.627812258e-21)
(97.57612175 0.5699358387 -6.84658285e-19)
(97.64569301 0.4384724492 -5.41690109e-19)
(97.46146517 0.4285713416 -9.416628866e-21)
(97.37564756 0.5783211522 -2.735442923e-20)
(96.22155546 1.432750664 -4.093432818e-19)
(96.32015218 1.205161512 4.098032405e-19)
(95.99678452 1.238249901 -9.133783054e-21)
(95.86704866 1.505957311 -2.802937107e-19)
(94.08429447 3.167333948 2.620010826e-19)
(94.17519215 2.777419108 -3.97409737e-20)
(93.63465824 2.877589542 -3.949032438e-20)
(93.4957517 3.354686279 1.648000803e-21)
(91.17526171 6.439448779 -4.894830437e-19)
(91.12053886 5.756770032 -3.653963962e-19)
(90.19967842 5.975281601 -5.878524473e-19)
(90.23342212 6.875293947 -1.769704952e-19)
(88.41920806 13.35531299 -2.759371295e-20)
(87.60349198 12.11054253 4.207719944e-19)
(85.68538268 13.63962309 1.183833168e-19)
(85.9252422 12.76125238 -1.838860004e-20)
(87.52916473 14.95987632 -1.811683906e-20)
(86.47656133 15.03116183 -1.829987239e-20)
(93.71354242 25.21696361 -3.179326233e-20)
(95.13452099 24.75500995 -2.835269348e-19)
(94.28908498 27.0771576 -7.165606017e-20)
(96.0056665 26.16267943 -2.39409083e-19)
(109.317989 21.18924533 8.124975661e-19)
(109.3878786 19.33837946 2.996432173e-19)
(111.0550793 18.74873882 0)
(110.2705252 21.88789348 -1.002562381e-18)
(112.3307031 20.4827338 0)
(111.9698686 21.3554307 0)
(111.3419903 12.18223285 4.283514113e-19)
(110.4108241 11.33674583 -2.834228872e-19)
(112.0059356 11.30432444 7.544494583e-19)
(110.9429173 10.66334064 2.228103335e-19)
(108.6676032 7.128408788 4.375151483e-19)
(109.4007424 7.433091178 0)
(109.6037821 6.847533939 0)
(108.8559268 6.65424027 0)
(106.7338689 4.713092941 -1.20554526e-18)
(107.2756351 4.852693895 4.791161023e-19)
(107.3069393 4.448949284 -8.560845519e-19)
(106.7775614 4.373741579 -1.720386579e-20)
(105.3901101 3.156006266 3.323579296e-19)
(104.983533 3.063323473 3.299843724e-19)
(105.3494136 2.866945435 7.939087722e-19)
(104.9624447 2.800738931 5.035376358e-19)
(103.3822897 1.726811542 4.575671562e-21)
(103.9371674 1.832190353 0)
(103.7824347 1.416731613 -2.705140763e-21)
(103.2933336 1.407202796 -4.815106412e-21)
(102.3717279 1.029303213 4.784353454e-21)
(102.7514304 1.076827266 -2.718602877e-23)
(102.6248071 0.8037782045 -7.675514405e-21)
(102.2892537 0.8083275638 9.699989029e-21)
(101.3342758 0.2644615395 -1.81830561e-22)
(101.6807022 0.1608147022 -3.15214218e-22)
(102.0347562 0.4444939411 8.506958812e-22)
(101.9103055 0.5700305938 7.029048516e-21)
(100.9351478 0.1268111208 -3.549094134e-21)
(101.1347431 0.0550882615 -2.533384303e-22)
(100.7140954 0.04819218238 2.635271096e-21)
(100.8084009 0.005858940336 -2.415545696e-21)
(100.6524538 -0.001697294288 4.670786077e-22)
(100.1623278 -0.151703834 1.518993281e-23)
(100.2830374 -0.09174536581 -3.075350564e-21)
(100.051819 -0.2955299563 -5.599302842e-22)
(100.2068368 -0.2726132855 1.342025965e-21)
(99.85194879 -0.4250322791 -4.416032126e-21)
(100.054081 -0.4460734476 -2.908928719e-21)
(99.51429723 -0.4772355366 9.122033692e-21)
(99.79341214 -0.6045224113 -1.003506836e-21)
(99.53662802 -0.5815543363 9.384634878e-22)
(99.41016218 -0.4065664727 4.430594468e-21)
(99.41771648 -0.5506218318 9.200824021e-21)
(99.2892514 -0.4851327933 6.476994344e-21)
(98.89255655 -0.3957747592 -2.223124174e-21)
(99.02561386 -0.4925240671 3.419694917e-21)
(98.88510841 -0.5999085246 2.261658634e-21)
(98.70614756 -0.4844669853 6.846367229e-21)
(98.14162794 -0.2983324414 2.621500768e-21)
(98.31909781 -0.4560371126 -3.763552484e-20)
(98.09435816 -0.5852653565 -4.001489012e-20)
(97.86957609 -0.3477015448 1.62143274e-19)
(97.84933157 -0.4612656562 -4.517303793e-19)
(97.19969548 -0.08780418049 0)
(97.32452512 -0.2184041721 0)
(97.14531372 -0.2829895456 0)
(96.99315834 -0.1386351799 0)
(95.45449869 0.4786340069 0)
(95.6589753 0.2475259667 4.967722299e-19)
(95.33539884 0.17887025 0)
(95.08115377 0.434086373 0)
(92.55295333 1.595503545 -1.739927015e-19)
(92.85650404 1.19245682 4.764893507e-21)
(92.32589577 1.070341052 2.187459271e-19)
(91.92350861 1.514104217 0)
(87.90760158 3.401582163 -1.009704076e-18)
(88.36098917 2.662142043 -1.983927172e-18)
(87.53923015 2.297109249 -1.945617982e-18)
(86.8422319 3.086336022 -8.80867641e-19)
(79.30276709 6.262594551 -3.002560013e-20)
(79.92177973 5.283925978 -3.84685194e-21)
(78.97754964 4.623217842 -1.226835683e-18)
(78.04501028 5.652064827 -1.233814673e-18)
(127.2330353 23.6932084 -2.620072943e-18)
(125.2249814 22.67251396 2.3088789e-18)
(127.8107618 21.57006386 8.756296253e-19)
(125.8858523 20.9929005 8.742628373e-19)
(118.982654 9.858732282 1.223358192e-19)
(117.2499368 9.503163654 1.257878112e-19)
(118.8721736 8.243132721 2.63517169e-18)
(117.2712233 8.246754861 5.936452323e-19)
(112.3063796 5.209602514 2.729543753e-19)
(113.2732034 5.196467287 9.576797106e-21)
(113.1065939 4.40346347 -3.099072767e-19)
(112.2115547 4.547168876 0)
(108.9102325 3.235521278 -1.162601055e-18)
(109.5490884 3.167817428 -9.679614609e-20)
(109.3751301 2.69303239 -1.553845636e-19)
(108.7919177 2.824512762 8.983186671e-19)
(106.7957505 1.963505064 2.954445764e-19)
(106.3382738 2.00898567 2.991965859e-19)
(106.6234087 1.638221361 -9.238984357e-19)
(106.2059693 1.709749637 4.513785208e-20)
(104.1249332 1.011410483 -5.273385487e-21)
(104.7369962 0.9483911768 1.415425936e-20)
(104.3899913 0.524188714 8.479706902e-21)
(103.9003221 0.6666959509 1.227222225e-21)
(102.8240458 0.5221160233 -2.075248846e-21)
(103.2189448 0.4562964282 1.467454103e-20)
(102.974748 0.1914467434 5.396009543e-21)
(102.6566013 0.296266807 1.067701659e-20)
(101.4646006 -0.04372054059 -3.617341056e-22)
(101.7684604 -0.2515840564 -1.124661363e-21)
(102.2445293 -0.04489773453 -1.144466089e-21)
(102.1863229 0.1440491642 -1.327112392e-21)
(100.9953692 -0.06327488165 1.140883194e-21)
(101.1530644 -0.2146925143 1.402396172e-21)
(100.7366807 -0.04241415103 -4.530499749e-21)
(100.7886626 -0.1450142997 1.738771681e-21)
(100.612426 -0.05032065845 -2.248393819e-21)
(100.3291836 -0.2115976999 -1.748475658e-21)
(100.4826388 -0.1216520335 9.693183298e-22)
(100.2110442 -0.4197656543 -1.018210186e-21)
(100.4032292 -0.3641371172 -7.166715376e-22)
(99.99795179 -0.6229092082 5.192689543e-22)
(100.2457488 -0.6066663626 -2.570186483e-22)
(99.62246861 -0.7593040251 5.959637053e-22)
(99.97678313 -0.8449427211 8.694873028e-22)
(99.68014941 -0.8751667155 5.175777744e-22)
(99.47901499 -0.7058698107 1.518601001e-21)
(99.53801469 -0.8639594233 -1.469001396e-23)
(99.37339113 -0.8217481046 -1.469210333e-23)
(98.91166311 -0.8168745268 -2.253652478e-21)
(99.08931514 -0.8926860061 0)
(98.97381985 -1.041393474 -1.101938586e-21)
(98.74604728 -0.9584333062 -1.165897763e-21)
(98.09739913 -0.8916144079 2.359891042e-21)
(98.33564556 -1.018205691 1.205106187e-21)
(98.15297821 -1.207824239 3.887882009e-20)
(97.84828518 -1.011354157 -5.184839945e-21)
(97.86725772 -1.140813632 -3.756374562e-19)
(97.08229646 -0.9110821054 2.005993905e-20)
(97.25567507 -1.016172636 -5.565814564e-19)
(97.09820683 -1.128367386 2.004370869e-20)
(96.89195385 -1.017219595 -3.267969796e-20)
(95.16106774 -0.7868422226 1.257011827e-18)
(95.43986977 -0.9651030047 6.596528697e-19)
(95.16820863 -1.116773248 -1.526186952e-18)
(94.8220267 -0.9342674138 -4.554608607e-22)
(92.06626129 -0.5842996205 -3.555925347e-19)
(92.51304321 -0.8560236722 0)
(92.11196123 -1.117074578 -3.081376477e-20)
(91.58047421 -0.8639371805 0)
(87.58919558 -0.8238449257 3.302740706e-21)
(88.29119774 -1.168079504 -4.701425533e-19)
(87.85963621 -1.681430303 -4.798203145e-19)
(87.05653297 -1.434414747 4.408034773e-19)
(82.03489933 -3.096103136 0)
(82.68737767 -3.110556413 -5.489019667e-19)
(82.61239939 -3.613771398 -5.49165591e-19)
(82.01443761 -3.71066904 -1.433397124e-18)
(140.2505469 5.397925714 4.106721428e-18)
(138.5391188 6.469835337 -2.735107411e-19)
(138.8438119 4.030933263 -2.565500087e-18)
(137.4193113 5.094681548 -9.251204268e-20)
(123.9456497 2.12115787 1.805774713e-18)
(122.2284596 2.887100455 3.321719878e-18)
(122.6921897 0.8254037546 -6.167337971e-19)
(121.3454889 1.685718084 9.473532704e-19)
(114.7916007 1.322328552 -6.326117158e-19)
(115.7031619 0.8479616876 0)
(115.0634671 0.1629644024 -6.821241489e-19)
(114.3006194 0.6834496891 6.194033972e-19)
(110.349542 0.7081232687 -8.05195067e-19)
(110.9354598 0.3822691246 -2.600380844e-18)
(110.5154124 -0.02954187069 0)
(110.0119036 0.3172522911 0)
(107.6336431 0.1436492573 1.755503489e-18)
(107.2067923 0.3461900722 8.609684131e-19)
(107.3129593 -0.1328406259 -8.421051906e-19)