/*--------------------------------*- C++ -*----------------------------------*\
| =========                 |                                                 |
| \\      /  F ield         | OpenFOAM: The Open Source CFD Toolbox           |
|  \\    /   O peration     | Version:  v1912                                 |
|   \\  /    A nd           | Website:  www.openfoam.com                      |
|    \\/     M anipulation  |                                                 |
\*---------------------------------------------------------------------------*/
FoamFile
{
    version     2.0;
    format      ascii;
    class       surfaceScalarField;
    location    "0.03";
    object      meshPhi;
}
// * * * * * * * * * * * * * * * * * * * * * * * * * * * * * * * * * * * * * //

dimensions      [0 3 -1 0 0 0 0];
oriented        oriented;


internalField   nonuniform List<scalar> 
25162
(
0
0
0
0
0
0
0
0
0
0
0
0
0
0
0
0
0
0
0
0
0
0
0
0
0
0
0
0
0
0
0
0
0
0
0
0
0
0
0
0
0
0
0
0
0
0
0
0
0
0
0
0
0
0
0
0
0
0
0
0
0
0
0
0
0
0
0
0
0
0
0
0
0
0
0
0
0
0
0
0
0
0
0
0
0
0
0
0
0
0
0
0
0
0
0
0
0
0
0
0
0
0
0
0
-1.049120242e-08
8.810413088e-08
-9.866685145e-07
0
2.225210497e-08
8.388024203e-07
0
0
0
0
0
0
0
0
0
0
0
0
0
0
0
0
0
0
0
0
0
0
0
0
0
0
0
0
0
0
0
0
0
0
0
0
0
0
0
0
0
0
0
0
0
0
0
0
0
0
0
0
0
0
0
0
0
0
0
0
0
0
0
0
0
0
4.94262811e-08
-1.236798206e-06
-4.436272318e-06
7.863016548e-06
1.705143877e-05
-7.105241186e-05
-3.906714609e-05
0.0001006979608
2.251104255e-05
-0.0001863728577
-3.914638224e-05
0.0002082320652
-2.638865602e-06
-0.0002384896138
4.329458175e-06
0.0002351311845
-2.310238625e-05
-0.0001870500084
4.153842093e-05
0.0001609191745
-1.11055234e-05
-7.179466843e-05
3.042161481e-05
4.480207357e-05
0
-1.332703929e-06
6.899505179e-07
0
0
0
0
0
0
0
0
0
0
0
0
0
0
0
0
0
0
0
0
0
0
0
0
0
0
0
0
0
0
0
0
0
0
0
0
0
0
0
0
0
0
0
0
0
0
0
0
0
0
0
2.3742751e-06
-2.203489729e-06
-1.185716201e-05
1.601072643e-05
8.055568032e-05
-0.0001432365011
-0.0001235851157
0.0002054713817
0.0001481427211
-0.0004115433873
-0.0001943632971
0.000477794468
0.0001081225156
-0.0006399782293
-0.0001347174417
0.0006771085221
-1.082132199e-05
-0.0007264522665
1.315309783e-05
0.0007212071055
-0.000119501259
-0.0006416608246
0.0001498611051
0.0005955985879
-0.0001357776367
-0.0004139799869
0.0001821907823
0.0003448225753
-5.455741687e-05
-0.0001450537373
9.139999757e-05
9.047798913e-05
0
-2.196746878e-06
1.838488035e-06
0
0
0
0
0
0
0
0
0
0
0
0
0
0
0
0
0
0
0
0
0
0
0
0
0
0
0
0
0
0
0
0
0
0
0
0
0
0
0
0
0
0
0
0
0
-7.883322589e-07
6.540039165e-07
9.129358134e-05
-8.258613351e-05
-0.0001291059653
0.0001439731022
0.0002824041907
-0.0003914184752
-0.0003393729084
0.0004826908349
0.000340944749
-0.0007418103625
-0.0003873276701
0.0008154205013
0.0002122266378
-0.0009789258227
-0.0002343534864
0.001013002445
-1.944740998e-05
-0.001056284573
2.107843963e-05
0.001051906222
-0.0002393301983
-0.0009809834753
0.0002655696216
0.0009368493277
-0.0003332418301
-0.0007425698966
0.000382566739
0.000661084101
-0.0002407890452
-0.0003934101651
0.00029571517
0.0003151590128
-5.673725941e-05
-9.71607756e-05
8.948959518e-05
4.849044774e-05
0
0
0
0
0
0
0
0
0
0
0
0
0
0
0
0
0
0
0
0
0
0
0
0
0
0
0
0
0
0
0
0
0
0
0
0
0
0
0
0
0
0
2.345520405e-05
-7.435777522e-06
-3.775087282e-05
3.249122013e-05
0.0002708506769
-0.0001997202635
-0.000315964937
0.0002780960099
0.000503395261
-0.0005434096978
-0.000554368971
0.000630226798
0.0005060831131
-0.0008406994131
-0.0005349563801
0.0008915928239
0.0002802025065
-0.0009848741827
-0.0002884283047
0.0009988591119
-2.39011243e-05
-0.001009842919
2.419228834e-05
0.001009051356
-0.0003253415047
-0.0009869137151
0.0003350884252
0.0009673905338
-0.0005100542878
-0.0008500579237
0.0005411584472
0.0007913642112
-0.0004692889267
-0.0005534263105
0.0005197684128
0.0004663391921
-0.0002078161776
-0.0002134234074
0.0002483773223
0.0001426179061
-9.779729191e-06
-5.641092993e-06
9.934979375e-06
1.455136169e-07
0
0
0
0
0
0
0
0
0
0
0
0
0
0
0
0
0
0
0
0
0
0
0
0
0
0
0
0
0
0
0
0
0
0
0
-6.938274625e-07
3.750933988e-09
1.2740941e-07
8.421667153e-05
-2.676942064e-05
-0.0001010571371
6.054020386e-05
0.0004263812226
-0.0002250026061
-0.000456411632
0.0002964316868
0.0006708828049
-0.0005090912036
-0.0006960867043
0.0005713585382
0.0005869594685
-0.0007061880259
-0.0005996168161
0.0007318419802
0.0002897537421
-0.0007521653551
-0.0001257991377
-0.0001553979392
0.000378649387
0.000364959303
-0.0003784436233
-2.739155282e-06
2.829687436e-06
0.0003783530912
-0.0003822570073
-0.0003382402762
0.0007483005189
-0.0003685169272
0.0001825957654
0.0001581179265
-0.0007082996895
-0.0006210514641
0.0006333752154
0.0006779786828
-0.0006379880159
-0.0005241598975
0.0006648586411
0.0004574412205
-0.0003579089277
-0.0002442344417
0.0003941891157
0.0001798067547
-3.621626164e-05
-4.561083813e-05
5.935121713e-05
1.149171092e-05
0
0
0
0
0
0
0
0
0
0
0
0
0
0
0
0
0
0
0
0
0
0
0
0
0
0
0
0
0
0
0
0
0
2.910789513e-06
0
-6.247140744e-06
8.309017827e-07
1.046873193e-06
0.0001355167874
-2.712732492e-05
-0.000139655363
5.31367084e-05
0.0005216891417
-0.0001692404883
-0.0005298645523
0.000215712993
0.0007460171073
-0.0003497133868
-0.0007525760097
0.0003866297831
0.0006125681521
-0.0004540810889
-0.0006138418975
0.0004589439774
0.0001600713098
-0.0002414151457
-0.0001599081647
0.0002412520007
-0.0002397574524
-0.0001654229774
0.0001657925142
0.0002393879157
-0.0004555248766
-0.0006551762391
0.0006578009437
0.0004455720468
-0.0007379268337
-0.0003657761134
0.0007483050188
0.0003260712518
-0.0004687832906
-0.000189786773
0.000480230649
0.0001449606928
-3.903517058e-05
-9.154010791e-05
0.0001057847738
1.709435669e-05
0
0
0
0
0
0
0
0
0
0
0
0
0
0
0
0
0
0
0
0
0
0
0
0
0
0
0
0
0
0
0
0
0
8.126932733e-06
0
-1.025712877e-05
8.482995989e-07
5.65060267e-07
0.0001608276691
-1.292762918e-05
-0.0001652834986
2.384841869e-05
0.0005590094909
-7.03424205e-05
-0.0005648729487
8.822682759e-05
0.000769735446
-0.0001387151092
-0.0007730343003
0.0001521294574
0.0006152531779
-0.0001743239322
-0.0006153596983
0.0001749618241
0.0001609814462
-9.610327238e-05
-0.0001609559561
9.607778227e-05
-9.671614831e-05
-0.000166568506
0.0001666059114
9.667874294e-05
-0.0001758345718
-0.0006623404846
0.0006628215866
0.0001737553109
-0.0007769902576
-0.0001471325426
0.0007823089778
0.0001326799145
-0.0005231211477
-8.056844492e-05
0.0005316920025
6.296007133e-05
-1.87575625e-05
-0.0001237133851
0.0001295920109
9.1123255e-06
0
0
0
0
0
0
0
0
0
0
0
0
0
0
0
0
0
0
0
0
0
0
0
0
0
0
0
0
0
0
0
0
0
1.231524917e-05
0
-1.513416135e-05
-7.986220232e-07
-1.448620334e-06
0.0001763332569
8.666255594e-06
-0.0001807807361
-1.546256017e-05
0.000579156043
4.364495223e-05
-0.0005848151913
-5.431469657e-05
0.0007808911252
8.408143088e-05
-0.0007839794374
-9.185753313e-05
0.0006153963734
0.0001044174769
-0.0006154156639
-0.0001047752781
0.0001606846287
4.38873105e-05
-0.0001606569336
-1.976991059e-05
-2.414509496e-05
4.472587122e-05
-0.0001662690498
0.0001661630466
-4.461986806e-05
0.0001052823869
-0.0006617648775
0.0006609855862
-0.0001036333759
-0.0007778601863
8.681743432e-05
0.0007746483906
-7.803633116e-05
-0.0005256541784
4.698451962e-05
0.0005220577403
-3.654488985e-05
1.074830124e-05
-0.0001255871787
0.0001237469175
-5.189353763e-06
0
0
0
0
0
0
0
0
0
0
0
0
0
0
0
0
0
0
0
0
0
0
0
0
0
0
0
0
0
0
0
0
0
1.820020004e-05
0
-2.170518823e-05
-4.184882841e-06
-5.393181835e-06
0.0001946277355
3.578831395e-05
-0.0001994808278
-6.187092443e-05
0.0006020578089
0.0001674622346
-0.0006079813886
-0.0002068289436
0.0007932560007
0.0003147092971
-0.0007964059648
-0.0003422318127
0.0006154293866
0.0003838121912
-0.0006154292601
-0.0003842256753
0.0001602952425
0.0001836090928
-0.0001602471954
-8.963990487e-05
-9.401723501e-05
0.0001850139779
-0.0001652508491
0.0001650203473
-0.0001847834761
0.0003836252651
-0.0006560705377
0.000653029419
-0.000374613621
-0.0007471442745
0.0003056157762
0.0007334636878
-0.0002730481177
-0.0004808342602
0.0001586758811
0.0004680512793
-0.0001210778417
3.154812245e-05
-9.783298868e-05
9.184296576e-05
-1.353445367e-05
0
0
0
0
0
0
0
0
0
0
0
0
0
0
0
0
0
0
0
0
0
0
0
0
0
0
0
0
0
0
0
0
0
2.591245346e-05
0
-2.746759543e-05
-1.027054845e-05
-1.163123852e-05
0.0002152538418
6.985380845e-05
-0.0002213897247
-0.0001169654641
0.000626823693
0.0003028546604
-0.0006339959527
-0.0003709224581
0.0008062964781
0.0005542152416
-0.0008099860296
-0.0005997308811
0.0006154568712
0.0006635363314
-0.0006155405615
-0.0006635327914
0.0001598415824
0.0003231854364
-0.0001597718721
-0.0001593872908
-0.0001638678558
0.0003239406517
-0.0001636078334
0.0001633430151
-0.0003236758335
0.0006504205087
-0.000641895766
0.0006364865574
-0.0006261383753
-0.0006882378312
0.0004890689095
0.0006728603214
-0.0004298273503
-0.0004087789468
0.0002322663987
0.0003799119192
-0.0001704618883
3.527099965e-05
-6.118556199e-05
5.215336406e-05
-1.144138061e-05
0
0
0
0
0
0
0
0
0
0
0
0
0
0
0
0
0
0
0
0
0
0
0
0
0
0
0
0
0
0
0
0
0
3.814026591e-05
0
-4.909741484e-05
-2.221650044e-05
-2.706608308e-05
0.0002400914196
0.000115772229
-0.0002556586771
-0.0001857155481
0.0006580854885
0.0004555264566
-0.0006680057438
-0.0005515857467
0.0008220034762
0.0008041689698
-0.0008246687542
-0.0008667494566
0.0006156825912
0.0009436098231
-0.0006160867313
-0.0004628588854
-0.0004803467976
8.218618413e-05
0.000228951889
-8.224777089e-05
-0.0002288903022
7.724778504e-07
0.000114289405
-1.088552928e-06
-0.0002293661263
0.0001153927964
0.0004605164876
-0.0001618036067
0.0003423190687
-0.0009376317094
0.0004776616975
-0.0001810619376
-0.0006174955185
0.000890085377
0.0006045223251
-0.0008394026735
-0.0006109743608
0.0006205219059
0.0005879708644
-0.0005298901254
-0.0003088671751
0.0002565206095
0.0002888686883
-0.0001772882671
2.001104128e-05
-2.08981232e-05
1.632787571e-05
-1.955495204e-06
0
0
0
0
0
0
0
0
0
0
0
0
0
0
0
0
0
0
0
0
0
0
0
0
0
0
0
0
0
0
0
0
0
5.59826893e-05
0
-4.636148772e-05
-3.776376526e-05
-3.635724948e-05
0.0002791511917
0.0001699132142
-0.0002711913134
-0.0002654001643
0.0006940332705
0.0006199284247
-0.0006833410561
-0.000744220103
0.0008334463694
0.001064169483
-0.0008266781916
-0.001138414452
0.0006082099959
0.001224653985
-0.0006082099959
-0.0006037330612
-0.000620920924
8.025596094e-05
0.0006037330612
-0.0001555610431
7.530508214e-05
-0.0002995412668
-0.0003041917943
-2.871779635e-06
0.000299541261
2.871788449e-06
-0.0006037330612
0.0003041917914
0.001224653985
-0.000342280751
0.0003417161322
-0.00122178868
-0.0005718240919
0.001076720758
0.0005587501534
-0.0009960847883
-0.0005104529403
0.0006737990727
0.0004861748406
-0.000559789984
-0.00021113854
0.000227140912
0.0001847082464
-0.0001445038413
3.450527533e-06
-3.117285467e-06
1.408962171e-06
0
0
0
0
0
0
0
0
0
0
0
0
0
0
0
0
0
0
0
0
0
0
0
0
0
0
0
0
0
0
0
0
0
0
2.919392474e-05
0
-1.083043004e-05
-2.083694802e-05
-1.357932687e-05
0.0002147707678
0.000145733764
-0.0001874517995
-0.0002449095612
0.0006039134968
0.0006372235929
-0.0005628343741
-0.0007817615285
0.000771510439
0.001179503585
-0.000739947053
-0.001284351041
0.0006044504928
0.001475636852
-0.0005968360206
-0.001497583385
0.0001555610431
0.001504601371
-0.0002913240629
-0.001504601371
0.0001357630199
-2.554816237e-05
0.001504601371
2.554816239e-05
-0.001504601371
-0.000335159918
0.001479371289
0.0003285552471
-0.001439730172
-0.0005076877686
0.001193192737
0.0004841919159
-0.00107344158
-0.0003925318743
0.0006543943501
0.0003626438532
-0.0005122446985
-0.0001121089328
0.0001562065287
9.1131273e-05
-8.166067016e-05
0
0
0
0
0
0
0
0
0
0
0
0
0
0
0
0
0
0
0
0
0
0
0
0
0
0
0
0
0
0
0
0
0
0
0
0
0
2.66038555e-07
0
0
-1.325869703e-07
0
9.548796248e-05
5.758787726e-05
-6.636851551e-05
-0.0001290273823
0.0004060904436
0.0004721959528
-0.0003466644509
-0.0006135089863
0.0006032768786
0.001045091463
-0.0005451085086
-0.001175740996
0.0005339380151
0.00148237713
-0.0004988015064
-0.001551788917
0.0002801824171
0.001669764182
-0.0002672095605
-0.00168463401
-2.42144108e-05
0.001672198781
2.304417815e-05
-0.00164776988
-0.0002881870533
0.001491923593
0.0002675855733
-0.001407816714
-0.0003862384589
0.001061646005
0.0003457669254
-0.0009223564694
-0.0002509459411
0.0004886120298
0.0002096344891
-0.0003557574531
-3.698514524e-05
6.454966658e-05
2.185351878e-05
-1.757192035e-05
0
0
0
0
0
0
0
0
0
0
0
0
0
0
0
0
0
0
0
0
0
0
0
0
0
0
0
0
0
0
0
0
0
0
0
0
0
0
0
0
0
0
7.222643629e-06
1.483749306e-07
-1.202520253e-06
-1.115983672e-05
0.0001701615725
0.0001913883742
-0.0001185745093
-0.0002906433524
0.0003486761894
0.0006445336672
-0.0002817229419
-0.0007662913486
0.0003596903774
0.001090256613
-0.0003064701051
-0.001175652896
0.0002042466255
0.001343660892
-0.0001777804443
-0.00136847384
-1.765852272e-05
0.001347615356
1.540351771e-05
-0.001308957434
-0.0001892290844
0.001101497954
0.000159947694
-0.001004771294
-0.0002127114325
0.0006593454407
0.0001685422722
-0.0005364125651
-9.150955606e-05
0.000202281838
5.902558448e-05
-0.0001176811495
-3.048836398e-07
4.926347322e-07
0
0
0
0
0
0
0
0
0
0
0
0
0
0
0
0
0
0
0
0
0
0
0
0
0
0
0
0
0
0
0
0
0
0
0
0
0
0
0
0
0
0
0
0
0
0
0
0
1.419789656e-05
5.563981758e-06
-2.242831389e-06
-2.580064212e-05
0.0001054187046
0.0001781324973
-6.182078082e-05
-0.0002474970303
0.0001500452642
0.0004617221601
-0.0001050622242
-0.000524944019
9.529132908e-05
0.000657991655
-7.015454609e-05
-0.0006786823874
-8.271091487e-06
0.0006611758914
6.0635259e-06
-0.0006293775506
-7.540652936e-05
0.000469650786
5.160465222e-05
-0.0004010102108
-5.621168451e-05
0.0001860176429
3.01217695e-05
-0.000122470356
-2.839856074e-06
6.925468343e-06
7.8799768e-09
-7.441745356e-08
0
0
0
0
0
0
0
0
0
0
0
0
0
0
0
0
0
0
0
0
0
0
0
0
0
0
0
0
0
0
0
0
0
0
0
0
0
0
0
0
0
0
0
0
0
0
0
0
0
0
0
0
0
0
3.468657281e-07
0
0
-1.016111664e-06
1.404819335e-05
2.773477758e-05
-2.226917915e-06
-4.298540787e-05
1.451176665e-05
8.39140649e-05
-4.830958009e-06
-9.120392345e-05
-1.166350355e-06
8.498797396e-05
3.447592415e-07
-7.416917187e-05
-5.403591085e-06
2.943253776e-05
4.492772402e-07
-1.618625403e-05
0
0
0
0
0
0
0
0
0
0
0
0
0
0
0
0
0
0
0
0
0
0
0
0
0
0
0
0
0
0
0
0
0
0
0
0
0
0
0
0
0
0
0
0
0
0
0
0
0
0
0
0
0
0
0
0
0
0
0
0
0
0
0
0
0
0
0
0
0
0
0
0
0
0
0
0
0
0
0
0
0
0
0
0
0
0
0
0
0
0
0
0
0
0
0
0
0
0
0
0
0
0
0
0
0
0
0
0
0
0
0
0
0
0
0
0
0
0
0
0
0
0
0
0
0
0
0
0
0
0
0
0
0
0
0
0
0
0
0
0
0
0
0
0
0
0
0
0
0
0
0
0
0
0
0
0
0
0
0
0
0
0
0
0
0
0
0
0
0
0
0
0
0
0
0
0
0
0
0
0
0
0
0
0
0
0
0
0
0
0
0
0
0
0
0
0
0
0
0
0
0
0
0
0
0
0
0
0
0
0
0
0
0
0
0
0
0
0
0
0
0
0
0
0
0
0
0
0
0
0
0
0
0
0
0
0
0
0
0
0
0
0
0
0
0
0
0
0
0
0
0
0
0
0
0
0
0
0
0
0
0
0
0
0
0
0
0
0
0
0
0
0
0
0
0
0
0
0
0
0
0
0
0
0
0
0
0
0
0
0
0
0
0
0
0
0
0
0
0
0
0
0
0
0
0
0
0
0
0
0
0
0
0
0
0
0
0
0
0
0
0
0
0
0
0
0
0
0
0
0
0
0
0
0
0
0
0
0
0
0
0
0
0
0
0
0
0
0
0
0
0
0
0
0
0
0
0
0
0
0
0
0
0
0
0
0
0
0
0
0
0
0
0
0
0
0
0
0
0
0
0
0
0
0
0
0
0
0
0
0
0
0
0
0
0
0
0
0
0
0
0
0
0
0
0
0
0
0
0
0
0
0
0
0
0
0
0
0
0
0
0
0
0
0
0
0
0
0
0
0
0
0
0
0
0
0
0
0
0
0
0
0
0
0
0
0
0
0
0
0
0
0
0
0
0
0
0
0
0
0
0
0
0
0
0
0
0
0
0
0
0
0
0
0
0
0
0
0
0
0
0
0
0
0
0
0
0
0
0
0
0
0
0
0
0
0
0
0
0
0
0
0
0
0
0
0
0
0
0
0
0
0
0
0
0
0
0
0
0
0
0
0
0
0
0
0
0
0
0
0
0
0
0
0
0
0
0
0
0
0
0
0
0
0
0
0
0
0
0
0
0
0
0
0
0
0
0
0
0
0
0
0
0
0
0
0
0
0
0
0
0
0
0
0
0
0
0
0
0
0
0
0
0
0
0
0
0
0
0
0
0
0
0
0
0
0
0
0
0
0
0
0
0
0
0
0
0
0
0
0
0
0
0
0
0
0
0
0
0
0
0
0
0
0
0
0
0
0
0
0
0
0
0
0
0
0
0
0
0
0
0
0
0
0
0
0
0
0
0
0
0
0
0
0
0
0
0
0
0
0
0
0
0
0
0
0
0
0
0
0
0
0
0
0
0
0
0
0
0
0
0
0
0
0
0
0
0
0
0
0
0
0
0
0
0
0
0
0
0
0
0
0
0
0
0
0
0
0
0
0
0
0
0
0
0
0
0
0
0
0
0
0
0
0
0
0
0
0
0
0
0
0
0
0
0
0
0
0
0
0
0
0
0
0
0
0
0
0
0
0
0
0
0
0
0
0
0
0
0
0
0
0
0
0
0
0
0
0
0
0
0
0
0
0
0
0
0
0
0
0
0
0
0
0
0
0
0
0
0
0
0
0
0
0
0
0
0
0
0
0
0
0
0
0
0
0
0
0
0
0
0
0
0
0
0
0
0
0
0
0
0
0
0
0
0
0
0
0
0
0
0
0
0
0
0
0
0
0
0
0
0
0
0
0
0
0
0
0
0
0
0
0
0
0
0
0
0
0
0
0
0
0
0
0
0
0
0
0
0
0
0
0
0
0
0
0
0
0
0
0
0
0
0
0
0
0
0
0
0
0
0
0
0
0
0
0
0
0
0
0
0
0
0
0
0
0
0
0
0
0
0
0
0
0
0
0
0
0
0
0
0
0
0
0
0
0
0
0
0
0
0
0
0
0
0
0
0
0
0
0
0
0
0
0
0
0
0
0
0
0
0
0
0
0
0
0
0
0
0
0
0
0
0
0
0
0
0
0
0
0
0
0
0
0
0
0
0
0
0
0
0
0
0
0
0
0
0
0
0
0
0
0
0
0
0
0
0
0
0
0
0
0
0
0
0
0
0
0
0
0
0
0
0
0
0
0
0
0
0
0
0
0
0
0
0
0
0
0
0
0
0
0
0
0
0
0
0
0
0
0
0
0
0
0
0
0
0
0
0
0
0
0
0
0
0
0
0
0
0
0
0
0
0
0
0
0
0
0
0
0
0
0
0
0
0
0
0
0
0
0
0
0
0
0
0
0
0
0
0
0
0
0
0
0
0
0
0
0
0
0
0
0
0
0
0
0
0
0
0
0
0
0
0
0
0
0
0
0
0
0
0
0
0
0
0
0
0
0
0
0
0
0
0
0
0
0
0
0
0
0
0
0
0
0
0
0
0
0
0
0
0
0
0
0
0
0
0
0
0
0
0
0
0
0
0
0
0
0
0
0
0
0
0
0
0
0
0
0
0
0
0
0
0
0
0
0
0
0
0
0
0
0
0
0
0
0
0
0
0
0
0
0
0
0
0
0
0
0
0
0
0
0
0
0
0
0
0
0
0
0
0
0
0
0
0
0
0
0
0
0
0
0
0
0
0
0
0
0
0
0
0
0
0
0
0
0
0
0
0
0
0
0
0
0
0
0
0
0
0
0
0
0
0
0
0
0
0
0
0
0
0
0
0
0
0
0
0
0
0
0
0
0
0
0
0
0
0
0
0
0
0
0
0
0
0
0
0
0
0
0
0
0
0
0
0
0
0
0
0
0
0
0
0
0
0
0
0
0
0
0
0
0
0
0
0
0
0
0
0
0
0
0
0
0
0
0
0
0
0
0
0
0
0
0
0
0
0
0
0
0
0
0
0
0
0
0
0
0
0
0
0
0
0
0
0
0
0
0
0
0
0
0
0
0
0
0
0
0
0
0
0
0
0
0
0
0
0
0
0
0
0
0
0
0
0
0
0
0
0
0
0
0
0
0
0
0
0
0
0
0
0
0
0
0
0
0
0
0
0
-0.0001138275502
0.0001138120264
0.00016099697
0.0001468877144
0.0001142774713
-0.0001467994824
-5.504406413e-05
-5.932163909e-05
-0.0001446245502
-0.0002407007496
0.0001455678473
2.644985464e-05
0.0001607253511
-1.107375203e-05
-1.541682506e-05
0.0001466997281
-2.712763464e-05
-0.0001468025408
1.581763438e-05
1.14128129e-05
0.0001470258906
-4.62097453e-05
-5.064457927e-05
0.0001661386497
0.0001603308779
-8.092364436e-05
-8.525064076e-05
0.0001457547737
-0.0001674383881
-0.0001457792626
8.587805719e-05
8.158481985e-05
0.0001465967629
2.459565788e-05
2.023317852e-05
0.0003056498733
0.0001598543327
-0.0001506674316
-0.0001549951921
0.0001438843539
-0.0003063306733
-0.0001442283959
0.0003066747152
0.0001852517288
0.0001455170228
0.0002247960636
-0.0002247994839
8.218960446e-05
-0.0001133930754
-2.089383149e-06
2.03994446e-06
0.0001134425141
0.0001123058764
-0.0002253365271
4.100530966e-07
0.0001416546502
-0.0004439670777
-0.0001418820074
0.0004441944348
0.0003243743041
0.0001434507016
0.0002954475075
-0.0002954475075
8.025596094e-05
-0.0002954474912
-5.990977791e-06
5.99110923e-06
0.0002954473598
0.0001144277847
-2.227762826e-06
-0.0005862526067
0.000268423396
1.41828511e-05
5.327088795e-06
0.0002501521775
-0.001135566232
0.0005836657171
0.0005625064731
-0.0001212198723
-0.000139538263
0.0004607976614
0.0001413734765
-0.0002593335142
0.0002594254117
0.0001599794122
1.732772002e-05
-0.0003785087199
-1.726262348e-05
0.000258539335
-0.0001446619527
-0.0002585019325
-0.0001407283474
-0.0003809457803
0.0001394171203
1.930235973e-05
4.52060148e-05
-1.921448051e-05
-4.529389402e-05
0.0001241576077
-3.498644245e-05
-0.0001245914419
3.542027665e-05
0.0001142667453
-0.0001665577801
0.0005880917627
0.0002460084672
-0.0005878741035
-0.0002462233508
-0.0005851147951
-0.0004583902223
0.0005869955492
3.476733533e-05
-3.498218973e-05
0.0006153938184
-0.0001802759441
0.0001803177034
2.640809538e-05
0.0001805641022
-9.611747005e-05
-0.0001805499045
2.134566193e-05
9.269932226e-06
-2.136576521e-05
-9.249828946e-06
-2.003030485e-05
2.559014488e-05
-2.531193326e-05
1.975209323e-05
-2.704593005e-05
-0.0001663507544
0.0005872672963
-3.521928977e-05
-0.0005876053104
3.553648269e-05
-0.0001757724536
0.0005880494271
0.000313929065
-0.000314396002
0.0006154391538
-0.0001798800488
0.0001799230415
0.0001660956571
4.383882155e-05
-0.0001802274552
-0.000160512042
9.633849873e-05
0.0001605646089
-4.59981825e-05
-5.039288313e-05
-4.883044905e-05
-2.569403894e-05
4.868332419e-05
5.036580649e-05
-2.45246427e-05
4.871595078e-05
-9.360046727e-06
1.981821373e-05
-4.869225802e-05
-1.048185976e-05
1.90240346e-05
-2.629449243e-05
-1.912548258e-05
2.639594041e-05
-1.959103325e-05
-9.329782752e-06
9.081794891e-06
1.983902111e-05
-0.0001672822812
-0.0001654069561
0.0005845128244
-0.0003139681615
-0.0005856158449
0.0003153361034
0.0001056408883
0.000586876524
0.0005935147822
-0.0005935620636
0.0006153034654
-0.0001794420769
0.0001794914941
0.0003056004561
0.0001835487239
-0.0001798196799
-0.0001599890301
0.0002359885319
0.000160099817
-0.0001158845827
-0.0001202147361
-2.379832166e-05
-6.081714605e-05
2.385282267e-05
6.076264504e-05
4.844125497e-05
-4.435373186e-05
8.971150335e-05
-4.839791269e-05
-4.540111378e-05
3.584024506e-05
-0.0001210288371
-3.595869963e-05
0.0001211472917
-3.642883673e-05
-9.066443741e-05
3.619817262e-05
4.606279625e-05
4.483230527e-05
0.0008735917862
0.0006156739875
-0.0004280798021
-0.0004455033803
-0.0001792581285
-0.0002206002922
0.0001791410431
0.0004455134411
0.0003231442791
-0.0001794009196
-8.224530086e-05
0.0001900497026
-0.0001900850697
8.2280668e-05
-2.460901023e-05
-9.535627345e-05
2.450541841e-05
9.545986527e-05
2.431422732e-05
-7.936850735e-05
7.924661476e-05
-2.419233473e-05
9.67874082e-05
2.235688532e-08
-9.654491627e-05
-2.648488206e-07
3.461067181e-05
-0.0001906048097
-3.464517617e-05
0.0001906393141
-3.532757374e-05
-0.0001602620347
0.00016030494
3.528466847e-05
0.001093127865
0.0006116070794
-0.0005102723421
-0.0005862526067
-0.0001753726429
-0.0002908050992
0.0001753726429
0.0005862526067
-0.000233797897
0.0004627462278
-0.0001792545703
-8.218416697e-05
0.0002598789284
-0.0002598573124
8.216255104e-05
-2.376699217e-05
-0.0001310818437
2.389770483e-05
0.0001309511311
2.465787378e-05
-0.0001142404482
0.000114031444
-2.444886964e-05
0.000726080004
-0.000726080004
0.0001555610431
-0.000726080004
-1.693293535e-05
1.693293535e-05
0.000726080004
0.000299541193
-5.990909782e-06
4.388749054e-05
-8.581360153e-05
-4.385060694e-05
4.340234761e-05
4.237437033e-05
-4.414001001e-05
-5.468503935e-05
4.403697913e-05
2.803684067e-05
2.675122955e-05
-0.0001240912535
4.152570717e-05
-4.142596073e-05
0.0001239915071
-9.047448666e-05
9.055538716e-05
4.380659003e-05
2.686058749e-05
-2.021025906e-05
-2.668063328e-05
4.398807997e-05
-4.400818193e-05
1.932246169e-05
-0.0001464402774
0.0001680157436
0.0001466449389
-8.200758262e-05
-8.621282257e-05
-4.151893263e-05
-4.267129037e-05
4.166875717e-05
8.65095458e-05
2.090675472e-05
2.695196693e-05
-2.099813416e-05
-8.292525008e-06
4.873348652e-05
1.5468374e-05
-7.19338473e-06
1.505697704e-05
4.865528749e-05
-1.507007534e-05
-4.864218919e-05
0.0001608506087
-2.591208634e-05
-0.0001608150329
2.587651057e-05
4.373746336e-05
-4.368421262e-05
8.020117547e-06
6.983608755e-06
-2.26471727e-05
-8.30322384e-06
2.265787153e-05
-5.018177249e-05
-4.411036566e-05
2.568211726e-05
2.447001089e-05
-1.94230969e-05
4.378348396e-05
1.022620258e-05
9.150873733e-06
-8.19602873e-06
-1.934015473e-05
7.945150208e-06
7.971692283e-06
-7.941968071e-06
2.131593772e-05
-7.593224013e-05
1.515470636e-05
-1.513811261e-05
7.591564637e-05
-2.234183185e-05
2.22925358e-05
8.020988324e-06
2.062969563e-05
-8.357916413e-06
-2.046780795e-05
2.074363632e-05
2.575326328e-05
9.249755021e-06
-2.232165464e-05
1.954914048e-05
-7.594344286e-05
-1.953793775e-05
-4.322658104e-05
4.848337092e-05
8.532608436e-05
-4.214161926e-05
-2.676539164e-05
5.482575624e-05
-4.886400836e-05
-2.802680528e-05
0.0001138587431
-0.000160439323
-5.478842189e-05
-5.914304018e-05
2.289321602e-05
-2.291928963e-05
-2.673931803e-05
-2.230373041e-05
-4.327938175e-05
2.235653112e-05
-2.261753855e-05
-9.38968088e-06
-2.554233518e-05
2.274151226e-05
-8.617005494e-05
-3.646054286e-05
4.364807365e-05
4.255368742e-05
-2.728296381e-05
2.730789152e-05
1.899910689e-05
-0.000146191266
-0.0001148867988
0.0001460642102
5.965209572e-05
5.536175881e-05
-4.157983209e-05
2.827145113e-05
4.149555835e-05
-5.547014121e-05
4.120963066e-05
-8.611977527e-05
-4.125991033e-05
2.078680455e-05
-9.486891673e-06
2.511737293e-05
-5.115274481e-05
-2.03411354e-05
-2.149781724e-05
-9.743765411e-05
-0.0001463243023
5.095856933e-05
4.661212108e-05
-7.823424247e-05
2.442597053e-05
7.812249927e-05
-6.189709594e-05
6.18232224e-05
-2.372444812e-05
0.0002532433447
-0.0001600033667
-0.0001245007038
-0.0001287283043
2.274794118e-05
-2.265684219e-05
-6.198819494e-05
-2.34767267e-05
-7.839408156e-05
2.363656579e-05
-2.227456198e-05
-4.43829003e-05
-6.093092296e-05
2.28617181e-05
-0.000155971308
-3.541493475e-05
0.0001560586691
-0.0001255409477
0.0001255712418
3.580995089e-05
-0.0001131432167
2.478886269e-05
0.0001130122278
-9.680476623e-05
9.677851402e-05
-2.458275802e-05
0.0001943666326
-8.223444644e-05
-0.0001943774871
1.672803096e-06
-9.727679639e-05
9.701336844e-05
-1.409375144e-06
2.363842222e-05
-2.351890133e-05
-9.692428713e-05
-2.308866354e-05
-0.0001133858497
2.333129652e-05
-2.330870606e-05
-7.9536528e-05
-9.524181414e-05
2.352396291e-05
1.225352032e-06
9.723485927e-05
6.328882595e-05
-0.0004447211676
-6.35092814e-05
0.0002244915891
0.000220450034
-0.0001947652409
0.0001947769163
3.459899635e-05
1.394221367e-08
-9.726838171e-05
-0.0002977939905
-4.633777976e-05
0.0002966209107
2.471330936e-05
2.279755015e-05
-0.0001322477113
0.0001320753528
-2.359463363e-05
0.0002641740649
-8.224009844e-05
-0.0002641181334
8.335875853e-06
-0.0002620064072
0.000262369094
-8.698562695e-06
2.00190347e-05
-2.003537129e-05
-0.0001322313747
-4.056417396e-05
-0.0002975659356
2.147827168e-05
1.885784737e-05
-2.288615425e-05
-0.0001144429575
2.006992857e-05
-0.0001311327376
-0.0002579329416
7.836341247e-06
0.0002584324762
-0.0002441913213
0.0002453616033
0.0006150023097
0.000180579109
-0.000113842557
0.0001797727523
-0.0002409843809
-0.0001802035171
-0.0001608679426
-0.0001853849517
0.000185406841
0.0001608460533
-4.871109812e-05
4.868544206e-05
-9.044883059e-05
4.788378875e-05
-0.0001243227431
-4.765229914e-05
3.104156861e-07
5.288710541e-05
-1.225316603e-05
-4.094435506e-05
6.492152245e-05
-7.970282078e-06
-6.59341829e-05
8.982942534e-06
-4.341564119e-05
4.337988901e-05
0.0001608863608
4.868308366e-05
-1.945089308e-05
4.883047265e-05
-5.018016745e-05
-4.88320777e-05
2.405822696e-05
-5.319731692e-05
-1.336875871e-05
4.250784867e-05
-0.000306105474
-0.0001638330327
0.0005792211996
-0.00058571307
-0.0005811730418
0.0005936311547
0.00038525718
0.0005836805211
2.170122894e-05
-8.769268649e-05
-6.646599878e-06
7.263805743e-05
1.56790189e-05
-0.0001735457212
-1.586177018e-05
8.740348553e-05
8.632498693e-05
-8.650237809e-06
-7.971474798e-05
7.971422043e-05
8.650765366e-06
-2.880946622e-06
-0.0002575749075
2.522912599e-06
6.444609447e-05
-0.0005119028779
-6.361864779e-05
0.0005110754313
-0.0004615277614
6.308650571e-05
0.000232925944
0.0002288041377
4.879708697e-05
-5.465165367e-05
-8.581338416e-05
-4.87113155e-05
-0.0001667275987
-0.0001609595657
0.0001668192217
1.14569743e-05
-3.366772109e-05
-1.149987395e-05
3.371062075e-05
-6.480418102e-05
1.022260344e-05
-1.112074282e-05
6.570232041e-05
-5.464629795e-05
-1.206872271e-05
5.457539201e-05
1.213962865e-05
-3.929915374e-05
4.025657303e-05
0.0001232001884
-4.623296408e-05
9.118425943e-05
-4.126421318e-05
0.0001857208812
-0.0001466204654
-9.061097175e-05
-9.492972141e-05
-7.876948991e-05
-8.727920197e-06
7.884717229e-05
-9.680977636e-06
-7.120257059e-05
7.145241661e-05
9.431131621e-06
-0.0001449810223
-0.0002543057617
0.0002545761282
0.0001447106557
-4.078882787e-05
4.067813813e-05
-0.0001254302579
4.022073953e-05
-0.0001558641994
-4.032784816e-05
4.111886451e-05
-9.057367126e-05
-0.000121004669
-4.081299597e-05
-0.0002371910283
-0.0001451842797
0.0002373942857
9.289329417e-07
-0.0001061341866
0.0001064687107
-1.263457044e-06
0.0001216055801
-9.308139171e-06
-0.0001214620158
9.164574955e-06
-6.880468277e-06
-0.0002418911631
6.655783699e-06
0.0001214597114
0.0001206561362
0.0001570767874
5.34319737e-06
-0.0001570257205
-5.394264259e-06
-0.0003241119912
7.401193325e-05
-3.119168558e-05
-3.957928451e-05
0.0001616290553
0.0001592419727
-0.0001276592826
0.0001301019388
3.90830509e-05
0.0001284966324
-3.471866607e-05
-0.0001287644088
0.0003186233396
-5.816513792e-05
-0.0001575026081
-0.0001579248959
3.198267981e-05
2.298662258e-05
2.158893666e-06
-2.267158907e-06
0.0001571850526
7.026028864e-05
-6.994987296e-05
-3.623426085e-05
0.0001053366006
3.660883317e-05
-5.223724511e-05
-5.347392777e-05
-9.074809142e-06
2.502597113e-05
5.430912665e-05
-9.779526704e-06
1.03693376e-05
6.433171156e-05
5.47821009e-05
-1.096980464e-05
0.0001095353325
-3.644338124e-05
-5.417072897e-05
-5.515548312e-05
-1.820010971e-05
1.716868892e-05
-1.717799794e-05
1.820941873e-05
1.803721985e-05
-1.831140433e-05
-1.792592522e-05
-1.889822149e-05
-1.845620839e-05
1.83659489e-05
1.898848098e-05
-1.755595461e-05
-1.899624096e-05
1.765397408e-05
-6.101511992e-05
9.686830398e-06
-9.121650164e-06
6.044993968e-05
-5.548720246e-05
7.175104174e-05
7.794387682e-06
-3.615721139e-05
-0.0001079192908
0.0001079385037
3.613799856e-05
-1.151569689e-05
1.049002773e-05
-5.44615333e-05
1.090381947e-05
-6.118760557e-05
-1.073133382e-05
-1.026648533e-05
1.407810976e-05
-4.391808366e-05
4.010645922e-05
-5.279554781e-05
-1.1917466e-05
-0.0001036244274
-3.620291735e-05
5.237347156e-05
5.129666182e-05
-8.819552588e-05
2.335329455e-05
8.809242972e-05
-2.325019839e-05
6.273446096e-05
0.000176851448
-6.272315386e-05
-0.0001768627551
-6.268239363e-05
0.00019010151
-0.0001901366847
6.271756832e-05
1.506202714e-05
-0.0001908008642
-1.520283762e-05
0.0001909416747
-0.0001778392756
1.548361528e-05
8.959125743e-05
8.844342177e-05
0.0001129029441
-1.053428979e-06
-9.014828618e-05
2.294333314e-05
-0.0001230542179
0.0001228384461
-2.27275614e-05
6.244962182e-05
0.0002465974885
-6.249529666e-05
-0.0002465518137
-6.250622332e-05
0.0002598461241
6.241042403e-05
-0.0001292862811
-0.0001304640437
6.260855657e-05
0.000228897828
-6.261893275e-05
-0.0002288874519
0.0002422204956
-0.0002422391608
6.246828705e-05
-0.0001220019356
2.313212702e-05
0.0001218131417
-4.639135609e-05
1.10866398e-05
-2.594744042e-05
6.12521567e-05
-3.455403746e-05
1.14959198e-05
3.451509196e-05
-4.382830833e-05
-7.242656984e-05
4.388605326e-05
3.668812469e-05
3.568070022e-05
-1.383723317e-05
1.4070667e-05
-3.478747129e-05
1.383189411e-05
-4.524640841e-05
-1.497684179e-05
-1.356563794e-05
1.633708969e-05
-2.73323437e-05
2.456089195e-05
-3.388371332e-05
-1.362124094e-05
-6.80729062e-05
-4.388031602e-05
3.464665582e-05
3.347825807e-05
-4.35084397e-05
-0.0001103133926
0.0001104489293
4.337290294e-05
-1.387536958e-05
1.391743641e-05
-5.468836478e-05
1.02364443e-05
-6.291321202e-05
-1.212741331e-05
4.619660941e-05
1.342641922e-05
-4.579113452e-05
5.36892666e-05