/*--------------------------------*- C++ -*----------------------------------*\
| =========                 |                                                 |
| \\      /  F ield         | OpenFOAM: The Open Source CFD Toolbox           |
|  \\    /   O peration     | Version:  v1912                                 |
|   \\  /    A nd           | Website:  www.openfoam.com                      |
|    \\/     M anipulation  |                                                 |
\*---------------------------------------------------------------------------*/
FoamFile
{
    version     2.0;
    format      ascii;
    class       volScalarField;
    location    "2.21";
    object      omega;
}
// * * * * * * * * * * * * * * * * * * * * * * * * * * * * * * * * * * * * * //

dimensions      [0 0 -1 0 0 0 0];


internalField   nonuniform List<scalar> 
12556
(
31.93074397
31.93156995
31.9324665
31.93329489
31.9666672
31.96719942
31.96762434
31.96844843
31.97010348
31.97305721
31.97761286
31.98318403
31.98758989
31.98905245
31.98618031
31.98135226
31.97629586
31.97184844
31.96978351
31.96798193
31.93454622
31.93329692
31.93220925
31.93116084
31.79385761
31.79638247
31.79905298
31.80144984
31.83543727
31.83729481
31.83956863
31.85892467
31.86642376
31.87996324
31.90106263
31.92731866
31.9493266
31.95691872
31.94684722
31.92487103
31.90046776
31.88082066
31.85205905
31.84293985
31.80565076
31.80204239
31.79879988
31.79587344
31.65864041
31.66306471
31.66764306
31.67140176
31.705978
31.70953973
31.71469605
31.73856116
31.7564523
31.78816672
31.83751535
31.89706237
31.94169021
31.9567697
31.93679064
31.8888059
31.83612341
31.79148219
31.74362645
31.72372455
31.68070332
31.67408662
31.66843496
31.66343129
31.52488511
31.53079885
31.53695824
31.54217612
31.57775155
31.58398072
31.59457969
31.62772126
31.66476542
31.73329705
31.83849458
31.9645497
32.05604833
32.07260905
32.01240555
31.91858518
31.81867851
31.73193957
31.65317604
31.61516869
31.56078639
31.54960528
31.54096299
31.53393809
31.3932399
31.40083818
31.40866121
31.41538659
31.45208023
31.46193218
31.48049157
31.5285615
31.60447313
31.74714455
31.99408952
32.31913518
32.55981107
32.53464273
32.32443376
32.09043092
31.88735632
31.72221374
31.59087394
31.52124683
31.4474019
31.42900605
31.41636781
31.406679
31.26283304
31.27177242
31.28114633
31.28979461
31.32918122
31.34499468
31.37730608
31.4485638
31.5843689
31.88694081
32.5148177
33.64657962
34.60797167
34.2015117
33.24683231
32.56487703
32.11508456
31.78814998
31.56075367
31.44561909
31.34203439
31.31126071
31.29317412
31.28054866
31.13445852
31.14511483
31.15643243
31.16737993
31.20918814
31.23295655
31.28431758
31.38954896
31.61821504
32.22234158
33.80881299
38.92010823
45.07887548
42.128427
35.76975129
33.61387813
32.58823332
31.970554
31.57223911
31.39056558
31.24420423
31.19718976
31.17164869
31.15544432
31.00793479
31.01996534
31.03320449
31.04700187
31.09314057
31.12686122
31.20193893
31.34453952
31.70084779
32.7172418
35.91961707
52.1171402
68.08730611
41.67219971
35.52051475
33.37771571
32.28889083
31.62918793
31.35282265
31.15475324
31.08640001
31.05117234
31.030774
30.88427716
30.89834426
30.91423471
30.93163864
30.9820504
31.02745713
31.12888969
31.31076678
31.80921239
33.21979699
37.62412192
61.57377661
125.9757584
50.4688147
38.18769002
34.43868368
32.72130708
31.7307642
31.33067604
31.07333084
30.98075355
30.93383164
30.90860125
30.76351957
30.779118
30.79758064
30.81908781
30.87631591
30.93425625
31.06239554
31.28412477
31.91427434
33.61678045
38.60383569
67.92961057
157.2284151
58.20648895
40.97506074
35.62371265
33.21358568
31.8592477
31.32220248
30.99997641
30.88093739
30.82086089
30.79021574
30.64719402
30.66518503
30.68683644
30.71352493
30.77526578
30.84656612
31.00025501
31.26242734
32.01181838
33.93885561
39.38644473
76.73363068
157.5397129
62.7722722
43.33484982
36.73113103
33.69692278
31.99053705
31.3229995
30.93430466
30.78939159
30.71564086
30.67902628
30.53417292
30.55389062
30.57834697
30.61029213
30.67833276
30.76322401
30.94047125
31.24389681
32.09971366
34.22708945
40.26413456
87.23997281
145.9367317
64.6129381
44.98368663
37.60865429
34.09767537
32.10367563
31.3254954
30.87538328
30.70496321
30.61797899
30.57526757
30.42642199
30.44842525
30.47660039
30.51421979
30.58457751
30.6827902
30.88125974
31.22483317
32.17862069
34.50565784
41.43785274
97.15638265
644.4753104
125.8867445
64.86451811
45.92648973
38.23338546
34.38185633
32.18435417
31.322861
30.82026099
30.62861215
30.52888787
30.48022752
30.32102555
30.34502688
30.37662816
30.41898416
30.4965653
30.61212173
30.83588286
31.21716596
32.28391684
34.88443969
43.37460141
145.1330122
404.481582
117.2980694
64.46592164
46.50811363
38.5656639
34.53149488
32.23014395
31.31005987
30.76427356
30.55601871
30.4450969
30.39109972
30.2196115
30.24563642
30.28040477
30.32664753
30.40820919
30.5352235
30.77396308
31.17881048
32.28012138
35.01000541
45.39159933
469.1408326
289.7160694
109.7556739
63.74591886
46.63204529
38.69625106
34.57042756
32.23153076
31.2839905
30.70788184
30.48645038
30.36535642
30.30653415
30.11830567
30.14619467
30.18395136
30.23437738
30.32063269
30.45653687
30.70786774
31.12415642
32.21335081
34.94216283
46.63041609
626.6964553
261.4768708
107.2267333
63.79665743
46.70109658
38.6324728
34.52173009
32.20232857
31.24394482
30.64493196
30.41350651
30.2853864
30.22251974
30.01954229
30.0493169
30.08968663
30.14310557
30.23246701
30.37489444
30.63644257
31.06319926
32.11771436
34.74308675
46.14281751
457.3481519
269.5970906
108.8778132
64.36482724
46.69245545
38.46637633
34.43367949
32.14715285
31.19097083
30.57749602
30.33943153
30.20471168
30.13826566
29.91849786
29.94989234
29.99272598
30.04957198
30.14283752
30.28960393
30.55840522
31.00027676
32.03558686
34.55208432
45.26066842
313.6909313
291.8259183
112.0166424
64.64820228
46.37933019
38.23768161
34.31803203
32.06999475
31.12155144
30.49989344
30.25728327
30.11904816
30.04976978
29.81922216
29.85214146
29.89705634
29.95599849
30.0510433
30.20040593
30.47383813
30.92700547
31.98232028
34.52843361
45.48972918
257.7809409
297.5388698
112.1977793
63.84561347
45.88219434
38.01361846
34.18812108
31.97956538
31.04084255
30.41601586
30.17097941
30.03005837
29.95902472
29.71585086
29.74988503
29.79673698
29.85855613
29.95680286
30.10743441
30.38344844
30.844536
31.91715123
34.59236287
47.2842037
279.0920495
276.4317267
109.1374529
62.9630714
45.46682335
37.80511561
34.05394709
31.88076633
30.9512714
30.32371072
30.07654036
29.93369119
29.86154772
29.61467848
29.64960555
29.69787229
29.76096468
29.85983534
30.01099313
30.2881794
30.75478115
31.84203781
34.65513106
49.54246524
287.6193254
257.5325062
106.5677243
62.38765573
45.14096402
37.61771312
33.92223008
31.77735825
30.85508078
30.22706047
29.97906107
29.83492516
29.76206349
29.50805871
29.54341006
29.59293211
29.65837244
29.76020556
29.91144186
30.18902429
30.65956158
31.76047369
34.72474753
51.93965566
283.7025515
242.7663879
104.4356399
61.97263596
44.91384536
37.45744508
33.79804319
31.6725537
30.75423763
30.12316856
29.87356833
29.72840394
29.6552773
29.40526353
29.44080893
29.49095129
29.55664705
29.6579215
29.80917771
30.08686339
30.56054561
31.67605216
34.82347437
54.01190347
273.6181245
230.7036854
102.6193884
61.64087524
44.77549201
37.33132521
33.68554674
31.56879362
30.6503264
30.01772281
29.76770375
29.62190909
29.5487057
29.29556289
29.33091926
29.38166536
29.44922838
29.55348386
29.70470074
29.98258433
30.45946126
31.59354955
34.99024662
55.61199919
260.9705573
220.4956722
101.0503563
61.36961063
44.70351433
37.24218807
33.58695492
31.46731348
30.54451604
29.90601153
29.65403684
29.50754425
29.43452022
29.19238895
29.22742265
29.27813846
29.3449808
29.44719613
29.59865911
29.87722171
30.35831807
31.51894397
35.24507294
56.80152228
247.4127607
211.8085326
99.70915052
61.16372514
44.68238836
37.18585708
33.50113344
31.3679412
30.43736869
29.79582867
29.54354351
29.3967318
29.32394393
29.08004923
29.11451573
29.16542787
29.23405797
29.33989675
29.49176065
29.77182604
30.2590856
31.45812966
35.56489234
57.67041389
233.8479729
204.4438289
98.58439638
61.0284734
44.69919338
37.15376611
33.42412318
31.26951352
30.32911429
29.67909541
29.42430653
29.27691783
29.20449692
28.97821132
29.01209026
29.06260183
29.12979244
29.23185357
29.38470497
29.66733348
30.1632342
31.4151747
35.90924807
58.29912839
220.9055926
198.0689882
97.62729568
60.95494019
44.74537478
37.1357217
33.35100785
31.17064958
30.21967451
29.56732494
29.31264756
29.16516469
29.09310348
28.86344335
28.89659488
28.9471432
29.01649879
29.12399777
29.27807073
29.56442645
30.07167559
31.39131428
36.24741819
58.74014221
208.8345025
192.3048616
96.78940169
60.92755806
44.80754824
37.12214956
33.27757259
31.07036093
30.10914621
29.44679758
29.18917533
29.04119015
28.96954898
28.76497216
28.7974674
28.84749781
28.91491695
29.01624131
29.17230157
29.46349186
29.98482758
31.38509997
36.56146948
59.01850061
197.587913
187.1149954
96.04746336
60.9324476
44.87347793
37.10563753
33.20131341
30.9683912
29.99758386
29.33609488
29.07933681
28.93142045
28.86015016
28.64738039
28.67912504
28.72917731
28.79940581
28.90962044
29.06774102
29.36470039
29.9025888
31.39155627
36.84164505
59.15792191
187.2609512
182.2785907
95.38793356
60.96417682
44.93531501
37.08184557
33.12148721
30.86511939
29.88554918
29.21171128
28.95147974
28.80307768
28.73219493
28.55471783
28.58585739
28.63546388
28.70348681
28.80357106
28.96470059
29.26829271
29.8248204
31.40572195
37.07679481
59.13381672
177.3920663
178.1672033
94.89430501
61.02028152
44.98171553
37.04708077
33.03819774
30.76124076
29.7732973
29.10530475
28.84661781
28.69829221
28.6277106
28.43297725
28.46340705
28.51305102
28.58442009
28.69947816
28.86351991
29.17480692
29.75212427
31.42375276
37.25904034
58.90180666
167.4528114
175.0717235
94.55488196
61.04129412
44.98885411
36.99522498
32.9514469
30.65745992
29.66166142
28.97550467
28.71272238
28.56386515
28.49358228
28.34922046
28.37916045
28.42856575
28.49800706
28.59614775
28.76455055
29.08506816
29.68633405
31.44935116
37.41130942
58.56239158
158.2553574
171.8081326
93.98991964
60.91026899
44.92005707
36.92098821
32.8613383
30.55439421
29.55067164
28.87813579
28.61696167
28.4680039
28.39790873
28.22066097
28.24994321
28.29936579
28.37176312
28.49583751
28.66824615
29.00000156
29.63016504
31.49378852
37.59476073
58.41612183
151.5281878
166.746983
92.77346617
60.51943941
44.76625813
36.82593861
32.7686652
30.45268222
29.44150211
28.73853382
28.47342377
28.32387977
28.2539727
28.14985522
28.17881061
28.22825233
28.30062633
28.39681207
28.57529192
28.9206503
29.58607046
31.5698646
37.86931726
58.65714765
147.9051094
159.856662
90.91477035
59.92761351
44.55266775
36.7164909
32.67446438
30.35326663
29.33429935
28.65791126
28.39251899
28.24260947
28.17275694
27.98718654
28.01546213
28.06509012
28.14050182
28.30391739
28.48719629
28.84895958
29.55475765
31.6788984
38.24047002
59.33325511
146.4222941
152.383097
88.75974601
59.23788474
44.30909394
36.59942435
32.57972552
30.25813993
29.23237335
28.47832373
28.20848723
28.05756562
27.98776534
61.01110882
147.3994892
76.27618493
66.9578779
188.0913536
152.9688419
75.6164234
186.2025085
189.567851
85.95882641
168.6599968
184.0847142
96.09246779
787.1148836
673.578775
151.8845251
166.1098661
124.8426295
498.0064229
771.6652215
421.7083572
147.718437
150.2516989
50.0453592
44.52725458
70.02134644
41.96502635
414.8428484
150.1633188
119.4218949
54.68437562
45.07625852
38.40256892
57.54893826
54.08536073
1373.143115
967.6441189
155.4371016
66.18742612
57.90371398
39.21648225
63.59407722
58.16591574
71.1674672
206.6369133
182.678518
800.5940481
1085.609104
158.5826462
72.54308979
68.2790671
40.09012387
71.03668741
64.45367114
80.30838716
311.1169667
242.9365595
464.5430746
607.1957103
41.19466765
80.95794086
71.99538541
89.31254268
496.3129143
389.0098032
1747.732034
303.4950312
353.8209575
43.05844341
101.7182824
82.48599608
105.6353006
1131.899331
729.215644
149.7667138
381.8719477
490.5348667
144.1743508
173.1853348
92.41125786
139.0733399
940.8039615
436.2116074
116.1444656
355.0648199
666.0496884
179.7276585
160.2788582
64.11392771
211.9361392
228.3326056
178.8579477
208.6654292
1097.17834
1375.122708
172.9862083
970.7873384
854.3731801
688.3355044
967.5135017
170.6360685
239.4869949
210.5886782
72.30212573
273.4664247
319.5529291
230.5569702
270.104559
633.3469798
783.9085325
189.9618904
605.2043846
481.8163186
845.9495311
625.8035768
190.6284921
384.4303479
314.6480438
81.58428339
389.7583358
496.7441587
322.600542
385.471258
364.2893193
448.3479707
717.5909976
506.5445843
89.69510969
2594.731297
700.2239604
1088.597415
502.296961
682.8297903
3010.381923
278.9982308
298.3746104
1541.513844
8572.151812
1142.902261
107.0508006
569.0273974
1797.350587
7646.99108
1098.315713
1764.692954
584.3186522
37.29353399
53.59762036
46.75756798
57.30771208
114.6765361
81.09383306
2366.04468
409.7612025
63.59704297
157.9355425
137.5236732
4974.617583
147.8050953
74.49431609
73.34292188
5324.526333
664.0766848
737.4617592
512.3661187
247.5879659
269.5077707
134.3835049
117.564122
58.46668775
1282.469007
199.2695617
472.4802574
126.9385647
315.6141945
107.4489433
753.7324359
957.8417655
175.2693909
371.138816
315.7165425
466.5738972
381.3372952
177.7826817
1081.673341
4090.266251
681.8447812
68.0086518
56.54341195
85.18790005
131.8611835
66.82696505
70.57134114
3192.746677
293.1557996
2267.066867
313.698228
1671.865824
264.6377079
1118.437747
1103.538233
916.5718951
936.3854721
1800.017011
4134.116647
518.4355906
2154.856337
1193.788878
4653.407407
2554.679245
539.2295889
427.9303457
157.6590563
165.5325955
558.3682756
633.2921727
4713.297298
792.854177
211.5075071
225.7328162
194.6574999
206.1986334
789.3430319
1105.156888
1282.522672
155.4998278
789.3765453
616.9032247
1265.434185
791.7355136
158.9194251
115.5477652
333.7790225
162.848298
536.8448414
361.9802609
123.1948946
497.8610744
786.2636506
663.7439863
629.9506822
214.3174646
1450.075296
214.9012123
192.215485
1371.953757
1288.614903
1440.633446
1382.403749
196.2005088
1157.650207
1168.643793
901.8464018
318.5844878
310.3704913
320.5962354
319.8097225
895.8003365
818.3284324
283.5575437
260.3579325
306.4486523
290.3178756
834.1308947
294.4469617
297.4252131
247.3612877
249.7972812
670.8874719
4831.913076
683.0176944
422.2105732
429.3812915
353.0180373
357.3443312
1128.854945
832.7701957
407.4051558
1013.269757
1670.063901
563.4875584
180.4782326
190.7425292
168.3812607
177.3107427
554.0551334
1183.59097
750.5110206
764.3957254
542.7229169
547.7829758
5558.890196
918.1568715
480.833296
536.2688576
231.9170356
244.4389574
1423.474787
2885.98592
1311.982941
2266.794445
1140.31749
6263.585793
2551.11851
5339.257437
1136.412736
650.4885481
3688.205137
1664.524929
2862.004213
1690.145848
2299.703008
44.88416467
110.7292259
104.7861345
163.113968
4209.061866
7818.564993
302.2304582
135.0539945
144.6788816
960.8874231
2677.151318
3867.197975
424.2964083
463.5483521
863.4758031
227.7840357
240.5439593
499.1203914
130.783097
95.53209814
183.1798922
331.6023864
118.0078855
136.4306657
1291.17182
3093.850432
3243.514675
1035.976003
851.5071917
2343.864402
1727.968535
3942.403063
3898.766373
1038.859748
283.5939951
126.5979651
131.4672078
120.6215421
125.0504233
277.7326798
148.5049803
155.3354469
422.9396221
1039.491115
398.7541412
419.3115999
6416.004842
3126.672448
456.7540528
816.228763
2784.912835
3080.02383
469.3489943
210.756531
178.0545044
251.0115718
221.8752784
490.067039
1125.402826
3878.442977
3947.639299
1311.145742
226.3002805
115.1600924
119.2257402
680.374861
665.0774508
309.7249557
1636.037198
1507.785554
740.8788004
548.858007
289.7560435
300.1771591
761.293406
314.9903732
319.8699484
303.8304688
312.3544618
748.0921756
345.2693171
140.3982041
146.4098425
133.1621881
138.5066127
340.6475907
402.6590441
1015.781727
1004.129057
1646.09057
1594.747516
474.263745
334.3286945
720.683315
682.9679344
999.051509
990.3573553
373.2365995
394.8576273
803.1528805
649.8737872
5777.454913
1748.483273
725.7757986
912.7483904
519.0472232
1682.89907
1654.192997
1693.932206
594.191401
4591.650881
8848.472207
314.186425
365.8517256
427.0945
445.9346009
1154.491659
1516.641435
963.8120088
527.8485489
1819.085029
7910.334457
1415.39899
1238.302245
16120.53063
1110.936965
1676.897588
1417.842342
1711.772198
1275.120607
4925.456869
4999.808338
1157.006853
1505.280803
5539.457532
1350.411877
1284.724933
308.0456285
1127.765342
458.2839214
1127.931197
334.551248
3796.556053
2546.217714
848.4164945
4539.987265
5326.775374
4285.473527
2897.744266
918.8862192
4456.725333
5628.694087
2860.345992
4219.276689
5971.794787
1640.560139
2482.671743
1153.044877
1459.593534
5364.945255
3253.569773
954.9397441
595.7255994
1542.892647
1049.489858
538.8921723
344.4346887
945.5412767
3411.70587
4314.63656
1228.836887
1052.224688
3282.471876
3418.565245
2565.552311
2433.518666
871.0978152
4271.611832
4189.109953
3048.031879
4156.945925
4151.649372
1012.332356
4043.033791
2639.060768
2690.162742
3041.870821
1625.006604
769.6677555
830.1417685
3436.649889
965.7951465
1090.977744
854.8697411
929.6510621
3212.639516
3321.444879
905.642208
1067.155314
369.6008472
391.6637151
941.9445168
758.6715474
348.2657143
364.0648896
1219.952708
1236.102709
771.4088241
265.9776165
288.6097332
239.9564457
259.4733273
762.9853424
848.1735384
330.8313013
364.1147132
296.9089169
322.1201817
853.7099998
471.6126989
216.5277244
234.3617623
694.1363699
727.7762858
2002.689377
2091.521731
773.9490418
2952.445169
2974.139792
3763.033513
2047.409387
1711.747272
2873.153218
2025.146495
534.3907368
1444.724697
1914.451629
1500.624054
478.7441524
544.3530309
452.1188264
467.4620247
1459.562671
597.6981145
610.6039361
566.2377457
593.09224
1342.013197
395.726808
410.2237625
372.7155554
390.6596218
1329.838022
1416.284463
433.5132863
446.9707441
414.9701289
428.9008347
1410.876013
3759.2197
3832.270238
1134.03441
1260.040636
3932.143124
3736.338486
943.3443628
950.2678493
913.8053838
941.1097978
966.2507032
981.3784927
952.7308477
963.0212956
630.9662131
643.3989183
614.6600291
626.6997297
688.2193937
868.1796223
649.3155737
663.958644
1420.373997
1656.914174
1135.436214
1322.607206
5074.275777
2608.737822
2846.010133
1768.151402
2501.603305
1031.861904
1022.663036
407.3283475
1672.011884
1677.988116
1634.502398
1660.96676
1727.720318
462.6735088
1555.945831
1089.437873
955.9460137
742.6664312
338.6438625
1035.226536
1525.676103
982.5103123
1045.677615
1593.391134
1620.789085
1547.334568
1581.862401
369.2590153
987.5742183
975.7462396
5400.19907
1200.89765
5247.814398
4485.63959
5226.630254
1284.743625
6005.342349
1552.540257
5704.702882
4849.244289
733.3972367
822.1215284
1720.823986
1688.669193
524.2850351
577.0799914
1792.323374
1724.133505
5502.371534
1199.585
459.2029056
506.8544688
5791.461363
6602.997702
1901.584367
7181.589992
5089.297113
1750.971554
1113.016259
6237.524951
3441.564378
6942.764959
3912.082275
1614.605751
63.36539792
42.37732254
36.65799374
5410.978254
5386.236025
137.8544493
74.0548165
74.49318936
5642.856179
881.1972003
2545.945286
1699.8121
307.7697912
258.5512469
159.8576632
283.9743142
205.4848099
422.0929914
1510.959494
280.4590445
304.8109179
52.98515597
61.94609747
116.2247937
363.0543427
688.2137591
1003.480832
195.5754853
105.3932069
108.9014992
100.9804749
104.2630062
192.2022624
778.6040582
864.8880056
2827.914572
620.6721707
546.6981539
330.2718792
329.3556654
343.5631842
752.9952277
1089.586967
1389.307975
504.7511995
110.1065579
113.8658219
222.3573103
282.602508
626.2477985
598.5557628
575.7976027
508.0314869
260.4555828
633.5481371
310.1568187
324.6890932
4249.146667
3961.052939
2273.5454
1709.022431
1685.589656
1064.136512
3528.287904
5501.194529
4876.905456
1169.793002
688.0077021
759.0069274
1800.396177
1104.364786
1745.543304
1731.618725
1764.778819
2518.912986
4800.488431
3261.890767
3694.944009
5251.692987
1387.572612
1121.448463
672.5934925
1310.300765
166.3833582
132.7255484
228.3370088
820.1400257
2160.186725
1532.317683
5783.600869
6135.70505
6245.206477
5127.033193
5945.348025
90.85515447
113.3565533
268.3726009
2611.635855
1710.550698
1323.159373
3348.980332
2662.678959
1970.982593
3668.454792
3339.583799
5307.698938
5013.568013
3558.546572
699.328855
751.9660195
1496.890551
4810.732106
2478.247096
2778.895372
4066.933274
2335.720457
2758.061376
1152.980935
1542.209705
1265.647721
782.1780239
527.3050961
535.545918
1226.483953
745.443177
787.3822611
540.6470991
552.1047256
807.0329245
190.7807177
211.358034
444.2477144
566.7118165
1022.681422
731.0701393
1205.685152
1254.779668
789.1307115
1814.393846
1304.309376
1358.461562
885.9388425
888.641471
1455.307279
1472.301578
1487.200595
1392.069016
1415.288351
1360.049557
832.0730813
836.9578434
805.421656
812.0355295
1304.250095
1433.259613
873.8156357
878.3474776
842.1780062
847.4447905
1392.200849
643.6760294
630.9750033
285.5733789
306.7139322
660.870697
647.7756161
475.8446636
463.0529336
239.9538418
1529.474442
1532.196802
1493.324779
1498.868685
1902.931535
1540.803236
1542.050218
257.6770411
496.4325188
480.9890111
4714.7448
4659.573969
2908.757269
3088.737054
4799.531903
4706.606526
4905.190615
726.7879196
1454.591696
1216.983826
293.2849086
305.6105227
604.2338113
535.1203165
279.8847073
289.823823
1092.038527
1091.786362
747.0186722
767.1266837
1100.732696
1105.135985
5506.579604
1503.345307
975.2660071
961.8554306
12690.19191
2369.781427
1570.812902
4522.210611
3639.28956
1819.194571
1796.29052
1124.463574
6036.393437
6582.213517
6283.703866
4889.709472
1197.934251
1867.203382
1807.806438
2581.267149
931.419953
1079.884383
5310.800636
5221.691291
3989.789473
3685.128051
2061.511051
1165.876725
1265.812104
1321.396262
3123.07261
5319.422591
4498.573436
5375.663374
5135.848021
3582.962515
183.5666852
254.6737362
794.3213463
3305.190835
3226.159783
3392.400729
3370.766171
3168.411404
2060.511694
2040.841902
2080.895759
2063.813498
3176.771794
3981.349287
2247.049105
2263.345981
2158.732919
2221.588148
4050.380394
2910.311634
1868.785248
1687.924881
2025.754515
1970.793656
2989.081716
3863.645106
2299.148432
2314.201756
2279.895221
2288.097549
3906.070185
3483.531229
3416.149558
3570.803852
3410.196043
1013.695774
696.0330183
699.9524606
1630.491198
1026.818922
1031.295359
998.2765804
1019.881947
1618.358794
5429.57551
5662.768858
4898.68601
5510.421217
1704.375128
1718.820657
1674.075193
1689.709564
2171.761432
1007.612907
1638.39923
1573.171617
1671.90796
1038.236051
1042.286173
1033.35255
1036.321303
1664.803528
1608.405459
1651.883718
1120.82533
1544.512204
2142.172626
5867.110481
5443.19542
4031.553151
5718.695598
851.6765185
1208.071129
12981.64793
1155.984413
787.7476649
791.5290464
1822.211416
7520.866005
7769.958824
9248.548486
5837.278171
5384.377989
1762.112642
1749.94688
1105.515977
1726.670057
2166.209852
3064.521157
2134.687971
2848.184426
2141.043649
843.7636086
2979.688768
2142.039025
4978.470488
5184.043773
5482.755789
4026.866426
4666.547227
1309.599659
1642.587182
961.913424
492.6468228
675.2346299
1057.704168
1167.193438
704.2397434
1030.614713
1357.501713
5169.250775
5452.812937
5082.655369
5096.813525
5916.124188
5858.296222
5686.461883
3330.681511
4993.061794
4503.810096
5654.157505
5856.944429
3762.153185
4117.858506
4575.168076
5897.035075
4749.240517
3276.424927
3626.518184
2453.355849
1770.19621
2493.495726
1314.171541
1902.057022
2531.533891
2787.347844
2576.321936
3551.603417
2235.91619
2116.334143
3044.132602
2207.286524
3329.951137
3328.091338
2101.800131
2084.563906
2128.151063
2100.890069
3349.827191
2522.82942
1520.680186
1545.442082
4221.665532
4214.148556
3573.384372
4650.201599
4474.567562
4298.252146
4224.193864
4426.469571
3324.314585
1810.153359
2016.998045
1584.927235
1662.164312
2831.376199
5047.190469
4237.32922
2252.727736
5398.364676
5157.835843
5138.594582
3226.997457
5033.654249
4869.775626
1881.469344
2117.010969
4057.537339
1193.496441
1257.758174
600.3524257
673.8235541
1179.356381
806.4030527
556.744158
580.5126414
1137.975054
1100.042036
652.1502832
1121.191201
1456.224458
733.0022666
1196.357907
1177.754212
2003.73019
1383.827902
1361.231158
1520.465663
1471.629914
2116.206586
3123.524523
2927.516582
1917.818581
2807.847089
2937.298963
2647.222204
2781.380909
1883.908262
2811.529503
2759.49317
3534.279916
2633.908811
949.1589246
941.5768676
1422.071127
1466.885222
901.0989273
898.0366643
1451.352682
1464.127112
1428.581658
1441.529008
824.0807928
828.4115664
1354.41663
1317.167393
816.1315473
820.0098944
862.7418116
867.4754312
1423.255796
1402.93565
853.0053653
857.9317301
3802.981135
2349.460388
2362.198444
2322.062479
2333.833932
3793.171479
3752.018964
2591.304309
2993.405144
2389.341439
2447.040755
3747.797652
945.7951167
1525.776042
1514.913351
1541.128671
1533.938826
947.9012318
931.8980298
1478.534508
1460.265487
1504.753165
1492.684152
937.9954686
971.7648381
1588.993322
1578.412904
1604.619344
1594.312478
974.5115342
955.6667242
1555.205805
1548.848932
1572.063677
1562.383987
958.6353655
1517.649995
1521.932063
634.9670867
926.6838174
923.7337977
933.8243506
931.4001755
639.6977203
1506.145825
1511.109827
1587.874884
1502.934114
709.4623388
991.9879369
1001.617824
1424.302472
1370.101079
788.0552354
651.8996394
941.472395
940.1786335
949.5645114
953.1862218
662.1883344
1553.759909
1546.494511
4672.407984
4533.146853
4884.182629
3307.072117
3911.207175
2685.734396
4468.301305
4528.446888
4459.293923
4468.176567
2747.472971
1968.365612
3769.891532
3179.672802
4384.785524
4526.992236
2270.073343
1036.088372
720.895905
722.8098234
706.7280092
709.433518
1023.424785
1672.511942
1687.178956
1640.573951
1658.054528
1630.436367
2075.847954
1489.855454
857.3851837
947.2065068
749.6476659
772.6966977
1078.310219
1429.253357
1986.69098
1565.740386
1488.630379
994.8809893
1619.397134
1605.416171
1656.870215
1611.632452
991.0398248
1601.302004
1613.61917
1560.276494
1572.581507
5039.28479
3192.7553
3429.893007
2353.777138
2852.400515
5129.892318
5144.995799
4978.340683
3747.649574
4341.33663
5501.288256
5499.445819
4011.515579
4270.004958
3104.924704
3581.292991
5688.52854
1751.761996
1752.845475
1734.227763
1737.670093
1148.073051
1160.190116
797.3185447
1815.914468
1716.356378
1771.315072
1761.720119
1705.470262
1052.23163
1060.47483
1044.444052
1050.260689
1701.516017
1743.675098
1074.62994
1133.078756
1062.229134
1077.522548
1746.989101
5287.652253
820.7798213
826.491839
1203.342564
5617.072336
8639.621046
9013.33767
8407.615429
8449.580066
6250.888278
1849.764622
6195.793417
4339.205158
4739.078108
1121.928426
1787.14942
1770.365793
6202.192833
6828.254961
6566.50113
5321.939279
5819.613025
7240.313194
6858.852888
4318.362993
6501.195349
5566.941937
2215.194955
1778.434319
1186.487458
31.7679552
31.77819003
31.86382509
31.78252158
31.80126136
31.87543255
31.80857458
31.83822269
31.8944139
31.84874773
31.88582931
31.919816
31.89691604
31.93161246
31.94410031
31.93788015
31.95059948
31.95655922
31.95122465
31.9407598
31.95150111
31.93426655
31.90338718
31.93184275
31.89373906
31.85913793
31.90699819
31.84897148
31.81915986
31.88557098
31.6544329
31.67575302
31.75106743
31.68535234
31.72546145
31.77905954
31.74251846
31.80614854
31.82422964
31.82982297
31.90656026
31.88221204
31.93042606
31.98887233
31.93509018
32.00349971
32.02535957
31.95657506
32.01876286
31.99604029
31.94439038
31.98053774
31.92452754
31.9021622
31.90334315
31.83849971
31.84856229
31.81669299
31.75952877
31.80053376
31.55242366
31.59580908
31.65314318
31.61609385
31.69937317
31.71319807
31.73516597
31.87580649
31.81024346
31.93216045
32.12218689
31.93103092
32.16462874
32.30725556
32.04252274
32.34210627
32.37729875
32.07015889
32.3323249
32.25816625
32.02954304
32.21220408
32.08300216
31.94291225
32.03640971
31.90013116
31.84365558
31.85818721
31.74974708
31.75055197
31.46645579
31.54605903
31.58022071
31.58358049
31.75387303
31.70369727
31.83578803
32.18336955
31.92236695
32.33242393
32.92659497
32.21813635
33.06343479
33.59428534
32.50943988
33.66747027
33.69329677
32.52433161
33.4601225
33.0820456
32.37177079
32.92091778
32.54291646
32.14732579
32.42733033
32.12532109
31.93520657
32.03872934
31.82660253
31.75811624
31.40264412
31.53569024
31.53982693
31.60524142
31.94610918
31.7869379
32.11988656
32.95596156
32.31788958
33.38662601
35.68809586
33.24474906
36.60721124
42.4044343
34.44679324
42.45478646
40.13697633
34.27828302
38.1607174
35.55190597
33.43333419
34.89776682
33.62344829
32.70887841
33.32159817
32.62491449
32.21252087
32.44447069
32.02648661
31.86147905
31.35528073
31.56450653
31.53916865
31.68037414
32.27029469
32.01379786
32.59202445
34.3247201
33.2470591
35.37635203
45.27801607
36.71758995
42.32018089
48.71524138
40.74793239
60.34718997
58.49410938
45.12684281
47.67685568
42.22157286
39.69950207
39.80748366
35.78396404
33.99911607
35.03096498
33.49831379
32.79516789
33.14762579
32.38651469
32.09854109
31.31838852
31.61596294
31.57328074
31.78185567
32.63280681
32.35606876
33.10333219
35.69430124
34.70325218
36.44007984
38.45780646
37.73539668
54.08774391
61.25493732
58.44464014
89.97942505
64.8733938
54.55689999
48.19842633
39.10089186
36.4512526
37.60057635
34.77414861
33.77260113
34.16971139
32.90196617
32.49958349
31.29024234
31.67649332
31.63111116
31.88830664
32.95128564
32.71882311
33.5262233
36.5814939
35.95453148
37.91815915
40.47323645
40.08910826
62.28057248
73.6561462
72.54043495
142.2782362
89.24943536
80.50660396
56.5126249
42.73407893
39.92210243
40.46535875
36.23087804
35.09481868
35.34245524
33.50917257
33.04559916
31.26734953
31.73564309
31.69190569
31.98705437
33.21500907
33.02190959
33.86253112
37.21349506
36.74727897
38.81886096
41.67172219
41.37839865
68.95516914
91.14525606
88.49429256
159.9560007
102.4699328
99.01419546
61.8671719
45.72031581
43.44998022
42.9121425
37.62042564
36.55376446
36.4809578
34.12400493
33.66421155
31.24694305
31.79032976
31.75109955
32.0770134
33.44722642
33.2759523
34.15722102
37.81215499
37.34985349
39.63115283
42.92975229
42.5255874
77.88308901
106.5042354
103.2384242