/*--------------------------------*- C++ -*----------------------------------*\
| =========                 |                                                 |
| \\      /  F ield         | OpenFOAM: The Open Source CFD Toolbox           |
|  \\    /   O peration     | Version:  v1912                                 |
|   \\  /    A nd           | Website:  www.openfoam.com                      |
|    \\/     M anipulation  |                                                 |
\*---------------------------------------------------------------------------*/
FoamFile
{
    version     2.0;
    format      ascii;
    class       volScalarField;
    location    "2.21";
    object      p;
}
// * * * * * * * * * * * * * * * * * * * * * * * * * * * * * * * * * * * * * //

dimensions      [0 2 -2 0 0 0 0];


internalField   nonuniform List<scalar> 
12556
(
761.8071026
760.992519
758.9594332
754.6989466
748.483605
735.2252847
713.3246731
678.0923023
624.8110674
547.4587701
440.9796249
303.7918115
140.861914
-35.29056728
-208.0618107
-362.7137105
-490.8862279
-590.7548732
-664.7089253
-716.6964688
-760.2533476
-779.9774681
-791.3625114
-796.6277819
762.3210437
761.8204791
760.4151501
757.315959
751.1328402
739.9264769
720.6493817
692.2341105
644.6962018
573.582977
472.348716
337.1452453
170.8607619
-12.57415565
-195.5509126
-358.569263
-491.8546642
-594.2205493
-676.5401051
-725.3633524
-768.0975881
-785.3559536
-795.3759264
-799.9844834
763.5106317
763.707147
763.7711124
763.1001641
758.9841954
752.3181262
739.3153076
715.2614212
676.2505332
613.3452164
514.2409574
368.3102789
180.2719035
-24.81919568
-223.3294577
-396.4811057
-532.2947362
-629.6808663
-709.2212844
-749.8838023
-786.1665224
-798.2059554
-805.1608492
-808.2404341
764.8189207
766.0009985
768.1825885
770.8464666
770.3507383
770.1507401
766.6444894
752.1362196
728.2790965
678.8503718
582.9991943
420.3310687
188.3391977
-71.36108912
-301.3671221
-478.5369685
-608.353716
-695.6023207
-760.4786519
-787.2389506
-812.2162873
-817.0720148
-819.4018558
-820.2423559
765.2403675
767.5472385
772.1616359
778.8444209
782.4712852
790.837644
799.2331385
799.7701855
797.7131235
775.5350275
702.7063197
523.7984809
202.93838
-173.655478
-457.6923025
-633.8531793
-734.6323183
-790.0583283
-828.4632643
-835.2846813
-842.5934005
-838.6056546
-835.2735548
-833.4250729
763.6644472
767.0946759
774.1055357
784.9024963
793.6450247
810.9466571
832.7974218
850.9156429
881.6852287
912.7473393
910.884059
766.1523694
257.6103911
-398.1578417
-749.0371345
-876.4684399
-911.774311
-913.8390364
-908.5912894
-888.4661374
-873.589274
-859.5559753
-849.8672581
-845.1294213
759.0274862
763.442307
772.5152386
786.9337094
801.0247164
826.4725388
860.8349378
897.6173933
965.4093347
1068.146862
1215.070128
1355.134874
542.2982944
-1015.031766
-1245.27301
-1203.781062
-1128.145565
-1052.899126
-991.4990148
-939.5807775
-900.9583403
-876.0605638
-860.2239606
-852.7581128
750.4047275
755.541148
766.1139686
783.1074101
802.0129178
833.5114433
876.9362805
929.3734416
1026.005795
1182.386281
1445.722433
1962.812554
-2678.108058
-1939.856547
-1561.935264
-1337.950404
-1181.464461
-1060.020775
-979.74184
-917.4273164
-883.9616308
-863.3842214
-853.6745711
737.0917789
742.5942721
753.9132431
772.1682286
794.6790659
829.3174466
877.047077
938.2107001
1045.21111
1206.875737
1429.423282
1680.64266
-4096.601497
-2448.190957
-1811.025322
-1478.386952
-1263.955451
-1097.643506
-998.4656123
-918.5077409
-879.939137
-856.6946652
-845.6520734
718.6970636
724.1708354
735.400913
753.4713902
778.13736
812.7408535
859.8639341
922.4922489
1024.258241
1163.437609
1320.750086
1454.760983
-3828.96713
-2451.647038
-1837.666406
-1497.900265
-1274.240985
-1092.705702
-989.4035402
-901.3687415
-862.2046248
-838.6683333
-827.4297789
695.1927241
700.2682312
710.6191003
727.0898221
752.5431077
784.2568343
826.7233759
885.1468828
973.2644549
1085.709337
1204.026354
1307.889584
-2898.533993
-2082.715762
-1660.31381
-1397.573799
-1210.20486
-1044.131293
-951.958831
-865.8339892
-830.6182275
-809.1641493
-798.8411041
666.8902845
671.2531571
680.1364794
693.565399
719.2697523
745.4179942
780.3041114
830.5527304
900.8014415
987.4716013
1082.200839
1191.176832
-1915.718095
-1569.488627
-1366.72744
-1213.912509
-1088.943431
-960.7842819
-890.4403775
-814.5297556
-786.9107607
-769.3398349
-760.8095678
634.4175131
637.8534649
644.9650517
655.1285727
678.1145858
698.206474
723.5709443
763.5062895
812.9547883
871.3445157
937.6394486
1043.438374
-809.1338199
-1004.715959
-1067.818726
-1044.562079
-997.1227081
-938.9158873
-857.4576091
-812.3479154
-753.0967843
-734.1879927
-721.3625069
-715.1390138
598.5646539
600.9757293
606.1272959
613.1843851
632.4242984
646.0083777
661.4672417
689.3186459
716.2597027
741.4222852
761.0901429
811.8542241
216.1191455
-436.4152473
-671.6464812
-760.4120857
-789.4697609
-784.9524382
-748.5516623
-726.9090418
-686.5763411
-675.7881876
-667.8845814
-664.1216191
560.242824
561.5472058
564.4258403
568.1055018
583.7135484
590.0379278
596.0068861
610.3853954
615.0393805
607.2700839
573.3157302
476.1311787
180.7272934
-195.9608521
-421.5090801
-546.013531
-614.84106
-647.0444963
-643.6200815
-641.9139418
-618.4006456
-614.7961718
-611.5824163
-610.1205623
520.3909462
520.6520569
521.3095855
521.7791811
533.7291911
533.7265001
531.3817807
534.2394714
521.817819
491.8500212
430.0364132
307.4980704
131.5139923
-97.05646523
-275.1741898
-399.0771791
-481.3788824
-531.9343027
-549.7204388
-561.8941718
-551.7293579
-554.027215
-554.81188
-555.2765345
479.9435464
479.3117537
478.0545821
475.7733311
484.2650321
478.995252
470.0561121
464.222121
440.7123232
399.9715697
332.460157
234.1652187
103.9165158
-50.78289211
-188.1403772
-298.6445325
-382.160344
-438.9914689
-468.2279567
-489.0907863
-488.9440254
-495.631409
-499.4889615
-501.3504735
439.7509707
438.3966744
435.5908547
431.1175194
436.5328901
427.2561447
413.4669517
401.6703564
372.3560852
328.5796613
265.5041788
184.3125852
85.37406088
-28.96085545
-137.9541156
-232.8823824
-308.6056661
-364.3836119
-398.9515991
-424.518568
-431.2772648
-440.8797152
-446.8605195
-449.6716142
400.5023009
398.59438
394.6005099
388.4956642
391.4256331
379.3652857
362.4584373
346.97489
314.9815479
271.6255625
215.0443264
146.9788782
69.06112387
-21.45286773
-109.7799561
-188.5910786
-253.9883636
-305.5454759
-341.2032685
-368.2791336
-379.1532602
-390.4191428
-397.6785576
-401.1239358
362.7262552
360.4305965
355.6018073
348.3941552
349.4355296
335.6750793
317.0410641
299.7799271
267.4303486
225.924992
175.0335321
116.1731588
52.06998788
-20.4895784
-91.48907368
-156.3671572
-212.322712
-258.4500618
-292.9778367
-319.6214249
-332.5994307
-344.5442172
-352.4126182
-356.1556611
326.8041414
324.2743304
318.9363303
311.0864727
310.7963376
296.2094361
276.8725872
259.2275544
227.9555531
189.440028
144.1326018
92.77838548
39.63237272
-19.74000709
-77.90675674
-131.8812087
-179.6620349
-220.3302176
-252.3767075
-277.5813945
-291.28963
-303.2038403
-311.1813159
-314.9865869
292.9836504
290.3493841
284.7816288
276.6710486
275.5098352
260.7708087
241.5790076
224.3515152
194.9738286
159.8843218
119.8387864
75.42079958
30.4160558
-18.88857137
-67.25071545
-112.5628747
-153.3981382
-188.9579044
-217.9821345
-241.202367
-254.7287153
-266.1493742
-273.8956103
-277.5978555
261.3916466
258.7552998
253.181851
245.1195901
243.4249941
229.0452319
210.5887712
194.2588064
167.1934348
135.6138262
100.3795331
61.93282594
23.52193284
-17.89810916
-58.53081157
-96.83926432
-131.7916054
-162.7346055
-188.6137687
-209.6136249
-222.3904379
-233.039402
-240.3381036
-243.830574
232.0551404
229.4943034
224.0830184
216.3011807
214.3468815
200.6743052
183.3749633
168.1664733
143.589833
115.4247039
84.52295778
51.22182963
18.28766893
-16.77929925
-51.16145502
-83.70884355
-113.6610341
-140.4971437
-163.3193908
-182.0603548
-193.7665097
-203.4943956
-210.2183251
-213.4377412
204.9265665
202.4980403
197.3687485
190.0301469
188.0258352
175.2856293
159.3778298
145.4411465
123.3659406
98.43061926
71.40988878
42.57278842
14.26558945
-15.56105491
-44.78014531
-72.51338686
-98.19011719
-121.398312
-141.3513215
-157.9050459
-168.3811462
-177.1262785
-183.2117582
-186.1259422
179.9055646
177.6490744
172.8838173
166.0962297
164.1980087
152.5257489
138.1009923
125.5348644
105.8912558
83.96358986
60.41980115
35.48878291
11.14531296
-14.27425506
-39.15098292
-62.80344885
-84.79716597
-104.80594
-122.1158586
-136.610975
-145.8009361
-153.558669
-158.9858827
-161.5842334
156.8528863
154.7944657
150.4463744
144.2762656
142.6022885
132.0676011
119.1572
107.9880572
90.66511047
71.51532541
51.09615054
29.60988266
8.707164881
-12.94612161
-34.11418273
-54.26290047
-73.05865826
-90.24204501
-105.1417231
-117.7307222
-125.636638
-132.4366616
-137.2137786
-139.4995513
135.6021856
133.7573257
129.857722
124.3414692
122.9783459
113.6059741
102.1983907
92.41289396
77.2828059
60.69149945
43.09460882
24.66902151
6.788845478
-11.59846154
-29.55475128
-46.65917825
-62.65463076
-77.33372161
-90.04367683
-100.8831886
-107.5406947
-113.4312044
-117.5826426
-119.5672132
115.9714528
114.3479956
110.9123148
106.0649013
105.0783411
96.86460533
86.92956021
78.48118973
65.41608913
51.18323102
36.15023113
20.46507534
5.27017907
-10.24798417
-25.38671586
-39.81612499
-53.33780249
-65.78549127
-76.50560434
-85.74506712
-91.20401631
-96.24148899
-99.79989272
-101.4987155
97.77048286
96.37088599
93.40351196
89.22527155
88.66584675
81.58892876
73.11128016
65.91451141
54.79407305
42.74251181
30.05432982
16.84277801
4.059448649
-8.906054055
-21.54140747
-33.59433757
-44.90932044
-55.35354228
-64.26332091
-72.03755222
-76.35103658
-80.59325773
-83.59419372
-85.02431721
80.8015678
79.6255024
77.12423523
73.60346492
73.52411594
67.54458134
60.47931744
54.48402577
45.19139391
35.16620331
24.64179668
13.67868353
3.085919807
-7.576464408
-17.96243464
-27.88232982
-37.20711209
-45.82152353
-53.09450468
-59.5178877
-62.73055418
-66.23425952
-68.71242716
-69.89012637
64.88439302
63.92807306
61.88701341
59.00833948
59.43593841
54.51559094
48.79233591
43.99399256
36.41405067
28.27918088
19.76794589
10.88110929
2.307398237
-6.257195631
-14.60523278
-22.58938198
-30.10176359
-37.04129682
-42.78181263
-47.96737462
-50.13108861
-52.94539621
-54.93289669
-55.87448108
49.7703534
49.03596034
47.45333997
45.19476192
46.23074344
42.3027071
37.79307228
34.25283852
28.28545346
21.92356277
15.29700828
8.382241344
1.693964763
-4.946905727
-11.43133034
-17.63642108
-23.47882618
-28.9035821
-33.13748307
-37.18841231
-38.30132447
-40.47976271
-42.00039924
-42.71380784
35.47662361
34.94533518
33.80883394
32.19660888
33.55559723
30.72158505
27.40773266
25.07465945
20.64959744
15.96620256
11.11983533
6.112135594
1.20209142
-3.65228786
-8.403402638
-12.94363136
-17.22210798
-21.21042036
-24.0447294
-26.98636153
-27.24980578
-28.7910168
-29.87017735
-30.38045552
21.07486353
20.80675937
20.13052607
19.15741761
21.44716677
19.60481939
17.43940371
16.30918636
13.37512417
10.30187349
7.161110907
3.985694282
0.7721237941
-2.382646831
-5.481849031
-8.435878827
-11.22572912
-13.84974717
-15.34299699
-17.26928951
-16.22728961
-17.15244378
-17.78919768
-18.04358876
9.607785662
9.39000593
9.057770094
8.554591385
9.586757777
8.694962879
7.65265351
7.815512745
6.350361578
4.847881316
3.348265468
1.910236522
0.3524343159
-1.145094695
-2.628935687
-4.043242669
-5.391856874
-6.704954834
-6.831672208
-7.724699037
-7.400867313
-7.849143172
-8.155582793
-8.364855829
1722.215918
-4376.898874
-2830.967133
1476.541062
-4166.492676
-4439.354961
1323.501063
-3149.301236
-4063.323467
1206.491538
-2082.879368
-3011.88398
1055.186349
-865.0368516
-903.4162322
-1120.210926
-1955.454994
841.7229007
303.7322908
-817.6815696
166.3052357
-449.1145975
-1012.066041
1933.912697
754.4919054
-2481.806698
-828.1070257
-5728.008885
-3564.617292
-4030.612633
-2609.662378
-2082.342827
1349.686891
1462.468227
1651.896007
-5895.521335
-6183.685545
-3915.706885
-2743.709637
-2706.932052
1233.256945
1311.944186
1441.192194
1393.752726
1428.366108
1506.9155
-4363.795442
-5168.52154
-3023.35631
-2365.226896
-2684.313389
1113.978448
1191.202405
1296.006621
1264.142011
1307.196029
1350.240111
-2901.777892
-3521.804302
977.0806458
1047.671001
1175.528296
1133.181771
1200.30626
1255.206763
-1657.799877
-1606.029204
-2158.092271
806.6380715
838.2308388
1026.055774
959.6615747
1030.899823
1117.866572
544.0458563
290.6700044
316.0289755
2129.009186
1764.445968
2663.872537
2206.435138
-6190.946241
-5789.780176
-3961.56071
-5541.087378
-6030.529412
1516.95048
1588.230107
1549.793529
1590.70249
1521.128149
1734.065007
1602.709559
-5216.539434
-5863.648159
-4339.667718
-5734.268036
-5126.922808
-6026.077318
-5764.029164
-4369.149504
1357.557489
1417.828187
1374.829214
1424.166948
1359.621538
1515.815356
1429.913861
-3613.559997
-4306.100579
-3557.877229
-4202.889618
-3542.227558
-5079.762699
-4306.664817
-3691.164977
1259.028702
1304.766164
1250.035917
1308.497365
1263.73701
1355.794798
1310.667307
-2238.800058
-2816.379165
1123.318576
1196.351219
1123.536495
-1615.003482
1202.232443
1128.90811
1259.803443
1206.240851
-1656.096323
-1042.030892
-1528.784108
-1608.569522
1012.915733
1024.997804
945.4125536
-78.11335833
1031.462513
911.5463025
1123.460012
1036.505739
-154.841874
1449.022408
1687.220676
1855.476927
1906.751405
2170.27013
2522.890113
-7044.850457
-4354.35694
1577.961828
1600.879205
1737.746058
-3460.916323
-2035.029584
-1783.059165
-2228.863397
-2056.254617
-1995.65352
-2285.365574
-209.6079681
-521.3019414
-900.9393913
1768.025784
2103.669734
1862.599037
1827.083894
3531.858145
2929.897859
-3403.907164
-5393.901341
-3736.882599
-2332.721865
-2645.366993
-2474.314428
-2773.095604
-2212.517992
-3454.000995
-2855.771403
-2607.308898
-1213.951486
-352.7693376
-502.3697967
1223.651157
1951.349248
2640.542252
-3105.12442
-883.7566779
945.2469774
-7166.505347
-5114.137332
-6947.061961
-4170.719093
-6791.713453
-4786.125296
-6038.503302
-6060.414508
-4745.615096
-4800.186243
-3067.731627
-3394.018759
-3162.141185
-3371.559261
-3040.308793
-3781.807122
-3421.045955
-3250.742859
1226.12453
1194.211138
1169.472278
-1640.284172
-1907.14177
-1980.663319
1074.003163
1035.565771
997.3047462
1081.048959
1047.399088
1079.19392
2121.533496
1857.657963
1935.437473
1870.361073
2147.916212
1706.287824
1842.013579
1884.392475
2541.972518
2879.706512
3376.984992
2207.620587
2779.89566
2460.791859
2810.639198
2191.584683
-6119.503414
-6100.278038
1556.855988
1597.013613
1552.199517
1663.755305
1634.681763
1697.864032
1598.826187
1628.764838
1645.869081
-5522.37724
-5562.278471
-5464.768351
-4879.769722
-5025.681055
-4628.179363
-4822.421809
-5425.289309
-5933.031398
-5163.78853
-5159.832162
-5064.395167
-5148.66631
-5912.348385
1390.80475
1386.251594
1476.820233
1470.548779
-3898.564285
-3820.740568
-3949.173712
1288.626381
1285.34432
1331.701125
1328.716012
-2990.925276
-2669.159874
-2565.219437
-2689.704581
-3013.497636
1154.851056
1122.338494
1091.590312
1160.656917
1132.367703
1160.994165
-1263.650927
1165.585878
1158.953475
1233.704363
1230.679422
-1989.174653
-1263.550985
-1287.850923
-1552.039939
983.0513195
938.2866593
929.2779124
948.9394458
448.15788
144.2006912
1085.695709
-341.8698112
99.3686789
-256.8292806
1081.180198
-409.8784704
-288.9922686
66.66259138
-5377.650468
-2200.528021
-2351.234848
617.4522112
573.8621274
802.4070551
687.5904806
700.3182886
949.06847
193.4394881
-147.8271034
-335.1218349
4477.752601
-2385.960692
-2549.174202
-949.7948584
-1201.519845
-1215.468714
-166.8272197
-415.1491853
-136.6375464
1959.857321
2681.782146
3509.014932
-3764.593428
-961.8915718
1182.71308
-5967.092752
-6687.794695
-6595.011186
-6142.36814
-4526.087731
-4719.777137
-4525.138525
-5433.164464
-5270.527563
-5017.22537
1326.026526
1305.209129
1285.725077
1333.509487
1312.001669
1329.342103
1224.738561
1202.011768
1229.428262
1049.419835
1032.448686
1012.15451
854.7398936
612.6945131
348.3762509
-6175.651439
-6675.093346
-6724.457179
-5925.960023
-4942.030143
-4639.526395
-5139.572862
-5010.657259
-5939.262727
-5354.404296
-5633.239126
-5488.083121
-5746.871168
1380.838979
1365.062063
1341.073541
1367.008432
1376.472864
1370.334527
-4464.314991
-4289.84977
-4149.986287
-3908.494624
-3664.063205
-3912.467975
-4728.551108
-4325.753703
-4556.425367
-3995.998057
-4244.875247
-4676.213296
1281.424194
1253.086301
1232.07377
1279.356611
1259.855314
1284.674907
1301.353224
1316.27909
1319.823933
1277.568296
1293.982034
1274.545768
1344.995232
1351.236306
1363.330645
1320.592526
1324.952157
1317.577337
-2483.060843
-2625.013206
-2325.497702
-1463.767936
-1464.35355
1188.976339
1134.283143
1247.592781
1256.823263
1274.209383
1236.943418
1216.721882
-1791.619721
805.7836803
924.1508804
882.0266727
1004.871312
979.6079396
998.9656585
110.8296925
355.0659861
118.6009647
1008.201393
411.8157373
670.3074497
484.5464512
587.3227204
1102.667526
1056.274413
-6389.84867
-5206.351637
-6032.783202
-3595.512231
-3655.831366
-2016.786325
-2154.302625
-2170.467962
1768.834429
1750.209032
3388.921824
3835.515918
4176.44964
3645.982384
3288.858346
-2720.217952
-2555.495592
-2508.555413
-2561.926568
-2739.51275
-1227.356591
-1053.134739
-1062.576665
-1057.41162
-1231.638829
-838.2598871
-1008.677281
-603.9035999
-625.4955584
-788.7730989
-414.022188
-572.1435705
-504.5459539
-7244.541498
-6338.012039
-5876.616413
-6693.346152
-6451.695896
-5690.490939
-4984.064255
-5975.746718
-6408.963682
-6324.19442
-5983.307959
-6124.143585
-6556.87085
-6444.945303
-4960.894421
-4781.710425
-4581.68008
-4838.108639
-5029.233867
-4583.779431
-4780.087515
-5085.037177
-4963.994114
-5216.9591
-5019.90872
-3207.251353
-3265.970366
-3234.309936
-3149.365369
-3285.788739
-3630.601164
-3523.418735
-3669.072471
-3331.497655
-3475.291879
-3577.002114
-1853.391351
-1827.700068
-1967.847793
1056.745669
1038.972894
1052.188155
1092.675281
1078.989985
1062.929839
1984.997432
1949.54395
1965.741728
2003.640918
1906.198555
2170.848956
2041.05243
2004.037828
1758.227217
1787.701252
1736.931113
1878.24884
1807.629915
1777.792534
2416.997127
2390.772591
2222.593186
2503.807407
2410.900708
-6705.729267
-6677.255632
-6165.397705
-6832.659797
-6902.159228
-6802.036518
-6832.42582
-6763.351912
-6932.940766
-6838.608393
-6002.327008
-6621.57649
-6715.023669
1575.768028
1576.219672
1565.368536
1595.766822
1581.066999
1582.326535
1551.110496
1541.376085
1563.205182
1554.037591
1656.927118
1676.743163
1650.223571
1723.149803
1687.078531
1665.000512
1613.187189
1617.224044
1600.60106
1642.652632
1623.282544
1619.351223
-5807.495966
-5677.839153
-5398.157183
-5698.522654
-5993.013993
-5842.627813
1410.861457
1398.005106
1431.919802
1414.369023
1378.091412
1369.750191
1392.880359
1380.671974
1511.949515
1491.393003
1537.075729
1518.703974
1456.568496
1436.863555
1484.48147
1463.709488
-3911.156119
-4067.016475
-3718.530514
-3863.75068
-3962.053288
-4339.581367
-4517.838207
-4118.399215
-4285.218814
1299.893476
1313.076449
1298.481322
1318.919272
1302.750376
1323.162937
1322.668459
1299.861032
1276.902196
1294.266709
1296.544626
1339.860919
1347.412983
1341.299977
1350.798685
1342.962698
1365.974515
1353.841194
1326.202766
1323.06468
1336.920408
1328.062058
1320.141668
1327.025082
1336.102307
-2749.290886
-2830.029142
-2896.625479
-2737.05836
-2945.45337
-2873.833112
-1242.133023
-1417.788644
-1449.308072
-1241.57246
1184.432182
1141.330688
1244.316025
1252.434768
1243.728541
1220.659397
1241.383068
1243.142054
-1871.726536
985.9174069
969.9858184
943.7080427
608.7102605
511.8487095
997.3034096
227.9027548
386.9234324
280.4239234
1095.42559
-497.1617115
-56.66224036
170.8860315
-102.941971
1051.849225
-2390.919444
-1856.433063
-1234.040742
-2338.577049
-2392.05474
-1138.510833
-1195.527603
-1631.099856
-2402.216153
-1014.39989
-1005.972924
-842.834121
-2134.15683
-1628.252383
-1581.823502
2398.799548
3407.802705
4307.899966
-4159.566252
-1021.387085
1510.512946
-1574.398372
-1185.842903
-3021.031871
-5449.038715
-6154.891949
-6414.915594
1462.330332
1440.937821
1410.614476
1482.892258
1451.360246
1473.879624
-1640.947446
-1780.48507
-1794.66133
-2237.621958
-1975.487061
-1917.637928
1100.972533
1085.029509
1099.062892
-6484.862803
-6597.980597
-5970.876507
1400.92037
1373.58695
1389.389216
1409.112175
1413.744702
1430.400511
1435.689617
1454.361783
1446.675955
1133.031119
1120.651977
1106.56311
-1628.737993
-1582.736169
-1570.923204
1134.14678
1140.647909
1133.39674
-1724.063187
-1736.66446
-1643.221062
-1461.933183
-1450.966396
-1593.156765
1025.401167
1118.12999
1125.058395
1129.119796
1039.387023
-6923.820475
-3497.528689
-2037.177426
-2103.1238
-2110.570283
-2332.591327
-2189.697253
-2152.467226
1801.302488
-4501.947215
-3974.725966
-4750.248417
-2464.690594
-2521.53118
-2375.857994
-842.0376836
-857.2014906
-679.603705
-684.5129808
-783.4859229
-1898.909197
-1333.070698
-3679.362449
-7094.77417
-6749.044549
-6594.766314
-7165.54181
-7139.891373
-3114.039587
-3145.632217
-3097.326215
-3410.852111
-3401.369645
-3373.126558
-2966.172541
-3101.557675
-3181.143758
-3744.808786
-3693.774692
-3743.204194
-1971.8259
-1948.588233
-1982.189069
2066.599188
2124.193374
1887.903277
1900.113604
1914.579983
1884.610927
1716.298899
1731.792421
1718.384563
1856.743627
1831.506175
1816.890073
2647.330511
2456.384831
2501.676482
2700.068704
2698.156027
2841.329882
2180.048201
2238.746509
2255.961047
1567.212587
1566.450534
1570.139139
1596.089866
1592.081679
1593.463815
1556.693482
1555.162244
1569.621286
1565.760373
1642.967029
1647.975402
1640.303259
1706.620196
1694.973397
1687.444301
1600.977441
1602.921937
1599.29961
1633.795837
1629.052844
1626.01896
1396.291735
1409.422249
1404.042845
1374.29449
1379.624685
1391.657571
1487.798561
1507.417318
1494.139221
1505.369327
1497.907836
1552.375247
1545.980283
1443.88138
1490.513014
1483.183711
1452.932043
1461.108612
1481.151309
-4080.267628
-4141.282545
-3791.743939
-3847.967539
-3874.461524
-4200.121412
-4223.482368
-4096.335059
-4235.718983
-4075.507252
1141.199705
1126.057786
1137.987075
1178.249851
1161.706121
1146.908215
1169.913283
1178.080522
1172.487782
1152.822857
1156.687033
1162.699599
-1986.510499
937.024322
943.8406857
932.2535329
674.7922034
946.7116952
323.0815767
455.6906192
581.5802653
1092.089172
1093.010255
1088.667498
-406.0111816
-249.5573141
-225.2137912
-240.279134
1074.623709
1081.607884
1088.294096
-136.5642476
-213.2845325
-361.1772509
-2237.332177
-2279.930497
-2376.547802
-2329.666247
-2307.46511
4485.033958
4833.812978
4283.039393
-2439.588887
-2465.454201
-2389.711423
-2567.307382
-2514.976398
-2501.67714
-2276.537001
-1465.541327
-4014.245113
-6219.857996
-6221.392086
-6158.48689
-6195.062889
-6655.141778
-6497.420593
-6523.004283
-6445.951093
-6472.656801
-6626.372427
-5382.228134
-5300.984157
-5352.583068
-5190.712382
-5248.48924
-5329.484651
-6726.40848
-6544.868482
-6521.29908
-6546.188046
-6556.023562
-6744.875646
-5582.897373
-5498.459543
-5545.476857
-5403.48111
-5451.164788
-5536.639098
-6096.066115
-6127.098758
-6000.619519
-6051.754546
1318.038183
1312.910395
1310.712244
1281.377711
1277.577293
1273.372096
1286.075226
1282.437306
1287.331842
-1586.815887
-1638.615937
-1457.90401
-1534.58925
1203.029953
1201.573149
1210.339283
1205.259852
1137.286083
1134.204332
1141.534319
1132.504723
1262.586572
1259.632724
1254.627497
1269.478499
1264.900376
1269.065004
1219.886083
1217.543539
1229.415665
1213.957057
1221.168363
-1799.581602
-1790.29832
-1778.529373
-1644.887636
932.0261055
974.5378944
1104.430422
1009.329012
1001.077716
990.7953187
1018.27042
353.628805
336.6514951
1079.667844
952.8237257
714.5445781
1104.445036
1116.686285
1111.244973
1047.692813
-6658.725927
-6968.717732
-6696.211919
-6004.148702
-5701.997305
-4888.737001
-6486.810245
-6152.657901
-3541.321816
-3684.977332
-2165.758197
-2152.662949
-2163.567071
1783.739962
1726.847608
4005.305579
3832.847763
3698.80617
3135.032101
2993.481179
3523.273327
3306.798038
3424.833109
-2635.611761
-2574.890521
-2685.103748
-1074.370902
-1071.102884
-1059.436272
-1173.670463
-877.3357322
-858.8288648
-843.7809972
-999.8919823
-942.9950937
-939.5643831
-608.6726981
-664.1266561
-663.6261777
-483.3489555
-488.2674901
-536.5673494
-6989.014
-6878.936382
-7175.941326
-6617.647471
-6902.710379
-6964.804975
-7121.268359
-7089.862573
-6371.551389
-6263.607305
-6290.726794
-6230.839231
-6241.832792
-6339.474555
-6515.510462
-6382.639602
-6415.68906
-6320.449512
-6350.636329
-6479.245428
-4904.18723
-4829.678819
-4886.240431
-4899.812743
-4967.466975
-4640.10608
-4667.368334
-4628.999669
-4722.358003
-5146.346463
-5190.599461
-5149.939889
-5064.715132
-5128.818099
-4944.350006
-5004.660415
-5084.965392
-3244.883091
-3166.191811
-3152.620809
-3179.906393
-3112.776462
-3166.457596
-3325.994027
-3353.670087
-3295.278843
-3591.873539
-3637.661993
-3666.736191
2023.564694
1917.356077
1768.768305
1748.280631
1732.865506
1796.238973
1809.249917
1788.835363
2485.541774
2580.410738
2602.068827
2859.348435
2733.174726
2327.809365
2310.077738
2395.652995
-6693.606802
-6502.996256
-6500.515818
-6505.560484
-6504.110326
-6686.965853
-6862.740764
-6874.95775
-6826.867884
-7074.222813
-7036.007143
-7052.657086
-7081.929643
-6810.117433
-6928.941466
-7036.805935
-7050.453694
-6870.97998
1576.382535
1572.483104
1571.678248
1588.4747
1587.212495
1581.858072
1559.103922
1557.824215
1562.511653
1560.570294
1663.533233
1655.637823
1650.287069
1675.581357
1683.292399
1672.604923
1614.160556
1608.054892
1606.047371
1623.494962
1624.826997
1619.978503
-5768.942652
-5677.367818
-5716.264398
-5589.668304
-5634.003518
-5722.456222
-5938.835889
-5855.823602
-5936.510687
-5753.536868
-5796.742453
-5885.788054
1407.180688
1408.921777
1411.652765
1399.616672
1404.928521
1402.880789
1425.183478
1423.691129
1432.538948
1413.611033
1416.95694
1418.903648
1375.669578
1377.814266
1379.387123
1372.766684
1375.690798
1372.948504
1388.082487
1388.296552
1393.691616
1381.040182
1383.903493
1383.971248
1520.494522
1512.985731
1505.180546
1509.328734
1516.399204
1494.913214
1502.120947
1498.310634
1536.713457
1528.028473
1461.765809
1455.365945
1449.565784
1452.493556
1459.184653
1438.227597
1438.904827
1441.452833
1477.573378
1480.623648
1487.751668
1466.508746
1473.553365
1470.661935
1476.054176
1468.996485
-3997.349658
-4032.306211
-3935.319497
-3902.964007
-3938.162096
-4392.391457
-4425.69423
-4378.02389
-4557.873859
-4484.838641
-4451.003035
-4166.444683
-4202.617753
-4165.343194
-4327.934877
-4277.076702
-4226.366873
1303.69439
1299.943816
1296.187488
1307.731659
1303.969935
1308.445229
1312.616849
1306.726612
1323.444187
1323.50263
1298.488149
1289.976536
1285.133378
1285.173851
1286.220161
1292.553587
1289.616595
1294.813256
1339.942339
1343.99654
1353.749672
1344.881891
1361.832533
1364.135428
1368.705309
1356.588317
1360.157452
1357.864242
1324.584877
1323.49923
1332.433672
1329.951309
-2844.667732
-2825.930058
-2883.016372
-2725.200127
-2773.70765
-2807.926536
-3013.165208
-3055.756606
-2927.626145
-2941.927072
-2953.372332
-1386.278691
-1386.970489
-1442.322914
-1254.314606
-1316.30656
-1325.777752
1183.342697
1173.256422
1199.03664
1193.016258
1146.440325
1150.783667
1146.725443
1153.770291
1149.613527
1165.297297
1159.309333
1246.383514
1244.084794
1241.59334
1250.451282
1247.011176
1249.070884
1242.877756
1236.236485
1233.216178
1239.586354
1237.972627
1243.005353
-1929.419358
978.373823
964.8634865
971.5147739
563.9110489
582.4296417
647.2376608
519.6140788
527.6232692
509.1139109
985.3085092
325.2576543
272.0637204
203.7287751
1091.202847
1093.162236
1095.630563
-473.9472579
36.52925986
-23.72733537
152.1142683
138.4012326
151.9425478
-44.57902889
-178.7839136
-160.0114136
-57.38759799
1063.492511
1075.838827
1068.59965
708.0071563
678.7638817
659.1134787
666.2487671
619.9427022
594.6160819
600.5931194
530.2320155
501.3733168
501.3122235
399.2256297
374.3507527
359.1204843
226.3469027
214.3202323
177.9407955
31.28649301
32.16127804
-19.28024278
-165.6385893
-152.1533287
-212.9562385
-343.9368649
-320.6739335
-384.0831408
-488.5305644
-461.246795
-519.0176085
-595.9510662
-570.7467541
741.7722738
722.3020256
687.9659908
713.5079216
676.8008658
631.9819491
660.0342941
591.9062533
543.3014454
562.2415626
449.8381732
409.4262858
404.2619815
245.3078456
230.0681758
186.5238194
4.512715504
27.1166643
-55.58028276
-224.4781539
-175.4215018
-275.7641744
-412.2591598
-356.0386666
-452.119044
-555.7909412
-502.0804647
-585.1303038
-657.2623046
-608.3589189
787.1825473
782.2197953
735.9210729
778.7483212
758.8880742
694.6853318
747.7834477
693.527912
612.5485824
666.1033167
545.0866753
467.9435922
489.7329146
280.1281199
251.9269361
197.0411949
-59.72990761
-7.358878714
-140.8231282
-351.3365255
-248.5916661
-409.1475384
-548.7355691
-439.1247434
-586.259736
-675.5925493
-579.6079617
-698.3834379
-750.599996
-677.7573456
838.2158394
854.5360577
799.5094927
860.0325554
873.2095978
784.2159167
874.8970899
862.5270972
728.3363117
848.4179674
747.1097686
581.8846061
683.9048406
373.7274239
292.935613
234.5229622
-197.3255992
-84.50888325
-322.3319864
-596.8493498
-398.2848237
-659.31196
-783.5417041
-597.3402009
-808.0079111
-854.0681914
-714.924543
-863.0619999
-878.3211117
-779.2866102
886.9061441
928.8232879
873.4311025
945.7415433
1006.564038
905.9372864
1030.327818
1109.140153
918.338278
1135.439256
1181.063409
827.8811991
1160.091041
673.0770265
422.3329411
499.7948807
-588.2231838
-256.6576537
-786.9413025
-1068.59239
-687.5385902
-1099.165952
-1118.694217
-857.4078609
-1114.139322
-1085.071595
-907.4667296
-1072.612577
-1032.089481
-915.0504568
923.4156817
987.4898929
945.5548028
1014.458269
1117.737822
1038.617477
1161.408824
1334.070037
1174.352611
1410.917104
1830.40462
1334.877257
1615.725812
1708.79377
1240.424958
720.3643944
-589.3406677
-159.0837379
-1407.497737
-1408.856891
-1139.022223
-1761.728834
-1535.617875
-1219.966185
-1476.169315
-1329.811891
-1147.664905
-1289.047969
-1183.171437
-1071.30632
938.3330351
1013.309109
997.3562995
1044.511178