/*--------------------------------*- C++ -*----------------------------------*\
| =========                 |                                                 |
| \\      /  F ield         | OpenFOAM: The Open Source CFD Toolbox           |
|  \\    /   O peration     | Version:  v1912                                 |
|   \\  /    A nd           | Website:  www.openfoam.com                      |
|    \\/     M anipulation  |                                                 |
\*---------------------------------------------------------------------------*/
FoamFile
{
    version     2.0;
    format      ascii;
    class       volVectorField;
    location    "0.85";
    object      U;
}
// * * * * * * * * * * * * * * * * * * * * * * * * * * * * * * * * * * * * * //

dimensions      [0 1 -1 0 0 0 0];


internalField   nonuniform List<vector> 
12556
(
(99.99910673 0.002172442959 -3.582418515e-21)
(99.99877515 0.007400489743 8.525086484e-26)
(99.99788989 0.0158576001 -3.577917942e-21)
(99.99641458 0.02963840311 -3.558133599e-21)
(99.99975571 0.02353473564 3.434291327e-21)
(99.9981587 0.039170067 0)
(99.99714456 0.06369401226 0)
(99.9967956 0.09793077439 -6.090903616e-21)
(99.99579421 0.1440885438 7.136744371e-22)
(99.99500374 0.2018843042 -4.713542577e-21)
(99.99486253 0.2659706655 5.784987083e-22)
(99.99592191 0.3248208701 0)
(99.9982571 0.3628479955 0)
(100.0013071 0.3679387283 8.801811702e-22)
(100.0036004 0.3396325956 -1.401292894e-21)
(100.0047754 0.2889871628 8.574438553e-22)
(100.0048372 0.23006776 0)
(100.0045018 0.1739879654 1.434415776e-21)
(100.0042692 0.1248914469 5.898455229e-21)
(100.0022902 0.08859884916 -1.664724652e-21)
(100.009449 0.1021806184 -1.450228043e-20)
(100.0065599 0.06354717386 0)
(100.0048562 0.03400649456 -1.825310843e-21)
(100.0047262 0.01073841245 -1.285690837e-20)
(99.99203376 0.005624204809 1.434573181e-20)
(99.98835465 0.01950480792 3.58500242e-21)
(99.98014493 0.04247254804 2.50524432e-20)
(99.96612189 0.08023199004 -1.07301065e-20)
(99.96761905 0.1105033416 3.459493928e-21)
(99.94596225 0.1860705587 -3.702624987e-23)
(99.91681077 0.3028177071 0)
(99.9000766 0.4107857394 -6.094236827e-21)
(99.86490117 0.6115692859 -5.677300529e-21)
(99.83384834 0.8694771169 -9.975146927e-21)
(99.82097692 1.16516951 -4.163071304e-21)
(99.84338796 1.448469717 -5.445653355e-21)
(99.90710868 1.644550333 -2.310473138e-21)
(99.99263516 1.6858838 8.412497896e-23)
(100.069656 1.567026485 -4.672947512e-22)
(100.1153398 1.336488331 4.391637514e-21)
(100.1274823 1.06375833 -8.664064561e-21)
(100.1144118 0.8065290318 0)
(100.1234696 0.6133644879 -2.509013979e-20)
(100.0891256 0.4219056051 4.842254614e-20)
(100.0887889 0.2928689889 1.404303009e-20)
(100.0628484 0.1814896528 2.899886367e-20)
(100.0475135 0.09746560741 -2.908478644e-20)
(100.041888 0.03086353696 1.468335738e-20)
(99.97908938 0.006680494167 -1.431381453e-20)
(99.96875186 0.02411384055 -2.873488318e-20)
(99.94640831 0.0550796981 -6.448276844e-20)
(99.90910442 0.1077718557 8.580729981e-20)
(99.88920149 0.1707872844 -7.081030305e-21)
(99.82418266 0.2975460695 -6.908839285e-21)
(99.73480385 0.4949102268 -1.200007048e-20)
(99.68054108 0.7152731242 0)
(99.5680132 1.091674476 2.350044757e-20)
(99.4652044 1.591103319 -1.202957126e-20)
(99.42138085 2.194350109 -1.521676736e-19)
(99.51046703 2.792865056 -1.048194968e-19)
(99.75395681 3.218129528 1.064881213e-19)
(100.0786197 3.309221926 1.867678909e-22)
(100.3541329 3.053374342 3.928149925e-20)
(100.5031972 2.571822832 4.342410227e-21)
(100.5219919 2.009272062 -9.312388152e-21)
(100.4613944 1.486112873 -2.213721362e-20)
(100.4100958 1.053275744 -1.504898576e-19)
(100.3039028 0.714578641 -3.352177499e-20)
(100.2467908 0.4459314113 -1.44283896e-20)
(100.1770413 0.2748017221 3.280073559e-20)
(100.1346238 0.1476408778 -3.689442018e-21)
(100.1163257 0.04655668415 0)
(99.9655323 0.003908966917 -7.210136325e-21)
(99.94580231 0.016751139 5.048922391e-20)
(99.90382725 0.04645655075 -1.44432695e-20)
(99.83482173 0.1009402861 0)
(99.77900038 0.1877187748 0)
(99.65191772 0.3476544521 -5.576173522e-20)
(99.47256038 0.6051172728 -1.116244797e-19)
(99.32168997 0.9249276438 2.628549375e-20)
(99.06397754 1.462513276 0)
(98.80041623 2.22649159 2.790614102e-20)
(98.66236922 3.206274954 3.119841748e-19)
(98.82561443 4.285956296 -2.429752618e-19)
(99.42318114 5.092211422 9.144162841e-20)
(100.2478713 5.227908108 3.721182243e-20)
(100.8951114 4.695050365 3.539355304e-19)
(101.1872292 3.821702365 -1.526878546e-19)
(101.19268 2.896586142 1.694818201e-19)
(101.0358114 2.082184586 0)
(100.8554551 1.402105071 5.49015166e-20)
(100.6297726 0.929217609 -4.256119493e-20)
(100.4690919 0.5408324678 -3.697565308e-20)
(100.3381012 0.3285138795 1.874080841e-20)
(100.2563777 0.1747004193 -3.763564534e-21)
(100.2191826 0.05467817415 0)
(99.96044326 -0.003568454584 0)
(99.92985057 -0.005466803419 0)
(99.8654721 0.01126026501 7.277949642e-21)
(99.75897264 0.05373838065 1.100028331e-20)
(99.65904274 0.1505353834 1.817768697e-20)
(99.45224009 0.3167983069 0)
(99.15928761 0.5883644073 0)
(98.86556044 0.9778305155 -2.193949438e-19)
(98.38035166 1.643368241 1.34177317e-20)
(97.84105697 2.645453109 3.996069154e-19)
(97.40013808 4.130839447 3.880130913e-19)
(97.54338367 6.038566082 0)
(98.81874934 7.623400953 -1.097569485e-19)
(100.6969446 7.757127382 -1.077450741e-19)
(101.9585236 6.590454354 -4.968956242e-19)
(102.3576055 5.027435963 -1.908495077e-19)
(102.211332 3.624721364 -1.275401441e-20)
(101.8383966 2.504640656 -5.296008324e-22)
(101.4405194 1.60024377 -9.128788119e-20)
(101.0449874 1.030565254 7.612079347e-21)
(100.7293491 0.5515343144 0)
(100.5216839 0.3301086946 3.844837022e-21)
(100.3915726 0.1716712225 -2.887120731e-21)
(100.3311011 0.05303563096 -9.578601494e-22)
(99.97393929 -0.01602623204 0)
(99.93232156 -0.04337232315 0)
(99.84586652 -0.05287958377 -1.458450169e-20)
(99.70083043 -0.03731665227 2.966116042e-20)
(99.5491976 0.05128758818 0)
(99.25868449 0.1910344162 0)
(98.83683338 0.4349596201 2.31457405e-20)
(98.37230383 0.8342444122 -5.924235326e-20)
(97.60569015 1.503032707 3.592823606e-19)
(96.58742861 2.625651197 0)
(95.42500389 4.618982873 1.319089396e-19)
(94.95983048 7.970722356 -3.000276032e-20)
(97.4924523 11.63947071 -2.75177496e-20)
(101.9731873 11.4853788 6.864772807e-20)
(104.0844929 8.66051115 0)
(104.2305388 6.001714844 0)
(103.6214341 4.032144965 1.595016698e-20)
(102.8447388 2.643367307 -1.25776018e-19)
(102.1197542 1.582999829 2.350512358e-20)
(101.5031436 0.9815725663 -1.579593674e-20)
(100.9970043 0.4644834769 0)
(100.7000504 0.2700243465 0)
(100.5164187 0.1335388262 -9.734194924e-22)
(100.4304996 0.0402755187 -2.924280294e-21)
(100.0157185 -0.03313414093 3.565614428e-21)
(99.96422996 -0.09569305071 -3.591235152e-21)
(99.85871962 -0.1438244177 7.32056715e-21)
(99.67998656 -0.1707696267 -2.67777004e-20)
(99.47456002 -0.1098754139 6.189719033e-23)
(99.10888321 -0.02866243502 2.280509828e-20)
(98.57065763 0.1416917011 -4.715667562e-20)
(97.93022628 0.4721909225 -9.177240653e-20)
(96.88502998 0.9962450632 7.884110236e-21)
(95.27497091 1.938987911 2.314065888e-20)
(92.85206368 3.775076121 -2.070001224e-19)
(89.410877 8.390398893 4.124835034e-19)
(93.03651237 19.04872239 1.169738325e-21)
(106.3449968 17.2094158 -1.735970528e-19)
(108.0590547 10.31390923 1.703549848e-19)
(106.906689 6.238597371 3.410723052e-19)
(105.3646938 3.839265318 -3.228984307e-19)
(103.9612831 2.359151427 0)
(102.7920628 1.283386314 0)
(101.9467997 0.743434395 8.685249241e-21)
(101.2284451 0.2775280408 2.565041743e-21)
(100.8409892 0.1419520462 -3.03297894e-21)
(100.6061925 0.05914855708 -3.453553827e-21)
(100.49534 0.01625521214 8.305170506e-21)
(100.0940979 -0.05396518119 -3.565998703e-21)
(100.0350752 -0.159470557 3.592535494e-21)
(99.91565701 -0.2557595532 -4.555681433e-21)
(99.71256754 -0.3372547251 -3.058217807e-21)
(99.46120945 -0.3220759233 1.301856752e-20)
(99.03896648 -0.3245692686 7.735138009e-21)
(98.41691816 -0.2717657554 -3.49047516e-21)
(97.64885114 -0.08264713101 -7.845581664e-21)
(96.41502369 0.15545685 8.622285619e-21)
(94.42646223 0.5554302144 0)
(91.21355056 1.079967099 2.442375415e-20)
(85.1036738 1.564385133 0)
(118.9475254 21.47285578 0)
(114.0293235 9.330849561 2.026342227e-19)
(109.9919827 4.975836485 -1.386755043e-19)
(107.1124305 2.790717873 0)
(104.9985994 1.552728839 4.106994264e-20)
(103.3365976 0.680323879 -4.632715787e-21)
(102.2929166 0.3253026359 1.965197762e-20)
(101.373427 -0.005732713694 -3.136408994e-21)
(100.9115742 -0.04585784098 2.565056616e-21)
(100.6359577 -0.04700530977 -4.942866933e-22)
(100.5039198 -0.0179363447 -7.817819579e-21)
(100.2151792 -0.07712911197 -1.721472286e-21)
(100.1518035 -0.2303810472 -1.293669568e-21)
(100.0251369 -0.3805111252 -4.428646014e-22)
(99.80955772 -0.5237055416 1.340749601e-21)
(99.52446483 -0.5667080858 -2.384304786e-23)
(99.07295031 -0.6671319833 0)
(98.41199057 -0.7525071021 2.520860774e-21)
(97.59243307 -0.7418860692 0)
(96.31836306 -0.826361023 7.750180139e-20)
(94.35322493 -0.9914250351 0)
(91.6494125 -1.535667124 0)
(88.77100293 -3.235265012 5.273313246e-20)
(132.0706512 9.073441088 -1.956838241e-20)
(118.7437559 3.957203403 1.113071805e-20)
(112.2785606 1.933831684 -6.898369236e-20)
(108.3338871 0.8702707785 -8.198173513e-20)
(105.6785636 0.2873296271 -2.206685942e-20)
(103.6316601 -0.1576090443 -4.759396819e-21)
(102.4551765 -0.2403600293 1.109417465e-20)
(101.3934683 -0.3582611017 1.081654889e-21)
(100.8851386 -0.2762592257 0)
(100.5843966 -0.175674043 3.949243911e-21)
(100.4382587 -0.05951779557 3.900910494e-21)
(100.3820649 -0.1009645165 3.394251626e-21)
(100.3178748 -0.3033119905 4.932217216e-23)
(100.1912169 -0.508589608 0)
(99.9759419 -0.7155311678 1.777506003e-22)
(99.67196851 -0.8228629359 -1.791367075e-21)
(99.21929829 -1.023061259 1.901793004e-21)
(98.56453594 -1.245338263 1.003626016e-21)
(97.75773042 -1.40824948 -1.564207234e-20)
(96.5550849 -1.760274874 -6.736864717e-20)
(94.78698266 -2.274790359 -7.688208243e-20)
(92.62957661 -3.084362935 -4.451137357e-20)
(90.74613181 -4.179035383 -2.757133687e-20)
(131.2440266 -5.897087426 -6.6578481e-20)
(119.1836 -3.007413498 8.637283251e-20)
(112.6811122 -1.952757536 4.272369838e-21)
(108.5690395 -1.497691763 1.218393051e-19)
(105.7823973 -1.22879226 -3.46890846e-20)
(103.5865365 -1.110985535 4.043214224e-20)
(102.3814806 -0.8808794332 0)
(101.2645421 -0.7397732508 -1.061080997e-21)
(100.7454725 -0.5251342096 -4.381916074e-21)
(100.43855 -0.3143239348 4.88800448e-22)
(100.2874026 -0.1044367141 0)
(100.5945785 -0.123861497 -1.672634704e-21)
(100.5329321 -0.3732075492 1.686932441e-21)
(100.4129527 -0.630696906 1.648061748e-21)
(100.2110493 -0.8987093876 -1.536765752e-21)
(99.90126632 -1.070303221 -1.769469683e-21)
(99.47237179 -1.361308051 0)
(98.85983678 -1.705671687 -6.035072086e-21)
(98.10746263 -2.018489318 0)
(97.02332207 -2.569702946 7.36751101e-20)
(95.44071081 -3.289900374 -7.214833863e-20)
(93.53270131 -4.166560486 0)
(91.8354815 -4.98623532 1.030281923e-20)
(123.9034824 -14.78415807 -2.015120021e-19)
(116.1743003 -8.453424768 3.771417226e-20)
(111.2379543 -5.38668986 -7.686040415e-21)
(107.765101 -3.714815872 -1.310689192e-20)
(105.2644141 -2.690258539 -8.43487914e-20)
(103.1848407 -2.025810117 0)
(102.0683472 -1.504647169 -2.64015295e-20)
(100.9825916 -1.106376667 -1.326366616e-20)
(100.4897704 -0.7655484228 9.973233412e-22)
(100.1957972 -0.4489850987 -3.159532624e-21)
(100.048897 -0.1482343496 4.627508784e-22)
(100.8493837 -0.1443774766 6.159257832e-21)
(100.7932872 -0.4354606567 0)
(100.6852087 -0.7373377809 -1.644853879e-21)
(100.5062451 -1.064954438 0)
(100.1992965 -1.292386788 0)
(99.81783052 -1.657258755 -5.273963675e-21)
(99.27360532 -2.101802882 -2.237257313e-21)
(98.60058014 -2.536529328 -2.786604544e-20)
(97.65599741 -3.238369697 5.947479819e-20)
(96.23317966 -4.122779742 2.120673572e-21)
(94.4217706 -5.130967061 -4.766225887e-22)
(92.66520919 -5.991831072 -1.826406445e-22)
(115.542212 -18.39298609 -1.360447234e-19)
(111.6834194 -11.40914737 2.464580083e-21)
(108.6868148 -7.633225026 -2.120755456e-19)
(106.2172555 -5.346012564 0)
(104.2546396 -3.846212297 0)
(102.4889791 -2.774531021 2.111005179e-21)
(101.5504756 -2.036724894 -3.209243662e-20)
(100.5670278 -1.424939359 7.850297829e-21)
(100.1296624 -0.9730476029 0)
(99.86377239 -0.5671550613 3.639904841e-21)
(99.72888501 -0.1869045009 0)
(101.1407814 -0.1620003757 6.151413757e-21)
(101.0921442 -0.4892720806 9.72386462e-20)
(100.9985691 -0.8280787686 -1.959307318e-19)
(100.8454468 -1.203740731 -6.129427255e-22)
(100.5686768 -1.473221856 -1.550070439e-21)
(100.2391281 -1.89401745 0)
(99.78137078 -2.414027572 0)
(99.20007759 -2.93991234 5.128616866e-20)
(98.41829504 -3.753148693 0)
(97.18633358 -4.793316545 -3.210205678e-20)
(95.52544642 -6.060741368 0)
(93.75930093 -7.229615128 6.842614988e-23)
(104.326486 -27.74855685 2.145962082e-19)
(107.535622 -17.44487687 -1.433475786e-19)
(107.175217 -12.06401983 0)
(105.8340788 -8.568725419 3.167209285e-19)
(104.3469952 -6.228086222 4.536823112e-21)
(102.9770864 -4.570497143 -6.708664314e-20)
(101.6119152 -3.282280062 -6.408140422e-20)
(100.8881006 -2.424732322 0)
(100.0560362 -1.66901615 0)
(99.68748404 -1.13206754 1.137791668e-20)
(99.45829948 -0.6604180607 2.098782102e-21)
(99.34066711 -0.2176081304 -6.797410336e-21)
(101.4609628 -0.1750704764 0)
(101.4210564 -0.5297258956 0)
(101.3446818 -0.8953672815 0)
(101.2193846 -1.300253189 0)
(100.9763097 -1.612310254 0)
(100.6994833 -2.0766033 0)
(100.3280742 -2.649949487 3.116015875e-21)
(99.85926015 -3.229043772 6.978121533e-20)
(99.25622714 -4.107911597 -5.890589357e-21)
(98.2803878 -5.257604178 -7.849321728e-20)
(97.00969487 -6.81829285 -1.5656535e-20)
(95.62594514 -9.092813817 -1.86302186e-21)
(97.25927325 -17.9312634 1.802931738e-21)
(102.5998996 -14.40388327 0)
(103.611978 -11.09299383 2.119909018e-19)
(103.2923235 -8.457319375 0)
(102.5212822 -6.439801477 0)
(101.6402873 -4.865631091 -5.516699479e-20)
(100.6684609 -3.547675144 -8.849220672e-20)
(100.1532788 -2.659350884 -3.33220951e-20)
(99.48788734 -1.820602675 -1.851272746e-20)
(99.18920435 -1.239242137 1.821591145e-20)
(98.99999027 -0.7249405902 0)
(98.90200069 -0.2388611676 1.820354379e-20)
(101.801855 -0.1834609152 0)
(101.7715374 -0.5559591135 0)
(101.7145575 -0.9386747507 0)
(101.6189206 -1.35647405 0)
(101.4098829 -1.69377521 0)
(101.1969272 -2.178742039 0)
(100.9156282 -2.758838305 5.248462299e-21)
(100.5637351 -3.35759615 -8.796562772e-20)
(100.1566889 -4.2176977 -5.258656451e-21)
(99.48451282 -5.337462172 -1.593810262e-22)
(98.77719901 -6.828116752 7.891070854e-20)
(98.11226624 -8.880383819 -1.220813741e-21)
(98.57550032 -11.40883934 -3.876722069e-21)
(100.5399012 -11.02850096 0)
(101.3349148 -9.447616486 -1.355430588e-19)
(101.3468597 -7.732578966 -6.547943688e-21)
(100.9617895 -6.180527862 5.497320532e-21)
(100.415084 -4.840413147 -2.33143522e-20)
(99.74375737 -3.609534105 0)
(99.41091098 -2.759960899 0)
(98.89444445 -1.887851466 -3.430897289e-20)
(98.66075913 -1.29498879 1.693061726e-20)
(98.51053918 -0.7599092345 7.098132648e-22)
(98.43203639 -0.250437061 -1.252940329e-20)
(102.1547081 -0.18728618 0)
(102.1336579 -0.5678758893 0)
(102.0955377 -0.9579410047 0)
(102.0284359 -1.376247755 0)
(101.8524195 -1.726147225 0)
(101.6975843 -2.210660577 0)
(101.4975057 -2.771964662 1.452783721e-22)
(101.2466677 -3.354734197 7.811758969e-20)
(100.9893977 -4.139486587 -5.549155085e-21)
(100.5653791 -5.098260761 0)
(100.1827716 -6.267975178 1.837715087e-21)
(97.54178611 -7.294792307 0)
(99.309261 -8.660455699 3.193135067e-20)
(99.80432359 -8.630190623 7.407602037e-20)
(100.0432115 -7.879868014 2.304065126e-20)
(99.99065395 -6.810022343 -3.940444651e-21)
(99.73126321 -5.670718388 -3.333356669e-20)
(99.36657599 -4.595800632 0)
(98.90949093 -3.524098377 -2.856837138e-20)
(98.69988723 -2.745078966 4.371627378e-20)
(98.3045962 -1.88544071 1.064357134e-20)
(98.12651003 -1.305642245 1.817904872e-20)
(98.01042979 -0.7683997483 -2.064507956e-20)
(97.94889418 -0.2531813857 0)
(102.5110955 -0.1870508339 0)
(102.4982488 -0.566967143 0)
(102.4764865 -0.9555653426 0)
(102.4342544 -1.364586087 0)
(102.2881187 -1.716009465 0)
(102.1826466 -2.183637932 0)
(102.0480362 -2.708026654 0)
(101.8733936 -3.251557342 -6.351406082e-22)
(101.7142 -3.927186096 1.178478674e-19)
(101.4267404 -4.695111441 2.215914591e-19)
(101.1262022 -5.528202806 -7.507595189e-22)
(98.10338111 -6.144952449 1.453229749e-19)
(99.70997648 -6.951749086 -4.550500686e-22)
(99.52458871 -6.977171162 -2.347970629e-20)
(99.32040212 -6.581958566 2.355961803e-19)
(99.08518579 -5.898192519 8.748237671e-20)
(98.80364704 -5.076776646 0)
(98.51276529 -4.243058455 0)
(98.17848645 -3.337967892 0)
(98.04406533 -2.644818638 0)
(97.74059405 -1.829812556 3.670789195e-20)
(97.60572836 -1.279555834 -3.433426692e-20)
(97.51644897 -0.7546018401 -2.325483462e-21)
(97.46810613 -0.2490476448 2.333102074e-21)
(102.8635238 -0.1834285649 0)
(102.8575346 -0.5554045852 0)
(102.8489635 -0.9351727116 0)
(102.8268022 -1.327024135 0)
(102.7064606 -1.670480172 0)
(102.638771 -2.110271567 0)
(102.5517347 -2.588080032 0)
(102.4269466 -3.081099717 0)
(102.317002 -3.645706769 1.985198614e-22)
(102.0803795 -4.241056461 3.488732948e-23)
(101.7684722 -4.836917332 1.427980627e-19)
(98.88291159 -5.1999846 0)
(99.94873224 -5.76230375 -5.542737533e-22)
(99.41848601 -5.782563877 1.067282617e-23)
(98.89636401 -5.545627054 3.89256405e-20)
(98.47111656 -5.083990475 -5.078970089e-25)
(98.1151198 -4.487222403 0)
(97.83071622 -3.844603515 0)
(97.55085166 -3.090524257 0)
(97.45500112 -2.486857705 0)
(97.21450608 -1.735122605 0)
(97.1105158 -1.224374811 0)
(97.04075469 -0.7245721068 0)
(97.00207537 -0.2401969555 0)
(103.2059773 -0.1771205069 0)
(103.2054168 -0.5354578286 0)
(103.2067879 -0.9006849765 0)
(103.1996005 -1.2699633 0)
(103.0996428 -1.598335841 0)
(103.0581096 -2.004289296 0)
(103.0011845 -2.432316749 0)
(102.9042908 -2.869453399 0)
(102.8072158 -3.340080925 0)
(102.5715508 -3.802873114 1.154737234e-21)
(102.2159779 -4.233172129 0)
(99.23445323 -4.430261121 8.319976046e-20)
(100.0971598 -4.865280306 -8.553495095e-24)
(99.36477827 -4.876042864 2.659850952e-21)
(98.61692811 -4.713965126 0)
(98.03641917 -4.386586472 0)
(97.59778188 -3.945034638 0)
(97.28544781 -3.442796803 0)
(97.02066582 -2.817210122 0)
(96.93656173 -2.298804599 0)
(96.73311965 -1.617613052 0)
(96.64848808 -1.150717573 0)
(96.59094139 -0.6828836794 0)
(96.55951943 -0.2269996122 0)
(103.5339305 -0.1688306615 0)
(103.537357 -0.5093887763 0)
(103.5455126 -0.8560130335 0)
(103.5483899 -1.199680822 0)
(103.4633793 -1.508356224 0)
(103.4376461 -1.878010679 0)
(103.3967775 -2.25830038 0)
(103.3102183 -2.639724258 0)
(103.2044362 -3.03020807 0)
(102.9441172 -3.395792941 0)
(102.5314001 -3.717780217 0)
(98.92074086 -3.784895539 0)
(100.183709 -4.1671932 0)
(99.31187146 -4.163723675 0)
(98.4146643 -4.042224494 0)
(97.71706886 -3.799550276 0)
(97.20081281 -3.462827264 0)
(96.8464627 -3.064079059 0)
(96.57382392 -2.542854587 0)
(96.48409196 -2.099527982 0)
(96.29853703 -1.489352347 0)
(96.22383733 -1.066884273 0)
(96.17260166 -0.6346648054 0)
(96.1454283 -0.211441925 0)
(103.8442471 -0.1592329967 0)
(103.8503027 -0.4793395845 0)
(103.8623576 -0.8047808988 0)
(103.8709231 -1.121717698 0)
(103.7960235 -1.408136451 0)
(103.7775723 -1.74163099 0)
(103.7414901 -2.079024519 0)
(103.6539711 -2.40799606 0)
(103.5269814 -2.732420909 0)
(103.2330412 -3.02422583 0)
(102.7659012 -3.271899597 0)
(98.70071226 -3.283222245 0)
(100.2283847 -3.605303789 -4.491120831e-35)
(99.26521349 -3.589822118 0)
(98.26151128 -3.492839421 0)
(97.47342613 -3.304999439 0)
(96.8892559 -3.040805827 0)
(96.49021089 -2.719550458 0)
(96.19555883 -2.282040769 0)
(96.09030628 -1.901834853 0)
(95.90941483 -1.358831742 0)
(95.83744312 -0.9791927802 0)
(95.7879772 -0.5836995447 0)
(95.76281405 -0.1948911811 0)
(104.1350199 -0.1489204934 0)
(104.1425228 -0.4471923152 0)
(104.1560238 -0.7501322221 0)
(104.1665862 -1.040543255 0)
(104.0979497 -1.303764537 0)
(104.0801912 -1.603056039 0)
(104.0405102 -1.901953025 0)
(103.94509 -2.184534671 0)
(103.7906052 -2.455293149 0)
(103.4610448 -2.691039442 0)
(102.9425075 -2.885326086 0)
(98.6171413 -2.874927374 0)
(100.2483588 -3.13986238 0)
(99.22273291 -3.118144118 0)
(98.13999771 -3.037410861 0)
(97.28129782 -2.886803096 0)
(96.63930823 -2.674177755 0)
(96.19729338 -2.410917828 0)
(95.87393531 -2.040994158 0)
(95.74754831 -1.713473468 0)
(95.56251974 -1.231884194 0)
(95.48819554 -0.8921907263 0)
(95.43725678 -0.5327500894 0)
(95.41240525 -0.1782729391 0)
(104.4054129 -0.1383767513 0)
(104.4133925 -0.4144809084 0)
(104.4263969 -0.6946482166 0)
(104.4360035 -0.9595652939 0)
(104.3706952 -1.199844512 0)
(104.3488242 -1.467739302 0)
(104.2999257 -1.732215767 0)
(104.1923397 -1.975163857 0)
(104.0078922 -2.202561389 0)
(103.6440316 -2.395418445 0)
(103.0750448 -2.550043877 0)
(98.62327879 -2.533753675 0)
(100.2517507 -2.750206657 -5.675561083e-35)
(99.18340421 -2.725208879 0)
(98.04015429 -2.656036927 0)
(97.12550697 -2.531815572 0)
(96.43471515 -2.356876125 0)
(95.95309007 -2.137680575 0)
(95.5989264 -1.822410738 0)
(95.44857647 -1.538828604 0)
(95.25385448 -1.11225129 0)
(95.17383797 -0.8089174214 0)
(95.1192718 -0.4837024477 0)
(95.09351679 -0.1622126666 0)
(104.6554596 -0.1279771439 0)
(104.6631481 -0.382377044 0)
(104.6742096 -0.640305495 0)
(104.680648 -0.8813099202 0)
(104.6163674 -1.099656979 0)
(104.5871522 -1.339308646 0)
(104.5254072 -1.572829819 0)
(104.4032638 -1.782965125 0)
(104.188668 -1.975256382 0)
(103.7933142 -2.13503947 0)
(103.1739388 -2.259451324 0)
(98.68432506 -2.244026637 0)
(100.2442268 -2.421805159 0)
(99.14665567 -2.394942861 0)
(97.95589965 -2.334386561 0)
(96.99617364 -2.229563315 0)
(96.2642328 -2.082876934 0)
(95.74685001 -1.897752349 0)
(95.36206313 -1.626937543 0)
(95.1869124 -1.380017318 0)
(94.9792632 -1.002088178 0)
(94.89151253 -0.7312637926 0)
(94.83198539 -0.4377644151 0)
(94.80449839 -0.1471146283 0)
(104.8858266 -0.1180027492 0)
(104.8926333 -0.3517344084 0)
(104.9007262 -0.5885293528 0)
(104.9024403 -0.8075519078 0)
(104.8374638 -1.005433689 0)
(104.798842 -1.21994434 0)
(104.7224732 -1.426147469 0)
(104.5841025 -1.609061276 0)
(104.3405395 -1.772974106 0)
(103.9169317 -1.907048189 0)
(103.2473229 -2.007988145 0)
(98.77780797 -1.996050779 0)
(100.2294273 -2.143857398 1.848648762e-35)
(99.11203984 -2.115834435 0)
(97.8832954 -2.061905187 0)
(96.88667888 -1.971781847 0)
(96.11995366 -1.846762311 0)
(95.57065257 -1.688412497 0)
(95.15655269 -1.454001597 0)
(94.95694574 -1.237718346 0)
(94.73469852 -0.9024376144 0)
(94.63809868 -0.6602950344 0)
(94.57287441 -0.3956459559 0)
(94.54312241 -0.133221793 0)
(105.097619 -0.1086561135 0)
(105.1031038 -0.3231500471 0)
(105.1075337 -0.5402972758 0)
(105.1034917 -0.7394656647 0)
(105.0365693 -0.9185765653 0)
(104.987305 -1.110911346 0)
(104.8954718 -1.293581046 0)
(104.7402258 -1.45360127 0)
(104.4694802 -1.594555727 0)
(104.0206127 -1.708462106 0)
(103.3014429 -1.790920359 0)
(98.89032113 -1.783628046 0)
(100.2098436 -1.907897256 0)
(99.07922672 -1.879248141 0)
(97.81965199 -1.830559476 0)
(96.7924275 -1.751858235 0)
(95.99615164 -1.643783309 0)
(95.41850828 -1.506765194 0)
(94.97691571 -1.302368331 0)
(94.75385584 -1.111725377 0)
(94.51635614 -0.8136048133 0)
(94.41042906 -0.5964946892 0)
(94.33919294 -0.357697923 0)
(94.3068627 -0.1206602661 0)
(105.2922478 -0.1000749302 0)
(105.2960945 -0.2970179839 0)
(105.2964205 -0.496240762 0)
(105.2859876 -0.677765748 0)
(105.2162054 -0.8399165166 0)
(105.1556569 -1.012893061 0)
(105.0480927 -1.175485526 0)
(104.8760266 -1.316192141 0)
(104.5801694 -1.438556925 0)
(104.1085312 -1.536510491 0)
(103.3411101 -1.604381306 0)
(99.01273439 -1.601653316 0)
(100.1872655 -1.707537676 0)
(99.04797773 -1.678636846 0)
(97.76307063 -1.634169517 0)
(96.71014242 -1.56451667 0)
(95.88860152 -1.46989882 0)
(95.28582455 -1.350052422 0)
(94.81873739 -1.170535981 0)
(94.57355059 -1.001358048 0)
(94.32073215 -0.7354369526 0)
(94.20541422 -0.5399546386 0)
(94.12813083 -0.3240217083 0)
(94.09306476 -0.10947393 0)
(105.4713346 -0.09234527966 0)
(105.4733241 -0.2735749584 0)
(105.4692944 -0.4567287523 0)
(105.4521255 -0.6228226893 0)
(105.3788299 -0.7698388987 0)
(105.3067541 -0.9260814662 0)
(105.1835795 -1.07165197 0)
(104.9951472 -1.196085595 0)
(104.6763121 -1.303408799 0)
(104.1838855 -1.388662601 0)
(103.3701688 -1.445081634 0)
(99.1385121 -1.446565173 0)
(100.1628846 -1.537827909 0)
(99.01807277 -1.508892385 0)
(97.71214543 -1.467862994 0)
(96.63738918 -1.405478539 0)
(95.79407903 -1.321662554 0)
(95.16897499 -1.21573099 0)
(94.67836265 -1.056901596 0)
(94.41248862 -0.9056696213 0)
(94.14462687 -0.6675072736 0)
(94.02010684 -0.4905172197 0)
(93.93691056 -0.2945568281 0)
(93.89905442 -0.09965249751 0)
(105.636591 -0.08551575129 0)
(105.6365788 -0.2529445437 0)
(105.628077 -0.4219444529 0)
(105.6040322 -0.5747824022 0)
(105.5267508 -0.7084506111 0)
(105.4431617 -0.8503857398 0)
(105.3046599 -0.9815255808 0)
(105.1006157 -1.092400603 0)
(104.7608321 -1.187578881 0)
(104.2491752 -1.26268282 0)
(103.3916467 -1.310166464 0)
(99.263445 -1.315422827 0)
(100.1372961 -1.39487179 0)
(98.98931985 -1.365992906 0)
(97.66580842 -1.327788239 0)
(96.57231159 -1.27128978 0)
(95.71007331 -1.196188764 0)
(95.0650558 -1.101552202 0)
(94.55275584 -0.9599217167 0)
(94.26762103 -0.8236326081 0)
(93.98516116 -0.6092661528 0)
(93.85176585 -0.4478885042 0)
(93.76288354 -0.2691515837 0)
(93.72224905 -0.09115464824 0)
(105.7898358 -0.07960671352 0)
(105.7877256 -0.2351680237 0)
(105.774723 -0.391939479 0)
(105.7438037 -0.5336276523 0)
(105.6621326 -0.6556797036 0)
(105.5672137 -0.7855419611 0)
(105.4137346 -0.9042383082 0)
(105.1949309 -1.004253023 0)
(104.8360657 -1.08962182 0)
(104.3064172 -1.156625825 0)
(103.4079243 -1.19726379 0)
(99.38462843 -1.20569028 0)
(100.1107369 -1.275566842 0)
(98.96153925 -1.24673783 0)
(97.62321086 -1.210851175 0)
(96.51343488 -1.159126712 0)
(95.63455666 -1.091052767 0)
(94.97165607 -1.005538107 0)
(94.4393526 -0.8781740675 0)
(94.13628585 -0.7542353661 0)
(93.83968232 -0.5601098802 0)
(93.69780383 -0.4117072874 0)
(93.60349831 -0.2476052959 0)
(93.56013005 -0.08392108017 0)
(105.9326912 -0.07462612712 0)
(105.9284345 -0.2202444011 0)
(105.9109628 -0.3666806122 0)
(105.873269 -0.4993090287 0)
(105.7869752 -0.6113345001 0)
(105.6810235 -0.7311275798 0)
(105.5131328 -0.8392857749 0)
(105.2801675 -0.9306781713 0)
(104.9039103 -1.008217026 0)
(104.3572945 -1.068825835 0)
(103.4209134 -1.104383113 0)
(99.49970998 -1.115236026 0)
(100.0833963 -1.17743621 -2.700983703e-36)
(98.93454086 -1.148583411 0)
(97.5836589 -1.114566147 0)
(96.45955538 -1.066690738 0)
(95.5658652 -1.004253168 0)
(94.88670443 -0.9261374621 0)
(94.33594217 -0.8104728765 0)
(94.01612955 -0.6965225741 0)
(93.70593701 -0.5194946872 0)
(93.55597982 -0.3815953209 0)
(93.4565226 -0.229710848 0)
(93.41049488 -0.07789131872 0)
(106.0675108 -0.07055594343 0)
(106.0610319 -0.2081196527 0)
(106.0391062 -0.3460755613 0)
(105.9947482 -0.4715573674 0)
(105.9031839 -0.5751824517 0)
(105.7864955 -0.6867038556 0)
(105.6049562 -0.786470235 0)
(105.3581097 -0.8707786952 0)
(104.9659546 -0.9422004952 0)
(104.403241 -0.9978786296 0)
(103.4320934 -1.02983304 0)
(99.60714323 -1.042454215 0)
(100.0554604 -1.098473043 0)
(98.90812615 -1.069501338 0)
(97.54655106 -1.03694449 0)
(96.40966295 -0.9921138611 0)
(95.50263594 -0.9341248976 0)
(94.80871656 -0.8620957582 0)
(94.24041918 -0.7558816874 0)
(93.90504765 -0.6496818159 0)
(93.58130728 -0.486770661 0)
(93.4236493 -0.3571872998 0)
(93.31925533 -0.2152439535 0)
(93.27059597 -0.07299075399 0)
(106.1938168 -0.06742909074 0)
(106.1851988 -0.1988285919 0)
(106.1589332 -0.3300707021 0)
(106.1081292 -0.4506782357 0)
(106.0125246 -0.5468837816 0)
(105.885361 -0.6518677976 0)
(105.6908305 -0.7459451428 0)
(105.4304914 -0.8236700779 0)
(105.0235973 -0.890585626 0)
(104.4455142 -0.9426269114 0)
(103.4425704 -0.9722223659 0)
(99.70631581 -0.9861030814 0)
(100.0271284 -1.037064977 0)
(98.88209046 -1.007894575 0)
(97.5113405 -0.9764039523 0)
(96.36285952 -0.9338791783 0)
(95.44364465 -0.8792460233 0)
(94.73625627 -0.8116918134 0)
(94.15107419 -0.7131781564 0)
(93.80104271 -0.6127332454 0)
(93.46553839 -0.4619259739 0)
(93.30058815 -0.3381754058 0)
(93.19152011 -0.204096271 0)
(93.14040118 -0.0692068182 0)
(106.3215756 -0.06510059293 0)
(106.3104163 -0.1921126229 0)
(106.2795763 -0.3184717333 0)
(106.2215247 -0.4344709742 0)
(106.1172544 -0.5263794238 0)
(105.9791474 -0.6266430474 0)
(105.7718246 -0.7167154458 0)
(105.4987794 -0.788950139 0)
(105.0780495 -0.8526080524 0)
(104.4852218 -0.9021450296 0)
(103.4531446 -0.9304242844 0)
(99.79727827 -0.9451951658 0)
(99.99863118 -0.9920227908 0)
(98.85620974 -0.9625693959 0)
(97.47750528 -0.9317315153 0)
(96.3183188 -0.8908073894 0)
(95.38773748 -0.8385318386 0)
(94.66751976 -0.7740109686 0)
(94.06664195 -0.6814112312 0)
(93.70253937 -0.5858196887 0)
(93.35072781 -0.4425618758 0)
(93.1779233 -0.3241821475 0)
(93.06405773 -0.1958909234 0)
(93.01012082 -0.06635140359 0)
(106.4205508 -0.06399897129 0)
(106.4078287 -0.1886389201 0)
(106.373505 -0.3120469203 0)
(106.3112745 -0.4281771814 0)
(106.2165054 -0.5130098414 0)
(106.0691047 -0.6104091706 0)
(105.8493627 -0.6982605376 0)
(105.5641684 -0.7660914613 0)
(105.1303576 -0.8276311426 0)
(104.5233459 -0.8756551489 0)
(103.4644019 -0.9035064431 0)
(99.88059542 -0.9189879303 0)
(99.9702043 -0.9624893678 0)
(98.83022016 -0.9326611473 0)
(97.44451373 -0.9020282498 0)
(96.27526217 -0.8620120338 0)
(95.33391231 -0.811180418 0)
(94.60149513 -0.7485739044 0)
(93.98574212 -0.6601711449 0)
(93.60835333 -0.5679987224 0)
(93.25953431 -0.4336754848 0)
(93.08180534 -0.3159389614 0)
(92.96430238 -0.1913282777 0)
(92.90865766 -0.06487870568 0)
(106.6121721 -0.06288808175 0)
(106.595922 -0.18630468 0)
(106.5546649 -0.3079247263 0)
(106.4793114 -0.4197286879 0)
(106.309741 -0.5077328275 0)
(106.1522013 -0.6033957898 0)
(105.9214708 -0.6908051895 0)
(105.6277144 -0.7547274653 0)