/*--------------------------------*- C++ -*----------------------------------*\
| =========                 |                                                 |
| \\      /  F ield         | OpenFOAM: The Open Source CFD Toolbox           |
|  \\    /   O peration     | Version:  v1912                                 |
|   \\  /    A nd           | Website:  www.openfoam.com                      |
|    \\/     M anipulation  |                                                 |
\*---------------------------------------------------------------------------*/
FoamFile
{
    version     2.0;
    format      ascii;
    class       volScalarField;
    location    "0.22";
    object      nut;
}
// * * * * * * * * * * * * * * * * * * * * * * * * * * * * * * * * * * * * * //

dimensions      [0 2 -1 0 0 0 0];


internalField   nonuniform List<scalar> 
12556
(
1.155895557
1.15586749
1.155837468
1.155812635
1.15603103
1.156026101
1.156039651
1.156079747
1.156159244
1.156302016
1.156477018
1.090649437
0.982809458
0.9707881175
1.052363901
1.156571468
1.156369923
1.156233357
1.156118442
1.156068089
1.155816353
1.155825333
1.155849599
1.155874594
1.155173869
1.155087362
1.154997593
1.154923359
1.155128504
1.155143696
1.155237453
1.15550975
1.155890841
1.156566255
1.157635516
1.01485531
0.9066946332
0.8871016904
0.9398833896
1.085572845
1.157144557
1.15629421
1.155677223
1.155358214
1.155003214
1.154979592
1.155033842
1.155112753
1.154409558
1.15426431
1.154118536
1.154023905
1.154243985
1.154331697
1.154572701
1.155129554
1.156086962
1.157724146
0.9173333612
0.7653510801
0.6917013422
0.6910457697
0.7415081155
0.8587161019
1.057899617
1.157020635
1.155603206
1.154852815
1.154224129
1.154163238
1.154222526
1.154341312
1.153640326
1.153439212
1.15325053
1.153150694
1.153401999
1.153639087
1.1542452
1.155276577
1.157283497
0.859086672
0.6501182524
0.5108736114
0.4654945945
0.4727727403
0.5247744638
0.6226474848
0.7809370125
1.044975932
1.156210952
1.154726067
1.153658453
1.153422818
1.153442324
1.153590088
1.152833515
1.152582012
1.152364661
1.152305106
1.152651051
1.153139178
1.154302764
1.156175451
0.9037486127
0.6092634291
0.4266594568
0.3268028363
0.2757516998
0.291474813
0.3490123257
0.4394426627
0.5749083904
0.7928499699
1.115416117
1.155122866
1.153293587
1.15275398
1.152675972
1.15281583
1.152046571
1.151755801
1.151533847
1.151529957
1.152031636
1.152905536
1.154932981
1.086280725
0.7026614474
0.4461615598
0.2788768044
0.1771988611
0.1397644675
0.1630371972
0.2262012869
0.3142493579
0.435039776
0.6196820762
0.9265841038
1.156155942
1.153180322
1.152172432
1.151922742
1.15203264
1.151235115
1.150915449
1.150718183
1.150846118
1.151607555
1.153000888
1.156167104
0.9246457892
0.5812740226
0.3494498103
0.1932846004
0.08914371892
0.05122927555
0.08197020332
0.1508621479
0.2363417556
0.3464524628
0.5043015607
0.7830940778
1.149000358
1.153315463
1.151677709
1.151167312
1.151200251
1.150511215
1.150174773
1.150023922
1.150368826
1.151329847
1.153480275
1.152523936
0.8274909477
0.524046053
0.3158127591
0.1732623861
0.07143840461
0.04781732232
0.1171005765
0.1965736158
0.2974764517
0.4394386521
0.6903699842
1.037703061
1.153758645
1.151323296
1.150454024
1.150377291
1.149828041
1.149492845
1.149432676
1.150030947
1.151280358
1.154338838
1.074719302
0.7778476292
0.5126831709
0.3346894715
0.2187654592
0.151318771
0.06114151361
0.116804524
0.1873580576
0.2789830298
0.4077052382
0.6406063195
0.9555441925
1.154467729
1.151138506
1.149837383
1.149609987
1.149311594
1.148984662
1.149031513
1.14992724
1.151555501
1.155545855
1.029358611
0.7637987789
0.5322446306
0.3776261188
0.2929146671
0.2802190557
0.08744510174
0.1349785551
0.1994649976
0.2861349862
0.4087924681
0.621513017
0.9048899059
1.155461301
1.151226369
1.149436984
1.149040364
1.148912332
1.148614936
1.148811185
1.150071956
1.152112931
1.157046139
1.008833406
0.7714812834
0.5652973127
0.428712107
0.3632627233
0.3949851372
0.1196628589
0.1655392951
0.2270126359
0.3080559187
0.4227066479
0.6271321048
0.881343084
1.156651937
1.151599697
1.149325747
1.148735757
1.148712252
1.148452178
1.148798805
1.150413084
1.152906062
1.158628397
1.00793543
0.7959698738
0.6079180525
0.4785105073
0.4050976252
0.4132875867
0.1579592181
0.2088399624
0.2711073625
0.3507446172
0.4613127914
0.656087256
0.88693497
1.158139247
1.15231223
1.149568897
1.148800564
1.148643355
1.148429387
1.148988214
1.151013075
1.153841082
1.160209805
1.020989967
0.8396330693
0.6628963241
0.5350972469
0.4486558879
0.3648729498
0.03579563617
0.211506869
0.2734092094
0.3386913185
0.4156990493
0.5267883369
0.7030439551
0.909530848
1.159688583
1.153300102
1.150144396
1.149204173
1.148763348
1.148597209
1.149342841
1.151706834
1.155091003
1.161946492
1.076838076
0.8946962806
0.7397986743
0.6160726911
0.5344652041
0.2736436336
0.07314378625
0.3157017601
0.3864881456
0.4423642674
0.50842406
0.6101419507
0.7698139994
0.9519028483
1.161225521
1.154506366
1.15101075
1.149950673
1.148948667
1.148822207
1.14974076
1.152447189
1.156235291
1.163422193
1.142579107
0.9852018663
0.8474537611
0.737137153
0.6709181377
0.1226580803
0.1099832923
0.3497115821
0.5960588586
0.6013520139
0.6418493955
0.7290816481
0.8696897975
1.022238951
1.162683651
1.155782386
1.152039725
1.150869706
1.149258388
1.14916989
1.150234769
1.153229842
1.157338081
1.164679914
1.167861534
1.113348885
0.9936500347
0.9176422165
0.7701546131
0.07453499045
0.1230282355
0.3656182454
0.6299427342
0.8377122583
0.821948998
0.8818764043
0.9994990137
1.120310672
1.164142601
1.157057943
1.153180469
1.151968388
1.149540031
1.14947352
1.150655171
1.153922447
1.158329383
1.165621297
1.168185207
1.156475752
1.112918362
1.00195147
0.6832984742
0.04175945348
0.1509281607
0.3925646894
0.658676265
0.891345408
1.041048183
1.070942267
1.161612413
1.170073361
1.165386357
1.158247118
1.154272822
1.153022041
1.149883113
1.149835648
1.151101932
1.154563964
1.159159685
1.1663025
1.167948556
1.154431332
1.102312235
0.9607193036
0.5116320554
0.03169347642
0.1942291275
0.429527147
0.6893574687
0.9053960599
1.046752122
1.12443004
1.163514684
1.171263397
1.166357654
1.159291265
1.155326394
1.154061432
1.150123634
1.15008139
1.151403146
1.15503671
1.159803067
1.16666055
1.167310106
1.151711047
1.093470419
0.9206135283
0.348477818
0.03440119357
0.2304457605
0.4588679979
0.706155513
0.9130438005
1.05116901
1.127011535
1.164772594
1.172075368
1.167060643
1.160122487
1.156204683
1.154939549
1.150398004
1.150365825
1.151721122
1.155443699
1.160251495
1.16673634
1.166280729
1.148566586
1.084239026
0.8860026774
0.2895565007
0.03778227004
0.2440926839
0.469169545
0.7141058816
0.9195255068
1.054911786
1.129009725
1.165625572
1.172575908
1.167595164
1.160843165
1.15699232
1.155727085
1.150526901
1.150499628
1.151874957
1.155677402
1.160526867
1.16657963
1.164945686
1.145159439
1.074613036
0.8431406182
0.2514354032
0.04168854535
0.2542327863
0.4784743195
0.7208733756
0.9251946847
1.058292393
1.130662177
1.166194635
1.172848948
1.167920903
1.161362495
1.15758606
1.156322291
1.150697014
1.150688124
1.152081452
1.155898999
1.160662123
1.166252537
1.163477582
1.141642475
1.064374266
0.7935752819
0.2235427163
0.04675701799
0.2641162428
0.4877680571
0.7275965314
0.9302117482
1.061378421
1.132077322
1.166561795
1.172963684
1.168171375
1.161829862
1.158123319
1.156851977
1.1507035
1.150713038
1.152126504
1.155979671
1.160701197
1.165816637
1.161932265
1.138045765
1.052564118
0.7455964462
0.2022983728
0.05302206933
0.2738204083
0.4972512426
0.7346766951
0.9347916094
1.06411089
1.133269531
1.166779078
1.172971523
1.168275045
1.16212439
1.158479433
1.157198209
1.150780714
1.150825221
1.15226943
1.156113205
1.160676245
1.165318882
1.160338517
1.134247375
1.037919435
0.7029314443
0.1858183056
0.0605474265
0.2834572363
0.507049358
0.7421653774
0.9391378433
1.06644983
1.134227006
1.166880643
1.172909804
1.168383567
1.162435317
1.158840332
1.157538995
1.150684262
1.150763044
1.152244332
1.156119053
1.160618081
1.164788083
1.158674348
1.1299947
1.01996263
0.6651335613
0.172795293
0.06920923154
0.2932319338
0.5173238502
0.7500369912
0.9433632636
1.068421206
1.134957851
1.166893568
1.172806017
1.168377595
1.162590931
1.159035717
1.157713334
1.150703044
1.150832351
1.152365521
1.156232884
1.160541354
1.164245068
1.156914575
1.124997691
0.9991108617
0.6303611922
0.1616509035
0.07906913781
0.30350006
0.5282503586
0.7582326224
0.9474796879
1.070076904
1.135493509
1.166842982
1.172679973
1.168444326
1.162834227
1.159307931
1.157955723
1.150542325
1.150717692
1.152304746
1.15621129
1.160468424
1.163709618
1.15505691
1.119044795
0.9759345531
0.5967349933
0.1511862174
0.09028950115
0.3144871401
0.539711288
0.7664642382
0.9513479812
1.071444399
1.135872735
1.166752392
1.172547886
1.168397063
1.162914462
1.159409239
1.158028807
1.150547627
1.150785175
1.152443428
1.156353998
1.160404801
1.163199765
1.153122387
1.112126963
0.9515033484
0.5645980925
0.1409995044
0.102618529
0.3258514097
0.551020607
0.774117802
0.9547226792
1.072531637
1.136132482
1.166642225
1.172421396
1.168478568
1.163141844
1.159647196
1.158230743
1.150372312
1.150662211
1.152384374
1.156340033
1.160369384
1.162727762
1.151132621
1.104515791
0.9276173285
0.5361357531
0.1329309193
0.1149749306
0.3366421218
0.5611625168
0.78060728
0.9574567729
1.073367924
1.13630661
1.166528501
1.172309351
1.168420808
1.163180478
1.159693885
1.158246332
1.150393971
1.150755202
1.152566076
1.156545436
1.160359511
1.16229997
1.14909572
1.096622815
0.9060412825
0.5134746207
0.1279044466
0.1262174493
0.3459816644
0.5695750193
0.7858123607
0.9596070688
1.074009097
1.136423431
1.16642228
1.172216987
1.168549322
1.163424007
1.159934263
1.158447672
1.150244462
1.150660319
1.152540315
1.156565354
1.160392829
1.161917307
1.147009261
1.088770641
0.8874749119
0.4967430107
0.1252957107
0.1359093575
0.3537758863
0.5764567766
0.7900088241
0.9613308193
1.07451093
1.136503516
1.166330047
1.17214705
1.168497769
1.163449176
1.15996087
1.158444227
1.150288694
1.150784566
1.152770383
1.156848728
1.160459341
1.161577338
1.144869292
1.081114591
0.8716131578
0.4844935007
0.1244133907
0.1442514678
0.3604342158
0.5822645297
0.7935240224
0.9627646253
1.074913227
1.136559264
1.166254478
1.172100994
1.168680199
1.16371393
1.160213258
1.158656384
1.15020899
1.150758402
1.152815227
1.156932272
1.160575822
1.161274861
1.142676639
1.073718305
0.8579232963
0.4753089702
0.1245989127
0.1515259732
0.3663347408
0.5873468206
0.7965754283
0.9639939362
1.075241334
1.136598119
1.166195271
1.172074173
1.168647837
1.16374727
1.160242926
1.158659355
1.150263353
1.150901501
1.153079335
1.157280363
1.160727252
1.161006412
1.140443562
1.066619767
0.8459991346
0.4683486655
0.1256478526
0.1579914563
0.3716956575
0.5919047373
0.7992861465
0.9650686345
1.075512185
1.136627079
1.166151292
1.172068823
1.168839155
1.163988903
1.160466433
1.158841149
1.150302897
1.150990194
1.153236622
1.1574762
1.16093149
1.160771613
1.138203418
1.059843836
0.8355577758
0.4630604971
0.1274125485
0.1638186131
0.3766334586
0.5960509039
0.8017283271
0.9660195379
1.075737365
1.13664914
1.166125402
1.172079014
1.168890238
1.164084866
1.160554543
1.158908338
1.150472226
1.15127646
1.153687266
1.158047025
1.161189201
1.160587671
1.136059061
1.053429889
0.8264251151
0.4592302321
0.1297597019
0.1691248416
0.3811969644
0.5998264214
0.8039235159
0.9668545888
1.075916729
1.136660846
1.166157962
1.172149025
1.169152502
1.164396443
1.160842515
1.159147738
0.1357073671
0.0548547396
0.04097806127
0.2653959216
0.08072747317
0.05801776165
0.3823754574
0.1133825591
0.08453227251
0.4167975555
0.1446336914
0.1182036132
0.3756017443
0.02641031864
0.03406160498
0.1866780954
0.1489383447
0.3117484665
0.05042514811
0.02733355111
0.0690149732
0.2583563471
0.1904484166
0.06961918307
0.05168201766
0.0422067297
0.07806330505
0.02748606136
0.0177544983
0.05844331303
0.09909704041
0.09911782158
0.2737241552
0.2609651813
0.1565675769
0.0209313432
0.03253108056
0.08395274862
0.1162700859
0.1019877204
0.3473455486
0.3665892623
0.2743673329
0.3233806905
0.1886623501
0.2099516482
0.037488505
0.02619520964
0.1154921204
0.1450439426
0.1225208549
0.3982210955
0.4103969065
0.377730304
0.4182847414
0.1271988603
0.1618416713
0.07425841978
0.05248225185
0.4344986506
0.3787223055
0.4087083276
0.4003476016
0.07808739409
0.1010273912
0.0147324929
0.1222259918
0.1039913922
0.5080176777
0.3769802142
0.3744316364
0.3527631983
0.03203360687
0.05165743457
0.2846665461
0.0709894649
0.05159411056
0.0580730403
0.1286138607
0.02778134059
0.05266134496
0.03344326047
0.02926587322
0.04578944739
0.03061542613
0.04780975193
0.212788554
0.232967868
0.2195425907
0.1833332112
0.1727470531
0.1427684714
0.1854620186
0.02592435665
0.02079298821
0.06972133659
0.03195052602
0.03628526746
0.04632856976
0.03214943299
0.06807260366
0.1642078681
0.1854390841
0.3383459161
0.1465164549
0.1255283212
0.1713086608
0.148250662
0.04970315088
0.03844986608
0.1008546336
0.05547838567
0.07295513872
0.03667304759
0.05311461217
0.09655613787
0.1022986093
0.125739084
0.4206516334
0.1021857006
0.07912150718
0.1242986253
0.1033934532
0.1006154017
0.07777915383
0.05260368425
0.07644545635
0.3885914947
0.01523109882
0.05455898964
0.03344571407
0.07814911332
0.05605457939
0.01518044675
0.1333555815
0.1244125456
0.01515143065
0.004892336058
0.03177655253
0.3504866875
0.04141709859
0.01995316167
0.01250577366
0.03309963469
0.0202607096
0.03965708332
0.2030883415
0.142533224
0.08341857749
0.08794729784
0.05706092718
0.03269659226
0.01080621894
0.0081143574
0.2026376661
0.2355949126
0.1394203463
0.01278010638
0.1508282562
0.1834349038
0.1537354532
0.01483027903
0.03900380192
0.03397807037
0.05087598134
0.150727144
0.1381627622
0.1271408677
0.06340641979
0.09768380499
0.0410755407
0.01190944572
0.02136514423
0.02028956298
0.02839726474
0.04392624539
0.03304723676
0.02464124471
0.132756977
0.09854304538
0.1162395004
0.07587032246
0.09565623154
0.1295615757
0.01788330139
0.01660943084
0.03146262066
0.0204091122
0.03439424378
0.02706344245
0.01784685483
0.02724651057
0.01965746935
0.01119045951
0.02089295728
0.01447917056
0.009537556174
0.01345923642
0.01995738666
0.02748562642
0.02799433129
0.03181867843
0.03102800967
0.01361202458
0.01256348143
0.0643543399
0.01230348092
0.01964500686
0.0123290694
0.01181634908
0.06114618937
0.09122911782
0.2406835563
0.2300482526
0.04991998143
0.04174782137
0.01476768069
0.04696945616
0.1831092456
0.172556947
0.1977245696
0.1874136367
0.04728760086
0.0484417422
0.04143591249
0.08290255997
0.06315615503
0.05199712836
0.03992571354
0.06274274696
0.09318868203
0.03365911642
0.02204341781
0.01372205046
0.048268433
0.02444118923
0.03714036044
0.02385298491
0.05229051008
0.04125232553
0.04088519603
0.1818324508
0.03175621805
0.1813658476
0.1947811758
0.03516057877
0.03897521519
0.03213380194
0.03470315581
0.1940340516
0.02487219294
0.02467176635
0.03446203741
0.06896664175
0.06413626445
0.07547471489
0.07074818525
0.03466909043
0.03924938209
0.05565335324
0.05033097464
0.06238140307
0.05718166481
0.03845907387
0.1363383313
0.1349766372
0.1609172896
0.1594840165
0.04676791857
0.01223909337
0.04571883786
0.09377454933
0.09212184687
0.1133981507
0.1119920445
0.02080529864
0.02942376908
0.08795283348
0.02303576258
0.01425110654
0.06809050691
0.2122123246
0.2014865008
0.2264429482
0.2157581413
0.06931723021
0.01670315173
0.05028486144
0.04931222821
0.07164575907
0.07085327175
0.01034303709
0.02153485954
0.06190930834
0.05292327233
0.1684288889
0.16128864
0.02584188911
0.0128960562
0.01923812804
0.01717511082
0.03173908196
0.01421426991
0.01713384976
0.01519745285
0.03179336694
0.03369203933
0.01672643937
0.01718281698
0.003973938148
0.0142661228
0.0133528354
0.6284738171
0.3737550298
0.3700010535
0.2562001119
0.01017533
0.005508855724
0.106034371
0.2869068984
0.2737446016
0.005757991199
0.01323008025
0.01378399456
0.07435606328
0.06530118209
0.02332834895
0.1637725795
0.1552575923
0.05306575916
0.008600410852
0.01447739807
0.01146234014
0.008154850886
0.01154782964
0.008259826666
0.02282423289
0.009340876426
0.008757358141
0.03024484564
0.0347020801
0.01079276079
0.01405746487
0.009315068614
0.009611859313
0.02743384284
0.1396290294
0.294068628
0.2842890247
0.3068735732
0.2972982006
0.1424937968
0.254365685
0.2440181612
0.09240132423
0.03512050711
0.09732024434
0.0926457949
0.01424155252
0.02271888878
0.0547487733
0.03849170403
0.01081523098
0.009465670142
0.04013898747
0.04151374513
0.03653041591
0.04860141322
0.04323187883
0.04229152084
0.02538128906
0.008919195374
0.009250031146
0.02173057741
0.1733757486
0.3192562524
0.3099814714
0.05991060301
0.06168949801
0.1295824106
0.01486844172
0.01608055374
0.04127690556
0.06233655355
0.101868667
0.09457020024
0.04158003923
0.08311010928
0.0774898248
0.0918986554
0.085265584
0.04251814502
0.1142504792
0.2678103022
0.2577112021
0.2810164262
0.2711481437
0.1158506763
0.09867330138
0.03796287624
0.03866778344
0.02220448529
0.02305201876
0.08312236001
0.1198467678
0.05601174735
0.05952706193
0.03895701362
0.03961335628
0.107002075
0.09141278662
0.03079267587
0.04181048775
0.01093559716
0.01529030724
0.05234167783
0.04060989772
0.07534214247
0.02159600169
0.0220623851
0.02115249059
0.06487092873
0.0151038014
0.004427449535
0.1266754925
0.1131357269
0.09107225265
0.08736705787
0.0315294484
0.01721163398
0.02019169326
0.04656783131
0.01975374975
0.013234609
0.0209797332
0.02075533813
0.002813855811
0.03267264642
0.02133180195
0.01177933608
0.006606660953
0.01156544563
0.01240109648
0.01191147037
0.01798771675
0.01497199544
0.01015454556
0.03844695232
0.03990855006
0.0140771994
0.01075645273
0.00688415277
0.01128739734
0.01528470463
0.01334643277
0.01286297425
0.02831629313
0.01394770626
0.01347610517
0.01574093027
0.01642904524
0.02091304395
0.01571932315
0.01495615643
0.01644085962
0.01587123128
0.01448122744
0.01644170159
0.01632953548
0.01709672306
0.01633666204
0.01518603097
0.0103760434
0.0192253189
0.01701081178
0.02016849817
0.01900574507
0.01647037266
0.014648459
0.01243874488
0.008235251566
0.007138477723
0.02432019978
0.02969092745
0.008610365109
0.008205576354
0.01032417621
0.01060546625
0.03379851493
0.01052534263
0.01007029236
0.01032842253
0.01058313131
0.0099400114
0.02828949832
0.009576462166
0.0102240054
0.01203945465
0.01194432014
0.01463474814
0.03485703965
0.03126808795
0.01173796995
0.02570280775
0.02239839161
0.03005024658
0.02697258085
0.01156730001
0.01474015453
0.02394460716
0.01968030799
0.1048907628
0.0989657676
0.03905466982
0.04936159745
0.111327999
0.1064883049
0.04415972334
0.04341351633
0.06469236408
0.07026673089
0.08399400284
0.05264234525
0.06603078868
0.06538311672
0.05840250228
0.1237522105
0.1165507197
0.09032007879
0.1137095847
0.05834103969
0.03638638825
0.03887218414
0.04850623152
0.03148953502
0.03515054501
0.01549609491
0.01452360444
0.04047287487
0.01036867515
0.0105134149
0.008125480087
0.01543509077
0.01832543757
0.01092086542
0.01557237693
0.03611770446
0.02160814314
0.01625281198
0.03002583516
0.09066221179
0.08035987031
0.09604683705
0.09276411835
0.03110099635
0.07300637746
0.07107782222
0.0774037959
0.07369636739
0.03654148324
0.1090628174
0.1056306215
0.1144951404
0.1102595586
0.03708839834
0.03317238389
0.1002181781
0.0971528118
0.1045129148
0.1012694167
0.03348811559
0.00853633333
0.008782193301
0.02522423433
0.02273708933
0.006701669683
0.008466585131
0.04399287765
0.04327117165
0.04604697157
0.04424099144
0.04192430849
0.04092749273
0.04302879012
0.04218652211
0.0681319301
0.06640066
0.07047762808
0.06872933521
0.06146293125
0.04861716964
0.0656831754
0.0637991607
0.01700001204
0.01463501364
0.02143173833
0.01830842291
0.00788866654
0.01077814272
0.01042332929
0.01378752351
0.0108872966
0.03703834648
0.03762204036
0.09746937578
0.02225730783
0.0220339057
0.02291723579
0.02244016975
0.02135329162
0.08527014523
0.02375882835
0.03490104065
0.04168609828
0.0542465704
0.1182826905
0.03822405381
0.02508429545
0.04079244843
0.03792042893
0.0236920418
0.02314854737
0.02463630011
0.02391311128
0.108218692
0.03983227189
0.04068832328
0.009333653879
0.0191838555
0.01363792352
0.01364177083
0.01301012345
0.01787718247
0.01110313446
0.0155669563
0.01489678885
0.01545723008
0.05172605937
0.04546457176
0.02100191939
0.02148447229
0.07447260244
0.06693976028
0.02011042125
0.0209401078
0.01479011208
0.03048116965
0.0850419359
0.07743852918
0.01560478335
0.01458393155
0.01901112624
0.01352168293
0.01587075062
0.01786152551
0.03257102308
0.01077545127
0.01667460714
0.01334550324
0.01669806098
0.02217292618
0.04887270051
0.1031818871
0.1318559424
0.01445935928
0.01397787113
0.1925184076
0.2393876116
0.1952987102
0.009926528172
0.02253513233
0.01633975505
0.01625771637
0.1192396077
0.1429864471
0.1624313346
0.004555136725
0.006790629231
0.005029195916
0.004910020824
0.005418339709
0.004273773663
0.05183342009
0.03230986844
0.02055811368
0.02328087628
0.02149641189
0.02391883683
0.1981258702
0.3179768377
0.3341373682
0.2965929007
0.3107280394
0.2011367278
0.02946256582
0.0256803878
0.0146631165
0.04464140799
0.05333337555
0.1118077175
0.1177367459
0.1128655418
0.04982607875
0.02418505763
0.02242490178
0.03403644111
0.3311601732
0.3222643618
0.1762859811
0.1419542637
0.06680321918
0.07022080647
0.07298774557
0.08262838455
0.1534152908
0.06003246547
0.1250314429
0.1194366591
0.01524626303
0.01523890204
0.01518285568
0.0209375342
0.02123458508
0.03430036584
0.01518055818
0.01494610408
0.01500405115
0.01693410631
0.03509058746
0.03058121234
0.01989503755
0.03290569402
0.02048338404
0.02066700563
0.02030910912
0.01148278695
0.01284842245
0.0142113885
0.01438586143
0.01479263413
0.01588091456
0.01924962889
0.03886605013
0.04013631314
0.03493577356
0.03154781612
0.02297403137
0.0295561683
0.01315954371
0.01484454256
0.01484093994
0.01102490818
0.01092979901
0.01541623089
0.014604834
0.02104854218
0.01344385322
0.009538321005
0.01306914683
0.01535416886
0.01500840304
0.009965544998
0.01238972622
0.01294944594
0.01251817154
0.01249029615
0.008520975833
0.0123896743
0.01208237003
0.0399561149
0.03598784596
0.01574680351
0.01237646014
0.01158013365
0.01128627847
0.01483341713
0.01407242211
0.01418048373
0.04664882672
0.03662847926
0.04203331888
0.06368223124
0.08660305067
0.08614834917
0.04139127711
0.06484104612
0.06164304462
0.08529057554
0.08394448526
0.06167363155
0.02922838652
0.03551297035
0.03308234515
0.02555979488
0.02616245291
0.02155186704
0.04531562492
0.04418567728
0.04548569117
0.02436369153
0.03454918878
0.03296619851
0.05182949412
0.05148051204
0.0315056504
0.02941717003
0.02902913952
0.03194179744
0.03125846756
0.03564657865
0.05713787568
0.0566075509
0.06023843583
0.05958381121
0.0382712629
0.03244629357
0.05291249904
0.052448154
0.05606047632
0.05551826707
0.03428293248
0.06445632917
0.0661723317
0.1405097
0.1308771175
0.06222574418
0.0639083521
0.08861408615
0.09131856377
0.1654027151
0.02750316949
0.02735658319
0.02880436983
0.02859295725
0.02114843881
0.02710530638
0.02699478307
0.1549649159
0.08459098159
0.08760302755
0.01171672513
0.01164251004
0.01130065893
0.01117983151
0.01202479058
0.01119003881
0.007514231173
0.04223936738
0.016685754
0.02009321791
0.1322213788
0.1268987988
0.06313646189
0.0720559195
0.1385075942
0.1337991867
0.03359203908
0.03364895353
0.05062529834
0.04900604956
0.03319600747
0.03312958021
0.0146347652
0.02443372237
0.0389600703
0.0380453437
0.01027709418
0.01560325696
0.01823295055
0.01647995907
0.01704246905
0.01955742712
0.01979808908
0.03218569312
0.01452623271
0.01050723457
0.0141847183
0.01573311387
0.03018005626
0.0190510202
0.01964731581
0.01670679628
0.0193655223
0.01796686473
0.01462046775
0.01460551788
0.01412888332
0.0140810597
0.01354771044
0.006159751187
0.0040635749
0.007105273335
0.01347549581
0.01429291136
0.01434269318
0.01376487748
0.01430438741
0.0135195576
0.009536926078
0.006236539494
0.005235016602
0.008410532721
0.008636178921
0.008292279452
0.008340516987
0.009060418975
0.01419674003
0.01443117878
0.01383691229
0.01403829258
0.008961874721
0.009488321956
0.01077771437
0.010763939
0.01116865549
0.01088081089
0.009601815912
0.01016948345
0.01622544089
0.01818302971
0.01467771704
0.01521038602
0.00983664124
0.009003915543
0.01071578282
0.01072033881
0.01071828027
0.01073074774
0.009079831191
0.00826010758
0.008300977135
0.008249921724
0.008418151404
0.03812328615
0.05675476259
0.05631674537
0.02243885753
0.03711925306
0.03686903557
0.03842194035
0.03748250623
0.02265499532
0.01503683866
0.01484350661
0.01516053167
0.01503442342
0.02105453716
0.02086403883
0.02148739143
0.02125879536
0.01653275992
0.0364373421
0.02184454005
0.02280164709
0.02176620247
0.03637176216
0.03615577836
0.036707378
0.03652619289
0.02189590206
0.02247675375
0.02182247571
0.03285668667
0.02351723359
0.01682611742
0.01075101406
0.01489166084
0.01505035379
0.0106833309
0.04523904219
0.03207938165
0.002951730163
0.03152463762
0.04779506528
0.04750854369
0.01970342993
0.01304826079
0.009651983569
0.003063827716
0.0162022227
0.01678071522
0.02023753401
0.02040665132
0.03284722095
0.02071513407
0.009233166408
0.00940277966
0.01320763136
0.005486075504
0.009410741708
0.006899297742
0.008017557612
0.007962049809
0.01274675412
0.008209608533
0.0144170776
0.01442913373
0.01461045194
0.03987798832
0.03135176791
0.008093630415
0.009902753027
0.01107461946
0.01798622185
0.02005904996
0.01193872011
0.01475559044
0.01404185789
0.01417762409
0.009575098262
0.01401542709
0.01526345483
0.01099344682
0.01475373522
0.0148581191
0.01667717522
0.01551684974
0.01580327226
0.01498983852
0.0147026716
0.01627008192
0.01640575258
0.01582877475
0.01470875587
0.01589988046
0.01674398614
0.01681719354
0.01332879515
0.01449308449
0.01328049316
0.02074184254
0.01663118247
0.0127260729
0.01179711258
0.01276634502
0.007953522641
0.01224148825
0.01308383442
0.009080111249
0.01233654652
0.008141634884
0.008459805733
0.01348983203
0.013674438
0.01310962243
0.01336629871
0.008389251034
0.01042279928
0.01613978012
0.01588549257
0.01040526747
0.01019814098
0.01030844088
0.007096580533
0.01071936705
0.01056833737
0.009730731399
0.006726412692
0.00962966674
0.01342894116
0.01200155977
0.01547571923
0.01470028239
0.009940971175
0.01316426608
0.01295305671
0.01228901978
0.008804522765
0.01328531225
0.01267405226
0.01211845793
0.01301045181
0.01318665344
0.0130965629
0.01220833593
0.01192630915
0.04515503687
0.04256805548
0.07813794757
0.07081764946
0.0432131355
0.06143280244
0.08327942791
0.08044107409
0.0335255136
0.03099804343
0.02860778863
0.02187730917
0.02840309997
0.0400816025
0.04091203762
0.03633740662
0.01538198966
0.02253940895
0.02290600306
0.02034894801
0.02112345391
0.01448600159
0.009838622155
0.01060256554
0.01646052674
0.01155263256
0.01110433245
0.01218096859
0.01170551168
0.01672406624
0.0112266964
0.01184713422
0.009184463963
0.01198929399
0.04780109659
0.04796385939
0.03134105394
0.03109264724
0.05062689755
0.0506126801
0.03007008063
0.02969961233
0.03081253917
0.03040727166
0.05810483987
0.05760095129
0.03601751674
0.03766368818
0.05908452401
0.05860111336
0.0539690082
0.05348179843
0.03284487572
0.03384212677
0.05496651951
0.05446184419
0.008634758058
0.01074380392
0.01076660648
0.01072490418
0.01074785923
0.008710837116
0.008319400399
0.01013034236
0.009140661825
0.0107294786
0.01057921034
0.008416506511
0.04374167523
0.02626178581
0.02652687417
0.02584179573
0.02604452434
0.04351116176
0.04498777366
0.02745441029
0.02794291358
0.02678867288
0.0270947734
0.04453908535
0.04156578193
0.02463854168
0.02486860814
0.02427188711
0.02449690016
0.04134036565
0.04276734298
0.02545082098
0.02563780838
0.02503608546
0.02526117579
0.04250562625
0.02792195101
0.02774014729
0.06756340339
0.04643078967
0.04672527037
0.04579414026
0.04605392734
0.06693487206
0.02834696499
0.02814710455
0.02587101102
0.02709526229
0.05955691132
0.04230248361
0.04202310378
0.02883957311
0.03023377928
0.05359601677
0.06524212374
0.04515401949
0.04534127243
0.04449725971
0.04445502893
0.0641527166
0.02668630392
0.02672358186
0.01184983409
0.01181419448
0.01156193948
0.01128642238
0.01144370083
0.01060355563
0.01123984545
0.01133641311
0.01093101277
0.01103862836
0.01057408914
0.01253925431
0.01100006364
0.0109158821
0.01136941572
0.01135529444
0.0114391469
0.03695978275
0.05436532787
0.05408444071
0.05567867791
0.05534020517
0.03752724804
0.02220876784
0.02196802459
0.02278963206
0.0225195186
0.02240880489
0.01751666515
0.02500683766
0.04511883116
0.04068140015
0.0519992035
0.05031257361
0.03521245697
0.02718592436
0.01899856662
0.02434223289
0.02587750212
0.04015031365
0.02391574476
0.02420241909
0.02321068441
0.02396434617
0.04021078952
0.02352139918
0.02330062993
0.02435997531
0.02411258792
0.0138549384
0.01282340084
0.01288943809
0.01276504921
0.01270889469
0.01394946134
0.01353934808
0.01355309997
0.01299829864
0.01336840021
0.00908812451
0.0150836543
0.01550865529
0.01552591099
0.01598163493
0.01582637619
0.01486806753
0.02042343006
0.02038226652
0.02066811358
0.02060457575
0.03145172551
0.03142642338
0.04704779845
0.01962429375
0.02068031782
0.02015126254
0.02022500228
0.02121264335
0.03557325335
0.03521831508
0.03599349667
0.03572060708
0.02129639859
0.02066887444
0.03454505591
0.03262152773
0.03509984014
0.03451560343
0.02065559457
0.0149102453
0.04597639925
0.04549478694
0.03024336048
0.01607205279
0.01312770072
0.01304516418
0.009599716517
0.01312243429
0.01497773844
0.01956061952
0.01456244726
0.01648135484
0.01609387026
0.03229317594
0.01990977015
0.02011044688
0.01425315898
0.01370938699
0.0138117682
0.01538593167
0.01475828725
0.009848100515
0.01019610061
0.0164724256
0.01396578207
0.01497052484
0.01622032613
0.01995212833
0.03019019634
1.155183693
1.155725458
1.155775797
1.155962806
1.156918303
1.156371874
1.157310863
1.047085473
1.157307943
0.9943894512
0.8497315183
1.036839554
0.8236315332
0.7802876602
0.9144925652
0.7572105588
0.7400832473
0.8857054976
0.7440867603
0.7793018652
0.9267731724
0.7952228527
0.8864450562
1.062065242
0.9188792678
1.075894832
1.157398292
1.128230041
1.157063073
1.156474788
1.155175951
1.156343702
1.155791022
1.156866101
1.012636847
1.157250324