/*--------------------------------*- C++ -*----------------------------------*\
| =========                 |                                                 |
| \\      /  F ield         | OpenFOAM: The Open Source CFD Toolbox           |
|  \\    /   O peration     | Version:  v1912                                 |
|   \\  /    A nd           | Website:  www.openfoam.com                      |
|    \\/     M anipulation  |                                                 |
\*---------------------------------------------------------------------------*/
FoamFile
{
    version     2.0;
    format      ascii;
    class       volScalarField;
    location    "0.22";
    object      p;
}
// * * * * * * * * * * * * * * * * * * * * * * * * * * * * * * * * * * * * * //

dimensions      [0 2 -2 0 0 0 0];


internalField   nonuniform List<scalar> 
12556
(
995.9045507
995.0097323
992.6650283
987.5764044
979.7647376
962.8781716
934.5975118
888.7209496
819.1402433
718.2792941
580.3159037
404.524634
199.1725996
-18.39650911
-228.5769774
-413.6916382
-564.2140742
-679.8741705
-764.4021613
-823.0697154
-871.7709264
-893.344139
-905.7780119
-911.4905817
996.4778375
996.0013506
994.4864595
990.9618754
983.2035945
969.0714673
944.2620024
907.1266748
844.8469004
751.6627863
619.5611581
444.1131026
234.2102417
7.903729937
-214.0214012
-409.3599279
-566.2856591
-684.5034292
-778.3064493
-833.0890578
-880.6472598
-899.3147393
-910.1979067
-915.1397256
997.7692384
998.2235217
998.6712009
998.2848679
993.6559161
985.4088693
968.9540652
937.6242243
886.3694713
803.247809
669.0243631
472.114947
233.4889071
-20.17380888
-255.7223693
-458.1153044
-615.9182496
-727.173099
-816.5635509
-861.3184581
-901.0040131
-913.5853791
-920.9290184
-924.0971746
999.0366682
1000.805143
1004.11919
1008.230018
1008.297479
1008.891075
1005.111905
986.4822755
954.6751165
882.8441119
743.0011821
514.5420459
204.8471203
-114.7297239
-377.4016929
-568.6320465
-709.2446309
-805.3569693
-876.132996
-904.113295
-929.9233239
-934.4042638
-936.4081024
-937.0168266
998.955459
1002.223877
1008.789021
1018.399014
1023.812416
1036.124706
1048.444848
1049.948516
1044.261951
999.6763729
873.3937381
600.3171772
162.549734
-298.7752669
-609.2486979
-777.5423909
-865.1353679
-916.5894053
-953.8915542
-958.2771363
-963.5934517
-957.9148348
-953.4100707
-950.9819566
996.0375239
1000.795429
1010.508602
1025.571278
1038.231418
1062.428568
1093.099027
1118.276505
1153.776796
1173.773973
1125.798807
859.4443597
138.5337695
-657.8844385
-1008.540306
-1090.405401
-1081.623895
-1059.095737
-1044.458838
-1017.287467
-997.2943875
-980.2486651
-968.6121759
-962.969824
988.8663353
994.90647
1007.316937
1027.11443
1046.92782
1082.204706
1129.930138
1181.02856
1266.776236
1385.210221
1537.250354
1591.469628
261.7565369
-1552.322749
-1637.504525
-1485.983631
-1333.997376
-1215.593408
-1135.387128
-1072.703244
-1026.0181
-997.0115511
-978.6760796
-970.054816
976.2287652
983.1679651
997.4623236
1020.515852
1046.730362
1089.983778
1150.007711
1223.382383
1351.150397
1555.111967
1904.648028
2568.59277
-3660.490325
-2438.403609
-1883.718204
-1562.878557
-1354.073049
-1207.261716
-1114.445571
-1041.848524
-1003.686189
-980.3535745
-969.3218624
957.2272111
964.554601
979.6413469
1004.046087
1034.859048
1081.814586
1147.346878
1233.281699
1379.137165
1600.410907
1926.031802
2347.193543
-4956.533446
-2913.999185
-2117.391203
-1696.930228
-1434.207633
-1242.46157
-1131.102162
-1039.955975
-996.8425245
-970.8287337
-958.4560721
931.4085528
938.5667989
953.2583878
976.9202954
1010.210013
1056.162665
1119.755516
1206.745312
1343.713111
1534.014231
1760.041564
1968.771378
-4310.882328
-2781.868164
-2080.2141
-1679.885812
-1430.576797
-1229.965576
-1116.799502
-1017.776851
-974.664668
-948.6220421
-936.1829219
898.8323124
905.3117389
918.532967
939.3993289
973.3220325
1013.962778
1069.687072
1148.958374
1264.086281
1409.285064
1558.366053
1685.646018
-3107.489645
-2274.229988
-1829.071102
-1548.720885
-1349.959188
-1170.900547
-1071.44249
-975.8400129
-937.3165739
-913.7916199
-902.471724
860.0281151
865.4125221
876.4110371
892.9030269
925.8026701
958.0085451
1001.589643
1067.705763
1155.048733
1255.511366
1349.058274
1448.169672
-1955.476927
-1658.97993
-1476.831054
-1334.862415
-1211.976255
-1075.972345
-1000.844607
-917.097139
-886.9152733
-867.7816172
-858.4825394
815.9417118
819.9652609
828.3186728
840.1213875
868.7000167
891.7741856
920.7977448
971.8772221
1029.915508
1087.169602
1124.257447
1178.720156
-639.9948466
-979.8419414
-1098.653289
-1120.372999
-1097.702271
-1048.172528
-961.4037232
-913.2180954
-847.6936907
-826.9272933
-813.048047
-806.2801468
767.7082452
770.290985
775.8288902
783.2633722
806.3960066
820.2591014
835.3356719
869.7549843
900.391971
918.2191457
900.119921
849.9251668
277.5656141
-394.1913997
-681.3770936
-820.1628988
-878.7304901
-882.1448823
-841.8260174
-818.2289436
-773.0151167
-761.012992
-752.5145166
-748.4014682
716.6127103
717.7047703
720.1419113
723.0293178
741.1105532
745.2926575
747.4063606
763.5657558
768.9061817
757.2724393
704.4846677
559.355457
286.6623448
-139.2875059
-425.2064683
-599.5797325
-696.104671
-732.5614133
-726.5036683
-723.8635422
-696.6678981
-692.5333438
-689.0720385
-687.418912
663.9237568
663.6585681
663.1887816
661.8807594
675.184393
671.2693433
662.9878476
661.9743768
647.2361595
614.6655978
546.0570863
421.4596548
223.1025234
-53.87951482
-284.9350842
-450.7693898
-553.5147714
-605.9997948
-622.6935026
-634.9305149
-622.1758756
-624.4705886
-625.2397453
-625.64155
610.8574785
609.4685459
606.5934636
601.8337223
610.6691054
600.3475105
584.1802827
571.1138565
539.0954123
492.3999422
419.3938467
313.3309138
156.6758758
-34.27015575
-211.8914927
-350.4303725
-444.118788
-502.7835511
-532.3602888
-553.8620431
-551.9930544
-559.0281324
-563.0231761
-564.9510909
558.4892947
556.2208942
551.4681037
544.0639537
549.1083037
534.1153142
512.5030955
492.877699
450.2403271
394.7233548
322.4601719
232.1363445
106.3537622
-35.10671258
-169.1703818
-278.0707291
-359.199385
-418.3690695
-454.4583158
-481.2737452
-487.2400639
-497.477051
-503.7913029
-506.7800474
507.6658987
504.749649
498.6152068
489.3296459
491.4349345
473.4032313
448.6438607
425.4803225
381.1206671
323.6933568
253.9448422
177.2076651
74.32235045
-34.61718341
-135.9606633
-223.6033287
-295.0359086
-350.7447062
-388.5819451
-417.6254466
-428.4384548
-440.588595
-448.3661764
-452.0799324
459.0156463
455.6721124
448.6251841
438.1492502
438.116063
418.4199502
392.1203113
367.7696234
324.3333737
270.7066618
207.187178
140.5520704
58.49955133
-28.36276115
-110.4061394
-183.5728629
-245.6158748
-296.2647203
-333.3705291
-362.3347169
-375.7541264
-388.7647455
-397.2823217
-401.3535859
412.9729329
409.398872
401.859158
390.7740556
389.31895
369.0129864
342.4402649
318.3526962
277.2322399
228.3293872
172.3684668
114.9193494
47.09974835
-23.96311179
-91.65086886
-153.1302134
-206.7025692
-251.8147795
-286.803832
-314.4144987
-328.916677
-341.9968395
-350.6957464
-354.864377
369.8019805
366.1576441
358.4729694
347.2615455
344.8925378
324.8018478
298.9237454
275.9056351
237.8494718
193.9149603
144.7394791
95.50375428
38.35609561
-20.74187597
-77.26553529
-129.2451824
-175.4135611
-215.2005387
-247.2310148
-272.8733919
-287.4102754
-300.0306597
-308.5285349
-312.6097009
329.6168354
326.0249342
318.460045
307.4922379
304.6264946
285.3160972
260.8347663
239.2639029
204.6102455
165.5096223
122.4188555
80.10771971
31.53868314
-18.17350779
-65.81523995
-109.992173
-149.7625321
-184.6224373
-213.4247523
-236.772004
-250.6691448
-262.5037044
-270.5544157
-274.4262302
292.4106445
288.9618135
281.7075498
271.2469627
268.2032333
250.0461586
227.379593
207.4817488
176.2923226
141.7197027
104.0711572
67.62574068
26.13673796
-16.00230226
-56.42240128
-94.11026991
-128.3627051
-158.7618213
-184.3362488
-205.2892872
-218.1447264
-229.0093853
-236.4623198
-240.0494136
258.0894416
254.8481934
248.037047
238.2610053
235.2792674
218.5049168
197.8145023
179.7578984
151.9466194
121.5394313
88.75376865
57.33230354
21.7947078
-14.09780359
-48.53200988
-80.75398768
-110.2353061
-136.6400495
-159.125005
-177.7189272
-189.3165462
-199.1256875
-205.8994492
-209.1606301
226.4996198
223.5091948
217.2285084
208.248568
205.5028425
190.2337873
171.5836258
155.4177501
130.8225641
104.2164315
75.78782536
48.71586907
18.25373047
-12.39016827
-41.77664038
-69.33650562
-94.67164598
-117.5164596
-137.1142194
-153.458509
-163.7028746
-172.4369189
-178.4997897
-181.418465
197.4441641
194.7310373
189.0336729
180.9128167
178.5310886
164.8155193
148.1982633
133.908224
112.3339745
89.19143767
64.67635857
41.3931398
15.31540148
-10.84079893
-35.90304712
-59.43925761
-81.14930356
-100.8243544
-117.7600019
-131.9999401
-140.8664695
-148.5469389
-153.8998579
-156.4757501
170.6966419
168.274782
163.1880668
155.9549208
154.0294805
141.8688059
127.2363335
114.7694782
96.01764987
76.04063132
55.02320973
35.06480724
12.82628107
-9.424803766
-30.72781165
-50.7525274
-69.27084195
-86.11815958
-100.6143242
-112.906971
-120.4142621
-127.0858695
-131.7493955
-133.992021
146.0146782
143.8894339
139.4229035
133.0823711
131.6826493
121.049493
108.3463621
97.61145651
81.49806393
64.42451534
46.51026266
29.5060783
10.6777307
-8.122522708
-26.11541684
-43.04317731
-58.72876192
-73.04299079
-85.30776745
-95.80723707
-101.9947222
-107.7136826
-111.7188955
-113.6430255
123.1493086
121.3201573
117.4714198
112.0131257
111.1908526
102.0397975
91.23666353
82.10379952
68.45639142
54.04950235
38.90672351
24.56243056
8.799508046
-6.917345846
-21.96274996
-36.12945785
-49.27644041
-61.30263205
-71.53145788
-80.37799837
-85.29337613
-90.11896182
-93.50151575
-95.12432056
101.8426283
100.3066405
97.06691957
92.46782911
92.28109628
84.54735365
75.56910689
67.97464028
56.61993821
44.66626339
32.04796363
20.12347758
7.14227915
-5.795530225
-18.18782263
-29.86560824
-40.71455098
-50.64114469
-59.01865056
-66.33690536
-70.02197687
-74.01350544
-76.80921963
-78.14745295
81.8672554
80.61752774
77.9749416
74.21071028
74.67870791
68.30697656
60.97750039
54.98945715
45.75377165
36.07096795
25.7922104
16.10059546
5.663317866
-4.744785949
-14.72147431
-24.13061428
-32.88304164
-40.90082299
-47.50650123
-53.42957235
-55.9389676
-59.14849624
-61.39145984
-62.46257281
62.88464821
61.92481926
59.87621282
56.90900604
58.1954717
53.07592689
47.30078184
42.88255673
35.64686572
28.09324232
20.01347944
12.40989502
4.322929426
-3.753482944
-11.50224214
-18.81712327
-25.63449791
-31.91181174
-36.8037643
-41.42856569
-42.7438156
-45.23403914
-46.94904467
-47.76016205
44.99120307
44.29246063
42.82271671
40.70320941
42.30132627
38.62147899
34.35951002
31.45245331
26.11607154
20.58197571
14.59194685
8.973942821
3.085851962
-2.811117235
-8.475490905
-13.82854573
-18.82998585
-23.455986
-26.7565231
-30.1034773
-30.49161461
-32.24970013
-33.46293719
-34.04450926
26.73397534
26.39187825
25.52102891
24.24679424
27.13217203
24.75232941
21.93889001
20.51371109
16.99387878
13.39111452
9.417279968
5.722191594
1.9212437
-1.908572794
-5.59201534
-9.077544839
-12.34664586
-15.3975238
-17.17048403
-19.36093166
-18.19126536
-19.2424755
-19.95376838
-20.23394062
13.16496885
12.85428664
12.4103122
11.72656923
12.30491204
11.11009398
9.781031782
9.899885075
8.124621018
6.356320157
4.386181003
2.601706426
0.8032189363
-1.037718177
-2.805955898
-4.484322711
-6.070922693
-7.578465189
-7.797447481
-8.799060804
-8.889314504
-9.390265738
-9.72872178
-9.980098595
2404.236338
-5367.662805
-3931.593595
2009.395356
-4713.861391
-5371.551523
1717.20389
-3385.665387
-4562.889229
1478.393641
-2129.875933
-3218.426228
1199.521323
-677.7458778
-729.9946519
-1082.51833
-1985.775329
875.590209
352.447065
-632.9669644
220.8994026
-398.7501077
-969.675613
2491.2693
558.0427173
-3523.950874
-1343.866059
-7681.844513
-5471.740679
-4938.045583
-3164.857636
-2649.796059
1807.66204
1986.091616
2291.317902
-6779.686653
-7446.9154
-4440.818476
-3146.243229
-3232.863625
1609.616207
1705.525236
1947.705361
1854.178979
1891.757278
2041.398847
-4744.87759
-5750.908638
-3260.304249
-2598.048392
-3042.370534
1402.539253
1466.417698
1674.388458
1595.686521
1632.103534
1734.062469
-2995.888084
-3724.896633
1181.355303
1201.322837
1436.21113
1343.378044
1397.165073
1513.164895
-1490.393987
-1532.22692
-2142.367071
952.8740619
892.9856118
1163.690575
1031.782082
1030.170718
1232.952806
632.7335746
412.2037517
369.6552779
3044.422748
2562.360497
3378.590236
3127.990594
-7483.719692
-7697.156129
-5098.932741
-7317.926266
-7300.781932
2062.777255
2224.709603
2140.857477
2231.828956
2066.392241
2512.591049
2258.79154
-5814.789148
-6730.715584
-5043.091142
-6593.78481
-5721.004909
-7266.908648
-6642.45851
-5101.65416
1749.806256
1871.914516
1818.235331
1881.889849
1750.971732
2055.004657
1892.840888
-3835.025454
-4677.207009
-3894.523761
-4567.088526
-3765.924964
-5658.663027
-4693.038582
-4065.370058
1520.860905
1625.697373
1566.564632
1629.258404
1525.251366
1742.473047
1635.449798
-2233.221378
-2896.82944
1243.801136
1388.899429
1325.270383
-1434.450126
1394.19255
1249.110006
1517.416818
1402.554097
-1476.224272
-947.8075626
-1452.554534
-1438.235514
845.0696095
1012.59316
1010.324818
5.881784299
1017.079719
821.629842
1238.267096
1033.953854
-56.6639628
1948.384276
2338.335143
2433.215678
2599.429679
3053.37174
3220.176628
-10672.98565
-7326.509195
2188.596936
2252.190886
2504.453939
-3588.7062
-2091.966357
-1888.299997
-2424.891776
-1921.160672
-1913.516738
-2237.814843
-113.8910471
-443.4081214
-806.8307776
2551.925847
2983.120346
2563.503231
2771.12304
4218.143711
4041.141779
-5142.459727
-7237.07488
-4897.36386
-2290.516909
-2646.429782
-2580.621174
-2857.355822
-2212.281837
-3660.26582
-2953.619252
-2736.063602
-1018.567197
-165.0468566
-345.4946227
765.9085946
2164.83905
3283.073145
-4897.993763
-1860.495924
356.3578437
-10750.92665
-7256.644667
-10217.74608
-6912.849569
-10042.07578
-6906.041506
-7088.257876
-7133.827888
-5215.501318
-5284.086042
-3141.663742
-3490.922037
-3299.812237
-3486.105079
-3113.911472
-3969.504805
-3543.513103
-3404.330825
1452.234178
1421.117594
1371.987148
-1526.870075
-1815.885429
-1828.263878
1138.03277
1108.799994
1029.191942
1200.514034
1132.980127
1150.467096
3190.558311
2816.056921
2807.264267
2818.464081
3199.755996
2546.658192
2775.313664
2738.323561
3414.061503
3953.380893
4082.768565
3270.517282
3869.626877
3360.754969
3939.989828
3275.97192
-7659.0524
-7680.578421
2152.731391
2255.835585
2140.872039
2386.346869
2380.235373
2525.13341
2266.50923
2363.712282
2350.831769
-6239.261351
-6300.595744
-6193.725977
-5567.048528
-5809.589747
-5197.75961
-5479.078954
-6135.597547
-6991.398876
-6130.622602
-6249.878601
-5882.659588
-6076.723309
-6947.421884
1817.069567
1807.60899
1978.807477
1966.941356
-4183.497009
-4021.57616
-4243.323296
1581.716344
1574.529835
1688.874854
1681.900301
-3053.755448
-2680.550727
-2605.998336
-2695.153162
-3072.344768
1311.706059
1281.317344
1221.463895
1354.77666
1300.457959
1322.551783
-1067.534789
1326.714503
1315.367118
1463.486533
1456.427164
-1830.366952
-1078.14205
-1159.229807
-1433.098042
1000.441352
912.1808428
769.3193753
797.9608657
427.5025843
202.3383893
1156.104275
-154.0109339
171.9154624
-78.70066676
1144.264801
-267.7102408
-111.3386588
147.9288153
-9616.985647
-2107.162605
-2279.869366
749.3033365
683.9506168
860.3029261
760.542197
786.7050339
847.0214754
292.970129
-80.29507221
-282.6298501
4852.289244
-2310.335967
-2505.526832
-821.5728276
-1071.039967
-1030.281339
-102.9905203
-343.0964925
-52.45400184
1114.912905
2750.067139
4098.483059
-6568.678663
-2601.33478
-46.83570559
-6925.321766
-8030.531545
-7834.27209
-7319.070887
-4941.450936
-5135.602341
-4914.986584
-6029.505378
-5828.246395
-5553.634039
1679.281534
1656.17767
1613.181329
1716.549735
1670.897128
1686.597574
1482.962419
1436.842743
1459.533966
1079.888719
1069.468833
1022.416736
802.0057056
672.6763832
438.1870992
-7565.96648
-8161.349677
-8101.96253
-7468.511796
-6252.253427
-6068.661024
-6272.750765
-6276.706656
-7443.633971
-6001.903117
-6296.401625
-6101.870664
-6556.644636
1798.951797
1781.143111
1732.263833
1757.982378
1780.538829
1774.1426
-4849.415491
-4621.544595
-4485.822831
-4208.345621
-3959.204449
-4266.601496
-5209.970604
-4791.884454
-5098.72698
-4371.09578
-4687.228386
-5144.728716
1570.8422
1542.040455
1497.995267
1599.059606
1556.472781
1577.977066
1610.152481
1624.190021
1639.853947
1538.141192
1565.203006
1547.736926
1719.559756
1725.366863
1750.019598
1644.720419
1661.354415
1654.497619
-2511.587313
-2630.485827
-2294.233795
-1237.176761
-1272.236456
1368.165342
1271.356045
1493.388999
1501.730989
1530.883229
1445.414401
1426.243419
-1613.647438
578.9032485
883.0584199
842.3678676
1005.360651
948.2294588
945.0815409
179.6279376
358.4476692
169.5720416
950.5060056
355.8114346
656.6875249
463.544135
382.0309755
1199.590871
1082.811425
-9761.940216
-9284.072172
-9308.384365
-3758.986642
-3828.605698
-1907.69812
-2055.766431
-2039.9198
2666.6244
2634.35162
4335.993368
4886.039743
4698.980704
4766.273876
4295.889786
-2711.733298
-2510.923587
-2489.962921
-2502.287555
-2721.589186
-1001.25656
-828.1429075
-868.7193366
-826.5382402
-994.6989291
-610.3388194
-778.5500259
-376.5567761
-420.118456
-566.6765604
-242.4870513
-373.6934737
-285.3889437
-10589.54128
-8968.762457
-8517.175794
-9063.474933
-9044.578205
-8315.339191
-7503.085521
-9069.281338
-7494.017443
-7367.612581
-6967.034596
-7273.777166
-7763.30977
-7560.835627
-5438.813948
-5214.207214
-5009.628548
-5273.668515
-5497.940648
-4984.586949
-5206.099259
-5585.364672
-5486.363727
-5766.470546
-5529.441235
-3284.207376
-3361.662668
-3334.539836
-3260.845063
-3418.122748
-3808.518921
-3698.940313
-3868.807911
-3470.531141
-3643.50043
-3749.452751
-1698.205862
-1700.539332
-1852.199449
1125.311153
1084.99579
1092.349078
1183.998165
1173.689249
1138.818514
3011.030215
2957.044238
2960.211564
2952.081164
2819.467149
3160.074019
3000.360982
3015.063513
2634.623655
2639.559049
2554.760335
2779.239805
2671.449491
2667.753343
3511.622919
3396.525736
3219.308251
3640.797636
3538.543846
-8351.690617
-8177.266047
-7590.53964
-8361.485639
-8604.895692
-8316.214818
-8805.693703
-9064.358291
-8691.27531
-8733.093951
-7717.513463
-8486.634685
-8419.23367
2202.513069
2199.245923
2166.652112
2249.791618
2211.588225
2216.690182
2117.754231
2088.885903
2157.151164
2127.33274
2435.64771
2441.169502
2384.597841
2530.18175
2461.913919
2455.34654
2307.936067
2305.091975
2262.82842
2367.333155
2320.020353
2323.610753
-6536.428
-6360.602007
-6062.347831
-6492.36735
-6800.262069
-6592.710227
1851.034469
1824.391735
1890.859099
1859.325158
1782.1178
1760.592721
1814.800681
1789.181884
2030.914032
1994.491215
2078.545265
2043.125651
1934.665643
1900.765829
1982.445842
1946.670227
-4153.149159
-4360.930187
-3932.001724
-4100.03787
-4169.581231
-4673.489912
-4908.164592
-4416.529524
-4605.892203
1592.051759
1617.034917
1603.337407
1622.697424
1594.646849
1643.012102
1630.339262
1587.832541
1554.155564
1569.147503
1584.815128
1696.85575
1717.280268
1711.209563
1720.180948
1698.991135
1752.5115
1727.686308
1662.543768
1647.06053
1689.605743
1668.549442
1661.122129
1667.556489
1689.013687
-2715.68927
-2863.340856
-2917.824245
-2709.538597
-2971.982144
-2911.34728
-1003.571174
-1226.43707
-1226.682777
-1007.437759
1359.189793
1283.085479
1473.173252
1493.352106
1485.552579
1434.278535
1453.913141
1467.967208
-1708.687562
915.2205697
927.3286127
860.557627
476.701037
422.2186846
922.0065305
246.8195158
349.527002
294.3509345
1185.954146
-278.0633293
61.4699237
210.0452946
30.2495817
1090.046703
-3325.609469
-2402.841257
-1660.460032
-2251.585826
-2307.301255
-1113.963326
-1225.970274
-1712.703136
-2306.527857
-819.7053572
-783.0874757
-625.9703777
-2124.611266
-1575.517574
-1573.457498
880.8189302
3082.538422
4412.63174
-8159.126017
-3594.895471
-479.3158508
-2376.592364
-2136.07979
-4663.223251
-7510.108545
-8586.408109
-8675.238328
1954.611811
1929.24934
1870.458573
2012.2978
1949.606822
1976.258129
-1497.344163
-1648.263373
-1630.314126
-2196.184687
-1904.459525
-1874.656116
1218.837063
1186.216068
1196.662672
-8664.82998
-8530.061759
-7737.28147
1851.625867
1798.159332
1816.326493
1853.375713
1858.450015
1889.065414
1899.268998
1932.24775
1923.368655
1270.225054
1259.714382
1230.139288
-1441.226258
-1394.057485
-1389.751547
1253.809006
1264.627168
1258.927581
-1553.060874
-1555.957064
-1449.830419
-1281.928865
-1296.835916
-1448.484118
997.7367851
1227.209569
1233.971638
1243.732799
1047.140385
-10533.20732
-3630.11256
-1909.246826
-1989.347012
-1984.578606
-2267.76791
-2105.065884
-2087.880592
2730.33291
-5958.787745
-5464.011977
-6681.540651
-2440.907083
-2481.144189
-2313.050707
-597.8054494
-609.8125027
-441.9074137
-449.2600982
-545.1561776
-3289.350226
-2925.05738
-6283.984558
-10482.19068
-9813.105869
-9611.65381
-9894.542463
-10071.58442
-3190.518923
-3222.299789
-3169.713324
-3502.103419
-3514.872328
-3495.495594
-3047.609469
-3203.899581
-3266.091759
-3928.861459
-3870.578109
-3934.051204
-1830.05199
-1813.7549
-1844.011075
3124.509316
3215.015643
2861.977273
2862.897591
2864.6092
2820.211543
2568.315435
2578.68568
2552.784627
2778.035119
2739.269843
2735.732971
3633.788507
3461.799561
3601.569057
3839.983431
3867.77363
4006.617264
3285.013525
3361.226264
3355.660337
2179.420613
2176.026418
2171.986537
2253.597216
2241.201144
2243.787734
2110.651381
2102.661239
2164.698962
2154.018723
2399.204581
2400.766702
2382.655788
2528.194237
2504.134524
2501.881194
2277.630769
2277.923648
2265.494841
2365.895174
2350.936767
2350.331321
1822.666982
1849.474679
1843.323758
1782.943828
1788.129318
1813.555173
1990.626874
2026.092634
2011.276325
2014.019681
2001.369928
2093.669538
2081.495029
1913.563497
1988.849809
1976.451498
1934.978497
1943.83934
1978.84908
-4346.052677
-4429.88364
-4001.197811
-4080.350019
-4096.088573
-4502.204094
-4496.400348
-4421.527266
-4554.223442
-4371.220411
1299.833632
1270.518702
1280.24829
1353.471382
1338.572581
1310.475445
1330.614015
1343.432056
1338.243984
1304.43762
1307.778988
1318.65742
-1833.502512
821.0777683
844.7484967
799.4325904
483.2851515
825.8113431
328.7921197
396.9912162
474.9740438
1162.187435
1170.120349
1166.064854
-208.593846
-74.71068854
-62.96876673
-75.98678119
1130.02655
1136.786306
1151.169852
-0.02246380249
-78.24249744
-198.6251934
-2129.936113
-2182.897405
-2299.918489
-2251.093292
-2235.483718
5104.515974
4946.246522
5162.137191
-2376.149283
-2396.587477
-2299.218586
-2516.179092
-2458.226733
-2454.146152
-4563.434355
-3949.383389
-7697.062036
-7170.964277
-7214.149623
-7088.855033
-7134.235044
-7961.270473
-7769.918325
-7828.478388
-7657.578614
-7714.021371
-7896.903877
-5966.752749
-5878.431221
-5945.417167
-5729.232617
-5808.40614
-5901.558151
-8147.108339
-7958.423618
-7976.165751
-7886.62195
-7932.265437
-8145.5543
-6226.89396
-6140.069196
-6204.703768
-6013.169875
-6077.487986
-6167.590411
-6985.688482
-7037.758853
-6852.244613
-6917.43451
1629.947856
1625.188454
1618.998944
1545.925908
1542.340793
1534.292643
1558.633378
1551.006037
1555.468966
-1386.090802
-1442.73519
-1237.251322
-1325.046326
1386.054157
1380.168539
1401.654132
1392.649861
1275.143051
1265.453013
1270.487907
1269.024314
1511.46357
1508.688739
1499.745203
1526.385631
1517.867009
1521.862831
1418.563708
1412.188274
1437.771405
1418.950347
1427.115058
-1615.109724
-1611.086308
-1609.551377
-1446.989348
837.2239177
830.7143029
834.768404
970.4932307
967.3922788
943.2916154
976.3266835
322.2122378
318.5731471
774.7251397
695.6639065
537.7607154
1201.063538
1219.616119
1214.339103
1064.844679
-10511.86606
-10766.44839
-10150.27491
-10247.99603
-9605.102663
-8591.169195
-10560.38987
-10221.52194
-3686.306577
-3831.988495
-2043.773372
-2041.34523
-2039.792587
2697.163713
2600.059779
4915.110614
4717.80368
4693.822093
4335.812709
4207.800592
4595.885414
4449.898324
4594.467875
-2600.267941
-2509.854068
-2661.958065
-836.798988
-829.788683
-818.8512059
-939.0335217
-643.4013632
-614.6883767
-608.0257469
-761.7206435
-701.800364
-706.4734787
-387.9228732
-437.213508
-428.4754458
-275.965942
-284.2587419
-322.4580586
-10052.06149
-9963.644669
-10571.23096
-9070.870767
-9522.010061
-9441.41969
-10216.26053
-10219.24352
-7422.835536
-7313.344925
-7364.312026
-7271.612893
-7255.027372
-7353.12094
-7690.74851
-7536.465521
-7597.863116
-7420.632749
-7477.397388
-7625.825619
-5360.391039
-5287.058243
-5364.494904
-5340.910352
-5417.801632
-5009.648193
-5034.892557
-5028.548547
-5139.903217
-5672.471178
-5686.857844
-5645.973789
-5565.184345
-5645.075215
-5445.315385
-5512.930825
-5609.58772
-3323.7124
-3219.209184
-3221.38629
-3229.363357
-3176.736542
-3235.911883
-3443.548931
-3459.398601
-3382.979497
-3767.087545
-3805.265681
-3817.558385
3067.54743
2907.682851
2638.071715
2606.511438
2595.983682
2700.547978
2703.643161
2670.309508
3655.462306
3756.582568
3741.962427
4065.530729
3936.883543
3442.802662
3448.813879
3550.256414
-8283.457156
-8066.041509
-8110.936182
-7991.679413
-8026.298223
-8228.318812
-8443.450078
-8517.203375
-8905.719031
-9264.331056
-9119.284141
-9490.371309
-9420.50676
-9010.527232
-8726.692855
-9011.941872
-8948.010922
-8704.52213
2201.983669
2190.217754
2190.945191
2230.675587
2228.257605
2215.09168
2126.492883
2118.430061
2143.808011
2134.871172
2438.349822
2419.270701
2417.594148
2477.738289
2480.837737
2458.752507
2306.966409
2291.934488
2291.670031
2337.583817
2336.52135
2322.000863
-6483.420594
-6388.681915
-6443.441908
-6267.969207
-6329.032821
-6419.363806
-6767.695664
-6667.93046
-6732.095638
-6504.399959
-6584.918802
-6678.69347
1842.666652
1844.591972
1852.037427
1826.198319
1836.007972
1833.781482
1879.463138
1878.215913
1891.330417
1858.85134
1867.029681
1868.571803
1775.260592
1777.437934
1783.472971
1763.619929
1770.903935
1768.143805
1805.560279
1805.929487
1815.79405
1789.649222
1797.012763
1797.015469
2039.718847
2026.884206
2018.770457
2023.090392
2035.539099
1998.17396
2010.593295
2006.613803
2066.747272
2052.649847
1940.108248
1928.85478
1922.874138
1925.630013
1937.375443
1901.647483
1907.668661
1910.507875
1970.472022
1973.666107
1985.87126
1949.566958
1961.580885
1958.56039
1964.297395
1952.247128
-4245.069799
-4284.061995
-4168.96567
-4142.269441
-4149.330105
-4736.182746
-4763.673695
-4711.961304
-4938.37643
-4837.198172
-4813.167492
-4455.778262
-4480.213759
-4472.261719
-4654.478461
-4597.651754
-4528.924153
1599.814297
1596.4322
1588.758595
1612.062044
1604.371686
1608.480984
1612.475571
1602.614398
1639.204184
1635.159064
1582.522055
1571.634718
1565.883176
1566.321016
1562.922416
1581.278131
1574.338951
1578.860963
1705.667998
1710.71827
1723.227145
1704.830336
1744.112602
1746.397448
1755.26124
1730.267316
1738.087857
1735.877514
1656.80335
1651.606513
1681.235377
1674.593194
-2849.697795
-2839.188001
-2912.584747
-2713.003588
-2770.430054
-2803.066863
-3051.036953
-3103.173156
-2961.716963
-2955.459019
-2962.259019
-1165.029758
-1177.636333
-1231.577768
-1032.11984
-1098.744606
-1099.864549
1348.597814
1333.784828
1373.269484
1362.84335
1287.395412
1297.015117
1293.540897
1299.748754
1290.688595
1321.033484
1310.177561
1479.272332
1477.173696
1470.646032
1491.587195
1484.131504
1485.982658
1459.422405
1453.03904
1445.967793
1464.58789
1458.883026
1463.665029
-1773.812401
915.9467046
884.9991912
880.8618469
452.7788093
449.6508411
473.1569625
419.0000374
419.0429783
414.6920302
889.5594676
317.9489016
286.3005185
237.0640215
1175.264774
1176.7622
1185.755887
-263.9108361
122.2819035
80.88072918
202.0632104
200.855774
203.8393341
72.56580164
-30.17279162
-15.75651414
67.44910416
1104.37432
1123.080881
1115.493169
928.0496857
889.7164413
863.7750837
873.2653395
812.3143451
779.2558765
786.8478766
693.3453348
657.4844485
654.4536711
517.7334492
492.184092
464.9731386
296.1335897
288.2653412
237.5381926
53.80212118
62.43927559
-7.656564122
-183.3720722
-161.8806044
-239.716744
-394.6728306
-364.2477747
-441.8520566
-564.3067171
-530.6557571
-599.8266686
-688.1225608
-657.589788
972.7234449
947.0762259
901.8018014
935.3621936
884.3416779
827.9429244
860.3410192
763.0099812
708.6056385
721.1941915
564.7827311
527.0012774
502.4389214
289.3451305
297.1820994
214.1219208
-11.91842814
42.76471624
-83.94855018
-280.0356393
-199.4259149
-337.8457448
-488.8587513
-410.8723694
-532.635125
-647.7700514
-580.8526364
-680.7495189
-761.4494157
-703.0725396
1033.161359
1025.702757
965.077979
1019.754466
984.95388
906.2097944
965.7838495
875.7429339
785.6003525
832.092536
649.1334643
582.1312624
573.2822091
281.6535068
286.0940496
173.3024253
-146.0145325
-38.21008649
-241.8934202
-477.8754712
-318.7905718
-538.9044972
-678.3634757
-526.562899
-714.3457842
-798.6446414
-677.488309
-820.269343
-872.2926387
-785.7981364
1101.275018
1120.424774
1048.219184
1125.279011
1129.305847
1016.369262
1124.629639
1078.662058
915.9640869
1047.24967
866.922592
684.8089798
767.0924565
321.3979131
284.3558158
138.2463144
-397.3432854
-193.8982073
-540.603604
-830.3130466
-547.8516494
-888.828824
-989.2953553
-744.2075969
-1003.82175
-1021.466736
-848.2028956
-1022.49493
-1021.796695
-906.0624408
1166.622736
1219.705038
1145.432452
1239.816377
1307.408629
1172.277626
1332.198033
1405.549239
1149.457086
1424.479622
1406.740448
961.6857923
1338.04954
501.7955391
356.0163366
260.8982771
-1024.028127
-498.1205789
-1228.827298
-1452.156206
-954.0442661
-1457.473139
-1407.883205
-1083.948011
-1381.433694
-1297.211611
-1086.807599
-1270.260153
-1197.968168
-1064.336497
1215.591602
1300.05076
1242.492944
1334.857017
1466.646368
1352.207699
1522.349463
1742.0949
1497.824304
1839.829048
2369.423544
1616.447793
1964.406026
1940.557727
1347.213132
198.184485
-1386.565036
-617.4798336
-2100.456131
-1970.096
-1632.264023
-2243.509011
-1884.640571
-1526.716406
-1792.658712
-1571.265961
-1369.433563
-1511.547332
-1363.843714
-1241.965449
1235.111729
1336.269579
1313.660747
1377.875296
1535.157433
1494.244402
1601.121785
1848.09836
1796.577784