/*--------------------------------*- C++ -*----------------------------------*\
| =========                 |                                                 |
| \\      /  F ield         | OpenFOAM: The Open Source CFD Toolbox           |
|  \\    /   O peration     | Version:  v1912                                 |
|   \\  /    A nd           | Website:  www.openfoam.com                      |
|    \\/     M anipulation  |                                                 |
\*---------------------------------------------------------------------------*/
FoamFile
{
    version     2.0;
    format      ascii;
    class       surfaceScalarField;
    location    "0.22";
    object      phi;
}
// * * * * * * * * * * * * * * * * * * * * * * * * * * * * * * * * * * * * * //

dimensions      [0 3 -1 0 0 0 0];
oriented        oriented;


internalField   nonuniform List<scalar> 
25162
(
0.0004397532624
0.9162102467
0.0005544955564
0.9165852577
0.0006718730886
0.9165326225
0.0003361126045
0.9165329233
0.0004528372097
0.4583351476
0.0003509649861
0.4582928873
0.0004489523908
-0.0004418396634
-0.0005709611068
0.4582603831
0.0006605780185
-0.0007500084639
0.4582014113
0.0008835971383
-0.001030996862
0.4581687472
0.001192249701
-0.001375195487
0.4581391404
0.001571055123
-0.001768302227
0.4581417514
0.001961550854
-0.002147207158
0.4581840021
0.002294705089
-0.002402883328
0.4582727756
0.00246360776
-0.002473094373
0.4583778208
0.002430273625
-0.002340633829
0.4584665388
0.002204095045
-0.0020430822
0.4585119285
0.001866153749
-0.001674542679
0.4585148703
0.001494672422
-0.001317699816
0.4585126594
0.001120040456
-0.00102266696
0.458478082
0.0008945850038
-0.0007368263795
0.4584771738
0.0006096525754
-0.001558212554
0.9187489279
1.919128145e-05
-0.0005599066119
-0.0009815323121
0.9187733198
4.251604191e-05
0.9158259517
0.913842516
0.001206766876
0.9150034799
0.001934496185
0.9158575284
0.002261958291
0.9162051604
0.0007317232859
0.9169227937
0.001140364613
0.4579994161
0.0008924176427
-0.4581601104
-0.4581192154
-0.001117759642
0.4578353221
0.001401652917
-0.4579386484
-0.001754280299
0.4575124401
0.001024451362
0.001156037186
-0.2288897909
-0.001250032345
0.2287781653
0.001361657888
-0.001838622604
-0.2288070589
0.2286579406
0.001987740871
-0.002589852156
-0.2287375965
0.2285476596
0.002779789001
-0.003465236992
-0.2287258696
0.2285238836
0.003667222997
-0.004294560181
-0.2288145192
0.2287020248
0.004407075143
-0.004145380464
-0.2290174986
0.2287951527
0.004367694552
-0.005044463935
-0.2292458332
0.2292223515
0.005067945633
-0.004761764793
-0.2293972029
0.2295097201
0.00464924761
-0.004118559585
-0.2294849457
0.2296754262
0.003928079148
-0.003318681286
-0.2294909226
0.2297063422
0.00310326169
-0.002534810646
-0.2294438849
0.2296363828
0.002342312727
-0.4589670439
-0.00361403028
0.4605119474
0.002069126797
-0.0006670211132
0.4610827262
-0.001094788934
-0.4593209161
-0.001253624867
0.9185249071
0.0001037948321
0.001373850813
-0.0007876299826
0.9183073249
0.0004440104671
0.9145943112
0.9142865265
0.001517619642
0.9134858602
0.004092470216
0.9132826778
0.006994604593
0.913303026
0.00297843837
0.9145047034
0.006434256487
-0.4578811931
0.4576366645
0.003222967008
-0.4575500511
-0.003303108469
0.4580729891
0.002780170492
-0.4569328487
-0.00301959881
0.4565076634
0.001667628096
0.001777155958
-0.2282333745
-0.00208266655
0.2279964673
0.002319573838
-0.2279169486
-0.00316906909
0.2275880336
0.003497984109
-0.2277170483
-0.003653791421
0.2323232075
-0.0009534466071
-0.2367047586
0.01663940711
0.2409330202
-0.02087386735
-0.235133392
0.03000322023
0.2369680152
-0.03184266926
-0.2273327553
0.03379485623
0.2268133558
-0.03327527066
-0.2206856387
0.02828173584
0.2179100858
-0.02550134162
-0.2223305591
0.01383998105
0.2174380992
-0.008942325246
-0.230578945
-0.006742657602
0.2299614123
0.007360285111
-0.2306324314
-0.006111377292
0.2310448709
0.005698937845
-0.004254119943
-0.2305134316
0.2312550258
0.003512525686
-0.4632919058
-0.001015222861
0.462327363
0.00197976567
-0.4602946243
-0.001944572341
0.4604311003
0.001808096359
0.0007316740647
0.9206586025
-0.001608135363
-0.00125723402
0.001930147215
0.9171088517
0.0008909256231
0.9156335328
0.9151774521
0.0004848969486
0.9130009633
0.001103708466
0.9126638663
0.00239904011
0.9120076944
0.003315731197
0.9113365784
0.002251433937
-0.4567979112
0.4562817269
0.003831915464
-0.4594739633
-0.005159186828
0.4562732606
0.008359889565
-0.457758912
-0.009813734729
0.4590685776
0.002569349923
0.005934719245
-0.2271268543
-0.002703104566
0.2268368504
0.002993108539
-0.2289591544
-0.002376266087
0.2346719326
-0.003339860282
-0.2486079814
0.01918919435
0.2529971205
-0.02359336405
-0.2508346803
0.03322367105
0.2527864802
-0.03519173906
-0.240323376
0.03792482178
0.2404496876
-0.03806067237
-0.2252841902
0.0373149363
0.2248214246
-0.03685167963
-0.2117193164
0.03482165402
0.2106715916
-0.03376369593
-0.2053238817
0.02835792358
0.2025839431
-0.02560213925
-0.213136559
0.01414252156
0.208376769
-0.009370083421
-0.2349572205
-0.002058771311
0.2372129129
-0.0001961369483
-0.00470989108
-0.2323600255
0.232473558
0.004596358566
-0.4625772893
-0.00696905732
0.4640783979
0.005467948736
-0.4613369431
-0.004010280172
0.4625294818
0.002817741442
0.003632352644
0.9211241138
-0.00215931115
-0.001938552781
0.002427831052
0.9183133733
0.001110671145
0.9169506927
0.9162881233
3.210575667e-05
0.9129688575
0.0001590466608
0.9125369254
0.0005259335942
0.9116408074
0.001301425826
0.9101215996
0.0004394865587
-0.4559271525
0.4550236115
0.0022049668
-0.4546833863
-0.002756476511
0.4538879497
0.003551913082
-0.4527135583
-0.004633810196
0.4516598438
0.00299472653
0.002692798261
-0.2271869667
-0.005011693203
0.225799843
0.006398365566
-0.2499843965
0.002684275249
0.2558544746
-0.00857241184
-0.2615020103
0.02014172412
0.2626833158
-0.0213496703
-0.2533315717
0.02024483766
0.2515910661
-0.01852616361
-0.2369580575
0.01112087256
0.2343831177
-0.00855642457
-0.2236748858
0.003484042818
0.2233966744
-0.003205142819
-0.2115864289
0.006356511097
0.2135869715
-0.008344987476
-0.1996194823
0.0143990432
0.2006629802
-0.01541978631
-0.209621429
0.02615992394
0.2019522501
-0.0184596539
-0.2161754107
0.00594280093
0.2123764808
-0.002127941459
-0.006595767695
-0.2342266705
0.2349198336
0.005902604555
-0.4660416807
-0.007965207031
0.4679493547
0.006057533043
-0.463682163
-0.004642484922
0.4648769209
0.003447727021
0.004316790868
0.9234987493
-0.003698393955
-0.002993032431
0.002345080509
0.9202850837
0.001050332371
0.9182454409
0.9173384557
-0.0003478092048
0.9133166668
-0.0005582013047
0.9127473175
-0.0004460566517
0.9115286628
8.090956886e-05
0.9096260658
-3.143242894e-05
-0.4540796398
0.4536889832
0.0004715662042
-0.4532187372
-0.00153546312
0.4523086695
0.002445530843
-0.4505519214
-0.003195762118
0.4492654582
0.002235224587
0.002247000661
-0.2344452255
-0.0002005895364
0.2369995655
-0.002364048288
-0.258580039
0.007861109134
0.2593788512
-0.008692141486
-0.2610416977
0.00517243857
0.2573643366
-0.001531247982
-0.2404353153
-0.01249495052
0.2392393789
0.0136700209
-0.2220421539
-0.03200431366
0.217477509
0.03656404158
-0.2226889698
-0.04843517512
0.2223589887
0.04876535793
-0.2267732272
-0.03594356517
0.2318235357
0.0309004997
-0.2159711594
-0.008732640265
0.2186087237
0.006120381792
-0.1984183479
7.066725513e-05
0.2000900566
-0.001706450399
-0.2054565538
0.002639551467
0.2046685727
-0.001822531525
-0.003799026884
-0.23382491
0.2323123727
0.00531483087
-0.4696744639
-0.007958030014
0.4714136595
0.006218834325
-0.4656677548
-0.004946117198
0.4663924774
0.004221394655
0.003399397775
0.926171701
-0.002889242141
-0.003183107313
0.001802978512
0.921881503
0.0007284554842
0.9193199639
0.9180669111
-0.0008945731902
0.9142112399
-0.001626440723
0.9134791851
-0.002142104706
0.9120443268
-0.000555077456
0.9094644674
-0.001425428827
-0.4535347965
0.4531931915
-0.0002134724352
-0.4511418866
-6.940851656e-05
0.4506861808
0.0005251143104
-0.4486532633
-0.001628629524
0.4482173738
0.001091562361
0.0009724533935
-0.2409180725
0.001259159574
0.2416740438
-0.002036191482
-0.2608520179
0.001895296246
0.2564850286
0.00243108355
-0.2481203234
-0.007954237036
0.2450337157
0.01100586658
-0.218417765
-0.02456954366
0.2112089306
0.03176652397
-0.202327362
-0.05506418677
0.1022476929
0.09626689562
0.02728444918
0.0315925111
-0.03869364293
-0.108474949
0.1079115429
0.03925704906
-0.03134755203
-0.2540125433
0.05892168833
-0.03166467552
0.1287095942
0.1293934884
-0.03845788237
-0.2330074696
0.2397108959
0.03177163155
-0.2088726161
-0.01748885355
0.2139752342
0.01242366572
-0.206819822
-0.002928122439
0.2077664696
0.002024080626
-0.002067830684
-0.2265355927
0.2257494858
0.002870304893
-0.473126497
-0.006367960451
0.4742510439
0.005243413607
-0.4675225833
-0.003896386804
0.4685950269
0.002823943159
0.001598150204
0.9279455996
-0.001493563469
-0.001878485433
0.0006360224373
0.9228436307
0.0001847948225
0.9197711915
0.918251706
-0.001484584389
0.9156958243
-0.002894954839
0.9148895555
-0.004071626322
0.9132209983
-0.002193240533
0.9105033706
-0.002917288997
-0.4532078672
0.453247383
-0.002232756317
-0.4504824332
0.002322187775
0.4504000341
-0.002239788753
-0.4472512244
0.002072135918
0.4474891882
-0.0008798979337
-0.001434330538
-0.2412053799
-0.0002004267999
0.2403136889
0.001066363924
-0.2516660058
-0.005276799779
0.2499548109
0.006942707356
-0.2359857085
-0.01308405613
0.2337259401
0.01530762321
-0.1985938202
-0.02174488526
0.1966561631
0.0236782228
-0.08598361723
-0.01495080904
0.0855837188
0.01535070747
-0.03732991617
-0.1442188952
0.1473672176
0.03418159382
-0.04128688353
-0.2603003479
0.2658450859
0.03575263244
-0.2248542846
-0.02307944217
0.2283256
0.01964955252
-0.2132908981
-0.01108530389
0.215637635
0.008785183302
-0.001598591918
-0.2261559371
0.2264674998
0.001315413387
-0.4756666809
-0.003141965451
0.4767592256
0.002049420737
-0.4694066114
-0.001310022467
0.4700327015
0.000683932383
-0.001137301519
0.9285108301
0.0006600085134
-8.793745722e-05
-0.001032934242
0.9227392634
-0.00058356066
0.9193218179
0.9176681453
-0.002080907738
0.9177767321
-0.00408410149
0.9168927493
-0.006151062485
0.9152879593
-0.003662590395
0.9124063578
-0.004391459309
-0.4535769723
0.4538974281
-0.003983046187
-0.4505559516
0.004351961462
0.4509101646
-0.004706174407
-0.4476351111
0.005059216966
0.4481185037
-0.002631604276
-0.002918693987
-0.238340976
0.002216077383
0.2374723368
-0.001386270074
-0.24422953
-0.002701510967
0.2424829869
0.004385374772
-0.2280798395
-0.009228093623
0.2267990944
0.01046236623
-0.1957352706
-0.01182575007
0.1964162081
0.01114230196
-0.08959536974
-0.003108226659
0.09042052662
0.002283069782
-0.01642742834
-0.1604047844
0.1607665719
0.01606564077
-0.02483924894
-0.2776863806
0.2795868957
0.02294617519
-0.2380497409
-0.0163768626
0.2404512625
0.01402672356
-0.2223268423
-0.007137327217
0.2243363181
0.005191622274
-0.0008518991994
-0.228924526
0.229738639
7.304949207e-05
-0.4779705732
0.001231173085
0.4788073896
-0.002067989576
-0.4702599143
0.002370922581
0.4702808639
-0.002391872172
-0.004381427203
0.9273331449
0.003124571307
0.002434541103
-0.003029390436
0.9213872267
-0.001554996369
0.9178474239
0.9161131489
-0.002638565778
0.9204152979
-0.005396930438
0.919651114
-0.008113693446
0.9180047223
-0.005131486397
0.9152920598
-0.005867909057
-0.4545134334
0.45512766
-0.005745712981
-0.4514144414
0.006452260781
0.4522123247
-0.007250144122
-0.4487771577
0.008065714697
0.4497843259
-0.004310971724
-0.004775847416
-0.2349436959
0.004011265015
0.2341689656
-0.00328833702
-0.2377721073
-0.0001482129097
0.2363582494
0.001481301595
-0.2240216802
-0.004878839871
0.2233254116
0.00551694903
-0.1995258408
-0.004984674667
0.2007045115
0.003804182855
-0.0949730575
0.0004994039895
0.09549192095
-0.0004858700196
-0.0005323973861
0.002838034514
-0.1568136322
0.1556338147
-0.001658217002
-0.005333685852
-0.2790972506
0.277521528
0.006918945679
-0.2446390252
-0.007498053803
0.245462401
0.006735364483
-0.2297345869
-0.003031186052
0.231204222
0.001635033055
0.001893748286
-0.2327208887
0.2335454486
-0.00267869809
-0.478522273
0.006837587294
0.4776450028
-0.005960317127
-0.4698523677
0.005489620733
0.4698719686
-0.00550922166
-0.007860365307
0.92439465
0.005810785093
0.004988075064
-0.005140139072
0.9186670004
-0.002580934714
0.9152882195
0.9135322142
-0.003265353998
0.9236806519
-0.006541204966
0.9229269649
-0.01000076138
0.9214642787
-0.006531951624
0.9190185996
-0.007195349541
-0.4560113139
0.4568922699
-0.007412907664
-0.45314376
0.008476229513
0.45419347
-0.009525939558
-0.451132175
0.01073914741
0.452690658
-0.006029875179
-0.006291672746
-0.2319573497
0.005557429771
0.231243134
-0.004909556925
-0.2324531112
0.001914158555
0.2312415052
-0.0008019239909
-0.221739791
-0.001729608204
0.2213436685
0.002056768916
-0.204416162
-0.000742981555
0.2056853929
-0.0005270976147
-0.09858487578
0.002333382707
0.09895591267
-0.001337863101
-0.001366556496
0.01273386993
-0.1458328867
0.1443353688
-0.01123635198
0.008041211525
-0.270061857
0.2669693288
-0.004929579047
-0.2460186895
0.0001794904621
0.2466684247
-0.0007588388352
-0.2348128634
0.002631622584
0.2357713695
-0.003506841897
0.005878620031
-0.2360004124
0.2365155246
-0.006353552888
-0.4763111446
0.01197682583
0.4745892847
-0.01025496593
-0.4696830144
0.008743685827
0.4683262166
-0.007386888009
-0.0110274769
0.9199903705
0.008014401019
0.007417355363
-0.007140799083
0.9147803226
-0.003508601493
0.9116560219
0.9100236127
-0.003823558752
0.9275042107
-0.007696192545
0.9267995987
-0.01175697326
0.9255250594
-0.00776051127
0.9232077385
-0.008185600854
-0.4580192199
0.4591083047
-0.008849596087
-0.4554901607
0.0101128113
0.4568651886
-0.01148783923
-0.4541611645
0.01300320029
0.4556278678
-0.007182552979
-0.007323786674
-0.2291169365
0.006683977657
0.2284056479
-0.006055337875
-0.2278006113
0.00326721433
0.2267029397
-0.002288006464
-0.2204551856
0.0002513972437
0.2202408238
-0.0001156959282
-0.2096238983
0.002000554338
0.2110000406
-0.003376799801
-0.101408948
0.003801121116
0.1017665986
-0.002060636785
-0.002098134917
0.01577846805
-0.1343820462
0.1329852821
-0.014381704
0.01433004774
-0.2583678723
0.2557774785
-0.01170255781
-0.2458316302
0.008130104138
0.2449853184
-0.007194244714
-0.237753969
0.007466268195
0.2381029478
-0.00773026171
0.009368113515
-0.2373530255
0.2373421143
-0.009322919884
-0.4725566761
0.01601113915
0.4702514592
-0.01370592225
-0.4668615688
0.01170019166
0.46512707
-0.009965692911
-0.01375971428
0.9160716351
0.009123945936
0.008554503849
-0.008844165278
0.9098647737
-0.004301402857
0.9071132595
0.9057222099
-0.008009688381
0.935513899
-0.01622250966
0.93501242
-0.02459020264
0.9338927524
-0.008991967548
0.9321055042
-0.02449600074
-0.4604343349
0.4617567198
-0.01031435243
-0.4582960467
0.0117731279
0.4599285686
-0.01340564977
-0.4569150003
0.01507118418
0.4573766218
-0.007782268651
-0.007823471228
-0.2261686805
0.007060744794
0.2253503467
-0.006347717346
-0.2234656676
0.003612528507
0.2224194954
-0.00270384482
-0.2198008482
0.001024529892
0.2196590802
-0.0009699715212
-0.2152920654
0.003362628292
0.2167359459
-0.002393139243
-0.002413369513
-0.0524034921
0.002497021124
0.05252037131
-0.002613900334
-0.05815668055
0.005810821136
0.05774280024
-0.01133854158
0.005941600757
0.01372648729
-0.1249224927
0.2461891701
-0.02335176564
0.01325384575
-0.1248952447
-0.2497046522
0.0156315317
0.247865902
-0.01373266057
-0.2441272025
0.01176581898
0.2440365131
-0.01156588555
-0.2392819108
0.01215676979
0.2395556146
-0.01233469162
0.01198675961
-0.2366022535
0.2360458225
-0.01140847011
-0.467620014
0.01852446548
0.464997415
-0.01590186644
-0.4633248495
0.01381341995
0.461410351
-0.01189892145
-0.01583076143
0.9108772462
0.0107552576
0.01026989278
-0.01017961775
0.90421363
-0.005000709157
0.901934351
0.9007215007
-0.004500158192
0.9400140573
-0.009124047579
0.9396363094
-0.01400268045
0.9387713853
-0.009539344686
0.9373907326
-0.009748564224
-0.4651232487
0.4665146812
-0.01093077718
-0.4633533092
0.01247729621
0.465017424
-0.01414141095
-0.458581297
0.01594998061
0.4600570652
-0.008594960999
-0.008912380615
-0.222734537
0.008048132615
0.2219915273
-0.007414452176
-0.2192280126
0.004713725468
0.2181554664
-0.003783339068
-0.2197536813
0.001902133054
0.2195541059
-0.001787279299
-0.2213182944
0.003447316575
0.2226050538
-0.002391213135
-0.002342862752
-0.05496858407
0.00452750903
0.1102945862
-0.0549725559
-0.002453197478
-0.00242775776
-0.1128438839
0.007640203244
0.1126143724
-0.01482688803
0.00741619629
0.02246537684
-0.2391041703
0.2373035587
-0.02066171133
-0.2446173564
0.01358936361
0.244453783
-0.01333686286
-0.2445855559
0.0137904215
0.2459637246
-0.01504614417
-0.2399930655
0.01510869743
0.2396597468
-0.01469263894
0.01275792242
-0.233647937
0.2327479353
-0.01185483747
-0.4626344322
0.019385736
0.4604908311
-0.01724213486
-0.4594863597
0.01519393791
0.4573257405
-0.01303331863
-0.015455613
0.9048440657
0.01068322183
0.01080557174
-0.01099423126
0.8997522483
-0.005381671009
0.8963217907
0.8953398298
-0.004687894195
0.9447019515
-0.009495228719
0.944443644
-0.01454361569
0.9438197723
-0.009916621027
0.9428127168
-0.01004897887
-0.467997336
0.4694649538
-0.01138423882
-0.4666949714
0.01296792274
0.4683735518
-0.01464650307
-0.4626130122
0.01644078087
0.4660091187
-0.009858267454
-0.01000435536
-0.2208114894
0.01113884449
0.2209412345
-0.01135968346
-0.2152665355
0.01060046087
0.214539713
-0.01000563277
-0.2179271457
0.007839270434
0.217119738
-0.007126532762
-0.2246051926
0.005289793922
0.2240808001
-0.0047845007
-0.1130438409
0.006748646321
0.2264162588
-0.007046573749
-0.1130744905
-0.2267373713
0.0142918141
0.2272215545
-0.01477599742
-0.2361878574
0.01638258789
0.2369350026
-0.01709060601
-0.2451358216
0.01850447172
0.2455672144
-0.0188198254
-0.2458342146
0.01926247524
0.2459020335
-0.01919384751
-0.2376430375
0.0180195333
0.2376098196
-0.0179181768
0.01394676863
-0.2315500584
0.229077677
-0.01147438724
-0.4585692865
0.02086864792
0.4550120549
-0.01731141637
-0.4551643327
0.01543220141
0.4527661225
-0.01303399112
-0.01584349534
0.8989785135
0.01092155461
0.01078749295
-0.01106788596
0.8949766389
-0.005599999505
0.8908539043
0.8897398303
-0.004761533526
0.949463485
-0.009629773055
0.9493118835
-0.01470855937
0.9488985586
-0.0100404786
0.9482209515
-0.01007631539
-0.4709350863
0.4724047944
-0.01151018669
-0.4700325647
0.01306967424
0.4716643872
-0.01470149681
-0.4690888377
0.01642452143
0.4709432207
-0.009179375216
-0.009099496335
-0.2235231532
0.01320163242
0.2252274897
-0.01496046693
-0.2138587521
0.01853545057
0.2143535524
-0.01913688328
-0.214791224
0.01936338677
0.2143405357
-0.01900928749
-0.2216782667
0.01717107204
0.2209283376
-0.01646978466
-0.2248995745
0.01520245837
0.223554585
-0.01386442857
-0.2312076127
0.0184038936
0.2325333142
-0.0197053969
-0.240330028
0.02342719644
0.2413964955
-0.02442082438
-0.246862896
0.02598369655
0.2469729264
-0.0259771193
-0.2448074018
0.02432719066
0.243841966
-0.02325222858
-0.233831909
0.01865681379
0.2319399354
-0.0167264001
0.01312919899
-0.2268215501
0.226126981
-0.01243462992
-0.4538946178
0.02087657003
0.4508543134
-0.01783626558
-0.4495790934
0.01409688325
0.4476843568
-0.01220214662
-0.01493682008
0.8917574401
0.01132193269
0.01083596075
-0.008621160123
0.888660979
-0.0056318542
0.8878645984
0.8841079761
-0.004734378522
0.9541978635
-0.009559155881
0.9541366609
-0.01455748003
0.9538968828
-0.009945962673
0.9534912323
-0.009881798188
-0.4738349694
0.4752557422
-0.0113667355
-0.4732519726
0.01285688439
0.4747919846
-0.01439689634
-0.4726933929
0.01600123583
0.4743642297
-0.00888045425
-0.008791618367
-0.2330202702
0.009806904522
0.2358287748
-0.01262229373
-0.2187160267
0.02186430949
0.2212052389
-0.02441694803
-0.2150986076
0.03008997741
0.2162526707
-0.03131953087
-0.2199529868
0.03339317595
0.2202449459
-0.03373413292
-0.2171896745
0.03317401
0.214498502
-0.03049010144
-0.2352336293
0.03572768134
0.2356378684
-0.0360958907
-0.2430037263
0.03643313266
0.2427800625
-0.03613430562
-0.2452255913
0.03346648777
0.2437938714
-0.03194362746
-0.238633208
0.02560949954
0.2360841224
-0.02299897227
-0.2253580386
0.0144952767
0.2246494737
-0.01378642532
0.0120598872
-0.2242677902
0.2236995498
-0.01149164672
-0.4468450351
0.01955892016
0.4448417689
-0.01755565398
-0.4458454215
0.01564294305
0.4440021024
-0.01379962393
-0.01395444563
0.8837639207
0.01183189598
0.01011606904
-0.00813127944
0.8828378128
-0.00522178071
0.8849550997
0.8788861954
-0.004625788743
0.9588236523
-0.009323720382
0.9588345926
-0.01415378296
0.9587269453
-0.009666239503
0.9585283843
-0.00952469546
-0.4766199027
0.4779628034
-0.01100914019
-0.4762722763
0.01240239089
0.477694114
-0.01382422854
-0.4759490772
0.01528432008
0.4774454289
-0.008449296157
-0.008331375615
-0.2376241747
0.009225860149
0.2380174021
-0.009619087563
-0.2315213047
0.01268383432
0.235689385
-0.01686316141
-0.2226977191
0.02801541499
0.2257548148
-0.03110927644
-0.2233612381
0.03832517187
0.2251022757
-0.04009638956
-0.2079386286
0.03958666078
0.2070719973
-0.03872329694
-0.2353267067
0.04365915249
0.2347757337
-0.04308002601
-0.2395839503
0.03944320993
0.2377590107
-0.03756956525
-0.2368770293
0.03000574747
0.2338205287
-0.02690669612
-0.226315787
0.01635738759
0.2239423056
-0.01397930594
-0.2231293933
0.01269173632
0.2226874793
-0.01224982234
0.01090022542
-0.2221927295
0.2217365601
-0.01044405604
-0.4429904751
0.01801218595
0.4412833556
-0.01630506651
-0.4423008297
0.01463996277
0.4406612242
-0.0130003573
-0.01655818632
0.8778128246
0.01110739066
0.01140189181
-0.01088099839
0.8771606249
-0.002592090844
0.8766661921
0.8762941045
-0.004454177372
0.9632778297
-0.008961635391
0.9633420506
-0.01356007422
0.9633253842
-0.009248024234
0.9632698353
-0.009053500985
-0.4792408517
0.480491002
-0.01049817461
-0.4790493085
0.01178105268
0.4803422458
-0.01307398999
-0.4788534213
0.01438378851
0.4801760757
-0.007921363074
-0.007785079902
-0.2391079837
0.008595418404
0.2394438738
-0.00893130854
-0.2382938608
0.009931536998
0.2386224379
-0.01026011417
-0.2365726165
0.01121855049
0.2372409849
-0.01188761466
-0.2317276895
0.02012848247
0.2341970223
-0.02260401433
-0.208764086
0.02478719221
0.2101383923
-0.02616189605
-0.2322374865
0.02802412922
0.2312327018
-0.02701013714
-0.2307249208
0.02142271151
0.228128972
-0.01881798321
-0.2248206432
0.01339836725
0.2246121776
-0.01318990167
-0.2229239019
0.01242884848
0.2226317454
-0.01213669201
-0.221521034
0.01117432106
0.2211783549
-0.010831642
0.009762431101
-0.2205255149
0.220153686
-0.009390602264
-0.4397122128
0.01637104592
0.4382672098
-0.01492604293
-0.4391602824
0.01348816063
0.4377188811
-0.01204675934
-0.01547965002
0.872397971
0.0102768612
0.01061764235
-0.01022132167
0.8719022965
-0.005076111528
0.871520982
0.871217993
-0.004237599186
0.9675154289
-0.008510876527
0.9676153279
-0.01283792359
0.9676524312
-0.00873896604
0.9676830977
-0.008512219927
-0.4816722866
0.4828228816
-0.009889561036
-0.4815675653
0.01105821825
0.4827315045
-0.01222215744
-0.4814156696
0.01338561029
0.4825744998
-0.007336756724
-0.007207683735
-0.2403727781
0.007924848698
0.2406587537
-0.008210824286
-0.239514116
0.009045692589
0.2397829607
-0.00931453735
-0.238073121
0.01008685214
0.2383208419
-0.01033457304
-0.2361032494
0.01100813101
0.2361794708
-0.01108435244
-0.2132179498
0.01044346609
0.2139216101
-0.01114712647
-0.2300411786
0.01206893933
0.2300768117
-0.01210457237
-0.2269279434
0.01200905168
0.2268468485
-0.01192795683
-0.2240632793
0.01155789113
0.2239015052
-0.01139611712
-0.2218623943
0.01080874035
0.2216361696
-0.01058251566
-0.2202643971
0.009829586854
0.2199928202
-0.009558009949
0.008696926324
-0.2191698157
0.2188628348
-0.008389945488
-0.4369369954
0.01475855329
0.4357117929
-0.01353335075
-0.4364053044
0.01229443662
0.4351439926
-0.01103312481
-0.01429370117
0.8675197894
0.009410023584
0.00976185916
-0.009479646707
0.8670882421
-0.004719611493
0.8667609468
0.8664983815
-0.003992879028
0.9715083079
-0.008006132466
0.9716285814
-0.01204144977
0.9716877486
-0.008176539525
0.9717550167
-0.007936829254
-0.483903831
0.4849571141
-0.009229822669
-0.4838307189
0.01028764358
0.4848726331
-0.0113295578
-0.4836570526
0.0123586899
0.4846680678
-0.006740091439
-0.006629613671
-0.2414495549
0.007256098474
0.2416932999
-0.007499843492
-0.2405151168
0.008199543297
0.2407368515
-0.00842127801
-0.2389869954
0.009051029752
0.2391863273
-0.009250361606
-0.2362873811
0.009740941956
0.2362902993
-0.009743860174
-0.2159653669
0.009295222417
0.2166175404
-0.009947395851
-0.2301387601
0.01052058071
0.2301467774
-0.01052859801
-0.2266192695
0.01042260788
0.2265475745
-0.01035091293
-0.2234660472
0.01004290464
0.2233349457
-0.00991180313
-0.2210305121
0.009440734344
0.220849537
-0.009259759181
-0.219260804
0.008654773442
0.219040966
-0.008434935527
0.007730677237
-0.2180548338
0.2178007481
-0.007476591486
-0.4345799251
0.01324425987
0.4335335997
-0.01219793442
-0.4339973428
0.01112818982
0.4328945633
-0.01002541037
-0.01308155471
0.8631493816
0.008552830378
0.008899132109
-0.008707849362
0.8627145367
-0.00434467746
0.8623977749
0.8621537041
-0.003733470501
0.9752417784
-0.007474602091
0.975369713
-0.01121271566
0.9754258621
-0.007593726227
0.9754904026
-0.007354375321
-0.4859394604
0.4868984341
-0.008552699974
-0.4858547296
0.009506110072
0.4867846439
-0.01043602434
-0.4856121279
0.01134508903
0.4864938545
-0.006159367155
-0.006067448494
-0.2423681304
0.006612762164
0.2425765817
-0.00682121345
-0.2413439491
0.00741153424
0.2415288312
-0.00759641633
-0.2397259595
0.008117480764
0.2398883551
-0.00827987634
-0.2362224215
0.00863400227
0.236178661
-0.00859024179
-0.2184631812
0.008309042013
0.2190377547
-0.008883615448
-0.2301428506
0.009233695077
0.2301339014
-0.009224745862
-0.226342291
0.009109706083
0.2262767006
-0.009044115653
-0.222975646
0.00877836063
0.2228656979
-0.008668412529
-0.2203581319
0.008278702932
0.2202093412
-0.008129912189
-0.2184424615
0.007632325087
0.2182609827
-0.007450846292
0.00686550812
-0.2171290469
0.2169159532
-0.006652414413
-0.4325649273
0.01184873082
0.4316672975
-0.01095110096
-0.431892724
0.01002418468
0.4309272467
-0.009058707459
-0.01189486172
0.8592468662
0.007735299449
0.008062077691
-0.007942641757
0.8587623168
-0.003970214232
0.8584253474
0.8581834898
-0.003471382522
0.9787131609
-0.006940265646
0.9788385961
-0.01038719933
0.9788727958
-0.007016602271
0.9789047817
-0.006784976182
-0.4877879576
0.488658674
-0.007887318608
-0.487660805
0.008745351405
0.4884905552
-0.009575101684
-0.4873172686
0.01037934746
0.4880881907
-0.005615623588
-0.005534645969
-0.2431550643
0.006012720638
0.243334221
-0.006191877293
-0.2420381873
0.006694163855
0.2421942824
-0.006850258965
-0.2403301889
0.007287609495
0.2404636968
-0.007421117413
-0.2359993499
0.007671740026
0.235926668
-0.007599058087
-0.2206319803
0.007463618187
0.2211195215
-0.007951159421
-0.2300895693
0.008152814138
0.2300699512
-0.00813319608
-0.2260871243
0.008012328255
0.226026142
-0.007951345901
-0.222560173
0.007716270435
0.2224655231
-0.007621620547
-0.2198004556
0.007291050985
0.219675263
-0.007165858383
-0.2177623274
0.006748088605
0.217609792
-0.006595553172
0.006101521985
-0.2163498446
0.2161688363
-0.005920513692
-0.43083357
0.01058927519
0.4300583692
-0.00981407433
-0.4300498339
0.009006920762
0.4292021444
-0.00815923126
-0.01077100366
0.8557660464
0.006975156329
0.007276667162
-0.007210825127
0.8552021382
-0.00361012249
0.8548246448
0.8545733673
-0.00321492444
0.9819280854
-0.006419503623
0.9820431753
-0.009588491521
0.9820417837
-0.006460926912
0.9820197125
-0.006242495352
-0.4894628401
0.4902524501
-0.00725053691
-0.4892726371
0.008022790846
0.4900138313
-0.008763985096
-0.4888109599
0.009477095351
0.4894890588
-0.005116126603
-0.005039067621
-0.2438326319
0.00546264633
0.2439875697
-0.005617584124
-0.2426270303
0.006049048824
0.2427605498
-0.006182568244
-0.2408280944
0.006554299423
0.2409385723
-0.0066647773
-0.2356806202
0.006836618738
0.2355914332
-0.00674743176
-0.2224529506
0.006732206575
0.2228554916
-0.007134747495
-0.2299997883
0.007236677946
0.2299732249
-0.007210114595
-0.2258491145
0.007086209416
0.2257919636
-0.00702905852
-0.2221998609
0.006817612349
0.2221167938
-0.006734545261
-0.2193279095
0.006448617507
0.2192205667
-0.006341274726
-0.2171873627
0.005984355861
0.2170571296
-0.005854122691
0.005431378863
-0.2156856935
0.2155301423
-0.00527582767
-0.4293357981
0.009465327361
0.4286615487
-0.008791077937
-0.4284310741
0.008084442174
0.4276841359
-0.007337503959
-0.009730201635
0.8526600386
0.006281591647
0.006554617727
-0.006527766726
0.8519997033
-0.003272521657
0.8515693997
0.8513008457
-0.002970447928
0.9848985333
-0.005924701183
0.9849974286
-0.008834017313
0.9849510998
-0.005937813483
0.9848602831
-0.005736774449
-0.4909794015
0.4916954843
-0.006653896271
-0.4907130266
0.007349711579
0.4913764826
-0.008013167545
-0.4901260371
0.008647129699
0.4907250166
-0.004658021371
-0.004588087851
-0.2444200917
0.004962208831
0.2445551208
-0.005097237939
-0.2431329906
0.005471724429
0.2432486687
-0.005587402543
-0.2412409974
0.00590690173
0.2413330314
-0.005998935699
-0.235310105
0.006111419704
0.2352132854
-0.006014600116
-0.2239438774
0.006094251528
0.2242689461
-0.006419320218
-0.2298859318
0.006453189739
0.229854634
-0.00642189192
-0.2256257108
0.006296879626
0.2255719261
-0.006243094914
-0.2218819699
0.006050762754
0.2218080396
-0.005976832472
-0.218920494
0.00572579983
0.218827067
-0.005632372867
-0.2166941167
0.005323063325
0.2165814532
-0.005210399888
0.004844381301
-0.2151131853
0.2149781704
-0.004709366421
-0.4280308049
0.008471476538
0.4274401412
-0.007880812837
-0.4270037348
0.007258674965
0.426342805
-0.006597745171
-0.00878375878
0.8498837595
0.005658618303
0.00590141961
-0.005902788241
0.8491187328
-0.002962515634
0.8486291271
0.8483383301
-0.002741722605
0.9876402559
-0.005463045113
0.9877187511
-0.008133413868
0.9876214686
-0.005454163184
0.98745248
-0.00527144757
-0.492353424
0.4930036793
-0.006104418426
-0.4920032638