/*--------------------------------*- C++ -*----------------------------------*\
| =========                 |                                                 |
| \\      /  F ield         | OpenFOAM: The Open Source CFD Toolbox           |
|  \\    /   O peration     | Version:  v1912                                 |
|   \\  /    A nd           | Website:  www.openfoam.com                      |
|    \\/     M anipulation  |                                                 |
\*---------------------------------------------------------------------------*/
FoamFile
{
    version     2.0;
    format      ascii;
    class       volScalarField;
    location    "1.14";
    object      p;
}
// * * * * * * * * * * * * * * * * * * * * * * * * * * * * * * * * * * * * * //

dimensions      [0 2 -2 0 0 0 0];


internalField   nonuniform List<scalar> 
12556
(
872.2392297
871.6603032
870.0478443
866.3530288
860.4503214
847.4647134
825.3005165
788.8126152
732.7652163
650.382485
535.8070143
387.1946601
209.8564865
16.89837598
-173.9825414
-345.6445281
-488.5992476
-600.4716912
-683.6197849
-742.284835
-791.7536893
-814.1369878
-827.156425
-833.2127341
872.6096729
872.3664734
871.4266969
868.9934314
863.2019081
852.4392221
833.1553715
803.7738445
754.0250986
678.5629328
569.9448854
423.5838857
242.6094306
42.81573005
-158.4666972
-340.3477512
-489.2899394
-604.1074461
-696.8183056
-752.0165815
-800.5693657
-820.232676
-831.7553628
-837.0576629
873.4210606
873.9302039
874.5765677
874.6895354
871.4786577
865.5188964
853.1375293
828.7893583
788.6507226
722.744144
614.9374302
451.4044135
248.3244799
24.32627288
-190.231061
-381.0212579
-533.7441617
-643.5186777
-733.337327
-779.5337246
-820.887612
-834.8384398
-842.9476172
-846.5395718
874.074822
875.6472361
878.612292
882.3493269
882.9957309
884.1953814
882.1438356
868.4698933
844.9852544
790.7264768
680.8057728
494.9661384
230.8145257
-50.93669541
-292.4095766
-476.7779278
-618.0421229
-716.9465539
-790.8011309
-821.4872121
-850.3903534
-856.2815453
-859.2551549
-860.3666124
873.5144843
876.2987608
881.8940187
890.0949668
894.9493856
905.6844549
916.6268168
919.3185058
918.3048591
889.691641
796.4874475
577.3387579
206.6789928
-203.3611194
-494.3048325
-664.9150959
-762.7266478
-822.8454167
-867.0367656
-875.5880498
-884.8175438
-880.8608682
-877.5445147
-875.6714049
870.5390534
874.527775
882.6597071
895.2247967
906.0881811
926.2192166
951.8867841
973.5617648
1007.573867
1036.937245
1016.542098
818.1229085
212.8893387
-501.4194579
-847.8151019
-952.7094662
-968.3933155
-962.4894708
-957.3895398
-935.5404879
-920.07345
-904.9561447
-894.5815801
-889.4999409
864.0008175
869.0326168
879.3582767
895.7597565
912.3260701
941.3623451
980.4814022
1022.695408
1099.077443
1211.62568
1365.246602
1475.361206
431.455242
-1242.698747
-1409.87767
-1323.221045
-1214.696807
-1120.001276
-1050.749083
-993.3155245
-951.4021809
-924.2539005
-907.074171
-898.9693128
852.9155058
858.6927286
870.5778873
889.6686106
911.4315948
946.9038427
995.7387832
1055.811246
1166.540903
1347.552949
1655.119627
2244.771264
-3099.389101
-2154.433643
-1707.721374
-1445.543275
-1264.313507
-1127.803599
-1038.949139
-970.7754214
-934.1384485
-911.7369027
-901.1594531
836.5459427
842.6691815
855.259911
875.5578658
901.1529275
939.7820541
992.9953931
1063.388618
1188.307522
1379.524814
1651.412921
1978.202278
-4472.689788
-2649.939188
-1954.521102
-1591.719405
-1354.23828
-1169.786573
-1060.775873
-973.0213512
-930.9563031
-905.6324865
-893.6058016
814.5027697
820.5322047
832.8939518
852.7681298
880.5619048
918.7678381
970.7235235
1042.860889
1161.040238
1326.066366
1514.149433
1676.507236
-4040.152944
-2595.097451
-1952.477861
-1594.25149
-1361.032022
-1164.331438
-1051.837929
-955.3154787
-912.7688212
-887.1567131
-874.9393729
786.8011916
792.3286195
803.594694
821.4351506
849.9655226
884.4835797
930.6893772
997.8029566
1099.327304
1228.982289
1359.670143
1467.44345
-2991.226063
-2165.744738
-1741.981088
-1481.03083
-1290.033167
-1111.344815
-1011.603119
-917.8288516
-879.5123187
-856.2077801
-845.007374
753.8312204
758.51301
768.0566504
782.4024022
810.7454029
838.7878136
875.98307
933.4854731
1013.402694
1108.950769
1202.324258
1302.017095
-1935.202949
-1607.313771
-1419.663984
-1279.745982
-1157.870436
-1021.203031
-945.5217468
-863.4648735
-833.1167926
-814.0960786
-804.8480709
716.3276011
719.9309404
727.4076004
738.0182808
763.0628002
784.0844509
810.2898431
855.9471168
911.8867331
973.2123244
1028.435094
1113.546879
-741.0748156
-990.5589551
-1078.115922
-1078.46342
-1048.723246
-997.2321543
-910.4120592
-862.2028499
-797.6636871
-776.9948485
-763.2030483
-756.4418738
675.1922453
677.6258326
682.8483135
689.9287083
710.6558341
724.2503146
739.2734844
771.4514264
802.937615
828.4441856
835.8193827
857.2083522
264.976853
-409.9574337
-669.6059625
-784.0000781
-832.0674524
-833.6035353
-794.3464316
-770.8420471
-726.8239489
-714.9440662
-706.4228947
-702.2871918
631.460551
632.6503339
635.306221
638.6095478
655.1524716
660.6758745
665.1148236
681.3819508
688.9917501
682.354626
642.7421623
532.3127426
235.30443
-163.4894503
-415.9022
-565.1165292
-650.9506412
-687.2059236
-682.6608674
-680.2485379
-654.298698
-650.1899367
-646.6256629
-644.9393661
586.1819761
586.2131213
586.391766
586.1294207
598.6252863
597.1211332
592.4959015
594.3851979
583.1247572
553.9220329
490.303604
367.3318857
179.1738938
-70.45454781
-271.8328464
-416.8506837
-511.6651216
-564.8252921
-582.7632913
-595.1187645
-583.4734445
-585.6607956
-586.3174149
-586.6831658
540.3886066
539.4398262
537.5136097
534.2321523
542.8885751
535.6550029
523.9114402
515.4123439
489.4087519
447.4750419
378.5120724
274.5668235
136.3618807
-35.9475465
-191.6268967
-316.7375945
-407.1471519
-466.2074004
-496.2896443
-517.7074219
-516.7694691
-523.6189485
-527.5037708
-529.3823807
495.0122668
493.2800361
489.6730784
484.0176727
489.3180082
477.7917035
460.9158703
446.1249216
411.6645086
363.6444615
297.4516341
211.4143405
103.0151121
-24.71100059
-145.7695707
-248.4230519
-327.9747729
-386.3879736
-422.3136763
-448.8438013
-455.4081253
-465.382456
-471.5483254
-474.4595398
450.8009981
448.4763709
443.5982387
436.2020755
438.831108
424.38408
404.3250809
385.8176295
348.894687
299.924439
238.4528876
165.3646894
77.75967277
-21.21856621
-116.1619244
-199.8687672
-268.9322851
-323.1966945
-360.4445561
-388.8108382
-399.8944599
-411.6867135
-419.2539152
-422.8564409
408.3219451
405.5908036
399.8374499
391.2892313
391.9221886
375.7519426
353.9879506
333.8777803
297.0282771
250.6647355
195.3454997
132.4933266
60.71814232
-18.70752912
-95.19012306
-164.4270153
-223.7915508
-272.5694484
-308.811477
-336.8601977
-350.3073964
-362.8738133
-371.1256829
-375.0600559
367.9785482
365.0109582
358.7451062
349.5521516
348.8093161
331.8651898
309.5268831
289.2469369
253.9232867
211.2139868
162.1743645
108.3293716
48.17738959
-16.89582151
-79.72211673
-137.5269302
-188.4032883
-231.5471908
-265.3738911
-291.9842567
-306.3227357
-318.9022133
-327.3002812
-331.3148858
330.0278707
326.9657257
320.4953663
311.0807871
309.4411831
292.4630341
270.4580188
250.8261982
217.8331874
179.1582009
135.8997691
89.56841688
38.70960268
-15.4253941
-67.74822367
-116.3987887
-160.0032089
-197.8362328
-228.5908819
-253.1807015
-267.4216364
-279.5137402
-287.6919449
-291.6093313
294.5952205
291.5493804
285.116486
275.8159383
273.6512461
257.1774647
236.1353252
217.6172472
187.3512082
152.7363222
114.6917201
74.71092849
31.41369333
-14.10261214
-58.11356034
-99.32019922
-136.72615
-169.7256194
-197.2355055
-219.5289772
-233.0498261
-244.3510438
-252.0753392
-255.7798166
261.6976569
258.7515235
252.5348796
243.5956456
241.2002891
225.5949917
205.9676473
188.7680257
161.37333
130.6515075
97.28593409
62.74109889
25.69429445
-12.84963527
-50.12189214
-85.18040489
-117.2922393
-145.9673328
-170.2928638
-190.2293307
-202.6709161
-213.0149653
-220.1453653
-223.5672204
231.272462
228.4866765
222.6129758
214.2063619
211.8043658
197.2995375
179.2889707
163.5847308
139.0434236
111.9530187
82.78419916
52.94275148
21.14507877
-11.63869942
-43.33568052
-73.24190847
-100.8094052
-125.6467096
-146.962924
-164.6024722
-175.7801983
-185.0948348
-191.5590082
-194.6617646
203.2010933
200.617588
195.1727366
187.4105513
185.1676367
171.8988818
155.5925848
141.4663966
119.681714
95.93441956
70.53397749
44.79899458
17.47825081
-10.46234985
-37.46615915
-62.99639622
-86.63728634
-108.0772751
-126.6067724
-142.0739708
-151.9155092
-160.1902662
-165.9631787
-168.7336735
177.3238549
174.9695856
170.0081669
162.9577121
160.998052
149.0298637
134.4476969
121.9132089
102.7467862
82.06152954
60.05249012
37.93172269
14.48482103
-9.321234047
-32.3153461
-54.08351474
-74.30671112
-92.73724939
-108.7148947
-122.1629457
-130.6603061
-137.922389
-143.0094972
-145.4496843
153.4524653
151.3429651
146.8960053
140.592432
139.0065495
128.3571749
115.4757883
104.5036122
87.8006595
69.91943994
50.97128927
32.06135033
12.00849839
-8.218347624
-27.74059853
-46.23711514
-63.46168205
-79.21804702
-92.86953487
-104.4586632
-111.6417591
-117.9390796
-122.3637929
-124.4845737
131.382191
129.5248974
125.6065385
120.0622427
118.9190646
109.5769715
98.36915482
88.87989344
74.48972616
59.18359751
43.01612454
26.97434823
9.93095574
-7.157116171
-23.63572999
-39.25544121
-53.82640571
-67.19505234
-78.72707313
-88.61184776
-94.52759981
-99.91776995
-103.7128075
-105.5296945
110.9005928
109.2973075
105.9101563
101.1223144
100.4741477
92.40829716
82.84703117
74.74905192
62.52458069
49.59231321
35.96815222
22.50173615
8.160954096
-6.140009807
-19.91779751
-32.97923976
-45.17885549
-56.3999859
-65.99989904
-74.32074291
-79.02144134
-83.56403788
-86.76571526
-88.29615276
91.78500157
90.43512418
87.57546153
83.52868768
83.43411077
76.59495182
68.61903434
61.8656439
51.66461919
40.92846768
29.64330504
18.51078626
6.62677093
-5.16834699
-16.51996759
-27.28002684
-37.33754497
-46.5943343
-54.44552664
-61.32226494
-64.8523147
-68.60619018
-71.25028501
-72.51101893
73.84079722
72.73970426
70.40055088
67.07742832
67.55766837
61.90246077
55.3753348
50.02284758
41.70280325
33.00936371
23.89041839
14.89441024
5.270420382
-4.242269694
-13.38654475
-22.05196944
-30.15720263
-37.61985136
-43.82542332
-49.37964354
-51.79451256
-54.81000237
-56.92994303
-57.93807702
56.76428764
55.91734587
54.0995779
51.47081377
52.6793035
48.11623927
42.95386073
38.98844849
32.44960247
25.67428045
18.57830232
11.56220349
4.043769111
-3.360350711
-10.46831153
-17.20227686
-23.50961194
-29.34822521
-33.94229109
-38.28001349
-39.56657242
-41.90315897
-43.52367839
-44.28664471
40.67178057
40.05250482
38.74421233
36.86029193
38.31969632
35.03143312
31.20620103
28.58110973
23.73881515
18.78036938
13.59285999
8.435639394
2.906471739
-2.51978098
-7.720754277
-12.64669866
-17.26998074
-21.56800175
-24.66692501
-27.80763072
-28.2160863
-29.86312903
-31.00986002
-31.555946
24.17629693
23.87892393
23.1024227
21.96811086
24.60925529
22.47835053
19.9395127
18.63724255
15.42191775
12.19216756
8.822429123
5.444103936
1.82462024
-1.716227315
-5.102308383
-8.307958676
-11.32642604
-14.15764745
-15.8244499
-17.87874483
-16.82123082
-17.80741261
-18.48204382
-18.74650789
12.19252435
11.90189296
11.49305936
10.85067012
11.22030009
10.12429642
8.914306208
9.011080481
7.370505162
5.76673632
4.15211516
2.521666225
0.7742324327
-0.941679854
-2.572080882
-4.114976698
-5.576421686
-6.972368503
-7.178091638
-8.114152471
-8.185858974
-8.654515271
-8.968183185
-9.197606585
2028.220871
-4810.262088
-3302.263278
1707.277161
-4406.625281
-4848.158831
1489.875086
-3254.089432
-4282.58404
1322.926989
-2106.367092
-3103.903053
1127.983704
-791.2936285
-835.4044929
-1101.940956
-1971.59907
885.6863413
351.1394558
-743.5507376
213.7991873
-418.2674164
-990.6013441
2195.057047
680.8101098
-2928.181965
-1045.628094
-6547.636625
-4381.204981
-4426.519364
-2849.228034
-2325.882369
1551.911443
1689.971297
1937.449994
-6288.584165
-6752.313438
-4145.529746
-2918.222087
-2934.387174
1398.33815
1479.480848
1660.529839
1590.365392
1623.013253
1735.137465
-4531.169025
-5424.197828
-3128.088755
-2466.053441
-2839.381739
1242.561092
1309.611938
1456.855786
1404.21386
1440.436679
1508.909908
-2947.839993
-3613.498514
1073.937892
1123.894898
1288.466015
1226.944676
1284.647439
1361.671581
-1602.343005
-1579.486603
-2157.737972
884.6289341
886.8051316
1097.185739
1012.758
1056.427097
1176.022673
601.5809475
349.9035919
364.5536153
2550.575979
2122.204349
3009.009547
2632.909394
-6774.149331
-6595.977118
-4452.221937
-6297.09425
-6600.33493
1750.63901
1865.741197
1809.01312
1870.28198
1753.958193
2081.680126
1889.62225
-5479.125755
-6248.121747
-4648.689871
-6114.70896
-5388.038627
-6582.097969
-6153.724544
-4690.832154
1519.944008
1608.176009
1563.574348
1615.830011
1521.212815
1745.805159
1624.024978
-3712.866555
-4468.952004
-3705.904948
-4362.654408
-3641.934416
-5334.249984
-4476.215651
-3855.518538
1366.953555
1436.365051
1383.967965
1439.663745
1371.132983
1515.300261
1443.509513
-2242.900313
-2856.733547
1183.055675
1279.197558
1214.799747
-1554.916068
1284.378672
1188.074319
1365.724491
1289.884615
-1596.339334
-1001.467375
-1500.613517
-1551.364987
1012.91076
1047.353806
996.0228504
-21.40343065
1052.78184
924.2847421
1181.085685
1061.053827
-95.23311899
1673.343961
1979.31204
2123.221841
2223.901441
2578.361225
2857.061065
-8522.53659
-5655.885822
1846.878238
1885.509599
2080.475428
-3522.610666
-2062.104802
-1827.893392
-2313.683367
-2015.4396
-1971.72981
-2275.8824
-152.3955173
-478.1821924
-858.4320233
2119.648577
2508.356313
2181.816483
2256.906124
3891.610773
3467.845522
-4145.983678
-6169.610373
-4235.246744
-2326.028077
-2655.004951
-2523.426807
-2813.91292
-2218.402018
-3546.305562
-2902.283586
-2665.994073
-1143.107365
-261.926243
-431.0446333
1059.738724
2073.474927
2953.602657
-3875.5665
-1300.067723
708.4770345
-8609.350095
-6002.123876
-8246.020827
-5362.615197
-8099.236812
-5671.061605
-6504.834018
-6538.255002
-4951.375975
-5012.006707
-3105.385867
-3443.940885
-3226.28724
-3426.46802
-3078.040777
-3867.032265
-3479.201562
-3321.576968
1320.836596
1291.741703
1258.503223
-1602.583005
-1879.442366
-1931.701102
1117.497557
1084.746715
1034.923823
1143.607762
1100.092944
1124.727653
2618.210843
2295.29486
2332.248875
2302.815764
2637.058876
2082.989873
2266.838899
2271.66756
2954.304221
3396.718611
3740.231585
2703.640891
3301.707279
2883.801391
3352.876637
2698.000335
-6806.656775
-6802.137861
1814.389506
1883.282823
1806.160245
1983.327846
1963.893236
2067.937349
1889.432259
1952.68646
1956.65729
-5836.948793
-5885.36521
-5784.836178
-5182.08598
-5371.429169
-4878.374721
-5111.100327
-5737.398115
-6403.483116
-5591.473064
-5641.698859
-5425.473797
-5558.999706
-6371.811442
1568.112743
1561.283437
1689.195271
1680.254419
-4024.539115
-3910.633592
-4079.151997
1408.493465
1403.649951
1478.291737
1473.594077
-3024.755036
-2682.855593
-2589.05362
-2701.32946
-3045.351929
1226.080833
1197.02691
1157.27457
1246.825406
1209.963661
1233.702157
-1193.265921
1237.713649
1229.609566
1329.335832
1324.852165
-1937.997216
-1197.04027
-1241.000122
-1511.528213
1016.676027
960.6652846
912.289606
933.5780236
489.1659833
205.3888557
1130.454006
-249.276446
164.526347
-164.0194832
1123.888698
-341.302264
-199.3161122
131.9627862
-7244.106013
-2173.513833
-2333.719782
687.9737287
635.6193738
852.7338244
743.729238
770.0790279
963.9978121
246.9988437
-110.0392169
-303.1723414
4741.772955
-2366.153702
-2543.510056
-896.684729
-1152.321176
-1148.252298
-125.6167337
-372.7054712
-81.69980779
1621.919349
2756.595968
3823.645834
-4988.749258
-1667.764201
671.0779628
-6391.58059
-7297.25697
-7154.263064
-6669.484189
-4708.725379
-4901.297104
-4694.334846
-5693.678261
-5511.427976
-5253.084163
1471.282719
1451.581529
1422.202273
1493.683974
1461.756483
1476.304694
1333.752985
1302.384833
1325.576293
1083.422392
1069.954717
1042.405787
872.76245
667.0211579
404.3678248
-6799.850568
-7344.875144
-7352.287924
-6607.994503
-5512.945348
-5252.715046
-5639.822686
-5564.742
-6607.330857
-5638.364547
-5923.83161
-5756.448388
-6105.042985
1554.777599
1539.955362
1504.81977
1527.443636
1542.741714
1537.456877
-4629.659865
-4435.211946
-4297.792438
-4040.667109
-3794.462525
-4068.353789
-4939.704859
-4530.493815
-4794.618143
-4160.986839
-4439.185729
-4881.634484
1400.18954
1373.959104
1344.00379
1412.630649
1383.769375
1404.980446
1427.577558
1440.982199
1449.554528
1383.398683
1403.722774
1386.448938
1499.22029
1504.268973
1521.87059
1452.04326
1461.561269
1455.52087
-2501.730328
-2636.252457
-2321.524672
-1384.948088
-1398.488282
1266.897229
1199.001011
1349.095026
1356.818048
1378.52336
1323.694959
1305.115237
-1732.508652
770.2633839
944.2997203
906.4143062
1032.542281
999.0335769
1010.249279
172.9246974
399.9735814
167.9176475
1017.849722
444.455598
709.4380769
526.3297752
559.0257829
1155.050982
1088.426406
-7839.043614
-6982.19893
-7474.474809
-3669.961158
-3737.408859
-1983.333293
-2125.204706
-2130.636432
2174.69597
2149.199515
3859.62824
4378.053096
4490.139626
4216.718581
3786.515608
-2727.903201
-2548.14787
-2510.453343
-2547.960528
-2745.028443
-1146.97402
-969.9742322
-990.0752207
-972.0744467
-1146.653691
-749.6848288
-923.3251206
-507.0731969
-539.72819
-701.3747319
-333.5333083
-487.3404555
-407.0646709
-8501.126369
-7381.806864
-6949.129057
-7660.540562
-7479.251303
-6767.361597
-6048.040832
-7290.881504
-6895.556046
-6778.171085
-6418.29278
-6638.361763
-7100.330848
-6945.313978
-5168.429125
-4969.749414
-4769.804503
-5027.916037
-5234.806857
-4756.773141
-4965.412509
-5302.5152
-5193.643052
-5453.375616
-5238.229658
-3247.588738
-3313.122904
-3283.065244
-3203.083611
-3348.160109
-3711.78458
-3603.073901
-3759.014393
-3396.630532
-3551.737241
-3654.71145
-1803.894815
-1786.790799
-1931.894072
1102.930066
1078.842311
1089.18417
1143.934061
1132.644779
1110.952662
2458.531851
2413.406499
2422.845985
2438.745472
2322.124909
2629.084399
2482.373113
2469.950429
2153.520097
2171.67867
2103.606402
2287.632158
2197.673089
2180.16636
2933.292974
2861.537841
2687.373697
3044.013121
2945.058721
-7453.85229
-7359.205605
-6804.682233
-7543.655184
-7688.387931
-7496.194161
-7702.371718
-7720.077152
-7746.706327
-7687.144118
-6751.22773
-7446.804423
-7489.019983
1846.364574
1845.733573
1824.233084
1880.571787
1854.283912
1856.639885
1793.109064
1774.15943
1818.469763
1799.252184
2002.675248
2016.414789
1974.812495
2084.344997
2031.965367
2016.596903
1917.15079
1918.752217
1889.460656
1962.425902
1929.200929
1928.031689
-6128.989634
-5977.550077
-5689.58036
-6048.172513
-6353.831715
-6172.260019
1593.0934
1573.979899
1622.749009
1598.784115
1543.996542
1529.775983
1566.846101
1548.593805
1731.102812
1703.045892
1766.960689
1740.447979
1656.485895
1630.072424
1693.718633
1665.911734
-4019.555906
-4193.776056
-3813.430374
-3969.328486
-4059.421627
-4484.880214
-4685.082417
-4248.258378
-4425.145402
1418.279054
1436.181245
1423.095858
1441.59235
1420.713129
1452.470468
1446.908281
1416.259703
1390.428786
1405.470982
1413.37983
1485.218809
1498.556898
1493.458206
1501.398071
1487.521344
1524.101862
1506.417677
1462.448087
1454.129719
1480.115195
1466.066453
1459.805087
1465.385523
1479.725869
-2746.789497
-2851.666973
-2914.936176
-2735.256109
-2968.070862
-2897.365682
-1155.926964
-1351.442276
-1373.36745
-1157.158318
1260.902794
1207.425427
1338.442832
1350.970294
1343.765846
1310.500688
1329.56349
1335.816101
-1819.96058
992.7995829
986.549793
949.2952245
620.0430497
537.6426413
1002.389405
281.2989861
425.9788219
330.1769774
1145.932058
-398.8945906
20.81645968
229.8018486
-21.58638093
1087.977279
-2791.855852
-2090.668093
-1414.640587
-2316.196324
-2371.42184
-1125.770955
-1205.429057
-1665.326037
-2375.957856
-940.6844744
-922.6082176
-758.322137
-2135.576311
-1610.442851
-1579.91573
1792.979294
3324.967015
4438.526266
-5947.465918
-2134.277294
682.8604769
-1917.191077
-1593.210182
-3723.682146
-6306.713339
-7133.383349
-7345.004374
1670.456196
1648.469007
1605.23189
1709.737951
1663.538685
1686.765645
-1593.035853
-1737.562136
-1741.242839
-2229.569225
-1955.494651
-1905.294707
1161.444247
1140.396197
1152.126042
-7395.859274
-7445.460864
-6736.335832
1591.443219
1552.335078
1567.322867
1594.653483
1598.414176
1621.497602
1629.086833
1654.476716
1647.147317
1198.113384
1187.598327
1168.600365
-1566.375995
-1519.597174
-1510.193495
1192.681832
1200.287455
1194.154584
-1668.612125
-1678.127162
-1577.330404
-1399.871723
-1397.536994
-1544.473882
1043.087023
1174.03735
1180.486121
1186.23668
1066.691646
-8430.550672
-3559.827419
-1998.00412
-2069.320888
-2073.69167
-2316.716797
-2165.987898
-2135.938097
2223.267153
-5124.319977
-4608.716643
-5558.469415
-2464.451972
-2515.717756
-2360.825516
-746.0059873
-759.9199695
-581.0587369
-587.6603977
-688.9858012
-2498.542247
-2019.45527
-4810.748209
-8407.101598
-7950.467949
-7799.318033
-8240.010788
-8251.883822
-3153.430166
-3186.291501
-3135.568224
-3459.360096
-3458.871727
-3431.982828
-3007.643179
-3151.551183
-3224.561632
-3829.667139
-3774.728156
-3829.12051
-1927.748859
-1906.489254
-1938.524253
2557.058971
2632.40792
2333.760928
2340.517591
2348.656702
2311.141851
2098.784963
2112.403581
2092.731633
2275.97267
2243.603722
2234.20367
3115.206969
2928.465238
3022.598963
3243.272483
3258.024978
3404.566945
2696.606368
2764.80941
2771.633627
1830.746692
1828.737439
1828.416411
1882.01585
1873.887045
1875.576418
1791.933989
1787.297398
1824.61029
1817.546976
1977.484731
1981.138861
1968.237886
2074.429143
2056.489468
2051.043556
1896.086003
1897.468999
1889.522966
1956.607592
1946.780089
1944.660371
1572.613929
1591.96356
1587.23371
1543.637029
1547.882544
1565.955299
1699.629213
1726.743773
1713.630795
1719.026314
1709.122222
1781.542917
1772.398074
1639.256512
1699.321084
1689.617624
1655.945987
1663.498859
1690.565799
-4196.413512
-4267.361316
-3884.559795
-3949.914248
-3973.422174
-4334.577834
-4348.740434
-4239.672014
-4376.142905
-4204.924861
1214.285762
1194.547653
1204.659096
1255.343164
1240.668559
1221.415092
1241.440679
1251.054289
1246.070251
1221.983377
1225.218663
1232.753152
-1939.280378
932.30763
943.6806857
920.9736895
667.4684098
940.1144613
370.3363989
490.0634802
601.8850213
1136.256136
1139.325147
1135.455354
-312.9042324
-156.5886533
-136.4776157
-152.1686791
1115.221137
1121.706842
1130.490237
-57.22293613
-140.6295032
-282.789521
-2207.167598
-2252.558351
-2357.878139
-2309.636168
-2289.351141
4856.611784
5007.67788
4755.910399
-2424.822191
-2449.740342
-2364.839119
-2560.488054
-2504.2555
-2494.248945
-3271.324125
-2539.210611
-5631.184307
-6650.446729
-6662.06845
-6565.570518
-6612.118322
-7246.997175
-7068.808319
-7110.91911
-6987.279753
-7028.652629
-7201.38989
-5637.007926
-5552.354219
-5610.738747
-5427.080598
-5492.599878
-5577.688591
-7392.834306
-7186.298698
-7174.663005
-7151.858171
-7179.713015
-7391.282362
-5865.154277
-5778.522142
-5832.963555
-5669.009338
-5724.192007
-5812.906177
-6484.152292
-6524.640959
-6370.077246
-6429.155279
1444.383897
1439.817566
1435.981649
1388.692613
1385.310508
1379.645362
1396.891075
1391.628707
1395.959745
-1519.025242
-1573.38342
-1380.999948
-1464.076376
1281.369489
1278.407686
1291.381583
1285.064955
1201.634842
1196.873152
1202.796994
1196.787407
1364.020047
1361.498445
1355.050054
1374.262636
1368.212993
1371.925692
1303.354416
1299.540036
1316.524454
1300.17007
1307.382461
-1737.831701
-1732.743774
-1724.250452
-1577.473226
936.1631328
967.6328133
1064.123837
1024.587408
1018.415955
1004.512233
1032.087776
393.1328484
381.1932038
1034.509645
926.9076715
715.6495011
1156.387512
1170.365951
1165.399196
1077.272763
-8302.824288
-8603.164047
-8163.567679
-7801.199084
-7384.634091
-6521.547005
-8181.206298
-7854.445658
-3607.825697
-3756.786899
-2130.48436
-2120.758397
-2126.374276
2197.636341
2120.439066
4481.057124
4291.420016
4206.261041
3723.048275
3582.676936
4061.745469
3875.891409
4014.653924
-2632.190792
-2559.804424
-2686.998781
-986.0296384
-981.58264
-970.7979526
-1088.725544
-787.139203
-763.1932118
-751.6204346
-911.0547562
-850.3736618
-850.9053557
-515.37728
-570.364593
-565.1858212
-389.8397359
-397.4265949
-443.3868073
-8155.590282
-8063.427061
-8464.710356
-7604.3636
-7937.943076
-7973.141186
-8281.410079
-8263.523804
-6844.076719
-6727.413655
-6766.240241
-6677.458136
-6692.522681
-6797.997085
-7044.202708
-6896.219976
-6942.849396
-6808.318846
-6851.170816
-6993.889619
-5103.65597
-5029.297369
-5093.431791
-5093.249148
-5166.433082
-4805.15646
-4834.711253
-4804.785402
-4903.291473
-5376.448111
-5415.265572
-5370.517303
-5287.303002
-5357.855098
-5160.043635
-5225.837717
-5310.810158
-3286.301508
-3196.520939
-3190.396247
-3210.695937
-3147.587252
-3205.79618
-3381.871888
-3405.921288
-3339.665739
-3671.118487
-3714.964005
-3738.748952
2506.555672
2372.060853
2160.754976
2134.521398
2120.711398
2205.938734
2214.322542
2187.226371
3038.9956
3138.412144
3145.234668
3443.629525
3311.983055
2852.341253
2844.944028
2938.881336
-7414.499313
-7208.085139
-7228.267308
-7180.005265
-7190.550129
-7382.894746
-7590.672746
-7634.45677
-7733.352767
-8025.213515
-7962.966037
-8067.662938
-8078.840866
-7744.965388
-7759.391141
-7926.489234
-7917.750904
-7694.607953
1846.720911
1838.961689
1838.63122
1866.607889
1865.067261
1855.884993
1800.807734
1796.263171
1810.953481
1805.615547
2007.697728
1994.2202
1990.314078
2033.090462
2038.873939
2022.443152
1917.598458
1906.979609
1905.619276
1937.006806
1937.595094
1927.909472
-6083.07411
-5988.452786
-6034.813465
-5885.227513
-5937.324863
-6028.421768
-6296.267236
-6205.133893
-6290.841961
-6080.6426
-6135.326326
-6229.059818
1587.276743
1588.777685
1593.662991
1575.366143
1582.708956
1580.896257
1613.880548
1612.208914
1622.99
1597.869677
1603.442904
1605.48903
1539.589031
1541.454342
1545.019863
1532.487119
1537.355719
1534.907453
1560.079819
1559.972763
1567.407763
1548.68636
1553.620273
1553.883311
1739.157208
1729.12165
1721.788016
1725.68372
1735.298119
1706.318862
1715.980262
1712.418627
1760.527895
1749.2628
1661.242255
1652.575769
1647.251725
1649.817233
1658.852248
1630.823504
1634.136463
1637.162264
1684.431806
1687.233927
1696.742221
1668.451991
1677.817287
1675.176322
1680.141075
1670.757995
-4107.575073
-4143.274322
-4041.175375
-4008.805753
-4035.213974
-4542.211403
-4573.258408
-4523.43862
-4723.321907
-4638.406158
-4607.782318
-4295.067265
-4327.341676
-4298.597674
-4469.87653
-4416.706468
-4359.910742
1423.657937
1420.442967
1415.122142
1431.385961
1426.036887
1429.973903
1433.736173
1426.274365
1451.0566
1449.380557
1413.268245
1403.969647
1399.064392
1399.541017
1398.652491
1409.950791
1405.395857
1409.911961
1488.96939
1493.251688
1504.109432
1491.166038
1518.08967
1520.079413
1526.529009
1508.799611
1514.217373
1512.250091
1459.095794
1456.286473
1474.021872
1469.753521
-2855.905077
-2840.198396
-2904.911578
-2730.888814
-2781.834016
-2816.097528
-3037.648414
-3083.365471
-2951.505725
-2955.791423
-2967.036077
-1308.599936
-1315.287441
-1369.744937
-1175.226107
-1239.76951
-1245.902315
1255.872819
1244.353402
1274.394513
1266.950828
1211.776044
1217.819062
1214.398842
1220.3771
1214.634363
1234.91728
1227.407535
1341.971359
1340.092005
1336.135772
1349.412724
1344.494487
1346.132365
1332.461044
1326.335044
1321.898684
1332.662302
1329.552272
1334.102723
-1881.025122
988.170784
970.039848
973.1119933
582.3027393
593.5847685
646.1155139
540.5793965
546.0404645
531.9954479
985.1082026
373.5494989
325.2833332
261.3134932
1139.899346
1141.360075
1145.780039
-378.5390602
107.3905717
51.94345324
214.2169611
205.0997887
215.6307458
35.64612939
-94.7382092
-75.53512866
24.30385546
1099.929131
1113.698668
1106.781244
820.9686249
790.7935108
769.2820088
777.7599994
729.1781838
701.1150691
708.731539
633.4265985
601.5256335
601.8763949
488.4728756
464.4947172
444.0551602
298.6312251
290.0238575
247.7991273
88.15383999
91.65468296
33.48357406
-125.696665
-110.7811378
-177.575817
-322.6471793
-298.1399439
-367.4276813
-484.9325398
-455.1667174
-519.2311395
-605.7221125
-577.8403033
857.3354882
838.0047888
800.7908125
829.1056439
790.16484
742.4080601
771.650522
694.8735362
647.124959
661.3143106
533.1519403
497.3679512
481.61155
301.2684391
302.07903
236.6093686
38.4559544
80.39654113
-25.91888797
-204.7506337
-138.268967
-258.6309076
-402.4844913
-335.9707782
-445.0859921
-559.039891
-499.5735052
-592.0901485
-673.8259705
-619.4984622
906.0242102
902.0648913
852.7050769
898.2987164
874.6685038
808.5950217
860.9877708
793.7935036
714.7362539
760.0689857
613.4114737
550.5291733
550.7055818
305.8751469
300.826246
211.919472
-69.52333713
17.51795742
-156.0513671
-374.3965452
-237.5422094
-432.6267971
-570.4059505
-435.4386561
-607.3899056
-697.0428338
-585.8267575
-720.720188
-778.316227
-696.6392224
960.1354691
978.6507161
920.2668205
984.3726844
995.5478112
901.0267066
995.0163065
969.7194316
828.8865678
948.4846818
812.5715572
646.8404594
733.0395415
362.1538379
312.2320204
207.7580499
-272.0659035
-108.3745769
-404.2339823
-681.9808347
-435.1510297
-741.5518591
-852.9861303
-629.8001918
-872.6208206
-906.0672426
-743.1360803
-912.0151033
-922.7291276
-810.5528431
1011.421874
1058.710016
998.8775413
1077.39483
1142.983195
1031.094273
1168.024894
1247.447488
1030.412315
1271.333583
1289.962469
897.8593263
1251.215776
610.3677834
401.7836802
406.4318436
-770.8461773
-352.5651999
-973.0585067
-1229.350887
-790.3804549
-1249.162055
-1238.557514
-939.5592027
-1224.34594
-1170.773981
-968.0840085
-1151.9321
-1097.609714
-964.5727231
1049.72708
1122.893688
1076.889325
1153.651238
1271.70357
1179.625291
1321.934714
1519.997802
1324.024035
1607.676509
2081.720534
1468.407703
1782.864566
1832.521041
1301.266618
508.081073
-928.1275083
-349.4104767
-1703.733903
-1647.827339
-1348.162381
-1968.791642
-1689.871562
-1349.878589
-1617.79604
-1441.50827
-1241.204935
-1392.682782
-1267.423178
-1142.028605
1064.374531
1150.46649
1133.654787
1186.705294
1324.276961
1293.409192
1381.348207
1590.671138
1560.779532