/*--------------------------------*- C++ -*----------------------------------*\
| =========                 |                                                 |
| \\      /  F ield         | OpenFOAM: The Open Source CFD Toolbox           |
|  \\    /   O peration     | Version:  v1912                                 |
|   \\  /    A nd           | Website:  www.openfoam.com                      |
|    \\/     M anipulation  |                                                 |
\*---------------------------------------------------------------------------*/
FoamFile
{
    version     2.0;
    format      ascii;
    class       surfaceScalarField;
    location    "1.18";
    object      meshPhi;
}
// * * * * * * * * * * * * * * * * * * * * * * * * * * * * * * * * * * * * * //

dimensions      [0 3 -1 0 0 0 0];
oriented        oriented;


internalField   nonuniform List<scalar> 
25162
(
0
0
0
0
0
0
0
0
0
0
0
0
0
0
0
0
0
0
0
0
0
0
0
0
0
0
0
0
0
0
0
0
0
0
0
0
0
0
0
0
0
0
0
0
0
0
0
0
0
0
0
0
0
0
0
0
0
0
0
0
0
0
0
0
0
0
0
0
0
0
0
0
0
0
0
0
0
0
0
0
0
0
0
0
0
0
0
0
0
0
0
0
0
0
0
0
0
0
0
0
0
0
0
0
7.630299791e-09
-1.582744815e-08
1.772716257e-07
0
-1.546670771e-08
-1.506610223e-07
0
0
0
0
0
0
0
0
0
0
0
0
0
0
0
0
0
0
0
0
0
0
0
0
0
0
0
0
0
0
0
0
0
0
0
0
0
0
0
0
0
0
0
0
0
0
0
0
0
0
0
0
0
0
0
0
0
0
0
0
0
0
0
0
0
0
-3.582750951e-08
1.215195294e-07
3.292518458e-06
-8.416403637e-07
-1.285467327e-05
9.384986602e-06
3.000647397e-05
-1.354376141e-05
-1.659934922e-05
2.412279503e-05
2.880078147e-05
-2.596845053e-05
2.31361023e-06
2.525417547e-05
-4.296539499e-06
-2.33153415e-05
1.623829772e-05
1.530953175e-05
-2.905464861e-05
-1.255572475e-05
7.75424025e-06
5.428642405e-06
-2.073427985e-05
-3.502286845e-06
0
1.265177255e-07
-4.970047086e-07
0
0
0
0
0
0
0
0
0
0
0
0
0
0
0
0
0
0
0
0
0
0
0
0
0
0
0
0
0
0
0
0
0
0
0
0
0
0
0
0
0
0
0
0
0
0
0
0
0
0
0
-1.743409399e-06
-2.385854221e-08
8.993377283e-06
-2.256264516e-07
-6.501318497e-05
8.608323075e-06
0.0001021599937
-1.390282958e-05
-0.0001186955061
2.916875658e-05
0.0001570808385
-3.173621394e-05
-7.734547263e-05
2.676773714e-05
9.487995058e-05
-2.112182683e-05
1.585542799e-05
-2.635126179e-06
-2.170503695e-05
1.11106869e-05
8.374230349e-05
-3.098689157e-05
-0.0001056883416
3.42896273e-05
8.650943801e-05
-3.144100245e-05
-0.0001139652072
2.681572733e-05
3.56250633e-05
-9.701685969e-06
-5.768302926e-05
5.222435914e-06
0
-7.713678954e-08
-1.341258509e-06
0
0
0
0
0
0
0
0
0
0
0
0
0
0
0
0
0
0
0
0
0
0
0
0
0
0
0
0
0
0
0
0
0
0
0
0
0
0
0
0
0
0
0
0
0
5.744073033e-07
1.293332692e-07
-7.566155202e-05
-9.961345312e-06
0.0001103062628
1.339396438e-05
-0.0002467983754
-2.009305844e-05
0.0003003887755
2.418955218e-05
-0.0002776662467
-4.952083261e-05
0.0003143372384
6.273717408e-05
-0.0001409564333
-0.0001102341579
0.0001522360093
0.0001262066013
4.282607031e-05
-0.0001674042467
-4.979620717e-05
0.0001783370264
0.0001752052391
-0.0002006413966
-0.0001979755563
0.0002031757002
0.0002016362742
-0.0001872287893
-0.0002310112695
0.0001722781896
0.0001474324254
-0.0001202537388
-0.0001742869068
8.963550603e-05
3.653214837e-05
-2.316980781e-05
-5.559042768e-05
1.070416623e-05
0
0
0
0
0
0
0
0
0
0
0
0
0
0
0
0
0
0
0
0
0
0
0
0
0
0
0
0
0
0
0
0
0
0
0
0
0
0
0
0
0
0
-1.820626973e-05
-2.964024692e-06
2.994709514e-05
1.189499829e-05
-0.0002434048988
-6.085735899e-05
0.0002880838309
8.152386914e-05
-0.0004594455777
-0.0001601588551
0.0005018747818
0.0001927763833
-0.0003966773412
-0.0002880193037
0.0004244321851
0.00030635186
-0.00016983604
-0.0003712012357
0.0001718783525
0.0003815529451
6.419692764e-05
-0.0003954977926
-6.568385831e-05
0.0003975642176
0.0002629344844
-0.0004127917553
-0.0002787109404
0.0004161409574
0.0003394170804
-0.0004228361293
-0.0003663116962
0.0004028757187
0.0002509947237
-0.0002924963557
-0.0002753692291
0.0002477433851
0.0001172615717
-0.000109741691
-0.0001365594566
7.142362276e-05
-4.327603878e-06
3.995566875e-06
-6.919465034e-06
6.618798637e-08
0
0
0
0
0
0
0
0
0
0
0
0
0
0
0
0
0
0
0
0
0
0
0
0
0
0
0
0
0
0
0
0
0
0
0
5.044702372e-07
3.434682748e-09
1.397742944e-07
-6.993597727e-05
-2.138749454e-05
8.503781321e-05
4.689094007e-05
-0.0004073828893
-0.00016366191
0.0004302793115
0.0002226696375
-0.0005990920651
-0.0003802890361
0.0006203679375
0.0004313469798
-0.0004399837936
-0.0005628017226
0.0004304520488
0.0005976540806
-0.0001822773619
-0.0006313195878
0.0001026529933
9.875792411e-05
0.0002945489482
0.000317637084
-0.0002917149372
2.587934887e-05
-2.60241848e-05
0.0002918597731
-0.0003049793189
0.0003220303
0.0006260151663
-0.000324081272
-0.000162568429
-0.0001564164464
-0.0006111238184
0.0004224598727
-0.000441308881
0.0005972636271
0.0003385897758
-0.0004839023217
-0.0003597873777
0.00043160093
0.0001867758165
-0.0002363592792
-0.0002017124253
0.0001721163447
-3.277418022e-05
2.94880372e-05
-3.765043144e-05
1.01853855e-05
0
0
0
0
0
0
0
0
0
0
0
0
0
0
0
0
0
0
0
0
0
0
0
0
0
0
0
0
0
0
0
0
0
-2.118674931e-06
0
4.552630571e-06
1.501783134e-06
2.425501515e-06
-0.0001167359975
-4.856303697e-05
0.0001206123056
9.466288962e-05
-0.0004977642866
-0.0002975063391
0.0005062343714
0.0003770882466
-0.0006557624673
-0.0006106614148
0.0006598298793
0.0006772648979
-0.0004141934656
-0.000806295083
0.0004102098533
0.0008187626906
-9.451197715e-05
-0.0004086508514
9.531080192e-05
0.0004078520266
-0.000404460386
0.0001466403312
-0.0001460273447
0.0004038473996
-0.0008144624099
0.0004837797237
-0.0004916059476
0.000802842404
0.0004004551392
-0.0006705048846
-0.0004074933178
0.0005998650045
0.0002323102947
-0.0003500187689
-0.000237435499
0.0002670714312
-7.365501463e-05
5.588749334e-05
-6.377664602e-05
3.19814546e-05
0
0
0
0
0
0
0
0
0
0
0
0
0
0
0
0
0
0
0
0
0
0
0
0
0
0
0
0
0
0
0
0
0
-5.924446811e-06
0
7.489420461e-06
5.025966926e-06
5.918047806e-06
-0.0001403357946
-7.436841353e-05
0.0001445296656
0.0001367218129
-0.000534796306
-0.0004016195032
0.0005405641851
0.0005039643922
-0.0006691420458
-0.0007960576799
0.0006709818063
0.0008749472427
-0.0004043638882
-0.001009828497
0.0004034741357
0.001015090786
-9.288355631e-05
-0.0005016952099
9.286825912e-05
0.0005017105071
-0.0005046017567
0.0001447863035
-0.0001445181426
0.0005043335958
-0.001019195577
0.0005053725631
-0.0005076102944
0.001008633893
0.0004320464941
-0.0008599918394
-0.0004370873006
0.0007771813992
0.0002563251417
-0.0004749113161
-0.000260397591
0.0003704897523
-0.0001098231659
7.327629952e-05
-7.638111948e-05
5.323534051e-05
0
0
0
0
0
0
0
0
0
0
0
0
0
0
0
0
0
0
0
0
0
0
0
0
0
0
0
0
0
0
0
0
0
-9.011135303e-06
0
1.110453582e-05
8.974530195e-06
1.035430801e-05
-0.0001549758542
-9.955687733e-05
0.0001591981441
0.0001775087319
-0.0005547564605
-0.0005011417758
0.0005603342865
0.0006242577749
-0.000675531361
-0.0009702079117
0.000677203579
0.001061661241
-0.0004015100926
-0.001210802277
0.0004008976946
0.00121433262
-9.264736698e-05
-0.0006006915714
9.28167193e-05
0.0002985605482
0.0003019616708
-0.0006046178962
0.0001434833518
-0.0001432183869
0.0006043529313
-0.001217501066
0.0005047629817
-0.0005022563934
0.001199380729
0.0004341784939
-0.001007638143
-0.0004322199893
0.0009065881638
0.0002577856171
-0.0005484130772
-0.0002564663173
0.0004273845785
-0.0001268062558
7.424174131e-05
-7.328258912e-05
6.139712914e-05
0
0
0
0
0
0
0
0
0
0
0
0
0
0
0
0
0
0
0
0
0
0
0
0
0
0
0
0
0
0
0
0
0
-1.33916584e-05
0
1.602199808e-05
1.534032555e-05
1.733679493e-05
-0.0001724043303
-0.0001308729958
0.0001770537571
0.0002259732012
-0.0005772702383
-0.0006111246852
0.000583072228
0.0007552646308
-0.0006820208842
-0.001153685019
0.0006835824458
0.001256591279
-0.0003991793848
-0.001415304756
0.0003987272512
0.001417040551
-9.251030361e-05
-0.0007022451479
9.253474405e-05
0.000349501095
0.0003527196125
-0.0007051797682
0.0001420914081
-0.0001417608078
0.0007048491678
-0.001411539099
0.0004872731834
-0.0004794080806
0.001373569579
0.0004103235323
-0.001102853047
-0.0004093339832
0.0009903283225
0.0002378048474
-0.0005751880499
-0.0002327268596
0.0004398714136
-0.0001158184585
5.927163967e-05
-5.601231803e-05
4.991472052e-05
0
0
0
0
0
0
0
0
0
0
0
0
0
0
0
0
0
0
0
0
0
0
0
0
0
0
0
0
0
0
0
0
0
-1.920623236e-05
0
2.039040005e-05
2.491322327e-05
2.652037036e-05
-0.0001922349594
-0.000168809211
0.000198167058
0.0002822684122
-0.0006014241359
-0.000730181486
0.0006083606175
0.0008949616936
-0.0006882014803
-0.001342887002
0.0006897792955
0.001455757968
-0.0003977556755
-0.001618529079
0.0003977256959
0.001618708462
-9.241345032e-05
-0.0008031177848
9.236827164e-05
0.0003998555351
0.0004033074284
-0.0008036716157
0.0001402623688
-0.0001400636153
0.0008034728622
-0.001580125988
0.0004555730976
-0.0004454049219
0.001513892072
0.0003787015886
-0.001176897571
-0.0003571965383
0.001020252291
0.0002064379818
-0.0005446070985
-0.0001926159237
0.0004001205528
-8.511520774e-05
3.857994495e-05
-3.328215857e-05
2.787967245e-05
0
0
0
0
0
0
0
0
0
0
0
0
0
0
0
0
0
0
0
0
0
0
0
0
0
0
0
0
0
0
0
0
0
-2.863014737e-05
0
3.747261668e-05
4.242382925e-05
4.963389399e-05
-0.0002157195318
-0.0002189991191
0.0002312155928
0.0003498455469
-0.0006314564117
-0.0008656694105
0.0006389247062
0.001051400706
-0.0006943209582
-0.001547878002
0.0007011717067
0.001664235847
-0.0003976586742
-0.001821020757
0.0003982801772
0.0009039078343
0.0009164914202
-4.787145378e-05
-0.0004498884559
4.799430534e-05
0.0004497656043
7.900457689e-06
-0.0002243048263
-7.442451306e-06
0.0004490134025
-0.0002251665826
-0.0008998537683
0.000138977476
-0.0002919657199
0.001812146073
-0.0009120806406
0.0001527765798
0.0004179935728
-0.001703315904
-0.0003976752776
0.00159409461
0.0003181717813
-0.001166720804
-0.0003066470314
0.0009950140026
0.0001608594724
-0.0004831368541
-0.0001523584711
0.0003351384245
-3.851066389e-05
1.402683408e-05
-1.108420574e-05
3.807083563e-06
0
0
0
0
0
0
0
0
0
0
0
0
0
0
0
0
0
0
0
0
0
0
0
0
0
0
0
0
0
0
0
0
0
-4.268759099e-05
0
3.503746647e-05
6.27584391e-05
5.876983535e-05
-0.0002546938407
-0.000283560499
0.0002466882731
0.00044367619
-0.0006647921101
-0.001038989507
0.0006542178245
0.00124707531
-0.0006928572111
-0.001776541977
0.0006905693603
0.001896267032
-0.0003918701135
-0.002024334741
0.0003918701135
0.001006086735
0.001018248006
-4.606325439e-05
-0.001006086735
8.854730622e-05
-4.248405182e-05
0.0005012300489
0.000504856686
2.599133929e-05
-0.0005012300646
-2.599131568e-05
0.001006086735
-0.0005048566938
-0.002024334741
0.0002946813081
-0.0002920069816
0.002017206163
0.0003623687167
-0.001763540028
-0.000351488927
0.001625737157
0.0002708297012
-0.001091507549
-0.0002491629993
0.0008950882606
0.0001159433329
-0.0003628510565
-0.0001059676304
0.0002341126887
-5.742874239e-06
2.222574868e-06
-1.012368707e-06
0
0
0
0
0
0
0
0
0
0
0
0
0
0
0
0
0
0
0
0
0
0
0
0
0
0
0
0
0
0
0
0
0
0
-2.170914699e-05
0
7.912938329e-06
3.125347075e-05
1.990286393e-05
-0.0001908007981
-0.0002218353688
0.0001643888071
0.0003752184574
-0.0005738353601
-0.0009876092105
0.0005318774681
0.001212518799
-0.0006618960717
-0.0018158883
0.0006408434348
0.001966784763
-0.0004064736945
-0.002212541319
0.0004157321876
0.002228986369
-8.854730621e-05
-0.002226985282
0.000162780729
0.002226985282
-7.42334228e-05
6.630010236e-05
-0.002226985282
-6.630010238e-05
0.002226985282
0.00027303183
-0.002181008556
-0.0002621667103
0.002114340861
0.0003044246665
-0.00172790937
-0.0002877828371
0.001548076977
0.0002012036146
-0.0009378567207
-0.0001880852818
0.0007346095179
6.788008885e-05
-0.0002264503429
-5.492709102e-05
0.0001181726579
0
0
0
0
0
0
0
0
0
0
0
0
0
0
0
0
0
0
0
0
0
0
0
0
0
0
0
0
0
0
0
0
0
0
0
0
0
-1.923809246e-07
0
0
1.823200005e-07
0
-7.929168899e-05
-8.049257848e-05
5.383777036e-05
0.0001821969015
-0.0003725214286
-0.0006818956694
0.0003132427498
0.0008893745419
-0.0005313073087
-0.001514999486
0.0004799472188
0.001698526909
-0.0004032415207
-0.002105604992
0.0003833960924
0.00218980068
-0.0001644653698
-0.002316079291
0.0001605386643
0.002326755055
6.241597948e-05
-0.0022863102
-5.767220036e-05
0.002244818815
0.0002160798453
-0.002003262212
-0.0001967303292
0.001879268777
0.0002255904033
-0.00139372698
-0.000201930959
0.00120611012
0.0001374254274
-0.0006376026249
-0.0001176850757
0.0004657283954
2.400088163e-05
-8.632283816e-05
-1.459438119e-05
2.376331137e-05
0
0
0
0
0
0
0
0
0
0
0
0
0
0
0
0
0
0
0
0
0
0
0
0
0
0
0
0
0
0
0
0
0
0
0
0
0
0
0
0
0
0
-5.386609271e-06
-1.906862016e-07
8.740818323e-07
1.446718358e-05
-0.0001445170214
-0.0002554225797
9.813020056e-05
0.0003907291631
-0.0003004331117
-0.0008760125415
0.0002393893466
0.001041589286
-0.0002839248023
-0.001469749687
0.000242199026
0.001577213647
-0.000131354289
-0.001771003409
0.0001168038129
0.001792155008
3.667205946e-05
-0.001729962121
-2.911972616e-05
0.001668892282
0.0001322511678
-0.001376309684
-0.0001104106827
0.001247849442
0.0001272168117
-0.0008086758174
-0.0001024592841
0.0006570633792
5.629365531e-05
-0.0002497424521
-3.758546766e-05
0.0001462793979
2.200455278e-07
-6.326124591e-07
0
0
0
0
0
0
0
0
0
0
0
0
0
0
0
0
0
0
0
0
0
0
0
0
0
0
0
0
0
0
0
0
0
0
0
0
0
0
0
0
0
0
0
0
0
0
0
0
-1.074174462e-05
-6.806910181e-06
1.642310497e-06
3.181617806e-05
-8.45066943e-05
-0.0002237007146
4.839828564e-05
0.0003118336344
-0.0001168807961
-0.0005823531307
8.106011661e-05
0.0006606140513
-6.618521782e-05
-0.0008179072003
4.943653581e-05
0.0008390605069
1.090263839e-05
-0.0008028910189
-6.9751628e-06
0.0007597405686
5.124516788e-05
-0.0005584603912
-3.51827169e-05
0.0004752489456
3.664403717e-05
-0.0002200316385
-2.019453779e-05
0.0001452512849
2.011106178e-06
-8.385385163e-06
-5.696469514e-09
9.054669134e-08
0
0
0
0
0
0
0
0
0
0
0
0
0
0
0
0
0
0
0
0
0
0
0
0
0
0
0
0
0
0
0
0
0
0
0
0
0
0
0
0
0
0
0
0
0
0
0
0
0
0
0
0
0
0
-2.514465282e-07
0
0
1.182863629e-06
-1.042607685e-05
-3.252466237e-05
1.627257331e-06
5.044433936e-05
-1.050015865e-05
-9.825125643e-05
3.503061445e-06
0.0001065884261
9.332797801e-07
-9.867422874e-05
-2.569395295e-07
8.595311636e-05
3.810481381e-06
-3.405538086e-05
-3.224006874e-07
1.875703808e-05
0
0
0
0
0
0
0
0
0
0
0
0
0
0
0
0
0
0
0
0
0
0
0
0
0
0
0
0
0
0
0
0
0
0
0
0
0
0
0
0
0
0
0
0
0
0
0
0
0
0
0
0
0
0
0
0
0
0
0
0
0
0
0
0
0
0
0
0
0
0
0
0
0
0
0
0
0
0
0
0
0
0
0
0
0
0
0
0
0
0
0
0
0
0
0
0
0
0
0
0
0
0
0
0
0
0
0
0
0
0
0
0
0
0
0
0
0
0
0
0
0
0
0
0
0
0
0
0
0
0
0
0
0
0
0
0
0
0
0
0
0
0
0
0
0
0
0
0
0
0
0
0
0
0
0
0
0
0
0
0
0
0
0
0
0
0
0
0
0
0
0
0
0
0
0
0
0
0
0
0
0
0
0
0
0
0
0
0
0
0
0
0
0
0
0
0
0
0
0
0
0
0
0
0
0
0
0
0
0
0
0
0
0
0
0
0
0
0
0
0
0
0
0
0
0
0
0
0
0
0
0
0
0
0
0
0
0
0
0
0
0
0
0
0
0
0
0
0
0
0
0
0
0
0
0
0
0
0
0
0
0
0
0
0
0
0
0
0
0
0
0
0
0
0
0
0
0
0
0
0
0
0
0
0
0
0
0
0
0
0
0
0
0
0
0
0
0
0
0
0
0
0
0
0
0
0
0
0
0
0
0
0
0
0
0
0
0
0
0
0
0
0
0
0
0
0
0
0
0
0
0
0
0
0
0
0
0
0
0
0
0
0
0
0
0
0
0
0
0
0
0
0
0
0
0
0
0
0
0
0
0
0
0
0
0
0
0
0
0
0
0
0
0
0
0
0
0
0
0
0
0
0
0
0
0
0
0
0
0
0
0
0
0
0
0
0
0
0
0
0
0
0
0
0
0
0
0
0
0
0
0
0
0
0
0
0
0
0
0
0
0
0
0
0
0
0
0
0
0
0
0
0
0
0
0
0
0
0
0
0
0
0
0
0
0
0
0
0
0
0
0
0
0
0
0
0
0
0
0
0
0
0
0
0
0
0
0
0
0
0
0
0
0
0
0
0
0
0
0
0
0
0
0
0
0
0
0
0
0
0
0
0
0
0
0
0
0
0
0
0
0
0
0
0
0
0
0
0
0
0
0
0
0
0
0
0
0
0
0
0
0
0
0
0
0
0
0
0
0
0
0
0
0
0
0
0
0
0
0
0
0
0
0
0
0
0
0
0
0
0
0
0
0
0
0
0
0
0
0
0
0
0
0
0
0
0
0
0
0
0
0
0
0
0
0
0
0
0
0
0
0
0
0
0
0
0
0
0
0
0
0
0
0
0
0
0
0
0
0
0
0
0
0
0
0
0
0
0
0
0
0
0
0
0
0
0
0
0
0
0
0
0
0
0
0
0
0
0
0
0
0
0
0
0
0
0
0
0
0
0
0
0
0
0
0
0
0
0
0
0
0
0
0
0
0
0
0
0
0
0
0
0
0
0
0
0
0
0
0
0
0
0
0
0
0
0
0
0
0
0
0
0
0
0
0
0
0
0
0
0
0
0
0
0
0
0
0
0
0
0
0
0
0
0
0
0
0
0
0
0
0
0
0
0
0
0
0
0
0
0
0
0
0
0
0
0
0
0
0
0
0
0
0
0
0
0
0
0
0
0
0
0
0
0
0
0
0
0
0
0
0
0
0
0
0
0
0
0
0
0
0
0
0
0
0
0
0
0
0
0
0
0
0
0
0
0
0
0
0
0
0
0
0
0
0
0
0
0
0
0
0
0
0
0
0
0
0
0
0
0
0
0
0
0
0
0
0
0
0
0
0
0
0
0
0
0
0
0
0
0
0
0
0
0
0
0
0
0
0
0
0
0
0
0
0
0
0
0
0
0
0
0
0
0
0
0
0
0
0
0
0
0
0
0
0
0
0
0
0
0
0
0
0
0
0
0
0
0
0
0
0
0
0
0
0
0
0
0
0
0
0
0
0
0
0
0
0
0
0
0
0
0
0
0
0
0
0
0
0
0
0
0
0
0
0
0
0
0
0
0
0
0
0
0
0
0
0
0
0
0
0
0
0
0
0
0
0
0
0
0
0
0
0
0
0
0
0
0
0
0
0
0
0
0
0
0
0
0
0
0
0
0
0
0
0
0
0
0
0
0
0
0
0
0
0
0
0
0
0
0
0
0
0
0
0
0
0
0
0
0
0
0
0
0
0
0
0
0
0
0
0
0
0
0
0
0
0
0
0
0
0
0
0
0
0
0
0
0
0
0
0
0
0
0
0
0
0
0
0
0
0
0
0
0
0
0
0
0
0
0
0
0
0
0
0
0
0
0
0
0
0
0
0
0
0
0
0
0
0
0
0
0
0
0
0
0
0
0
0
0
0
0
0
0
0
0
0
0
0
0
0
0
0
0
0
0
0
0
0
0
0
0
0
0
0
0
0
0
0
0
0
0
0
0
0
0
0
0
0
0
0
0
0
0
0
0
0
0
0
0
0
0
0
0
0
0
0
0
0
0
0
0
0
0
0
0
0
0
0
0
0
0
0
0
0
0
0
0
0
0
0
0
0
0
0
0
0
0
0
0
0
0
0
0
0
0
0
0
0
0
0
0
0
0
0
0
0
0
0
0
0
0
0
0
0
0
0
0
0
0
0
0
0
0
0
0
0
0
0
0
0
0
0
0
0
0
0
0
0
0
0
0
0
0
0
0
0
0
0
0
0
0
0
0
0
0
0
0
0
0
0
0
0
0
0
0
0
0
0
0
0
0
0
0
0
0
0
0
0
0
0
0
0
0
0
0
0
0
0
0
0
0
0
0
0
0
0
0
0
0
0
0
0
0
0
0
0
0
0
0
0
0
0
0
0
0
0
0
0
0
0
0
0
0
0
0
0
0
0
0
0
0
0
0
0
0
0
0
0
0
0
0
0
0
0
0
0
0
0
0
0
0
0
0
0
0
0
0
0
0
0
0
0
0
0
0
0
0
0
0
0
0
0
0
0
0
0
0
0
0
0
0
0
0
0
0
0
0
0
0
0
0
0
0
0
0
0
0
0
0
0
0
0
0
0
0
0
0
0
0
0
0
0
0
0
0
0
0
0
0
0
0
0
0
0
0
0
0
0
0
0
0
0
0
0
0
0
0
0
0
0
0
0
0
0
0
0
0
0
0
0
0
0
0
0
0
0
0
0
-0.0004897494373
0.0004897839865
-9.29181055e-05
-0.0001312917103
0.0004910105549
0.0001315506272
-0.0002476735448
-0.0002435959269
0.00013503582
-0.0004062193561
-0.0001332768499
-0.000588111744
-9.254034701e-05
0.000292591208
0.000295413516
-0.0001290545816
0.0005925874363
0.0001293976549
-0.0002980162209
-0.0002949142887
-0.0001304297547
-0.0002543735641
-0.0002510901482
-0.0006895600141
-9.245147673e-05
0.0003432526508
0.0003462485364
-0.0001279589229
0.0006919705672
0.0001275829006
-0.0003472407176
-0.0003443538272
-0.0001287928565
-0.0003036468442
-0.0003012327771
-0.0007902797445
-9.231162168e-05
0.0003935505315
0.0003966273844
-0.0001254711464
0.0007907024929
0.0001260767026
-0.0007913080491
-0.0007055928935
-0.0001275457976
-0.0004471496465
0.0004471531628
-4.787497005e-05
0.0002239266387
-2.787150216e-06
2.861067989e-06
-0.0002240005564
-0.0002231363146
0.0004464958868
8.467524197e-06
-0.0001239758301
0.0008885247694
0.0001240778899
-0.0008886268292
-0.0008040449729
-0.0001250977891
-0.0004985350661
0.0004985350661
-4.606325439e-05
0.0004985351099
-7.626573678e-06
7.626631794e-06
-0.000498535168
-0.0002245622608
-2.52971563e-06
0.0009934493648
-0.0004546200883
-1.255186872e-05
-1.750958576e-06
-0.0002186956003
0.001947336749
-0.0009901389593
-0.0009716418845
0.000110217664
0.0001229220315
-0.0008999745387
-0.0001238550597
-0.000395607191
0.0003953077553
-9.42125414e-05
1.10486732e-05
-0.0002918388648
-1.092474556e-05
0.000393666065
0.0001341715188
-0.0003928017639
0.0001363194069
-0.000301632916
-0.0001396658098
-1.994851597e-05
0.0001124853504
1.996659604e-05
-0.0001125034304
0.0002035071488
4.152710086e-05
-0.0002040132386
-4.102101105e-05
0.0004907983034
0.000144998555
-0.0004734181137
0.0009666454305
0.0004744973995
-0.000968012415
0.0004697658606
-0.0008166392006
-0.0004710306116
-0.001160128067
0.001163978902
-0.0004020825902
0.0001068205289
-0.0001068211307
-0.0005881111423
-0.0001070313058
-0.0005016341187
0.0001069702146
-2.209326092e-05
0.0001367221604
2.200394866e-05
-0.0001366328482
2.010273065e-05
0.000125304404
-0.0001253761113
-2.003102337e-05
0.0005923939957
0.0001436767924
-0.0004712316721
0.00116943155
0.0004719910762
-0.00117024666
-0.001019773277
-0.0004729485437
-0.001364472235
0.001366631839
-0.000399681887
0.0001066174971
-0.0001066189904
-0.0006895585207
-0.0006006871481
0.0001068161056
9.267366659e-05
-0.0006393282578
-9.26789509e-05
0.0003180258198
0.0003213077223
2.361642938e-05
0.000161041956
-2.354930473e-05
-0.0003212975396
0.000160188459
-2.350975063e-05
0.0001486828767
-0.0002984802479
2.360679923e-05
0.0001497003227
-1.937006339e-05
0.0001621913315
1.947669436e-05
-0.0001622979625
2.048970619e-05
0.0001499629389
-0.000149542473
-2.091017209e-05
0.0006919287336
0.0001421332417
-0.0004640358033
0.001363084676
0.0004671675942
-0.001368754339
-0.001218635086
-0.000470294995
-0.001567383182
0.001567965923
-0.0003979214501
0.0001064348733
-0.0001064410113
-0.0007902736065
-0.0007022056789
0.0001065780281
9.220605953e-05
-0.0007401462524
-9.238676284e-05
0.000368637415
0.0003716895407
1.132316959e-05
0.0001863063717
-1.131868595e-05
-0.0001863108554
-2.355443323e-05
0.0001743677335
-0.0003495413773
2.350603422e-05
0.0001752220429
-3.654164949e-05
0.0003724934095
3.671897091e-05
-0.0003726707309
3.743159852e-05
0.000351311181
-3.665601425e-05
-0.0001766276042
-0.0001754591612
-0.001770524242
-0.000397801437
0.0008790332894
0.0008916337155
0.0001064543705
0.0004443565448
-0.0001063028759
-0.000891657686
-0.0008031165748
0.0001064336632
4.788877823e-05
-0.0004222945837
0.0004223455657
-4.793976022e-05
1.105326231e-05
0.0002117183253
-1.116502702e-05
-0.0002116065606
-1.125019612e-05
0.000199385488
-0.000199390354
1.125506209e-05
-0.0002133491019
-5.154228917e-06
0.0002127462587
5.757072126e-06
-3.522524974e-05
0.0004223672585
3.515354928e-05
-0.000422295558
3.602808729e-05
0.0004006309206
-0.0004006568251
-3.600218273e-05
-0.001917920849
-0.0003928889167
0.0009254902874
0.0009934493648
0.0001028689176
0.0004949142987
-0.0001028689176
-0.0009934493648
0.0004539432685
-0.0009038249778
0.0001064476239
4.78626905e-05
-0.000472519183
0.0004724770988
-4.782060628e-05
1.122000611e-05
0.0002358205702
-1.084261944e-05
-0.0002361979569
-1.080560542e-05
0.0002238592447
-0.0002239589323
1.090529304e-05
-0.001094536586
0.001094536586
-8.854730622e-05
0.001094536586
-1.167362735e-05
1.167362734e-05
-0.001094536586
-0.0005012300998
-7.626538488e-06
-2.002704166e-05
-0.0002248498099
2.022387519e-05
0.0001117863761
0.0001128666002
1.996407449e-05
-0.000246267343
-1.994547486e-05
0.0001228737421
0.0001233750013
-0.0002037888998
-2.379115232e-05
2.431136084e-05
0.0002032686913
-0.0002222858483
0.0002224491844
-2.019037776e-05
0.0001245063904
2.012438448e-05
-0.0001245280442
0.0001129523242
-0.0001130602558
-1.984058442e-05
0.0001323006051
0.0004546609497
-0.0001318270417
-0.0002296098224
-0.0002255246907
4.335069253e-05
-0.0001134917164
-4.294473783e-05
0.0002260380859
-2.091332022e-05
0.0001244956976
2.092401301e-05
0.0001478529873
-2.338388085e-05
-0.0002953355623
0.0001473567052
0.000273740575
-2.345613451e-05
-0.0002737606935
2.347625304e-05
-9.272525034e-05
-0.0005509397195
9.272911895e-05
0.0005509358509
-1.987055977e-05
2.003030712e-05
0.0001364472392
0.0001371335885
1.044800911e-05
0.0001478574869
-1.045250869e-05
-0.0002491421121
2.007680744e-05
0.0001240554376
0.0001249739416
-0.0002708699304
-1.994161255e-05
0.0001351699558
0.0001357710274
0.0001489011153
2.003944109e-05
-0.0001484508502
0.0001380410223
-0.0001378595157
-2.22747675e-05
6.677399325e-05
0.0002762735256
-0.0002763405233
-6.67069955e-05
2.270292613e-05
-2.273152757e-05
0.0001380696238
-2.104131689e-05
0.0001491740708
2.076836145e-05
-2.08556195e-05
0.0001252467033
0.0001368251979
2.259988869e-05
0.0002727028743
6.678313575e-05
-0.0002727120168
0.0001734766271
-2.345922427e-05
-0.0003462059657
0.0001726341296
0.0001619608739
-0.0003247505506
2.352025231e-05
0.0001628858538
-0.0006522070943
9.24929835e-05
0.0003246727329
0.0003277150446
-1.047189772e-05
1.045385462e-05
0.000161978917
1.043865847e-05
0.0001734712273
-1.043325868e-05
1.046159972e-05
0.000148669286
0.0001610300706
-1.046001234e-05
0.0003476963997
3.73839148e-05
-0.0001742195299
-0.0001734291861
0.0001628710846
-0.0001628458969
-1.939525116e-05
0.0001278361897
0.0006542039935
-0.0001278449464
-0.0003284225234
-0.0003257727134
4.135997993e-05
-0.000163178203
-4.108238859e-05
0.0003257716963
-4.085042481e-05
0.0003476302538
4.091657071e-05
-2.130883479e-05
0.0001502304568
-0.0001611427229
0.0003229244288
2.037563326e-05
2.139397226e-05
0.0006418673965
0.0001284256609
-0.0003227429839
-0.0003197138837
0.0001985774803
-1.127123305e-05
-0.0001985564434
0.000187060761
-0.0001870267651
1.128917363e-05
-0.0007522003129
9.240684189e-05
0.0003746028506
0.00037739668
-1.042943696e-05
1.047843038e-05
0.0001870117676
1.02766428e-05
0.0001985558497
-1.025501215e-05
1.042633734e-05
0.0001743800546
0.0001863268961
-1.044996138e-05
0.0003977305048
3.610021902e-05
-0.0003978026365
0.0003759331435
-0.0003759509745
-3.652381845e-05
0.0002237723552
-1.07390608e-05
-0.0002238388998
0.0002123945422
-0.0002124432963
1.110201643e-05
-0.0004253361061
4.78809311e-05
0.0004253439533
3.054053408e-06
0.0002126801237
-0.0002120025309
-3.731646158e-06
-9.994869325e-06
1.003448153e-05
0.00021235493
9.911297315e-06
0.0002236198542
-9.758796324e-06
1.032601642e-05
0.0001993361144
0.0002117697366
-1.004628061e-05
4.191559512e-06
-0.000214486608
-6.648286533e-05
0.0008886258573
6.647572724e-05
-0.0004455929727
-0.0004430257465
0.000425123958
-0.0004250269876
-3.532222018e-05
-5.145891478e-06
0.0002126717863
0.0005026346012
2.236058497e-05
-0.0005004176531
-1.322641976e-05
-1.135111328e-05
0.0002366417196
-0.000236806045
1.138433153e-05
-0.0004755143186
4.795499647e-05
0.0004754220126
5.549154966e-07
0.0004701890004
-0.0004705994754
-1.444404435e-07
-9.789597946e-06
9.948875357e-06
0.0002364824422
1.739726658e-05
0.0005025439283
-1.042792689e-05
-6.878666821e-06
1.008967474e-05
0.0002236808672
-9.496547284e-06
0.0002355275195
0.000467445558
1.238448722e-06
-0.0004681290913
-0.000959287105
0.000965663801
-0.0004057706572
-0.0001070919385
-0.0004896888047
-0.0001085494521
-0.0004081477719
0.0001080463726
9.347693606e-05
-0.0004417707047
0.0004417104613
-9.341669275e-05
2.362984174e-05
-2.365108393e-05
-0.0002222646061
-2.461345847e-05
-0.0002044573816
2.528194026e-05
-2.29057426e-05
0.0001051045346
6.449852322e-06
-8.864864427e-05
0.0001039219736
1.531187726e-05
-0.0001053134932
-1.392035762e-05
-0.0005386020913
0.0005386766781
-9.279983713e-05
-2.346892456e-05
-0.0002708571404
-2.356019274e-05
-0.0002491432724
2.356135309e-05
-5.979322568e-05
0.0001823778718
2.672777165e-05
-0.0001493124178
0.000790390336
0.0001405745258
-0.0004444022401
0.001542174963
0.0004511877706
-0.001567780722
-0.001419335326
-0.0004610677205
-5.774891619e-05
0.0002062885249
2.11877336e-05
-0.0001697273423
-2.140108869e-05
0.0004101197769
2.169492178e-05
-0.0002055773949
-0.0002048362151
1.14153126e-05
0.0002000276977
-0.0002000004417
-1.144256857e-05
-5.598527724e-06
0.0004670563544
5.987731399e-06
-7.017392166e-05
0.000935177249
6.835949248e-05
-0.0009333628198
0.0009002124841
-6.655394127e-05
-0.0004514389533
-0.0004487024548
-2.354440535e-05
-0.0002462831304
-0.0002248642392
2.364427103e-05
-0.0004517238633
9.317374431e-05
0.0004520270551
-3.450640794e-06
-0.0001184773541
3.215930173e-06
0.0001187120647
-0.0001047261533
-7.387471783e-06
5.983496217e-06
0.0001061301288
-0.0001066544817
4.737903547e-06
0.000106875865
-4.959286825e-06
4.638098538e-05
-4.467316713e-05
0.0002017993305
-0.0001112643388
0.0002233093071
4.379107456e-05
0.0004415842431
0.000131382198
-0.000222046188
-0.000218619648
0.0001995929844
1.158199716e-05
-0.000199759669
1.369789353e-05
0.0001942464658
-0.0001948291599
-1.311519948e-05
0.0001269466427
0.0007534496385
-0.0007538080152
-0.000126588266
4.032390691e-05
-4.015480793e-05
0.0003757640445
-3.968412676e-05
0.0003975951479
3.98194836e-05
-4.060002352e-05
0.0003510607798
0.0003724820944
4.0335222e-05
0.0007419285103
0.0001271242176
-0.0007421060852
5.103269493e-06
0.0002192098926
-0.0002199546548
-4.358507298e-06
-0.0002285987362
4.022630961e-08
0.0002285167032
4.180664073e-08
-2.358489315e-06
0.000457280082
2.591755808e-06
-0.0002288909629
-0.0002286223856
0.000169334015
6.382531901e-06
-0.0001693557297
-6.360817272e-06
-0.0003721069642
-4.41221576e-05
2.67695095e-05
2.491898838e-05
0.0001790921617
0.0001854484621
-0.0001986696035
0.0002028479889
-2.796953772e-05
0.0001997673058
4.176043911e-05
-0.0002000006441
0.0003629705381
8.590218874e-05
-0.000183424603
-0.0001721942416
-4.481550258e-05
-4.843837967e-05
1.404940697e-05
-1.43348427e-05
0.0001696194508
0.000132581604
-0.0001554873466
4.006028949e-05
0.0002150444388
-3.970315999e-05
-0.0001080264198
-0.0001073751485
1.57173866e-05
8.700532884e-06
0.0001081636845
1.500896959e-05
-1.435104164e-05
0.0001032640456
0.0001073825541
1.3439367e-05
0.0002110503078
3.935650057e-05
-0.0001057319639
-0.000104614555
1.920735962e-05
0.0001312478925
-0.0001312632368
-1.919201537e-05
0.0001307755463
1.929799143e-05
-0.0001308661781
1.91453663e-05
0.0001568964618
-0.0001567993805
-1.924244762e-05
0.0001566407075
1.940085214e-05
-0.0001568961933
0.0001864036828
-1.369439702e-05
1.232626659e-05
-0.0001850355524
0.0001860931965
-0.0002368066006
-9.079821557e-06
3.700290912e-05
0.0003629592304
-0.0003629668588
-3.699528075e-05
1.621901511e-05
-1.357007324e-05
0.0001834442546
-1.450726296e-05
0.0001867904416
1.412050416e-05
1.45255511e-05
-2.689498471e-05
0.0001732814895
-0.0001609120559
0.0001813253375
1.727154936e-05
0.0003600912558
3.706188727e-05
-0.0001804147781
-0.0001797354559
0.0002060137984
-1.139379426e-05
-0.000206028705
1.140870084e-05
-3.39255411e-05
-0.000412454666
3.394799812e-05
0.000412432209
3.392270509e-05
-0.0004223003625
0.0004223501618
-3.397250438e-05
-2.053454759e-05
0.0004223194117
2.070439156e-05
-0.0004224892557
0.0004131128294
-2.107989573e-05
-0.0002071739025
-0.0002062601198
-0.0002656952609
-2.489733775e-06
0.0002104360785
-1.193514721e-05
0.0002307732788
-0.0002309016273
1.206349566e-05
-3.396847639e-05
-0.0004627987414
3.402273598e-05
0.0004627444818
3.40285482e-05
-0.000472440466
-3.382178724e-05
0.0002356841578
0.0002365495472
-3.39633065e-05
-0.0004497139565
3.405957143e-05
0.0004496176916
-0.0004596069248
0.0004595866566
-3.394820816e-05
0.0002295207169
-1.172603247e-05
-0.0002297298316
-0.0001141399054
-4.434404972e-06
-2.366942378e-05
0.0001422437342
-0.0001172205205
-3.350481331e-06
0.000117120361
2.012551068e-05
-0.000234210942
-2.00500535e-05
0.0001164932346
0.0001176422502
4.411170313e-06
-4.259010781e-06
-0.00011737268
-4.330976725e-06
-0.0001133382764
3.529347664e-06
2.496564096e-06
4.298321167e-06
-0.0001234519677
0.0001166570824
-0.0001185607687
4.494584926e-06
-0.0002376006807
1.98538678e-05
0.0001186823992
0.0001191899244
2.066091288e-05
-0.0002135631075
0.0002136695727
-2.076737803e-05
4.893278923e-06
-4.76313113e-06
-0.0001067846295
-1.054846101e-05
-0.0001014888739
7.31118163e-06
0.0001125012842
-4.642908106e-06
-0.0001121893528
0.0001071772459
-0.0001072691746
4.985207654e-06
-0.000215054797
2.054562214e-05
0.0002151700877