/*--------------------------------*- C++ -*----------------------------------*\
| =========                 |                                                 |
| \\      /  F ield         | OpenFOAM: The Open Source CFD Toolbox           |
|  \\    /   O peration     | Version:  v1912                                 |
|   \\  /    A nd           | Website:  www.openfoam.com                      |
|    \\/     M anipulation  |                                                 |
\*---------------------------------------------------------------------------*/
FoamFile
{
    version     2.0;
    format      ascii;
    class       volScalarField;
    location    "0.36";
    object      nut;
}
// * * * * * * * * * * * * * * * * * * * * * * * * * * * * * * * * * * * * * //

dimensions      [0 2 -1 0 0 0 0];


internalField   nonuniform List<scalar> 
12556
(
1.15589181
1.155862481
1.155831844
1.155805602
1.156026876
1.156020103
1.156025143
1.156042755
1.156078612
1.156144011
1.156243704
1.156362914
1.156449196
1.15647033
1.156413694
1.156307888
1.156202224
1.156129815
1.15606996
1.156046988
1.155822989
1.155830282
1.155853926
1.15588223
1.155155692
1.155068431
1.154978722
1.154907052
1.155109991
1.155104721
1.155144363
1.155330664
1.155501265
1.155808349
1.156277993
1.156845859
1.157301282
1.157436671
1.157202229
1.156707163
1.156190067
1.155772572
1.155398272
1.155236688
1.154939571
1.154972962
1.155040697
1.155120392
1.15438501
1.154236514
1.15409004
1.153988066
1.154196705
1.154219935
1.154324099
1.154634203
1.155063528
1.155815435
1.156925063
1.115541121
1.009300251
0.9962445533
1.061364752
1.157813453
1.156611729
1.155691406
1.15490543
1.15453129
1.154129271
1.154121279
1.154215191
1.154349622
1.153600755
1.153398161
1.153205973
1.153087134
1.153297243
1.153384423
1.153609812
1.154164216
1.155072996
1.156721086
0.9535736032
0.7654263334
0.6866081292
0.6886782175
0.7588922069
0.8914960833
1.104135759
1.156208907
1.154774895
1.154023912
1.15335954
1.153311624
1.153404163
1.153572397
1.1527907
1.152530929
1.152301095
1.152188961
1.152437898
1.152626225
1.153100055
1.154014454
1.155845808
0.9339728248
0.6450309986
0.4766017257
0.4072109966
0.4244664372
0.50408681
0.6297155337
0.8168508546
1.108593716
1.1552159
1.153802444
1.152744014
1.152532737
1.152591094
1.152788854
1.151984223
1.151681463
1.151426625
1.151330045
1.151630148
1.151975951
1.152831052
1.154327113
1.103739475
0.7042521566
0.4353399539
0.2680573288
0.2021768228
0.2315723953
0.3200588626
0.4442993337
0.6130185974
0.8666443468
1.156408332
1.153931783
1.152277077
1.151810672
1.151789199
1.151985153
1.151165534
1.150819843
1.150551392
1.150494477
1.150885964
1.151447989
1.152795845
1.155151555
0.9480753586
0.5742038771
0.3171559065
0.1360980439
0.07200091843
0.1116656379
0.2051151882
0.3247246735
0.479872664
0.6994322433
1.066796979
1.154495399
1.151931285
1.151124479
1.150972749
1.151146448
1.150371313
1.149996647
1.149730758
1.14972247
1.150227433
1.15106224
1.153033812
1.156317555
0.879082745
0.5465320839
0.3118879709
0.1197461337
0.0606032253
0.1493545479
0.2597308847
0.4016088373
0.59888257
0.9381698743
1.155433755
1.151762172
1.150516581
1.150177034
1.150300888
1.149596097
1.149192806
1.148936682
1.149005682
1.149683849
1.150827402
1.153493944
1.157602974
0.8796221259
0.6049429969
0.4449437631
0.3436386866
0.06930229506
0.1417954558
0.2372078817
0.365992281
0.5452397008
0.8615121135
1.156607335
1.15175683
1.149984101
1.149412715
1.149471055
1.148894308
1.148472763
1.148235344
1.148412175
1.149226797
1.150735695
1.154103266
1.158865034
0.9121378552
0.6903876151
0.6175149739
0.6914916004
0.09448894008
0.1571861307
0.2432671996
0.3621930661
0.5277618675
0.8229456063
1.157911804
1.151946388
1.149607118
1.148765298
1.148735659
1.148226862
1.147787871
1.147584716
1.147912389
1.148830154
1.150767718
1.154803649
1.160032554
0.9457866112
0.7495656221
0.7077265275
0.6036160729
0.1284564427
0.1868499564
0.2691703672
0.3827562855
0.5396715941
0.8189867641
1.159203337
1.152284467
1.149374439
1.148252054
1.148127179
1.147657769
1.147211247
1.147042638
1.147501205
1.148511649
1.150889413
1.155540936
1.161097133
0.9699875303
0.7657427064
0.6835757078
0.5119503098
0.1664993115
0.2291914123
0.3138933653
0.4260832003
0.5791880284
0.8452468571
1.16039108
1.152815849
1.149350941
1.14795621
1.147732385
1.147123804
1.14666857
1.146560463
1.147169111
1.148293412
1.151052569
1.156242562
1.162040869
0.9950244663
0.7639415161
0.6122078118
0.4437912857
0.08439014053
0.2144226307
0.2924051067
0.3844699308
0.4978451155
0.6536119739
0.8997359527
1.161469502
1.153400084
1.149462734
1.147821696
1.147512254
1.146691203
1.146231892
1.146175491
1.146892323
1.148231876
1.151451003
1.157137508
1.162885909
1.04416429
0.7914626107
0.5834369828
0.2738522715
0.1431386945
0.3183066934
0.4078829013
0.4997729882
0.6069625568
0.7540910915
0.9803086131
1.162358065
1.154023069
1.149736761
1.147877046
1.147491737
1.146276725
1.145807222
1.145797277
1.146633553
1.148157745
1.151707927
1.157714243
1.163300026
1.157400444
0.9010891266
0.6867908604
0.06549453257
0.2110292289
0.500643422
0.6291055134
0.6874678137
0.7721017598
0.9007705435
1.110854526
1.163038326
1.154586239
1.150026343
1.148011342
1.147585311
1.145945375
1.14546614
1.145488829
1.146417347
1.148091594
1.151911669
1.158139898
1.163352949
1.156395856
1.10794496
0.8409644508
0.03923091193
0.2284860304
0.5089067543
0.7674429625
0.9576325413
1.005646671
1.097644249
1.16196692
1.163454491
1.155066668
1.150343873
1.148233124
1.147768021
1.145592214
1.145094366
1.145135061
1.14616088
1.148001136
1.152028544
1.158366781
1.163044099
1.15499414
1.102768157
0.811441654
0.04044802152
0.2236097277
0.5019658264
0.760254181
0.9546310523
1.075284526
1.135977765
1.162049805
1.163583156
1.155392753
1.1505856
1.148414249
1.147939825
1.145302907
1.144787573
1.144828441
1.145909882
1.147860945
1.152036465
1.158361384
1.162341116
1.152532492
1.095760945
0.7911506904
0.04870542368
0.21053161
0.4881347947
0.7523379707
0.9525933677
1.07472478
1.135457557
1.16163926
1.163418785
1.15556282
1.150758742
1.148589155
1.148118527
1.144958605
1.144419414
1.144445666
1.145581602
1.147657625
1.151926354
1.158120652
1.161243679
1.148920026
1.08389078
0.7544819606
0.05423905668
0.2044668196
0.4799427862
0.7508279393
0.9520044782
1.073419163
1.134354216
1.160876897
1.163011209
1.155546256
1.1507958
1.148659541
1.148202125
1.144672505
1.144115998
1.144116052
1.145258666
1.147386511
1.15170069
1.157661427
1.159808749
1.144623612
1.067665039
0.6868936142
0.04903342023
0.2112875327
0.4814153158
0.7504303123
0.9508156885
1.071657803
1.1328732
1.159856345
1.162412041
1.155438592
1.150802131
1.148715039
1.148268165
1.144308822
1.143734426
1.143703899
1.14485883
1.147057737
1.15137138
1.157009491
1.158087343
1.139715903
1.049282718
0.6206935417
0.04503368908
0.218600067
0.4829766916
0.7481232901
0.9489982101
1.069597326
1.13115596
1.158653866
1.161674245
1.155191666
1.15068328
1.148650925
1.148214501
1.144010067
1.143429105
1.143369065
1.144498021
1.146686354
1.150959452
1.156196186
1.156121602
1.134221961
1.028243035
0.5669095317
0.04346843371
0.2250725634
0.4844037264
0.7448690908
0.9463094528
1.067275516
1.129285688
1.157330825
1.160844687
1.154924764
1.150578531
1.148597648
1.148161939
1.143617928
1.143032713
1.142949419
1.144075983
1.146294597
1.150490495
1.155254726
1.15394418
1.128107705
1.002796221
0.5244630724
0.04352730849
0.2308776291
0.4856814653
0.7414362034
0.9427206652
1.064640314
1.127291669
1.155931077
1.159962438
1.154560818
1.150362632
1.148425873
1.14798742
1.143304805
1.142727199
1.142628665
1.143725773
1.145895708
1.149986962
1.15421302
1.151567297
1.121188881
0.9723955423
0.489759444
0.04456769746
0.2361104123
0.48678746
0.7381122184
0.9385238996
1.061653461
1.125172934
1.154480567
1.159054049
1.154231409
1.150204706
1.148303906
1.147852505
1.142885436
1.142316894
1.142211635
1.143312891
1.145502187
1.14946231
1.153085641
1.148971068
1.11310868
0.9395851389
0.4604151975
0.04608063033
0.2408763978
0.4877601482
0.7349572906
0.9340460876
1.058354352
1.122929196
1.152993958
1.15813508
1.153818277
1.149935555
1.148061569
1.14759494
1.142561968
1.142012669
1.141909423
1.142990401
1.145113484
1.148920797
1.151873794
1.146114902
1.103505454
0.9072358258
0.4352117271
0.04783777657
0.24528259
0.488635859
0.7319635745
0.9294954927
1.054829753
1.120574191
1.151481261
1.157213888
1.153477336
1.149763653
1.147910322
1.147420378
1.142124045
1.141592876
1.14149675
1.142590168
1.144733797
1.148361231
1.150571303
1.142938124
1.092257403
0.8766697308
0.4133828259
0.04971297899
0.2493759348
0.4894278623
0.7291118751
0.9249843849
1.051168521
1.118131254
1.149951434
1.156295862
1.153045355
1.149468144
1.147628835
1.147115836
1.141795773
1.141291342
1.141210861
1.142294223
1.144356394
1.147780272
1.149167147
1.139372426
1.079542802
0.8481427605
0.3943151405
0.05174805479
0.2531981162
0.490156449
0.7263979119
0.9205736243
1.047441232
1.115625285
1.148412926
1.155384778
1.152717394
1.149305565
1.147476739
1.146934723
1.141354829
1.14087311
1.14080794
1.141904966
1.14398483
1.147173341
1.147646331
1.135359076
1.065709738
0.8215701352
0.3775860119
0.05397341017
0.2568169694
0.4908912614
0.7238331693
0.9162986307
1.043700285
1.113079956
1.14687352
1.154483591
1.152281004
1.149001507
1.147180153
1.146611668
1.141020777
1.140570304
1.140530673
1.141628032
1.143610502
1.146535587
1.145990626
1.130838227
1.051119105
0.7967909111
0.3628217772
0.05640995509
0.2602984928
0.4916583257
0.7214281812
0.9121797891
1.039983962
1.110515895
1.145339441
1.153594876
1.15197569
1.148856624
1.14704117
1.146440984
1.140599637
1.140173316
1.140153013
1.141255967
1.143238023
1.145861379
1.144178841
1.125788782
1.036075946
0.773642808
0.3496883309
0.05907696323
0.2636775109
0.4924624955
0.7191871398
0.9082301647
1.036321602
1.107951083
1.143815661
1.152719038
1.151549675
1.148564151
1.146754779
1.14612807
1.140243546
1.13985184
1.139864447
1.140979566
1.142858148
1.145145621
1.142191385
1.120217342
1.020815182
0.751983938
0.3378853273
0.06198987664
0.266971696
0.4932998437
0.7171134259
0.9044611354
1.032737221
1.105401445
1.142306471
1.151859192
1.151259413
1.148427132
1.146623606
1.145964323
1.139880322
1.139511849
1.139545478
1.140650864
1.142475871
1.14438264
1.140010822
1.114148659
1.00551003
0.7316917771
0.327209727
0.06515071676
0.2701967486
0.4941908282
0.7152162349
0.900884545
1.029250476
1.102880267
1.140816113
1.151012513
1.150879273
1.148184532
1.146388179
1.145705669
1.139465151
1.139134604
1.139206083
1.140329315
1.142085132
1.14356985
1.137624865
1.107622551
0.9902836985
0.7126544653
0.3175400066
0.06855494405
0.273372742
0.4951547765
0.7135104312
0.8975126007
1.025878179
1.100400845
1.139352162
1.150188805
1.150555444
1.148014494
1.146227812
1.145512151
1.139214052
1.138903985
1.138996049
1.140106939
1.141692922
1.142709621
1.135048612
1.100684435
0.9752039471
0.6947272994
0.3086703931
0.0721730284
0.2765226112
0.4962129556
0.7120076902
0.8943539786
1.022633254
1.097973394
1.137934567
1.149389908
1.150313581
1.147887444
1.146109363
1.145376874
1.138701514
1.138439344
1.138579063
1.139690001
1.141326208
1.141826485
1.132369203
1.09341178
0.9604013743
0.6779278109
0.3005245935
0.07599199844
0.2796584411
0.4973766791
0.710719964
0.8914185519
1.01952904
1.095606452
1.136629113
1.148677066
1.14991242
1.147695806
1.145939222
1.145170126
0.2910359136
0.06125538035
0.05290965421
0.7018606866
0.0855058943
0.06400806764
0.6149846112
0.1204490318
0.08959339616
0.5218604907
0.152834037
0.1256794269
0.4497927824
0.06301894841
0.0792668506
0.1880175895
0.1568669018
0.3080964227
0.1027627725
0.06486991026
0.1286451495
0.2553888442
0.1912359596
0.1150367894
0.0739609385
0.05491581092
0.1056182838
0.03109264593
0.022385608
0.06699128025
0.1202815784
0.1279758744
0.5783175779
0.7181187861
0.3565250179
0.05090070553
0.05001459973
0.09112325149
0.1339537403
0.1218725987
0.6972774425
0.7164695015
0.7435747622
0.6596253282
0.2290511128
0.2696997283
0.0811810852
0.06127054287
0.1241149036
0.1621167467
0.1399196981
0.695374597
0.6309888137
0.7062730268
0.5691067768
0.1353000505
0.1842530512
0.1301682831
0.1053604062
0.6278687734
0.5401272531
0.6208701381
0.4931731245
0.07358089141
0.100908807
0.0257264624
0.1436181885
0.1378101318
0.5775877094
0.3665579121
0.5281127602
0.4004145126
0.02708753916
0.04535077623
0.2422774941
0.1576450809
0.1171453461
0.09336962237
0.2899154159
0.04208461433
0.08270449539
0.04847491132
0.0323964124
0.05409274122
0.03423299413
0.04684978241
0.2756540646
0.3215036748
0.6286761747
0.2436954077
0.2151274534
0.3030350572
0.249146046
0.0607963884
0.05065792635
0.07535081675
0.07142040984
0.07821321754
0.04789565485
0.07035118256
0.0738465666
0.1880225926
0.2233959143
0.6486395172
0.1692315746
0.1368155071
0.212349549
0.1719776182
0.1011270216
0.08284014761
0.1072675506
0.09938977192
0.1174756828
0.07880875763
0.09618038917
0.1026083184
0.1025196414
0.1332778943
0.5576327253
0.1045537332
0.07617734594
0.1350246774
0.1061529724
0.1368909899
0.1310065867
0.04629637067
0.0717054933
0.4900775734
0.0174224057
0.04906491695
0.02891039331
0.07501888798
0.05063476633
0.0149074226
0.1489085325
0.1449889284
0.02913010458
0.004710676574
0.02674237032
0.393845119
0.08669573872
0.01693187878
0.009022888672
0.02857612745
0.01726168397
0.08520252899
0.4018214781
0.309167299
0.1414806677
0.1610952022
0.09287297195
0.05029951341
0.01522826544
0.009536107147
0.5484899021
0.3280792677
0.3266402856
0.009858939569
0.1592024161
0.199649989
0.1707039643
0.009646330942
0.08678735107
0.07653549591
0.09841150535
0.1646141051
0.1523312778
0.2647353294
0.1048197755
0.1849167978
0.04352121757
0.01562431106
0.02730871534
0.02568544092
0.03251312789
0.0528787475
0.07434598206
0.05498586767
0.1410802726
0.1300111282
0.1385298267
0.1187406942
0.1287413157
0.1376189023
0.04220011048
0.01143409014
0.07701690326
0.02918166751
0.05090409775
0.04081901326
0.02285700639
0.03665701803
0.02781059667
0.01378961771
0.02522815346
0.02209483716
0.01146810161
0.01812328082
0.02392607877
0.06361767348
0.06303982473
0.0715740945
0.07018413067
0.02677335341
0.01185919902
0.1229331471
0.02272318383
0.04315548642
0.01076991237
0.01920740513
0.1183606345
0.08875709002
0.2720581922
0.2556791434
0.1074732728
0.09212974339
0.0102022613
0.04041551892
0.1871216967
0.1721342215
0.2080366737
0.1932376557
0.04080377685
0.05622635085
0.04390936938
0.1417677579
0.07368996529
0.07637607715
0.04056514423
0.07288761481
0.1626680552
0.05188134735
0.02893457338
0.01813121837
0.06452130311
0.03199834374
0.05741946613
0.03017390671
0.08073535997
0.03975241301
0.03952501887
0.2356294762
0.02960805725
0.2342807683
0.2783507587
0.03411719661
0.03932029341
0.03011284756
0.033494646
0.2707772556
0.05880518818
0.0584274156
0.07542861518
0.07127320943
0.06654510497
0.07799116725
0.07287847603
0.07574248231
0.05779358727
0.05905751487
0.05403303112
0.06485330792
0.06043268933
0.05942214992
0.1530776209
0.1509891417
0.1932515362
0.1907286441
0.09621951015
0.01047070733
0.09452012969
0.09373608897
0.09170801459
0.119773112
0.1178209244
0.04613979211
0.06695104937
0.1349472853
0.05132207547
0.0289336164
0.06226776744
0.2290695368
0.2134803669
0.2502324927
0.2343010268
0.06361637364
0.0381129556
0.04454654082
0.04356961024
0.0673861964
0.066484723
0.006579174849
0.05159223778
0.125009455
0.1127096152
0.1662645131
0.1547435672
0.02103602483
0.01100467928
0.03164446262
0.02104556759
0.02709750456
0.009829802604
0.0187485645
0.01039540053
0.02713794587
0.08221463353
0.01241284777
0.02847241396
0.003807988828
0.02694990554
0.0199322007
0.6437547411
0.3545477188
0.3482107021
0.233524668
0.007864724873
0.005315847284
0.2039974372
0.422104302
0.2889052744
0.006335501324
0.01713610652
0.01199160211
0.1260964039
0.1259256036
0.05598526577
0.2059186401
0.1709844486
0.101770444
0.01157971296
0.02028724994
0.01575159022
0.009935853386
0.01516929234
0.01081249871
0.05462858414
0.02485627298
0.02343543455
0.05536305617
0.0765921381
0.02420489561
0.03309337361
0.0154493024
0.01518069448
0.06359879558
0.1525653189
0.3613139071
0.3439104366
0.3850873256
0.3671982774
0.1564940995
0.2937494313
0.2772914305
0.09018045567
0.02984374827
0.08973798643
0.08408930459
0.009738198524
0.01640746886
0.1315006142
0.04479739171
0.02789956543
0.02507618676
0.03944424891
0.04642069197
0.04234491137
0.05249884001
0.04782084983
0.04046880331
0.05976829011
0.01629639604
0.01555690046
0.05264631381
0.2028354292
0.4093883315
0.3910625566
0.05761957921
0.05980081432
0.1428104702
0.03508541426
0.03813069696
0.08742167591
0.1090263988
0.107046319
0.09886841013
0.08647430832
0.08598025351
0.07995444566
0.09588573019
0.08836350962
0.08782932862
0.1177775652
0.3157843343
0.2991707958
0.3382124633
0.3213672054
0.1198711396
0.0999752038
0.03385951678
0.03456311428
0.01953626656
0.02028687459
0.08095807792
0.1286950139
0.05316415358
0.05717912246
0.03486240205
0.03551130135
0.1109787883
0.1361371191
0.0699721299
0.09158663369
0.006624988089
0.02558500602
0.04673671572
0.03523998138
0.07167976571
0.01895710206
0.01940755172
0.01855347189
0.05989709648
0.01060537281
0.004411899366
0.1155555552
0.09511789775
0.08212181296
0.07750352305
0.02629970268
0.03077257492
0.04356470468
0.09159157474
0.01671886096
0.01017150981
0.02885806981
0.03643467698
0.002925624622
0.02806117191
0.01822125365
0.01333787683
0.006755769411
0.01295064289
0.01006480161
0.009921545888
0.04049907515
0.03035998934
0.006612960878
0.03932055349
0.04146875975
0.01825954476
0.01186333655
0.008411314426
0.01224386331
0.01996826289
0.01226687308
0.01821546945
0.06403873508
0.01044472829
0.009356702261
0.01095314807
0.01559724425
0.05125942698
0.01074814228
0.009721279077
0.01584421374
0.01094929745
0.009899918065
0.02773002847
0.01836011418
0.03944225292
0.03102973506
0.009974956853
0.0237933457
0.02277692185
0.01991487805
0.03111285603
0.02415770358
0.01945223291
0.01754023083
0.01363303438
0.02169006334
0.01694664018
0.05751166636
0.05719704495
0.02307535859
0.02176115521
0.02250674819
0.02338145539
0.07495042905
0.01320739603
0.01377604142
0.01803540178
0.01340611378
0.01404055476
0.06514506339
0.01461926258
0.02196716893
0.0179713736
0.01581917352
0.03040927263
0.07828960615
0.07184874702
0.01450888836
0.06051042099
0.05256044539
0.06950042196
0.06317188491
0.01547541579
0.01358647951
0.054573867
0.04454504724
0.09881025955
0.09182401402
0.03321307607
0.04294040208
0.1066980078
0.100759022
0.0489882345
0.04771338911
0.0777207114
0.105087757
0.1400271971
0.07690900708
0.09728166004
0.07917364298
0.06521644525
0.170493569
0.1523528724
0.1598029747
0.175853154
0.06514167764
0.04572014604
0.05667264558
0.07057117933
0.04038715664
0.04606350742
0.03842776603
0.03647737051
0.04362796174
0.02654996725
0.02670048801
0.02130911381
0.0383494567
0.03279285215
0.02767892296
0.0386594925
0.0362036875
0.03786038125
0.04026245208
0.02761239111
0.102398602
0.08753798882
0.1111184259
0.1056490437
0.02883037189
0.07691488949
0.07404436228
0.08333491622
0.07795707506
0.03601752561
0.1360492211
0.1289735684
0.1479194581
0.138623339
0.03676404048
0.03145161991
0.1185876329
0.1130759377
0.1267598161
0.1205614532
0.0318587124
0.01754030291
0.01667894435
0.05949722049
0.05462211396
0.01760853026
0.01782413628
0.04085816331
0.04002206757
0.04318547914
0.04114568891
0.03852080594
0.03742093822
0.039750539
0.03880185417
0.06977979197
0.06738901297
0.07315900685
0.07063512466
0.06102998635
0.04606845194
0.06637328286
0.06391595599
0.03890137118
0.03289413913
0.05024694566
0.04216473037
0.01006617768
0.02066931105
0.01928014337
0.03067216931
0.02157176551
0.03290221446
0.03351997257
0.09841810321
0.01950526983
0.01930775948
0.02014300697
0.01968489502
0.01867703638
0.08350401975
0.02084319935
0.03095126634
0.03759132751
0.05115500648
0.1265261905
0.03443124059
0.02222302556
0.03727140141
0.03433889745
0.02091640637
0.02037823679
0.02184381712
0.02114478752
0.1126313801
0.03573449919
0.03658095001
0.007112491863
0.04179351694
0.009425081088
0.01060840655
0.009439847542
0.03863507012
0.006718234413
0.0287816063
0.009578136937
0.01038124923
0.04607877988
0.03968578628
0.0183866765
0.01885721885
0.07067075406
0.06214299393
0.01754804314
0.01832251872
0.009401375235
0.02522438653
0.07473868484
0.06578838791
0.01093659448
0.01054534042
0.01591843947
0.01016139318
0.01086582619
0.02657993253
0.02794600145
0.006872132951
0.01343349048
0.009998481962
0.01190346477
0.01899170223
0.0629414816
0.1358901783
0.1789626372
0.009416493753
0.009408409002
0.1957343841
0.2536771114
0.2111773256
0.006741186532
0.05417185569
0.01773495641
0.0265352929
0.1430730713
0.1489276039
0.1670446879
0.005536578652
0.008955216922
0.006431848369
0.005174327578
0.006719351199
0.005253558863
0.06799085493
0.04330691941
0.02625971405
0.0281905685
0.02463312905
0.02795160434
0.2462918742
0.4597694759
0.4406165348
0.4857427324
0.4662116488
0.2520466413
0.06666698848
0.05790119591
0.01586805995
0.09673338022
0.1118460854
0.1399954085
0.1146732797
0.1085939067
0.04342509784
0.02941392715
0.0349631641
0.03478863875
0.4342932834
0.4155351225
0.2077115758
0.161902993
0.06630155807
0.07065874371
0.07415401789
0.08649644443
0.1803783788
0.05380799126
0.123797789
0.1167824438
0.01094094621
0.01146361882
0.01983039471
0.01810600505
0.01836947628
0.0296937025
0.0128249344
0.009558530846
0.01006600311
0.03882891881
0.07924347612
0.06916470683
0.01690888891
0.02835129899
0.01771161055
0.01785972235
0.01726731405
0.01347306214
0.01028203813
0.01379820271
0.01230677828
0.009701689321
0.03354036662
0.04268296829
0.08612862069
0.04173479697
0.04110473095
0.0374677065
0.02772300334
0.06682573813
0.02137295644
0.03015458336
0.009836226681
0.006834501942
0.00687181838
0.01025905504
0.009658557713
0.02762780023
0.01740530508
0.01162194817
0.01998678432
0.02053100928
0.01907614044
0.02525871617
0.03110270205
0.02442647823
0.01298319729
0.01427608332
0.008776965053
0.009768319422
0.01367753257
0.08726434722
0.08045479698
0.03325407603
0.01033397607
0.02034069213
0.01821174489
0.01139960329
0.01939805093
0.01642244317
0.05341517786
0.03979570417
0.04527057042
0.07517497396
0.1114043637
0.1090910499
0.04247510774
0.07300061148
0.06825709649
0.1073963263
0.1042746728
0.07058297174
0.04277678617
0.05159717426
0.04191436382
0.03210905061
0.03463777373
0.0278730351
0.05336292413
0.05134430323
0.06552434213
0.02187021286
0.03227989905
0.03055076453
0.05272112347
0.05226340675
0.02932405344
0.02667436562
0.02623155837
0.02948310345
0.02873415489
0.0347966206
0.06087381896
0.06002304309
0.06610005056
0.06498786556
0.03837744903
0.03049879982
0.05431621015
0.05366189404
0.05915489915
0.05831132264
0.03292481713
0.06325906738
0.06547289836
0.1596310555
0.1447434709
0.06045187909
0.06256436291
0.09490292111
0.0989508728
0.2013086462
0.0245745325
0.02443901852
0.02597861012
0.02575634256
0.01868574036
0.02415212195
0.02405737235
0.1829563129
0.08913639472
0.09339867432
0.01102558066
0.01119776098
0.01739920693
0.01652797984
0.01055316825
0.01113747499
0.01075140101
0.08905510899
0.03959095974
0.04830046224
0.1329742007
0.1261394383
0.05697036623
0.06669784779
0.1412747809
0.13502504
0.02906565384
0.02914139399
0.04492138968
0.04320349698
0.02868947365
0.02866331803
0.00947232407
0.02004530718
0.03144650046
0.03144037635
0.008170425632
0.01299313977
0.02902936002
0.01154236603
0.01206175872
0.01688612707
0.01712318465
0.02753652419
0.01006077346
0.007117549685
0.01003470816
0.01031110555
0.02569701541
0.01642849878
0.01699384673
0.01812255788
0.05042092395
0.04227791959
0.00955908294
0.009666030084
0.01158311523
0.01236372063
0.02213802155
0.007116281348
0.004869763243
0.008778892777
0.01461289875
0.009375390925
0.01056977941
0.00933764503
0.009658598249
0.01278141017
0.01174105534
0.007804692663
0.005592519624
0.02145547519
0.02214996487
0.0206343781
0.02094376441
0.02421562837
0.03617073896
0.03666299099
0.03549609424
0.03595349749
0.02400779681
0.01511573639
0.02742875851
0.02738646512
0.0282674487
0.02757849904
0.01479669331
0.02660874599
0.04032495194
0.04453053632
0.03707910562
0.03819932948
0.02584288251
0.01619617864
0.02745502803
0.0274388078
0.02735704427
0.0274181463
0.01589819702
0.0198148963
0.02030619391
0.0191225228
0.01997098471
0.03401683444
0.05292361856
0.05243751209
0.01977083319
0.03262178159
0.03237992886
0.03386801677
0.03296017371
0.01994946924
0.009757937362
0.009502795289
0.01011231052
0.009701948687
0.01839372224
0.0182204213
0.01877005047
0.01857251881
0.01442142207
0.03156322122
0.0189291167
0.01979217544
0.01912581457
0.03191859644
0.03170487992
0.0322342911
0.0320556672
0.01924283354
0.0196035829
0.01904940924
0.02860957621
0.02051513214
0.01474752994
0.006652309484
0.009581349326
0.01137524412
0.006494648298
0.03772065605
0.02583193403
0.003103179954
0.02630026116
0.04005891036
0.03967619366
0.01667070292
0.01003303477
0.007255317884
0.005006494478
0.01045155596
0.01079329899
0.0175168485
0.0176550479
0.02826635524
0.01767222892
0.008679381244
0.007629680756
0.0156136804
0.004174296796
0.009845973009
0.007526278381
0.005111812233
0.006360954319
0.009966092858
0.009599609368
0.009403677889
0.01146963705
0.01024852114
0.04145646425
0.03077261386
0.009584071074
0.0118052545
0.01347200228
0.01897484586
0.02155403289
0.01438588978
0.01774263536
0.01474522287
0.009577144834
0.006875473744
0.009697148773
0.009971009942
0.006622652613
0.009680706098
0.009737889413
0.01349870283
0.01037684426
0.01061224622
0.009884119288
0.009617859772
0.01203143394
0.0113210492
0.01059832616
0.009863187246
0.0105334636
0.01385432135
0.01256620858
0.02838565923
0.0223703538
0.0226999192
0.02784354268
0.03183881627
0.03212100892
0.02988912869
0.02865362969
0.02065171289
0.03210125679
0.03402063504
0.02361272742
0.03222850828
0.02189429967
0.02260604039
0.03480666261
0.03528036133
0.03402046206
0.03465375534
0.02236448994
0.02276600291
0.04009890091
0.03955470838
0.01342747299
0.01358709769
0.01543482254
0.01194829345
0.01231609434
0.01289468545
0.01402584073
0.01351233233
0.01755392772
0.03366653986
0.03017493504
0.03863427853
0.03679466247
0.02053773557
0.009627318428
0.01140137285
0.02138522325
0.008015548698
0.00953134376
0.009548063912
0.01504670525
0.009742016415
0.01002912434
0.0268105071
0.02377671039
0.01232772824
0.05088406306
0.04610254326
0.0936656166
0.08203317478
0.04477688685
0.0701663003
0.1028103869
0.09755276178
0.03950370441
0.03542065062
0.03606322614
0.02454083397
0.02976538099
0.05421225095
0.05440727119
0.04460708165
0.03830144721
0.04454028276
0.04264808664
0.04929861668
0.04769715825
0.03617802037
0.02533118319
0.02693199382
0.03793939119
0.02899919365
0.02759729804
0.03083056608
0.02933463348
0.03514665939
0.02838531627
0.02907821065
0.02322509039
0.03025244335
0.04738803149
0.04762475699
0.02918535342
0.02877099481
0.05098557464
0.05097423146
0.02741866983
0.02699021661
0.02825208336
0.02779202702
0.06248036872
0.06163889685
0.03527603085
0.03756971386
0.0641357242
0.06330863917
0.05590310511
0.05518504635
0.03103520421
0.03233155683
0.05745103008
0.05667606392
0.01711814014
0.02750728443
0.02751221386
0.02751116082
0.02752933527
0.01699430256
0.01808788337
0.02548737957
0.02225495698
0.02734996648
0.02683972258
0.01794247164
0.04056445758
0.02329257884
0.02356237271
0.02288818245
0.02308415174
0.04029976449
0.04200943824
0.02447607073
0.02491970005
0.02381882878
0.02412614379
0.04149287357
0.03811617861
0.02170301098
0.02193834966
0.02134671394
0.02157030445
0.03787699042
0.03945046795
0.02251106431
0.02269211284
0.02209681292
0.02232883681
0.03916521594
0.0250233675
0.0248451212
0.06899094778
0.04446169412
0.04482206792
0.04366516759
0.04397209191
0.06809813459
0.02548339785
0.02527859918
0.02296428164
0.02424547814
0.0587219994
0.03959325748
0.03929136704
0.02575916376
0.02711563356
0.05177473704
0.06582519783
0.04287289183
0.04308830336
0.04206882602
0.04200993805
0.06435213402
0.02371767635
0.02377672302
0.01092151064
0.01139052079
0.01040742996
0.0154695582
0.01312017149
0.0202358056
0.01205520714
0.01185664088
0.01223852711
0.01216090025
0.01983332574
0.02738747727
0.01400581021
0.01654835273
0.01211633298
0.01163745175
0.02370806337
0.03287120441
0.0502582663
0.04994108328
0.05170681719
0.05133539586
0.03340839441
0.01946206933
0.0192392445
0.02002222294
0.0197535225
0.01979508809
0.01553142915
0.02190964727
0.04061003853
0.03606975795
0.04775644324
0.04598136316
0.03098831828
0.02399875278
0.0168878587
0.02159788231
0.02286882339
0.03658140815
0.02101201996
0.02128799675
0.02039762249
0.02107545748
0.03663355786
0.02075224295
0.02052308605
0.02158837015
0.02133798914
0.009727486263
0.01449632208
0.013674489
0.01976578372
0.0163650784
0.009555028517
0.009466380263
0.009822067212
0.01252415986
0.01102482047
0.007430298906
0.009808041986
0.01133983384
0.01100732
0.014443121
0.0125647797
0.009549005505
0.01782801309
0.01779699676
0.01804314859
0.01799371324
0.0272541093
0.02715328061
0.04133295117
0.0170970396
0.01803707307
0.01758222877
0.01765195277
0.01859340319
0.03115857469
0.03082755591
0.03156068962
0.03129450418
0.01866925324
0.01806323321
0.030169268
0.02849352867
0.03069793147
0.03017357866
0.01805109344
0.009746120908
0.03809794306
0.03749442668
0.02510938883
0.01089147574
0.009698451292
0.01001276572
0.007120529652
0.009893459546
0.01049513709
0.01648026125
0.01042319413
0.01141458387
0.01095382232
0.02765723893
0.01722302117
0.01741538456
0.009894352433
0.009987009431
0.01004292692
0.01028008844
0.01044321482
0.007170730795
0.007116965968
0.01116279831
0.00991899773
0.01036962541
0.01402349671
0.01718196195
0.02585318976
1.154790621
1.155032797
1.155449469
1.155139728
1.155575384
1.155719637
1.155753432
1.156421282
1.156151802
1.156668253
1.157499067
1.156708592
1.157762309
1.103236616
1.157216954
1.088633076
1.069722025
1.157441792
1.069930653
1.112626975
1.157287932
1.132310971
1.157681561
1.15683361
1.1574077
1.156662389
1.156307158
1.156433589
1.155818483
1.155863349
1.154254843
1.154775654
1.154930175
1.155013195
1.155958014
1.155593677
1.156356037
1.110829341
1.156622129
1.045332696
0.8865701882
1.155007214