/*--------------------------------*- C++ -*----------------------------------*\
| =========                 |                                                 |
| \\      /  F ield         | OpenFOAM: The Open Source CFD Toolbox           |
|  \\    /   O peration     | Version:  v1912                                 |
|   \\  /    A nd           | Website:  www.openfoam.com                      |
|    \\/     M anipulation  |                                                 |
\*---------------------------------------------------------------------------*/
FoamFile
{
    version     2.0;
    format      ascii;
    class       volScalarField;
    location    "1200";
    object      p;
}
// * * * * * * * * * * * * * * * * * * * * * * * * * * * * * * * * * * * * * //

dimensions      [0 2 -2 0 0 0 0];


internalField   nonuniform List<scalar> 
12556
(
658.483
657.688
655.724
651.622
646.124
633.87
613.977
582.257
534.348
465.232
370.976
251.188
111.424
-36.6777
-179.056
-304.386
-406.934
-486.198
-544.516
-585.651
-619.817
-635.791
-644.99
-649.315
658.96
658.442
657.083
654.027
648.534
638.068
620.338
593.993
550.718
486.505
396.119
277.378
134.691
-19.5105
-168.742
-299.602
-405.647
-486.703
-553.713
-592.392
-625.969
-640.121
-648.142
-651.888
660.177
660.29
660.276
659.465
655.554
649.248
637.181
615.313
579.684
522.42
434.765
309.782
149.728
-27.0162
-194.684
-334.365
-440.737
-517.099
-579.514
-611.654
-640.365
-650.559
-656.082
-658.626
661.591
662.591
664.44
666.74
665.621
665.391
661.8
648.553
626.499
583.852
505.645
373.395
180.203
-43.481
-245.577
-397.97
-502.078
-569.105
-619.521
-640.853
-661.234
-665.708
-667.66
-668.482
662.244
664.249
668.199
674.091
676.84
684.144
691.706
691.609
690.179
674.463
623.595
493.277
237.555
-85.478
-346.357
-510.114
-598.234
-642.206
-672.415
-678.236
-685.752
-682.974
-680.595
-679.328
661.16
664.169
670.216
679.75
687.044
702.313
721.861
737.84
764.439
792.967
805.886
727.803
353.775
-211.526
-553.911
-690.259
-731.22
-735.954
-734.419
-719.906
-710.783
-699.814
-692.685
-689.146
657.421
661.308
669.18
681.903
693.851
716.324
746.758
778.722
833.17
913.141
1037.93
1215.94
710.572
-662.391
-951.062
-951.805
-898.035
-841.642
-797.566
-760.395
-732.505
-713.419
-701.677
-695.944
650.198
654.724
663.906
678.911
694.96
722.706
760.831
804.968
877.828
988.732
1178.94
1587.45
-2055.27
-1569.94
-1261.95
-1068.52
-940.908
-851.189
-792.542
-746.614
-720.751
-705.217
-697.68
638.856
643.709
653.537
669.675
688.814
719.2
760.7
810.793
887.912
994.712
1136.76
1272.69
-3488.18
-2078.58
-1501.19
-1192.79
-1009.16
-882.988
-809.039
-749.26
-719.131
-701.249
-692.579
623.051
627.894
637.664
653.715
674.689
705.033
745.871
796.353
868.154
958.496
1058.68
1136.89
-3408.05
-2146.16
-1556.3
-1224.89
-1025.4
-883.901
-804.814
-737.983
-706.861
-688.456
-679.5
602.761
607.271
616.326
631.171
652.702
680.719
717.8
764.926
827.85
904.534
989.378
1068.58
-2633.52
-1854.4
-1426.85
-1157.9
-984.591
-851.721
-778.869
-712.489
-683.656
-666.551
-658.159
578.244
582.143
589.937
602.697
623.623
647.514
678.61
719.855
772.198
837.757
919.443
1020.69
-1758.07
-1407.98
-1186.2
-1019.43
-898.073
-791.925
-733.855
-674.522
-650.605
-636.261
-629.136
550.041
553.136
559.268
569.18
588.486
607.022
630.63
663.873
702.994
753.777
826.247
945.783
-775.026
-916.986
-957.855
-915.11
-849.535
-785.736
-714.454
-675.243
-627.36
-609.813
-599.111
-593.709
518.828
521.052
525.403
532.322
549.316
561.887
577.025
600.797
623.641
651.364
688.52
784.899
224.556
-390.04
-603.534
-673.848
-682.912
-667.465
-630.007
-609.435
-574.662
-563.884
-557.101
-553.59
485.43
486.698
489.102
492.759
506.831
512.968
519.215
532.536
537.526
536.917
520.125
456.226
179.606
-169.441
-381.038
-490.667
-540.312
-557.396
-547.031
-542.168
-519.955
-515.44
-512.316
-510.624
450.676
451.016
451.549
452.136
463.232
463.551
461.904
465.437
455.374
433.356
386.85
294.833
125.635
-88.0189
-254.904
-364.127
-428.112
-462.577
-470.631
-477.423
-465.952
-466.659
-466.645
-466.536
415.394
414.917
413.825
411.765
419.976
415.344
407.295
402.974
382.336
347.772
293.269
208.375
88.8913
-55.4704
-181.053
-276.103
-341.428
-383.284
-403.079
-417.615
-414.521
-419.225
-421.65
-422.769
380.335
379.185
376.767
372.578
378.219
369.79
357.149
347.31
320.813
281.827
228.293
155.498
64.8492
-40.2927
-136.575
-215.884
-276.104
-319.253
-344.963
-363.885
-366.81
-374.257
-378.45
-380.455
346.115
344.443
341.017
335.252
338.765
327.716
312.193
298.988
270.141
231.13
181.84
120.297
48.5228
-32.078
-107.832
-173.553
-226.844
-267.925
-295.69
-316.529
-323.338
-332.439
-337.759
-340.382
313.204
311.165
307.043
300.23
302.081
289.458
272.462
257.564
228.6
191.697
147.526
95.45
37.0221
-26.9803
-87.9729
-142.651
-188.99
-226.56
-254.075
-275.182
-284.23
-294.111
-300.036
-302.993
281.94
279.676
275.138
267.739
268.364
255.015
237.599
222.189
194.404
160.522
121.413
77.137
28.6736
-23.4112
-73.43
-119.231
-159.244
-192.862
-218.867
-239.217
-249.298
-259.326
-265.453
-268.537
252.536
250.167
245.45
237.839
237.616
224.184
207.086
191.939
166.023
135.454
101.023
63.1843
22.4665
-20.6563
-62.2524
-100.876
-135.342
-165.051
-188.932
-207.94
-218.22
-227.964
-234.004
-237.061
225.099
222.722
218.01
210.478
209.716
196.661
180.364
165.966
142.24
114.965
84.7473
52.2718
17.7628
-18.3714
-53.317
-86.0669
-115.737
-141.792
-163.312
-180.688
-190.622
-199.806
-205.565
-208.492
199.647
197.335
192.77
185.527
184.471
172.105
156.906
143.54
122.106
97.9562
71.5061
43.5524
14.1425
-16.3809
-45.9449
-73.825
-99.3577
-122.088
-141.222
-156.861
-166.118
-174.58
-179.936
-182.666
176.133
173.939
169.622
162.816
161.653
150.173
136.237
124.053
104.894
83.6401
60.5535
36.4603
11.3201
-14.5913
-39.7092
-63.4979
-85.4538
-105.199
-122.035
-135.941
-144.332
-151.993
-156.878
-159.373
154.463
152.426
148.425
142.153
141.02
130.538
117.942
107.005
90.0387
71.4381
51.3597
30.6016
9.09505
-12.9501
-34.3289
-54.6361
-73.4847
-90.5638
-105.242
-117.482
-124.915
-131.75
-136.134
-138.376
134.512
132.656
129.015
123.332
122.334
112.906
101.666
91.9873
77.0967
60.9194
43.5395
25.6945
7.32335
-11.4267
-29.6123
-46.9216
-63.054
-77.7549
-90.4359
-101.109
-107.552
-113.569
-117.447
-119.432
116.129
114.467
111.212
106.149
105.361
97.0018
87.101
78.6596
65.7159
51.7525
36.8043
21.5308
5.8988
-10.0012
-25.4221
-40.1206
-53.8614
-66.4367
-77.2815
-86.4967
-91.9538
-97.1816
-100.564
-102.295
99.1508
97.6907
94.8329
90.4021
89.8803
82.5814
73.9804
66.7403
55.6142
43.6788
30.9341
17.9536
4.7419
-8.66037
-21.657
-34.0567
-45.6752
-56.3428
-65.5016
-73.3692
-77.8618
-82.3394
-85.2441
-86.7313
83.4083
82.1528
79.6965
75.8965
75.6843
69.4226
62.0727
55.9907
46.5601
36.4909
25.7563
14.841
3.79178
-7.39369
-18.2385
-28.5921
-38.3104
-47.2557
-54.863
-61.4856
-65.0437
-68.8128
-71.2626
-72.5165
68.722
67.6716
65.6161
62.4409
62.5775
57.325
51.1754
46.2067
38.3614
30.0196
21.1323
12.0966
3.00114
-6.19238
-15.1039
-23.6156
-31.6161
-38.9948
-45.167
-50.6363
-53.2855
-56.3857
-58.4028
-59.4346
54.9434
54.0941
52.434
49.8729
50.3819
46.1066
41.109
37.2126
30.856
24.1241
16.9491
9.64221
2.33253
-5.04849
-12.2015
-19.0358
-25.4671
-31.4076
-36.2417
-40.6362
-42.409
-44.8771
-46.4842
-47.3067
41.8105
41.167
39.9037
37.9565
38.9104
35.5995
31.7126
28.8535
23.9036
18.6838
13.1107
7.41245
1.75562
-3.95418
-9.48689
-14.7747
-19.7558
-24.3616
-27.9353
-31.318
-32.1859
-34.0452
-35.2562
-35.8729
29.4629
28.9995
28.11
26.7446
28.0591
25.6541
22.8419
20.994
17.3822
13.5933
9.53308
5.35076
1.24567
-2.90129
-6.92113
-10.7649
-14.3893
-17.7417
-20.1136
-22.539
-22.6318
-23.9254
-24.7703
-25.21
16.6871
16.4719
16.002
15.2802
17.4973
16.1122
14.3564
13.5145
11.1837
8.75594
6.13811
3.40431
0.783467
-1.87986
-4.46835
-6.94646
-9.28577
-11.4451
-12.6446
-14.1456
-12.9298
-13.6233
-14.0745
-14.2804
7.53782
7.35086
7.12078
6.70384
7.6423
6.74158
6.01995
6.31771
5.21309
4.07367
2.85018
1.50123
0.365453
-0.87468
-2.09344
-3.26404
-4.37186
-5.38413
-5.31641
-5.97654
-5.71451
-6.08242
-6.2899
-6.46259
1304.87
-3700.04
-2146.25
1147.39
-3706.48
-3786.94
1075.28
-2862.65
-3626.28
1027.35
-1915.58
-2742.59
953.093
-831.324
-864.797
-1034.24
-1799.92
811.372
312.877
-787.215
177.659
-403.357
-938.357
1588.21
871.811
-1839.22
-488.517
-4613.26
-2476.86
-3402.46
-2193.39
-1675.59
1077.48
1139.57
1262.41
-5216.87
-5311.86
-3473.18
-2395.56
-2301.35
1006.09
1065.78
1128.37
1107.62
1131.32
1169.33
-3977.82
-4663.6
-2741.76
-2109.93
-2359.24
938.089
1013.18
1058.71
1050.81
1088.54
1098.16
-2685.04
-3238.82
853.207
940.981
1005.93
992.125
1055.65
1074.95
-1571.9
-1499.53
-2008.97
726.729
799.561
929.075
900.241
1000.91
1021.06
522.884
284.637
321.568
1549.3
1268.63
2180.09
1618.93
-5304.58
-4684.62
-3234.01
-4495.29
-5161.92
1172.82
1191.48
1185.69
1189.15
1176.51
1250.36
1192.08
-4703.06
-5197.15
-3794.94
-5077.25
-4618.39
-5170.67
-5095.83
-3814.23
1100.72
1126.08
1098.67
1129.35
1102.84
1174.5
1132.26
-3319.79
-3925.01
-3213.35
-3828.72
-3249.88
-4579.13
-3919.22
-3325.5
1076.55
1088.36
1045.24
1091.54
1080.64
1101.37
1091.41
-2082.92
-2607.94
1023.42
1054.13
986.557
-1535.22
1059.55
1027.99
1079.01
1061.22
-1570.07
-973.536
-1429.07
-1527.98
1035.37
1001.1
889.708
-62.56
1007.91
921.158
1026
1007.31
-139.457
1155.38
1290.63
1501.95
1479.76
1610.59
2060.31
-5266.73
-2708.04
1202.6
1195.69
1264.3
-3205.76
-1865.84
-1608.23
-1995.47
-1941.55
-1878.37
-2139.56
-191.373
-480.33
-840.121
1282.99
1548.79
1431.78
1229.39
2977.86
2154.59
-2404.96
-4330.39
-3004.73
-2181.19
-2468.56
-2267.8
-2562.89
-2054.34
-3172.12
-2637.58
-2386.53
-1161.31
-342.66
-481.313
1423.59
1794.59
2200.45
-2081.36
-312.115
1233.83
-5402.43
-3932.08
-5292.42
-2649.41
-5113.79
-3609.74
-5278.56
-5287.74
-4307.04
-4353.68
-2849.01
-3144.91
-2918.52
-3122.21
-2823.55
-3491.96
-3167.59
-2997.79
1064.34
1036.67
1026.23
-1548.83
-1795.79
-1872.67
1007.11
968.073
953.082
986.654
972.763
1008.11
1428.66
1250.03
1387.85
1269.99
1469.6
1178.49
1251.27
1349.2
1969.2
2141.42
2832.23
1519.54
2039.37
1875.49
2036.71
1487.14
-5130.04
-5093.62
1182.86
1180.78
1182.3
1213.7
1164.94
1178.17
1177.29
1165.97
1206.21
-4943.68
-4973.8
-4882.27
-4330.69
-4424.2
-4142.6
-4289.76
-4851.96
-5171.35
-4469.96
-4408.18
-4445.06
-4473.92
-5162.5
1114.11
1112.15
1157.19
1153.76
-3568.25
-3523.44
-3614.35
1087.44
1086.36
1093.86
1093.27
-2778.86
-2488.51
-2380.68
-2508.93
-2800.55
1033.68
1004.71
991.104
1022.35
1009.39
1037.02
-1207.5
1041.08
1037.32
1069.11
1068.45
-1882.1
-1206.65
-1221.39
-1466.95
946.801
923.88
995.468
1009.51
471.692
157.564
1014.43
-336.786
110.904
-254.421
1014.12
-392.066
-282.121
78.879
-2990.53
-2069.5
-2207.37
560.507
536.832
764.997
656.925
660.319
956.22
196.604
-123.366
-296.365
3958.9
-2238.65
-2387.9
-900.849
-1139.71
-1161.26
-140.811
-378.066
-118.69
2320.32
2551.2
3016.91
-2212.6
-67.6274
1769.94
-5258.07
-5757.96
-5720.94
-5314.99
-4117.47
-4303.98
-4130.32
-4912.11
-4776.79
-4538.01
1091.21
1076.11
1070.05
1086.26
1078.41
1092.26
1048.94
1039.87
1065.34
1001.97
982.507
977.689
858.872
594.719
341.793
-5245.91
-5699.54
-5773.77
-4944.02
-4101.8
-3762.33
-4369.27
-4186.38
-4974.42
-4813.7
-5076.18
-4959.45
-5113.43
1109.4
1099.17
1089.24
1108.14
1110.09
1106.22
-4076.41
-3924.21
-3790.66
-3571.9
-3333.98
-3548.09
-4285.92
-3897.63
-4085.44
-3619.81
-3830.12
-4240.74
1082.97
1059.48
1051.83
1068.09
1061.85
1084.05
1091.25
1104.8
1101.23
1092.87
1103.71
1084.88
1097.7
1101.9
1106.9
1099.64
1096.85
1091.39
-2305.83
-2448.37
-2176.58
-1401.48
-1395.27
1053.87
1023.86
1073.62
1081.23
1092.07
1083.62
1064.02
-1699.55
913.934
912.854
875.647
975.796
968.025
998.083
124.256
373.064
133.721
1008.67
443.844
673.438
507.861
626.401
1015.28
1011.99
-4561.77
-3149.48
-4177.89
-3320.26
-3375.07
-1900.38
-2027.21
-2046.06
1203.81
1193.2
2683.9
2968.68
3631.25
2760.24
2552.63
-2540.57
-2391.87
-2343.84
-2400.13
-2559.43
-1178.39
-1012.61
-1018.8
-1020.08
-1183.23
-810.901
-969.32
-590.346
-606.446
-761.912
-400.408
-553.754
-493.24
-5631.99
-4971.21
-4483.63
-5407.4
-5103.97
-4292.92
-3601.05
-4283.76
-5612.98
-5572.9
-5262.36
-5310.46
-5698.13
-5634.43
-4514.64
-4357.4
-4165.99
-4411.15
-4580.38
-4186.56
-4361.81
-4623.12
-4492.88
-4733.31
-4562.52
-2978.13
-3029.94
-2998.96
-2915.88
-3038.03
-3351.78
-3250.59
-3380.82
-3079.19
-3207.45
-3302.86
-1752.31
-1726.21
-1855.72
989.194
984.506
999.297
1009.64
996.309
991.658
1329.11
1306.57
1332.13
1404.1
1333.8
1539.23
1432.97
1358.3
1205.8
1255.15
1225.04
1314.56
1267.78
1216.8
1694.87
1733.66
1581.3
1744.75
1664.43
-5640.55
-5672.33
-5220.7
-5796.9
-5796.43
-5792.42
-5634.1
-5495.75
-5803.77
-5666.73
-4951.43
-5480.35
-5626.08
1178.19
1182.73
1184.87
1183.97
1183.19
1180.5
1190.57
1191.9
1186.98
1189.64
1167.21
1198.14
1189.98
1218.2
1202.04
1167.67
1174.99
1185.12
1183.88
1188.3
1185.86
1175.74
-5211.37
-5112.47
-4848.23
-5076.9
-5348.73
-5235.26
1123.01
1117.93
1133.13
1123.73
1111.08
1110.3
1115.37
1111.01
1178.89
1167.47
1191.1
1182.43
1146.9
1135.59
1163.54
1151.44
-3594.56
-3730.06
-3424.17
-3552.55
-3649.03
-3972.84
-4127.43
-3775.96
-3924.63
1097.48
1103.72
1090.61
1109.19
1099.92
1104.1
1110.99
1099.32
1084.84
1103.3
1096.26
1100.05
1100.75
1096.33
1104.35
1103.5
1108.94
1104.09
1097.59
1101.67
1098.45
1097.12
1091.64
1096.6
1098.37
-2569.29
-2635.2
-2697.19
-2556.87
-2743.93
-2675.2
-1193.89
-1352.64
-1386.59
-1190.45
1051.96
1028.66
1078.25
1079.31
1072.09
1065.53
1085.61
1079.51
-1773
994.159
964.255
956.583
652.356
552.237
1007.85
243.817
414.927
299.557
1011.93
-489.941
-50.0671
181.599
-94.0439
998.546
-1798.91
-1469.89
-925.505
-2194.34
-2246.79
-1046.08
-1079.72
-1472.79
-2257.3
-974.039
-966.669
-814.43
-1983.04
-1518.72
-1459.42
3018.47
3375.02
3964.43
-1961.91
292.738
2416.33
-1070.79
-616.105
-2071.23
-4292.04
-4864.45
-5171.13
1148.82
1135.14
1120.32
1154.61
1140.2
1154.6
-1552.39
-1682.44
-1700.37
-2096.03
-1854.68
-1787.89
1004.82
999.038
1012.33
-5261.81
-5433.03
-4907.31
1115.61
1102.95
1112.98
1122.07
1123.97
1132.78
1135.28
1145.7
1141.05
1023.26
1012.04
1007.42
-1550.53
-1504.85
-1493.55
1032.59
1037.43
1029.58
-1632.81
-1647.64
-1559.61
-1391.53
-1377.46
-1509.3
1009.61
1024.36
1031.19
1031.04
1003.52
-5132.53
-3237.55
-1920.3
-1979.26
-1986.98
-2188.92
-2057.49
-2017.1
1214.02
-3618.04
-3092.8
-3659.36
-2303.6
-2361.21
-2228.02
-817.879
-833.17
-664.309
-665.279
-760.905
-1090.68
-446.116
-2229.01
-5455.73
-5207.68
-5033.39
-5745.54
-5685.14
-2892
-2922.05
-2876.17
-3161.21
-3152.53
-3125.8
-2750.34
-2872.18
-2951.86
-3459.95
-3410.08
-3454.24
-1864.78
-1841.54
-1871.61
1385.03
1416.91
1269.65
1289.48
1315.12
1295
1180.43
1199.24
1193.9
1276.41
1260.21
1235.98
1991.3
1793.91
1769.39
1931.43
1890.25
2031.92
1462.46
1504.94
1537.3
1177.75
1179.74
1189.26
1180.93
1181.77
1182.04
1201.97
1204.21
1191.53
1190.84
1167.28
1174.52
1173.08
1190.12
1186.02
1175.29
1173.52
1176.99
1178.94
1173.12
1174.94
1170.22
1117.06
1122.37
1119.75
1107.7
1110.67
1114.99
1164.87
1175.36
1165.51
1176.77
1172.41
1205.31
1201.73
1136.77
1168.01
1163.63
1144.49
1149.73
1161.18
-3747.63
-3799.87
-3495.03
-3542.22
-3567.22
-3852.09
-3873.5
-3741.8
-3876.67
-3735.4
1021.13
1014.65
1025.5
1046.29
1030.92
1024.27
1044.82
1050.15
1045.22
1034.14
1037.71
1040.66
-1879.79
968.33
968.032
974.569
739.231
976.474
343.239
488.398
615.252
1020.46
1017.54
1013.52
-395.25
-250.041
-223.933
-237.572
1011.65
1018.27
1020.93
-126.99
-201.124
-350.584
-2108.89
-2143.34
-2232.12
-2185.89
-2165.49
3785.61
4408.8
3472.9
-2286.5
-2314.47
-2245.34
-2406.04
-2354.49
-2341.13
-1052.38
-149.982
-2035.06
-5499.72
-5506.47
-5456.21
-5476.41
-5746.17
-5611.31
-5618.92
-5592.32
-5603.28
-5735.09
-4872.67
-4796.03
-4838.02
-4702.31
-4752.42
-4828.73
-5746.17
-5589.2
-5556.7
-5623.76
-5615.01
-5774.88
-5033.85
-4956.27
-4994.48
-4880.58
-4919.04
-4999.57
-5423.51
-5441.29
-5351.24
-5388.96
1104.15
1099.48
1099.6
1093.94
1090.85
1089.18
1095.29
1093.44
1097.62
-1507.97
-1560.44
-1393.62
-1464.32
1064.16
1065.44
1065.99
1063.44
1024.24
1027.42
1037.19
1021.23
1084.49
1082.15
1079.56
1087.68
1085.23
1088.87
1073.62
1072.2
1076.69
1061.1
1066.83
-1709
-1700.28
-1687.84
-1564.43
943.277
1003.23
1158.14
1000.18
989.752
987.239
1010.63
378.035
358.05
1143.49
1010.09
770.221
1016.34
1025.76
1020.68
1006.22
-4805.77
-5087.6
-4889.84
-3960.98
-3742
-2891.88
-4607.1
-4301.1
-3275.49
-3403.39
-2041.32
-2028.09
-2038.56
1208.48
1175.24
3206.41
3090.99
2909.17
2272.45
2138.67
2703.1
2457.85
2538.13
-2467.32
-2412.61
-2507.34
-1031.78
-1031.95
-1021.55
-1126.79
-847.142
-831.771
-818.307
-962.053
-912.258
-904.139
-591.041
-649.398
-649.271
-474.807
-475.785
-520.443
-5484.89
-5361.04
-5550.91
-5311.92
-5540.48
-5625.82
-5658.03
-5604.26
-5588.93
-5494.41
-5509.73
-5494.53
-5482.01
-5570.41
-5672.56
-5558.44
-5576.74
-5526.34
-5542.01
-5653.76
-4465.54
-4392.96
-4441.5
-4463.43
-4525.79
-4237.33
-4261.93
-4227.54
-4310.47
-4673.61
-4713.78
-4678.71
-4593.81
-4649.14
-4490.27
-4541.85
-4618.51
-3015.07
-2941.8
-2927.6
-2956
-2890.69
-2941.71
-3082.36
-3109.52
-3058.76
-3315.51
-3357.31
-3386.32
1354.32
1286.8
1222.41
1208.18
1188.01
1225.77
1246.91
1234.87
1703.84
1782.76
1834.96
2021.05
1907
1595.12
1559.3
1629.36
-5650.89
-5479.38
-5460.93
-5522.79
-5499.15
-5663.23
-5804.42
-5796.55
-5606.57
-5779.29
-5784.55
-5727.06
-5772.71
-5566.53
-5789.94
-5805.35
-5850.03
-5726.13
1179.95
1181.3
1178.9
1182.04
1181.71
1181.05
1196.67
1199.23
1191.89
1194.22
1176.48
1175.61
1167.96
1170.73
1181.63
1178.26
1177.38
1176.61
1172.91
1173.92
1176.8
1177.66
-5182.13
-5097.49
-5127.17
-5029.29
-5063.23
-5144.37
-5305.4
-5231.59
-5301.68
-5154.38
-5185.79
-5266.69
1121.93
1123.02
1123.14
1118.96
1121.74
1120.23
1128.78
1126.21
1133.64
1122.17
1122.23
1125.29
1111.21
1112.82
1111.82
1112.92
1113.26
1111
1113.2
1112.8
1115.53
1110.73
1110.91
1111.67
1185.91
1181.36
1175.22
1178.53
1182.53
1170.19
1174.34
1171.37
1195.28
1190.11
1150.99
1147.84
1142.96
1145.68
1148.84
1137.99
1133.32
1137.03
1159.57
1161.84
1166.02
1153.57
1157.69
1155.53
1159.52
1155.42
-3678.54
-3706.99
-3621.99
-3592.51
-3627.36
-4018.48
-4049.94
-4009.61
-4164.41
-4100.67
-4069.08
-3818.24
-3854.36
-3820.9
-3964.57
-3919.98
-3872.08
1098.75
1095.47
1094.07
1098.84
1097.25
1101.17
1104.76
1101.3
1106.78
1109.16
1100.75
1091.56
1088.26
1089.18
1093.02
1092.54
1092.18
1097.8
1093.86
1096.46
1106.72
1104.49
1107.21
1109.02
1111.19
1106.65
1107.69
1105.81
1098.35
1099.68
1096.38
1096.59
-2652.99
-2634.48
-2684.03
-2544.79
-2589.77
-2624.25
-2806.42
-2841.6
-2726.51
-2739.76
-2751.27
-1322.73
-1323.05
-1379.14
-1200.56
-1256.58
-1270.42
1054.76
1047.54
1065.76
1062.15
1034.12
1034.46
1030.76
1037.03
1036.39
1042.77
1039.84
1077.98
1076.13
1076
1077.82
1076.73
1078.32
1084.28
1078.11
1077.37
1076.43
1077.29
1081.85
-1822.35
983.072
980.178
992.513
607.887
632.183
704.77
561.134
571.188
544.532
1008.94
347.176
291.698
219.621
1012.05
1013.79
1011.77
-467.005
43.4068
-21.3254
161.281
150.227
161.367
-42.1798
-170.104
-155.364
-51.4325
1008.56
1017.72
1011.36
608.838
582.252
563.061
570.854
528.855
504.5
511.288
448.159
420.873
422.536
333.767
308.936
299.311
186.089
171.209
144.741
18.1369
18.3286
-24.8799
-147.662
-133.564
-186.715
-291.855
-269.76
-323.691
-406.005
-382.07
-430.075
-490.492
-468.967
639.21
621.232
590.381
613.118
580.319
539.343
565.856
508.788
460.148
484.239
391.362
344.848
353.485
220.437
192.45
170.699
14.2969
17.51
-37.8717
-184.91
-154.642
-229.361
-345.546
-302.399
-378.547
-461.021
-417.022
-483.566
-539.104
-500.34
680.201
675.703
633.513
672.828
657.35
597.158
649.001
608.902
529.573
588.719
498.227
412.4
455.784
287.543
233.316
219.554
0.731231
12.3355
-70.845
-261.243
-199.21
-314.377
-442.192
-364.775
-475.682
-552.399
-479.844
-571.068
-611.98
-555.284
726.439
740.974
691.507
745.755
758.696
680.545
761.62
760.153
641.572
753.675
694.14
536.564
652.635
425.922
312.814
315.698
-51.9535
-6.43858
-164.86
-425.079
-290.811
-487.177
-613.019
-476.792
-638.27
-685.438
-581.616
-694.374
-708.841
-633.966
769.568
803.943
757.445
817.524
866.004
786.108
885.327
954.185
806.426
980.318
1053.55
765.47
1060.27
777.668
483.169
646.866
-298.592
-83.0164
-488.025
-788.585
-491.035
-829.746
-877.391
-668.977
-878.662
-863.138
-725.831
-854.43
-825.051
-736.589
800.251
849.791
817.633
869.824
944.858
889.913
976.507
1104.26
1001.1
1163.7
1500.69
1173.42
1402.7
1558.79
1172.13
996.89
-119.543
129.853
-965.709
-1017.44
-797.931
-1405.57
-1233.98
-960.518
-1185.27
-1062.12
-912.695
-1027.91
-942.048
-855.106
811.358
866.653
856.879
888.582
967.299
955.972
998.647
1111.57
1119.2
1179.98
1247.37
1250.43
1564.37
1653.87
1689.87
-2775.86
-2294.02
-1828.07
-1987.82
-1557.44
-1325.35
-1455.93
-1227.03
-1109.34
-1169.1
-1032.57
-968.407
801.741
854.921
866.157
875.33
944.302
964.757
969.755
1050.65
1098.52
1116.9
1149.72
1175.9
1245.6
1247.94
1276.81
-3602.73
-2938.41
-2803.2
-2170.86
-1679.98
-1611.09
-1561.71
-1294.13
-1254.75
-1226.63
-1068.39
-1047.4
774.223
821.597
848.341
839.488
898.14
934.364
919.183
984.521
1034.01
1040.57
1062.17
1081.62
1126.83
1135.68
1150.18
-3152.94
-2705.44
-2853.2
-1949.13
-1570.41
-1672.15
-1473.01
-1242.96
-1292
-1182.81
-1038.42
-1066.93
732.286
772.237
810.615
787.426
837.478
884.263
855.83
916.194
968.029
972.693
994.079
1010.26
1062.34
1073.63
1081.81
-2304
-2078.24
-2324.75
-1524.97
-1312.03
-1515.61
-1252.16
-1100.75
-1214.22
-1058.59
-952.584
-1021.4
678.777
709.581
757.746
721.493
761.455
820.041
776.685
830.924
897.213
899.507
924.788
942.94
1013.61
1031.86
1041.21
-1439.93
-1432.08
-1609.91
-1064.5
-1004.42
-1236.25
-981.949
-914.401
-1056.39
-892.852
-833.133
-924.833
616.473
635.917
692.073
643.366
667.995
739.7
677.306
711.454
804.786
796.41
818.097
864.591
929.317
961.574
976.628
-512.483
-593.764
-822.917
-491.199
-650.568
-959.157
-679.707
-724.192
-929.515
-729.241
-727.206
-866.298
-722.85
-703.982
-800.89
549.605
556.563
617.34
558.833
564.083
643.935
564.973
563.375
677.599
645.788
652.856
717.598
741.836
746.141
829.325
251.784
19.549
-86.7876
-205.557
-383.694
-568.334
-425.413
-511.876
-664.095
-530.694
-566.48
-683.906
-573.154
-582.899
-672.423
481.905
477.609
536.495
475.222
463.651
538.048
457.613
429.611
527.008
416.084
353.978
475.609
325.198
191.608
266.382
137.899
-46.2361
-94.2525
-101.634
-242.661
-339.729
-280.625
-369.047
-470.271
-391.301
-441.32
-531.8
-453.351
-478.949
-555.115
418.007
405.185
458.717
399.54
377
440.574
367.18
329.14
401.484
313.491
250.171
322.653
225.875
131.001
172.852
96.6441
-23.3581
-37.8683
-61.3011
-165.521
-218.711
-195.994
-273.644
-341.775
-295.079
-347.252
-415.414
-361.014
-393.289
-456.011
360.532
342.521
388.55
335.12
307.756
358.095
296.709
257.545
308.914
242.478
186.093
231.365
166.65
94.9133
120.332
69.9846
-15.6402
-20.6293
-43.1956
-121.8
-152.334
-145.841
-210.193
-255.297
-228.936
-277.17
-327.585
-290.715
-324.574
-374.551
310.387
289.934
328.461
281.881
253.52
292.928
242.61
205.803
243.052
192.118
143.656
173.908
127.923
71.3806
88.1261
52.0661
-12.7267
-14.6453
-33.7452
-94.8268
-113.891
-113.992
-166.904
-197.852
-182.865
-225.476
-262.779
-237.934
-270.344
-309.81
267.306
246.268
278.238
238.23
210.863
241.894
200.68
167.365
195.143
155.213
113.91
135.263
100.937
55.1003
66.7652
39.5508
-11.4496
-12.3156
-28.0703
-76.8089
-89.6768
-92.3362
-136.058
-158.244
-149.553
-186.487
-214.715
-197.585
-227.257
-258.66
230.505
210.01
236.568
202.354
176.913
201.656
167.672
138.015
159.302
127.326
92.1148
107.846
81.2402
43.3536
51.8128
30.5284
-10.7228
-11.2386
-24.2079
-63.9222
-73.2056
-76.6923
-113.119
-129.711
-124.536
-156.324
-178.239
-166.058
-192.596
-217.91
199.057
179.74
201.932
172.645
149.497
169.517
141.241
115.039
131.755
105.682
75.5793
87.5647
66.3459
34.6048
40.9293
23.8569
-10.1502
-10.5734
-21.2913
-54.1698
-61.2443
-64.8023
-95.3944
-108.277
-105.084
-132.39
-149.837
-140.864
-164.292
-185.008
172.089
154.27
172.964
147.811
127.034
143.469
119.724
96.6656
110.069
88.4964
62.6812
72.0618
54.7671
27.9261
32.7686
18.8235
-9.58774
-10.0115
-18.91
-46.446
-52.0797
-55.3832
-81.2455
-91.5703
-89.4969
-112.951
-127.162
-120.3
-140.826
-158.037
148.838
132.649
148.537
126.84
108.369
122.05
101.929
81.6975
92.6418
74.577
52.3877
59.895
45.5611
22.7247
26.5053
14.9633
-8.98898
-9.44215
-16.8569
-40.1045
-44.7497
-47.6678
-69.6389
-78.1366
-76.6846
-96.8368
-108.648
-103.195
-121.088
-135.592
128.668
114.129
127.754
108.957
92.6529
104.191
87.0013
69.305
78.3844
63.109
44.0144
50.1357
38.1046
18.6062
21.6059
11.963
-8.34643
-8.83231
-15.0232
-34.7507
-38.6852
-41.1788
-59.9019
-67.0501
-65.9274
-83.2396
-93.2271
-88.73
-104.266
-116.649
111.053
98.1249
109.913
93.5576
79.2557
89.107
74.3159
58.895
66.5358
53.5162
37.0895
42.1624
31.9675
15.2977
17.7118
9.60392
-7.66708
-8.17963
-13.3484
-30.1311
-33.5347
-35.6054
-51.5795
-57.703
-56.7332
-71.5896
-80.163
-76.319
-89.7575
-100.454
95.563
84.1737
94.4607
80.1734
67.706
76.2108
63.4108
50.0356
56.549
45.3829
31.2782
35.5431
26.8444
12.6056
14.5732
7.73011
-6.96231
-7.49281
-11.7977
-26.0768
-29.0699
-30.7375
-44.3553
-49.6807
-48.7566
-61.4749
-68.9305
-65.5351
-77.108
-86.4459
81.8425
71.905
80.9616
68.4314
57.6425
65.063
53.9328
42.4033
48.0233
38.3995
26.3354
29.9691
22.5114
10.3881
12.0114
6.22714
-6.24351
-6.78351
-10.3492
-22.4689
-25.1368
-26.4264
-38.0002
-42.6925
-41.7458
-52.5885
-59.1484
-56.0572
-65.9674
-74.2018
69.5957
61.0192
69.0641
58.0331
48.7825
55.324
45.6068
35.7505
40.6564
32.3307
22.0771
25.2126
18.8001
8.53927
9.89476
5.00963
-5.5204
-6.06279
-8.98826
-19.2209
-21.626
-22.5631
-32.3435
-36.5261
-35.5117
-44.6954
-50.5298
-47.6381
-56.0604
-63.3915
58.5749
51.271
58.4842
48.7365
40.901
46.7282
38.2147
29.8842
34.2168
26.9939
18.3623
21.1023
15.5812
6.97856
8.1248
4.0127
-4.80063
-5.3399
-7.70391
-16.2671
-18.4572
-19.0643
-27.2537
-31.0224
-29.9085
-37.6119
-42.855
-40.0832
-47.166
-53.7557
48.5679
42.4552
48.987
40.3401
33.8135
39.0612
31.5783
24.6491
28.5216
22.2429
15.0793
17.5049
12.7527
5.64295
6.6257
3.18603
-4.08964
-4.62189
-6.48701
-13.555
-15.5683
-15.8639
-22.6259
-26.0571
-24.8192
-31.1886
-35.9494
-33.2339
-39.1019
-45.0836
39.3926
34.3987
40.3762
32.6754
27.3671
32.1473
25.5509
19.9188
23.4237
17.9591
12.1383
14.3151
10.2324
4.48243
5.33813
2.49
-3.39108
-3.91373
-5.32951
-11.0419
-12.9096
-12.9079
-18.3742
-21.5307
-20.148
-25.3028
-29.6711
-26.9594
-31.7156
-37.2012
30.889
26.9518
32.4853
25.5967
21.4312
25.84
20.0071
15.5864
18.8023
14.0427
9.46426
11.4474
7.95202
3.45616
4.21471
1.89269
-2.70689
-3.21865
-4.22353
-8.69095
-10.4403
-10.1501
-14.4258
-17.3612
-15.8139
-19.85
-23.9028
-21.1478
-24.8759
-29.9622
22.9174
19.9846
25.1698
18.9782
15.8924
20.0134
14.8385
11.5595
14.5545
10.4073
6.99285
8.82978
5.85332
2.53017
3.21646
1.36805
-2.03736
-2.53817
-3.16113
-6.4699
-8.12471
-7.55062
-10.7183
-13.4786
-11.7472
-14.7404
-18.5437
-15.7032
-18.4693
-23.2399
15.3539
13.3826
18.304
12.7083
10.6487
14.5576
9.94664
7.75349
10.5905
6.97391
4.66474
6.39968
3.8831
1.67586
2.31086
0.895256
-1.38026
-1.87209
-2.13293
-4.34882
-5.9314
-5.0728
-7.19601
-9.8224
-7.88612
-9.89484
-13.5071
-10.541
-12.3953
-16.9245
8.09857
7.04923
11.7773
6.69104
5.60501
9.3727
5.23748
4.08576
6.82687
3.66589
2.41757
4.09801
1.98588
0.873284
1.47082
0.462365
-0.729324
-1.21726
-1.12723
-2.29969
-3.83082
-2.68321
-3.80951
-6.33845
-4.17614
-5.24431
-8.71644
-5.58779
-6.56966
-10.9186
1.41212
1.18666
5.49508
1.11252
0.873563
4.3606
0.785902
0.49338
3.17929
0.396721
0.463343
1.84711
0.413359
-0.0159501
0.685143
-0.0812327
-0.231966
-0.56306
-0.288088
-0.463202
-1.79293
-0.522905
-0.703161
-2.97643
-0.763366
-0.943942
-4.10233
-1.00426
-1.19747
-5.13861
1312.69
1356.72
1342.53
-3579.98
-3982.23
-4169.41
-2251.52
-2627.78
-2451.51
1155.09
1169.63
1158.76
-3776.05
-4137.59
-4006.47
-4208.13
-4282.24
-3844.55
1085.02
1095.12
1082.5
-2981.16
-3189.55
-2986.6
-3953.24
-3782.78
-3534.21
1044.36
1052.37
1033.62
-2031.64
-2090.78
-1966.67
-2859.85
-2728.54
-2623.73
981.421
995.603
967.311
-880.142
-873.304
-825.751
-877.171
-963.565
-955.536
-1349.36
-1383.38
-992.173
-1843.14
-1720.3
-1685.02
854.587
893.927
846.455
185.531
444.054
581.966
-767.095
-614.657
-666.132
57.8882
-14.5292
115.632
-595.104
-444.216
-216.472
-869.608
-538.78
-668.549
2074.16
1712.25
1467.38
3800.08
4209.1
4742.56
1138.43
1593.08
1320.12
1108.83
2624.93
-1549.46
-1525.92
-1875.4
-42.1009
-393.538
-880.005
-4503.66
-4675.63
-4776.87
-2560.91
-3043.04
-2874.39
-2745.14
-2417.39
-2975.02
-2048.48
-2274.53
-2453.58
-1800.12
-2051.97
-1872.45
1102.55
1125.21
1096.95
1180.31
1150.14
1114.73
1211.72
1166.49
1197.27
-5234.69
-5364.93
-5346.12
-5460.17
-5458.24
-5315.57
-2902.72
-2934.32
-3594.36
-2400.57
-2684.69
-2667.97
-2581.61
-2657.68
-2370.16
1026.77
1043.98
1023.09
1089.55
1061.98
1038.18
1101.55
1073.15
1098.46
1116.24
1130.6
1117.03
1136.99
1133.26
1127.98
1164
1159.62
1165.05
-4019.89
-4076.6
-4027.19
-4747.04
-4705.32
-4623.08
-2413.64
-2628.56
-3054.95
-2211.54
-2419.71
-2293.17
-2613.75
-2528.66
-2296.21
960.92
977.794
955.715
1032.98
997.274
975.415
1028.23
1006.98
1039.26
1064.27
1071
1056.45
1089.06
1082.67
1081.52
1094.43
1091.86
1095.63
-2762.64
-2813.48
-2733.15
-3345.1
-3217.97
-3158.05
878.328
913.509
877.725
972.508
927.008
892.255
964.813
937.132
981.553
1017.29
1028.32
1006.1
1059.45
1047.6
1041.19
1064.4
1061.5
1070.18
-1566.87
-1614.1
-1623.55
-1716.38
-1774.82
-1535.76
-2037.42
-1961.3
-1935.39
741.615
799.981
762.654
867.903
813.618
752.5
878.812
832.03
886.054
938.624
956.289
920.885
999.992
994.466
993.529
1015.39
1013.15
1018.66
401.266
580.313
616.608
325.433
541.298
379.575
557.869
520.974
365.75
1487.03
1448.54
1549.44
1237.77
1269.17
1290.55
2130.61
2255.74
2325.68
1615.26
1707.32
1697.72
-5290.52
-5446.27
-5458
-4862.54
-4941.68
-4775.04
-3571.7
-3901.05
-3424.96
-4634.1
-4353.7
-4215.91
-4824.14
-4780.31
-5100.54
1180.31
1172.47
1159.18
1193.77
1177.18
1182.41
1171.31
1175.24
1189.08
1186.76
1184.19
1185.75
1187.1
1187.43
1179.44
1235.33
1211.79
1230.31
1186.16
1188.79
1195.78