/*--------------------------------*- C++ -*----------------------------------*\
| =========                 |                                                 |
| \\      /  F ield         | OpenFOAM: The Open Source CFD Toolbox           |
|  \\    /   O peration     | Version:  v1912                                 |
|   \\  /    A nd           | Website:  www.openfoam.com                      |
|    \\/     M anipulation  |                                                 |
\*---------------------------------------------------------------------------*/
FoamFile
{
    version     2.0;
    format      ascii;
    class       volScalarField;
    location    "1.66";
    object      nut;
}
// * * * * * * * * * * * * * * * * * * * * * * * * * * * * * * * * * * * * * //

dimensions      [0 2 -1 0 0 0 0];


internalField   nonuniform List<scalar> 
12556
(
1.155909191
1.155881333
1.155850658
1.155820537
1.156032409
1.156021694
1.156023174
1.156036811
1.156068478
1.156131144
1.156236568
1.156375243
1.156510512
1.156544849
1.156541334
1.156443808
1.156310278
1.156205248
1.156107675
1.15606728
1.155815579
1.155819408
1.155838186
1.15586463
1.155200724
1.155119983
1.155029317
1.15494688
1.155130434
1.155106086
1.155130553
1.155303417
1.155455417
1.155749443
1.15624056
1.156910464
1.157616316
1.144128486
1.148934992
1.157405776
1.156755643
1.156153492
1.15563036
1.155353642
1.154992013
1.154961135
1.155000043
1.15507406
1.15447177
1.154327913
1.154172136
1.154040986
1.154221908
1.154212444
1.154290851
1.154570916
1.154961586
1.155693912
1.156979478
1.059150882
0.9403104784
0.8881815388
0.9162984908
1.012346682
1.15796096
1.156604001
1.15546589
1.154829063
1.154228004
1.15413953
1.15417663
1.154287812
1.153714797
1.153518736
1.153309186
1.153150384
1.153318361
1.153359585
1.153546662
1.15404031
1.154876523
1.156680828
0.942802365
0.7094794917
0.6179694865
0.6073468607
0.6496813761
0.7353843225
0.8835536277
1.131774889
1.155912618
1.154650368
1.15365632
1.153409621
1.153396384
1.153527196
1.15295094
1.152687406
1.152423751
1.152248934
1.152448162
1.15257614
1.152960848
1.153790952
1.155598509
0.9258442931
0.6082993458
0.4381202759
0.3609646597
0.3738664751
0.4318975423
0.5161530961
0.6406974223
0.8547324279
1.156213871
1.154976669
1.153306765
1.152762027
1.152644399
1.152761094
1.152176458
1.151863619
1.151564184
1.151395188
1.15162586
1.151892014
1.152627575
1.153987468
1.124130458
0.6703306728
0.3921472037
0.2381781984
0.182117992
0.2084941995
0.2793544255
0.3665227687
0.4771603124
0.6530410457
0.9520888093
1.155929537
1.1531985
1.15220861
1.151914864
1.151983695
1.151399597
1.151036537
1.150703993
1.150553558
1.150866238
1.151327035
1.152507679
1.154736629
0.9371666056
0.523304383
0.2741416701
0.1199797636
0.06555279766
0.1027115168
0.1849230212
0.2743231715
0.37414848
0.5222590193
0.7999490674
1.157567741
1.153347953
1.151731992
1.151176457
1.151162616
1.150642841
1.150242034
1.149899744
1.149795097
1.150195742
1.150910418
1.152671269
1.155914026
0.8416877457
0.4796868348
0.2584150992
0.1030167478
0.05694036018
0.1387779873
0.2251559205
0.3177011644
0.445799673
0.6960241565
1.046878005
1.153760215
1.151371976
1.150457007
1.150321575
1.149924689
1.149485594
1.149132784
1.149080946
1.149643238
1.150660563
1.153100038
1.157325459
0.8190693592
0.5131094296
0.3488181209
0.2592551978
0.06681802692
0.133806819
0.2104108327
0.2950048108
0.4111652756
0.6422634276
0.9670670834
1.154422339
1.151135611
1.149788027
1.149501657
1.149268064
1.148803714
1.148462403
1.148505907
1.149221327
1.15058002
1.153747968
1.158840778
0.8339621038
0.5779953263
0.4772137218
0.5310669135
0.09214597739
0.1497303372
0.2184350078
0.2980252643
0.4058888438
0.6220141845
0.9205456576
1.155299464
1.151115112
1.149278272
1.14880777
1.148666499
1.148177167
1.147852938
1.14804359
1.148865468
1.150656905
1.15456271
1.160359683
0.8612035374
0.6368951181
0.570789874
0.5769708196
0.1252939187
0.1789122735
0.2432918897
0.3181897892
0.4208453853
0.6303739724
0.9024524046
1.156331899
1.151312724
1.148984516
1.148322793
1.148161862
1.147657763
1.147363211
1.147685796
1.148604825
1.150860852
1.155478137
1.161837116
0.8912593802
0.6736480409
0.5917367416
0.4986576004
0.1631212487
0.2198820077
0.2843954659
0.3567747698
0.4606206519
0.6645957732
0.9146751001
1.157566833
1.15178938
1.148993017
1.148132166
1.147704386
1.147182342
1.146942808
1.147426181
1.148460734
1.151146674
1.156437906
1.163281604
0.9281847365
0.6984459452
0.5627726992
0.4390603994
0.0738649887
0.2104225873
0.2802785921
0.3475152978
0.4212630451
0.5319249169
0.7212743874
0.9528271515
1.158846104
1.152465139
1.149257546
1.148233574
1.147355302
1.146822609
1.146633093
1.147235973
1.148487401
1.151700556
1.157607964
1.164659578
0.9881530248
0.7457546426
0.5683820348
0.2804823444
0.1391065023
0.3120188757
0.3895078874
0.4536765714
0.5196697874
0.627681701
0.8039264176
1.009767376
1.16012761
1.153330396
1.149767058
1.148592408
1.147034663
1.146487659
1.146344449
1.147080227
1.148535625
1.152142219
1.158465455
1.165527523
1.108962008
0.8622106841
0.6727604643
0.07482817301
0.1927012235
0.4703399897
0.6028672484
0.6309375608
0.6787227337
0.7697391089
0.9283199077
1.105462979
1.161313728
1.154211109
1.150392756
1.149130155
1.146804385
1.146246556
1.146138736
1.146982734
1.1486139
1.152559142
1.159233811
1.16606033
1.163305269
1.082426519
0.888802617
0.05441412868
0.2006067601
0.4616030975
0.6964345748
0.8869271272
0.9068084556
0.9602810949
1.095401337
1.168753193
1.162352162
1.155081793
1.151093176
1.149765944
1.146562052
1.145987628
1.145902542
1.146860346
1.148687219
1.152915472
1.159861275
1.166334191
1.164035239
1.126663311
0.9232826854
0.1058426766
0.1599076682
0.4253167081
0.6685555857
0.8783530599
1.033960406
1.120221423
1.161889298
1.169758046
1.163158444
1.155830716
1.151738475
1.150378271
1.146389252
1.145802762
1.145726729
1.146758961
1.148728274
1.153186845
1.160299071
1.166418772
1.163486589
1.129302374
0.956177259
0.1973044193
0.1069314109
0.3842779383
0.6466835127
0.8791286306
1.038634943
1.122626968
1.162946131
1.170340149
1.163716146
1.156434957
1.152340479
1.150969197
1.146167692
1.145565628
1.145487526
1.146594837
1.14872222
1.153360668
1.160540799
1.166186236
1.161592731
1.124631271
0.9513306557
0.2397290368
0.0858614851
0.3685345914
0.6487508727
0.8865108706
1.041843212
1.124002874
1.163399093
1.170530386
1.164000312
1.156832839
1.152783024
1.151422098
1.146006819
1.145397991
1.145311227
1.146450301
1.148663154
1.1534364
1.160596158
1.165661974
1.159202276
1.115465215
0.9044148039
0.1987436858
0.0993270129
0.3793513434
0.6564655947
0.8921859158
1.044058074
1.124688805
1.163403254
1.170412723
1.164122572
1.15714225
1.153166084
1.15181883
1.145769192
1.145154122
1.145057377
1.14623841
1.148559666
1.153424137
1.160484859
1.164888945
1.156395179
1.1046684
0.8456375684
0.1657485685
0.1158434727
0.3892813519
0.662071604
0.8961091569
1.045543727
1.124907257
1.163086367
1.170066851
1.164041773
1.157268938
1.153382286
1.152053264
1.145595658
1.144986444
1.144883857
1.146073191
1.148423757
1.153342983
1.160233642
1.163908817
1.153198093
1.092062292
0.7806098141
0.1417356541
0.1309175889
0.3980860078
0.6666127569
0.8982598508
1.046377035
1.124784843
1.162546391
1.169561272
1.163897173
1.157369001
1.153573656
1.152254934
1.145324803
1.144723244
1.14462129
1.145845619
1.148273531
1.153216276
1.159874042
1.162756128
1.149593763
1.076867462
0.7208603083
0.1241830064
0.1442283614
0.4060073346
0.6705217101
0.8990602464
1.046528114
1.124372297
1.161846437
1.168948904
1.163614702
1.157315615
1.153607947
1.152297989
1.145131907
1.144549967
1.144457832
1.14569152
1.148117852
1.153063731
1.159434057
1.161452745
1.145490829
1.057629805
0.670314874
0.1113468238
0.1557615723
0.4132745562
0.6739788852
0.8990741388
1.046028182
1.123683361
1.161021864
1.168265848
1.163342204
1.157293042
1.153665118
1.152353879
1.144826103
1.144263768
1.144188183
1.145466083
1.147966798
1.152896831
1.158930839
1.160001236
1.140699806
1.033921369
0.6275146507
0.101803847
0.1659153946
0.4200342118
0.6770698936
0.8986758996
1.045009859
1.122737976
1.160095728
1.167536106
1.162958069
1.157126103
1.153570021
1.152256324
1.144617175
1.144085079
1.144036229
1.145334124
1.14781863
1.152719816
1.158370334
1.158385062
1.134947465
1.007248717
0.5907667706
0.09456888094
0.1750768796
0.4263360502
0.6798433967
0.8980559889
1.043632785
1.121575372
1.159088887
1.166775862
1.16263219
1.157036898
1.153544752
1.152220611
1.144283794
1.14377909
1.143759563
1.14511137
1.147678333
1.152532664
1.157751792
1.156573736
1.127980539
0.9795980086
0.5589142625
0.08953938682
0.1835552023
0.4322376459
0.6823525058
0.8973144252
1.042028764
1.120244265
1.158021839
1.165996998
1.162193657
1.156795618
1.153361202
1.152027821
1.144064435
1.143597289
1.14361884
1.145002886
1.147539536
1.152333713
1.157070499
1.154525183
1.119674208
0.9522206642
0.5311022641
0.08598852366
0.1915679717
0.4377839397
0.6846513897
0.8965068916
1.040289043
1.11879029
1.156912695
1.165208052
1.16185173
1.156672224
1.153290013
1.151941623
1.143718363
1.143282669
1.143341362
1.144782394
1.14740788
1.15212056
1.156318779
1.152184744
1.110078615
0.9257339338
0.5066271489
0.08347024181
0.1992294196
0.4430288979
0.6867742152
0.8956630385
1.03847395
1.117251608
1.155776531
1.164415162
1.161383155
1.15638297
1.153049822
1.151689738
1.14349026
1.143097249
1.143208846
1.144696174
1.147275265
1.151891027
1.155485751
1.149498508
1.099373718
0.9004305848
0.4849788845
0.08194995363
0.2066065315
0.4480188427
0.6887516536
0.8948048182
1.036625744
1.11565911
1.15462552
1.16362371
1.161042189
1.156240472
1.152952872
1.151576777
1.143155667
1.14279518
1.14294747
1.144485465
1.147149287
1.151642265
1.154557407
1.146413999
1.087794322
0.8764314953
0.4657032259
0.08113414993
0.213736794
0.4527925865
0.6906135732
0.8939512051
1.034775456
1.114037887
1.15346942
1.162836205
1.160564994
1.155930776
1.152687245
1.151299983
1.142907661
1.142594123
1.142809389
1.144411524
1.147020209
1.151371325
1.15351633
1.142895979
1.075575385
0.8537375378
0.4484823936
0.08092830583
0.2205702949
0.4573892521
0.6923854293
0.893118285
1.032946393
1.11240835
1.152315877
1.162057773
1.160219729
1.155762174
1.152562115
1.151159835
1.142622689
1.142340346
1.142597157
1.144234905
1.146896455
1.151074038
1.152342556
1.138929777
1.062903
0.8322527019
0.4329449399
0.08135766487
0.2271101965
0.4618433432
0.6940937915
0.8923222056
1.031157044
1.110786073
1.151170808
1.161285837
1.159775375
1.155476503
1.152315112
1.15090407
1.142322556
1.142091772
1.142420374
1.144138576
1.146769144
1.150748656
1.151020612
1.134508305
1.049929689
0.8118633464
0.4187508348
0.08232538193
0.2333753573
0.4661778197
0.695764638
0.8915806729
1.029424533
1.10918616
1.150042006
1.160531516
1.159373193
1.155239848
1.152125291
1.150700776
1.14213678
1.141934268
1.142303147
1.14405072
1.146649038
1.150396865
1.149549432
1.129656301
1.036801796
0.7925436021
0.4057887712
0.08379130972
0.2394038155
0.4704095848
0.697422111
0.890912982
1.027765679
1.107621723
1.148948767
1.159795364
1.159067509
1.1550537
1.151968128
1.150538283
1.141772346
1.141636755
1.142100843
1.14394175
1.14655509
1.15003822
1.14798044
1.124428551
1.023706528
0.7744121491
0.3940500659
0.08556683028
0.2452462014
0.4745387869
0.699078512
0.8903305378
1.026192653
1.106100256
1.147959124
1.159146981
1.15853444
1.154728301
1.151704677
1.150262931
0.226697383
0.05928806304
0.04957289747
0.5105400095
0.08384809011
0.06212702853
0.586163457
0.1179443011
0.08784055677
0.5072902779
0.1495167638
0.1230163835
0.4445098978
0.05491326619
0.06925043441
0.1847680387
0.1534813426
0.3312620044
0.09926436075
0.05652093455
0.1257345967
0.2515420995
0.1880196801
0.09929654199
0.06662377585
0.05137203734
0.09718521225
0.03020741929
0.02110223451
0.06442574964
0.1137885547
0.118951288
0.4460959288
0.486030295
0.2684334378
0.04212919856
0.05028764769
0.08874964684
0.1282813178
0.1157352365
0.5537791084
0.6609754132
0.5090983332
0.592360817
0.2219060187
0.2573517084
0.06998647371
0.05150128304
0.1210478212
0.1561383581
0.1342331957
0.5917531262
0.610727844
0.6757525844
0.5481340206
0.1353173332
0.1814633362
0.122083215
0.09261315419
0.5698193117
0.5301274987
0.6019484139
0.4832307758
0.07551727386
0.1023455055
0.02294534717
0.1406359265
0.1353550015
0.5582867885
0.3929107558
0.5193935862
0.3995842553
0.02816683763
0.04713463463
0.2586806461
0.1428272654
0.1090921343
0.08096218691
0.2176875752
0.03766328527
0.07251915732
0.04871770706
0.03147376671
0.05172994161
0.03332975885
0.04673290464
0.2624268886
0.3006161187
0.4123367754
0.2298148783
0.2065398887
0.2677830222
0.2343250853
0.05104653543
0.04192136774
0.07352941004
0.0600405816
0.06690022226
0.04794833839
0.06035047924
0.07203658566
0.1849073051
0.2168643617
0.6138099636
0.1656661742
0.1358834073
0.2041190243
0.1681716595
0.08863909702
0.07154513437
0.1050859165
0.09455916235
0.1155644092
0.06749440253
0.09144117593
0.1005589525
0.1039058066
0.1334057867
0.5383558693
0.1053894082
0.0777891795
0.1342143646
0.106917024
0.1344520325
0.1265916642
0.04810448306
0.07366019066
0.4806405242
0.01571533259
0.05076334112
0.02996766593
0.07665120574
0.05234554288
0.01377457209
0.1465144128
0.1422127884
0.02595460227
0.004671328353
0.02783339787
0.3936478137
0.08350652686
0.01753392531
0.009694786714
0.02962558276
0.01787030868
0.08170661907
0.3189334874
0.2381797093
0.1206787916
0.1333610725
0.08086703803
0.04475006795
0.01686389156
0.008974768598
0.3748756118
0.3058967654
0.2398804565
0.009396160766
0.1559069572
0.1928977832
0.1645873539
0.00991668844
0.07598510393
0.06660423068
0.09581570346
0.1625122246
0.1501070364
0.2086187613
0.09047471107
0.1513299443
0.04254558171
0.01451206795
0.02530901496
0.0242231621
0.03162705727
0.0503665182
0.06463495828
0.04707193804
0.1380141259
0.1279940799
0.1363669925
0.1168614071
0.1267576159
0.1346862246
0.03715729921
0.01144030461
0.06723746962
0.02627510764
0.04549017979
0.03660302153
0.02145079773
0.03380682907
0.02500232277
0.01631996723
0.02430775605
0.02209929054
0.01080723225
0.0176590797
0.02301464793
0.05285692749
0.05367218836
0.06097022272
0.05967401746
0.02323750823
0.01084592568
0.109069271
0.01963190281
0.03672743072
0.00993810937
0.01660842727
0.1047646186
0.0905200852
0.2698974054
0.2546793445
0.09503315609
0.08087811322
0.01021372221
0.04213885204
0.1898844579
0.1755324668
0.2098115097
0.1957125498
0.04251991532
0.05342789444
0.04288832269
0.1221215577
0.07035166278
0.06785184571
0.04025098198
0.06971351228
0.1389738298
0.04602882041
0.0265589021
0.01661212751
0.05978036902
0.02954901129
0.0511788532
0.02807407309
0.07223799134
0.03911426266
0.0386967264
0.2238230737
0.03018035571
0.2227870242
0.2581229418
0.03436675078
0.03910495713
0.03065009007
0.03379416449
0.2520486939
0.04912364059
0.04877484521
0.06399010262
0.07014655955
0.06553706545
0.07674869493
0.07171120449
0.06432918885
0.05825344283
0.05793540008
0.05286306709
0.06383822876
0.05932358544
0.0598249934
0.1509233265
0.149002201
0.1873063346
0.1850630321
0.08405469667
0.009682496134
0.08249666251
0.0949811164
0.09300850866
0.1198523214
0.11800693
0.03926955231
0.05775435354
0.1323041791
0.04383813324
0.02505425645
0.06427486078
0.2297228153
0.2149674371
0.2495812097
0.2346463101
0.06562870463
0.03374848602
0.04621008048
0.04520468641
0.06913678874
0.06824537079
0.006628784598
0.04499303995
0.1140585894
0.0999201432
0.1699284288
0.1590427194
0.02203840423
0.01130567272
0.02770967481
0.01788542013
0.02815261638
0.01073059068
0.01653916091
0.01106593008
0.02817701224
0.07194555294
0.01206780182
0.02393913326
0.003569975299
0.02391313531
0.01777104502
0.6302111526
0.3681686019
0.3723454418
0.2441834949
0.008020828993
0.005314177872
0.1865708217
0.3976370081
0.2839240848
0.006318739546
0.01534961412
0.01130835962
0.1235652333
0.1190331069
0.04870444484
0.2027395044
0.1688918198
0.09931299434
0.0106712634
0.01847063823
0.01447811074
0.009310665594
0.01407164709
0.0099234719
0.04529605772
0.02009637715
0.01882631236
0.05495548406
0.06564835557
0.02007518044
0.02741890671
0.01276405992
0.01266759065
0.05365208641
0.1516060764
0.3507710368
0.335290463
0.3716731755
0.3559705574
0.1553283036
0.2898783983
0.2747384376
0.09191111144
0.03102684327
0.0926883181
0.08711150769
0.01041198883
0.01619135468
0.1180490828
0.04494226459
0.02273408647
0.02028475201
0.03856086263
0.04506272108
0.0409029662
0.0513007343
0.04651024341
0.03972720694
0.0500594665
0.01334032142
0.01284088713
0.04367414626
0.1983941483
0.3927519753
0.3768839214
0.05868732202
0.06079494585
0.1414522229
0.02910021747
0.03176296725
0.07585148596
0.1042610441
0.1051978978
0.09718530902
0.07482805333
0.08459041986
0.07868223025
0.09426645386
0.08692625768
0.07612988374
0.1186435913
0.3099667015
0.2948422134
0.3301908165
0.3150241306
0.120652862
0.1009978966
0.03502925569
0.03574940694
0.02021250485
0.02099559162
0.08247835681
0.1282738623
0.05430030738
0.05826000715
0.03605835315
0.03673444038
0.1115183898
0.1336227038
0.06055670451
0.08029695587
0.006887299432
0.02288993846
0.04841220105
0.03660209007
0.07337361473
0.01959232346
0.02007144856
0.01916160156
0.06167916261
0.01063055459
0.004385831054
0.1197941517
0.1001839095
0.08518415435
0.08064100592
0.02741939753
0.02601365745
0.03934481328
0.08889200779
0.01730732191
0.01084985189
0.02474022706
0.03247963851
0.002883252191
0.02912386015
0.01886344091
0.01268479604
0.006499508247
0.01244620469
0.009535483463
0.009390485075
0.03532451801
0.02685011841
0.006572788939
0.03886772716
0.04080844482
0.01682137322
0.01148951911
0.007977022203
0.0119092741
0.01839546776
0.01144797627
0.01620110085
0.05515632821
0.01015237556
0.00934750449
0.01087846037
0.01424061999
0.04475468418
0.01080025862
0.01030037633
0.01442834937
0.01086253389
0.01074149932
0.02446229153
0.01640557894
0.03479630315
0.02745383742
0.01058368781
0.02155962003
0.02220477714
0.01921581083
0.03112498441
0.02362467832
0.01880477413
0.01691812488
0.01310786795
0.01729454764
0.01348919164
0.04777511895
0.05646794429
0.01849902842
0.01738545928
0.0187111724
0.01941487172
0.06413507219
0.01125886991
0.01159877156
0.01528829523
0.01149725796
0.01175113609
0.05507145519
0.01217350168
0.01829532681
0.01566804355
0.01393438169
0.02611054059
0.06789629378
0.06201663203
0.01276916273
0.05161047594
0.04447615594
0.05986132219
0.05406148596
0.01350168464
0.01262360476
0.0471603138
0.03873716809
0.1016334753
0.09471342166
0.03456902237
0.04468872716
0.1093772334
0.103547982
0.04716599149
0.04607643817
0.07355188638
0.0942868026
0.1207145688
0.0702853817
0.0879536508
0.07478353833
0.06311006591
0.1586671489
0.1432288938
0.1348318115
0.1630726258
0.06302205894
0.04305521111
0.05136245609
0.06439630087
0.03728434671
0.04208716775
0.03134756399
0.02978392332
0.04360956146
0.02174862383
0.02185771241
0.01736830765
0.03113914485
0.03273473169
0.02269420455
0.03140421498
0.03528799061
0.03771675827
0.03282557811
0.02824681348
0.09997662552
0.08623179765
0.1078006047
0.1029288318
0.02943455815
0.07643233339
0.07380491848
0.08233593651
0.07738420307
0.03609848973
0.1294117495
0.1233540489
0.1394626133
0.1315988855
0.03678582203
0.03190233159
0.1143526935
0.109519841
0.121446987
0.116066771
0.03228543255
0.01416095882
0.01357885458
0.049791775
0.04541536774
0.01402534638
0.01436384458
0.04188397079
0.04106568567
0.04416577364
0.04216532293
0.03958696082
0.03849347419
0.0407987322
0.03986543803
0.06987130742
0.06763254047
0.07299475542
0.07066242017
0.06158150222
0.04699078449
0.0666921839
0.06436654897
0.03259089692
0.02751247915
0.04239735209
0.03536033472
0.009021869393
0.01740335228
0.01625500332
0.02566464884
0.01806530852
0.03406243384
0.03467183796
0.09950245566
0.02014467472
0.0199456279
0.02079128514
0.02033168981
0.01930898892
0.08497908177
0.02157166828
0.0320173994
0.03889087155
0.05232311816
0.1262281976
0.03560503829
0.02289573808
0.03835081645
0.03534248938
0.02156251007
0.0210289288
0.02248360456
0.02178841634
0.1130883176
0.03696733012
0.03785365009
0.006633477549
0.03575182736
0.009346819491
0.01017307975
0.009339534449
0.03308701248
0.007067070803
0.02569972654
0.01012888307
0.01061377031
0.04774779133
0.0412948737
0.01899654361
0.01948476139
0.07237688923
0.06391379068
0.01812568535
0.01892721772
0.009765865421
0.02632802211
0.07787324769
0.06915892279
0.01173901704
0.01138702008
0.01650457684
0.01104178627
0.01158543886
0.02247385516
0.02900786276
0.007455970529
0.01293584096
0.0107727976
0.01181873862
0.0196550865
0.0588410149
0.1255850658
0.1628819178
0.009614102731
0.009589788555
0.192207136
0.2452034133
0.2042605144
0.006566596889
0.04722824552
0.01598471236
0.02353300143
0.1407821218
0.1466059652
0.1639054178
0.005187511691
0.008301652398
0.00613268818
0.005051110556
0.006245841723
0.004919197915
0.06324161145
0.03991535277
0.02473994231
0.02716787536
0.02391644657
0.02752971651
0.2371182505
0.4354243363
0.4193637156
0.4569521553
0.4407837903
0.242134034
0.05787789826
0.05009589974
0.01448932576
0.08501754498
0.09904100552
0.1378712261
0.1171774653
0.1112351367
0.04518267533
0.02913612787
0.03499534509
0.03393327267
0.4140183077
0.3980305048
0.2027973969
0.1589968755
0.06700857944
0.07117050204
0.07451895793
0.08632493441
0.1757884438
0.05573682896
0.1260878817
0.1192405035
0.01081428148
0.01111520929
0.01777692432
0.0187119528
0.01899014831
0.03077604777
0.01212526054
0.009972850276
0.0101901798
0.03428334464
0.06931117361
0.06008694442
0.01749816124
0.02940565191
0.01829621815
0.01845505405
0.01787909049
0.01457701372
0.009723714317
0.01280216556
0.01160096694
0.009937006239
0.02942331067
0.03702444479
0.07544184633
0.04102876257
0.03960539464
0.03614168611
0.02665718016
0.05769841989
0.0189932395
0.0265999657
0.01053919255
0.007318105185
0.007407834843
0.01074832165
0.01044529817
0.02572329366
0.01622591111
0.01094299423
0.02201505991
0.02020164137
0.01861024881
0.02077300314
0.02515920958
0.02122854991
0.01181387699
0.01277348866
0.007417630893
0.009413540048
0.01220672459
0.07609166844
0.06985716621
0.02847211543
0.009633921725
0.01744075448
0.01563966809
0.01101742954
0.01736957754
0.01484573338
0.05093504367
0.0384775487
0.04402014336
0.07154563663
0.1044010984
0.1024728197
0.04201794098
0.07069042564
0.066385884
0.1011121539
0.098511689
0.06778201703
0.03834717094
0.04647963095
0.0393014005
0.02991751883
0.03120355391
0.02537346152
0.05036251522
0.04861419292
0.05815683387
0.02248467027
0.03291319079
0.03121305213
0.05260517597
0.05218068607
0.02990871176
0.02739596771
0.02696190589
0.03015129116
0.02941468747
0.03498045154
0.05989010026
0.05913916426
0.06443661177
0.06347521745
0.03824560222
0.03101566407
0.05404707024
0.05344926919
0.05836900374
0.05761769316
0.03327218093
0.06411667305
0.06622340277
0.1569212082
0.1432431782
0.06142587919
0.06345205866
0.09417726013
0.09790003497
0.1944196012
0.02532031531
0.0251828801
0.02671304066
0.0264909874
0.01920925259
0.02490059379
0.02480410823
0.1781113987
0.08882102173
0.09279326639
0.009984394862
0.01008381376
0.01504734206
0.01429096462
0.009731741352
0.009999720169
0.009676124299
0.07737028991
0.03303226687
0.04055434448
0.1350112694
0.1283728342
0.05896244612
0.06869430627
0.1430387126
0.1369998863
0.03014666083
0.03021589448
0.04657681342
0.04486239084
0.02975662457
0.02972220495
0.009836609711
0.02096091926
0.03303127707
0.0328630324
0.008164425438
0.01342759541
0.02483435175
0.01193694217
0.01171535738
0.0174264195
0.01766817874
0.02859295005
0.01090434965
0.007763289635
0.0107774434
0.01079894758
0.02669982984
0.01695189047
0.0175263753
0.01614873953
0.0441438417
0.03727422114
0.009775431952
0.009834255806
0.0110258296
0.01164220944
0.01972000562
0.006866234905
0.004591622351
0.008398521472
0.01334531499
0.009478603883
0.01038256997
0.009425988952
0.009707808912
0.01185781566
0.01103840708
0.007299650219
0.005486011319
0.01717208019
0.01772049798
0.01654280633
0.01675364853
0.01952535918
0.0294794913
0.02990304344
0.02891222519
0.02929952493
0.01933860406
0.01255020189
0.02234181232
0.02229236441
0.02306853883
0.02248712007
0.01230371567
0.02163841149
0.03294943979
0.03644832912
0.0302488986
0.03119897627
0.02098312754
0.01327135182
0.02231022146
0.02228757385
0.02225249937
0.02229082522
0.01305346916
0.01589025331
0.01626915022
0.01532251762
0.01606163438
0.03518530974
0.05433844255
0.05385491002
0.02045880852
0.03376474004
0.0335248753
0.03503056195
0.03410599912
0.02065274873
0.01017967562
0.009970848154
0.0102979641
0.01017347536
0.01900711502
0.01882391743
0.01940928776
0.01920312339
0.01481699594
0.03273116801
0.01956595207
0.02045366797
0.0197698146
0.03306578781
0.03285198786
0.03338015163
0.0332039615
0.01989661917
0.02027193621
0.01969867753
0.02960352078
0.02120668562
0.01521911248
0.006798063234
0.009951383866
0.01112187886
0.006692692832
0.03936176765
0.02707133185
0.003056042118
0.02741635995
0.0419724683
0.04157974026
0.01726614761
0.01078842089
0.007912330529
0.00426573863
0.01146581683
0.01150180345
0.01808609971
0.0182319979
0.02932438852
0.01829343451
0.009426098192
0.008547702911
0.01534774831
0.004091748215
0.009519212144
0.00736570521
0.005311115844
0.006557280228
0.009485571206
0.00807725446
0.009690369036
0.01101799695
0.01017661639
0.04078251905
0.03079129501
0.008942990734
0.01106861417
0.01245220033
0.01901407669
0.02141301621
0.01332565346
0.01648173809
0.01490163139
0.009586491145
0.00655899532
0.009648602757
0.01032775531
0.007028859975
0.01034025294
0.01035881772
0.01268230656
0.01076935552
0.01072266306
0.01053076982
0.01032853655
0.01167154002
0.01124121849
0.01081855209
0.01065107593
0.0108929113
0.01303017585
0.01212772309
0.02689172298
0.02210840406
0.02514971304
0.02764743046
0.03077507897
0.02610225278
0.02421801339
0.02594754354
0.01644851113
0.02609011789
0.02769713274
0.01897582974
0.0262097365
0.01745894636
0.01810470529
0.02834024386
0.02872946652
0.0276982857
0.02820537721
0.0178748757
0.0189240117
0.03318894795
0.03266744264
0.01142274983
0.0115093301
0.01315637703
0.01033159044
0.01068253831
0.01107235621
0.01165750588
0.0112090466
0.01466951028
0.02757615451
0.02466422716
0.03182434672
0.03022493434
0.01713108526
0.009340475501
0.01060448367
0.01861697281
0.007019936935
0.009347251912
0.00934273576
0.01328368867
0.00940971509
0.009643339457
0.02294224506
0.02037173518
0.01106359365
0.04875147855
0.04473358616
0.08932385283
0.07889377982
0.04417513366
0.06744714648
0.0973111732
0.09276126534
0.03722303123
0.03392071419
0.03357410388
0.02378713227
0.02996357711
0.04899195434
0.04795879721
0.0412488373
0.03125632163
0.04421386042
0.04276713277
0.04033591843
0.04167114573
0.02952618177
0.02069384884
0.02210266491
0.03314078768
0.02370216855
0.02263807363
0.02509153986
0.02393147534
0.03364594195
0.02323118767
0.02388365257
0.01921620247
0.02478829787
0.04762812811
0.04785059468
0.029776995
0.02938900383
0.05102590432
0.05101757995
0.02812505765
0.0277068234
0.02894038678
0.02849189973
0.0612935788
0.06056015487
0.03543366438
0.03750159228
0.06273415087
0.06201829469
0.05547301824
0.05482440236
0.03151278685
0.0327235624
0.05685201775
0.05615928795
0.01389643056
0.02233095393
0.02233598817
0.02233882014
0.02235166718
0.013814091
0.01452773551
0.02067735561
0.01800493542
0.02220583276
0.02179404193
0.01444260523
0.04159727808
0.02403140876
0.02430175207
0.02362071658
0.0238204575
0.04133792782
0.04300852281
0.02522598192
0.02568873636
0.02456089197
0.02486966206
0.04250435782
0.03918649795
0.02241917057
0.02265899264
0.02205819315
0.02228753805
0.03894994616
0.04050417086
0.02323731495
0.02342254208
0.02281822284
0.02305335931
0.04022271258
0.02576587036
0.02558610476
0.06913327783
0.04516965031
0.04551588086
0.04440913743
0.04470624516
0.06830777474
0.02622174533
0.02601661213
0.02369390591
0.02494566968
0.0593615051
0.04047622476
0.04015029633
0.02656243603
0.0279489407
0.05257044632
0.06616942572
0.04365113055
0.04385965369
0.0428797562
0.04282178055
0.06478004397
0.02446811949
0.02452259314
0.009933854317
0.01028295318
0.009592088028
0.01348138302
0.01158984015
0.01700166766
0.01061596719
0.01048551873
0.01068365638
0.01066778346
0.01673076405
0.02296598217
0.01219626621
0.01428479969
0.01073627547
0.01035485026
0.01987496136
0.03399918841
0.05168952301
0.05137182957
0.05313166015
0.05276245239
0.03457461081
0.02010507351
0.01987207331
0.02067281045
0.02039895272
0.02044690025
0.01606210153
0.02264674417
0.04196355261
0.03729510266
0.04917998083
0.04737888635
0.03208204291
0.02478468096
0.0173869273
0.02225948571
0.02359347401
0.03765438793
0.02171915523
0.02200062254
0.02108588625
0.02178122328
0.037719403
0.02140055021
0.02117192327
0.02222581046
0.02197886914
0.009602126143
0.01313954317
0.01242072263
0.01754772893
0.0145757662
0.009502334029
0.009322006172
0.009587073341
0.0115741731
0.01042929909
0.006744790369
0.01030777843
0.01107162661
0.01088426932
0.01335366817
0.0119549381
0.0101103183
0.01840173816
0.01836222912
0.01863314358
0.01857724843
0.02821553476
0.02814161476
0.04292204258
0.01763059624
0.01862286687
0.01814138622
0.01820406136
0.01920911875
0.03229556298
0.03195699966
0.03270453767
0.03243532113
0.01929119234
0.01865663475
0.03127277381
0.02954599799
0.03182414234
0.0312851987
0.01864896814
0.01005518034
0.03998938929
0.03935553555
0.02618593822
0.01177308431
0.0101677549
0.01031553281
0.007549107371
0.01050273682
0.01140889637
0.0170788255
0.01123583788
0.01175711118
0.01152020562
0.02871877388
0.0177744695
0.01797485546
0.01060625896
0.01089710302
0.01081361855
0.01102550707
0.01121346204
0.007843731677
0.007790695745
0.01139826905
0.01084225793
0.01110594283
0.01441981596
0.01775369519
0.02678101872
1.154738337
1.154955676
1.155408103
1.155054544
1.155471771
1.155661964
1.155649018
1.156360541
1.156103477
1.156638637
1.157693883
1.1567396
1.153003959
1.050416699
1.157443466
1.041639554
0.9593272747
1.146749421
0.9560716165
0.9710562066
1.143681826
0.9807679341
1.05405617
1.157570071
1.080853224
1.15787688
1.156913764
1.157538361
1.156653364
1.156289207
1.154149285
1.154622075
1.154837968
1.154843623
1.155789818
1.155470512
1.156259069
1.114722623
1.156573734
1.038778364
0.8401883825