/*--------------------------------*- C++ -*----------------------------------*\
| =========                 |                                                 |
| \\      /  F ield         | OpenFOAM: The Open Source CFD Toolbox           |
|  \\    /   O peration     | Version:  v1912                                 |
|   \\  /    A nd           | Website:  www.openfoam.com                      |
|    \\/     M anipulation  |                                                 |
\*---------------------------------------------------------------------------*/
FoamFile
{
    version     2.0;
    format      ascii;
    class       volScalarField;
    location    "0.32";
    object      omega;
}
// * * * * * * * * * * * * * * * * * * * * * * * * * * * * * * * * * * * * * //

dimensions      [0 0 -1 0 0 0 0];


internalField   nonuniform List<scalar> 
12556
(
31.93080962
31.93166378
31.93258361
31.93341297
31.9666813
31.96718964
31.9675768
31.96834245
31.96987929
31.97261395
31.97680125
31.98184188
31.98579973
31.98685354
31.98417248
31.97972932
31.97521061
31.97122496
31.96937282
31.96783484
31.93433799
31.93316587
31.9320973
31.93109118
31.79411501
31.79665779
31.79928071
31.80157233
31.8355105
31.8372632
31.83942165
31.85863053
31.8658076
31.87871879
31.8986619
31.92310241
31.94300791
31.94883741
31.93857392
31.91753867
31.8952815
31.87765084
31.8500616
31.84209201
31.80520018
31.80167347
31.79847127
31.79551233
31.65913911
31.66357354
31.66812131
31.67175268
31.7060836
31.70949629
31.7145343
31.73825626
31.75584512
31.78687439
31.83445806
31.89006033
31.93200933
31.9427571
31.92079308
31.8739437
31.82486619
31.78413599
31.73911292
31.72163636
31.67945692
31.67325443
31.66771623
31.66284059
31.52557738
31.53152168
31.53751994
31.54245942
31.57789157
31.58399402
31.59459169
31.62778856
31.66494617
31.73262056
31.83368706
31.95206738
32.03772616
32.0473554
31.98483715
31.89301836
31.79828027
31.71804704
31.64433778
31.61081616
31.55866621
31.54813143
31.53977254
31.53279061
31.39417869
31.40177437
31.40946325
31.41591933
31.45231828
31.46218366
31.48108738
31.52986969
31.60655315
31.74567884
31.98134982
32.29135086
32.51100004
32.48519113
32.2754989
32.04662995
31.84928026
31.69772151
31.57528251
31.51323563
31.44339207
31.42662654
31.4145064
31.40502481
31.2640677
31.27296612
31.28202384
31.29029632
31.32965308
31.34580378
31.37940101
31.45256953
31.58868821
31.88105651
32.4773419
33.55047884
34.45097557
34.08492863
33.15522491
32.48951023
32.04784969
31.74373228
31.53602857
31.43232676
31.33569677
31.30777334
31.29071705
31.27850205
31.13601785
31.1465652
31.15760931
31.16829041
31.21012144
31.23483302
31.28903974
31.39803288
31.62602037
32.20677442
33.70136757
38.54162263
44.72793255
41.67018708
35.59099788
33.48503727
32.47507392
31.89400864
31.53570339
31.37057948
31.23489197
31.19239021
31.16848906
31.15290179
31.00969895
31.02163975
31.03448086
31.04809228
31.09487658
31.13052845
31.21093121
31.35954758
31.71655813
32.69554735
35.71363549
50.96534216
66.9900572
41.31352483
35.31211042
33.19795101
32.16738442
31.57190939
31.32497499
31.14181899
31.07998153
31.04734922
31.02788538
30.8863422
30.90031871
30.91594363
30.93344253
30.98505792
31.03383921
31.14398158
31.33444315
31.83983484
33.20923378
37.4180882
60.59514991
123.3860231
49.91025524
37.88933974
34.18174284
32.54619742
31.65017606
31.29388266
31.05663216
30.97241724
30.92901435
30.90497162
30.76589113
30.78140689
30.79962495
30.82164682
30.88122054
30.94452043
31.08556832
31.32043327
31.97019822
33.65023361
38.55785566
68.49112813
154.765914
57.59125149
40.60009954
35.28312634
32.98328657
31.75432888
31.27512342
30.97904718
30.87025975
30.81482394
30.78572365
30.65019859
30.66814488
30.68978084
30.71788572
30.78238755
30.86214375
31.03366226
31.31639421
32.10435697
34.04931576
39.6261304
77.76518389
156.0741077
62.24529175
42.88794042
36.31069108
33.41434648
31.86430776
31.26553577
30.90911384
30.77609959
30.70772136
30.67290937
30.53801072
30.55772541
30.58238936
30.61669559
30.68865492
30.78581057
30.98665443
31.32172546
32.24232941
34.44786534
40.9076876
89.66059092
145.473658
64.2212707
44.47302213
37.12392322
33.77735103
31.96126211
31.25930076
30.84611764
30.68875089
30.60795817
30.56739803
30.43173244
30.45381491
30.48266653
30.52403754
30.59945061
30.71449412
30.94308988
31.3341399
32.38416633
34.86777112
42.58263805
100.8302047
651.3024859
126.1060066
64.55179974
45.36941106
37.68902673
34.03901092
32.03209981
31.25023203
30.78800104
30.60966615
30.51644512
30.46997402
30.32847763
30.35269133
30.38555579
30.43316336
30.51816865
30.65637894
30.92034908
31.36888028
32.57519116
35.44507732
45.24803964
153.1816543
410.2333212
118.0452579
64.21123837
45.8593722
37.9924293
34.1860829
32.07399346
31.2340905
30.72978682
30.53483301
30.43064361
30.37906417
30.23018145
30.2566149
30.29332099
30.34645614
30.4377029
30.59330542
30.88326659
31.37998059
32.68249022
35.83854597
48.15732628
522.7192508
294.0979653
110.6463855
63.38440221
45.91284237
38.10574962
34.23749281
32.07921183
31.20755525
30.67243855
30.46399144
30.3493502
30.29265886
30.13292326
30.16150788
30.20201871
30.26120304
30.35968407
30.53073774
30.84606764
31.38385472
32.75200918
36.12572917
50.92067268
745.9615041
261.3007774
106.939462
62.94446313
45.84478529
38.04731008
34.21036639
32.05735271
31.16988896
30.61013021
30.39104638
30.26892449
30.20805217
30.03930078
30.07012247
30.11411013
30.17827806
30.28271829
30.46738121
30.80723651
31.38711434
32.81030746
36.35228477
52.61680641
680.9518876
252.1282
105.9009012
62.70088449
45.65783984
37.90740434
34.14404559
32.01120682
31.12082602
30.54475701
30.31810704
30.18873322
30.12406414
29.94429845
29.97717231
30.02460943
30.09438618
30.20580569
30.40233613
30.76530386
31.39092873
32.88566611
36.62579038
54.39746691
594.5504082
246.8081676
105.4671576
62.20068855
45.29471181
37.71690432
34.04917943
31.94455261
31.05706031
30.47062532
30.23839576
30.10471133
30.03692418
29.85199286
29.88686498
29.93740212
30.0115388
30.12807383
30.33512925
30.71998251
31.38936784
32.98972654
37.08117042
57.85015543
563.7180875
234.7042791
103.5417439
61.20661001
44.8439335
37.52220101
33.93789003
31.86480179
30.98290752
30.39108608
30.15539808
30.01825596
29.94841783
29.75621449
29.79274223
29.84637806
29.92585073
30.04904983
30.26566849
30.67155208
31.38333731
33.0944276
37.66912895
64.04510367
564.6305998
217.0759046
100.3743398
60.27739226
44.44841778
37.33373044
33.81902289
31.77600406
30.90023751
30.3038187
30.06517064
29.92544539
29.8542052
29.66323682
29.70121513
29.75745639
29.84073789
29.96826921
30.19402906
30.62055062
31.37427872
33.20253713
38.3298689
70.74088405
540.7761656
202.4447068
97.59910661
59.59219405
44.1153183
37.15646069
33.69794742
31.68090301
30.81070186
30.21250195
29.97240069
29.8308926
29.75868467
29.56514563
29.60416318
29.66299681
29.75134682
29.8856018
30.12034801
30.56759322
31.36360714
33.31765947
39.1272083
76.82604463
504.9679587
190.450064
95.15409614
59.03999063
43.85420872
36.99466322
33.57806368
31.5816818
30.71575177
30.11422915
29.87222119
29.72933547
29.65665867
29.47122521
29.51103485
29.57180235
29.66314808
29.80087018
30.04479471
30.51323031
31.35269783
33.44523054
40.17285464
82.25990066
467.3898389
180.3462249
92.97515773
58.55471646
43.65814043
36.85265611
33.46208021
31.48028334
30.61672564
30.01437007
29.77183197
29.62809489
29.55520586
29.37057473
29.41084236
29.47366101
29.56975147
29.71439172
29.96767029
30.45813274
31.34339445
33.59680269
41.45991203
87.14392509
433.4631646
171.6543263
91.01303269
58.11064099
43.50657164
36.73170786
33.35209005
31.3783578
30.51490192
29.9083524
29.66396945
29.5193882
29.44657354
29.27659131
29.31713191
29.38128098
29.47947554
29.62632474
29.88945846
30.40324367
31.33816913
33.78908233
42.84859883
91.51055954
403.6583877
164.0547992
89.22650449
57.69636057
43.38090295
36.62921429
33.24906978
31.2770798
30.41129249
29.80372325
29.55913129
29.41409922
29.34144479
29.17351746
29.21414409
29.28000081
29.38291891
29.53734627
29.81072576
30.34959421
31.33997027
34.03500563
44.2329246
95.36627262
377.0529457
157.3163584
87.5815024
57.30448618
43.26962075
36.54091505
33.15288441
31.17710834
30.30675698
29.69272423
29.44570472
29.29992142
29.22753063
29.08082423
29.1214352
29.188251
29.2925439
29.44761605
29.73205726
30.29813958
31.35143684
34.33579762
45.57462879
98.78317033
353.111661
151.2676663
86.05142809
56.92979899
43.16644181
36.46287416
33.06278827
31.07874684
30.20182839
29.58660463
29.33948841
29.19336381
29.12121407
28.9752285
29.01576581
29.08417452
29.19357476
29.35793098
29.65397433
30.24971838
31.37503049
34.68263318
46.862983
101.7925127
331.2235204
145.7846347
84.61594192
56.56856293
43.06788033
36.39204987
32.97783366
30.98206925
30.09701856
29.47210317
29.22162612
29.074636
29.00273316
28.88546247
28.92587831
28.99508337
29.1052818
29.26815801
29.57692262
30.20511449
31.41272337
35.06327058
48.09650229
104.4342247
311.154027
140.7771036
83.26068832
56.21821992
42.97185428
36.3262195
32.89711186
30.88705002
29.9924919
29.36728127
29.1168831
28.96951901
28.89780519
28.7767111
28.81703033
28.88784756
29.00380586
29.17921627
29.50128449
30.16505437
31.46560545
35.46657993
49.27620709
106.7439772
292.7457413
136.1792087
81.97498342
55.87661098
42.8768163
36.26366603
32.81977817
30.7936008
29.88862767
29.24927068
28.99442111
28.84599944
28.77443325
28.69193615
28.73213484
28.80373174
28.92008483
29.090574
29.4274055
30.13024153
31.53382589
35.88397204
50.40347826
108.7445312
275.8539258
131.9363811
80.74888456
55.54132237
42.78131959
36.20295577
32.74505592
30.70160904
29.78532787
29.14870805
28.89420316
28.74529228
28.67381364
28.57863616
28.61878835
28.69206513
28.81481685
29.00350269
29.35563305
30.10128924
31.61674678
36.30919321
51.47942955
110.4546641
260.3593739
128.0000866
79.57316824
55.20984741
42.68398005
36.14285422
32.67222381
30.61094661
29.68302574
29.02542361
28.76549418
28.61534904
28.54389077
28.50158221
28.54167253
28.61582235
28.73904595
28.9169519
29.28631007
30.07866442
31.71323291
36.73786326
52.5054691
111.8974379
246.1583635
124.3327778
78.44039103
54.87980093
42.58347285
36.08225836
32.60058264
30.52151686
29.58139865
28.93329572
28.67373731
28.52294326
28.45147491
28.38131264
28.42143763
28.49735737
28.62692251
28.83301838
29.21988834
30.06269224
31.82191144
37.1669599
53.48401687
113.1033852
233.067634
120.9062114
77.34433774
54.54880392
42.47846935
36.02015805
32.52953181
30.43338882
29.48133332
28.8002782
28.5352574
28.38311465
28.31154496
28.31538008
28.35555492
28.43247748
28.56409564
28.75018919
29.1570096
30.05354981
31.94130872
37.59432664
54.41700669
114.1006228
220.9832925
117.694825
76.27943054
54.21440129
42.36759051
35.95558937
32.45845974
30.34704491
29.382775
28.72347956
28.45727564
28.30435618
28.23269095
28.16279859
28.20318785
28.28261342
28.42200564
28.6727105
29.09884926
30.05172248
32.06926871
38.0153381
55.29911132
114.9109194
209.8795432
114.6851196
75.2476713
53.87697965
42.25037234
35.88801569
32.3870446
30.26398192
29.2886453
28.55173717
28.27920867
28.12439162
28.05244774
59.91553118
144.0755972
74.90985662
67.3515008
184.8422438
149.5594036
76.52449201
184.3770225
186.5969625
88.22373052
168.0573447
182.4470892
99.66772677
792.8461641
679.9818726
152.2105141
165.6679031
131.1017222
505.7562575
777.6555039
427.7539596
148.787196
150.6562036
48.9970246
43.9804259
68.8856416
41.54709925
396.7427588
145.3332642
116.9886331
53.94227798
44.59166501
38.30457843
57.70360863
53.31316737
1315.041682
920.3120763
152.8968939
65.33269739
57.12565609
39.37713086
64.64946055
58.49729922
71.90253112
209.7177528
184.1388748
783.9993853
1052.798725
156.9636344
71.82030342
67.4667901
40.62948929
72.68026774
65.54727291
81.82900966
318.4768747
248.1403261
461.3776731
599.8801632
42.22012155
83.60534742
73.74504094
92.19599909
507.643843
398.5229888
1745.699919
305.0959432
353.8079588
44.76400598
106.4605446
85.28486181
110.110818
1149.433498
742.7004318
163.2120144
388.6969563
498.223512
140.1988792
171.2762619
90.04991661
135.0592513
894.3997124
416.7269881
113.4912044
340.6517885
636.1607884
180.9635184
159.8714776
63.82004127
211.8342936
230.234397
176.9756901
208.2917734
1063.357934
1317.898759
169.633373
934.3196171
830.2619088
657.616358
930.4345503
167.2354692
244.4780311
213.9102379
73.03441838
277.7815017
325.9310572
232.5968574
274.2703895
625.1862188
768.1740327
187.6444676
594.296916
476.2186925
822.5839194
613.8789711
188.1033117
393.8365841
322.1432873
83.28212004
398.3922672
507.3326738
329.1096647
393.9821821
363.9779129
445.625105
730.9754764
518.0229681
92.63106576
2588.82647
712.7348871
1102.841206
512.977491
695.2188887
3003.2942
281.4079136
299.9913387
1539.981007
8493.727759
1160.990994
111.6615671
576.9084653
1818.941586
7621.944196
1112.651335
1784.843373
592.1784916
37.07141339
52.75843758
45.94318734
55.98685291
111.4248181
79.13690288
2198.499473
384.7907555
63.10793926
157.3079148
136.1997238
4910.088118
147.1826124
74.02431675
72.7201557
5294.10637
666.173559
737.7255722
519.3217083
250.3346275
272.0499705
132.4685674
114.3675509
57.15880013
1273.893409
190.5518936
455.2740562
123.1952393
302.9370933
105.1019384
753.6728914
953.8401527
174.2829606
369.3914269
315.890639
461.5544789
379.2648835
176.6196927
1084.269318
4076.805142
689.2137444
67.6200401
55.48288726
82.96580277
128.0903392
65.48697509
69.13924448
2941.673524
280.6688301
2096.585685
297.2179897
1550.963816
253.5452082
1068.442571
1053.774663
893.5767953
912.2914799
1781.487414
4078.010612
513.7926059
2126.173537
1183.616323
4582.699337
2518.396717
534.0019969
438.3217621
163.1341934
171.5499855
561.6665144
635.7148387
4690.04142
807.4489778
220.2766866
235.3360544
202.4732912
214.6583573
803.8419149
1086.404737
1273.352945
152.0013658
780.9964056
605.386555
1265.125613
783.9136417
155.7307992
112.1488084
319.8529165
156.0526284
525.1187593
347.7862789
119.4234477
480.5660377
770.4075538
630.8220117
599.1588729
215.2102321
1461.147394
215.8801439
190.564679
1377.292284
1289.033903
1451.055606
1388.518197
194.8570823
1117.020258
1126.927069
872.5153971
310.8650814
302.4556659
313.6856255
312.4041255
867.2432611
783.9313943
275.4601436
252.6934795
298.3420638
282.239379
799.4701501
299.7396702
302.8566549
250.3706501
252.9484817
660.308189
4757.964287
671.9617535
431.6718021
438.9772201
360.5824363
365.0395263
1119.956984
829.7491615
405.8088275
1008.292631
1653.932805
575.7736369
187.4564389
198.3243494
174.5671823
184.0886649
566.2156607
1185.534083
763.5323359
777.5325021
554.079211
559.2089256
5527.388235
921.8110751
484.0861313
539.4750985
241.9421942
255.517043
1450.930011
2929.882643
1309.067297
2257.234105
1155.732382
6219.365988
2540.657456
5309.864023
1151.898381
658.1298953
3678.28168
1660.344153
2628.264599
1683.585546
2287.314662
47.39989186
118.757417
110.0137037
174.0968139
4170.363893
7707.680076
307.0223714
136.6014824
145.8599207
915.9213382
2661.836245
3840.037037
427.3253085
466.7512794
867.5981524
230.6735776
243.3104387
506.03093
126.7039293
92.60468412
175.3125327
313.5032019
114.4240107
131.9915487
1234.885833
2901.501147
3047.8856
986.9046323
832.2883004
2283.742854
1688.18298
3802.654613
3775.287607
1009.339656
289.8841442
129.4937583
134.8271759
122.9115992
127.7940074
283.8406581
153.3037351
160.6453495
433.2261666
1055.814079
411.2139884
432.4385661
6381.670969
3087.891682
463.8626776
775.2234703
2607.759099
2885.897496
449.4096714
204.3758152
172.7843713
243.5145202
215.1992641
468.9963915
1088.732467
3725.26883
3805.493632
1259.741082
230.5607863
116.8590821
121.3675975
690.8766427
675.2257587
315.6923715
1599.560615
1476.841896
727.2190933
540.5621451
286.0291952
295.7152126
743.2546419
309.110466
313.2204694
299.0727762
306.7877188
730.8702231
353.7595492
144.5463609
151.0468522
136.679818
142.4958196
349.0102759
411.6415067
1029.013767
1017.316135
1660.852701
1609.54413
484.5071563
341.2577902
731.7171185
693.5254018
1012.185585
1003.404093
381.3948462
393.6546747
800.8103415
649.9921711
5752.223275
1747.083957
738.5171439
926.3963753
530.0226079
1697.31689
1668.828171
1708.537312
606.0916814
4571.292776
8839.334009
327.2966
383.3994443
440.5420958
460.1660264
1174.19105
1514.224484
966.7657995
535.7445412
1843.004275
7793.071576
1406.052268
1236.133104
16070.04018
1125.631365
1695.114902
1314.117894
1572.922138
1181.862769
4859.565818
4933.309515
1155.841256
1500.443252
5505.01381
1346.920716
1280.625774
293.9785437
1071.257747
437.5570061
1071.20491
319.6351071
3765.345407
2528.548923
846.4733803
4505.692168
5280.370153
4272.381241
2894.125263
923.0585427
4443.654774
5605.685695
2856.907893
4208.932538
5937.655738
1640.611971
2480.649823
1155.822713
1460.579926
5341.695019
3003.050218
894.7041804
562.0637853
1439.775912
982.2624597
509.2971461
327.2552974
881.0739267
3216.199469
4080.080134
1175.187743
1003.047315
3084.480442
3222.607963
2493.492793
2369.592846
850.8344098
4162.843717
4075.233064
2975.966766
4055.548352
4034.748458
984.3365445
3918.377553
2563.510173
2656.513165
3003.639938
1606.776453
763.5072657
822.4400489
3382.152265
954.2961707
1076.201528
846.4698034
919.2027958
3162.635982
3310.638772
907.2898018
1066.777108
381.2136341
403.81713
957.6247398
772.6450459
359.2564933
375.5159855
1204.345017
1221.781967
760.1516461
260.4477631
284.7261629
233.1021938
253.5367825
751.5887224
843.5759053
326.9166719
361.1197847
293.1318131
318.0830286
848.8582007
458.2061175
209.0847292
227.2662052
675.7803688
710.084744
1879.691127
1966.668606
735.2679861
2758.699304
2776.627123
3507.860495
1914.17622
1597.303148
2682.060455
1894.66916
509.1442211
1355.189835
1795.820162
1513.804296
481.6449895
548.5195252
453.8666858
470.022078
1471.544855
603.4537517
617.0509684
570.8510829
598.6118103
1345.345941
394.1715147
409.4843497
370.0358316
388.8294827
1332.359674
1424.912597
434.1455293
448.4168967
414.5130653
429.2468101
1419.037737
3586.891526
3673.358191
1096.371662
1212.038176
3716.482591
3560.162353
955.1866014
962.3402119
925.0401904
952.8610314
978.5985016
993.9279709
964.8610218
975.3383221
638.3705003
651.2963332
621.31574
633.9131946
697.1746812
878.9127526
657.4408686
672.527789
1396.877332
1626.414677
1119.364498
1301.623571
4999.930007
2551.859153
2780.072157
1734.374951
2447.988616
1045.097963
1035.919196
416.4375521
1687.627849
1693.251413
1650.228281
1676.699303
1743.126446
472.7668433
1570.773043
1102.876974
968.5578578
753.8627644
345.7252178
1048.124725
1541.108069
995.0745298
1058.695665
1609.031094
1636.466435
1562.85405
1597.450398
377.2990527
1000.564222
988.5303826
5352.405602
1192.691219
5196.700844
4446.639887
5175.544011
1274.99153
5979.483766
1552.16807
5680.053083
4832.940213
746.2406678
835.5266002
1735.461669
1703.024562
535.3399453
588.8342694
1807.285284
1738.802715
5474.304573
1220.44423
473.9676853
523.3250151
5715.311091
6513.626825
1928.828279
7091.383556
5035.814578
1744.329203
1127.76942
6197.050518
3428.477144
6857.611837
3897.619557
1632.943407
62.38036918
41.96816426
36.4558801
5374.080448
5349.316543
138.0399708
73.8712619
74.15202864
5600.726375
885.9011967
2543.159018
1700.075848
308.1928995
259.4945706
159.7380322
270.3340173
196.5594704
391.9686627
1385.119357
266.050296
291.2841038
52.30784899
60.88315349
112.9831664
347.1806355
648.6340052
941.4378401
197.9475847
105.9651411
109.8830443
101.0327087
104.7027753
194.3440295
781.9545183
867.0376709
2819.7998
621.2416016
548.2027666
331.1060276
339.807527
354.4247477
766.8894275
1021.613316
1302.661722
481.508521
111.232392
115.421041
226.3908081
287.3434047
635.2450738
606.9592112
583.8626373
515.0794438
264.1728352
646.3824081
320.0857327
335.0172104
4232.998611
3948.484296
2270.077963
1724.262116
1700.785137
1078.23943
3516.863576
5474.383491
4857.394135
1171.097274
692.4337299
762.5033244
1821.964211
1118.839202
1761.295162
1747.422382
1784.703105
2329.731814
4736.966809
3248.690381
3677.993878
5221.948406
1382.165988
1119.280973
673.774498
1304.3165
161.4817105
129.0920983
219.6153822
818.8050002
2146.438533
1525.287417
5756.246213
6105.447784
6212.292091
5107.417235
5915.786223
88.57832264
110.0524238
255.5772384
2413.253576
1587.012143
1230.468362
3111.249962
2471.656367
1949.391659
3626.297729
3302.620604
5244.323909
4952.556195
3511.28054
694.9190669
746.3016074
1481.207215
4740.396224
2436.804835
2729.76425
4049.796941
2328.669095
2748.289342
1133.931474
1519.70374
1254.305223
772.7891813
520.0037218
528.2075601
1224.967035
742.3827945
785.1177508
533.8233577
546.0236073
800.5211042
183.7537679
203.894697
430.3161035
549.0537868
992.489893
706.7242475
1181.1934
1230.948559
772.4264775
1831.105368
1315.646922
1370.787732
891.3364202
894.2802648
1466.769541
1486.955958
1502.20837
1404.979704
1428.640421
1364.620842
833.2561095
838.5680577
803.732638
810.947178
1305.408265
1443.153032
878.3817476
883.2403789
844.2249822
849.9046175
1399.010449
653.2457864
640.1406548
290.4605434
312.5510925
670.9253256
657.4708235
481.8883357
468.5644386
242.5409593
1545.075627
1547.808472
1508.434214
1514.039282
1921.062591
1556.545274
1557.789771
261.2520114
503.2215504
487.2476022
4627.163175
4572.699382
2857.08444
3031.38922
4726.09322
4617.35706
4813.524999
713.8321558
1425.700914
1195.012298
302.7352534
315.4178388
616.9079681
547.0178587
288.959588
299.1780031
1105.749611
1105.483765
760.0021527
780.2968011
1114.515343
1118.913927
5476.395814
1530.188492
996.9630385
983.7547312
12531.22576
2407.88676
1565.097295
4477.201421
3602.802522
1836.696321
1813.288849
1139.555156
5996.884565
6527.164923
6231.985282
4867.224108
1213.920799
1885.578238
1825.089973
2574.663535
936.1459758
1083.349479
5277.344062
5188.671799
3966.382702
3664.70345
2051.458768
1107.850223
1093.281733
1275.478056
3103.661989
5280.318498
4469.363441
5333.755581
5098.252667
3559.213823
176.5039367
241.5430892
733.0310727
3137.167507
3057.807576
3226.81094
3200.70828
2972.592398
1945.004827
1924.687059
1967.225408
1948.859741
2982.663357
3846.844601
2178.521211
2193.047548
2095.268255
2155.071671
3913.689222
2726.245167
1761.198793
1591.792583
1909.645625
1856.939411
2800.781881
3714.818896
2224.298571
2237.688307
2207.805119
2214.761026
3758.584855
3318.299274
3251.753322
3399.362761
3255.628969
1026.933957
707.6380986
711.5971971
1645.120679
1040.040879
1044.551922
1011.383962
1033.083726
1633.072759
5406.214111
5636.770394
4880.283978
5486.589822
1718.782527
1733.468852
1688.210266
1704.152263
2187.645701
1021.507199
1653.0743
1587.729102
1686.406732
1051.484866
1055.561858
1046.606077
1049.595952
1679.403665
1622.664344
1666.311786
1134.271917
1558.908708
2157.884757
5836.809185
5417.288014
4016.800132
5693.159651
870.8390177
1237.347197
12843.68704
1175.353629
804.8995091
809.0088673
1845.361008
7410.395448
7656.754615
9162.68055
5767.850399
5310.43593
1778.035533
1765.900713
1120.052039
1745.810489
2005.107791
2833.254228
1976.193168
2625.855219
1974.315047
780.4019329
2765.863381
1972.478174
4912.215032
5116.299191
5449.46818
4006.99913
4640.203338
1303.950453
1642.392844
903.0563092
463.3951865
640.139757
1014.101751
1126.077808
669.3021369
986.1220342
1303.35361
5126.925224
5409.4109
5040.785581
5079.856805
5890.487004
5833.749907
5662.033833
3325.617846
4975.863093
4491.219322
5629.832503
5830.485069
3754.201543
4107.328162
4559.894423
5866.049297
4731.511102
3270.122562
3618.265739
2271.843785
1642.955553
2310.393546
1227.58985
1769.600614
2352.919426
2583.159623
2384.694114
3353.974904
2122.37751
2007.808956
2886.792285
2096.685838
3145.514916
3132.247168
1990.027826
1971.067749
2017.928116
1990.060009
3152.431036
2453.832876
1481.706293
1504.856822
4113.293874
4102.960585
3487.920784
4543.111104
4372.255889
4195.613656
4098.438462
4293.857889
3223.571942
1759.277667
1958.928968
1542.345123
1616.536634
2748.087813
4988.432472
4187.948342
2226.337915
5338.677379
5101.556308
5082.492201
3184.504737
4972.668885
4811.781134
1853.832454
2083.974669
3993.325094
1175.867985
1245.335537
595.7959169
669.9877124
1176.801907
800.2941142
551.077334
575.5858064
1109.057809
1070.205419
633.8131365
1080.590033
1416.170388
715.8106066
1169.995536
1151.003811
1881.922218
1304.260356
1282.216938
1434.300062
1387.823979
1988.473991
2915.874225
2735.741
1791.240153
2617.298406
2739.925349
2464.326654
2591.102834
1758.594665
2625.253688
2579.588663
3288.829052
2459.845741
956.5123569
948.9043005
1434.221223
1479.029307
907.3644367
904.4005133
1465.513309
1478.625046
1442.205977
1455.484594
824.3881342
829.1730612
1358.491972
1318.872762
815.5262899
819.8656931
866.4745756
871.5730238
1432.470101
1410.496889
855.9117362
861.2284247
3638.518737
2268.751852
2280.141783
2244.19038
2254.736978
3633.008699
3563.774341
2496.797747
2875.870983
2305.412476
2360.01083
3566.599666
957.7273109
1541.347386
1530.345937
1556.669186
1549.525576
959.9066793
943.3791693
1493.683576
1475.445693
1520.132374
1507.931967
949.6308108
984.2022281
1604.817209
1594.180429
1620.552565
1610.241667
986.9672347
967.8663319
1570.716278
1564.427581
1587.744788
1577.971366
970.8700325
1533.094695
1537.407208
642.5359942
937.064794
934.0111832
944.4572426
941.9559074
647.4639329
1521.433614
1526.446352
1604.058936
1518.316041
718.666542
1003.547206
1013.303825
1439.215488
1384.54414
797.9966418
660.122064
952.3542553
950.9980653
960.6737947
964.3049946
670.6777989
1569.639768
1562.258604
4592.079861
4450.69495
4810.449626
3245.021535
3837.450963
2625.644351
4370.953119
4430.58093
4359.544624
4369.43925
2684.925042
1929.235516
3691.378104
3114.7936
4293.237003
4436.10035
2223.030185
1049.360644
732.7872594
734.7193405
718.4736518
721.2096564
1036.667828
1688.074874
1702.58992
1656.294768
1673.837119
1645.435956
2092.224256
1504.32903
869.8850225
960.1024973
761.7398747
784.8882288
1091.641711
1444.086429
2004.200223
1581.222846
1503.876417
1007.557141
1635.345541
1621.307155
1672.986027
1627.54299
1003.689138
1616.922368
1629.30288
1575.80879
1588.175051
4992.612084
3164.062264
3397.9883
2334.789536
2827.866735
5082.822945
5090.785165
4925.864159
3711.49807
4298.696081
5445.110317
5476.468169
4000.514598
4257.482757
3099.554586
3573.978764
5663.768854
1766.397105
1767.439867
1748.86215
1752.258647
1161.979747
1174.13882
810.6520168
1830.688737
1730.688231
1785.954999
1776.327261
1719.972359
1065.516405
1073.801808
1057.699445
1063.56031
1715.995217
1758.600741
1088.000353
1146.610576
1075.561955
1090.910623
1761.82972
5260.437839
839.1158821
845.2890467
1224.910849
5543.27817
8516.152065
8880.51586
8264.976978
8317.181949
6167.833075
1877.366652
6124.536229
4306.321536
4701.237883
1136.898573
1803.780867
1786.591565
6163.332713
6757.03838
6499.83521
5278.641333
5765.289637
7152.639642
6788.582788
4299.953002
6444.204634
5527.931137
2236.521246
1796.353688
1202.508934
31.76763379
31.77762918
31.8633241
31.78186712
31.80010105
31.87441226
31.80721429
31.83569524
31.89241206
31.84574693
31.88077509
31.9161541
31.89069487
31.92298001
31.93839535
31.92891396
31.93858386
31.94887977
31.93861749
31.92653939
31.94296638
31.91944573
31.89093986
31.92400688
31.88156856
31.84887045
31.90120122
31.8393913
31.81230761
31.88188141
31.65434688
31.6756648
31.75055029
31.6852544
31.72491269
31.77798599
31.74171781
31.8031948
31.82168737
31.82569912
31.8976422
31.87605888
31.91872303
31.97522919
31.92567811
31.98540402
32.00533162
31.9431757
31.99738748
31.97269677
31.9287135
31.95661239
31.90063329
31.88603568
31.88062309
31.81916118
31.83635543
31.79805754
31.74617705
31.79231791
31.55330735
31.59728111
31.65331784
31.61767337
31.69955567
31.71301674
31.73415659
31.86862567
31.80682872
31.92235446
32.10355915
31.92015233
32.14276861
32.2710388
32.02369305
32.30269278
32.3374982
32.04518263
32.29301865
32.21778877
32.00190185
32.17120752
32.03999697
31.91681169
31.9946037
31.8644781
31.82185335
31.82526785
31.72590986
31.73547587
31.46962621
31.55035904
31.58223573
31.58758285
31.75281905
31.70376921
31.83162824
32.16169017
31.91340531
32.30402821
32.8673942
32.19342759
32.99749426
33.49883936
32.47081266
33.57178097
33.59752058
32.47736974
33.37329104
33.00390588
32.32223164
32.84484394
32.46630438
32.10278761
32.35284442
32.06149811
31.89495031
31.97988014
31.78157841
31.73065906
31.40981624
31.54338991
31.54476055
31.61169776
31.94124356
31.7854079
32.10696024
32.89659467
32.29044917
33.30237516
35.47270666
33.16737573
36.32956728
41.95203939
34.31641349
41.95024028
39.75061155
34.15970474
37.87888821
35.38222556
33.33888296
34.74740634
33.49016734
32.63204434
33.1918093
32.51502236
32.14248581
32.34311122
31.94929618
31.81022205
31.3683197
31.57820329
31.54767301
31.6926323
32.26283489
32.00864144
32.56896298
34.20261086
33.17423745
35.19152862
44.53258539
36.45339158
41.72030811
47.95355357
40.30318001
59.37272342
57.50652434
44.61689518
47.10139893
41.79504305
39.36902194
39.49865856
35.5610035
33.86407056
34.81653703
33.32209572
32.67609914
32.98543522
32.26267897
32.01174697
31.33961444
31.64220292
31.58999863
31.80788477
32.6365706
32.3513889
33.08707735
35.54938916
34.56846699
36.21960192
38.12866062
37.42025647
52.84722436
59.83731773
57.1730454
88.27906506
63.81520185
53.74841415
47.68211198
38.76886088
36.22580218
37.28146287
34.50991078
33.58299352
33.92643692
32.71949992
32.36318236
31.32296542
31.72275734
31.66153213
31.93702072
32.98615504
32.72811053
33.54576872
36.51552538
35.81903156
37.73934744
40.2212845
39.79403115
61.44735798
72.74753123
71.42635296
139.5653643
87.81704346
79.16049464
55.898875
42.31622855
39.59781301
40.05127245
35.87835697
34.82370132
35.0163985
33.26431073
32.84862403
31.31633006
31.81106593
31.7444739
32.06964412
33.30521945
33.06812085
33.95099688
37.32005288
36.71602217
38.8349221
41.72593158
41.33508337
69.63412398
91.27590933
88.46081291
157.8297341
101.2180277
97.62460228
61.31466385
45.25911607
43.05576699
42.4418026
37.18464863
36.19689925
36.07516973
33.81708651
33.40384587
31.31904106
31.90535267
31.83507667
32.20616468
33.61834812
33.38360781
34.34760906
38.17066436
37.51103228
39.96714079
43.50699927
42.93710147
79.06427757
108.6835801
105.0257174
152.8966814