/*--------------------------------*- C++ -*----------------------------------*\
| =========                 |                                                 |
| \\      /  F ield         | OpenFOAM: The Open Source CFD Toolbox           |
|  \\    /   O peration     | Version:  v1912                                 |
|   \\  /    A nd           | Website:  www.openfoam.com                      |
|    \\/     M anipulation  |                                                 |
\*---------------------------------------------------------------------------*/
FoamFile
{
    version     2.0;
    format      ascii;
    class       volVectorField;
    location    "0.32";
    object      U;
}
// * * * * * * * * * * * * * * * * * * * * * * * * * * * * * * * * * * * * * //

dimensions      [0 1 -1 0 0 0 0];


internalField   nonuniform List<vector> 
12556
(
(99.99926031 0.001832680003 -3.752747357e-21)
(99.99890858 0.006413700891 -6.724777573e-26)
(99.99802912 0.01423160911 -3.750176509e-21)
(99.99645094 0.02760395212 -3.733052236e-21)
(99.99972524 0.02236223429 3.609851905e-21)
(99.99816192 0.03787917724 0)
(99.99712135 0.06256351268 0)
(99.9967417 0.09733337335 -6.467422558e-21)
(99.99567266 0.1446200417 7.615241306e-22)
(99.99477919 0.2045827638 -5.100283737e-21)
(99.99451037 0.2722908119 5.839841734e-22)
(99.99552102 0.3362283584 0)
(99.99793431 0.3797130656 0)
(100.0010314 0.3892008215 6.369780771e-22)
(100.0035386 0.3629237658 -1.219941128e-21)
(100.0049394 0.3113958662 8.319970076e-22)
(100.0051229 0.2495041418 0)
(100.0048372 0.1895695438 1.450579966e-21)
(100.0046226 0.1365649374 5.975787504e-21)
(100.0024862 0.09717306359 -1.699714766e-21)
(100.0103306 0.1123747842 -1.483549451e-20)
(100.0071977 0.06990332785 0)
(100.0053614 0.03749293054 -1.87162407e-21)
(100.0052161 0.01186518018 -1.318830052e-20)
(99.99331983 0.004656488058 1.501976085e-20)
(99.98953731 0.01671919115 3.755526464e-21)
(99.98128723 0.03780314635 2.626040167e-20)
(99.96706138 0.07507116226 -1.124822342e-20)
(99.96832163 0.1052595917 3.634988181e-21)
(99.94577494 0.1806230533 -3.497676085e-23)
(99.91575851 0.2987050589 0)
(99.89844144 0.4090837759 -6.452333162e-21)
(99.86136386 0.6151604818 -6.044647882e-21)
(99.82726851 0.8825997494 -1.072721536e-20)
(99.81011908 1.194233721 -4.539213062e-21)
(99.82878832 1.500772546 -6.161779983e-21)
(99.89364271 1.721811819 -1.571680337e-21)
(99.98132493 1.783233682 -1.928874437e-22)
(100.0657622 1.677038193 -4.199741751e-22)
(100.1186239 1.442865892 4.26715887e-21)
(100.1348973 1.155631223 -8.613873321e-21)
(100.1228898 0.8800735904 0)
(100.1340673 0.6717389895 -2.551286808e-20)
(100.0972287 0.4631783681 4.934248841e-20)
(100.0972188 0.3224196635 1.436622142e-20)
(100.0690495 0.1997971563 2.972570762e-20)
(100.0524027 0.1075014061 -2.981373919e-20)
(100.0462158 0.03408725827 1.506096612e-20)
(99.98266336 0.005115344839 -1.498633229e-20)
(99.97203787 0.01966816871 -3.007370177e-20)
(99.9493037 0.04783789705 -6.756116283e-20)
(99.91150926 0.09869799408 8.992832043e-20)
(99.88903991 0.1617965227 -7.427508507e-21)
(99.82304239 0.2890299654 -7.266892337e-21)
(99.73085245 0.4889851463 -1.26315023e-20)
(99.67375857 0.7141887428 0)
(99.55498304 1.100440856 2.498317245e-20)
(99.4423862 1.617620862 7.741379765e-20)
(99.38616539 2.255767793 -3.077408558e-19)
(99.46647349 2.905299434 -4.087402467e-19)
(99.71428482 3.385666832 2.550755047e-19)
(100.0506103 3.513797056 0)
(100.348583 3.27561058 0)
(100.5213033 2.782094443 3.408147087e-21)
(100.5565687 2.191013994 -9.296874993e-21)
(100.4982925 1.626491675 -2.240034089e-20)
(100.446464 1.156174256 -1.530565904e-19)
(100.3321228 0.7854786804 -3.422891348e-20)
(100.2706351 0.4915511446 -1.478420037e-20)
(100.1946232 0.302885209 3.362679941e-20)
(100.1484233 0.1629585477 -3.785009646e-21)
(100.1283598 0.05141943218 0)
(99.97254249 0.001721490038 -7.542941443e-21)
(99.95222712 0.01050659141 5.283526897e-20)
(99.90916224 0.03658518647 -1.511310466e-20)
(99.83837785 0.08833124384 0)
(99.78022569 0.1752246337 0)
(99.64917804 0.3362752949 -5.853872767e-20)
(99.46417889 0.5973610666 -1.172664441e-19)
(99.30658822 0.9247634561 2.77167165e-20)
(99.03619112 1.477058461 -2.381833531e-19)
(98.75247089 2.282727956 -7.563918725e-19)
(98.59274183 3.345751613 3.487919173e-20)
(98.75103166 4.530157372 0)
(99.36822688 5.415870416 9.768615396e-19)
(100.2459831 5.581693823 -4.79371959e-21)
(100.9303015 5.049810744 3.858048164e-19)
(101.2513141 4.151671231 -2.939330786e-19)
(101.2740951 3.166495159 1.636342384e-19)
(101.1235403 2.28765406 0)
(100.9345771 1.54353128 5.610324797e-20)
(100.6898621 1.023537859 -4.359964926e-20)
(100.5151262 0.5970406595 -3.793654552e-20)
(100.3719517 0.362625378 1.92425558e-20)
(100.2827003 0.1931062928 -3.865603003e-21)
(100.2419551 0.06045418029 0)
(99.97205227 -0.006454450258 0)
(99.94046979 -0.01379191994 0)
(99.87421998 -0.00207100294 7.599267271e-21)
(99.76430839 0.03767605045 1.150400088e-20)
(99.66111319 0.1340401277 1.903021493e-20)
(99.44695046 0.3013265776 0)
(99.14409447 0.5778836182 0)
(98.8397669 0.9775270048 -1.724091443e-19)
(98.32963397 1.675295805 2.192643703e-19)
(97.74682058 2.772947629 1.048487731e-19)
(97.26768061 4.432984545 0)
(97.4556793 6.53048667 -7.67083898e-20)
(98.86507629 8.205726795 -3.697093902e-20)
(100.8489405 8.291989265 5.10172242e-21)
(102.1371891 7.057994022 -1.855772604e-20)
(102.5404153 5.446816333 -6.771978008e-19)
(102.3913514 3.977025398 -4.320453941e-19)
(101.9961887 2.754897831 -5.875398131e-22)
(101.5785331 1.766736046 -9.38584956e-20)
(101.1472791 1.137738943 7.830049381e-21)
(100.8019786 0.6099559239 0)
(100.5744818 0.3651473623 3.954348298e-21)
(100.432046 0.1902114813 -2.969385149e-21)
(100.3657649 0.05877382824 -9.851379281e-22)
(99.99150623 -0.01973115028 0)
(99.94841469 -0.05407315783 0)
(99.85919633 -0.07007388676 -1.523948251e-20)
(99.70924837 -0.05862134516 3.095595389e-20)
(99.55053209 0.02959127022 0)
(99.25010859 0.1704127821 0)
(98.81300608 0.4208910176 2.419438422e-20)
(98.33053314 0.834527943 -6.050552985e-20)
(97.51532441 1.564300333 -2.394277318e-19)
(96.39464767 2.851745461 0)
(95.1448083 5.142772077 -3.333339813e-20)
(94.79026106 8.8568312 1.112845146e-19)
(97.72973273 12.63598191 -1.452210859e-20)
(102.4763294 12.20532124 1.212336774e-19)
(104.5423429 9.153330092 -2.071240672e-19)
(104.6126057 6.426222846 0)
(103.9507054 4.407582896 4.323429938e-19)
(103.1138481 2.91985232 0)
(102.3216372 1.746864364 2.421065818e-20)
(101.6535427 1.086238333 -1.628041293e-20)
(101.0975855 0.5150861942 0)
(100.7717003 0.2997497921 0)
(100.5703179 0.1486574819 -1.002187186e-21)
(100.476076 0.04486258463 -3.012023995e-21)
(100.0408775 -0.03779905695 3.719300531e-21)
(99.98736504 -0.10920736 -3.745574719e-21)
(99.87796157 -0.1656438424 7.6346514e-21)
(99.69242429 -0.1984927043 -2.795037168e-20)
(99.47771026 -0.1386813002 7.099403899e-23)
(99.09723798 -0.05696468048 2.378693581e-20)
(98.53752573 0.1198644833 -4.916532584e-20)
(97.86703239 0.4713526861 -2.513238206e-19)
(96.72920055 1.075440989 -2.537043448e-19)
(94.92047076 2.222994032 7.142342848e-20)
(92.25518578 4.437177859 0)
(88.76598159 9.728520597 4.449552221e-23)
(93.43527871 20.91120436 1.82931824e-19)
(107.4685622 18.05309309 4.451732838e-19)
(108.8827464 10.6678829 -2.019922623e-19)
(107.5206379 6.554652662 0)
(105.8701404 4.150220309 7.302754543e-19)
(104.3587466 2.606173067 -1.539443467e-19)
(103.0621839 1.413981015 0)
(102.1427465 0.8244733599 8.996421784e-21)
(101.3536033 0.3097225705 2.647708955e-21)
(100.927988 0.1594133711 -3.128719343e-21)
(100.6702405 0.06713836647 -3.560128712e-21)
(100.5486231 0.0185586982 8.556432641e-21)
(100.1287972 -0.05975793774 -3.719697341e-21)
(100.0671534 -0.1763513653 3.746926668e-21)
(99.94260846 -0.2831582695 -4.749601356e-21)
(99.73065568 -0.3730183963 -3.186469154e-21)
(99.46674613 -0.3600596498 1.356325816e-20)
(99.02511889 -0.3638114112 8.05251479e-21)
(98.37419559 -0.3064206101 -4.164017846e-21)
(97.56723112 -0.0972995057 -3.943177441e-21)
(96.18818274 0.216092664 0)
(93.9038304 0.7823597772 0)
(90.23642309 1.570331295 -6.475263712e-19)
(83.43692317 2.598192045 0)
(120.980032 21.81875269 -3.108574476e-19)
(115.1303144 9.327780185 3.014368185e-19)
(110.7820231 5.049620556 -8.543206743e-21)
(107.7658794 2.947223724 0)
(105.5106283 1.702091939 -8.785587153e-21)
(103.6673532 0.7464819931 -4.818239348e-21)
(102.51858 0.3596972966 2.036657567e-20)
(101.5141983 -0.002045466633 -3.241308592e-21)
(101.0067912 -0.04672528456 2.648822727e-21)
(100.7042874 -0.04935058519 -5.115515575e-22)
(100.55948 -0.01891531147 -8.058203661e-21)
(100.2617048 -0.08421703301 -1.793269814e-21)
(100.1951217 -0.2511712418 -1.347287352e-21)
(100.0621619 -0.4144426146 -4.61269274e-22)
(99.83570725 -0.5689139079 1.394726774e-21)
(99.53505328 -0.6159269444 -2.512382489e-23)
(99.0594238 -0.7207234546 0)
(98.36292207 -0.8055632153 2.077711976e-21)
(97.49842184 -0.7816958203 0)
(96.04015276 -0.8195979688 0)
(93.7391785 -0.908468231 0)
(90.56269633 -1.419270031 2.140017841e-19)
(87.03248835 -3.230772906 9.247678332e-19)
(133.936474 8.234447107 2.272552301e-18)
(119.8195731 3.516252127 7.719160568e-19)
(113.0999945 1.715960974 4.435945916e-19)
(109.0500139 0.8102156538 3.645311388e-21)
(106.2534441 0.2906042029 -7.20761002e-19)
(103.9933457 -0.179714753 -4.956137057e-21)
(102.6892773 -0.2653180754 1.151142077e-20)
(101.5365156 -0.3889390927 1.119597769e-21)
(100.9786598 -0.2994949492 0)
(100.6490193 -0.1904095903 4.073003948e-21)
(100.48889 -0.06446469591 4.021507788e-21)
(100.443024 -0.1094866925 3.535035937e-21)
(100.3750946 -0.3284504142 5.220565533e-23)
(100.2411374 -0.5498347729 0)
(100.0132085 -0.7713830983 1.836073911e-22)
(99.69073801 -0.8851342562 -1.862542321e-21)
(99.2100103 -1.093765856 1.97513576e-21)
(98.51544414 -1.321469677 -2.031291865e-20)
(97.66105656 -1.48186483 0)
(96.25737475 -1.821795886 -8.376019264e-21)
(94.17402993 -2.336945815 1.90359552e-19)
(91.65093161 -3.224094324 0)
(89.41704392 -4.534339181 3.833455511e-19)
(132.4002058 -7.115024803 1.059510555e-18)
(120.0129105 -3.706905974 -7.478426358e-19)
(113.4003428 -2.401312027 0)
(109.2512168 -1.761547699 2.475419162e-19)
(106.3508398 -1.381333191 9.921675376e-20)
(103.9389808 -1.228558762 4.207774865e-20)
(102.600627 -0.9688980109 0)
(101.3940755 -0.8064876422 -1.097533276e-21)
(100.8261216 -0.5720020727 -4.51992473e-21)
(100.4903652 -0.3420886603 5.042186009e-22)
(100.3249595 -0.1135988956 0)
(100.6728322 -0.1339215611 -1.741615024e-21)
(100.6069811 -0.4030030097 1.756053446e-21)
(100.4788499 -0.6797794766 1.71420338e-21)
(100.2630596 -0.9660049597 -1.597862529e-21)
(99.93189582 -1.146888668 -1.837591317e-21)
(99.47211179 -1.450720742 0)
(98.8184078 -1.807106469 -3.322083252e-20)
(98.01840748 -2.127566813 -1.467254819e-20)
(96.732221 -2.693836373 0)
(94.87637763 -3.453801306 2.863305722e-22)
(92.69940257 -4.424799219 -3.539390514e-19)
(90.78507566 -5.401939185 -7.265996958e-19)
(124.5652144 -15.90928893 -1.6190684e-18)
(116.7484857 -9.213933286 0)
(111.8080619 -5.959658932 -1.366223911e-19)
(108.3496552 -4.130309737 4.44117928e-19)
(105.7674772 -2.975294696 9.013515083e-20)
(103.4904143 -2.227991256 0)
(102.2502102 -1.651290617 -2.739564709e-20)
(101.0831836 -1.207167421 -1.3675702e-20)
(100.5466775 -0.8343529214 1.029363385e-21)
(100.2257356 -0.4890179117 -3.25242399e-21)
(100.0652092 -0.1614099453 4.766741666e-22)
(100.9479488 -0.156035467 6.411304189e-21)
(100.8872881 -0.4700797349 0)
(100.7703065 -0.7943164148 -1.710861839e-21)
(100.5762873 -1.144817858 0)
(100.245099 -1.383932447 0)
(99.83153723 -1.765739849 -5.468104278e-21)
(99.24689597 -2.22845488 -2.830563175e-20)
(98.52690066 -2.678270756 -2.250246657e-19)
(97.3862441 -3.410726696 2.383415356e-19)
(95.72712754 -4.344771982 -2.537137772e-20)
(93.70458175 -5.424576646 3.206709713e-19)
(91.78312905 -6.383125 -1.181975586e-19)
(115.9388513 -19.30377614 -2.700999999e-19)
(112.0791388 -12.12558717 0)
(109.1131367 -8.248532245 -9.81123336e-19)
(106.6755226 -5.847573124 4.084391052e-19)
(104.6541566 -4.219598102 -4.693093959e-21)
(102.722849 -3.038350419 2.183162243e-21)
(101.677665 -2.227942988 -3.320023531e-20)
(100.6268816 -1.554619522 8.099805629e-21)
(100.1536512 -1.059714201 0)
(99.86380186 -0.6176540408 3.74777214e-21)
(99.71659127 -0.2035312583 0)
(101.2627416 -0.1753224449 6.403124747e-21)
(101.2092357 -0.529007129 1.011668128e-19)
(101.1060479 -0.8935609784 -2.037771785e-19)
(100.9364926 -1.295284116 -5.210773326e-22)
(100.6361097 -1.579309517 -1.610063559e-21)
(100.2717377 -2.021433309 0)
(99.77468452 -2.564699903 -1.141338581e-19)
(99.14461927 -3.110031206 2.641930298e-19)
(98.17301593 -3.961094646 1.887519485e-19)
(96.72689865 -5.045484315 -1.373835716e-19)
(94.87709276 -6.351039137 4.204205722e-19)
(92.97112155 -7.556689964 -1.167930644e-19)
(104.4521025 -28.37039296 -1.025027476e-19)
(107.8592338 -18.12521131 5.527508583e-19)
(107.4759985 -12.70576559 0)
(106.1424521 -9.175398189 0)
(104.6805402 -6.757604731 -6.214107078e-19)
(103.2621249 -4.985552117 2.813997724e-19)
(101.7641745 -3.581163249 -6.605999807e-20)
(100.9502066 -2.644180747 0)
(100.0683402 -1.819304154 0)
(99.67174365 -1.231829743 1.167941122e-20)
(99.42208389 -0.7190629966 2.156404085e-21)
(99.29380168 -0.236913002 -6.976977328e-21)
(101.60939 -0.1899965103 0)
(101.5643896 -0.5744126789 0)
(101.4780005 -0.9692107906 0)
(101.3352864 -1.403284488 0)
(101.0660899 -1.733163318 0)
(100.7536598 -2.223363221 0)
(100.3438891 -2.824254763 6.382432202e-21)
(99.82124087 -3.426665373 1.384688259e-19)
(99.03090403 -4.345728848 0)
(97.84689016 -5.533122911 -2.07295882e-19)
(96.37041715 -7.104175127 -5.697276794e-20)
(94.79110158 -9.303669229 -5.891658913e-20)
(97.65628664 -18.37843373 -2.341264895e-20)
(102.9539334 -14.96018443 1.159614194e-19)
(103.8692463 -11.66343209 6.352969532e-21)
(103.5234624 -9.028488525 6.157347301e-19)
(102.7526542 -6.96191364 4.909417194e-19)
(101.8157488 -5.28751869 -1.492949704e-19)
(100.7391759 -3.861817299 -9.08316636e-20)
(100.1457769 -2.893670246 -3.422641727e-20)
(99.4495647 -1.982928332 -1.898832571e-20)
(99.12931248 -1.347885404 1.865742654e-20)
(98.92315973 -0.789300515 0)
(98.81623096 -0.2600085408 1.866126189e-20)
(101.9797723 -0.1999258759 0)
(101.9442052 -0.6053693178 0)
(101.8769839 -1.020572481 0)
(101.7633089 -1.470627362 0)
(101.5265036 -1.828739477 0)
(101.2778251 -2.343707786 0)
(100.9597058 -2.955212011 -2.254406662e-22)
(100.5530256 -3.579370109 -1.718668143e-19)
(99.97147786 -4.479451281 -3.347757565e-19)
(99.08915455 -5.637132307 -3.450494961e-19)
(98.14693793 -7.147826069 1.773412994e-19)
(97.23459984 -9.195294953 -4.063568551e-20)
(99.08006927 -11.9062091 1.240280858e-20)
(100.9363177 -11.53623717 5.991345598e-20)
(101.5820265 -9.974542686 -2.644500257e-19)
(101.5277217 -8.263192303 0)
(101.1081235 -6.67257407 9.216844784e-20)
(100.4987214 -5.250046671 -2.382015734e-20)
(99.73794905 -3.924216693 0)
(99.33939317 -2.998148494 0)
(98.80441327 -2.055580242 -3.508410725e-20)
(98.55426093 -1.408983292 1.731161926e-20)
(98.39060104 -0.8277167397 7.264139277e-22)
(98.30457775 -0.2726862237 -1.283547379e-20)
(102.3649979 -0.2052118343 0)
(102.3385879 -0.6217281324 0)
(102.2900658 -1.047444921 0)
(102.204533 -1.500977557 0)
(101.9995155 -1.874547701 0)
(101.8091933 -2.393017736 0)
(101.5731074 -2.989301677 -3.295835794e-22)
(101.2694339 -3.598986425 0)
(100.8564649 -4.419954957 0)
(100.2214002 -5.421629497 -2.720444772e-19)
(99.58725412 -6.615043528 2.533184568e-19)
(96.73083983 -7.642959565 1.050686218e-19)
(99.86281935 -9.164703816 -1.170714992e-19)
(100.2251586 -9.122633824 2.293224663e-21)
(100.3010362 -8.375283062 -2.768219848e-21)
(100.1397652 -7.305640012 -4.639811367e-21)
(99.81228146 -6.128741623 -3.868509984e-20)
(99.37608735 -4.983916511 0)
(98.82998569 -3.825994774 -2.904093189e-20)
(98.57269348 -2.984362796 4.456485259e-20)
(98.16320729 -2.054770418 1.086479165e-20)
(97.9728923 -1.42204191 1.856250257e-20)
(97.84603595 -0.8376945283 -2.10768231e-20)
(97.77817603 -0.2760217789 0)
(102.7564575 -0.2063437791 0)
(102.7381846 -0.6249442166 0)
(102.7059039 -1.052124824 0)
(102.645025 -1.499170577 0)
(102.4689237 -1.876972137 0)
(102.3286073 -2.382125784 0)
(102.1582757 -2.945074918 0)
(101.9293917 -3.518158955 -1.721621931e-20)
(101.6293488 -4.228523788 3.720042309e-19)
(101.1385297 -5.033361468 2.218397574e-19)
(100.5956544 -5.900995217 -3.665044465e-19)
(97.35068902 -6.516869879 0)
(100.2974925 -7.457154745 -1.093591648e-19)
(99.96685165 -7.462551068 0)
(99.58505586 -7.059153295 -1.03610588e-19)
(99.21284377 -6.359714353 9.273726117e-20)
(98.83016866 -5.497567827 0)
(98.45813879 -4.606142296 0)
(98.04029119 -3.629092352 0)
(97.86529663 -2.880345839 0)
(97.54930666 -1.997843771 3.735991043e-20)
(97.40560968 -1.396349424 -3.494002067e-20)
(97.30725778 -0.8241890605 -2.369315054e-21)
(97.25359425 -0.2719868175 2.377119451e-21)
(103.146438 -0.2039771693 0)
(103.1350009 -0.6171458105 0)
(103.1158442 -1.038146516 0)
(103.0749595 -1.470566876 0)
(102.9240077 -1.842875343 0)
(102.8223509 -2.323351332 0)
(102.6996431 -2.842872043 0)
(102.5160768 -3.368396112 0)
(102.2717063 -3.968318643 2.603212118e-20)
(101.8403642 -4.59852643 1.857043205e-19)
(101.3002635 -5.230305845 1.531753267e-19)
(98.02204359 -5.590809334 -9.443006884e-20)
(100.5793581 -6.251506367 1.049568301e-19)
(99.8679107 -6.261487428 -4.970774358e-22)
(99.15312863 -6.00575479 -3.178359956e-20)
(98.56952231 -5.515821577 0)
(98.09525331 -4.877508586 0)
(97.72269687 -4.185253553 0)
(97.36073858 -3.369865644 0)
(97.22808796 -2.715813063 0)
(96.97523083 -1.899919819 0)
(96.86472102 -1.339934845 0)
(96.78739953 -0.7935888943 0)
(96.74406887 -0.2629752931 0)
(103.5286832 -0.198796514 0)
(103.5226884 -0.6005617963 0)
(103.5134466 -1.009363844 0)
(103.4875534 -1.421468058 0)
(103.3565737 -1.780882606 0)
(103.2820803 -2.230205587 0)
(103.1891421 -2.702394727 0)
(103.0293374 -3.174445762 0)
(102.7957545 -3.682944605 0)
(102.3679268 -4.181184336 1.227677268e-21)
(101.7939318 -4.647346972 -2.079274101e-21)
(98.01400336 -4.790288623 4.922255803e-20)
(100.7409056 -5.351263792 -1.739753566e-20)
(99.80073789 -5.347112728 8.509719948e-22)
(98.8491641 -5.156309018 0)
(98.10040611 -4.794730065 0)
(97.53637154 -4.313169186 0)
(97.13101964 -3.765703654 0)
(96.78424512 -3.085052175 0)
(96.66478604 -2.520334175 0)
(96.44798356 -1.778306718 0)
(96.35824345 -1.264067065 0)
(96.29426898 -0.7506709773 0)
(96.25871662 -0.2493946204 0)
(103.8984091 -0.1914968557 0)
(103.8964341 -0.5774322265 0)
(103.893966 -0.96965586 0)
(103.878202 -1.358102503 0)
(103.7619496 -1.699703894 0)
(103.7042226 -2.114909995 0)
(103.6265734 -2.541122125 0)
(103.4732328 -2.959286119 0)
(103.2282692 -3.389312956 0)
(102.7735848 -3.791850107 0)
(102.1456504 -4.150670467 0)
(97.44668684 -4.121889937 0)
(100.8302382 -4.652272068 0)
(99.72213591 -4.624737201 0)
(98.61553379 -4.470007451 0)
(97.74579673 -4.190879405 0)
(97.10007226 -3.814591397 0)
(96.64945232 -3.373229439 0)
(96.29460881 -2.800710621 0)
(96.17004961 -2.313839631 0)
(95.96957181 -1.645665103 0)
(95.89054358 -1.177589395 0)
(95.83362862 -0.7009178455 0)
(95.80269086 -0.2333535006 0)
(104.2522146 -0.1827506417 0)
(104.2529066 -0.5498998054 0)
(104.2543201 -0.9226523733 0)
(104.2443182 -1.286014578 0)
(104.1380794 -1.606935941 0)
(104.0884365 -1.98767995 0)
(104.0143893 -2.37226023 0)
(103.8562412 -2.739166366 0)
(103.5871203 -3.104058013 0)
(103.0967844 -3.433589121 0)
(102.4134949 -3.718215897 0)
(97.08750742 -3.620944348 0)
(100.8704045 -4.086127058 -5.704880566e-35)
(99.64519676 -4.042531005 0)
(98.42835868 -3.90960077 0)
(97.46614104 -3.683822649 0)
(96.7502524 -3.380110803 0)
(96.25310578 -3.017611865 0)
(95.87583317 -2.531438465 0)
(95.73592613 -2.109522367 0)
(95.53833714 -1.510855699 0)
(95.4624239 -1.087165104 0)
(95.40778149 -0.6483342984 0)
(95.37913649 -0.2162893915 0)
(104.5879283 -0.1731548337 0)
(104.5901001 -0.5198629203 0)
(104.5929195 -0.8715282341 0)
(104.5849695 -1.209722708 0)
(104.4849555 -1.508727431 0)
(104.4365551 -1.856546294 0)
(104.3572552 -2.203484681 0)
(104.1873585 -2.524718419 0)
(103.8875343 -2.8363935 0)
(103.3597426 -3.110316295 0)
(102.6174795 -3.340614259 0)
(96.9416492 -3.221606734 0)
(100.8813703 -3.615264139 0)
(99.57001586 -3.563574375 0)
(98.27127329 -3.445308543 0)
(97.23742493 -3.255870407 0)
(96.46255814 -3.003685752 0)
(95.921383 -2.699982419 0)
(95.51542961 -2.283155952 0)
(95.35425445 -1.915257826 0)
(95.15075485 -1.379912662 0)
(95.07264623 -0.9975194835 0)
(95.01690243 -0.5957999535 0)
(94.98880203 -0.1991652358 0)
(104.9044645 -0.1632010296 0)
(104.9071321 -0.4888831235 0)
(104.909382 -0.818916015 0)
(104.9004896 -1.132714151 0)
(104.803779 -1.409787895 0)
(104.7515142 -1.727128614 0)
(104.66095 -2.040205612 0)
(104.4749618 -2.322158592 0)
(104.1418425 -2.590667262 0)
(103.5782865 -2.822109244 0)
(102.7709212 -3.011257737 0)
(96.94233022 -2.892349444 0)
(100.8724878 -3.220322839 -7.639922609e-35)
(99.49650799 -3.164116196 0)
(98.13499044 -3.056441418 0)
(97.04469633 -2.892928711 0)
(96.22052535 -2.67843601 0)
(95.63924873 -2.419336382 0)
(95.20278877 -2.058408654 0)
(95.01744209 -1.735421259 0)
(94.80260632 -1.25665558 0)
(94.71882831 -0.9117768365 0)
(94.65975591 -0.5452603558 0)
(94.63095798 -0.1826261201 0)
(105.2016298 -0.1532755516 0)
(105.2040061 -0.4581673178 0)
(105.204202 -0.7668566027 0)
(105.1920985 -1.057611362 0)
(105.0963693 -1.313527261 0)
(105.0366807 -1.603245392 0)
(104.9308404 -1.885789265 0)
(104.7264028 -2.134923377 0)
(104.3598097 -2.368428602 0)
(103.7636052 -2.56723399 0)
(102.8847657 -2.724370488 0)
(97.04107253 -2.616244375 0)
(100.8498996 -2.886495355 0)
(99.42460373 -2.827734894 0)
(98.01385368 -2.72816458 0)
(96.87830183 -2.583916422 0)
(96.01284953 -2.397789192 0)
(95.39571135 -2.173191908 0)
(94.92911851 -1.857644922 0)
(94.71876617 -1.572054476 0)
(94.48955277 -1.143243051 0)
(94.39798984 -0.8318615129 0)
(94.3342156 -0.4979507171 0)
(94.30387887 -0.1670855542 0)
(105.4798879 -0.1436721664 0)
(105.4813601 -0.4286085753 0)
(105.4784362 -0.7168463326 0)
(105.461502 -0.9862926175 0)
(105.3649839 -1.2223187 0)
(105.2954922 -1.487303931 0)
(105.172224 -1.742604639 0)
(104.9477589 -1.96453812 0)
(104.5490738 -2.16970329 0)
(103.923407 -2.343196904 0)
(102.9677048 -2.474934642 0)
(97.20247406 -2.38242706 0)
(100.8179737 -2.60281254 2.648170571e-35)
(99.35434344 -2.542740923 0)
(97.90424083 -2.449647962 0)
(96.73182393 -2.320196777 0)
(95.83163679 -2.155955922 0)
(95.18272581 -1.958526704 0)
(94.68742859 -1.68011745 0)
(94.45245156 -1.425745519 0)
(94.20739415 -1.040688522 0)
(94.10689812 -0.758840429 0)
(94.03766812 -0.4545871048 0)
(94.00525592 -0.1527889432 0)
(105.7401637 -0.134606789 0)
(105.7402681 -0.4008443626 0)
(105.7334913 -0.6699339729 0)
(105.7106306 -0.9200332726 0)
(105.6120163 -1.137698053 0)
(105.5311916 -1.380723891 0)
(105.3894439 -1.612380552 0)
(105.1443109 -1.811396304 0)
(104.7156798 -1.993668833 0)
(104.0631421 -2.147289937 0)
(103.0265293 -2.258676388 0)
(97.40165267 -2.183339704 0)
(100.7795644 -2.361241191 0)
(99.28572954 -2.300533524 0)
(97.80366492 -2.212738272 0)
(96.60079914 -2.094936484 0)
(95.67119038 -1.94793239 0)
(94.99423323 -1.7722174 0)
(94.47211765 -1.524439322 0)
(94.21356412 -1.296194645 0)
(93.95220798 -0.9492550618 0)
(93.84229279 -0.6931814939 0)
(93.76728689 -0.4155137768 0)
(93.73248697 -0.1398607581 0)
(105.9837129 -0.1262303701 0)
(105.98211 -0.3753082171 0)
(105.9710039 -0.6268198314 0)
(105.9415198 -0.8596464418 0)
(105.8398217 -1.060620753 0)
(105.7467495 -1.284352865 0)
(105.5860789 -1.495713323 0)
(105.3204343 -1.675348879 0)
(104.8643442 -1.839138384 0)
(104.1868167 -1.976963994 0)
(103.0666458 -2.071904286 0)
(97.62117781 -2.013327257 0)
(100.7365784 -2.155513607 0)
(99.21869855 -2.094575977 0)
(97.71034101 -2.011178215 0)
(96.48202315 -1.902715412 0)
(95.52731272 -1.769498909 0)
(94.8256063 -1.611334524 0)
(94.27870467 -1.388981505 0)
(93.99794538 -1.182633882 0)
(93.72040201 -0.868745607 0)
(93.60100897 -0.63495423 0)
(93.52019089 -0.380820039 0)
(93.48284768 -0.1283414328 0)
(106.2120305 -0.1186417394 0)
(106.2084791 -0.3522745517 0)
(106.192759 -0.5879373811 0)
(106.1562489 -0.8055939098 0)
(106.0507335 -0.9915892023 0)
(105.9449265 -1.19854063 0)
(105.7652916 -1.392547054 0)
(105.4798018 -1.55586507 0)
(104.9987526 -1.704751255 0)
(104.2974987 -1.829902904 0)
(103.0923953 -1.911496247 0)
(97.84891548 -1.868179826 0)
(100.690414 -1.980660306 0)
(99.15314945 -1.919745706 0)
(97.62291913 -1.84003507 0)
(96.37308801 -1.739152087 0)
(95.39679238 -1.617081965 0)
(94.67319468 -1.473209096 0)
(94.10349145 -1.272041877 0)
(93.80200977 -1.084041084 0)
(93.50870893 -0.7986910172 0)
(93.38003627 -0.58397712 0)
(93.29353937 -0.3504317567 0)
(93.2535996 -0.1182167042 0)
(106.4267175 -0.1119016523 0)
(106.4210527 -0.3319024465 0)
(106.4005738 -0.553529471 0)
(106.3568449 -0.7581080169 0)
(106.2469606 -0.9308166064 0)
(106.1282295 -1.123341072 0)
(105.9297681 -1.302317952 0)
(105.6254492 -1.452297508 0)
(105.1217657 -1.58914645 0)
(104.3975811 -1.704065766 0)
(103.107207 -1.774814134 0)
(98.07639923 -1.744897913 0)
(100.6420656 -1.832823287 0)
(99.08895997 -1.772045588 0)
(97.54034964 -1.695420192 0)
(96.27213961 -1.600720617 0)
(95.2771262 -1.48770613 0)
(94.53408392 -1.35550338 0)
(93.94341839 -1.172006186 0)
(93.62268236 -0.9993303931 0)
(93.31420245 -0.7385074088 0)
(93.17658606 -0.5399343847 0)
(93.08463347 -0.3241844286 0)
(93.04210791 -0.1094415625 0)
(106.6295279 -0.1060414875 0)
(106.6216322 -0.3142656519 0)
(106.5963384 -0.5237012713 0)
(106.5453435 -0.7172436023 0)
(106.4305939 -0.8783220753 0)
(106.2989564 -1.05856134 0)
(106.0821067 -1.224538421 0)
(105.7598757 -1.363830203 0)
(105.235652 -1.491000832 0)
(104.4889866 -1.597646092 0)
(103.1137358 -1.659590459 0)
(98.29785808 -1.6411547 0)
(100.5922336 -1.708931788 0)
(99.02595458 -1.648294655 0)
(97.46175876 -1.574209124 0)
(96.17768156 -1.484542082 0)
(95.16628489 -1.378881343 0)
(94.40585754 -1.256176776 0)
(93.79590701 -1.087403907 0)
(93.4572826 -0.9274494656 0)
(93.1341836 -0.6875606083 0)
(92.98802242 -0.502446594 0)
(92.89086881 -0.3018661466 0)
(92.84579742 -0.1019533337 0)
(106.8219511 -0.1010815627 0)
(106.8117603 -0.2993971555 0)
(106.781659 -0.4984710453 0)
(106.7234551 -0.6830416855 0)
(106.603563 -0.833992964 0)
(106.4591757 -1.003877975 0)
(106.2245882 -1.158947921 0)
(105.8852153 -1.289633366 0)
(105.3422523 -1.409087577 0)
(104.5732971 -1.50908208 0)
(103.1140591 -1.563917517 0)
(98.50942059 -1.555190756 0)
(100.5414021 -1.606473859 -4.514383804e-36)
(98.96391749 -1.545920389 0)
(97.38639809 -1.473877534 0)
(96.08848032 -1.388272148 0)
(95.0626019 -1.288560552 0)
(94.28644365 -1.173630778 0)
(93.65874275 -1.017016009 0)
(93.30344407 -0.8674150969 0)
(92.96640211 -0.64529554 0)
(92.81210313 -0.4711234818 0)
(92.71000844 -0.2832634179 0)
(92.6624605 -0.09569019649 0)
(107.006549 -0.09701015509 0)
(106.9939539 -0.2872677001 0)
(106.9590221 -0.4777900979 0)
(106.8936577 -0.6552405805 0)
(106.7677344 -0.7976805767 0)
(106.610754 -0.958936502 0)
(106.3594252 -1.105778234 0)
(106.0033044 -1.228782407 0)
(105.4431078 -1.342310083 0)
(104.6518472 -1.437045547 0)
(103.1098292 -1.486191672 0)
(98.70852631 -1.485583155 0)
(100.4899052 -1.523355007 0)
(98.90263587 -1.462827979 0)
(97.31362548 -1.392388028 0)
(96.00350413 -1.310007642 0)
(94.96471812 -1.215050921 0)
(94.17437897 -1.106614637 0)
(93.52981569 -0.9598943121 0)
(93.15905928 -0.8184119764 0)
(92.80808868 -0.6110173927 0)
(92.64603327 -0.445593939 0)
(92.53919225 -0.2681443063 0)
(92.48917673 -0.09057397738 0)
(107.181861 -0.09388737872 0)
(107.1669623 -0.2779722211 0)
(107.1272963 -0.4616738082 0)
(107.0549923 -0.6344262818 0)
(106.9248146 -0.7691060252 0)
(106.7554001 -0.9235186653 0)
(106.4877269 -1.064589989 0)
(106.1159719 -1.18070586 0)
(105.5395623 -1.28974214 0)
(104.7257984 -1.380414023 0)
(103.1023497 -1.425069291 0)
(98.89360713 -1.431155746 0)
(100.4379935 -1.457872619 0)
(98.84191243 -1.397333737 0)
(97.24286893 -1.328104459 0)
(95.92184013 -1.248203578 0)
(94.87140999 -1.156909328 0)
(94.06821103 -1.053308378 0)
(93.40743363 -0.9147711421 0)
(93.0221068 -0.7794072169 0)
(92.65943884 -0.5848429446 0)
(92.49005373 -0.4255495423 0)
(92.37871116 -0.2564157042 0)
(92.32640923 -0.0866023838 0)
(107.3614059 -0.09153232797 0)
(107.3436556 -0.2712181374 0)
(107.2989208 -0.4499295225 0)
(107.2184337 -0.6176222214 0)
(107.077252 -0.7483548248 0)
(106.8946265 -0.8977522796 0)
(106.6110011 -1.034482305 0)
(106.2244972 -1.144887552 0)
(105.6327204 -1.250614795 0)
(104.7961593 -1.338250371 0)
(103.0926592 -1.379461816 0)
(99.06384623 -1.391021124 0)
(100.3858835 -1.408729579 0)
(98.78157496 -1.348157647 0)
(97.17361783 -1.27977089 0)
(95.8426721 -1.201667354 0)
(94.78153687 -1.11305763 0)
(93.96615611 -1.012900262 0)
(93.29034288 -0.8807583017 0)
(92.89103952 -0.7507224946 0)
(92.51081158 -0.56388101 0)
(92.33335001 -0.4105987413 0)
(92.21733195 -0.2476627657 0)
(92.16229032 -0.08355831796 0)
(107.5012368 -0.09053231178 0)
(107.4818721 -0.2679202474 0)
(107.4333391 -0.4436837177 0)
(107.3487709 -0.6123689136 0)
(107.2233155 -0.7346144276 0)
(107.0295153 -0.880955275 0)
(106.7304064 -1.015087816 0)
(106.3300307 -1.120808463 0)
(105.7235187 -1.224231272 0)
(104.8638406 -1.309719182 0)
(103.0815979 -1.348448756 0)
(99.21922561 -1.364544986 0)
(100.3337581 -1.375042652 0)
(98.72143495 -1.314383813 0)
(97.1053766 -1.24645438 0)
(95.76524945 -1.169501017 0)
(94.69412061 -1.082702748 0)
(93.86721558 -0.9848875466 0)
(93.17723798 -0.857447982 0)
(92.76475372 -0.7313421621 0)
(92.39201846 -0.5545204494 0)
(92.20987569 -0.4016986352 0)
(92.09037488 -0.2427630477 0)
(92.03384578 -0.08200785087 0)
(107.7741044 -0.0893036289 0)
(107.7508076 -0.2654743527 0)
(107.6945496 -0.4393755465 0)
(107.5940575 -0.6017634139 0)
(107.3608576 -0.7293557564 0)
(107.1547596 -0.87362784 0)
(106.8420394 -1.006364806 0)
(106.4334307 -1.108210487 0)
(105.8125948 -1.209931787 0)
(104.9296241 -1.293975404 0)
(103.0700055 -1.331391452 0)