/*--------------------------------*- C++ -*----------------------------------*\
| =========                 |                                                 |
| \\      /  F ield         | OpenFOAM: The Open Source CFD Toolbox           |
|  \\    /   O peration     | Version:  v1912                                 |
|   \\  /    A nd           | Website:  www.openfoam.com                      |
|    \\/     M anipulation  |                                                 |
\*---------------------------------------------------------------------------*/
FoamFile
{
    version     2.0;
    format      ascii;
    class       surfaceScalarField;
    location    "0.21";
    object      meshPhi;
}
// * * * * * * * * * * * * * * * * * * * * * * * * * * * * * * * * * * * * * //

dimensions      [0 3 -1 0 0 0 0];
oriented        oriented;


internalField   nonuniform List<scalar> 
25162
(
0
0
0
0
0
0
0
0
0
0
0
0
0
0
0
0
0
0
0
0
0
0
0
0
0
0
0
0
0
0
0
0
0
0
0
0
0
0
0
0
0
0
0
0
0
0
0
0
0
0
0
0
0
0
0
0
0
0
0
0
0
0
0
0
0
0
0
0
0
0
0
0
0
0
0
0
0
0
0
0
0
0
0
0
0
0
0
0
0
0
0
0
0
0
0
0
0
0
0
0
0
0
0
0
5.59086716e-09
-1.497350857e-08
1.677019345e-07
0
-1.141220744e-08
-1.425454059e-07
0
0
0
0
0
0
0
0
0
0
0
0
0
0
0
0
0
0
0
0
0
0
0
0
0
0
0
0
0
0
0
0
0
0
0
0
0
0
0
0
0
0
0
0
0
0
0
0
0
0
0
0
0
0
0
0
0
0
0
0
0
0
0
0
0
0
-2.626038036e-08
1.433038117e-07
2.399371526e-06
-9.516204585e-07
-9.30768441e-06
9.6569183e-06
2.154164608e-05
-1.382454227e-05
-1.186741944e-05
2.500932561e-05
2.026834424e-05
-2.736289413e-05
2.004986955e-06
2.872948125e-05
-3.991404404e-06
-2.741452377e-05
1.215987182e-05
1.99647185e-05
-2.202915093e-05
-1.68295847e-05
5.742948985e-06
7.412614411e-06
-1.549217752e-05
-4.688860742e-06
0
1.518661974e-07
-3.648008013e-07
0
0
0
0
0
0
0
0
0
0
0
0
0
0
0
0
0
0
0
0
0
0
0
0
0
0
0
0
0
0
0
0
0
0
0
0
0
0
0
0
0
0
0
0
0
0
0
0
0
0
0
-1.273975686e-06
9.528853814e-08
6.522593558e-06
-9.319464728e-07
-4.624910405e-05
1.216596054e-05
7.20545558e-05
-1.831569249e-05
-8.251526597e-05
3.714032155e-05
0.0001079097206
-4.175870135e-05
-5.088672075e-05
4.640384757e-05
6.071571172e-05
-4.48398539e-05
1.718008914e-05
3.340077e-05
-2.430341724e-05
-2.829577544e-05
6.640485165e-05
1.32797283e-05
-8.509462469e-05
-9.272396793e-06
6.684868372e-05
2.385137147e-06
-8.915223448e-05
-1.713611706e-06
2.686113792e-05
1.703995734e-06
-4.397580772e-05
-1.542519996e-06
0
6.166807187e-08
-9.838783763e-07
0
0
0
0
0
0
0
0
0
0
0
0
0
0
0
0
0
0
0
0
0
0
0
0
0
0
0
0
0
0
0
0
0
0
0
0
0
0
0
0
0
0
0
0
0
4.206405809e-07
5.260296454e-08
-5.370106631e-05
-2.857969926e-06
7.77555341e-05
2.581379491e-06
-0.0001698356434
2.539793376e-06
0.0002052163045
-3.317947295e-06
-0.0001843243103
-2.688060667e-06
0.0002066405804
7.900565329e-06
-8.258541335e-05
-2.979118907e-05
8.680827573e-05
3.778346231e-05
5.097743632e-05
-5.986665237e-05
-5.995948678e-05
6.629063312e-05
0.0001465683439
-8.156331359e-05
-0.0001670747976
8.453426656e-05
0.0001631545495
-8.196707643e-05
-0.0001885745963
7.606151165e-05
0.0001150129385
-5.612186449e-05
-0.0001380445694
4.066966465e-05
2.758388956e-05
-9.817557458e-06
-4.239670969e-05
4.408792615e-06
0
0
0
0
0
0
0
0
0
0
0
0
0
0
0
0
0
0
0
0
0
0
0
0
0
0
0
0
0
0
0
0
0
0
0
0
0
0
0
0
0
0
-1.313983042e-05
-1.600696234e-06
2.151046497e-05
6.36484332e-06
-0.0001687384144
-3.205961851e-05
0.0001988008316
4.28356369e-05
-0.0003086481222
-8.478905101e-05
0.0003359010744
0.0001025964869
-0.0002560867505
-0.0001536298294
0.0002724037308
0.0001629841688
-9.161532788e-05
-0.0001968827216
9.219878252e-05
0.0002021405885
7.858555991e-05
-0.0002092303388
-8.044825719e-05
0.000210548145
0.0002237133588
-0.0002215315409
-0.0002365247842
0.0002241230858
0.000278067356
-0.0002330083864
-0.000299968717
0.0002215283074
0.0002059876622
-0.0001603414701
-0.0002276363263
0.0001357758759
9.215561725e-05
-5.996001531e-05
-0.0001083039788
3.896847889e-05
-2.354163407e-06
2.944824635e-06
-5.119661362e-06
3.645174718e-08
0
0
0
0
0
0
0
0
0
0
0
0
0
0
0
0
0
0
0
0
0
0
0
0
0
0
0
0
0
0
0
0
0
0
0
3.696408714e-07
2.085721822e-09
8.618754867e-08
-4.971707478e-05
-1.292205792e-05
6.027271394e-05
2.836047694e-05
-0.0002777018365
-9.928800685e-05
0.0002936097475
0.0001347855464
-0.0003980848612
-0.0002299457135
0.0004117503067
0.0002604622768
-0.0002826128092
-0.0003379666286
0.0002774356216
0.0003580257162
-9.898938889e-05
-0.0003765162583
5.542563122e-05
5.536677677e-05
0.0001747195072
0.000189993732
-0.0001730205688
3.540584306e-05
-3.560517891e-05
0.0001732199047
-0.0001821327497
0.0002669987591
0.0003754252134
-0.0001956049484
-0.0001348838487
-0.0001298024258
-0.0003656127972
0.0003470896336
-0.0003611828626
0.0003574468439
0.000283265515
-0.0002902114641
-0.0003000880361
0.000258809697
0.0001511446113
-0.0001415647584
-0.0001644527144
0.0001031263926
-1.969434395e-05
2.220561879e-05
-2.849148666e-05
6.132493856e-06
0
0
0
0
0
0
0
0
0
0
0
0
0
0
0
0
0
0
0
0
0
0
0
0
0
0
0
0
0
0
0
0
0
-1.551835448e-06
0
3.33289523e-06
9.533765022e-07
1.555966004e-06
-8.23059549e-05
-3.085280966e-05
8.499357932e-05
6.015782991e-05
-0.0003382674984
-0.0001890753126
0.0003439327033
0.0002395631966
-0.0004351614443
-0.0003872266988
0.0004379950756
0.0004291042545
-0.0002688449335
-0.0005095712729
0.0002666238837
0.0005171039642
-5.304892062e-05
-0.0002573669884
5.356678838e-05
0.0002568491206
-0.0002548853137
0.0001233564269
-0.0001229518883
0.0002544807751
-0.0005142418582
0.0003911969323
-0.0003964947243
0.0005067215262
0.0003359689674
-0.0004231032216
-0.0003420501363
0.0003786007272
0.0001921039003
-0.0002211386637
-0.0001967065037
0.0001688174136
-4.65306085e-05
4.27273771e-05
-4.893042168e-05
2.023035041e-05
0
0
0
0
0
0
0
0
0
0
0
0
0
0
0
0
0
0
0
0
0
0
0
0
0
0
0
0
0
0
0
0
0
-4.336144233e-06
0
5.479476978e-06
3.289320213e-06
3.894991404e-06
-9.866491498e-05
-4.869740238e-05
0.0001015692708
8.954911825e-05
-0.0003631449555
-0.0002630127037
0.0003670700323
0.0003299149261
-0.0004448876939
-0.0005201981017
0.0004463511971
0.0005713647064
-0.0002633571913
-0.0006584506692
0.000262856867
0.0006617867199
-5.206079592e-05
-0.0003265661872
5.205169368e-05
0.0003265752895
-0.0003284473332
0.0001221324416
-0.0001219540456
0.0003282689372
-0.0006643545465
0.0004054848612
-0.0004069003779
0.0006573238557
0.000361946322
-0.0005603513653
-0.0003660436131
0.0005064248533
0.0002135689269
-0.0003096050917
-0.0002171764771
0.0002415721218
-7.167991426e-05
5.649874599e-05
-5.897609496e-05
3.476421992e-05
0
0
0
0
0
0
0
0
0
0
0
0
0
0
0
0
0
0
0
0
0
0
0
0
0
0
0
0
0
0
0
0
0
-6.590124125e-06
0
8.116687127e-06
5.991177942e-06
6.939306004e-06
-0.0001088020803
-6.649880716e-05
0.0001117219789
0.0001185915253
-0.0003767975948
-0.0003347498173
0.0003806083805
0.0004168478275
-0.0004500952838
-0.0006468477881
0.0004514510067
0.000707420495
-0.000261729322
-0.0008058197483
0.0002613740957
0.0008081041449
-5.191258365e-05
-0.0003993196703
5.202618327e-05
0.0001983647973
0.0002008412733
-0.0004018890304
0.0001212345973
-0.0001210515995
0.0004017060325
-0.0008100738772
0.0004052077284
-0.0004036898273
0.000798260123
0.0003643406183
-0.0006715144078
-0.0003628874026
0.0006044544347
0.0002150414426
-0.0003660276419
-0.0002138503026
0.0002852961328
-8.464098154e-05
5.726704885e-05
-5.649680705e-05
4.097507684e-05
0
0
0
0
0
0
0
0
0
0
0
0
0
0
0
0
0
0
0
0
0
0
0
0
0
0
0
0
0
0
0
0
0
-9.782996347e-06
0
1.169727132e-05
1.038470787e-05
1.176999014e-05
-0.0001208469564
-8.865167003e-05
0.0001240567648
0.0001530998953
-0.0003921954747
-0.0004139599417
0.0003961690854
0.0005114310647
-0.0004553936724
-0.0007801097389
0.000456681093
0.0008492697542
-0.0002603396298
-0.0009555575591
0.0002600606747
0.0009566942538
-5.183050733e-05
-0.0004737492016
5.18488293e-05
0.0002356870987
0.0002380437809
-0.000475634229
0.0001202458378
-0.0001200113949
0.0004753997862
-0.0009531200844
0.0003944444917
-0.0003895114438
0.0009283230447
0.0003461448022
-0.0007482241596
-0.0003432707276
0.0006715096792
0.0001975477825
-0.0003903727195
-0.0001929040392
0.000298505014
-7.849977609e-05
4.538741451e-05
-4.281122658e-05
3.381009051e-05
0
0
0
0
0
0
0
0
0
0
0
0
0
0
0
0
0
0
0
0
0
0
0
0
0
0
0
0
0
0
0
0
0
-1.401140706e-05
0
1.487181898e-05
1.704360406e-05
1.816660227e-05
-0.0001345272088
-0.0001155669276
0.0001386138492
0.0001932784385
-0.0004087426704
-0.0004998589501
0.0004134884552
0.000612455528
-0.0004605087195
-0.0009176797814
0.0004618154496
0.0009943334318
-0.0002594416188
-0.001104463459
0.0002594220681
0.001104581714
-5.177710734e-05
-0.0005477257712
5.174750519e-05
0.0002726195278
0.0002751358455
-0.0005479393994
0.000118946465
-0.0001187958082
0.0005477887425
-0.001079162757
0.0003742178016
-0.0003675312379
0.001035129997
0.0003182781581
-0.0008060331432
-0.000303601103
0.000700685872
0.0001697691763
-0.0003749979931
-0.0001579378962
0.0002755136245
-5.834419015e-05
2.921297911e-05
-2.511983942e-05
1.908653385e-05
0
0
0
0
0
0
0
0
0
0
0
0
0
0
0
0
0
0
0
0
0
0
0
0
0
0
0
0
0
0
0
0
0
-2.084026913e-05
0
2.721190549e-05
2.928170733e-05
3.429964805e-05
-0.0001507611005
-0.0001514058598
0.0001613658446
0.0002420157272
-0.000429281197
-0.0005977404556
0.0004345550005
0.000725482056
-0.0004656242302
-0.001065795983
0.0004700640815
0.001146014383
-0.0002593530092
-0.001252882252
0.0002597739677
0.0006216177338
0.0006308435594
-2.710756498e-05
-0.000309326789
2.719119744e-05
0.0003092431566
1.383664166e-05
-0.0001541209121
-1.350408527e-05
0.0003085645824
-0.0001547762267
-0.0006185148812
0.0001180372991
-0.0002463372636
0.001246149136
-0.0006274847021
0.0001281504119
0.0003485816759
-0.001174668082
-0.0003346613261
0.001101494976
0.0002709790213
-0.0008080270821
-0.0002605313739
0.0006893528703
0.0001302826359
-0.0003345734413
-0.000122793109
0.0002319392397
-2.657636721e-05
1.045150112e-05
-8.236827704e-06
2.623918176e-06
0
0
0
0
0
0
0
0
0
0
0
0
0
0
0
0
0
0
0
0
0
0
0
0
0
0
0
0
0
0
0
0
0
-3.098397646e-05
0
2.54764228e-05
4.349450209e-05
4.076642018e-05
-0.0001774335161
-0.0001963752308
0.0001719906056
0.000307167869
-0.0004520428731
-0.0007189011173
0.0004451892508
0.0008628111791
-0.0004654997453
-0.001229267799
0.0004642031442
0.001312317249
-0.0002550260314
-0.001401903936
0.0002550260314
0.0006964841114
0.0007054198246
-2.570088245e-05
-0.0006964841114
4.877750984e-05
-2.30766274e-05
0.0003469221008
0.0003495620106
3.520222055e-05
-0.0003469221259
-3.520218301e-05
0.0006964841114
-0.0003495620231
-0.001401903936
0.000248486985
-0.0002470628358
0.001397550226
0.0003083418049
-0.00122530024
-0.0002994561107
0.00113060509
0.0002271215132
-0.0007603754312
-0.0002109127613
0.00062512938
9.191806306e-05
-0.0002534390641
-8.289027673e-05
0.0001630779297
-3.984242858e-06
1.63416606e-06
-7.43189317e-07
0
0
0
0
0
0
0
0
0
0
0
0
0
0
0
0
0
0
0
0
0
0
0
0
0
0
0
0
0
0
0
0
0
0
-1.583375331e-05
0
5.790423523e-06
2.174604564e-05
1.386566741e-05
-0.0001337662946
-0.0001539457905
0.0001155900203
0.000260120039
-0.0003922055623
-0.0006836325468
0.0003643472225
0.0008393520274
-0.000446145705
-0.001258834712
0.0004326576957
0.001364501862
-0.0002645321187
-0.001538796677
0.0002708843513
0.001551250336
-4.877750984e-05
-0.001550467267
8.705944094e-05
0.001550467267
-3.828193109e-05
8.090179436e-05
-0.001550467267
-8.090179437e-05
0.001550467267
0.0002360219721
-0.001521304355
-0.0002283291236
0.001476650269
0.0002619797884
-0.001210886922
-0.0002473713334
0.001085711074
0.000168548524
-0.0006582249568
-0.000156400605
0.000515414883
5.212100067e-05
-0.0001585077657
-4.215225617e-05
8.275163455e-05
0
0
0
0
0
0
0
0
0
0
0
0
0
0
0
0
0
0
0
0
0
0
0
0
0
0
0
0
0
0
0
0
0
0
0
0
0
-1.41046151e-07
0
0
1.275853803e-07
0
-5.64435209e-05
-5.611226075e-05
3.852543129e-05
0.0001267850993
-0.0002576513659
-0.0004729628662
0.0002175820898
0.0006166774039
-0.000361572634
-0.00105162707
0.0003278622796
0.001180044958
-0.0002657760157
-0.001467505798
0.0002542220922
0.001527755117
-9.05383209e-05
-0.001619806609
9.029775201e-05
0.001628284092
7.638090251e-05
-0.001603140677
-7.033406889e-05
0.001575415203
0.0001897875344
-0.001410502769
-0.0001721642167
0.001324713436
0.0001910470464
-0.0009849912858
-0.000169390756
0.000852710323
0.0001108427119
-0.0004504064056
-9.376415561e-05
0.0003286921647
1.803318125e-05
-6.066210417e-05
-1.088461281e-05
1.666840415e-05
0
0
0
0
0
0
0
0
0
0
0
0
0
0
0
0
0
0
0
0
0
0
0
0
0
0
0
0
0
0
0
0
0
0
0
0
0
0
0
0
0
0
-3.925801791e-06
-1.339346898e-07
6.40202913e-07
1.014169505e-05
-0.0001020410748
-0.0001780906402
6.974553093e-05
0.0002721377569
-0.0002083368589
-0.0006096197228
0.0001670373056
0.0007251531138
-0.0001925957223
-0.00102598573
0.0001657350394
0.001102299392
-8.004182066e-05
-0.00124240468
7.320829997e-05
0.001258818042
4.342853632e-05
-0.001219558526
-3.386296017e-05
0.00117786637
0.0001120778451
-0.0009743360614
-9.200899171e-05
0.0008840729539
0.0001025032741
-0.0005735039982
-8.126884767e-05
0.0004658867008
4.316592312e-05
-0.0001766514999
-2.847665063e-05
0.0001033261145
1.613873998e-07
-4.444055432e-07
0
0
0
0
0
0
0
0
0
0
0
0
0
0
0
0
0
0
0
0
0
0
0
0
0
0
0
0
0
0
0
0
0
0
0
0
0
0
0
0
0
0
0
0
0
0
0
0
-7.803155661e-06
-4.791210833e-06
1.201325616e-06
2.235488322e-05
-6.024085721e-05
-0.0001566537791
3.476428715e-05
0.0002182752863
-8.224514744e-05
-0.0004078281764
5.756947003e-05
0.0004629332378
-4.480382473e-05
-0.0005747679195
3.418532674e-05
0.0005902781891
1.151193227e-05
-0.0005666849813
-6.993705584e-06
0.0005367578955
4.026475715e-05
-0.0003954302059
-2.712335834e-05
0.000336644185
2.778900517e-05
-0.0001558301664
-1.512691045e-05
0.000102809402
1.479967191e-06
-5.914371814e-06
-4.176679446e-09
6.380251232e-08
0
0
0
0
0
0
0
0
0
0
0
0
0
0
0
0
0
0
0
0
0
0
0
0
0
0
0
0
0
0
0
0
0
0
0
0
0
0
0
0
0
0
0
0
0
0
0
0
0
0
0
0
0
0
-1.842753343e-07
0
0
8.356530189e-07
-7.583902912e-06
-2.294097567e-05
1.190306802e-06
3.557350776e-05
-7.598175156e-06
-6.931466412e-05
2.555746811e-06
7.522339384e-05
7.56926506e-07
-6.972656224e-05
-1.954431348e-07
6.075975119e-05
2.816660513e-06
-2.408426523e-05
-2.366177431e-07
1.326271094e-05
0
0
0
0
0
0
0
0
0
0
0
0
0
0
0
0
0
0
0
0
0
0
0
0
0
0
0
0
0
0
0
0
0
0
0
0
0
0
0
0
0
0
0
0
0
0
0
0
0
0
0
0
0
0
0
0
0
0
0
0
0
0
0
0
0
0
0
0
0
0
0
0
0
0
0
0
0
0
0
0
0
0
0
0
0
0
0
0
0
0
0
0
0
0
0
0
0
0
0
0
0
0
0
0
0
0
0
0
0
0
0
0
0
0
0
0
0
0
0
0
0
0
0
0
0
0
0
0
0
0
0
0
0
0
0
0
0
0
0
0
0
0
0
0
0
0
0
0
0
0
0
0
0
0
0
0
0
0
0
0
0
0
0
0
0
0
0
0
0
0
0
0
0
0
0
0
0
0
0
0
0
0
0
0
0
0
0
0
0
0
0
0
0
0
0
0
0
0
0
0
0
0
0
0
0
0
0
0
0
0
0
0
0
0
0
0
0
0
0
0
0
0
0
0
0
0
0
0
0
0
0
0
0
0
0
0
0
0
0
0
0
0
0
0
0
0
0
0
0
0
0
0
0
0
0
0
0
0
0
0
0
0
0
0
0
0
0
0
0
0
0
0
0
0
0
0
0
0
0
0
0
0
0
0
0
0
0
0
0
0
0
0
0
0
0
0
0
0
0
0
0
0
0
0
0
0
0
0
0
0
0
0
0
0
0
0
0
0
0
0
0
0
0
0
0
0
0
0
0
0
0
0
0
0
0
0
0
0
0
0
0
0
0
0
0
0
0
0
0
0
0
0
0
0
0
0
0
0
0
0
0
0
0
0
0
0
0
0
0
0
0
0
0
0
0
0
0
0
0
0
0
0
0
0
0
0
0
0
0
0
0
0
0
0
0
0
0
0
0
0
0
0
0
0
0
0
0
0
0
0
0
0
0
0
0
0
0
0
0
0
0
0
0
0
0
0
0
0
0
0
0
0
0
0
0
0
0
0
0
0
0
0
0
0
0
0
0
0
0
0
0
0
0
0
0
0
0
0
0
0
0
0
0
0
0
0
0
0
0
0
0
0
0
0
0
0
0
0
0
0
0
0
0
0
0
0
0
0
0
0
0
0
0
0
0
0
0
0
0
0
0
0
0
0
0
0
0
0
0
0
0
0
0
0
0
0
0
0
0
0
0
0
0
0
0
0
0
0
0
0
0
0
0
0
0
0
0
0
0
0
0
0
0
0
0
0
0
0
0
0
0
0
0
0
0
0
0
0
0
0
0
0
0
0
0
0
0
0
0
0
0
0
0
0
0
0
0
0
0
0
0
0
0
0
0
0
0
0
0
0
0
0
0
0
0
0
0
0
0
0
0
0
0
0
0
0
0
0
0
0
0
0
0
0
0
0
0
0
0
0
0
0
0
0
0
0
0
0
0
0
0
0
0
0
0
0
0
0
0
0
0
0
0
0
0
0
0
0
0
0
0
0
0
0
0
0
0
0
0
0
0
0
0
0
0
0
0
0
0
0
0
0
0
0
0
0
0
0
0
0
0
0
0
0
0
0
0
0
0
0
0
0
0
0
0
0
0
0
0
0
0
0
0
0
0
0
0
0
0
0
0
0
0
0
0
0
0
0
0
0
0
0
0
0
0
0
0
0
0
0
0
0
0
0
0
0
0
0
0
0
0
0
0
0
0
0
0
0
0
0
0
0
0
0
0
0
0
0
0
0
0
0
0
0
0
0
0
0
0
0
0
0
0
0
0
0
0
0
0
0
0
0
0
0
0
0
0
0
0
0
0
0
0
0
0
0
0
0
0
0
0
0
0
0
0
0
0
0
0
0
0
0
0
0
0
0
0
0
0
0
0
0
0
0
0
0
0
0
0
0
0
0
0
0
0
0
0
0
0
0
0
0
0
0
0
0
0
0
0
0
0
0
0
0
0
0
0
0
0
0
0
0
0
0
0
0
0
0
0
0
0
0
0
0
0
0
0
0
0
0
0
0
0
0
0
0
0
0
0
0
0
0
0
0
0
0
0
0
0
0
0
0
0
0
0
0
0
0
0
0
0
0
0
0
0
0
0
0
0
0
0
0
0
0
0
0
0
0
0
0
0
0
0
0
0
0
0
0
0
0
0
0
0
0
0
0
0
0
0
0
0
0
0
0
0
0
0
0
0
0
0
0
0
0
0
0
0
0
0
0
0
0
0
0
0
0
0
0
0
0
0
0
0
0
0
0
0
0
0
0
0
0
0
0
0
0
0
0
0
0
0
0
0
0
0
0
0
0
0
0
0
0
0
0
0
0
0
0
0
0
0
0
0
0
0
0
0
0
0
0
0
0
0
0
0
0
0
0
0
0
0
0
0
0
0
0
0
0
0
0
0
0
0
0
0
0
0
0
0
0
0
0
0
0
0
0
0
0
0
0
0
0
0
0
0
0
0
0
0
0
0
0
0
0
0
0
0
0
0
0
0
0
0
0
0
0
0
0
0
0
0
0
0
0
0
0
0
0
0
0
0
0
0
0
0
0
0
0
0
0
0
0
0
0
0
0
0
0
0
0
0
0
0
0
0
0
0
0
0
0
0
0
0
0
0
0
0
0
0
0
0
0
0
0
0
0
0
0
0
0
0
0
0
0
0
0
0
0
0
0
0
0
0
0
0
0
0
0
0
0
0
0
0
0
0
0
0
0
0
0
0
0
0
0
0
0
0
0
0
0
0
0
0
0
0
0
0
0
0
0
0
0
0
0
0
0
0
0
0
0
0
0
0
0
0
0
0
0
0
0
0
0
0
0
0
0
0
0
0
0
0
0
0
0
0
0
0
0
0
0
0
0
0
0
0
0
0
0
0
0
0
0
0
0
0
0
0
0
0
0
0
0
0
0
0
0
0
0
0
0
0
0
0
0
0
0
0
0
0
0
0
0
0
0
0
0
0
0
0
0
0
0
0
0
0
0
0
0
0
0
0
0
0
0
0
0
0
0
0
0
0
0
0
0
0
0
0
0
0
0
0
0
0
0
0
0
0
0
0
0
0
0
0
0
0
0
0
0
0
0
0
0
0
0
0
0
0
0
0
0
0
0
0
0
0
0
0
0
0
0
0
0
0
0
0
0
0
0
0
0
0
0
0
0
0
0
0
0
0
0
0
0
0
0
0
0
0
0
0
0
0
0
0
0
0
0
0
0
0
0
0
0
0
0
0
0
0
0
0
-0.000317740969
0.0003177622743
-5.208210124e-05
-0.0001121797882
0.0003185501658
0.0001123501986
-0.0001608218676
-0.0001578987086
0.0001146382258
-0.000256041443
-0.0001134820965
-0.0003900942857
-5.1840861e-05
0.0001939651554
0.0001960574077
-0.0001106633402
0.0003930214474
0.0001108985741
-0.0001977673138
-0.0001954893675
-0.0001116103121
-0.0001657085243
-0.000163308285
-0.0004644509349
-5.17895903e-05
0.0002311019431
0.0002333080748
-0.0001098781264
0.0004660051643
0.0001096332283
-0.0002339443488
-0.0002318159173
-0.0001104834224
-0.0002019465915
-0.0002001223567
-0.0005383230437
-5.170657403e-05
0.0002679960233
0.0002702564871
-0.0001081377425
0.0005384477092
0.000108545801
-0.0005388557677
-0.0004759220326
-0.0001095903229
-0.0003073002869
0.0003073035695
-2.711084763e-05
0.0001538478115
-6.072049872e-06
6.132245497e-06
-0.0001539080072
-0.0001532654187
0.0003067090273
1.424084464e-05
-0.0001070212535
0.0006102023687
0.0001070935673
-0.0006102746826
-0.0005482337757
-0.0001078433662
-0.0003449270277
0.0003449270277
-2.570088245e-05
0.0003449270973
-1.366458447e-05
1.366473045e-05
-0.0003449272433
-0.0001543170509
-5.875911083e-06
0.0006872184492
-0.0003132764096
-6.699726134e-07
6.857250872e-06
-0.0001928204868
0.001345411161
-0.0006846099138
-0.0006711614856
9.696653512e-05
0.0001062141898
-0.0006186070531
-0.0001069290815
-0.000247768582
0.0002475611992
-5.284153784e-05
2.431367925e-05
-0.000173048903
-2.428534509e-05
0.0002468212144
0.0001140689531
-0.0002462519417
0.0001156620228
-0.0001799240745
-0.0001178706979
-1.868071203e-05
7.20036437e-05
1.867590171e-05
-7.199883338e-05
0.0001281530982
3.820857377e-05
-0.0001284772319
-3.788444013e-05
0.000318404207
0.0001222784004
-0.0003791756155
0.0006259512785
0.0003799091949
-0.0006268849838
0.0003770075411
-0.000515835343
-0.0003777436122
-0.000768684019
0.0007711752645
-0.0002620594821
6.229109669e-05
-6.229133669e-05
-0.0003900940457
-6.242752076e-05
-0.0003265266293
6.238796281e-05
-2.075531676e-05
8.985689296e-05
2.069882165e-05
-8.980039786e-05
1.896972488e-05
8.154480626e-05
-8.16681978e-05
-1.884633335e-05
0.0003928877706
0.0001213682741
-0.0003776647037
0.0007746375209
0.0003781785344
-0.0007751836564
-0.0006647626386
-0.0003788452219
-0.0009183136103
0.0009197255559
-0.000260646052
6.215884116e-05
-6.21597349e-05
-0.0004644500411
-0.0003993173328
6.228875924e-05
5.193498588e-05
-0.0004275983917
-5.193654555e-05
0.0002126010148
0.0002149989366
9.288202328e-06
0.0001077932771
-9.265477108e-06
-0.0002149978114
0.0001071818091
-9.233396657e-06
9.875546166e-05
-0.0001983072304
9.302538853e-06
9.948262656e-05
-1.823129193e-05
0.0001085849931
1.833194773e-05
-0.0001086856489
1.911610726e-05
9.952493476e-05
-9.917246777e-05
-1.946857424e-05
0.0004659631187
0.0001202878834
-0.0003730643893
0.0009173167906
0.0003750425004
-0.000920931001
-0.0008108143203
-0.0003770452357
-0.001067012179
0.001067389694
-0.0002595422502
6.203631488e-05
-6.204061404e-05
-0.0005383187446
-0.0004737230812
6.213272079e-05
5.16305862e-05
-0.0005015411384
-5.175190479e-05
0.0002497091052
0.0002519533517
4.291759631e-06
0.0001262902199
-4.278619031e-06
-0.0001263033605
-9.311750099e-06
0.0001175517505
-0.0002357088838
9.284517327e-06
0.000118184366
-3.481972357e-05
0.0002524508224
3.495231104e-05
-0.0002525834099
3.546939007e-05
0.000236885936
-3.49445092e-05
-0.000119129021
-0.0001182817959
-0.001215862059
-0.0002594593927
0.0006033635247
0.0006126049179
6.203490857e-05
0.0003052365949
-6.193802493e-05
-0.0006126337654
-0.0005477243806
6.20349243e-05
2.712288413e-05
-0.0002890575438
0.0002890923066
-2.715764696e-05
3.911454676e-06
0.0001450031279
-4.020543949e-06
-0.0001448940387
-4.13493284e-06
0.0001358728352
-0.0001358996319
4.161729627e-06
-0.0001461464719
-7.801508868e-06
0.0001456926708
8.255310011e-06
-3.388232565e-05
0.0002890076058
3.384360467e-05
-0.0002889688849
3.444555795e-05
0.0002730868353
-0.0002731023762
-3.443001702e-05
-0.00132728771
-0.0002559299283
0.0006409731576
0.0006872184492
5.927734568e-05
0.0003422914215
-5.927734567e-05
-0.0006872184492
0.0003122567806
-0.0006215758049
6.202714385e-05
2.709620809e-05
-0.0003258858173
0.0003258568737
-2.706726454e-05
4.181538473e-06
0.0001624393866
-3.843326383e-06
-0.0001627775987
-3.677246303e-06
0.0001537743515
-0.000153898107
3.801001778e-06
-0.0007613351399
0.0007613351399
-4.877750984e-05
0.0007613351399
-2.470451611e-05
2.470451611e-05
-0.0007613351399
-0.0003469222086
-1.366450171e-05
-6.659579579e-06
-0.0001441138702
6.782750118e-06
7.161409769e-05
7.237660193e-05
6.592005585e-06
-0.000159912033
-6.596323709e-06
7.977063994e-05
8.014571116e-05
-0.0001280984946
-8.962368784e-06
9.301124558e-06
0.0001277597389
-0.0001421688128
0.000142272224
-6.762990842e-06
8.092237568e-05
1.903103408e-05
-8.098368488e-05
7.236741604e-05
-7.244222264e-05
-1.860590543e-05
0.0001128520561
0.0002917516239
-0.0001125380677
-0.0001474945887
-0.0001445710236
3.971929549e-05
-7.280667922e-05
-3.945016681e-05
0.0001449049666
-1.946600405e-05
8.08925944e-05
1.949578533e-05
9.814729273e-05
-9.14644437e-06
-0.0001960015612
9.776731617e-05
0.0001801316778
-9.207270422e-06
-0.0001801466298
9.222222415e-06
-5.196103185e-05
-0.0003627866811
5.196406947e-05
0.0003627836435
-6.597456404e-06
6.7100022e-06
8.974955276e-05
9.026957924e-05
3.640876804e-06
9.814840776e-05
-3.641991836e-06
-0.000162039529
6.666366991e-06
8.066127151e-05
8.130389605e-05
-0.0001780023751
-6.635511506e-06
8.879017594e-05
8.92502543e-05
9.876087454e-05
1.87428586e-05
-9.838762588e-05
9.084334024e-05
-9.073140727e-05
-2.086724972e-05
5.695850921e-05
0.0001817889295
-0.0001818356362
-5.691180251e-05
2.108816657e-05
-2.109318413e-05
9.08483578e-05
-1.948487702e-05
9.898717197e-05
1.925857959e-05
-1.938526063e-05
8.146406284e-05
8.993283173e-05
2.101222781e-05
0.0001792017439
5.696591698e-05
-0.0001792091517
0.0001169062462
-9.236206909e-06
-0.0002332706224
0.000116288833
0.000108465634
-0.000217505991
9.215471969e-06
0.0001091130873
-0.0004370265014
5.181489e-05
0.0002174541693
0.000219692428
-3.613755267e-06
3.595393266e-06
0.000108483996
3.696461726e-06
0.0001168926452
-3.682860767e-06
3.654706104e-06
9.874163236e-05
0.0001078110327
-3.631510868e-06
0.0002342656093
3.544608384e-05
-0.000117410608
-0.0001168316951
0.0001090598538
-0.0001090517632
-1.823938256e-05
0.0001098283998
0.0004383087438
-0.0001098236478
-0.0002201437131
-0.0002181697826
3.834930839e-05
-0.0001093065315
-3.815769719e-05
0.0002181747741
-3.797057282e-05
0.0002342167693
3.801941277e-05
-1.970584906e-05
9.97459068e-05
-0.000107821161
0.0002160743872
1.898483562e-05
1.969623974e-05
0.0004292536418
0.0001102179209
-0.0002159334017
-0.0002137097612
0.0001352885097
-4.129794979e-06
-0.0001352936475
0.0001268453175
-0.0001268334961
4.279938179e-06
-0.0005104118328
5.176793472e-05
0.0002541027641
0.0002561717202
-3.605087506e-06
3.659226003e-06
0.000126791179
3.330818419e-06
0.0001352393565
-3.281665276e-06
3.693345969e-06
0.0001175548663
0.0001262833676
-3.598235261e-06
0.0002709381304
3.450450354e-05
-0.000270997076
0.0002549741677
-0.0002549844937
-3.480939759e-05
0.000153752481
-3.598695263e-06
-0.000153831032
0.0001454264523
-0.000145468378
3.953380464e-06
-0.0002912933114
2.711713065e-05
0.0002912990649
6.244612413e-06
0.0001456378042
-0.0001451284988
-6.753917838e-06
-3.052815558e-06
3.107614244e-06
0.0001453716536
3.065022444e-06
0.0001535774827
-2.890024201e-06
3.403261424e-06
0.0001358003921
0.000145072073
-3.121760597e-06
7.094288297e-06
-0.0001469961478
-6.487473181e-05
0.0006102535199
6.48559517e-05
-0.0003060673467
-0.0003041673931
0.0002910372809
-0.0002909741141
-3.39454925e-05
-7.793874117e-06
0.0001456301694
0.0003477755371
8.281377226e-06
-0.0003462146315
-5.576396231e-06
-4.265886628e-06
0.0001630267955
-0.0001632039214
4.358664402e-06
-0.0003280866685
2.715935706e-05
0.0003280235196
8.468613653e-06
0.0003241166879
-0.0003244188777
-8.166423863e-06
-3.640410534e-06
3.777653068e-06
0.0001628895529
4.702625968e-06
0.0003477591481
-3.609653246e-06
-1.076583748e-06
3.256879585e-06
0.0001535824944
-3.380830734e-06
0.0001621798068
0.0003220830118
8.969918763e-06
-0.0003225843169
-0.0006214348803
0.0006254308253
-0.000264154954
-6.246603796e-05
-0.0003177024518
-6.33544308e-05
-0.0002570648068
6.305224928e-05
5.243377723e-05
-0.0002822653698
0.0002822228505
-5.23912579e-05
9.296133584e-06
-9.308910108e-06
-0.0001421560363
-9.88052269e-06
-0.0001285225119
1.030453993e-05
-1.854586568e-05
6.701908743e-05
9.381241114e-06
-5.785446286e-05
6.532411074e-05
1.520538754e-05
-6.616247435e-05
-1.436702393e-05
-0.0003537171348
0.0003537651786
-5.200907562e-05
-9.211716334e-06
-0.0001779979292
-9.248540204e-06
-0.0001620403797
9.249390971e-06
-4.632407587e-05
0.000123487978
2.304830951e-05
-0.0001002122116
0.0005382366523
0.0001191575219
-0.0003614534889
0.00105043665
0.0003654934414
-0.001067005333
-0.0009579988355
-0.000371327973
-4.479317275e-05
0.0001409384549
1.890280379e-05
-0.000115048086
-2.373267513e-05
0.0002800458236
2.395841789e-05
-0.0001404142717
-0.0001398572947
1.238827824e-05
0.00013633144
-0.0001363130866
-1.240663159e-05
-1.217756164e-05
0.0003218085078
1.245206565e-05
-6.760975137e-05
0.0006444269376
6.626905823e-05
-0.0006430862445
0.0006187637806
-6.493515699e-05
-0.0003103617163
-0.0003083416391
-9.242601193e-06
-0.000159917972
-0.000144124198
9.3064614e-06
-0.0002898380036
5.224286176e-05
0.0002900289191
1.088153703e-06
-7.624832657e-05
-1.20234898e-06
7.636252185e-05
-6.568756956e-05
-8.973418087e-07
4.686732658e-08
6.653804405e-05
-6.765795978e-05
-6.970274252e-07
6.774332125e-05
6.116659561e-07
4.166283624e-05
-4.054476167e-05
0.0001270350236
-7.113332575e-05
0.0001428610982
3.99951667e-05
0.0002821924371
0.0001122498059
-0.0001420383063
-0.0001395518806
0.0001360026142
1.250601134e-05
-0.0001361203474
1.411108691e-05
0.0001321069173
-0.0001325485269
-1.366947734e-05
0.0001091663245
0.0005111386135
-0.0005113927173
-0.0001089122207
3.759264535e-05
-3.746784785e-05
0.0002548493702
-3.712709508e-05
0.0002708393305
3.722589502e-05
-3.780064839e-05
0.0002367160116
0.0002524466829
3.759678481e-05
0.0005026337003
0.0001092974273
-0.0005027648031
7.778783337e-06
0.0001503920792
-0.0001509415062
-7.22935636e-06
-0.0001572498105
-4.051333414e-06
0.000157224126
4.077017982e-06
-9.784140818e-06
0.0003146274427
9.963442682e-06
-0.0001575150361
-0.0001572917084
0.0001036996433
1.365489967e-05
-0.0001037290289
-1.362551413e-05
-0.0002276543379
-1.456361542e-05
9.955172439e-06
9.450531808e-06
0.0001092529472
0.0001135593019
-0.0001245417391
0.0001270857888
-1.150641851e-05
0.0001254583912
3.836494199e-05
-0.0001256147594
0.0002241113955
7.844986578e-05
-0.0001136251201
-0.0001057134166
-4.044700723e-05
-4.27757174e-05
1.925570351e-05
-1.950487672e-05
0.0001039488165
8.276583142e-05
-0.0001013116971
3.727314847e-05
0.0001366893765
-3.707580012e-05
-6.869112544e-05
-6.819559937e-05
1.528745269e-05
-1.096376046e-06
6.857475477e-05
1.501940117e-05
-1.464947433e-05
6.49541839e-05
6.82137171e-05
1.409282302e-05
0.0001338294928
3.680676627e-05
-6.707778784e-05
-6.628532276e-05
1.785061502e-05
8.580482691e-05
-8.581120583e-05
-1.784423611e-05
8.550419815e-05
1.79437072e-05
-8.559729033e-05
1.803557634e-05
0.0001046374165
-0.0001045447488
-1.812824404e-05
0.0001044595592
1.822889526e-05
-0.0001046528782
0.0001263306391
-1.414285418e-05
1.30851698e-05
-0.0001252729548
0.0001262975996
-0.0001620567559
-1.05649195e-05
3.515642654e-05
0.0002454814311
-0.000245482797
-3.515506063e-05
1.603449923e-05
-1.401078004e-05
0.0001242738804
-1.47134205e-05
0.0001266329384
1.441112123e-05
1.431860115e-05
-2.315509901e-05
0.0001165707671
-0.0001077342692
0.0001226763508
1.684612636e-05
0.0002433606586
3.519740438e-05
-0.0001219559355
-0.0001214457009
0.0001407213886
-4.430458958e-06
-0.0001407531517
4.462222075e-06
-1.692163664e-05
-0.0002818590657
1.693900773e-05
0.0002818416946
1.692328111e-05
-0.0002890601706
0.0002890933617
-1.695647226e-05
-2.309028747e-05
0.0002889829527
2.322120714e-05
-0.0002891138723
0.0002822445135
-2.349435043e-05
-0.0001415750911
-0.0001409077471
-0.0001829921252
-5.819894254e-06
0.0001440188467
-4.957912994e-06
0.0001588537928
-0.0001590014406
5.105560848e-06
-1.698270598e-05
-0.0003187775546
1.701705382e-05
0.0003187432068
1.701990625e-05
-0.0003258305181
-1.687434945e-05
0.0001625304142
0.000163154547
-1.695717606e-05
-0.0003092062953
1.702836061e-05
0.0003091351108
-0.0003164385371
0.0003164206572
-1.696482612e-05
0.0001578999941
-4.749236252e-06
-0.0001581086708
-7.364280708e-05
5.284567518e-07
-1.982910955e-05
9.294345988e-05
-7.534592724e-05
1.188895329e-06
7.524518562e-05
6.734201671e-06
-0.0001509987582
-6.678847075e-06
7.50666552e-05
7.587674843e-05
-7.389691489e-07
9.089966963e-07
-7.551595479e-05
8.354589109e-07
-7.288245224e-05
-1.595813754e-06
-1.977912569e-06
6.710613546e-06
-8.033998742e-05
7.560728644e-05
-7.637234927e-05
-6.149464475e-07
-0.0001534697057
6.563548996e-06
7.661940122e-05
7.702095712e-05
7.053089219e-06
-0.000135313861
0.0001353776884
-7.116916619e-06
-5.532000167e-07
6.304663481e-07
-6.773522611e-05
-2.945629731e-06
-6.371445015e-05
9.72510318e-07
7.225645471e-05
5.462855992e-07
-7.19672814e-05
6.815447718e-05
-6.816336249e-05