/*--------------------------------*- C++ -*----------------------------------*\
| =========                 |                                                 |
| \\      /  F ield         | OpenFOAM: The Open Source CFD Toolbox           |
|  \\    /   O peration     | Version:  v1912                                 |
|   \\  /    A nd           | Website:  www.openfoam.com                      |
|    \\/     M anipulation  |                                                 |
\*---------------------------------------------------------------------------*/
FoamFile
{
    version     2.0;
    format      ascii;
    class       volScalarField;
    location    "0.21";
    object      omega;
}
// * * * * * * * * * * * * * * * * * * * * * * * * * * * * * * * * * * * * * //

dimensions      [0 0 -1 0 0 0 0];


internalField   nonuniform List<scalar> 
12556
(
31.93083449
31.93165966
31.93257336
31.93342907
31.96663786
31.96734016
31.96804178
31.96948577
31.97244752
31.9776311
31.98536563
31.9935195
32.00040661
32.00090455
31.99521917
31.98743443
31.97981667
31.9735113
31.97048621
31.9682503
31.93476215
31.93339153
31.93214955
31.93115098
31.79389111
31.79644472
31.79912359
31.80158952
31.83568917
31.83832227
31.84233315
31.86415617
31.877845
31.90202879
31.93789902
31.97981862
32.00940537
32.01557567
31.99309319
31.95637005
31.9195534
31.8907165
31.85671154
31.84478922
31.80629471
31.80223922
31.79874591
31.7956433
31.65899907
31.66345128
31.66813146
31.67215127
31.70699318
31.71261848
31.72218602
31.75271061
31.78600329
31.84262684
31.92635084
32.02177542
32.07873771
32.09760441
32.04558204
31.96467921
31.8811603
31.81667074
31.75531532
31.72873664
31.68269465
31.67463197
31.66840532
31.66336328
31.52520061
31.53122411
31.53756452
31.54350754
31.58041514
31.59115095
31.61134076
31.65987827
31.72896294
31.84969033
32.03576152
32.24003161
32.36125648
32.37744418
32.24335568
32.07656218
31.91122317
31.78226506
31.67774902
31.62630051
31.56455778
31.55107592
31.54126101
31.53370669
31.39401662
31.40177342
31.41016227
31.41853416
31.4578647
31.47648495
31.5151833
31.59219185
31.72884776
31.99594777
32.41943684
32.89741606
33.2784504
33.25912258
32.8361368
32.42131051
32.07325251
31.81414793
31.6340641
31.54229619
31.45501632
31.43151699
31.41681173
31.40658502
31.26367084
31.2729608
31.28333729
31.29516608
31.34027005
31.37153468
31.43931535
31.55855936
31.82116892
32.38477534
33.46802728
35.25542461
36.75004258
36.21319975
34.46848031
33.26407432
32.4712545
31.9550783
31.63663579
31.48012371
31.35469303
31.31543117
31.29393143
31.27998761
31.13676883
31.14803484
31.1613119
31.17763412
31.22875156
31.27750022
31.38436822
31.56808609
32.03458831
33.1569156
35.99919316
44.88128715
53.74512856
49.34465895
38.78007711
35.0378015
33.23262721
32.25060102
31.68368967
31.44112319
31.26297244
31.2031591
31.17237157
31.15422306
31.01146823
31.02464064
31.04108461
31.06348607
31.12557079
31.19650763
31.35066716
31.62262997
32.35929553
34.28880941
40.34297358
69.20520055
90.76897129
48.56857205
38.14539135
34.43944617
32.71648927
31.79558954
31.42233981
31.18119727
31.09533255
31.05239832
31.02904423
30.89204296
30.90786929
30.92889452
30.96018035
31.03074393
31.1294292
31.33817521
31.71990123
32.75703042
35.49713375
44.21978343
88.90538507
185.560979
62.70042005
42.34766162
36.00221969
33.31476957
31.954335
31.42507726
31.10868034
30.99360094
30.93638966
30.90722238
30.77673758
30.79501771
30.82070505
30.86154912
30.94538557
31.07575066
31.34438031
31.84402412
33.16151026
36.51750354
46.55883767
96.40080287
233.1417922
74.95131585
46.62165266
37.64240415
33.94094687
32.13747588
31.4399725
31.04609294
30.89992508
30.82674019
30.79074185
30.66978511
30.69145436
30.7234096
30.77666496
30.87019847
31.03415696
31.36567605
31.98644638
33.54968287
37.35220112
48.24636681
107.0380078
231.8542107
82.15628951
49.9849737
39.0521315
34.5281455
32.31531674
31.46574499
30.99222046
30.81620768
30.72677559
30.68365482
30.56873686
30.59320259
30.63060149
30.69538123
30.80423094
31.00257568
31.40001572
32.13603373
33.90678767
38.05861164
49.83926534
119.7655827
213.5614828
85.03859765
52.06772029
40.04008052
34.97572431
32.46300171
31.49260479
30.94739736
30.74231845
30.63731106
30.58659124
30.47642181
30.50463345
30.54964358
30.62772255
30.74555109
30.9776975
31.43673092
32.28088905
34.21828735
38.65605617
51.63729437
129.2838342
1211.796721
182.5994592
85.27634757
52.96601738
40.55366781
35.25138354
32.56519416
31.51168531
30.90616015
30.67775704
30.55798788
30.50042993
30.38863109
30.42019724
30.47214471
30.56187149
30.70003038
30.97203382
31.5105554
32.45421495
34.56121449
39.33944345
53.97923477
172.7028343
681.0583273
171.6242134
84.271079
52.92766445
40.65386887
35.36827622
32.62145339
31.51603373
30.86413659
30.61851154
30.48578007
30.4214871
30.30713148
30.34214012
30.40056857
30.50083171
30.65228585
30.95660731
31.55646327
32.60018103
34.84949482
39.84304402
55.75310713
337.472023
484.9102194
160.9767874
81.71117909
52.15793224
40.43026379
35.36035012
32.6187596
31.50186046
30.82053304
30.56161567
30.41813971
30.34873425
30.22650194
30.26477023
30.32930638
30.44030409
30.60577487
30.93900227
31.5978142
32.76103512
35.24114249
40.67533485
58.6369482
533.9316926
419.4844927
149.4975168
77.71431309
50.83348983
40.00621792
35.2435805
32.57901131
31.46708589
30.76921453
30.5012325
30.34991355
30.27553655
30.14928519
30.19083841
30.26077274
30.38060325
30.55794657
30.91665437
31.62932894
32.91243796
35.77044863
42.20479281
66.36873592
843.0397777
330.95278
133.5383934
72.35259797
49.14899246
39.55834439
35.07449976
32.5015825
31.41540392
30.71115329
30.43805579
30.28031922
30.20228758
30.06903922
30.11353965
30.18849467
30.31724835
30.50693084
30.88771014
31.64782012
33.01293801
36.27830267
44.43163581
90.49569372
893.1141004
250.5143864
116.5703795
67.15369653
47.73009445
39.11544051
34.87033294
32.39811377
31.34268516
30.6401205
30.36476189
30.20403469
30.12328769
29.99023486
30.03754903
30.11687405
30.25239242
30.4513404
30.85097867
31.65118331
33.08935535
36.56666242
46.47368073
134.0198991
756.3960687
205.4147396
104.959465
64.07297054
46.74403523
38.6688066
34.64402112
32.27532118
31.25401243
30.55955523
30.28469827
30.12236237
30.04031736
29.90550552
29.95507624
30.03845773
30.18123815
30.39044756
30.80611733
31.64351396
33.14633987
36.82487089
48.1519795
156.8260353
651.0399001
187.4662854
99.7484172
62.12472691
45.84100685
38.23617066
34.40962187
32.13957025
31.15212385
30.46733727
30.1940349
30.03142438
29.94898812
29.82209466
29.87359138
29.96027827
30.10792715
30.32373506
30.75331942
31.62290755
33.18920427
37.08269651
50.51126583
175.305216
567.3456155
174.1922374
95.20597707
60.42051889
45.03099524
37.82792353
34.17559674
31.9952217
31.03958188
30.3676224
30.09772455
29.93594569
29.853732
29.73085557
29.78361238
29.87327297
30.02668813
30.25119456
30.69296114
31.59246227
33.2239018
37.3711646
53.59597776
192.0874338
495.163178
162.5800667
91.0702185
58.87764343
44.31675425
37.45055548
33.94702821
31.84549734
30.91872785
30.25794095
29.99117536
29.83083959
29.74946114
29.64259629
29.69626038
29.78800325
29.9442767
30.17281087
30.62550947
31.55342196
33.25513415
37.74627957
57.06665747
208.4816796
431.3073747
152.1462889
87.25344517
57.45770026
43.6888261
37.1074734
33.7270049
31.69306272
30.79163644
30.14420916
29.88198158
29.72370034
29.64345275
29.54468059
29.59869891
29.69236344
29.85307594
30.08917257
30.55167273
31.50685358
33.28587582
38.26947719
60.73428989
224.1170808
374.7261028
142.7350529
83.77434461
56.17125106
43.1386685
36.79848104
33.51714873
31.53993328
30.66012086
30.02216655
29.76314997
29.60700142
29.52820987
29.45266827
29.5068183
29.60153679
29.76329262
30.00069461
30.47239864
31.45389035
33.31797052
38.93385682
64.34557869
236.8451622
326.9428137
134.5235994
80.74069345
55.0539815
42.6611511
36.51989284
33.31772568
31.38743607
30.52557676
29.89999981
29.6457976
29.49215341
29.41488042
29.34849827
29.40239944
29.49827865
29.66368908
29.90838766
30.38868151
31.39613125
33.35402954
39.65092556
67.50301468
245.2466056
289.6503651
127.7343733
78.22511927
54.11403655
42.24507513
36.26602641
33.12798656
31.23631601
30.38918573
29.76998485
29.51834322
29.36694359
29.29132664
29.25466481
29.30823859
29.40446308
29.56944132
29.81260588
30.30140131
31.33521151
33.39724081
40.3327012
69.92687736
246.7670145
261.4330585
122.2632878
76.16186957
53.31642564
41.87512925
36.03165953
32.94685476
31.08698176
30.25174655
29.64417109
29.3973834
29.24851757
29.17446301
29.14472422
29.19769821
29.29455142
29.46287925
29.71443426
30.21128369
31.27259012
33.44883041
40.94231637
71.65966955
243.8748308
239.7449205
117.7332128
74.41594164
52.61792266
41.53900639
35.81295036
32.77328425
30.93962715
30.11401002
29.50862211
29.26326714
29.11645092
29.04399902
29.0515475
29.10395382
29.2006781
29.36733165
29.61385296
30.1189657
31.20949767
33.50735561
41.47373763
72.86454434
238.2105039
222.5759795
113.8303179
72.88587727
51.98985757
41.22893905
35.60722638
32.60642015
30.79436426
29.97631706
29.383071
29.14262372
28.99815335
28.92712684
28.93553377
28.98715433
29.08413097
29.25417283
29.51207749
30.02502214
31.14686305
33.56956935
41.92890576
73.663617
231.1249993
208.586302
110.3749792
71.51353692
51.41569158
40.93996448
35.41250579
32.44554472
30.65125824
29.83926337
29.24273428
29.00248176
28.8598106
28.79025563
28.84556978
28.89653666
28.99315645
29.16067748
29.4085791
29.92998115
31.08534426
33.63189542
42.31189855
74.13848878
223.2876446
196.8933301
107.2643454
70.26426368
50.88507906
40.66866459
35.2272657
32.2900687
30.51038077
29.70290943
29.12174098
28.88653902
28.74589702
28.6775623
28.72238531
28.77247244
28.86902588
29.03990354
29.30498452
29.83436493
31.02534427
33.69124778
42.62805346
74.35444862
215.1252213
186.9071841
104.4324721
69.11526189
50.39089158
40.41254624
35.05031902
32.13948861
30.37181128
29.56794308
28.97515953
28.73913132
28.60013264
28.53314264
28.63890128
28.68835028
28.78452142
28.95279055
29.20015478
29.73870474
30.96695252
33.74518264
42.88267011
74.35365621
206.9003227
178.2273605
101.8329364
68.05023639
49.92775759
40.16962372
34.8806836
31.9933558
30.23569509
29.43414347
28.8642706
28.63285026
28.49535192
28.42931805
28.50674799
28.55523624
28.65097961
28.82152653
29.09672654
29.64367483
30.91016615
33.79179025
43.08030897
74.17005518
198.7743924
170.5911504
99.43376534
67.05719381
49.49139925
39.93822727
34.71754099
31.85134974
30.10241911
29.30274219
28.70608252
28.47395452
28.33806449
28.27327364
28.43387276
28.48181732
28.57722489
28.74698439
28.99302956
29.55020547
30.85511462
33.82974064
43.22559358
73.83416419
190.8698981
163.8047107
97.21270462
66.12705008
49.07818935
39.71683129
34.56013024
31.71308387
29.97300955
29.17388021
28.61454866
28.38436872
28.24935763
28.1852143
28.26431989
28.31107743
28.40579589
28.57721506
28.89417258
29.45997031
30.80252047
33.85834036
43.32350515
73.37841723
183.2881311
157.7341328
95.16302028
65.25924818
48.68776042
39.50501182
34.40824134
31.57851619
29.85024952
29.05171677
28.41138008
28.18100674
28.0477342
27.9849385
87.86505123
223.5931102
104.6461265
95.43913548
286.7305243
232.4101564
105.4499135
279.3266567
288.8833703
118.3547716
248.9657868
275.4461998
128.1976602
1698.927207
1277.756549
223.4207284
244.9972823
153.853064
870.4504197
1634.202955
711.4044925
219.2823702
221.0086982
64.89838802
52.83126535
94.73895249
48.49356622
811.6263897
251.2895119
174.747441
69.75387179
54.39749127
46.09085571
80.85985968
75.78080657
2965.053475
2065.672356
230.4407069
87.63853287
74.81952604
47.89726534
87.41961413
81.55632105
99.70900989
279.1183957
256.9702556
1549.406214
2227.868645
233.6034065
97.57541489
90.9005078
49.53632767
96.91505827
88.45592868
111.71163
375.8428413
311.7634947
792.1749595
1102.584739
51.31441479
108.6090731
98.0711079
121.6714019
534.4235303
443.2886182
3750.571228
491.060666
573.2358172
53.71325065
128.6854255
110.2662453
137.3887237
1055.55055
728.5012781
159.7274079
629.2691795
853.7256208
233.7041084
266.8554946
139.7018633
226.6671696
2008.568619
860.1192795
173.2611685
672.4638951
1355.359171
254.2679992
235.695773
92.4467763
305.4892958
313.8674661
272.2333037
302.998382
2259.314449
2964.522888
262.3649495
1992.342368
1679.589089
1402.78466
1987.178877
258.9608121
308.8083201
282.782012
100.994958
354.3406989
393.9453134
315.8268125
351.2332346
1160.602771
1511.368818
286.9394183
1084.328226
821.5324091
1657.483881
1133.923297
288.7745983
439.4508556
378.9149294
113.2466973
453.5839616
545.0138434
396.5321223
450.0369084
591.8257384
757.8818397
719.0746409
543.0281893
121.9309163
4480.737946
715.5493428
1038.904657
549.5061908
701.1339971
4818.984457
450.7355175
482.972213
3477.86537
8563.610508
1061.694041
138.6712477
1044.90701
1620.667382
8889.309215
1046.200809
1599.604522
1092.181846
43.43589091
74.8076035
60.8738494
80.260519
182.1064395
120.0933662
5511.554594
903.8671984
91.82394098
233.224302
210.330771
7465.369269
216.3201525
100.9473832
98.93104147
6807.631722
1176.697642
1329.242524
879.2417463
400.1038299
435.7111983
207.5570075
186.4088751
82.74431579
1566.549158
361.7322524
783.7022648
203.4887436
590.8947439
159.1872414
1360.98938
1848.873154
259.8835086
610.6531693
519.0524719
790.2727208
628.7771152
264.0973312
2697.070748
5423.874655
1395.015301
93.51671116
72.80913713
124.3898426
210.0524735
89.84440067
95.89806673
8718.932863
554.0470756
5737.360137
658.5374655
3915.209502
494.2250407
2389.400184
2355.186859
1827.570371
1874.951205
3829.558767
6606.606597
907.3508029
4475.17886
2402.035842
7394.841255
4975.999921
952.7237229
475.6390811
203.3023783
210.7426753
973.8014394
1113.676103
6238.703516
775.9359971
252.2216469
264.1755557
237.5210295
247.6164494
773.5701813
1461.653409
1569.550427
249.1109903
1044.845161
892.0975527
1485.11031
1043.797298
253.2185321
185.3597901
594.9392182
286.8861463
806.5972872
629.5497062
199.514107
813.6553443
1108.827067
1384.705997
1308.24005
303.4327822
1552.460845
303.6091581
287.6991787
1534.025972
1500.943049
1550.737299
1537.348107
291.799888
2425.125943
2454.815116
1809.927591
551.6772267
537.9947756
553.0386521
553.9247003
1793.470011
1663.553659
488.0651469
445.1113915
530.5028404
501.0685949
1695.973553
372.5264566
375.1065597
330.6920949
332.8668834
1245.968502
7622.442333
1274.446301
480.557356
486.7611859
423.127837
426.7697696
2245.284
1537.549821
673.8606801
1991.890426
3572.135416
589.0769937
224.6734273
234.0110345
213.4069715
221.7529485
581.4100258
2944.704565
754.4302422
765.388899
581.842792
585.8641664
6928.126321
2144.706894
834.6554012
934.0800862
269.261028
277.7394802
1269.54507
2537.35184
3553.556653
4315.164463
1073.183271
7255.603902
4478.941356
6463.73173
1069.175126
1295.785647
5125.8771
3905.859114
5771.258897
3644.584468
4383.608004
55.35763779
125.9799429
130.5137533
180.6499671
4379.112223
8163.978494
505.3605722
202.5185761
215.2199517
1664.51692
4750.338388
5807.937144
728.8265203
802.919941
1955.719624
367.4950661
388.4214911
850.8092276
204.3100034
145.2414509
317.7556433
714.0225422
186.8651415
220.1151566
2788.218727
7523.940449
7872.429371
2211.880336
1672.122278
4998.367827
3607.063493
8313.611056
8056.541277
2113.402933
350.7741803
173.1890921
177.994451
167.2582583
171.6605844
345.0857628
194.5734783
201.1086981
471.5126967
981.6469328
427.7492896
443.7877218
7407.294099
3505.561272
815.4172364
1729.734919
6766.896671
7476.902428
917.4197654
352.3089691
291.7968086
427.2897614
373.2605986
963.4967524
2334.953354
8318.489813
8339.103968
2797.176587
296.9637063
161.7761991
165.8666021
742.3577975
731.7784948
385.5841195
3380.28661
3062.461096
1408.744205
962.5628841
485.6551586
507.221012
1447.265912
539.0060783
550.6892714
514.831942
533.2184467
1413.509639
405.3304481
186.7387842
192.5651572
179.6619689
184.8950823
401.2933931
464.2561685
1017.822096
1010.497134
1549.065371
1508.176277
526.2042897
406.7085489
774.7930967
744.0703274
1007.32999
1002.8185
439.9136645
649.1502749
1469.356669
1158.167871
6939.157526
3764.877784
735.7953114
890.9414538
562.9055654
1577.104342
1555.463065
1577.225309
624.7786048
6063.195109
8563.362701
340.2554768
371.536371
449.6094263
463.33962
1063.916831
3764.184851
2852.403262
932.8368568
1629.993676
7897.431807
3530.017824
3439.674423
15758.0529
1053.317183
1528.101594
3139.511848
3723.835654
2851.676784
7468.093823
7559.409322
2624.534175
3346.753294
6991.319237
1598.501851
1536.588997
550.6051223
2048.400142
918.5689685
1985.927715
604.9184669
5854.038528
4701.665822
1582.173573
6411.825118
7153.407265
5622.68771
4628.029098
2213.575496
5734.383539
6747.50271
4599.044752
5518.559977
7063.096218
3761.062211
4338.341865
3150.37942
3567.616764
6363.830327
9290.045079
2194.010895
1277.541804
3779.763006
2448.833769
1138.174209
682.0847771
2085.798121
8229.329472
10520.76333
2643.253289
2246.410917
7970.171766
8252.527292
5527.461937
5177.930745
1716.600092
8067.72056
8015.598101
6181.157178
7806.76585
8011.120458
2050.460595
8172.205655
5700.630084
5046.4106
5455.818144
3443.801782
1409.485418
1539.61644
6072.248399
1840.336933
2118.047526
1591.654014
1755.906847
5799.583425
5104.426589
1894.383277
2373.072624
403.8996493
422.209374
900.5097448
750.4860129
386.3872646
399.3807158
1554.100237
1560.870169
1044.810029
427.6515435
446.2710829
403.6868769
422.1449357
1040.212385
1080.672435
488.0991012
522.8397868
452.7211534
477.9126921
1088.873413
747.2365189
375.5308917
398.0865803
1041.621918
1068.936846
4767.799682
4931.125599
1635.938164
7179.18731
7315.839465
9526.408648
5019.341909
4232.172584
7094.368959
4941.232969
1083.616259
3405.094654
4576.01588
1577.764765
608.9685951
670.8826602
587.4829793
598.9505367
1549.571564
714.4992871
721.9414069
690.7398914
711.7968045
1525.589513
548.1929013
558.3880609
530.5417999
544.5651055
1520.534586
1544.56725
574.5345903
583.8275228
561.7027921
571.3768602
1544.962377
8186.899405
8286.339971
2359.803344
2674.016461
8559.258149
8160.567952
993.9889718
995.6964012
973.893456
993.5132522
1003.151229
1012.212022
996.533266
1001.437128
733.6334738
741.1366299
724.2356737
731.1232347
775.794947
934.7691388
744.979456
754.9672692
2863.88462
3425.41671
2220.249715
2640.964048
7884.680709
5336.078971
5836.829622
3694.307912
5162.770095
1028.020701
1022.488707
468.1270501
1582.648172
1585.886441
1556.043096
1575.02524
1626.006566
516.0977574
1475.430557
1076.289117
978.5899341
793.7760351
410.5343082
1053.803249
1474.780046
1012.420283
1063.193472
1526.883419
1546.323326
1492.310817
1518.605937
436.6293256
1001.583135
994.7169234
7216.122861
2476.415135
7228.49514
6467.183466
7209.156642
2698.074486
7086.857733
3507.668235
6854.994076
6079.831899
741.5179518
813.2499907
1605.501394
1581.658396
567.1053637
610.2218069
1661.517234
1607.430767
6853.550661
1097.983326
473.2810183
509.2621076
6274.051935
7019.489566
1690.620898
7788.550723
6162.099731
3963.1944
1054.27132
7356.183551
5032.056034
7700.061979
5318.344099
1476.97899
83.38436085
49.90905086
40.32905143
6997.247746
6979.29484
201.8380455
100.6797219
101.1409846
7209.129617
2042.397149
4389.702358
3782.991383
506.1148244
422.0373965
235.2597003
574.6116826
349.1292723
914.3310925
3304.532356
524.884692
629.8899375
65.58717012
80.62290551
181.0899413
702.9323408
1516.73756
2319.75474
268.8323817
151.1744714
155.3279731
145.3549196
149.7781296
265.7247265
1497.325936
1746.162088
4710.948984
1101.668046
964.8237331
534.4661116
370.6352734
382.4742476
746.2373359
2539.816793
3273.828885
1015.016541
156.6246055
160.4804572
293.4618863
362.3345574
706.1405577
683.9743729
663.8821809
602.3392541
342.4169279
648.291125
354.226185
366.6544544
5698.179771
5474.565117
4248.907188
1573.587521
1554.3974
1019.218752
5192.828705
6791.840156
6219.671325
2851.085254
1237.485637
1429.137448
1623.450381
1049.989457
1602.546313
1591.416525
1597.703548
6048.14393
7307.577743
5135.819364
5469.650565
6735.196989
3088.705165
2436.772622
1195.077401
1576.829399
270.540533
209.3209777
411.6679729
1514.577152
4288.32327
3372.400344
6845.173999
7163.326957
7257.465131
6244.496521
6974.219513
131.989191
174.1941178
540.8458247
6912.501955
4217.765922
3090.01923
8928.752487
7093.88682
4140.007633
5993.879156
5641.728884
7637.092497
7356.982786
6042.040539
1271.187449
1376.928517
3149.691247
7521.708473
4978.952921
5371.715795
5707.570082
4360.959266
4704.941824
1507.34825
1943.60635
1569.656335
1045.230832
745.7483073
752.2662939
1453.042867
955.3449136
995.2854432
757.0880276
765.3564471
1051.054537
337.1370765
368.467146
723.7084227
896.7587915
1508.215424
1136.24549
1616.400609
1667.438366
1117.916149
1848.166139
1393.901379
1439.422354
1029.161136
1029.639506
1554.3088
1513.959757
1522.565073
1466.592541
1483.062082
1529.785629
1012.735088
1013.793274
1009.546044
1012.235352
1509.313537
1548.587877
1024.439713
1025.943776
1015.151972
1016.64224
1540.030027
717.5817613
709.2969828
364.9527714
383.009377
728.9318457
720.2549849
576.2229903
566.8091874
324.1192937
1538.177712
1538.870493
1524.467293
1526.475977
1842.849485
1542.43054
1542.524596
339.8856571
592.1942273
580.1166059
7781.631811
7720.350474
5566.506448
5815.406041
7581.583383
7815.301891
8030.283789
1377.012625
2934.481074
2406.241078
339.6687821
350.2664022
623.1081422
566.2605188
328.2866183
336.6968234
1048.587625
1048.867667
751.8420626
767.3100246
1054.366113
1058.536555
6874.893846
1341.208155
901.2786889
890.1682223
7814.58959
2069.830373
3866.340693
5769.407061
5180.14232
1658.140169
1640.839153
1061.668485
7100.063745
7630.844789
7312.546503
6027.933126
1119.755158
1696.668458
1648.536455
4473.985484
2613.168318
3016.882556
6894.301739
6813.418213
5811.231485
5543.048768
4129.76671
1826.83682
2634.339958
2597.909374
5149.445508
7004.731711
6283.183075
7082.933546
6862.483788
5547.247649
320.7396895
463.9304188
1854.487093
7706.190387
7507.383778
7883.21478
7827.587551
7694.980937
4759.40461
4741.651364
4767.30493
4758.365779
7727.9954
8305.819752
4843.435264
4894.775081
4607.646083
4768.260665
8393.329637
7067.928172
4347.690997
3900.08831
4713.90664
4601.546347
7260.231362
8292.98326
5026.097584
5076.877467
4948.190985
4983.212971
8335.004157
8052.225309
7914.246925
8039.032462
7808.113882
1016.712875
736.7037078
739.520374
1537.318738
1015.403709
1018.128371
992.9044758
1010.4031
1527.293141
6663.19739
6869.323221
6169.195381
6739.615806
1581.014262
1592.397014
1556.966904
1569.679898
1978.525842
971.5586706
1514.856772
1460.370056
1569.030131
1021.369372
1023.765597
1019.009524
1020.476826
1563.390873
1501.896265
1538.436298
1084.063231
1448.402037
1963.37897
7089.578566
6736.374086
5619.665444
6937.967596
820.3909722
1109.732047
13122.58883
1066.812864
757.074808
758.8663103
1635.98233
7826.496265
8253.540546
10638.25808
5908.876833
6090.969368
1615.491443
1605.972355
1050.077337
1569.637482
4394.912595
7335.871049
4860.969607
5676.706543
4468.911407
1931.918553
6277.411151
4366.346929
7521.208699
7737.675545
6940.107132
5763.266039
6289.975717
1572.993384
1869.28296
2028.699633
1001.280588
1192.172258
1694.19049
1760.986715
1206.75868
1675.328528
2210.053597
7001.56102
7152.5027
6926.752604
6212.159426
7012.348216
6936.315289
6834.052597
4883.22942
6144.679926
5746.867532
6745.156522
6908.943307
5209.593214
5438.543281
5803.939898
6942.412205
5909.515846
4886.143508
5110.143767
6545.19694
4395.786726
6505.50438
3163.410487
4843.049226
6619.635353
7457.622885
7007.159227
8541.759991
5033.601739
4755.345217
7123.874901
4946.380814
7986.543597
8064.365599
4774.51654
4770.213093
4799.417853
4765.58074
8116.016602
5404.588297
3104.747319
3168.79591
7992.312315
8029.207663
7019.519174
8225.681103
7986.159273
7937.243201
8157.999499
8459.342932
7066.816251
3787.568236
4263.074591
3265.779177
3447.640876
6116.443198
7348.534044
6525.183243
4572.678028
7540.544437
7311.058239
7291.84505
5661.004293
7377.898481
7186.095788
4000.08594
4454.538791
6750.46056
1540.017431
1569.141994
809.4689136
884.1464643
1410.899889
1047.465234
768.101362
790.0423111
1607.856868
1582.077881
993.4868403
1704.502778
2047.380962
1067.691897
1632.493359
1629.062923
4755.178172
3166.6698
3120.028526
3487.052472
3372.256254
5012.891214
7696.652759
7183.207146
4726.939847
7124.898254
7378.152835
6860.727027
7109.138057
4661.318618
6961.977562
6834.320994
9048.519648
6564.923157
1075.3669
1067.132523
1511.966679
1556.529733
1036.494882
1032.240644
1503.622891
1510.415359
1491.347115
1498.585306
1012.540832
1012.830682
1530.001466
1515.298435
1012.376714
1012.308088
1020.675546
1022.067637
1546.014128
1543.71056
1018.37374
1019.647703
8250.611082
5218.561314
5271.069656
5115.008687
5161.457156
8237.615351
8207.972926
5889.303866
6843.569811
5360.157072
5521.205476
8177.23227
994.6389835
1502.672768
1495.630748
1512.379055
1507.901763
995.0608117
988.5353192
1470.921381
1456.40089
1488.975038
1480.862449
992.3093079
1006.423879
1541.989813
1535.419991
1551.841385
1545.306116
1007.855737
997.6785042
1521.085024
1517.290366
1531.477706
1525.56567
999.0712824
1533.628455
1535.191719
736.0145303
1008.986787
1008.103366
1011.62256
1010.964344
738.9120636
1529.535738
1531.318545
1572.923277
1501.560973
794.4200992
1052.694466
1061.790157
1427.123375
1381.396708
864.4752029
746.4969823
1014.831124
1014.876491
1018.444489
1022.398288
754.1931205
1548.184844
1541.835212
7648.554929
7532.149039
7691.566745
6113.110958
6825.76959
5512.208617
7866.295464
7940.6791
7906.552375
7910.663637
5624.212983
4174.375387
6932.128263
6168.305644
7685.920562
7808.840173
4735.654513
1032.030296
755.3727398
756.5773579
744.4718252
746.368252
1022.558939
1582.904882
1593.46315
1560.253522
1572.959766
1543.375673
1924.859396
1421.126552
872.6696543
949.559546
779.2328848
798.9667842
1066.500646
1394.059418
1874.6913
1513.923074
1443.674948
1021.294203
1561.5285
1552.057631
1590.976443
1555.083824
1017.485125
1532.636973
1541.264832
1502.486592
1511.648216
7015.70052
5388.230499
5611.243704
4563.485746
5034.364512
7095.284648
7267.240817
7115.368741
5933.857127
6470.051976
7464.946323
6669.277748
5461.698013
5650.832523
4794.977174
5111.84819
6822.882851
1618.022435
1618.95294
1604.369431
1607.270185
1093.484298
1104.079321
792.3931637
1670.07684
1584.260149
1633.286165
1625.177627
1594.14849
1030.003235
1035.949721
1024.982142
1028.863323
1591.138212
1621.639791
1045.851509
1094.709288
1036.909636
1048.677884
1624.773203
6680.501499
780.4563159
783.4815879
1098.38312
6258.694107
7615.77648
7588.887513
8033.34371
7837.169476
6740.966724
1642.120541
7004.165548
5653.139662
5960.485515
1060.376698
1634.398891
1622.014958
7276.556464
7649.959946
7515.164423
6354.614133
6835.016907
8078.204127
7850.406942
5632.264003
7448.889296
6655.325576
1994.812512
1619.855442
1109.497961
31.77923997
31.79827009
31.87313033
31.80624186
31.84018866
31.89401186
31.85311944
31.90338925
31.92689783
31.92169043
31.98183198
31.96689613
31.99860187
32.04279824
32.00251916
32.05274296
32.06563863
32.01654253
32.06235134
32.03814801
32.00359443
32.02542379
31.97358734
31.9674331
31.95681164
31.90120583
31.92943673
31.88671248
31.84316334
31.89754863
31.68102942
31.72132605
31.77605778
31.73896139
31.81001778
31.82686067
31.8393202
31.94926342
31.90473188
31.99141343
32.1249629
31.99907222
32.15751605
32.25730964
32.0671187
32.27567824
32.27772288
32.09874044
32.2574181
32.20705683
32.06077666
32.1778378
32.0713716
31.98527592
32.03494777
31.92724504
31.90128887
31.89451516
31.80873609
31.82995875
31.60691501
31.68534089
31.70798566
31.72294937
31.87437629
31.81427021
31.94086662
32.18876834
31.98443349
32.28006155
32.58958696
32.18849697
32.69603621
32.95787803
32.33918061
32.99498384
32.97476956
32.37339701
32.87955341
32.72806726
32.27888161
32.64866739
32.3908778
32.11948384
32.30788634
32.08066104
31.95083519
32.01396103
31.8456589
31.80999974
31.56350831
31.71323784
31.68560486
31.78735642
32.10918143
31.91377681
32.25607785
32.85905289
32.30006945
33.10984772
34.11292394
32.77135084
34.43085415
35.33943349
33.23316203
35.53653112
35.34259236
33.24295744
34.9131482
34.2158007
32.940556
33.94350533
33.21079261
32.52338348
32.99778755
32.47986389
32.15159235
32.33835714
32.00443935
31.87096194
31.56150891
31.83344994
31.73450614
31.97239777
32.61172387
32.20467515
32.925239
34.41328951
33.1326771
35.1690173
39.19294797
34.69826907
40.97896352
48.84018723
36.50865422
49.42734354
45.88556276
36.35284731
43.03340412
38.48216736
34.83533683
37.34757741
35.04350907
33.52376614
34.49745156
33.29528433
32.63528599
32.99851363
32.33048266
32.06548092
31.60628084
32.0481081
31.87732276
32.27631668
33.39533475
32.77798967
33.99411898
37.21628121
34.99687573
39.1901072
57.79408231
41.19988639
51.26942143
59.9353192
47.34279252
78.21763936
73.54422995
53.70287453
57.66350234
49.64988218
45.71868534
45.56049061
38.59453359
35.71689556
37.27449726
34.6633419
33.58195417
34.08573499
32.86861042
32.44245316
31.6926382
32.32541365
32.10728081
32.65479511
34.30550325
33.60992968
35.21323448
40.25669565
38.02874361
41.4845971
45.29760122
43.79655759
73.32895912
86.29134356
80.44276953
127.783462
85.07265026
68.94082692
59.12954846
43.87621261
39.7437379
41.31510307
36.58788435
35.10497619
35.60217079
33.59697708
33.03244384
31.8111251
32.63681591
32.40287337
33.06103827
35.15134515
34.52604145
36.28230399
42.39516046
40.87290037
44.93091063
49.78118425
48.88894359
90.028466
108.7556535
107.113542
210.7907562
122.3826679
108.9816618
72.34942612
49.52910282
45.25820325
45.69060972
38.68119064
37.09052509
37.25377987
34.40659864
33.79492027
31.95022783
32.95061592
32.71584818
33.45467018
35.8770529
35.34393836
37.15803652
43.89823628
42.80349349
47.04660704
52.4485928
51.81480359
97.42293455
129.5778272
125.883582
236.429211
142.430153
137.1389957
80.8196255
53.98505907
50.74600979
49.26442122
40.54640946
39.16883371
38.74005654
35.15879882
34.59207423
32.09910822
33.25143992
33.02797889
33.82066391
36.49948727
36.04160903
37.8943261
45.16573793
44.21296441
48.71190721
54.75121406
54.05957806
108.6064846
147.8524084
144.4789403
225.9680005
146.0201589
146.0294337
84.61619647