/*--------------------------------*- C++ -*----------------------------------*\
| =========                 |                                                 |
| \\      /  F ield         | OpenFOAM: The Open Source CFD Toolbox           |
|  \\    /   O peration     | Version:  v1912                                 |
|   \\  /    A nd           | Website:  www.openfoam.com                      |
|    \\/     M anipulation  |                                                 |
\*---------------------------------------------------------------------------*/
FoamFile
{
    version     2.0;
    format      ascii;
    class       surfaceScalarField;
    location    "0.21";
    object      phi;
}
// * * * * * * * * * * * * * * * * * * * * * * * * * * * * * * * * * * * * * //

dimensions      [0 3 -1 0 0 0 0];
oriented        oriented;


internalField   nonuniform List<scalar> 
25162
(
0.000440593922
0.9162094061
0.0005567826568
0.9165838113
0.0006768557498
0.9165299269
0.0003392254667
0.9165280498
0.0004595804368
0.4583348219
0.0003544035637
0.4582915701
0.0004546638947
-0.0004462339963
-0.0005783159874
0.4582583681
0.0006699479293
-0.0007615537695
0.4581988482
0.0008977055396
-0.001047957602
0.4581656447
0.001212312878
-0.001398490571
0.4581359607
0.001597529834
-0.001797665404
0.4581390124
0.001993652986
-0.002181078092
0.4581832601
0.002329317989
-0.002437027817
0.4582740237
0.002496504138
-0.002504324317
0.4583804866
0.002458837693
-0.002366183039
0.4584693943
0.002226788713
-0.002062216637
0.4585157593
0.001881457287
-0.001687220234
0.4585172994
0.001504920872
-0.001325848556
0.4585143879
0.001126460662
-0.001027574828
0.4584792644
0.000898310424
-0.0007396530182
0.4584778074
0.0006118456133
-0.001555118361
0.9187519985
1.526906136e-05
-0.0005621491783
-0.0009803124156
0.9187751941
4.301331726e-05
0.9158266743
0.9138430133
0.001208982077
0.915000424
0.001940579451
0.9158522139
0.002275525166
0.9161949812
0.0007436622569
0.916904894
0.001155018806
0.4579923221
0.0009081546634
-0.4581568145
-0.4581139002
-0.001138705179
0.4578234761
0.001429129307
-0.4579305313
-0.001789803452
0.4574946971
0.001045557728
0.001180079847
-0.2288844206
-0.001275784494
0.2287703778
0.001389827379
-0.001876385263
-0.2288004963
0.2286481768
0.002028704749
-0.002641995547
-0.22873072
0.2285372353
0.002835480273
-0.00353119332
-0.2287203141
0.2285157646
0.003735742855
-0.004369579284
-0.2288121492
0.2286986379
0.00448310002
-0.004210808275
-0.2290206018
0.2287966916
0.004434704768
-0.005114189544
-0.2292511425
0.2292296806
0.005135651372
-0.00481822275
-0.2294032831
0.2295193604
0.004702145371
-0.004159135492
-0.2294918644
0.2296859127
0.003965087138
-0.00334663126
-0.2294957804
0.2297142373
0.003128174286
-0.002552486102
-0.2294472555
0.2296418342
0.002357907382
-0.4589717758
-0.003636938141
0.4605224126
0.00208630138
-0.0006798256701
0.4610888838
-0.001085346308
-0.4593237118
-0.001246124867
0.9185358655
9.566538946e-05
0.001366592455
-0.0007840799262
0.9183131491
0.0004452106021
0.9145973837
0.9142882239
0.001519912001
0.913480512
0.004099558382
0.9132725675
0.007011869356
0.9132826702
0.002996056379
0.9144678237
0.006452883234
-0.4578680597
0.4576167696
0.003247346474
-0.4575293228
-0.003336283457
0.4580412166
0.0028243897
-0.4569019624
-0.003077401336
0.4564601821
0.001703557553
0.001815624094
-0.2282136522
-0.002127657631
0.2279715023
0.002369807534
-0.2278921194
-0.003237462895
0.227556468
0.003573114354
-0.2276919275
-0.003738360363
0.2323501477
-0.0009214246642
-0.2367981772
0.01677466074
0.2410665719
-0.02105112176
-0.2352136999
0.03026525935
0.2370680268
-0.03212563369
-0.2273197154
0.03408803033
0.2267969432
-0.03356458669
-0.2205983509
0.02853151219
0.2178036117
-0.02573003877
-0.2222639975
0.01397371659
0.2173302196
-0.009032913207
-0.230606228
-0.006805345954
0.2299850592
0.007426727732
-0.2306517597
-0.006158217962
0.2310696674
0.005740310287
-0.004283335847
-0.2305276363
0.2312728721
0.003538100028
-0.4633097086
-0.0010498921
0.4623542201
0.002005380571
-0.4603053233
-0.001963199169
0.4604471809
0.00182134155
0.0007400396651
0.9206782731
-0.001615762844
-0.001266684367
0.001933413414
0.9171197754
0.0008919032596
0.9156388939
0.9151801272
0.0004851571711
0.9129953548
0.001107351527
0.9126503732
0.002412477193
0.9119775446
0.003333685946
0.9112787893
0.002267825691
-0.4567701474
0.4562453444
0.00385848891
-0.459429393
-0.005196927508
0.4562146182
0.008411702226
-0.4576918585
-0.009883227921
0.4589794897
0.002614870355
0.005980726333
-0.2270824335
-0.002761879365
0.2267847452
0.003059567751
-0.2289246533
-0.002455509431
0.2346699294
-0.003294178658
-0.2487484423
0.01920414064
0.253140665
-0.02361601902
-0.2510033432
0.03323457049
0.2529365912
-0.03518859449
-0.2404075577
0.03785810564
0.2405094282
-0.03797136914
-0.225249596
0.03717330883
0.2247774326
-0.03669912713
-0.2116117457
0.0346802474
0.2105822959
-0.03363611518
-0.2051913281
0.02829079972
0.2024788223
-0.02555666192
-0.2130582164
0.01414052547
0.2083042846
-0.009369640448
-0.2350026662
-0.002106799068
0.2372557643
-0.0001453768172
-0.004742853216
-0.2323891506
0.2325073104
0.004624693405
-0.4626141369
-0.007004903643
0.46412497
0.005494070564
-0.4613591195
-0.004028412142
0.4625576501
0.002829881545
0.00363652934
0.9211539026
-0.002166252655
-0.001945906211
0.002427824765
0.91832848
0.001109993879
0.9169567248
0.9162901211
2.76167404e-05
0.9129677381
0.0001533809655
0.912524609
0.0005257722951
0.9116051532
0.00131183673
0.9100468375
0.0004458872854
-0.4558825243
0.4549695387
0.002224822274
-0.4546096929
-0.00278803811
0.4537990474
0.003598683641
-0.4526006752
-0.004700284207
0.4515219327
0.003041035872
0.00273799082
-0.2271097101
-0.005074239279
0.2257145254
0.00646895071
-0.249970281
0.00256595272
0.2558006404
-0.008420089917
-0.2615505159
0.01985311032
0.2626689567
-0.02100615365
-0.2533389944
0.01971645553
0.2515280437
-0.0179330336
-0.2368937655
0.01034309446
0.2342697913
-0.007731335381
-0.2236015278
0.00256330043
0.2233126272
-0.00227184179
-0.2115939341
0.005463557387
0.2136348405
-0.007486928284
-0.1996890224
0.01370782206
0.200813109
-0.01480058304
-0.2096951223
0.02577024758
0.2021085161
-0.01814515757
-0.2162318994
0.005822765535
0.212479286
-0.002049930562
-0.006624299967
-0.2342757777
0.2349739959
0.005926081783
-0.4660969456
-0.007989723636
0.468013284
0.006073385226
-0.4637158623
-0.004652295387
0.4649154234
0.003452734296
0.004310374821
0.9235334699
-0.003696081057
-0.002993861101
0.002338600241
0.9203002545
0.001046489893
0.9182488351
0.917336611
-0.0003598571142
0.9133275952
-0.0005793206826
0.9127440725
-0.0004702308269
0.9114960634
7.660489133e-05
0.9095430393
-4.303750311e-05
-0.4540187425
0.4536203225
0.0004750249611
-0.4531152503
-0.001548370516
0.4521920779
0.002471542949
-0.4503892182
-0.003239711547
0.4490804485
0.002270679042
0.002277802132
-0.2342885688
-0.0002707561497
0.2367931657
-0.002246975548
-0.2583210623
0.007537154672
0.2590290418
-0.00828597263
-0.260780856
0.004498376911
0.2570019418
-0.0007645230764
-0.2401361487
-0.01349347691
0.2388598996
0.0147440547
-0.2217664957
-0.03325407221
0.2171547348
0.03785999172
-0.2225868949
-0.04981060975
0.2222637398
0.0501343098
-0.2269377051
-0.03727448352
0.2320193292
0.03220307924
-0.2163624612
-0.009911701603
0.2190650496
0.007242494655
-0.1989132818
-0.000746512166
0.2007067318
-0.001000723542
-0.205801076
0.002272765569
0.2051245162
-0.001559065869
-0.003839050712
-0.2339145941
0.2324327412
0.00532539614
-0.4697458057
-0.007958676954
0.4714901102
0.006214372516
-0.4657094701
-0.004939140525
0.4664355777
0.004213032996
0.003377367765
0.9262032931
-0.002874431226
-0.003172759666
0.001787074153
0.9218905481
0.0007201122019
0.9193157971
0.9180567232
-0.0009166471492
0.9142442424
-0.00166841101
0.9134958364
-0.002199793124
0.9120274455
-0.0005829950349
0.9093894166
-0.001463175304
-0.453463305
0.4531177998
-0.0002374898059
-0.451014709
-4.995275845e-05
0.4505514076
0.0005132541764
-0.4484516341
-0.001626242648
0.4480019427
0.001098915705
0.0009765605228
-0.2405170836
0.001152600973
0.2411942452
-0.001855756641
-0.2601603945
0.001435486386
0.2557202044
0.002953298289
-0.2474606651
-0.008779939426
0.2442793561
0.01191706649
-0.2178453991
-0.02568462278
0.2105858953
0.03292924465
-0.2017959407
-0.05645934916
0.1019361945
0.09594717372
0.02803293818
0.03233898341
-0.03960527756
-0.1084156802
0.1078542015
0.04016675626
-0.03208710042
-0.2543470075
0.06027095622
-0.03240020826
0.128946444
0.129616916
-0.03966331768
-0.2336755195
0.2404220857
0.03293901072
-0.2098612588
-0.01840588384
0.2150458225
0.0132695444
-0.2076279971
-0.003474532879
0.208708303
0.002445973489
-0.00218296267
-0.2268369028
0.2261238772
0.002915835991
-0.4732049589
-0.006335477141
0.4743277954
0.005212640725
-0.4675647023
-0.003867453505
0.468634285
0.002797870879
0.001557352044
0.9279634053
-0.001463206813
-0.001854257432
0.0006086106168
0.9228392896
0.0001709134671
0.9197534942
0.9182276366
-0.001518406165
0.9157626486
-0.002961598347
0.9149390286
-0.004169375409
0.9132352226
-0.002249897352
0.9104559817
-0.002986043186
-0.4531348395
0.453176474
-0.002291531898
-0.4503442964
0.002383388495
0.4502632647
-0.00230235677
-0.4470181032
0.002137877308
0.4472312825
-0.0009042081204
-0.001451138945
-0.2404903695
-0.0002510709488
0.2395307152
0.001178732662
-0.2505660985
-0.005642560518
0.2487475043
0.007405001608
-0.2349775831
-0.01381611249
0.2326361701
0.01611281425
-0.1978726469
-0.02268831396
0.1959189636
0.02463668562
-0.08541987505
-0.01553221598
0.08499466267
0.01595742836
-0.03796857733
-0.1447048081
0.147886814
0.03478657146
-0.04227267835
-0.2610714162
0.2666259133
0.0367309994
-0.2262419547
-0.02390146939
0.229808242
0.02038576574
-0.2146140577
-0.01151740818
0.21707345
0.009114939724
-0.001751945605
-0.2267450849
0.2271374978
0.001392035988
-0.4757381792
-0.003074294714
0.476821619
0.001990854984
-0.4694411772
-0.001258173002
0.4700604009
0.000638949321
-0.001197018692
0.9285050615
0.0007045979157
-4.92354901e-05
-0.001071798579
0.9227140695
-0.0006027601913
0.9192844558
0.9176248764
-0.002127081328
0.9178897299
-0.004176795561
0.9169887428
-0.006291389615
0.9153498166
-0.003751193149
0.9124086824
-0.004492897171
-0.453515129
0.453845094
-0.004081158133
-0.4504263103
0.004461524252
0.450793669
-0.004828882909
-0.4473627468
0.005198139725
0.4478331331
-0.002690567093
-0.002986286548
-0.2373377418
0.002191416161
0.2364008379
-0.001298268313
-0.2427278129
-0.00303128168
0.2408874956
0.004800771685
-0.2268057877
-0.009859958929
0.2254694418
0.01114367477
-0.1950239025
-0.0125318331
0.1957337027
0.01181919724
-0.08903961159
-0.003384599589
0.08988573062
0.002538480556
-0.0166997146
-0.1609030338
0.1612432308
0.01635951766
-0.02555594941
-0.2784171036
0.2802872295
0.02369426965
-0.2397394128
-0.01708325996
0.2422003363
0.01468036031
-0.2240774544
-0.007554180301
0.2261835726
0.00551970261
-0.0009425222093
-0.2297894362
0.2306693031
0.0001020483205
-0.4780225206
0.00132795417
0.478845059
-0.00215049266
-0.47027859
0.0024422959
0.470289913
-0.002453618915
-0.004459059827
0.9272940165
0.003181977707
0.00248812718
-0.003079223232
0.9213342329
-0.001579445483
0.9177846781
0.916045431
-0.002696402744
0.9205861326
-0.00551421535
0.9198065554
-0.008293862143
0.9181294634
-0.005250980914
0.915365289
-0.005999487875
-0.4544773407
0.4551085413
-0.005882181491
-0.4513171926
0.006609258335
0.4521397148
-0.007431780557
-0.4484812266
0.008273277831
0.4494711614
-0.004404250606
-0.004873419018
-0.2336741483
0.004016975187
0.23283188
-0.003229719523
-0.235909505
-0.0004432927664
0.2344105533
0.001856335676
-0.2225573535
-0.005438818934
0.2218265655
0.006107678583
-0.1989704273
-0.00553474423
0.2002012372
0.004302005196
-0.09458871189
0.0003416186589
0.09512746087
-0.0004163601547
-0.0004640074727
0.002678469288
-0.1571282448
0.1559276374
-0.001477861842
-0.005893934432
-0.2797617473
0.2781868268
0.007479150829
-0.2465914433
-0.007963322877
0.2474753518
0.007145021162
-0.2318311222
-0.003242709876
0.2333739566
0.001779415906
0.001908672727
-0.2337692097
0.234628204
-0.00272477139
-0.4785446088
0.006952561244
0.4776514261
-0.006059378584
-0.4698505225
0.005575177297
0.469858506
-0.005583160767
-0.007952099998
0.9243164741
0.005877554525
0.005052087877
-0.005198940199
0.9185810731
-0.00260973757
0.9151954755
0.9134356934
-0.003333011664
0.9239191443
-0.006679055933
0.9231525997
-0.01021370189
0.9216641094
-0.006677694344
0.9191742863
-0.00734500478
-0.4560139881
0.4569169277
-0.007580633991
-0.453100182
0.00867134769
0.4541824192
-0.009753584857
-0.4507979176
0.01100213947
0.4523267243
-0.006144863193
-0.006410151939
-0.2304151923
0.005575866795
0.2296311747
-0.004859507159
-0.2302581916
0.001622252302
0.2289660885
-0.0004315939474
-0.2201567903
-0.002268511084
0.21973796
0.002616893997
-0.2040762114
-0.001225067443
0.2054031787
-0.0001027575706
-0.09835035083
0.002214149534
0.09873884114
-0.001287177998
-0.001315461844
0.01256897834
-0.1459959117
0.1444825707
-0.01105563728
0.007563231652
-0.2708245892
0.2678096984
-0.004528476839
-0.2482769793
9.445180487e-05
0.2488800515
-0.0006236835438
-0.2371694659
0.002651093664
0.2381704587
-0.003564862516
0.005994884438
-0.2370775177
0.237590041
-0.006465294214
-0.4763014275
0.01210083688
0.474563834
-0.01036324341
-0.4696574264
0.00883816858
0.4682883217
-0.007469063943
-0.01112914177
0.9198693617
0.00808760613
0.007488648041
-0.00720624799
0.9146581793
-0.003540681508
0.911529909
0.9098950119
-0.003898412757
0.9278175571
-0.00784912715
0.9271033141
-0.01199459139
0.9258095736
-0.007924186969
0.9234587873
-0.008354905468
-0.4580737918
0.4591892681
-0.009039663256
-0.4555141943
0.01033451476
0.4569257271
-0.01174604761
-0.4537527238
0.01330192655
0.4552103566
-0.00729936179
-0.007496268128
-0.2272871091
0.006681292492
0.2264981613
-0.005974142846
-0.2252862581
0.002925152271
0.2241092294
-0.001865465979
-0.2187945486
-0.0003315038904
0.2185669217
0.0004811703619
-0.2095177346
0.001516482351
0.2109506589
-0.002949505403
-0.1013136876
0.003688617546
0.1016901256
-0.002014385406
-0.002050670214
0.01554773848
-0.1344420573
0.133037129
-0.0141428102
0.01393447139
-0.2594719572
0.2570074782
-0.01143264617
-0.2482668842
0.008005652644
0.2477038467
-0.007351944916
-0.2402586573
0.007897402683
0.2406380674
-0.008189159641
0.009592046462
-0.2383058545
0.2382358752
-0.00948690262
-0.4725162176
0.01613747409
0.4701966766
-0.01381793304
-0.4668113855
0.01179899233
0.4650645888
-0.01005219565
-0.01386767228
0.9159097622
0.009196807082
0.008630464717
-0.00891398925
0.9097044963
-0.004335673529
0.9069515933
0.9055593384
-0.008090260572
0.9359078177
-0.01638662153
0.9353996751
-0.02484390629
0.9342668584
-0.00916610293
0.9324572595
-0.02467627549
-0.4605441516
0.4618959437
-0.01051789502
-0.4583934992
0.01201005245
0.4600632019
-0.01367975507
-0.4563291037
0.01538597112
0.4565913081
-0.007824439584
-0.007893688878
-0.2240492806
0.006869751993
0.2230996377
-0.006021323695
-0.2206328992
0.003120958084
0.2195407961
-0.002161870361
-0.2180997818
0.0004240431129
0.2178612723
-0.0002701918486
-0.215407321
0.002792721067
0.2169002769
-0.002134771728
-0.002150905289
-0.05243982958
0.002424458444
0.0525638286
-0.002548457463
-0.05811440519
0.005702139744
0.05772714137
-0.01114840224
0.005833526307
0.01341670038
-0.1249549566
0.2462556723
-0.02273297924
0.01294343201
-0.1249278688
-0.2512870648
0.01545810413
0.2497201263
-0.01383191287
-0.2471180527
0.01208613924
0.2470673806
-0.01192724063
-0.2418199801
0.01252902921
0.2420716218
-0.01268552617
0.01217565414
-0.2371754298
0.2365405101
-0.01151899669
-0.4675515099
0.01865089949
0.4649157082
-0.01601509774
-0.4632496915
0.01391389673
0.4613231973
-0.01198740245
-0.01594253632
0.9106714963
0.0108332717
0.01034753067
-0.01025182343
0.9040137835
-0.005036207487
0.9017359775
0.9005231309
-0.00458032598
0.9404881437
-0.009287232192
0.9401065813
-0.01425479115
0.9392344174
-0.009714845315
0.937841385
-0.009924071386
-0.4652917287
0.4667119071
-0.01113502368
-0.4635237631
0.01271298092
0.465221865
-0.0144110827
-0.4576414806
0.01625897251
0.4592899855
-0.008806716804
-0.00917951391
-0.2201837223
0.008248804025
0.219409484
-0.007579915403
-0.2160763909
0.004680951052
0.2149218873
-0.003663503839
-0.2180543326
0.001502633206
0.2177573088
-0.001287362247
-0.2215853194
0.002707143205
0.2228860688
-0.002035472068
-0.001972420508
-0.05509118504
0.004168358605
0.1105324134
-0.05510170116
-0.002268192584
-0.00223969316
-0.1129810059
0.007512212174
0.1127252673
-0.01454659497
0.007290121402
0.02180300226
-0.2391910365
0.2374887971
-0.02009783335
-0.2469003747
0.01365249778
0.2468577848
-0.01352409844
-0.2476542977
0.01419633344
0.2493709021
-0.01579390058
-0.2423675591
0.01589843082
0.2417423599
-0.01519189835
0.01290329145
-0.2337324182
0.2327607137
-0.01192849371
-0.4625397349
0.01951264945
0.4603829046
-0.0173558191
-0.4593874132
0.01529501638
0.457214785
-0.01312238802
-0.01556815737
0.9045956044
0.01076041931
0.01088362995
-0.0110671247
0.8995127508
-0.005417589745
0.8960864425
0.8951055412
-0.004766259729
0.9452544034
-0.009654248596
0.9449945702
-0.01478780764
0.9443679764
-0.01008620349
0.9433565881
-0.01021680723
-0.468221345
0.4697163904
-0.01158124895
-0.4669313143
0.01319354706
0.4686393894
-0.01490162214
-0.4622035562
0.01672758956
0.4660247357
-0.01021824981
-0.01035608762
-0.2183430597
0.01179969407
0.2185899618
-0.01213459416
-0.2118633248
0.01153148719
0.2111236186
-0.01091964211
-0.2156940489
0.008480730312
0.2147224117
-0.007601272298
-0.2245177705
0.005018666514
0.2236633345
-0.004183036421
-0.1131881857
0.005795426069
0.2267662776
-0.006157828417
-0.1132156896
-0.2266980785
0.01362119377
0.2271812739
-0.01410438914
-0.2370483101
0.01626186147
0.2380807632
-0.01725735332
-0.2480778179
0.01926480743
0.2486093559
-0.01968577801
-0.2493280826
0.02019268501
0.2493400702
-0.02007401038
-0.2393518347
0.01859513877
0.239381218
-0.01855873469
0.01402453482
-0.231492392
0.22901616
-0.0115483029
-0.4584478626
0.02099489921
0.4548771867
-0.01742422324
-0.4550413364
0.01553223397
0.4526310528
-0.0131219503
-0.01595433088
0.898688734
0.01099710262
0.01086409871
-0.01114002937
0.8946984493
-0.005635558971
0.8905819722
0.8894699822
-0.004835874353
0.9500902778
-0.009780125861
0.9499388217
-0.01493805337
0.9495259039
-0.01019997723
0.9488495627
-0.0102310507
-0.4712104881
0.4727045252
-0.01169401426
-0.4703256352
0.01327849764
0.4719822685
-0.01493513092
-0.4693793675
0.01668266541
0.4712664065
-0.009330487037
-0.009239203909
-0.2217971638
0.01396332736
0.2238032672
-0.01602218548
-0.2106295877
0.02031208005
0.2112822379
-0.02106837555
-0.2120231983
0.02145823445
0.2115274884
-0.02105723209
-0.2204323103
0.01882208818
0.2194936528
-0.01793212603
-0.2251118208
0.01616602307
0.2236411278
-0.01470356707
-0.2316445928
0.01950431226
0.2331159012
-0.02095394205
-0.2421875707
0.02522171485
0.2434009521
-0.02636693017
-0.2500381703
0.02813000653
0.2501061796
-0.02808739107
-0.247841633
0.02603200122
0.2466528562
-0.02473858872
-0.2349444431
0.01933996024
0.2327584514
-0.01711712335
0.01320620452
-0.2267480722
0.2260493191
-0.01250745144
-0.4537463571
0.02099981722
0.4506931709
-0.01794663095
-0.4494323264
0.01419482651
0.4475254091
-0.01228790914
-0.01504444963
0.8914288321
0.01139451447
0.01090983707
-0.008692078067
0.8883460778
-0.005666427534
0.8875563216
0.8838035547
-0.004803127878
0.9548934057
-0.009697754091
0.954833448
-0.0147678782
0.9545960281
-0.01009202083
0.9541953253
-0.01002162
-0.4741562283
0.4755978461
-0.01153363863
-0.47359237
0.01304485423
0.4751527705
-0.01460525466
-0.4730392001
0.01622912889
0.4747296597
-0.009006223742
-0.008913364745
-0.2327524317
0.009949909753
0.2359224005
-0.01312660074
-0.2164472949
0.02365434641
0.2193107252
-0.02657952833
-0.212487003
0.03310516654
0.2138291127
-0.03452151005
-0.2182757813
0.03688793738
0.2186010226
-0.03726263173
-0.216473954
0.03651447264
0.213411818
-0.03346191644
-0.236031933
0.03930168635
0.2364346193
-0.039672246
-0.2451174484
0.03994749984
0.2447925583
-0.03955241543
-0.2479040462
0.03639578178
0.2462111699
-0.03461652256
-0.2405078187
0.02728408662
0.2375676429
-0.02428527468
-0.2252883519
0.01460983858
0.2245538236
-0.01387502733
0.01213319297
-0.2241782149
0.2236059862
-0.01156096425
-0.4466708884
0.01967595267
0.4446543054
-0.01765936963
-0.4456742646
0.01573471901
0.4438194427
-0.01387989711
-0.01405790878
0.8833991154
0.01190130977
0.01018631573
-0.008199534767
0.8824877038
-0.005255001937
0.8846117888
0.8785485528
-0.004688002483
0.9595814082
-0.009448741435
0.9595941869
-0.01434251662
0.9594898033
-0.009796768408
0.9592981419
-0.009648564771
-0.4769803932
0.4783410192
-0.01115739438
-0.4766513406
0.01256804764
0.4780895532
-0.01400626027
-0.4763314765
0.0154816537
0.4778424948
-0.008557186018
-0.008435485915
-0.2378061828
0.009341084659
0.2382027909
-0.009737692735
-0.2309931176
0.01305696343
0.2356648449
-0.01773965261
-0.2211668006
0.03025988889
0.2246082061
-0.0337374393
-0.2221306339
0.04185568105
0.2240824904
-0.04383796701
-0.2063136659
0.04302299496
0.2056180668
-0.0423322877
-0.2359435827
0.04772421385
0.235290417
-0.04704563931
-0.241032996
0.04286783004
0.2389432881
-0.04073247747
-0.2382463968
0.03214036425
0.2347797951
-0.02863340381
-0.2264743738
0.01673925297
0.2238238905
-0.0140843949
-0.223018476
0.01277836099
0.2225719306
-0.01233181561
0.01096987463
-0.2220868082
0.2216267034
-0.01050976989
-0.4427903471
0.01812183478
0.4410711888
-0.01640267646
-0.4421076769
0.01472653516
0.4404578519
-0.01307671013
-0.01665510167
0.8774130977
0.01117286104
0.01146825829
-0.01094448994
0.8767770921
-0.002624473503
0.8762917724
0.8759240793
-0.004509387845
0.964090796
-0.009072250213
0.9641570493
-0.01372621388
0.9641437669
-0.009362508291
0.9640958034
-0.009161367072
-0.4796344326
0.4808994359
-0.01062751168
-0.4794593298
0.01192458902
0.480765289
-0.01323054825
-0.4792632265
0.01455228374
0.4805971617
-0.00801294334
-0.007873275595
-0.2393018408
0.008692285637
0.239640114
-0.009030558762
-0.2384690726
0.0100368162
0.2387991916
-0.01036693522
-0.2366835963
0.01132879468
0.2373964383
-0.01204228803
-0.231390928
0.02116142641
0.2340908158
-0.02386755307
-0.208430896
0.02636763179
0.2101628726
-0.02810047471
-0.2323818835
0.02986612706
0.2312469414
-0.02872277969
-0.2309996794
0.02245495907
0.2280960454
-0.01954308357
-0.2246812597
0.01351170214
0.2244677629
-0.0132982054
-0.222789455
0.01252285551
0.2224928589
-0.01222625941
-0.2213930113
0.01125169378
0.2210466181
-0.0109053007
0.009825811268
-0.2204052753
0.2200303796
-0.009450915535
-0.4394884846
0.01647239768
0.4380326707
-0.01501658383
-0.4389472993
0.01356867077
0.4374965299
-0.01211790141
-0.01556966335
0.8719658763
0.01033723515
0.01067964964
-0.01028031272
0.8714877414
-0.005105256977
0.8711167167
0.8708188223
-0.00428570826
0.9683765043
-0.008607010124
0.9684783512
-0.01298165352
0.9685184103
-0.00883750526
0.9685563306
-0.008604675492
-0.482093364
0.4832564409
-0.01000058216
-0.4820021788
0.01118077152
0.4831764484
-0.01235504116
-0.4818463954
0.01352775108
0.4830136889
-0.007413125115
-0.007281919406
-0.2405751711
0.008005741191
0.2408629331
-0.008293503205
-0.2396948189
0.009132799459
0.2399648031
-0.009402783679
-0.2382338409
0.01017834581
0.238483097
-0.01042760189
-0.2360674765
0.01108792614
0.2361094949
-0.01112994453
-0.2137935199
0.01056411893
0.2145940489
-0.01136464799
-0.2298956642
0.01219541898
0.2299290848
-0.01222883962
-0.2267701729
0.01212054433
0.2266848985
-0.01203526997
-0.2239056623
0.01165313853
0.2237400804
-0.01148755664
-0.2217118519
0.01088935898
0.2214822436
-0.01065975062
-0.2201227104
0.009897353344
0.2198481801
-0.009622823131
0.00875339111
-0.2190378753
0.2187283692
-0.008443885038
-0.4366923845
0.0148496694
0.4354579047
-0.01361518966
-0.4361742767
0.01236751078
0.4349046182
-0.0110978523
-0.01437555663
0.8670585794
0.009464547606
0.009818305874
-0.009533408254
0.8666455931
-0.00474620847
0.8663295169
0.8660726139
-0.004034051597
0.9724105559
-0.008088211052
0.9725325106
-0.01216370398
0.9725939033
-0.008260148798
0.9726675228
-0.008014747387
-0.4843476499
0.4854112092
-0.009323708113
-0.4842848375
0.01039080034
0.4853349286
-0.01144089145
-0.484103655
0.01247727119
0.4851211774
-0.006803336009
-0.006691457562
-0.2416584004
0.007323155438
0.2419035266
-0.007568281694
-0.2407000151
0.008271420013
0.2409226887
-0.008494093648
-0.2391528124
0.009126764244
0.2393530398
-0.009326991662
-0.2361203724
0.00979932322
0.2360930676
-0.009772018507
-0.216858199
0.009435143731
0.2175639627
-0.01014090744
-0.2299824753
0.01062703124
0.2299870853
-0.01063164124
-0.2264460126
0.01051452996
0.2263708796
-0.010439397
-0.2232947229
0.01012207096
0.2231607735
-0.009988121617
-0.2208677523
0.009508998679
0.2206842302
-0.009325476592
-0.2191082618
0.008713195091
0.2188860842
-0.008491017533
0.007779947607
-0.2179130163
0.2176566794
-0.007523610742
-0.4343176965
0.01332438861
0.4332636131
-0.01227030522
-0.4337503831
0.01119307847
0.4326403768
-0.01008307214
-0.01315448575
0.8626625134
0.008601062581
0.008949489167
-0.008755851299
0.8622469586
-0.00436845555
0.8619421212
0.8617041583
-0.003768029921
0.9761785858
-0.007543340679
0.9763078214
-0.01131473645
0.976365299
-0.007663362333
0.9764349308
-0.007418782108
-0.4864017854
0.4873691081
-0.008630685043
-0.4863242502
0.00959145298
0.4872605511
-0.01052775385
-0.4860709266
0.01144239705
0.4869575574
-0.00621095365
-0.006118074175
-0.2425820122
0.006667599072
0.2427915602
-0.006877147084
-0.2415325025
0.007470342013
0.2417182783
-0.007656117846
-0.2398947121
0.008180048656
0.2400576241
-0.008342960637
-0.2359422915
0.008678664272
0.2358736254
-0.008609998106
-0.2195196201
0.008456233178
0.2201157681
-0.009052381096
-0.2299718861
0.009322909008
0.2299589689
-0.009309991859
-0.2261561423
0.00918479924
0.2260876871
-0.009116344093
-0.2227941099
0.008843390673
0.2226820676
-0.008731348411
-0.2201862274
0.008335769465
0.220035552
-0.008185094005
-0.218281349
0.00768194043
0.2180980317
-0.007498623134
0.006907821112
-0.2169790503
0.2167641191
-0.006692889939
-0.432287778
0.01191802064
0.4313835994
-0.01101384204
-0.4316320475
0.01008061768
0.4306604105
-0.009108980676
-0.01195844327
0.8587378977
0.007777033371
0.008106025504
-0.00798458221
0.8582730975
-0.003991014871
0.8579485538
0.8577131434
-0.003499748819
0.9796783346
-0.006996549378
0.979804622
-0.01047041924
0.9798391689
-0.007073342207
0.9798747701
-0.006836916299
-0.4882650822
0.4891424238
-0.007950683787
-0.4881422823
0.008814396294
0.4889768633
-0.009648977373
-0.4877849615
0.01045747297
0.4885596539
-0.005657415775
-0.005574749616
-0.2433729178
0.00605656253
0.2435528872
-0.006236531975
-0.242230298
0.006741214632
0.242387262
-0.006898178617
-0.2405006838
0.007338329985
0.2406345453
-0.007472191478
-0.2356280445
0.007707917815
0.2355360401
-0.007615913487
-0.2217362893
0.007609140363
0.2222212783
-0.008094129322
-0.2299026484
0.008225498773
0.2298791062
-0.008201956603
-0.2258904351
0.008072443668
0.2258272217
-0.008009230257
-0.2223712307
0.00776889521
0.2222751122
-0.007672776738
-0.2196218236
0.007338065546
0.2194952588
-0.007211500691
-0.2175944822
0.006789505827
0.2174405036
-0.006635527153
0.006137128537
-0.2161932126
0.2160107158
-0.005954631724
-0.4305439157
0.0106477783
0.4297633374
-0.009867199986
-0.4297775442
0.009054844292
0.4289247196
-0.008202019651
-0.01082507927
0.8552385387
0.007010340222
0.007314098058
-0.007246581681
0.8546945999
-0.003627879875
0.854329852
0.8540852635
-0.003237562497
0.9829158971
-0.006464292081
0.9830313516
-0.009654409582
0.9830292864
-0.006505842503
0.9830092153
-0.006283012318
-0.4899514614
0.4907461142
-0.007300495326
-0.4897630204
0.008076899752
0.4905075754
-0.008821454768
-0.489285441
0.009537329781
0.4899658662
-0.005148188019
-0.005069566973
-0.2440533185
0.005496184112
0.2442087914
-0.005651657082
-0.2428224836
0.006084901332
0.2429567655
-0.006219183182
-0.2410001376
0.006593557037
0.2411111288
-0.006704548238
-0.2352394694
0.006867308101
0.2351355942
-0.006763432961
-0.2235186109
0.006869719204
0.2239007778
-0.007251886171
-0.2297976845
0.007293430538
0.2297675953
-0.00726334134
-0.2256445554
0.007132821763
0.2255858845
-0.007074150825
-0.2220058617
0.006859294016
0.2219218486
-0.006775280923
-0.2191444026
0.006486552471
0.2190360737
-0.006378223537
-0.217014241
0.006018115064
0.2168828831
-0.005886757188
0.005460564912
-0.2155237335
0.2153669933
-0.00530382466
-0.4290359386
0.009513318532
0.428357398
-0.008834777898
-0.4281491862
0.008123968343
0.4273980887
-0.007372870868
-0.009774812734
0.8521174721
0.006310312328
0.006585567014
-0.006557345028
0.8514771322
-0.003287233404
0.8510597404
0.8507980302
-0.002987848954
0.9859037461
-0.005958998712
0.9860025013
-0.008884179257
0.9859544669
-0.005971955462
0.9858639365
-0.00576694503
-0.4914765057
0.4921961941
-0.006691643933
-0.4912094245
0.007390206314
0.4918748818
-0.008055663692
-0.4906044962
0.008691035069
0.4912044593
-0.004681183929
-0.004609814289
-0.244642428
0.004986144162
0.244777674
-0.005121390118
-0.2433312447
0.005496881875
0.2434475113
-0.005613148468
-0.2414156501
0.00593515209
0.2415085786
-0.006028080566
-0.2348150879
0.006136393231
0.2347065469
-0.006027852178
-0.2249074147
0.006218171732
0.2251994223
-0.006510179315
-0.2296705796
0.006495261698
0.2296363455
-0.006461027623
-0.2254161155
0.006331529194
0.2253614788
-0.006276892556
-0.2216848265
0.006082705563
0.2216103462
-0.006008225209
-0.2187335016
0.005755371239
0.2186393769
-0.005661246565
-0.2165169186
0.005349580595
0.2164034055
-0.005236067555
0.004867421698
-0.2149470385
0.2148111066
-0.004731489787
-0.4277228721
0.008509342484
0.4271289245
-0.007915394883
-0.426714164
0.007290046083
0.4260500014
-0.006625883517
-0.008819118814
0.8493294739
0.005681069806
0.005926047141
-0.005926306749
0.8485843201
-0.002974234422
0.848107668
0.8478237957
-0.002754384676
0.9886581308
-0.005487867738
0.9887359844
-0.008169386546
0.9886359857
-0.005478614998
0.988465529
-0.005292363972
-0.4928562977