/*--------------------------------*- C++ -*----------------------------------*\
| =========                 |                                                 |
| \\      /  F ield         | OpenFOAM: The Open Source CFD Toolbox           |
|  \\    /   O peration     | Version:  v1912                                 |
|   \\  /    A nd           | Website:  www.openfoam.com                      |
|    \\/     M anipulation  |                                                 |
\*---------------------------------------------------------------------------*/
FoamFile
{
    version     2.0;
    format      ascii;
    class       pointVectorField;
    location    "0.21";
    object      pointDisplacement;
}
// * * * * * * * * * * * * * * * * * * * * * * * * * * * * * * * * * * * * * //

dimensions      [0 1 0 0 0 0 0];


internalField   nonuniform List<vector> 
26316
(
(0 0 0)
(0 0 0)
(0 0 0)
(0 0 0)
(0 0 0)
(0 0 0)
(0 0 0)
(0 0 0)
(0 0 0)
(0 0 0)
(0 0 0)
(0 0 0)
(0 0 0)
(0 0 0)
(0 0 0)
(0 0 0)
(0 0 0)
(0 0 0)
(0 0 0)
(0 0 0)
(0 0 0)
(0 0 0)
(0 0 0)
(0 0 0)
(0 0 0)
(0 0 0)
(0 0 0)
(0 0 0)
(0 0 0)
(0 0 0)
(0 0 0)
(0 0 0)
(0 0 0)
(0 0 0)
(0 0 0)
(0 0 0)
(0 0 0)
(0 0 0)
(0 0 0)
(0 0 0)
(0 0 0)
(0 0 0)
(0 0 0)
(0 0 0)
(0 0 0)
(0 0 0)
(0 0 0)
(0 0 0)
(0 0 0)
(0 0 0)
(0 0 0)
(0 0 0)
(0 0 0)
(0 0 0)
(0 0 0)
(0 0 0)
(0 0 0)
(0 0 0)
(0 0 0)
(0 0 0)
(0 0 0)
(0 0 0)
(0 0 0)
(0 0 0)
(0 0 0)
(0 0 0)
(0 0 0)
(0 0 0)
(0 0 0)
(0 0 0)
(0 0 0)
(0 0 0)
(0 0 0)
(0 0 0)
(0 0 0)
(0 0 0)
(0 0 0)
(0 0 0)
(0 0 0)
(0 0 0)
(0 0 0)
(0 0 0)
(0 0 0)
(0 0 0)
(0 0 0)
(0 0 0)
(0 0 0)
(0 0 0)
(0 0 0)
(0 0 0)
(0 0 0)
(0 0 0)
(0 0 0)
(0 0 0)
(0 0 0)
(0 0 0)
(0 0 0)
(0 0 0)
(0 0 0)
(0 0 0)
(0 0 0)
(0 0 0)
(0 0 0)
(0 0 0)
(0 0 0)
(0 0 0)
(0 0 0)
(0 0 0)
(0 0 0)
(0 0 0)
(0 0 0)
(0 0 0)
(0 0 0)
(0 0 0)
(0 0 0)
(0 0 0)
(0 0 0)
(0 0 0)
(0 0 0)
(-1.078828388e-06 1.336841858e-05 2.775557562e-17)
(0 0 0)
(0 0 0)
(-5.934308804e-07 0.0001497463691 3.330669074e-16)
(2.749703639e-06 0.0001272947552 2.91433544e-16)
(0 0 0)
(0 0 0)
(0 0 0)
(0 0 0)
(0 0 0)
(0 0 0)
(0 0 0)
(0 0 0)
(0 0 0)
(0 0 0)
(0 0 0)
(0 0 0)
(0 0 0)
(0 0 0)
(0 0 0)
(0 0 0)
(0 0 0)
(0 0 0)
(0 0 0)
(0 0 0)
(0 0 0)
(0 0 0)
(0 0 0)
(0 0 0)
(0 0 0)
(0 0 0)
(0 0 0)
(0 0 0)
(0 0 0)
(0 0 0)
(0 0 0)
(0 0 0)
(0 0 0)
(0 0 0)
(0 0 0)
(0 0 0)
(0 0 0)
(0 0 0)
(0 0 0)
(0 0 0)
(0 0 0)
(0 0 0)
(0 0 0)
(0 0 0)
(0 0 0)
(0 0 0)
(0 0 0)
(0 0 0)
(0 0 0)
(0 0 0)
(0 0 0)
(0 0 0)
(0 0 0)
(0 0 0)
(0 0 0)
(0 0 0)
(0 0 0)
(0 0 0)
(0 0 0)
(0 0 0)
(0 0 0)
(-6.720720473e-05 0.0001955478469 4.996003611e-16)
(-0.0003866224576 0.001226722015 3.080868893e-15)
(-5.057928988e-06 1.64580284e-05 4.163336342e-17)
(-0.0007331425516 0.003273211833 8.021361353e-15)
(-0.001816030451 0.007933921817 1.995625887e-14)
(-0.002150046252 0.01074766835 2.703393065e-14)
(-0.001006169198 0.005132071163 1.257327575e-14)
(-0.001214649311 0.01081508235 2.650657471e-14)
(-0.002111566983 0.01856869634 4.669875597e-14)
(-0.001745599087 0.02051624735 5.159761507e-14)
(-0.001039809421 0.01230742269 3.017031069e-14)
(-2.124660876e-05 0.01439069123 3.527733661e-14)
(4.810284869e-06 0.02318177891 5.832834216e-14)
(0.0006501497428 0.0228791795 5.757894161e-14)
(0.0003682512056 0.0141537311 3.470834731e-14)
(0.001171702983 0.01084735225 2.660371923e-14)
(0.002091043209 0.01860017786 4.683753385e-14)
(0.002279008177 0.01625082866 4.092559625e-14)
(0.001227811179 0.009080275579 2.227384943e-14)
(0.0007180525224 0.003313538664 8.132383655e-15)
(0.001786032467 0.007994229696 2.012279232e-14)
(0.001341472593 0.005341667041 1.344757639e-14)
(0.0004190962667 0.0017182097 4.218847494e-15)
(0 0 0)
(7.051290457e-05 0.0002105836122 5.273559367e-16)
(0 0 0)
(0 0 0)
(0 0 0)
(0 0 0)
(0 0 0)
(0 0 0)
(0 0 0)
(0 0 0)
(0 0 0)
(0 0 0)
(0 0 0)
(0 0 0)
(0 0 0)
(0 0 0)
(0 0 0)
(0 0 0)
(0 0 0)
(0 0 0)
(0 0 0)
(0 0 0)
(0 0 0)
(0 0 0)
(0 0 0)
(0 0 0)
(0 0 0)
(0 0 0)
(0 0 0)
(0 0 0)
(0 0 0)
(0 0 0)
(0 0 0)
(0 0 0)
(0 0 0)
(0 0 0)
(0 0 0)
(0 0 0)
(0 0 0)
(0 0 0)
(0 0 0)
(0 0 0)
(0 0 0)
(0 0 0)
(0 0 0)
(0 0 0)
(0 0 0)
(0 0 0)
(-0.0001876953011 0.0003674521506 1.026956298e-15)
(-0.001024801135 0.002141020604 6.022959909e-15)
(-0.0002428632812 0.0005218828061 1.415534356e-15)
(-0.003453940886 0.009310783997 2.542410726e-14)
(-0.005514008318 0.01448839056 4.068967385e-14)
(-0.007015446253 0.02018092256 5.664912983e-14)
(-0.004738188278 0.01397053395 3.812228311e-14)
(-0.007286796092 0.02991041908 8.154588116e-14)
(-0.009595854751 0.03855544942 1.08107967e-13)
(-0.009587349487 0.0443552664 1.243588565e-13)
(-0.00744491057 0.03513676431 9.578449145e-14)
(-0.005641292454 0.0480597005 1.310618281e-13)
(-0.006931521038 0.05834817738 1.637301406e-13)
(-0.005328826472 0.06149467508 1.726396803e-13)
(-0.004396453728 0.05102687961 1.392080895e-13)
(0.0003627572297 0.05492270617 1.500743974e-13)
(0.000579152118 0.06556566568 1.844496778e-13)
(0.0026257446 0.06506656656 1.831729213e-13)
(0.002027104964 0.054459838 1.488947854e-13)
(0.006148755376 0.04796916255 1.313393838e-13)
(0.007794218751 0.05816278487 1.640354519e-13)
(0.008937219474 0.05419260888 1.529193439e-13)
(0.007003537005 0.04426746612 1.212363543e-13)
(0.007406216407 0.02991663686 8.196221479e-14)
(0.009879948218 0.03847504773 1.086075674e-13)
(0.00931213238 0.03242698147 9.152401059e-14)
(0.006802081514 0.02454182151 6.722400414e-14)
(0.003443156294 0.009409095764 2.574329638e-14)
(0.005515496317 0.01458840982 4.113376306e-14)
(0.003891579907 0.009527327748 2.683964162e-14)
(0.002158088565 0.005453907674 1.491862189e-14)
(0 0 0)
(0.0001863697211 0.0003714249041 1.040834086e-15)
(0 0 0)
(0 0 0)
(0 0 0)
(0 0 0)
(0 0 0)
(0 0 0)
(0 0 0)
(0 0 0)
(0 0 0)
(0 0 0)
(0 0 0)
(0 0 0)
(0 0 0)
(0 0 0)
(0 0 0)
(0 0 0)
(0 0 0)
(0 0 0)
(0 0 0)
(0 0 0)
(0 0 0)
(0 0 0)
(0 0 0)
(0 0 0)
(0 0 0)
(0 0 0)
(0 0 0)
(0 0 0)
(0 0 0)
(0 0 0)
(0 0 0)
(0 0 0)
(0 0 0)
(0 0 0)
(0 0 0)
(0 0 0)
(0 0 0)
(0 0 0)
(0 0 0)
(-8.075904486e-05 0.0001169176478 3.747002708e-16)
(0 0 0)
(-0.003432204937 0.00614197579 1.894318036e-14)
(-0.005098046582 0.008824322058 2.813027589e-14)
(-0.00796416138 0.01476480801 4.699018952e-14)
(-0.005852879791 0.01120347815 3.452793607e-14)
(-0.01327056993 0.0321578918 9.87959714e-14)
(-0.01607807308 0.03783886228 1.199873534e-13)
(-0.01790227358 0.04624469974 1.465216837e-13)
(-0.01508989334 0.04011809504 1.23151489e-13)
(-0.01687015045 0.06307849769 1.934424843e-13)
(-0.01917968827 0.06975026142 2.208094818e-13)
(-0.01816226826 0.07629482157 2.415984079e-13)
(-0.01613868991 0.06968138379 2.1373181e-13)
(-0.01057850903 0.08444180943 2.594868764e-13)
(-0.01162627522 0.09044430981 2.870620408e-13)
(-0.008616519041 0.09326960669 2.963462808e-13)
(-0.007891710154 0.08751193068 2.691874501e-13)
(0.001306955154 0.0912340171 2.815803146e-13)
(0.00149273063 0.09656658453 3.080175004e-13)
(0.004921912315 0.09605716315 3.068101329e-13)
(0.004438411432 0.09070267189 2.802758026e-13)
(0.01274587067 0.08382407122 2.598754545e-13)
(0.0141705088 0.08965615029 2.874367411e-13)
(0.01659452011 0.08578773875 2.753214323e-13)
(0.01484431177 0.07974526263 2.474409566e-13)
(0.01795353957 0.06247568729 1.941363736e-13)
(0.02056278151 0.06885853295 2.214062267e-13)
(0.020546164 0.06166207728 1.982719544e-13)
(0.01774507145 0.05533060749 1.719319132e-13)
(0.01340029403 0.03183911923 9.880984919e-14)
(0.01672390799 0.03812996682 1.225686219e-13)
(0.01437678321 0.03036372909 9.758860386e-14)
(0.0113822747 0.02499771381 7.757683385e-14)
(0.003925638719 0.007065674213 2.188527137e-14)
(0.005870484565 0.01019926695 3.269606808e-14)
(0.003309161915 0.005426049263 1.736111255e-14)
(0.001890268715 0.003208883314 9.93649607e-15)
(0 0 0)
(0 0 0)
(0 0 0)
(0 0 0)
(0 0 0)
(0 0 0)
(0 0 0)
(0 0 0)
(0 0 0)
(0 0 0)
(0 0 0)
(0 0 0)
(0 0 0)
(0 0 0)
(0 0 0)
(0 0 0)
(0 0 0)
(0 0 0)
(0 0 0)
(0 0 0)
(0 0 0)
(0 0 0)
(0 0 0)
(0 0 0)
(0 0 0)
(0 0 0)
(0 0 0)
(0 0 0)
(0 0 0)
(0 0 0)
(0 0 0)
(0 0 0)
(0 0 0)
(0 0 0)
(0 0 0)
(-0.0003732411648 0.0004614666992 1.637578961e-15)
(-0.0008487315375 0.001010179308 3.747002708e-15)
(-0.003013118848 0.003779170017 1.396105453e-14)
(-0.002026070798 0.002638595412 9.381384558e-15)
(-0.01186704716 0.01848703674 6.54476473e-14)
(-0.01403335013 0.02107585648 7.742417818e-14)
(-0.01805411707 0.0290378581 1.064703881e-13)
(-0.01565924653 0.02612026282 9.23150445e-14)
(-0.024509713 0.05190051082 1.82534543e-13)
(-0.0270569698 0.05516851141 2.013944567e-13)
(-0.02840927725 0.06353625166 2.317313008e-13)
(-0.02597593454 0.06040563212 2.121913756e-13)
(-0.02524816919 0.08291507619 2.908506769e-13)
(-0.026826156 0.08449701885 3.076705557e-13)
(-0.0245837222 0.08939747282 3.256561687e-13)
(-0.02321411503 0.08797542607 3.087946565e-13)
(-0.01400810155 0.09794875504 3.449740493e-13)
(-0.01454115724 0.0969581597 3.545219673e-13)
(-0.01060473144 0.09772611573 3.578942698e-13)
(-0.01025774614 0.09938214348 3.5055292e-13)
(0.001601558126 0.1004566264 3.561179129e-13)
(0.001473137436 0.09772996177 3.597955267e-13)
(0.005512832356 0.09753717882 3.597538933e-13)
(0.005586862016 0.1001445411 3.556321904e-13)
(0.01711509191 0.09683813352 3.456956943e-13)
(0.01752221456 0.09569676253 3.549938121e-13)
(0.02114507905 0.09394547538 3.491512635e-13)
(0.0204873529 0.09440087914 3.375633106e-13)
(0.02737373589 0.08119529935 2.914890551e-13)
(0.02908325457 0.08260940233 3.087391454e-13)
(0.03034571269 0.07703248408 2.883387973e-13)
(0.02825616816 0.07480255247 2.689237721e-13)
(0.02580679986 0.05220176548 1.877248357e-13)
(0.02844524497 0.05525261987 2.067512828e-13)
(0.02598318315 0.04687762682 1.752487044e-13)
(0.0232996004 0.04377854597 1.572769692e-13)
(0.01260987599 0.01956176748 6.995792834e-14)
(0.01486798888 0.02215417978 8.2406304e-14)
(0.01070368081 0.01507656105 5.598299602e-14)
(0.008767235184 0.01285356903 4.589384428e-14)
(0.0005775022745 0.000724687987 2.581268532e-15)
(0.0009921712661 0.001197092026 4.427014311e-15)
(2.518301336e-05 2.895137549e-05 1.110223025e-16)
(0 0 0)
(0 0 0)
(0 0 0)
(0 0 0)
(0 0 0)
(0 0 0)
(0 0 0)
(0 0 0)
(0 0 0)
(0 0 0)
(0 0 0)
(0 0 0)
(0 0 0)
(0 0 0)
(0 0 0)
(0 0 0)
(0 0 0)
(0 0 0)
(0 0 0)
(0 0 0)
(0 0 0)
(0 0 0)
(0 0 0)
(0 0 0)
(0 0 0)
(0 0 0)
(0 0 0)
(0 0 0)
(0 0 0)
(-3.552799756e-05 3.093154336e-05 1.387778781e-16)
(-9.694644345e-07 8.85244819e-07 0)
(0 0 0)
(-0.002663929059 0.002802042332 1.171285291e-14)
(-0.003362136726 0.003381584859 1.47937218e-14)
(-0.006971244111 0.007396496377 3.227973444e-14)
(-0.005947952876 0.006598204333 2.75474088e-14)
(-0.01924949236 0.02561071346 1.061650767e-13)
(-0.02095368957 0.02667235263 1.155464613e-13)
(-0.02540936034 0.03463965702 1.496858193e-13)
(-0.02406775611 0.0343132087 1.418865025e-13)
(-0.03302303735 0.05958708221 2.452066328e-13)
(-0.03441134599 0.05933201344 2.550737399e-13)
(-0.03521755028 0.06644740641 2.855077286e-13)
(-0.03395428417 0.06707814023 2.758904216e-13)
(-0.03027163685 0.08297563586 3.41657258e-13)
(-0.03097150393 0.08080324315 3.478189958e-13)
(-0.02774087244 0.08278333371 3.568395579e-13)
(-0.02727563878 0.08572921745 3.533145998e-13)
(-0.01547819519 0.0870178049 0)
(-0.01581196648 0.08310690532 0)
(-0.01377519535 0.0830521612 0)
(-0.01162513529 0.08308110196 0)
(-0.01144189254 0.08501628443 0)
(-0.01133981222 0.0869079266 0)
(0.0009709975654 0.08644161966 0)
(0.0008878314501 0.08455982027 0)
(0.002949486923 0.08447035799 0)
(0.003021479935 0.08635247386 0)
(0.01754194863 0.08555474467 0)
(0.01751806067 0.08361932594 0)
(0.01750747127 0.08165331815 0)
(0.01955566924 0.08150356258 0)
(0.02157574301 0.08139237429 0)
(0.02165803361 0.08527748427 0)
(0.03226195241 0.08094016576 3.440303598e-13)
(0.03269214555 0.07861007741 3.498867862e-13)
(0.03508788018 0.07534623756 3.358563427e-13)
(0.03438794297 0.07712688238 3.282235594e-13)
(0.03450505897 0.05895367312 2.510491814e-13)
(0.03571546493 0.05826607653 2.601252547e-13)
(0.0338475956 0.0512041737 2.284422651e-13)
(0.03233263503 0.05125328388 2.180755576e-13)
(0.02076745502 0.02715085479 1.149497164e-13)
(0.02271021788 0.02833240597 1.256911242e-13)
(0.01787512554 0.02109115782 9.332812301e-14)
(0.01609965881 0.01990413484 8.407163854e-14)
(0.00357717809 0.003800146063 1.595945598e-14)
(0.004471565801 0.004536791125 1.992850329e-14)
(0.001601471372 0.001550832514 6.800116026e-15)
(0.001089580365 0.001104448758 4.635181128e-15)
(0 0 0)
(0 0 0)
(0 0 0)
(0 0 0)
(0 0 0)
(0 0 0)
(0 0 0)
(0 0 0)
(0 0 0)
(0 0 0)
(0 0 0)
(0 0 0)
(0 0 0)
(0 0 0)
(0 0 0)
(0 0 0)
(0 0 0)
(0 0 0)
(0 0 0)
(0 0 0)
(0 0 0)
(0 0 0)
(0 0 0)
(0 0 0)
(0 0 0)
(0 0 0)
(0 0 0)
(0 0 0)
(-0.0003201226016 0.0002243937696 1.290634266e-15)
(-0.0001824294161 0.0001356077674 7.21644966e-16)
(-0.0001492431754 0.0001172492836 6.106226635e-16)
(-0.004830967009 0.004184464818 2.123301535e-14)
(-0.005010456836 0.004106599775 2.202404925e-14)
(-0.009273756453 0.00802196873 4.289624211e-14)
(-0.009027825409 0.008252424955 4.17721413e-14)
(-0.02422755284 0.02657772592 1.332822741e-13)
(-0.02462535271 0.0255627258 1.353361867e-13)
(-0.02929042597 0.03254624869 1.717792575e-13)
(-0.02886058368 0.03389270327 1.694616669e-13)
(-0.03729212116 0.05518612602 2.744748873e-13)
(-0.03772521459 0.05277201414 2.769728891e-13)
(-0.03816395147 0.05827617904 3.05755421e-13)
(-0.03775869906 0.06103227092 3.034239526e-13)
(-0.03219993356 0.07138741339 3.559652573e-13)
(-0.03244573857 0.06777225628 3.568395579e-13)
(-0.02869002407 0.06817675192 0)
(-0.02851560054 0.07200591436 3.598094045e-13)
(-0.01645917101 0.07152006593 0)
(-0.01655611555 0.06957882571 0)
(-0.01454776724 0.06950188089 0)
(-0.01445113379 0.07144007018 0)
(0.0171314078 0.0700958695 0)
(0.0170580165 0.06817246155 0)
(0.01906497258 0.06807596193 0)
(0.01914035199 0.06999643019 0)
(0.03304324726 0.06896379974 3.580469254e-13)
(0.03296011382 0.06532801504 3.589073483e-13)
(0.03620418101 0.06384936298 3.516215097e-13)
(0.036151767 0.06719609947 3.496092305e-13)
(0.0390469055 0.05485427203 2.860073289e-13)
(0.039454106 0.05248562428 2.897404539e-13)
(0.03805801853 0.04687818527 2.585709424e-13)
(0.03756694761 0.04888870069 2.546851618e-13)
(0.0266308245 0.02853329697 1.476319067e-13)
(0.02721637144 0.02757866193 1.510319647e-13)
(0.02208738977 0.02116191125 1.155187057e-13)
(0.02152797645 0.02181265161 1.125072258e-13)
(0.006487593456 0.005657460226 2.8907432e-14)
(0.007325741869 0.006037721374 3.265443471e-14)
(0.003493030346 0.002750059228 1.483535517e-14)
(0.002875523568 0.002394818827 1.221245327e-14)
(0 0 0)
(0 0 0)
(0 0 0)
(0 0 0)
(0 0 0)
(0 0 0)
(0 0 0)
(0 0 0)
(0 0 0)
(0 0 0)
(0 0 0)
(0 0 0)
(0 0 0)
(0 0 0)
(0 0 0)
(0 0 0)
(0 0 0)
(0 0 0)
(0 0 0)
(0 0 0)
(0 0 0)
(0 0 0)
(0 0 0)
(0 0 0)
(0 0 0)
(0 0 0)
(0 0 0)
(0 0 0)
(-0.0005255081963 0.0002795367588 2.109423747e-15)
(-0.0004746363575 0.0002725114917 1.90125693e-15)
(-0.0004163891329 0.0002566584163 1.665334537e-15)
(-0.005954383507 0.004049935451 2.615963002e-14)
(-0.006157546441 0.003902447884 2.704780844e-14)
(-0.01073727465 0.007186392818 4.96269692e-14)
(-0.01048209311 0.007527883516 4.846123502e-14)
(-0.02620055772 0.02258858607 1.436073482e-13)
(-0.02653103719 0.02132209479 1.452865606e-13)
(-0.03118702742 0.0268155203 1.820071871e-13)
(-0.03085467032 0.02846237527 1.803002192e-13)
(-0.03899032621 0.04513840088 2.84106072e-13)
(-0.03928184658 0.04235042956 2.855077286e-13)
(-0.03954225254 0.04643299105 3.129579929e-13)
(-0.03927480148 0.04954842498 3.117922587e-13)
(-0.03306133043 0.05665675927 3.582134589e-13)
(-0.03324265587 0.05290689442 3.584355035e-13)
(-0.02935210266 0.05293879337 0)
(-0.02918937922 0.05673890712 0)
(-0.01715386085 0.05621097593 0)
(-0.01723642578 0.05430964851 0)
(-0.01523357622 0.05422207487 0)
(-0.01515074708 0.05612339063 0)
(0.01650007572 0.05475277816 0)
(0.0164161366 0.05284030462 0)
(0.01841854839 0.05275080897 0)
(0.01850279705 0.05466229819 0)
(0.03253440759 0.0540240437 3.597677711e-13)
(0.03236535825 0.05021482723 3.597955267e-13)
(0.03596209864 0.04947993533 3.556599459e-13)
(0.0360761568 0.05317082745 3.5513259e-13)
(0.04044771592 0.04468391194 2.99538172e-13)
(0.04057366764 0.04175504824 3.013839178e-13)
(0.03963401255 0.03768992494 2.71810352e-13)
(0.03942116111 0.04026161774 2.696731727e-13)
(0.02931604606 0.02456902436 1.632305402e-13)
(0.02972081459 0.0231746031 1.656869086e-13)
(0.02466896464 0.01818602739 1.294520047e-13)
(0.0242392689 0.01920616805 1.270650252e-13)
(0.008397941247 0.005733697759 3.745614929e-14)
(0.008738312233 0.005553015977 3.898270595e-14)
(0.004506182831 0.002737273067 1.915134717e-14)
(0.004248369463 0.002772064237 1.805500194e-14)
(0 0 0)
(0 0 0)
(0 0 0)
(0 0 0)
(0 0 0)
(0 0 0)
(0 0 0)
(0 0 0)
(0 0 0)
(0 0 0)
(0 0 0)
(0 0 0)
(0 0 0)
(0 0 0)
(0 0 0)
(0 0 0)
(0 0 0)
(0 0 0)
(0 0 0)
(0 0 0)
(0 0 0)
(0 0 0)
(0 0 0)
(0 0 0)
(0 0 0)
(0 0 0)
(0 0 0)
(0 0 0)
(-0.0007752256687 0.0002816207509 3.108624469e-15)
(-0.00069890902 0.0002833585223 2.789435349e-15)
(-0.0006309622579 0.0002824115957 2.525757381e-15)
(-0.0066639438 0.003297165639 2.92543767e-14)
(-0.006869089972 0.003080816938 3.017031069e-14)
(-0.0116235255 0.005512234159 5.366540545e-14)
(-0.01136975714 0.005945595401 5.251354906e-14)
(-0.02735614343 0.01720670733 1.493527524e-13)
(-0.02768019121 0.0158062064 1.509764536e-13)
(-0.03235050767 0.01976826355 1.877942246e-13)
(-0.03202465662 0.02155204409 1.861566457e-13)
(-0.04005125588 0.03372567197 2.888522754e-13)
(-0.04033739544 0.03082673498 2.901706653e-13)
(-0.04052494858 0.03366444916 3.168160179e-13)
(-0.04026267992 0.03687165896 3.157335504e-13)
(-0.03376625506 0.04162796725 3.589073483e-13)
(-0.03394079938 0.03786450865 3.590738817e-13)
(-0.02999577321 0.03777005156 0)
(-0.02983551837 0.04156021463 0)
(-0.01780782275 0.04103298156 0)
(-0.01788891635 0.03913900156 0)
(-0.01588877755 0.03905198873 0)
(-0.01584805072 0.03999905903 0)
(-0.01580735887 0.0409453367 0)
(0.01580728338 0.03947069476 0)
(0.01571785023 0.03756569948 0)
(0.01771811207 0.0374794754 0)
(0.01780778223 0.03938384253 0)
(0.03182965626 0.03877377906 3.597816489e-13)
(0.03164339997 0.03496726539 3.5971226e-13)
(0.03518201468 0.03434137465 3.548411565e-13)
(0.03540426906 0.0381380228 3.552991235e-13)
(0.04003258769 0.03205122912 3.001487947e-13)
(0.03976246941 0.02878090402 2.990663273e-13)
(0.03885098564 0.02594402455 2.692429613e-13)
(0.03911887567 0.02890588676 2.703948176e-13)
(0.02930613106 0.01773559155 1.640354519e-13)
(0.02908291152 0.01590653239 1.630084956e-13)
(0.02409132334 0.01246471691 1.269262473e-13)
(0.02429108445 0.0139028241 1.278560591e-13)
(0.00849870612 0.004200988848 3.796962744e-14)
(0.008386579047 0.003751772952 3.747002708e-14)
(0.004249590846 0.001818919594 1.806887973e-14)
(0.004328314528 0.002046407006 1.840194663e-14)
(0 0 0)
(0 0 0)
(0 0 0)
(0 0 0)
(0 0 0)
(0 0 0)
(0 0 0)
(0 0 0)
(0 0 0)
(0 0 0)
(0 0 0)
(0 0 0)
(0 0 0)
(0 0 0)
(0 0 0)
(0 0 0)
(0 0 0)
(0 0 0)
(0 0 0)
(0 0 0)
(0 0 0)
(0 0 0)
(0 0 0)
(0 0 0)
(0 0 0)
(0 0 0)
(0 0 0)
(0 0 0)
(-0.001110265253 0.0002161186706 4.440892099e-15)
(-0.001019499237 0.000241419204 4.080069615e-15)
(-0.0009317153418 0.0002599078552 3.73312492e-15)
(-0.007511030388 0.00232612212 3.295974604e-14)
(-0.00773737219 0.002038436778 3.394506898e-14)
(-0.01268691956 0.0035473476 5.849487561e-14)
(-0.01241138109 0.004073646291 5.724587471e-14)
(-0.02867570669 0.01140530294 1.55916946e-13)
(-0.02902005583 0.009872736988 1.576100361e-13)
(-0.03369402414 0.01229406847 1.944971961e-13)
(-0.03334947341 0.0142126373 1.927902282e-13)
(-0.04120815363 0.02196120888 2.940980792e-13)
(-0.04150507921 0.01895222036 2.954303469e-13)
(-0.04158876333 0.02060159349 3.211181321e-13)
(-0.04131949363 0.0239007627 3.200356646e-13)
(-0.03445623065 0.02654139992 3.59448582e-13)
(-0.03462501887 0.02275956883 3.595596043e-13)
(-0.03063312987 0.02260041349 0)
(-0.03047445123 0.02639285215 0)
(-0.01845413023 0.02586647391 0)
(-0.01853415663 0.02397068198 0)
(-0.01653745647 0.02388373263 0)
(-0.01649722309 0.02483161888 0)
(-0.01645690942 0.0257793251 0)
(0.01507789789 0.02425323074 0)
(0.01498312093 0.0223511185 0)
(0.01698153459 0.02226700554 0)
(0.01707672859 0.02416856993 0)
(0.03101782468 0.02351704349 3.588795927e-13)
(0.03077096581 0.01969057363 3.581579477e-13)
(0.03396271365 0.019084768 3.495259637e-13)
(0.0343328996 0.02289978104 3.515521207e-13)
(0.03818354735 0.01875129637 2.898237206e-13)
(0.037333694 0.01541000243 2.841754609e-13)
(0.0363512134 0.01383107529 2.544353617e-13)
(0.03705138916 0.01677718396 2.587097203e-13)
(0.02689960608 0.01000699785 1.513233983e-13)
(0.02620780137 0.008214727638 1.476041511e-13)
(0.02128085682 0.006331455421 1.125211035e-13)
(0.02192179132 0.007730276229 1.158101393e-13)
(0.006853261757 0.002102577679 3.064215548e-14)
(0.006484952593 0.001685426696 2.900457652e-14)
(0.002884452396 0.0007187951366 1.228184221e-14)
(0.003131367617 0.0009203795347 1.33226763e-14)
(0 0 0)
(0 0 0)
(0 0 0)
(0 0 0)
(0 0 0)
(0 0 0)
(0 0 0)
(0 0 0)
(0 0 0)
(0 0 0)
(0 0 0)
(0 0 0)
(0 0 0)
(0 0 0)
(0 0 0)
(0 0 0)
(0 0 0)
(0 0 0)
(0 0 0)
(0 0 0)
(0 0 0)
(0 0 0)
(0 0 0)
(0 0 0)
(0 0 0)
(0 0 0)
(0 0 0)
(0 0 0)
(-0.001403379021 3.657625404e-05 5.606626274e-15)
(-0.001451308525 9.906892428e-05 5.800915304e-15)
(-0.001324789311 0.0001462436015 5.301314943e-15)
(-0.008477833688 0.001058872508 3.717859354e-14)
(-0.008767517976 0.0006906002256 3.844147223e-14)
(-0.01392694626 0.001192289134 6.410150188e-14)
(-0.01358051924 0.001820340588 6.253331186e-14)
(-0.03012048186 0.005073468393 1.630084956e-13)
(-0.0305385662 0.00340407031 1.650624082e-13)
(-0.03520393171 0.004279111064 2.019773238e-13)
(-0.03479045603 0.006335214004 1.999234112e-13)
(-0.04243268571 0.009767088486 2.995798054e-13)
(-0.04277053174 0.006651241889 3.011341176e-13)
(-0.04272022345 0.007189265254 3.256839243e-13)
(-0.04242200196 0.01057539731 3.244626789e-13)
(-0.0351216534 0.01140154976 3.597677711e-13)
(-0.03528409795 0.007611092611 3.597955267e-13)
(-0.03126473991 0.007435022214 0)
(-0.03110689276 0.01122661514 0)
(-0.01908853521 0.0107017354 0)
(-0.0191668805 0.008806045787 0)
(-0.01717394795 0.008719703876 0)
(-0.01713458362 0.009667893195 0)
(-0.01709516231 0.01061537406 0)
(0.01430669063 0.009073879446 0)
(0.01420664111 0.007178265024 0)
(0.01620442015 0.007095768416 0)
(0.01630508616 0.008991355639 0)
(0.02990575137 0.00829389501 3.544664562e-13)
(0.02955083052 0.00454138919 3.52384788e-13)
(0.03224727325 0.004256442982 3.385347558e-13)
(0.03274742346 0.007891217313 3.42115225e-13)
(0.03495020229 0.0061297328 2.681604938e-13)
(0.03431434251 0.003267870459 2.639832797e-13)
(0.03263989613 0.002901944882 2.303157665e-13)
(0.03370388541 0.005466712217 2.373934382e-13)
(0.02313080667 0.003181799991 1.306177388e-13)
(0.02167691328 0.001712136783 1.224714774e-13)
(0.0168359235 0.001301172263 8.92341756e-14)
(0.01829388173 0.002419139605 9.692247005e-14)
(0.004600879464 0.000548927998 2.059463711e-14)
(0.004018224023 0.000290956661 1.7985613e-14)
(0.00130564967 9.183415371e-05 5.564992911e-15)
(0.001643336139 0.0001891099124 6.994405055e-15)
(0 0 0)
(0 0 0)
(0 0 0)
(0 0 0)
(0 0 0)
(0 0 0)
(0 0 0)
(0 0 0)
(0 0 0)
(0 0 0)
(0 0 0)
(0 0 0)
(0 0 0)
(0 0 0)
(0 0 0)
(0 0 0)
(0 0 0)
(0 0 0)
(0 0 0)
(0 0 0)
(0 0 0)
(0 0 0)
(0 0 0)
(0 0 0)
(0 0 0)
(0 0 0)
(0 0 0)
(0 0 0)
(-0.002495739751 -0.0003550727661 9.978129434e-15)
(-0.002275182919 -0.0002275742327 9.089951014e-15)
(-0.001947020156 -0.0001129696586 7.78543896e-15)
(-0.00969941687 -0.0005762081703 4.247990848e-14)
(-0.01042404763 -0.001096290998 4.563016631e-14)
(-0.01583095057 -0.001698741848 7.270573033e-14)
(-0.01494063502 -0.0008874533919 6.866729407e-14)
(-0.03195101323 -0.001867283833 1.720013021e-13)
(-0.03256963512 -0.003734634031 1.75082171e-13)
(-0.03711574596 -0.004395603194 2.114697306e-13)
(-0.03659019357 -0.002150665538 2.088607065e-13)
(-0.04386712867 -0.002890466088 3.06213388e-13)
(-0.04408607146 -0.006127396894 3.06865644e-13)
(-0.04400575653 -0.006617915015 3.310962615e-13)
(-0.04367232166 -0.003123270442 3.296807272e-13)
(-0.0357661613 -0.003761336354 0)
(-0.03592918906 -0.007552347739 0)
(-0.03190374658 -0.007728013146 0)
(-0.03182261412 -0.005833152441 0)
(-0.03174200231 -0.003938092279 0)
(-0.01971103123 -0.00446308733 0)
(-0.01974988526 -0.005409710806 0)
(-0.01875313923 -0.005452541136 0)
(-0.01871438493 -0.004506177986 0)
(-0.002428756121 -0.005450793203 0)
(-0.002460568014 -0.005922367239 0)
(-0.002489209727 -0.006394169388 0)
(-0.001512875331 -0.00642612778 0)
(-0.001450946803 -0.005483522606 0)
(0.01346308553 -0.006066363051 0)
(0.013348766 -0.007953406078 0)
(0.01323367716 -0.009839885709 0)
(0.01724097841 -0.01000672068 0)
(0.01746615293 -0.006231158132 0)
(0.01546536006 -0.006148969762 0)
(0.02831253415 -0.00638792684 3.437111706e-13)
(0.02775541837 -0.009844659384 3.388261893e-13)
(0.02979779968 -0.009329928335 3.185368636e-13)
(0.03063745921 -0.006151503063 3.261835246e-13)
(0.03131302319 -0.004579135468 2.424310752e-13)
(0.03016716552 -0.006851195547 2.339656247e-13)
(0.028088944 -0.005785041049 1.994238108e-13)
(0.02928502839 -0.003866394384 2.076394612e-13)
(0.01796010181 -0.001747985701 1.016409179e-13)
(0.0168783241 -0.002637528721 9.554856906e-14)
(0.01237028047 -0.001775039899 6.564193633e-14)
(0.01332395559 -0.001174799359 7.067957331e-14)
(0.001900542917 -0.0001294526879 8.507083926e-15)
(0.001545039203 -0.0001778718022 6.911138328e-15)
(0.0001225359505 -1.333171192e-05 5.273559367e-16)
(0.0002341080407 -1.496551179e-05 9.992007222e-16)
(0 0 0)
(0 0 0)
(0 0 0)
(0 0 0)
(0 0 0)
(0 0 0)
(0 0 0)
(0 0 0)
(0 0 0)
(0 0 0)
(0 0 0)
(0 0 0)
(0 0 0)
(0 0 0)
(0 0 0)
(0 0 0)
(0 0 0)
(0 0 0)
(0 0 0)
(0 0 0)
(0 0 0)
(0 0 0)
(0 0 0)
(0 0 0)
(0 0 0)
(0 0 0)
(0 0 0)
(0 0 0)
(-0.002367001718 -0.0007398276935 9.506284648e-15)
(-0.002675027755 -0.0007223112285 1.074140776e-14)
(-0.002858453551 -0.000650504829 1.147693052e-14)
(-0.01155320167 -0.002824068937 5.07649478e-14)
(-0.01118258354 -0.003253798389 4.912736884e-14)
(-0.0167097188 -0.005046361834 7.698008897e-14)
(-0.01715299141 -0.004343167519 7.903400157e-14)
(-0.03412350753 -0.009717360865 1.837280328e-13)
(-0.03359036265 -0.01147549337 1.806887973e-13)
(-0.03811984539 -0.0136728223 2.17131868e-13)
(-0.0386328905 -0.01153454586 2.203237592e-13)
(-0.04518029405 -0.01620953023 3.141376048e-13)
(-0.04487624869 -0.0193600048 3.113065361e-13)
(-0.04448854233 -0.02075061061 3.333444631e-13)
(-0.04468104127 -0.0173477115 3.357314426e-13)
(-0.0359745389 -0.01898219804 0)
(-0.03614182126 -0.0227736394 0)
(-0.03210519121 -0.02295173974 0)
(-0.03202156946 -0.02105645941 0)
(-0.03193790885 -0.01916029838 0)
(-0.01982819486 -0.01969459163 0)
(-0.01991185547 -0.02159075266 0)
(-0.01789362852 -0.02167979895 0)
(-0.01785177879 -0.02073127808 0)
(-0.01780996791 -0.01978363791 0)
(-0.01881908139 -0.01973911477 0)
(-0.003681941794 -0.0204069812 0)
(-0.003723750982 -0.02135462144 0)
(-0.003765599871 -0.02230314235 0)
(-0.001747310907 -0.02239219137 0)
(-0.001663650298 -0.02049603033 0)
(0.01246431706 -0.02111937103 0)
(0.01229703471 -0.0249108124 0)
(0.01628369411 -0.02499040603 3.584355035e-13)
(0.01649035771 -0.02128009098 3.595318487e-13)
(0.02614068788 -0.01960716897 3.245320679e-13)
(0.02544883937 -0.02249106646 3.176070518e-13)
(0.0269538218 -0.02080184742 2.930433673e-13)
(0.02777297905 -0.01822655444 3.007871729e-13)
(0.02624027563 -0.0123362258 2.043087921e-13)
(0.02517307067 -0.0138893484 1.96273553e-13)
(0.02254359178 -0.01130740436 1.605104938e-13)
(0.02408223838 -0.01030391911 1.71418435e-13)
(0.01274501376 -0.004236595801 7.21644966e-14)
(0.01111141034 -0.004342070627 6.290801213e-14)
(0.007563035673 -0.002752621081 4.013456234e-14)
(0.008616349347 -0.002660549649 4.572731083e-14)
(0.0003181721504 -8.149145815e-05 1.429412144e-15)
(0.0001437213236 -4.358940543e-05 6.383782392e-16)
(0 0 0)
(0 0 0)
(0 0 0)
(0 0 0)
(0 0 0)
(0 0 0)
(0 0 0)
(0 0 0)
(0 0 0)
(0 0 0)
(0 0 0)
(0 0 0)
(0 0 0)
(0 0 0)
(0 0 0)
(0 0 0)
(0 0 0)
(0 0 0)
(0 0 0)
(0 0 0)
(0 0 0)
(0 0 0)
(0 0 0)
(0 0 0)
(0 0 0)
(0 0 0)
(0 0 0)
(0 0 0)
(0 0 0)
(0 0 0)
(-0.0005526636837 -0.0002670745188 2.220446049e-15)
(-0.001002914643 -0.0004418325665 4.024558464e-15)
(-0.001490163101 -0.0005928432134 5.981326545e-15)
(-0.008566391412 -0.003698380728 3.766431611e-14)
(-0.007317170032 -0.003505235562 3.218258993e-14)
(-0.01193834793 -0.005966158882 5.506706202e-14)
(-0.01350869788 -0.006077634924 6.228351168e-14)
(-0.0294425769 -0.01514669752 1.583178033e-13)
(-0.02728693143 -0.01563590857 1.46826995e-13)
(-0.03178109575 -0.01917379919 1.80966353e-13)
(-0.03397905124 -0.01839437166 1.933592175e-13)
(-0.04177466252 -0.02719814989 2.886302308e-13)
(-0.03993929561 -0.02897628785 2.759598106e-13)
(-0.04047115957 -0.03163883121 3.014533068e-13)
(-0.04203847801 -0.02951331349 3.132633042e-13)
(-0.03620897286 -0.03379866824 3.559375017e-13)
(-0.03571159809 -0.03695679508 3.500533197e-13)
(-0.03246470263 -0.03780983894 3.56770169e-13)
(-0.03258554451 -0.03430829008 3.596012377e-13)
(-0.02049740201 -0.03486211849 0)
(-0.02066472323 -0.03865444056 0)
(-0.01662818126 -0.03883253701 0)
(-0.01646086004 -0.03504021494 0)
(-0.01847917506 -0.03495116477 0)
(-0.00435114605 -0.03557450819 0)
(-0.004518467266 -0.03936683026 0)
(-0.0004818988718 -0.03954492788 0)
(-0.0003145776553 -0.03575260581 0)
(0.01172325948 -0.03595925444 3.566036355e-13)
(0.01143832027 -0.03909313217 3.510525204e-13)
(0.01501730746 -0.03804121161 3.403111126e-13)
(0.01544714901 -0.03529298862 3.484434963e-13)
(0.02323915977 -0.0298160011 2.917388553e-13)
(0.02223730037 -0.03143765042 2.79137824e-13)
(0.0229700785 -0.02820683835 2.502997809e-13)
(0.02414996434 -0.02693513878 2.633171459e-13)
(0.02084445324 -0.01653728792 1.623978729e-13)
(0.01937644977 -0.0169189911 1.507821645e-13)
(0.01652104467 -0.0131277921 1.173783293e-13)
(0.01796958092 -0.01296855598 1.278005479e-13)
(0.007119061898 -0.00403052184 4.025946243e-14)
(0.00611868821 -0.003822431071 3.456956943e-14)
(0.003135490942 -0.001830477253 1.661171201e-14)
(0.0042574702 -0.002252341421 2.256528298e-14)
(0 0 0)
(0 0 0)
(0 0 0)
(0 0 0)
(0 0 0)
(0 0 0)
(0 0 0)
(0 0 0)
(0 0 0)
(0 0 0)
(0 0 0)
(0 0 0)
(0 0 0)
(0 0 0)
(0 0 0)
(0 0 0)
(0 0 0)
(0 0 0)
(0 0 0)
(0 0 0)
(0 0 0)