/*--------------------------------*- C++ -*----------------------------------*\
| =========                 |                                                 |
| \\      /  F ield         | OpenFOAM: The Open Source CFD Toolbox           |
|  \\    /   O peration     | Version:  v1912                                 |
|   \\  /    A nd           | Website:  www.openfoam.com                      |
|    \\/     M anipulation  |                                                 |
\*---------------------------------------------------------------------------*/
FoamFile
{
    version     2.0;
    format      ascii;
    class       surfaceScalarField;
    location    "2.52";
    object      phi;
}
// * * * * * * * * * * * * * * * * * * * * * * * * * * * * * * * * * * * * * //

dimensions      [0 3 -1 0 0 0 0];
oriented        oriented;


internalField   nonuniform List<scalar> 
25162
(
0.0004198646296
0.9162301354
0.0005070075465
0.9166128571
0.0005803094821
0.9165766981
0.0002834235214
0.9166081226
0.0003387633204
0.4583384808
0.0002949427448
0.458311256
0.0003614672447
-0.0003727232161
-0.0004606550488
0.4582882312
0.0005224238794
-0.000581885297
0.4582367417
0.0006801435707
-0.00078812911
0.4582118493
0.0009062798369
-0.001043866132
0.4581846393
0.001194226863
-0.00134899587
0.4581771217
0.001506874147
-0.001664920931
0.4581989969
0.001797424028
-0.001907598843
0.4582569004
0.001984198444
-0.002019592764
0.4583396815
0.002014911294
-0.001968998936
0.4584168147
0.001882184202
-0.001773073103
0.458463481
0.001644592097
-0.001494910477
0.4584776251
0.001352285425
-0.001207208865
0.4584865831
0.001035625769
-0.0009611502817
0.4584604744
0.0008506758828
-0.0007061312808
0.4584677691
0.0005883622113
-0.001570593985
0.9187063936
5.514361847e-05
-0.0005409432254
-0.0009811314829
0.9187605375
4.579532976e-05
0.9158230732
0.9138457953
0.001152764396
0.915077371
0.001804478073
0.9159611434
0.002008407428
0.9163727687
0.0005280470648
0.917193795
0.0008946880045
0.4580982079
0.0006366833892
-0.4582068442
-0.4581935784
-0.0007883039912
0.4580013311
0.0009805513003
-0.4580508798
-0.001221265061
0.45775775
0.0007131852971
0.0008012095648
-0.2289642953
-0.0008749558354
0.2288856653
0.0009535857849
-0.001297595154
-0.2288990517
0.2287938587
0.001402788186
-0.001847429297
-0.2288374859
0.2286963523
0.001988562844
-0.00251909756
-0.2288093221
0.2286482188
0.002680200809
-0.003218211186
-0.228845751
0.2287517771
0.003312104529
-0.003113835608
-0.2289795513
0.2287748453
0.003318677282
-0.004034994047
-0.2291657563
0.2291221939
0.004078556401
-0.003936723371
-0.2293031018
0.2293628459
0.003876979275
-0.00351720537
-0.2293937062
0.2295321879
0.003378723595
-0.002913061784
-0.229418469
0.2295867729
0.002744757942
-0.002286281853
-0.2293939627
0.229552709
0.002127535565
-0.4588958386
-0.003313451579
0.460353179
0.001856111167
-0.0005204236191
0.4609931719
-0.001191751021
-0.4592809972
-0.001284020316
0.9183753538
0.0001771971199
0.00143786302
-0.0007805430214
0.9182570602
0.0004559079129
0.9145866223
0.9143017033
0.00144804012
0.9136293309
0.003920042469
0.9134891411
0.006648201814
0.9136446094
0.00267384162
0.9150665733
0.006101581877
-0.4580714481
0.457925384
0.002819905681
-0.4578410778
-0.002774205143
0.458519771
0.00209551191
-0.4573599767
-0.002145601062
0.4571637136
0.001134991086
0.001206873035
-0.22850525
-0.001425802578
0.2283404724
0.001590580198
-0.2282616781
-0.002189614692
0.2280259754
0.002425317441
-0.2280930021
-0.002327417622
0.2325298775
-0.002118777605
-0.2364231032
0.01743944538
0.2406007401
-0.02165932863
-0.2348399533
0.03093306911
0.2367045087
-0.03282876212
-0.2273785299
0.03492041303
0.2268812533
-0.03441846352
-0.2209378792
0.02932475179
0.2181201276
-0.02647010639
-0.2223867517
0.01464184148
0.2175235762
-0.009740513914
-0.2301882554
-0.005672721715
0.2295035846
0.006359165156
-0.2303292323
-0.005407317042
0.2306627202
0.005073829131
-0.003827309449
-0.2302911922
0.230973438
0.00314506362
-0.4630171792
-0.0005472093333
0.4619091227
0.001655265862
-0.4601371052
-0.001730120259
0.4601908181
0.00167640739
0.000724402514
0.9204198284
-0.001590900669
-0.001177976448
0.001968627623
0.9170128351
0.0009220379831
0.9156332119
0.9152237412
0.0004301083603
0.9131992225
0.0009522748027
0.9129669746
0.002064739091
0.9125321451
0.002980276887
0.9122267142
0.001924321343
-0.4572020133
0.4568136721
0.003368618094
-0.4601013647
-0.004534948889
0.457098566
0.007537747569
-0.4586884096
-0.008744702379
0.4603004083
0.001886094915
0.005246608722
-0.2277376655
-0.001840051256
0.2275526521
0.002025064591
-0.2297089402
-0.001037488231
0.2355875285
-0.004864399798
-0.2490828933
0.02189058301
0.2539361153
-0.02684773258
-0.2512790307
0.03836975531
0.2537776622
-0.04097854564
-0.2406765673
0.04543750654
0.2411926908
-0.04601460558
-0.2254356158
0.04601178056
0.2250183367
-0.04558455319
-0.2112685295
0.04290328591
0.2098406275
-0.04139769514
-0.2044742669
0.03411097645
0.2010904244
-0.03061163358
-0.2122825155
0.01693959561
0.2069679095
-0.01153413323
-0.2342509855
-0.001122473471
0.2363582997
-0.000980795224
-0.004216360787
-0.2318894925
0.2319290424
0.004176810826
-0.461993004
-0.00646897867
0.4633247824
0.005137200224
-0.4609972301
-0.003813072347
0.4620935121
0.002716790338
0.003719840685
0.9207403606
-0.002126970429
-0.001913402415
0.002539250889
0.9181934249
0.001179755859
0.9169927069
0.9164034971
3.060548261e-05
0.913168617
0.0001110580412
0.9128865221
0.0003400433933
0.9123031597
0.001035514791
0.9113095837
0.0002216591375
-0.4565840732
0.4558165726
0.001803015386
-0.4557232442
-0.002183905346
0.4551455333
0.00276161617
-0.4542746076
-0.003566154054
0.4535660998
0.002284024602
0.001990637242
-0.2282530081
-0.00407413243
0.2270347633
0.005290776589
-0.2525101705
0.005732567343
0.2592661303
-0.01261457649
-0.2648427513
0.02769528199
0.2670895193
-0.03012619643
-0.2566363871
0.03252700884
0.2558137445
-0.03185209344
-0.2392789854
0.02697895571
0.2372530109
-0.02502014473
-0.2240947989
0.02092336391
0.223903649
-0.02072126134
-0.2093444995
0.02307747969
0.2108472429
-0.02448946392
-0.1954554985
0.02785214033
0.1954573617
-0.02768862719
-0.205617701
0.03473226492
0.1965990954
-0.02553324929
-0.2136865333
0.009098470602
0.2089440458
-0.004255317072
-0.006146425885
-0.2334254109
0.2340289128
0.005542923985
-0.4651327117
-0.007636115514
0.466889909
0.005878918231
-0.46315883
-0.004574755324
0.4642690835
0.003464501764
0.004599470854
0.9230603362
-0.003843047735
-0.003076398765
0.002580287272
0.9202126085
0.001180743787
0.9183922504
0.9175842409
-0.000255521347
0.9134241384
-0.0004153008935
0.9130463016
-0.0003353544869
0.9122232133
7.124055762e-07
0.9109942996
-2.078280204e-05
-0.4549797958
0.4547125248
0.0002679833589
-0.4546878029
-0.001185523213
0.4539715343
0.001901791837
-0.4528120857
-0.002394855988
0.4518627983
0.001640411116
0.001703732248
-0.2374453853
0.001107538071
0.240838531
-0.004566834118
-0.2654055041
0.01383481113
0.2675227119
-0.01615774952
-0.2688345448
0.01731648391
0.2664602414
-0.01516881258
-0.2471942421
0.004386175875
0.2470036467
-0.004328164535
-0.2263976367
-0.01224839635
0.2222311522
0.01638294458
-0.2230595386
-0.027655888
0.2228234844
0.0278942403
-0.2227990502
-0.01563010479
0.227544103
0.01093718967
-0.2079886363
0.009554812038
0.2100177409
-0.01141764161
-0.1886717773
0.01323665195
0.1888540231
-0.01318947965
-0.1982730523
0.008879859452
0.1960286911
-0.006449154334
-0.003040883892
-0.2321541946
0.2300880021
0.005132166777
-0.4684798721
-0.008003654185
0.470110467
0.006373059259
-0.4649972992
-0.005150743777
0.4656879481
0.00446009495
0.003964030974
0.9257981872
-0.003248286743
-0.003453595186
0.002211822956
0.9219648165
0.0009429504333
0.919661123
0.9185271913
-0.0006717367821
0.9140958752
-0.001212953998
0.9135875188
-0.001600320691
0.91261058
-0.0003392503561
0.910816043
-0.00108281377
-0.4546222841
0.4543551802
-7.214648278e-05
-0.4529683096
-0.0001235619261
0.4526397368
0.0004521347052
-0.4515351188
-0.00138281843
0.4513660926
0.0008214385266
0.0007295053397
-0.2474879461
0.003056260929
0.2492694452
-0.004962112578
-0.2736400632
0.009180803493
0.2699217939
-0.005720479166
-0.260819608
0.004892083218
0.25881961
-0.003116569411
-0.2280678701
-0.007594465226
0.221327913
0.01425776962
-0.2098213013
-0.03432435225
0.106612897
0.1008874588
0.01618122454
0.02046407319
-0.0253047175
-0.1087909438
0.1081932214
0.02590243991
-0.02062403804
-0.2478963876
0.03933988502
-0.02104598304
0.1246792037
0.12554732
-0.02093870951
-0.2220927857
0.2282537644
0.01488847726
-0.1933834234
-0.004159166379
0.1976667759
0.0001181215004
-0.1938941721
0.005126351413
0.1932552856
-0.00424874568
-0.0003025358425
-0.2215405305
0.2197651352
0.002169906583
-0.47175848
-0.006963294911
0.4728745663
0.005847208639
-0.4668205696
-0.004486892786
0.4679339906
0.003373471782
0.00250486827
0.927821444
-0.002120640037
-0.002407485105
0.001256894998
0.9232127898
0.0005029951624
0.9204150228
0.9190301865
-0.001103389389
0.9151992646
-0.002150552572
0.914634682
-0.002995888066
0.9134559155
-0.001598839559
0.9115829442
-0.002163949723
-0.4543621742
0.4543994113
-0.001636076669
-0.4525104431
0.001721563319
0.4524432067
-0.001654326904
-0.450715136
0.001516853246
0.4513250636
-0.0007437145301
-0.001397215532
-0.2515921539
0.0006869486265
0.2514339974
-0.0006833260179
-0.2689917404
7.83550986e-05
0.2684407308
0.0002015216259
-0.2525448487
-0.00244060454
0.2511763679
0.003593345902
-0.2097896376
-0.007982648334
0.2080639326
0.0096827278
-0.09420816438
-0.006384742818
0.09419363516
0.006399272041
-0.02820185941
-0.1367864748
0.1394673941
0.02552094007
-0.02728891937
-0.2481298534
0.2535250539
0.02195324236
-0.2050502401
-0.01160931145
0.207498988
0.009396544704
-0.1944626999
-0.0050958919
0.1955964761
0.004228635852
0.0004342475026
-0.2175144701
0.2168609097
0.0003545448779
-0.4743352977
-0.004349972177
0.475532187
0.003153082861
-0.4688223671
-0.002314731734
0.4695597849
0.001577313961
0.0001192233649
0.9288303112
-0.0002431166803
-0.0008849738905
-0.0001938762254
0.9235258894
-0.000163432743
0.9203845793
0.9188667537
-0.001526987469
0.916726252
-0.002977581506
0.9160852761
-0.004488813462
0.9149671475
-0.002637345953
0.9129252336
-0.003193756926
-0.4546345422
0.454859912
-0.002862715745
-0.4525482384
0.003116574772
0.4527815511
-0.003349887459
-0.4516614838
0.003556532171
0.4523029417
-0.002027407784
-0.002201210016
-0.2518708112
0.002720503746
0.2517206149
-0.002746551487
-0.2657988178
0.001957323005
0.2649998368
-0.001445955122
-0.247400879
-0.0003914265431
0.2466153058
0.0009615417458
-0.2068188373
-0.001859353181
0.2071172089
0.001549388107
-0.09780952383
0.0008698769138
0.09834123755
-0.001401590638
-0.01262550705
-0.1524422733
0.1530954068
0.01197237357
-0.01505905336
-0.2659196905
0.2682081222
0.01280509592
-0.2151328908
-0.007025217883
0.2169526907
0.005439654817
-0.1989915289
-0.001744506055
0.200036051
0.0009861056054
0.0001163846778
-0.2171607296
0.2172800736
-8.012897174e-05
-0.4768974686
-0.0005518901352
0.4779435477
-0.0004941889593
-0.4699323011
0.0009749867919
0.4701200609
-0.001162746526
-0.00276214689
0.9282836588
0.00195393945
0.001354859834
-0.001967791824
0.9227315343
-0.001028382044
0.9194451695
0.9178383717
-0.00191353258
0.9186397846
-0.003931938276
0.9181036818
-0.005873836221
0.9169090454
-0.003672589011
0.9149642206
-0.004240234174
-0.4552889522
0.4557129875
-0.004096624337
-0.4530946788
0.004576147921
0.4536348207
-0.005116289834
-0.4530638133
0.005621762343
0.4542360055
-0.00322089834
-0.00362050339
-0.2512269403
0.004040533884
0.2511449324
-0.004151103406
-0.2629327851
0.003805916896
0.262346732
-0.003522436541
-0.2449799027
0.002564717182
0.2445338809
-0.002338133087
-0.2085664269
0.002379846152
0.2090763028
-0.002896505369
-0.100801087
0.002665448957
0.1010444228
-0.001440374962
-0.001468409808
0.004694313199
-0.1513746243
0.1504913218
-0.003811010683
0.001663659775
-0.268327917
0.2668269104
-0.0001247583544
-0.2191625981
-0.001626663413
0.2194483307
0.00158235777
-0.2029849292
-0.0005606952618
0.2037790315
5.919634656e-05
0.001346005585
-0.2191920432
0.2197292132
-0.001725433709
-0.4779001085
0.00463301548
0.4772870756
-0.004019982611
-0.4698854536
0.003784026597
0.4701172312
-0.004015804211
-0.005940713957
0.9261101111
0.00442943095
0.003684830789
-0.003887987846
0.9206788082
-0.001961812532
0.9175189942
0.9158765592
-0.002385592689
0.9210253773
-0.004753708225
0.9204717973
-0.007247350434
0.9194026877
-0.004679702452
0.9176247689
-0.005228196252
-0.4563283415
0.4569397445
-0.005291105503
-0.4542472325
0.00603071072
0.4549250165
-0.006708494805
-0.4557720348
0.007486545321
0.4575945788
-0.004587413747
-0.00479370579
-0.2510178881
0.00530239065
0.2510079282
-0.005503660773
-0.2608080447
0.00552283492
0.260356687
-0.005389832808
-0.2434623677
0.004960345099
0.2431765213
-0.004896715616
-0.2106919323
0.005250391549
0.2112596623
-0.005820772233
-0.1024521359
0.003850920177
0.102607885
-0.001988876562
-0.002017792745
0.01432115092
-0.1424888028
0.1412084215
-0.01304076964
0.01336337627
-0.2585716254
0.2547131645
-0.009438100239
-0.217658399
0.001057215046
0.2190243476
-0.002169966217
-0.2057618154
0.0020437622
0.206413283
-0.002400168172
0.003957177614
-0.2226243997
0.2232851901
-0.004475642163
-0.4762345413
0.009492781885
0.4748000459
-0.008058286454
-0.4701529313
0.006806397988
0.4690324798
-0.005685946539
-0.008870762287
0.9225818448
0.00646615789
0.005932870698
-0.005735405415
0.9175434513
-0.002814290577
0.9145978794
0.9130622686
-0.002817128688
0.923842506
-0.005644751778
0.9232994204
-0.008583705026
0.9223416409
-0.005597794779
0.9205721203
-0.005933261627
-0.457713259
0.4584706261
-0.006355161936
-0.4558069266
0.007226896657
0.4567350004
-0.00815497038
-0.4594821628
0.009157865456
0.4609427483
-0.005616819286
-0.005103814573
-0.2510666147
0.006515198663
0.2511332112
-0.006813448525
-0.2591525813
0.007119731196
0.2587935731
-0.007094778475
-0.2424813091
0.006942807234
0.2422781904
-0.006962787748
-0.2131404292
0.007506958146
0.2138527309
-0.008219517711
-0.1036103694
0.005107750324
0.103760292
-0.002609322294
-0.002648350614
0.01780543681
-0.1325007808
0.131241331
-0.016545987
0.01816530711
-0.24352509
0.2396619293
-0.01418792456
-0.2161645613
0.00903882209
0.2122749879
-0.004869193694
-0.2077346541
0.001882458823
0.2079197886
-0.001782904329
0.006086646155
-0.225880324
0.2266554647
-0.006750082641
-0.4730547488
0.01337755767
0.4710336295
-0.01135643837
-0.4678079829
0.009615479098
0.4663224665
-0.008129962695
-0.01143208488
0.9195262783
0.007551646889
0.006936004479
-0.007324876907
0.9134362434
-0.003550743076
0.9108237456
0.9095115255
-0.006893112695
0.9307356187
-0.0139515629
0.9303578707
-0.02108840521
0.9294784833
-0.006600135178
0.9281020187
-0.02201816838
-0.4594071006
0.4603519316
-0.007544966139
-0.4576981004
0.008570491244
0.4588454346
-0.009717825341
-0.4640111963
0.0108437009
0.4665526622
-0.006943415606
-0.006617798274
-0.2509570792
0.008842762303
0.251523976
-0.009666953622
-0.257770222
0.00879614007
0.2570718841
-0.008445568115
-0.2417402051
0.00734473777
0.2425761679
-0.008405220851
-0.2163270911
0.009249038514
0.2172422105
-0.005049274479
-0.005114883514
-0.05261348088
0.003243229995
0.05266917642
-0.003298925525
-0.05810436038
0.006534793894
0.05761674076
-0.01272976591
0.006682591643
0.016392734
-0.1237367734
0.2440002447
-0.02898817513
0.01602083387
-0.123688864
-0.2301122489
0.01660762045
0.2253578252
-0.01168332882
-0.2088779278
0.007488523097
0.2085260216
-0.006825238673
-0.209569008
0.007074691918
0.2103063239
-0.007538353386
0.009067030433
-0.2298776587
0.2302879731
-0.009414793844
-0.4686791434
0.01581255216
0.4663320348
-0.01346544353
-0.464780897
0.01164398843
0.463119754
-0.009982845417
-0.01338128964
0.9152708291
0.009049336319
0.008587402591
-0.008584695915
0.9086396497
-0.004212074454
0.9064511241
0.9052994511
-0.003346250742
0.9340818695
-0.006776109217
0.9337877292
-0.01037806156
0.9330804356
-0.007037689514
0.9319758003
-0.007214153654
-0.4633142395
0.4643134322
-0.008036882216
-0.4617915186
0.009145903018
0.4629749049
-0.01032928935
-0.4693098341
0.01160781402
0.4686555103
-0.005729457616
-0.005427292033
-0.2519115099
0.005245859401
0.2513537054
-0.004957979144
-0.2564510085
0.004300823171
0.2560811557
-0.00428226272
-0.2411974462
0.005366170837
0.241849774
-0.006228193651
-0.2206288459
0.01047821113
0.2216831827
-0.005752177149
-0.005780370697
-0.05441468769
0.007785859451
0.1092258085
-0.05435549981
-0.004105999494
-0.004135480939
-0.1119199921
0.008970129718
0.1118393015
-0.01761604618
0.008726607057
0.02865478916
-0.2369957048
0.2341388902
-0.02579019854
-0.2177946923
0.01188575666
0.2164167307
-0.01028148453
-0.2091880537
0.008329427006
0.2069434509
-0.005765179923
-0.2127673663
0.005342926164
0.2158378814
-0.00818798979
0.01031897088
-0.2327215587
0.2326733762
-0.01026162319
-0.4642477889
0.01662146757
0.4623807749
-0.01475445347
-0.4614460607
0.01297086986
0.4595446982
-0.01106950738
-0.01295064856
0.9101682768
0.008959578747
0.009093622115
-0.009359139358
0.9050481405
-0.004571573186
0.901663558
0.9007278779
-0.003517001534
0.937598871
-0.007117803635
0.9373885313
-0.01088859581
0.9368512278
-0.00739372091
0.9360030134
-0.00752208806
-0.4654039015
0.4664785118
-0.008468331167
-0.4641837311
0.009627534157
0.465408873
-0.01085267601
-0.4670752253
0.01216775711
0.4656583999
-0.005303157804
-0.005521124624
-0.248390055
0.003179891962
0.2470426786
-0.002059851963
-0.2543399012
-0.0007539339346
0.2534902937
0.001272517016
-0.2445689077
-0.0007364562736
0.2453745752
-0.0003088333859
-0.2274632484
0.006489235083
0.2304762655
-0.00955172432
-0.112287576
0.01499319542
0.2236913099
-0.01459274313
-0.1118041862
-0.2262709924
0.02071061062
0.2268637576
-0.02130337576
-0.2255019314
0.01664422171
0.2231071868
-0.01415735785
-0.2114956991
0.009024642922
0.2109323385
-0.008183260987
-0.2062971905
0.007929278153
0.2071158925
-0.008418176305
-0.2183470729
0.01066748139
0.217714855
-0.009864948288
0.01227187989
-0.2323671911
0.2299714092
-0.009876097937
-0.460736024
0.01809988481
0.4574529939
-0.01481685473
-0.4576407195
0.01320324976
0.4555094031
-0.01107193324
-0.01333252536
0.9052079598
0.009217644078
0.00907519833
-0.009421297908
0.9011369131
-0.004784454208
0.8970267143
0.8959434237
-0.00360600069
0.9412048718
-0.007289355551
0.9410718862
-0.01112727386
0.9406891461
-0.007567049864
0.9400769015
-0.007634112032
-0.4675757785
0.4686723128
-0.008663584183
-0.4666336454
0.009826843349
0.4678514563
-0.01104465433
-0.4655941645
0.0123408027
0.4669439831
-0.00683040978
-0.006860360058
-0.2422959515
0.004138727408
0.2405820348
-0.002562316655
-0.2499235752
-0.001996058109
0.2484239812
0.003224320989
-0.2464236683
-0.005200403046
0.2462078329
0.005166227922
-0.2367667934
-0.002971922555
0.2379086265
0.001698568626
-0.2249548828
0.002300746812
0.2256817909
-0.003054115086
-0.2253050926
0.00512547294
0.2250099977
-0.004780593598
-0.2187923221
0.002598984859
0.2182877386
-0.001927643699
-0.2110571348
0.001310335409
0.2117187002
-0.001697165988
-0.2108372965
0.004498542211
0.2124324141
-0.005832076399
-0.2215078725
0.01017153947
0.2229368151
-0.01150796046
0.01147587144
-0.2279416249
0.2273235338
-0.01085778039
-0.4566042353
0.01815344314
0.4538326418
-0.01538184966
-0.4525843424
0.01191253427
0.4509507923
-0.01027898418
-0.01244190983
0.8988564704
0.009642631535
0.009150767709
-0.006970245173
0.8956652484
-0.004823327379
0.8948797965
0.8911200963
-0.003619923519
0.9448247953
-0.007307321554
0.9447592842
-0.01112593201
0.9445077566
-0.007576709278
0.9440954522
-0.007567773417
-0.4697504982
0.4708280378
-0.00865424884
-0.4690476578
0.009784763152
0.4702190287
-0.01095613401
-0.4682909812
0.0121882537
0.4695903663
-0.006766503501
-0.006721135312
-0.2355836724
0.007428759422
0.2344422175
-0.006305437706
-0.2433531938
0.00144563337
0.241606902
0.0001370277347
-0.2440016792
-0.004066063193
0.2428834638
0.004984851792
-0.2390280357
-0.006402714116
0.2388179806
0.006475061182
-0.2276192954
-0.006052285952
0.2280292944
0.005606288208
-0.225273553
-0.004481149928
0.2256260667
0.004199271472
-0.2189728587
-0.003033644285
0.2197373119
0.002437508212
-0.2151860254
0.0003414369244
0.2166762883
-0.001619981198
-0.2177809646
0.006244884245
0.2195957317
-0.007914495716
-0.2262801707
0.01235174993
0.2258812629
-0.01195204593
0.01046066333
-0.2256849059
0.225191944
-0.009967701447
-0.4500967414
0.01694818495
0.4483538162
-0.01520525974
-0.449350541
0.01354209669
0.4477419929
-0.01193354849
-0.01150603542
0.8916999964
0.01020087636
0.008461632993
-0.006509030005
0.890668243
-0.004427907501
0.892798674
0.8866921888
-0.003570869189
0.9483956645
-0.007197204873
0.9483856199
-0.01092684493
0.9482373966
-0.007443129652
0.9479816757
-0.007369938756
-0.4718712593
0.4729027889
-0.008474659295
-0.4713548024
0.009547512898
0.4724547958
-0.01064750633
-0.4708358159
0.01178936484
0.4720221307
-0.006525033686
-0.006450646016
-0.2351583796
0.007144635057
0.2354747141
-0.007460969505
-0.2368276686
0.007663861085
0.2355271871
-0.006392748458
-0.239123412
0.002642931151
0.2379119527
-0.001530401328
-0.2372417105
-0.001061903872
0.2365760054
0.001639780132
-0.228550256
-0.002608759027
0.2284982775
0.002636678733
-0.2270394909
-0.001554102115
0.2275517164
0.001095465791
-0.2227999229
0.00113392914
0.2238946608
-0.002121450233
-0.2213707589
0.00572695884
0.2228313171
-0.007089933255
-0.2244765452
0.01126968458
0.2251488244
-0.01193133547
-0.2245944286
0.01090412352
0.2242244499
-0.01053414495
0.009390152695
-0.223897403
0.2235062714
-0.008999021142
-0.4467521199
0.01552189446
0.445285009
-0.01405478356
-0.4462641801
0.01261838981
0.4448448959
-0.0111991056
-0.01421885937
0.8865599613
0.009542132649
0.009816761837
-0.009336676863
0.8857860605
-0.00180135296
0.8852633501
0.8848908359
-0.003471083823
0.9518667483
-0.006984507639
0.9518990437
-0.01057171245
0.9518246015
-0.007195027698
0.9516799216
-0.007074930705
-0.4738934673
0.4748647208
-0.008166281274
-0.4735111322
0.009167215384
0.4745261996
-0.01018228282
-0.4731472564
0.01122224353
0.4742108513
-0.006189549188
-0.006096289228
-0.236359504
0.006735946977
0.2366340056
-0.00701044857
-0.2358593412
0.007833182636
0.2361320329
-0.008105874397
-0.2350324411
0.008911277468
0.2351941598
-0.009074473951
-0.2347358844
0.007769218226
0.2342711857
-0.007323141067
-0.227483137
0.006392184235
0.226868626
-0.00578449655
-0.2290128894
0.007190748117
0.2294215774
-0.007582357831
-0.2267963997
0.009309322594
0.2275418318
-0.01003580327
-0.2258603367
0.01125961802
0.2257138772
-0.01111315865
-0.2243528399
0.01054147965
0.2241237082
-0.010312348
-0.2232558857
0.009535240204
0.2229733447
-0.009252699202
0.008358798841
-0.2224786777
0.2221631905
-0.008043311636
-0.443941212
0.01403497886
0.4427106629
-0.01280442979
-0.4435515575
0.01157403065
0.4423131037
-0.0103355768
-0.01325201837
0.8819074716
0.008796013563
0.009108494491
-0.008747608706
0.8812816508
-0.004343313039
0.8808590545
0.8805475228
-0.003333295986
0.9552000443
-0.006696045334
0.9552617931
-0.01010466768
0.9552332238
-0.006866696536
0.9551572884
-0.006715337907
-0.47579175
0.4766948633
-0.007769809818
-0.4754945144
0.008692396838
0.4764200989
-0.009617981321
-0.4752151653
0.01055416624
0.4761598828
-0.005797251559
-0.005701632174
-0.2373974672
0.006276257356
0.2376336432
-0.006512433305
-0.2368746338
0.007205572091
0.2370991208
-0.007430059098
-0.2358876845
0.008076426085
0.2360922114
-0.008280952995
-0.2344861954
0.008852839728
0.2346593064
-0.009025950693
-0.2250583928
0.009115811204
0.2245911424
-0.00864856081
-0.2299581784
0.009930426915
0.2300018466
-0.009974095181
-0.2276787553
0.009964839105
0.2276367655
-0.00992284937
-0.2253258147
0.009682455287
0.2252102718
-0.009566912326
-0.2235219619
0.009124322593
0.2233451991
-0.008947559822
-0.222223531
0.008343876142
0.2220016296
-0.008121974821
0.007409331238
-0.2213373416
0.221080795
-0.007152784644
-0.4415817985
0.01259685896
0.4405439865
-0.0115590469
-0.4411889824
0.01050560156
0.4401119008
-0.009428519952
-0.01219663831
0.8777363135
0.00802411329
0.008343683146
-0.008088641942
0.8771736545
-0.004026900412
0.8767973129
0.8765206224
-0.003169921723
0.958369966
-0.006357638265
0.9584495096
-0.009566492385
0.9584420779
-0.0064876578
0.958397601
-0.006319147244
-0.4775529813
0.4783865195
-0.007321196042
-0.4772992257
0.008164983488
0.4781371266
-0.009002884387
-0.477047138
0.009840166445
0.4778799869
-0.00537878656
-0.005294228833
-0.2382897406
0.005801850762
0.2384927133
-0.006004823484
-0.2377114553
0.006589437239
0.2378970789
-0.006775060801
-0.2366390565
0.007299087727
0.2368018703
-0.007461901453
-0.2351118579
0.007910862789
0.2352425032
-0.008041508129
-0.223484129
0.0079130669
0.2232073521
-0.007636289969
-0.2300927674
0.008684875348
0.2301119187
-0.00870402658
-0.227507231
0.008655932623
0.2274632638
-0.008611965448
-0.2248953233
0.008399443296
0.2247991797
-0.008303299645
-0.2228714066
0.007944180319
0.2227294795
-0.007802253193
-0.2214048762
0.007317548137
0.221225884
-0.00713855601
0.006558555105
-0.220408736
0.2201974643
-0.006347283414
-0.4395884362
0.01125787255
0.4387077539
-0.01037719032
-0.4391359328
0.009472243643
0.4381988426
-0.008535153458
-0.01112527245
0.8740155552
0.00726708905
0.007578941721
-0.007406911745
0.8734552938
-0.003695890783
0.873086292
0.8728247317
-0.002991245803
0.9613612118
-0.005990263073
0.9614485269
-0.008989816512
0.9614416313
-0.00608077127
0.9613971515
-0.00590859575
-0.4791747535
0.479940803
-0.006846820746
-0.4789310464
0.007614973107
0.4796866294
-0.008370556112
-0.4786613945
0.009117657895
0.4793946409
-0.004961449608
-0.004889454706
-0.2390567533
0.005335151906
0.2392314696
-0.005509868262
-0.2384053287
0.006005137217
0.2385600264
-0.006159834881
-0.2372415146
0.006590260789
0.2373737333
-0.006722479522
-0.23558013
0.007081726948
0.2356757181
-0.007177315078
-0.2226187702
0.006933909138
0.222494992
-0.00681013096
-0.2301421351
0.007642840151
0.2301443978
-0.007645102868
-0.227330268
0.007573706362
0.2272857781
-0.007529216503
-0.2245320584
0.007336612437
0.2244491766
-0.00725373062
-0.2223426512
0.00695192831
0.2222249807
-0.006834257748
-0.2207385863
0.006434069579
0.2205907218
-0.006286205132
0.005804749781
-0.2196407187
0.2194639735
-0.005628004602
-0.4378942757
0.01003630711
0.4371417076
-0.009283739058
-0.4373499474
0.008502556077
0.436532819
-0.00768542768
-0.01008360985
0.8707054748
0.006550727268
0.00684296295
-0.006735082045
0.870106766
-0.003367148068
0.869718358
0.8694575836
-0.002806809029
0.9641680209
-0.005613114778
0.9642548326
-0.008403873443
0.96423239
-0.005669792104
0.9641633975
-0.005500327305
-0.480661523
0.4813633292
-0.006371598346
-0.480401951
0.007069418604
0.481082564
-0.007750031582
-0.4800830285
0.008416727263
0.4807295868
-0.00456243584
-0.004500849754
-0.2397178547
0.004892938228
0.2398689065
-0.005043989997
-0.2389857105
0.005466487126
0.2391159441
-0.005596720647
-0.2377343183
0.005955520029
0.2378437886
-0.006064990264
-0.2359161664
0.006354309385
0.2359819651
-0.006420108057
-0.2223081051
0.00612869849
0.2222997552
-0.00612034857
-0.2301326922
0.006765831331
0.2301235944
-0.006756733555
-0.2271523805
0.006670560262
0.2271080533
-0.006626233045
-0.2242158141
0.006448835371
0.2241425588
-0.00637558008
-0.2218998925
0.006115055869
0.221799764
-0.006014927326
-0.2201838154
0.005676637255
0.2200590895
-0.005551911346
0.005145006292
-0.2189952899
0.2188451963
-0.004994912652
-0.4364435716
0.008943472303
0.4357949631
-0.008294863845
-0.4357918749
0.007616287996
0.4350765381
-0.006900951241
-0.009103703505
0.8677621559
0.005889545144
0.00615747723
-0.006096512303
0.8670995747
-0.003052850575
0.8666746963
0.866404733
-0.002623500106
0.966791521
-0.005239890436
0.966871223
-0.007828712219
0.9668212118
-0.00526819409
0.9667094376
-0.00510655827
-0.4820210291
0.4826631684
-0.005910333384
-0.4817269829
0.006544134408
0.4823405497
-0.007157701273
-0.4813370313
0.007753915332
0.4819090486
-0.0041913059
-0.004134626735
-0.2402903836
0.004483050207
0.2404216614
-0.004614327985
-0.2394761973
0.004977588325
0.2395870541
-0.005088445106
-0.2381447618
0.005392054346
0.2382368363
-0.005484128819
-0.2361411636
0.005716969456
0.2361825629
-0.005758368725
-0.2224064888
0.005457793313
0.2224795337
-0.005530838285
-0.2300838464
0.006022871454
0.230067046
-0.006006071077
-0.2269757611
0.005910253803
0.226931955
-0.005866447663
-0.2239343282
0.005701168316
0.2238683832
-0.005635223307
-0.221520189
0.005405664143
0.2214332017
-0.005318676792
-0.2197127876
0.00502709682
0.2196057046
-0.004920013861
0.004570703409
-0.2184449061
0.2183157541
-0.004441551424
-0.435190674
0.007975562691
0.434626874
-0.007411762754
-0.4344269213
0.006818482926
0.433797824
-0.006189385678
-0.008202055781
0.8651422592
0.005290388366
0.005531564046
-0.005504127376
0.8644016463
-0.00275991904
0.863930488
0.863644814
-0.002446763927
0.9692382849
-0.004881301675
0.9693057607
-0.007279675694
0.9692195858
-0.004886101597
0.9690520879
-0.004736224356
-0.4832632632
0.4838509428
-0.005473781166
-0.482921998
0.006050158514
0.4834762711
-0.006604431598
-0.4824483684
0.007139137292
0.4829573152
-0.003849980057
-0.003798104057
-0.2407888237
0.004107250202
0.2409035923
-0.004222018838
-0.239895365
0.004536965122
0.2399908261
-0.004632426165
-0.2384914198
0.004892965384
0.2385697322
-0.00497127781
-0.2362759404
0.005157780648
0.2362977408
-0.005179581056
-0.2227865296
0.004892420032
0.2229129593
-0.005018849727
-0.2300081709
0.005388030228
0.2299861476
-0.005366006969
-0.2268016379
0.005264114896
0.2267585905
-0.005221067565
-0.2236796444
0.005065857322
0.2236194775
-0.005005690514
-0.221188318
0.004800233452
0.2211115081
-0.004723423528
-0.2193062254
0.004468128811
0.2192129388
-0.004374842145
0.004071011614
-0.2179695367
0.2178571453
-0.003958620235
-0.4340993954
0.007125441923
0.4336052421
-0.006631288656
-0.4332253866
0.006109124742
0.4326693025
-0.005553040629
-0.007387199453
0.8628048379
0.004755659704
0.004968961063
-0.004965331664
0.8619797785
-0.002492493239
0.8614576495