/*--------------------------------*- C++ -*----------------------------------*\
| =========                 |                                                 |
| \\      /  F ield         | OpenFOAM: The Open Source CFD Toolbox           |
|  \\    /   O peration     | Version:  v1912                                 |
|   \\  /    A nd           | Website:  www.openfoam.com                      |
|    \\/     M anipulation  |                                                 |
\*---------------------------------------------------------------------------*/
FoamFile
{
    version     2.0;
    format      ascii;
    class       volScalarField;
    location    "1.96";
    object      omega;
}
// * * * * * * * * * * * * * * * * * * * * * * * * * * * * * * * * * * * * * //

dimensions      [0 0 -1 0 0 0 0];


internalField   nonuniform List<scalar> 
12556
(
31.93126937
31.93218775
31.93313731
31.93397692
31.96673092
31.9675977
31.96849582
31.97036496
31.9739241
31.97952435
31.98682994
31.99355407
31.99575968
31.9942071
31.98808283
31.98100215
31.97527845
31.97096126
31.96913497
31.96766014
31.9338182
31.93263071
31.93159834
31.9306507
31.79552159
31.79813117
31.80065997
31.80278143
31.83655612
31.83976505
31.84500514
31.86847119
31.8849849
31.91144339
31.94570651
31.97873666
31.9954381
31.98599624
31.95742219
31.92415544
31.89555086
31.87598868
31.84839683
31.84083555
31.80369834
31.8000525
31.79682045
31.79399308
31.66168252
31.66629943
31.67074778
31.67445156
31.70886751
31.71600663
31.7285666
31.7630523
31.80270446
31.86250338
31.93842776
32.00870609
32.04272622
32.02460717
31.9631211
31.88951996
31.82585713
31.78027323
31.73525933
31.71867754
31.67653417
31.67024856
31.66465329
31.65994281
31.52936417
31.5353275
31.54115661
31.54657528
31.58401431
31.59798002
31.62503999
31.68131555
31.76026192
31.88146731
32.03333317
32.18258733
32.25118881
32.21844776
32.08157495
31.92863572
31.79856952
31.70959351
31.63627715
31.60478945
31.55378575
31.54344075
31.53492422
31.52807655
31.39915072
31.40695096
31.4148734
31.42352873
31.46418294
31.48880209
31.54005113
31.63134036
31.78330859
32.02444788
32.3582873
32.76437378
32.99130481
32.90655452
32.51626036
32.14248074
31.84886128
31.67802682
31.55874047
31.50149537
31.43522616
31.41939568
31.40745804
31.39827615
31.27018309
31.27933955
31.2891022
31.30172708
31.35065844
31.39238716
31.48108749
31.62448018
31.89653666
32.37106164
33.21392537
34.72206072
35.94593209
35.37040685
33.81061178
32.74073959
32.05027835
31.70069081
31.50453157
31.41116877
31.32247331
31.29773857
31.28124343
31.26931819
31.14368749
31.15484015
31.16797875
31.18683906
31.24483837
31.31000681
31.44656954
31.67311874
32.13311581
33.03339177
35.22560812
42.58042475
50.07683015
46.48888702
37.39385846
34.05521644
32.48550269
31.80588129
31.47556988
31.33549763
31.21520863
31.17871914
31.15638678
31.14142997
31.01921757
31.03207491
31.04865436
31.07590195
31.14752957
31.24261943
31.44251246
31.77852058
32.48515105
34.00978824
38.64544184
62.56749081
81.31437459
45.59534386
36.42699342
33.2071645
32.00241012
31.4784068
31.27241533
31.11431173
31.06280392
31.03317182
31.01460783
30.89943675
30.91511673
30.93739356
30.97629782
31.05941188
31.19069503
31.46112164
31.93082656
32.90294619
35.02795676
41.64981932
77.88329699
159.8893953
57.43591338
39.65929554
34.17097145
32.27176445
31.50212602
31.21983908
31.01986997
30.95111695
30.91285132
30.89045235
30.78431136
30.80241098
30.8300593
30.88120985
30.98235714
31.15268124
31.50446234
32.11131042
33.32254662
35.87748347
43.46079973
84.77711087
200.2809254
67.67010142
42.86056771
35.15233815
32.56027132
31.5432208
31.17588355
30.93265448
30.8450938
30.79722017
30.77028803
30.67726326
30.69895078
30.73422837
30.80118031
30.91599016
31.12743605
31.56553006
32.30445214
33.70871522
36.55468967
44.815187
95.1941123
199.7479355
73.43346698
45.0859794
35.93076828
32.82004262
31.58641566
31.1382804
30.85226723
30.74614861
30.68817047
30.65660608
30.57631282
30.60089164
30.64262274
30.72428646
30.85882597
31.1128837
31.63858291
32.49774872
34.05964725
37.1302625
46.1466245
107.0574479
184.3209844
75.149671
46.12940272
36.39889947
33.00993582
31.61901568
31.10334623
30.77902965
30.65429775
30.5865361
30.54984288
30.48459474
30.51307079
30.56390904
30.6624671
30.80863817
31.10463872
31.7105813
32.68595358
34.36159693
37.63014242
47.71764627
116.5353567
881.5964331
157.890125
74.07214154
46.22465496
36.5126939
33.1081162
31.63163959
31.06695551
30.7097717
30.56942186
30.49185361
30.45059418
30.39778429
30.42968634
30.48864014
30.6013163
30.77258219
31.11658637
31.83182751
32.89800745
34.68927962
38.21131264
49.97350291
161.8911488
544.3797844
147.4881847
71.90322474
45.43542552
36.37540009
33.13484327
31.62378435
31.02608108
30.64136705
30.48890657
30.40230671
30.35637194
30.317656
30.35299658
30.41930253
30.54438114
30.73159104
31.11520018
31.9146249
33.13226352
35.14878525
38.99344567
52.110863
401.7277939
387.9644786
135.9480495
67.61585166
44.19522468
36.06900754
33.10449261
31.59000485
30.97733136
30.57343639
30.41092084
30.31650561
30.2670009
30.23845777
30.27700989
30.34993889
30.48695578
30.6901013
31.10881284
31.98032456
33.41696766
35.91794017
40.65485055
58.48200853
760.7752648
315.0115818
118.1097522
61.67869878
42.54030318
35.69960873
33.01566503
31.53337392
30.91942016
30.50130977
30.33116381
30.23043605
30.17721802
30.16251927
30.20424451
30.2826272
30.42892332
30.64519481
31.09358671
32.0235669
33.66241568
37.03853171
44.64151443
90.65322738
999.3705256
215.8673536
95.58780821
55.19955296
40.88041059
35.39227547
32.89916446
31.45870011
30.85222861
30.42563402
30.25019121
30.14417235
30.08815076
30.08301436
30.12755618
30.21065174
30.36558005
30.59461359
31.06652813
32.04538129
33.78446391
38.14103527
53.1608551
275.137292
642.4572768
154.7960748
77.62450803
50.39724163
39.83261193
35.14373683
32.76776973
31.36938824
30.77309631
30.3417782
30.16252218
30.05343452
29.9952197
30.00430637
30.05152512
30.13836762
30.29905519
30.53688472
31.02716875
32.04563282
33.88306103
38.73159008
65.47673835
531.6693929
307.3980555
123.2269807
68.60480257
48.3434933
39.31540119
34.90068582
32.62786922
31.27037292
30.68491317
30.25238248
30.07115871
29.95992666
29.90051592
29.91874027
29.96808951
30.05823633
30.22468437
30.47155466
30.97581375
32.03364111
33.97758945
39.39326992
75.08573014
526.4441785
249.3252466
113.3796285
66.13730579
47.31879727
38.86202251
34.67285066
32.48548067
31.16445368
30.58887913
30.15525368
29.97253574
29.85999313
29.79993759
29.83358595
29.88473827
29.9773716
30.14685867
30.39853492
30.91346034
32.00547224
34.06948524
40.25356903
85.28836841
501.7358486
220.381887
106.7982622
64.12566532
46.46196293
38.46821872
34.46361249
32.3437395
31.05352626
30.48617066
30.05387864
29.87117664
29.75810141
29.69780827
29.73967597
29.79196503
29.88678022
30.06009786
30.31828212
30.84126091
31.96163059
34.14749225
41.47197353
95.67406999
472.3671191
197.9558861
101.1863873
62.41659875
45.77854284
38.13854524
34.27400381
32.20418257
30.93889065
30.37802548
29.94562032
29.76259858
29.64937247
29.58930252
29.64791038
29.70097933
29.79712353
29.97139541
30.23130932
30.76076643
31.90382157
34.20328873
43.00534551
104.3802954
440.9898062
181.4307757
96.73851937
61.09574693
45.28747028
37.88093756
34.10348551
32.06773693
30.82172796
30.26565221
29.83570886
29.65379585
29.54095105
29.48134417
29.54606839
29.59937294
29.69675152
29.87360164
30.13870789
30.67369842
31.83673201
34.24777398
44.40940026
108.9528194
411.4928604
170.7848188
93.64350632
60.22569447
44.97354093
37.68492805
33.94970718
31.93527317
30.70320339
30.15023464
29.71977941
29.53778411
29.42531671
29.36640974
29.44970715
29.50302789
29.60084226
29.77707074
30.04135102
30.58180016
31.76551488
34.30533959
45.47794045
109.8785846
384.5548556
164.373657
91.63519995
59.68491251
44.76907836
37.53025985
33.81051342
31.80747937
30.58431519
30.03275563
29.60526388
29.42487708
29.31317447
29.25501369
29.3413325
29.39432767
29.49279767
29.6711564
29.94063974
30.48666331
31.69408361
34.38739893
46.272545
109.1299601
360.5391569
159.7668879
90.16495665
59.29661438
44.61836514
37.40344443
33.68422625
31.68464746
30.46581366
29.91412224
29.48451777
29.30363144
29.19237954
29.13503843
29.24318861
29.29578141
29.3941629
29.57087168
29.83726125
30.3896005
31.62524188
34.48977447
46.86505555
107.6083533
339.1815023
155.8692193
88.94301757
58.97902816
44.49820657
37.29719015
33.56926942
31.56677179
30.3482519
29.7949585
29.36881113
29.18979822
29.07936713
29.02279156
29.12943416
29.18142729
29.2801761
29.45922827
29.73249137
30.29159485
31.5607329
34.60097946
47.29023887
105.6240347
320.0342504
152.3934462
87.87730625
58.70659502
44.39956118
37.20680789
33.46412375
31.45365872
30.23199461
29.67589221
29.24480535
29.06447105
28.9543364
28.89852506
29.03246276
29.08387988
29.18228113
29.35897804
29.62643805
30.19340996
31.50126629
34.70990064
47.57671512
103.3932141
302.6929922
149.1908909
86.92443132
58.46709113
44.31741047
37.12903794
33.36747145
31.34505649
30.11729559
29.55718773
29.13086788
28.95265655
28.84323305
28.78808133
28.91359148
28.96430437
29.06291646
29.24248976
29.52035648
30.09567833
31.44678055
34.80929314
47.7529699
101.0594236
286.8892407
146.1740803
86.05459326
58.25179343
44.24813428
37.06152289
33.27820733
31.24068816
30.00432245
29.43933415
29.00362128
28.8230452
28.71370038
28.65918706
28.82086804
28.8709785
28.9691774
29.14596569
29.4137758
29.99891454
31.3966614
34.89531612
47.840809
98.67864344
272.3519231
143.3132314
85.24596629
58.05390696
44.18885357
37.00250101
33.19543295
31.14029253
29.89320473
29.3223206
28.89467274
28.71646368
28.60762642
28.55361722
28.69598707
28.74537222
28.84364608
29.02372298
29.30825655
29.90351628
31.3498115
34.96545059
47.85340584
96.29958363
258.9450671
140.5823843
84.48233949
57.86847355
44.13737633
36.95063386
33.11842276
31.04362959
29.78405675
29.20670573
28.76234825
28.58082377
28.47190226
28.41839807
28.61096819
28.65981339
28.75777734
28.93528921
29.20263548
29.80979991
31.30506975
35.01849956
47.80489161
93.95690103
246.5298691
137.9670452
83.75528733
57.69251091
44.09202106
36.90479354
33.04654064
30.95046966
29.67703815
29.0922561
28.66301565
28.48369337
28.37498948
28.32182903
28.477837
28.52595916
28.62383796
28.8040301
29.09938481
29.71819689
31.26163807
35.05541176
47.70724992
91.6764867
234.9872247
135.4600213
83.05922738
57.52363487
44.05117569
36.86390034
32.97919624
30.86062601
29.57247771
28.98003249
28.52084853
28.33827078
28.22941296
28.1766468
28.40455811
28.45228475
28.55005827
28.72980874
28.99679551
29.62937699
31.21920881
35.07798245
47.57401824
89.48673095
224.2248429
133.052622
82.3877047
57.35905242
44.01308568
36.82685605
32.91579335
30.77384611
29.47118431
28.87010573
28.43888874
28.2564365
28.14745104
28.09485524
28.23488582
28.28179405
28.37949516
28.56185252
28.89986079
29.54475843
31.17787916
35.08713721
47.41258613
87.40067164
214.1687095
130.7408052
81.7385019
57.19705876
43.97620506
36.79271322
32.85593739
30.69007892
29.37526863
28.76595012
28.25641499
28.07033021
27.96085418
27.90855632
77.04678348
190.2592643
92.50456455
83.8202017
243.1135462
197.6391437
93.77576914
238.2855756
244.8944314
105.6849839
213.8947059
235.2318156
115.4778583
1086.669159
919.9336222
192.1730537
210.5613283
142.2931588
670.3171155
1062.773019
568.4277051
187.4790287
190.0876426
59.23178651
49.51429857
84.36972986
45.99702767
617.2413252
203.7702702
150.9528733
63.45557408
50.51386953
43.09398563
71.49183716
67.04289683
2136.127418
1512.413571
197.9849775
78.65985708
67.75571275
44.52930925
77.9051089
72.14675641
88.13528929
250.5071951
227.3609091
1162.121204
1635.403208
201.1760982
87.00219449
81.41366578
45.8920199
86.93293277
78.92899108
99.44899117
350.7532615
284.9086684
632.7281718
853.3109143
47.42368781
97.91655998
88.02033961
108.9502839
519.0983027
422.2198201
2623.471054
406.1898818
472.0287339
49.57363262
118.2050415
99.50432425
124.6478662
1079.943533
726.2517767
156.3680533
505.2834351
660.395919
195.671526
227.8045358
119.1729009
189.1788973
1472.514282
652.6180703
148.3947942
519.1459487
1020.101217
224.5349325
205.5655846
80.97749892
267.6074905
279.7542834
233.7477412
264.6808534
1656.428115
2136.864499
223.2229862
1467.56308
1254.844341
1054.542066
1463.956059
220.3060847
281.7345796
254.3277882
89.45244878
322.569086
365.0198026
281.8477245
319.3343236
894.4029942
1135.403646
244.0573663
847.9867102
659.8149812
1240.156258
881.4076952
245.3531002
418.1044224
354.0092327
100.8835486
428.8473572
526.004315
367.7984865
425.0158168
486.3765189
608.1148448
716.0644349
528.2429498
109.2407736
3575.771966
707.7173113
1052.812615
530.8810659
692.3369398
3984.576671
372.7275577
399.331799
2314.794348
8551.635194
1088.200313
125.9602072
769.4117279
1680.839298
7744.92158
1060.963568
1654.629383
790.7969542
41.04752854
66.25572282
55.18601291
71.09177127
154.3211499
103.2622882
3817.081628
675.5883847
80.40729616
203.268887
180.8834429
6421.86974
186.7207973
89.46852913
88.07179144
6168.340248
917.392979
1020.959676
696.0254712
330.3586931
360.0482016
178.004651
158.2159778
73.00129712
1464.238373
290.4785473
656.547948
168.9022253
457.9518059
136.7089427
1042.43445
1342.855807
222.8452119
501.0150526
426.8732859
637.0758206
515.0853519
226.2789612
1569.82645
4814.991194
937.5403536
83.70834178
66.46337238
107.601298
176.6004416
79.82524647
85.67691053
5388.695655
429.302463
3769.513751
494.2030311
2752.190735
385.7952515
1734.641546
1711.463948
1355.33137
1388.463556
2620.002808
5463.091054
715.4904073
3187.59603
1702.516475
6172.926355
3696.368119
747.7880041
456.9782893
185.4956371
193.0909482
770.8817011
874.3143785
5617.278878
779.4286584
236.0908237
248.9014012
220.642774
231.2387311
776.6350033
1332.188471
1466.037244
210.0446902
948.9689885
784.8534036
1404.93509
948.9823523
214.083368
155.3183234
482.4117733
229.7648809
699.4312083
515.4780406
166.6828218
686.2722716
988.9361632
1031.187764
975.7130802
267.6223025
1512.293974
267.9779767
248.8807593
1473.443797
1423.378979
1507.916793
1479.127814
252.9927363
1769.218482
1789.301434
1342.324655
443.0282936
432.0349423
444.6966393
444.7669256
1331.298187
1242.439815
393.3985236
359.8103698
426.3295002
403.3079663
1264.772989
342.023468
344.7796415
297.6897087
299.9961604
952.7104755
6389.926075
971.3102124
457.9004465
464.4649575
395.9466346
399.8581597
1605.392573
1162.42806
547.2489811
1426.480784
2420.372321
577.9703917
207.3602418
216.9999736
195.8254521
204.360476
569.7092
1743.211392
750.4179415
762.3572418
566.0879125
570.4749183
6309.380121
1288.861434
659.6300943
739.3905241
254.4045295
264.5225822
1324.735458
2667.636826
2252.3299
3278.585721
1093.496318
6890.210619
3518.776423
5978.447775
1089.574434
889.2264151
4436.743488
2713.30702
4568.800187
2471.805234
3296.253848
51.22605424
121.0250264
120.677559
174.3820049
4242.009864
7948.464233
406.5102839
171.9886872
183.7608972
1342.710333
3725.216855
4938.171147
574.0581602
633.985154
1206.613996
302.7272053
320.6875787
677.206653
170.543293
125.578646
262.1740924
529.3166721
156.1139385
184.6188997
2011.546371
5076.44926
5224.440465
1612.852006
1247.073014
3595.13499
2581.10162
6076.034712
5940.257386
1555.949992
324.6714384
154.9082197
159.7725327
148.9068754
153.3594285
318.8997682
176.5938928
183.2505764
452.5400863
999.4733617
415.8269672
433.5674892
6582.978643
3501.23904
614.6050212
1277.505509
4659.923635
5075.264055
701.540869
287.5908773
240.1886035
346.1265271
303.7874611
735.2716351
1708.093272
6021.405906
6088.293325
2025.460119
269.2666079
143.3884982
147.5012183
717.9239925
705.5820762
356.0417162
2431.432603
2220.688679
1064.555108
761.3401146
394.4666491
410.9313005
1096.98156
434.730932
443.1401785
416.6916563
430.4479906
1074.547904
382.0788387
168.6311738
174.5468463
161.4607624
166.7615228
377.81486
440.3729286
1013.964392
1005.186402
1576.581296
1532.526602
505.8733135
378.6121642
753.2262078
719.9670996
1001.390458
995.4741181
414.0744176
529.1363622
1118.075053
903.7859329
6377.191298
2650.724052
729.731975
895.512755
545.4785805
1607.440809
1583.503832
1611.292639
611.9379134
5450.388449
8648.011631
329.8616401
370.029461
440.1287362
455.8407711
1094.248366
2506.983127
1550.209663
710.9669786
1695.756561
8412.535095
2309.88957
2124.405142
15849.43611
1070.085563
1577.01321
2324.672632
2852.465232
2110.26704
6385.848463
6484.240335
1639.00132
2179.968862
6356.475519
1508.9432
1445.510906
448.018756
1673.442587
684.8360816
1648.169068
489.3637278
4922.450703
3602.806598
1180.746108
5618.023601
6429.82176
5025.157908
3787.289053
1305.588542
5164.919594
6253.106799
3751.134722
4937.5769
6625.527654
2613.464043
3412.447668
1887.68292
2359.335533
5958.419162
5588.788679
1552.696628
941.0267477
2563.170803
1713.955421
844.4816121
523.6650309
1557.31341
5395.479244
6915.763773
1911.71304
1636.125486
5279.932133
5403.623462
3971.490563
3713.366793
1278.570443
6205.818484
6103.598898
4594.141263
6032.162014
6063.683917
1512.166433
6061.437726
4081.834617
3803.996823
4258.115777
2361.171024
1085.237298
1175.541136
4800.507351
1380.636616
1569.486087
1212.084877
1324.276761
4530.857723
4303.390194
1257.601532
1500.552044
390.0432545
409.7207394
912.5102223
750.856947
371.1533627
385.1599654
1433.595328
1443.947869
941.8162647
357.0716668
378.0847868
330.9829889
350.870146
935.4545524
993.5846967
422.2879886
457.0411622
385.4829334
412.1826994
1000.939348
634.9290244
303.8115323
325.0341685
909.9175518
941.7271328
3331.557938
3462.706968
1210.694253
4917.499612
5035.682145
6346.005479
3438.729083
2855.490623
4904.092046
3393.712765
815.453912
2374.001356
3185.339678
1546.377553
557.585827
621.3199894
533.6591
546.9611728
1513.742247
668.9258637
678.4894604
642.0285349
665.4599521
1457.668995
485.9090999
498.2975988
465.3829461
481.5318224
1450.377864
1495.564784
517.9822754
529.2980455
502.3312002
514.1207216
1493.925287
5872.166923
5968.155812
1724.57332
1941.310482
6156.940599
5842.358638
973.1112695
976.7808446
949.4617061
971.96361
987.3954507
998.635368
978.2291004
985.1217609
693.5534056
702.9679765
681.4717535
690.3632797
741.5238694
908.0384596
707.6109061
719.4006937
2072.212137
2444.302659
1638.143697
1923.245616
6650.359508
3914.927197
4312.264998
2621.828162
3776.970966
1026.115965
1019.358534
444.5466128
1607.952083
1612.036272
1577.905983
1599.27606
1655.129799
495.2347769
1497.932834
1077.380866
967.7759589
773.2658568
382.638743
1044.484791
1488.450642
999.1803033
1054.230251
1544.999014
1566.9075
1507.231219
1535.8219
410.5204523
993.7232233
985.1776504
6499.405163
1706.67682
6439.053853
5607.549152
6417.158124
1834.367462
6589.913391
2358.926636
6319.110468
5539.749549
736.0868438
813.5218268
1638.954279
1612.368108
550.0508454
596.5277773
1700.251326
1641.376961
6263.373321
1132.59386
467.0540862
507.5817187
6365.113088
7182.580701
1765.564701
7790.425209
5785.237188
2781.285587
1071.46614
6889.171288
4261.337285
7586.176667
4664.108078
1521.883091
75.00793066
46.74259767
38.76901626
6356.743342
6331.399014
173.9419157
88.42873255
89.43856174
6576.597869
1235.557331
3483.192125
2645.041492
416.2288451
346.835408
202.3720874
433.5757742
286.0484063
693.1003862
2528.177081
413.6493049
472.2099928
60.53158212
72.77562368
152.4199244
537.1158101
1096.90283
1632.850239
239.7842631
133.2311601
137.0506135
127.9595684
131.943523
236.5283504
1070.805615
1198.133363
3838.689017
862.5539074
757.7566779
441.6050827
354.2848215
366.9647157
746.0935287
1779.06117
2282.328508
765.7821216
138.2612092
142.0738302
265.5561051
331.091434
674.9031035
650.5752054
629.4921743
565.5274133
310.1007786
640.8175529
336.8989998
350.0674808
5084.241553
4804.205648
3259.69837
1615.845617
1595.076962
1031.51641
4455.607844
6215.391034
5648.341517
1697.505743
942.2965141
1043.734096
1683.784834
1065.560671
1647.752792
1635.461331
1653.892226
4111.254378
6222.758238
4305.606689
4692.095339
6110.357823
1982.350561
1579.589065
929.9008758
1480.504982
223.556861
175.4118588
325.2412947
1140.060755
3128.382216
2204.209218
6398.826105
6730.287966
6870.939058
5747.3444
6563.559985
112.9587286
147.6460459
408.2013439
4370.171632
2837.993256
2179.090142
5887.633692
4491.829933
2887.230892
4915.009779
4532.191079
6731.442364
6395.855377
4867.98525
983.6165728
1060.680101
2162.090357
6328.503083
3659.040342
4043.068632
5001.819761
3350.698406
3797.711284
1379.894832
1800.241976
1460.14356
946.1237811
658.9759267
666.4406971
1370.558669
874.9272562
916.0046399
671.6937596
680.977433
959.3938695
270.0176811
297.3801747
608.3927585
767.281693
1337.278929
994.0976782
1469.254613
1520.678209
996.1643226
1831.56344
1358.37227
1406.887867
974.5579129
975.8097091
1515.27426
1494.276022
1505.083156
1436.233781
1454.804152
1466.718563
943.9985509
946.4995285
931.9359571
936.1078563
1434.191019
1504.014445
967.0320944
969.6746153
949.3129948
952.2311596
1484.23031
688.6373991
678.6459344
333.8722363
353.2808687
702.2175108
691.8598834
536.9288256
526.1183301
290.6970051
1530.504553
1531.995795
1508.512133
1511.82161
1859.881429
1537.42621
1537.989594
307.4441173
554.7985324
541.3353876
6374.282541
6310.763793
4226.85398
4463.185384
6347.976747
6373.795942
6589.742596
1042.636016
2135.271269
1773.46771
321.5310435
332.7375536
614.2461103
553.2845919
309.4290811
318.3881363
1060.124685
1060.228704
747.5214228
764.5583811
1066.913653
1071.139512
6272.1663
1399.464298
927.0127808
915.0131213
11644.76173
2182.155922
2624.607095
5270.287573
4500.219778
1710.378803
1690.838977
1080.373295
6672.2691
7238.647935
6931.276093
5541.180907
1144.024814
1752.486193
1700.253619
3534.99822
1401.379814
1702.234268
6240.881185
6165.731147
5013.807014
4701.886444
2997.177333
1517.293588
2236.547998
1891.10583
4199.990922
6322.34017
5534.825003
6404.50965
6158.811942
4640.599483
259.6127886
375.1242962
1346.830755
5209.86516
5102.8456
5333.299895
5303.77438
5158.367676
3352.116748
3333.265491
3365.105062
3354.063129
5151.688279
6107.482101
3403.136318
3432.086656
3256.153174
3356.286229
6204.451595
4845.100451
3058.112659
2755.19686
3311.464928
3230.06179
4957.336975
6001.351852
3504.717513
3532.038983
3464.638748
3481.001737
6048.915263
5466.891535
5364.473399
5577.618618
5332.331979
1012.519743
720.0280713
723.2410558
1563.682764
1015.91286
1019.205135
991.4404529
1010.273501
1553.088427
6108.487921
6304.719431
5622.526051
6183.91206
1618.224198
1630.787308
1591.973565
1605.687861
2040.01927
980.8997534
1553.19247
1495.006192
1598.392608
1023.671915
1026.605494
1020.478795
1022.435938
1592.305099
1533.292082
1572.11952
1092.908177
1476.393616
2018.046797
6517.519915
6162.464073
4935.208437
6342.560579
831.0286411
1149.735402
13004.6939
1096.506798
766.3569604
768.9565034
1700.36588
8102.596605
8404.875659
9705.013175
6259.043177
6019.920716
1662.182874
1651.468205
1066.047716
1621.47847
3354.042121
4998.949643
3467.084794
4423.289078
3420.168331
1428.656629
4592.122432
3424.145889
6443.754699
6688.632568
6318.146976
5027.450996
5623.877539
1477.856619
1787.739185
1562.658472
772.0225413
986.0627627
1459.660333
1541.662952
1012.236245
1433.57964
1876.391823
6256.290479
6475.264334
6174.303859
5739.24666
6508.007739
6454.963457
6322.529113
4145.466362
5624.696397
5189.426116
6268.93017
6473.683409
4537.559903
4812.972058
5234.943591
6524.450396
5411.301022
4089.567344
4385.133205
4147.262397
2935.683935
4113.495872
2164.818979
3182.125635
4339.126921
4764.975934
4347.834039
5585.119775
3545.458282
3372.652292
4837.141622
3495.178369
5172.045133
5306.975498
3376.645262
3368.812553
3396.804801
3371.876879
5337.42537
3874.107129
2256.40022
2298.618317
6139.864583
6131.650896
5326.677889
6468.237755
6263.291854
6167.163382
6145.735697
6386.615616
5124.69086
2712.084123
3032.126239
2361.874627
2483.718213
4402.164036
6414.077051
5472.499381
3317.060544
6721.781144
6441.909154
6422.068311
4454.99222
6416.872557
6207.957021
2783.938542
3159.203205
5507.123998
1415.160249
1456.851948
727.6308402
802.70275
1326.104076
956.8913015
684.6199405
707.7247247
1442.254923
1412.72924
863.278053
1492.320046
1829.362325
942.9436858
1478.23731
1469.635335
3328.411491
2245.306985
2211.460526
2469.926147
2388.870986
3511.887727
5254.321465
4931.789746
3214.10699
4849.178947
5075.129014
4544.018006
4787.636608
3159.915451
4791.452015
4719.459309
6136.633378
4503.113472
1027.056495
1019.043367
1475.659369
1520.774465
984.7890247
980.9880288
1480.318622
1489.104525
1464.715291
1473.757831
940.8601035
942.713983
1464.870064
1442.631805
937.7953167
939.2112951
960.5138836
963.1714423
1498.869551
1490.08101
955.3930443
958.0491009
5933.184078
3603.009761
3626.862344
3550.254082
3572.771444
5920.031625
5868.828628
4002.543498
4640.978259
3675.467794
3769.702275
5862.011483
974.43899
1507.313768
1499.031366
1519.092557
1513.593147
975.4958725
965.4149455
1470.058959
1454.209523
1491.063633
1481.622948
970.037456
991.4734858
1554.977093
1546.96185
1566.602314
1558.834099
993.3909122
980.0367171
1529.703465
1524.961529
1542.287695
1535.055264
982.0200981
1523.235933
1525.841382
696.563613
976.3051179
974.6631924
980.5952043
979.2887691
700.1691771
1516.40336
1519.378437
1574.107324
1498.047618
761.1133432
1027.944481
1037.196838
1422.483226
1373.783875
834.2306208
709.5446033
985.4624083
985.0063673
990.7449952
994.5459614
718.2361457
1545.916366
1539.305159
6287.483426
6154.290671
6446.401781
4751.170028
5464.391937
4057.630042
6253.250404
6324.66226
6243.82853
6254.443554
4140.162059
2938.358858
5438.761557
4683.913146
6130.064082
6270.568387
3419.624381
1030.182908
740.8629843
742.3205795
728.8271062
731.0111631
1019.665578
1608.272078
1620.106834
1582.713369
1596.950786
1567.750535
1969.468506
1439.762297
864.5218533
945.6014375
766.3861927
787.225622
1067.16999
1402.597677
1908.404375
1528.280405
1455.397569
1009.279564
1577.900531
1566.984717
1609.898376
1571.025906
1005.475134
1551.353379
1561.167804
1518.189446
1528.22461
6203.993474
4338.160287
4578.981323
3401.322734
3937.327531
6297.612154
6413.812196
6225.602895
4925.24867
5511.373299
6722.547369
6144.329958
4816.678866
5049.821266
4003.610059
4416.539448
6320.502303
1659.08707
1660.099786
1643.99048
1647.127044
1108.820181
1119.894827
791.3503704
1715.491261
1625.05703
1675.945978
1667.373489
1626.265164
1034.078457
1040.773982
1028.141119
1032.653321
1622.992732
1657.496379
1052.102862
1104.058695
1042.006616
1054.933188
1660.624006
6081.304521
793.4365367
797.5609532
1134.450373
6235.305155
8843.952101
9131.71393
8907.253655
8794.799304
6831.779498
1716.127197
6838.118885
5081.867272
5454.704952
1078.599968
1683.253615
1669.185369
6840.36476
7445.777946
7219.251224
5973.809255
6485.71723
7901.230381
7524.954642
5024.641797
7125.980615
6224.04129
2068.554447
1671.389763
1133.425353
31.78771212
31.81076287
31.87945307
31.82000447
31.85722243
31.90302813
31.87055323
31.91865338
31.93565621
31.93385102
31.98087267
31.96968295
31.9924819
32.01822508
31.99245432
32.02256311
32.01560748
31.99226509
32.00750794
31.96958739
31.96642905
31.95615974
31.90740966
31.9334393
31.89366761
31.8515972
31.90265494
31.84015718
31.80959302
31.88047016
31.69912386
31.74701615
31.79121918
31.76683827
31.84086932
31.84721869
31.86833777
31.9626723
31.92080745
31.994564
32.09330566
31.99306461
32.11500109
32.16773992
32.04147068
32.18233269
32.16872181
32.0324513
32.14704903
32.06430454
31.98054561
32.03636187
31.93556722
31.90785018
31.90585686
31.82409069
31.8396417
31.79894206
31.74043638
31.78907438
31.64134037
31.7324346
31.73793975
31.77013325
31.91427039
31.84789615
31.97127386
32.1705703
31.99476118
32.24321507
32.48630076
32.1420853
32.53115707
32.70112878
32.2534206
32.73461686
32.71295762
32.23160916
32.64032231
32.44241793
32.12485523
32.37086251
32.12105052
31.96696908
32.04931101
31.87038867
31.8270033
31.82319359
31.71183091
31.72824416
31.62174618
31.78489378
31.73705122
31.85677183
32.13693894
31.95498298
32.25758964
32.72494102
32.267108
32.92186747
33.71462949
32.63207296
33.88697783
34.68105054
32.95927036
34.73515166
34.65556743
32.92762181
34.30576403
33.62959175
32.62571398
33.37441548
32.68260677
32.23376586
32.4969579
32.08192616
31.91036496
31.97881
31.74608595
31.7135799
31.65520625
31.93565837
31.81321682
32.06016833
32.58605421
32.22757907
32.83352536
33.96957261
32.95388892
34.55980028
37.84454349
34.17343772
39.19284552
46.44581151
35.70824576
46.75036105
43.68894801
35.50805615
41.06175939
37.19137579
34.14894691
36.17898549
34.05380307
32.97475735
33.56432264
32.57098778
32.18626601
32.3460169
31.87431768
31.76765817
31.74539782
32.18197712
31.99008485
32.38237727
33.27965264
32.74258131
33.73783984
36.18676362
34.44239186
37.7347866
52.80298064
39.39762942
47.88532855
55.33964767
44.76697348
70.97700754
67.81525987
50.14255074
53.70201363
46.57462236
43.21552759
43.04918248
36.8108616
34.6667321
35.62230397
33.44696866
32.76873761
32.99807986
32.12204901
31.92580584
31.88858796
32.50966693
32.26204244
32.79693272
34.10569774
33.49131153
34.78818804
38.5786236
36.83865342
39.53572343
42.6280201
41.43776198
65.77443244
75.93207275
71.43573502
111.6589527
76.68974207
62.98703462
54.45159975
40.97261646
37.84992346
38.66335897
34.67567518
33.74426689
33.90744875
32.47835458
32.20451544
32.06578284
32.85908555
32.59610738
33.22148116
34.84794891
34.29832115
35.68628015
40.23379888
39.05445654
42.196617
46.14951317
45.4521226
78.83069781
94.2937028
92.83806883
181.208885
108.6305572
97.18920666
65.53708005
45.37859486
42.24563325
41.93014583
36.01826119
35.04814072
34.90895182
32.88162626
32.57923567
32.26015171
33.19936053
32.94430425
33.61968899
35.46613362
35.01086677
36.40209219
41.40278135
40.54784474
43.84540505
48.2686058
47.76305414
85.80952609
114.4156955
110.9247259
203.3404435
125.7666598
121.2859394
72.46415983
48.72333132
46.51338075
44.52348979
37.13475144
36.3715705
35.75610732
33.24200556
32.97341917
32.46113084
33.5158871
33.27677515
33.97970541
35.98869444
35.59860104
36.99991371
42.41889316
41.64876727
45.1997748
50.17601817
49.59892983
96.60568333
131.606606
128.2342547
194.9147664
128.6411895
128.7568079