/*--------------------------------*- C++ -*----------------------------------*\
| =========                 |                                                 |
| \\      /  F ield         | OpenFOAM: The Open Source CFD Toolbox           |
|  \\    /   O peration     | Version:  v1912                                 |
|   \\  /    A nd           | Website:  www.openfoam.com                      |
|    \\/     M anipulation  |                                                 |
\*---------------------------------------------------------------------------*/
FoamFile
{
    version     2.0;
    format      ascii;
    class       surfaceScalarField;
    location    "1.96";
    object      phi;
}
// * * * * * * * * * * * * * * * * * * * * * * * * * * * * * * * * * * * * * //

dimensions      [0 3 -1 0 0 0 0];
oriented        oriented;


internalField   nonuniform List<scalar> 
25162
(
0.0004728644491
0.9161771356
0.0006233997194
0.9165494647
0.0007864667475
0.916486933
0.0003898927343
0.9164765158
0.0005700581733
0.4583353723
0.0004045203911
0.4582826812
0.0005200965655
-0.0005027777439
-0.0006537835995
0.4582477293
0.0007560542542
-0.0008572632279
0.458189684
0.001002579208
-0.001159746412
0.4581625331
0.001327213301
-0.001510609903
0.4581467213
0.001698888562
-0.001878383777
0.4581684164
0.002044967337
-0.002193007427
0.4582304231
0.002294084337
-0.002350812606
0.4583273771
0.002356935515
-0.00230867402
0.4584276057
0.00221606827
-0.002086675469
0.4584893658
0.00192730971
-0.00176125997
0.4585066555
0.001589604493
-0.001410203778
0.4584956243
0.001249579453
-0.001095939595
0.458488044
0.000922895593
-0.0008514938726
0.4584535917
0.0007479021361
-0.0006116836195
0.4584613887
0.0005002949417
-0.001780963435
0.9186233448
0.0002534836367
-0.0004458649951
-0.00111495564
0.9186839922
-1.998077024e-05
0.9157550251
0.9137800192
0.001304577409
0.9148725581
0.002140274742
0.9157137674
0.002600819014
0.9160263887
0.0009510651731
0.9166758819
0.001450387774
0.4579259998
0.001149417418
-0.4581243521
-0.4580768127
-0.001421412587
0.457739018
0.001759207296
-0.4578870092
-0.002172123982
0.4573962862
0.001246607354
0.001416239615
-0.2288650414
-0.001497993911
0.2287395976
0.001623437655
-0.002137572609
-0.2287939385
0.2286326273
0.002298883787
-0.002908895641
-0.2287579301
0.2285642463
0.003102579429
-0.003725933938
-0.2288014506
0.2286106093
0.00391677525
-0.004401234637
-0.2289352685
0.2287951382
0.004541253806
-0.004619254468
-0.2291447286
0.2290642778
0.00469989045
-0.004674823303
-0.2293239744
0.2293873955
0.004611402271
-0.004188118432
-0.229433065
0.2295919733
0.004029210111
-0.003477820033
-0.2294716445
0.2296753819
0.003274082657
-0.0027100885
-0.2294510229
0.2296492082
0.002511903246
-0.002025498339
-0.2293975118
0.2295630309
0.001859979274
-0.4588669796
-0.002751410204
0.4602831384
0.00133525136
-4.863696594e-05
0.460905786
-0.001616210699
-0.4592409383
-0.001914098204
0.91804227
0.0006658315755
0.00182934146
-0.001180449076
0.9179503431
0.0002615288181
0.9143130472
0.9140415481
0.001672123185
0.913200435
0.00441810686
0.9129677837
0.007522676717
0.9129218188
0.003338367004
0.9140070474
0.006853144233
-0.4577610639
0.4574363601
0.003663070734
-0.4573779044
-0.003833012073
0.4578011512
0.003409765256
-0.456722197
-0.00376178028
0.4561725157
0.002081083732
0.002230377898
-0.2281265783
-0.002556104324
0.2278572827
0.002825399858
-0.227838518
-0.003770185517
0.2274817365
0.004126967029
-0.2276746401
-0.005174100624
0.2278917964
0.004947158545
-0.2290418548
-0.004296352261
0.229044352
0.004250948045
-0.2291834084
-0.004499491688
0.2290037016
0.004648641625
-0.2287836356
-0.005133344003
0.2286728722
0.005250726648
-0.2286330323
-0.005460283031
0.2286543561
0.005478067721
-0.2293433563
-0.00560996078
0.2292713139
0.005721540811
-0.2305548193
-0.006328243164
0.2308372083
0.006047814767
-0.2304774829
-0.0049172096
0.2308433968
0.004551295636
-0.00327431513
-0.2302992666
0.2309757218
0.002597859862
-0.4628849283
0.0005275944991
0.4616788396
0.0006784941591
-0.4599689012
-0.0008605008077
0.4599153186
0.0009140833676
-0.0002906304384
0.9196186267
-0.0007726261888
-0.0005131000522
0.001324356102
0.9163353565
0.0006097101988
0.9150276931
0.9146512582
0.0006818497572
0.9125185852
0.001519866127
0.9121297674
0.003085854423
0.9113558306
0.003796004562
0.9105158977
0.002780999528
-0.4564945859
0.4558640704
0.004426520109
-0.459080987
-0.005880565175
0.4557371226
0.009224429488
-0.4572559169
-0.01083789559
0.4583823271
0.003165127735
0.006546357696
-0.2268565412
-0.003397690908
0.2265102976
0.003743934539
-0.2263263583
-0.005028503329
0.2260100331
0.005320948669
-0.2271767775
-0.007065555135
0.2262430676
0.007893690553
-0.2272775776
-0.01087991802
0.2260734192
0.01197524155
-0.2272761177
-0.01518410661
0.2262881472
0.01611683641
-0.2281750379
-0.01805638598
0.2279334759
0.01831646469
-0.2297490634
-0.01776427265
0.2304511353
0.01714865484
-0.2309997355
-0.01435813174
0.2322439529
0.01323591021
-0.2316747245
-0.009872281754
0.23276919
0.008871828448
-0.2345112228
-0.001986390793
0.2384683367
-0.00196675623
-0.003282695139
-0.231844989
0.2318566493
0.003271034827
-0.4616170413
-0.004819349508
0.4627541748
0.003682215998
-0.4605867938
-0.002544178869
0.4615047814
0.001626191244
0.00235997739
0.9193563257
-0.001126164558
-0.0009715119012
0.001682980714
0.9170123532
0.0007678097728
0.9159428641
0.915419068
0.000253690581
0.9122648946
0.0006276219575
0.911755836
0.0013026414
0.9106808111
0.001917570603
0.9088712393
0.001029729206
-0.4553811511
0.4543867392
0.00291198249
-0.4539832212
-0.003605217095
0.4530129992
0.004575439091
-0.4518057296
-0.00586605253
0.4505062059
0.003720433706
0.003445142525
-0.226665074
-0.00588736159
0.2245884379
0.007962554583
-0.2238125001
-0.01323491398
0.224388949
0.01252965369
-0.2215072687
-0.01415893623
0.219460721
0.01602044822
-0.2208525527
-0.02204205567
0.2186904367
0.02406123147
-0.2221349815
-0.02978844212
0.2203900716
0.0314752971
-0.2268158372
-0.03514489453
0.2262612978
0.03572163262
-0.2333254798
-0.03500425301
0.2346328964
0.03380035473
-0.2378161701
-0.02741628645
0.2403503562
0.02505937615
-0.2456167036
-0.01063638089
0.2442664274
0.0121699904
-0.2357172928
-0.009813812375
0.2374880827
0.008145175046
-0.004759705535
-0.2332023509
0.2337209266
0.004241129842
-0.4643177547
-0.005434830531
0.4657881468
0.003964438347
-0.4623478966
-0.002944096764
0.4632024279
0.002089565428
0.002962703259
0.9209110492
-0.002599447502
-0.001917979237
0.001567428908
0.9184076276
0.000696676392
0.9168136166
0.9161157444
-0.0001257500419
0.9123906447
-8.642291416e-05
0.9117165089
0.0003268468613
0.9102675413
0.0006567339492
0.9079882316
0.0005531206793
-0.4533092655
0.4527755624
0.001190437015
-0.4521594581
-0.002414946859
0.4510620203
0.003512384763
-0.449142693
-0.004488555998
0.4475966725
0.00302045469
0.003014121838
-0.2210507815
-0.004471030452
0.2195917562
0.005862969432
-0.2147233519
-0.01152962277
0.212273423
0.013772478
-0.2140495936
-0.02304642656
0.2098546468
0.02701775671
-0.2134893382
-0.03456864561
0.2127377008
0.03519322905
-0.2146465481
-0.04053804773
0.2138226689
0.04133348103
-0.2237510947
-0.04711565485
0.2226706324
0.04820041075
-0.2403197717
-0.04503124188
0.2411349703
0.04427442898
-0.2545854272
-0.03257189245
0.2533994
0.03393419914
-0.249749713
-0.0277565151
0.2532411381
0.02450194053
-0.244926098
-0.01516862855
0.2479829274
0.01230176222
-0.004832427939
-0.2364263587
0.2376569551
0.003627862248
-0.4670242373
-0.005352277948
0.4682364355
0.004140079694
-0.463647764
-0.003265115457
0.4640293219
0.002883557536
0.002188844452
0.9227714311
-0.001908761737
-0.00214046459
0.001123206648
0.9194732654
0.0004245020064
0.9175123212
0.9165402464
-0.0006938699279
0.9130845146
-0.001201648958
0.9122242879
-0.001447384629
0.910513277
-1.297786179e-05
0.9074690517
-0.0009152269069
-0.4524962249
0.4520287197
0.0004545273967
-0.4497149984
-0.0008836826442
0.4490906414
0.001508039707
-0.4467600211
-0.00278969454
0.4459003259
0.001786955529
0.001861845081
-0.2146550258
-0.004261800666
0.212849683
0.005942603788
-0.2041571003
-0.01222575204
0.2025962477
0.01352682996
-0.2017079655
-0.02025599523
0.1995278421
0.02221208157
-0.2033846404
-0.02841788444
0.2006414356
0.03108568292
-0.2049710274
-0.04781119053
0.1037620535
0.09788273533
0.02340012995
0.02773729917
-0.03404976617
-0.1086671991
0.1081025233
0.03461444197
-0.0274935379
-0.2520167418
0.05184073093
-0.0278660792
0.1273825915
0.1281530365
-0.04306793834
-0.2595884734
0.2631156504
0.0396559643
-0.2644923481
-0.02810089036
0.2673383382
0.02550386746
-0.2571257913
-0.01769444305
0.2604522544
0.01460663505
-0.006771440165
-0.2430926749
0.2451480461
0.00480759917
-0.469407255
-0.0041505391
0.4700153357
0.003542458395
-0.46484405
-0.002564447978
0.4656311704
0.001777327583
0.0007740080542
0.9239383564
-0.0008375587801
-0.001103374588
0.0001920308643
0.9200552426
-6.754358495e-06
0.9177111065
0.9165334921
-0.001324427875
0.9144089425
-0.00255695747
0.9134568175
-0.003523718628
0.9114800382
-0.001762341691
0.9082398212
-0.002532146455
-0.4519425975
0.4518803693
-0.001700113546
-0.4487409626
0.001680780808
0.4485417913
-0.001481609471
-0.4440501347
0.001197616384
0.443086711
-0.000150691919
-9.613351016e-05
-0.2079101852
-0.001765781002
0.2065980195
0.002922712974
-0.1956120317
-0.007380423114
0.193800795
0.008919866491
-0.1941194479
-0.01369243664
0.1924652055
0.01513137144
-0.1966172839
-0.01824022923
0.1960797106
0.01875236629
-0.08872709948
-0.01201667415
0.08843968225
0.01230409139
-0.03411498026
-0.1418062783
0.1448047176
0.031116541
-0.03794418043
-0.273436376
0.2768539233
0.03458646464
-0.2777380559
-0.02517719812
0.2809852449
0.02216626571
-0.2702115637
-0.01368812569
0.2730508353
0.01111513243
-0.00636229099
-0.2509333104
0.2529301053
0.004496229794
-0.4709774968
-0.001869582026
0.4717179815
0.001129097344
-0.4662244729
-0.0006405045633
0.4666861178
0.0001788596422
-0.001360471029
0.9242270591
0.0008102705685
0.0002614977967
-0.001114745059
0.9198095166
-0.0006032527898
0.9171996142
0.9159302393
-0.001973971751
0.9163829142
-0.003860180421
0.9153430262
-0.005793100152
0.9134129579
-0.003372922924
0.9099793045
-0.004159660492
-0.4521429522
0.4523987451
-0.003628715797
-0.4486140853
0.003936664164
0.4489168309
-0.004239409776
-0.4425488513
0.004542391268
0.4423195702
-0.001979119241
-0.002362453491
-0.2028110104
0.0008104858408
0.20164247
0.0001894778033
-0.1885330304
-0.003919857042
0.1869628991
0.005214665861
-0.1891992487
-0.00835837976
0.1883931508
0.008958257905
-0.1970975096
-0.008677714077
0.1979616118
0.007802557245
-0.09223841189
-0.001750896984
0.09295655527
0.001032753602
-0.01508492319
-0.1579805174
0.1584602184
0.01460522219
-0.02130839108
-0.2837761606
0.2848068933
0.02031083745
-0.2884124198
-0.01630630457
0.2902451284
0.0146982962
-0.2803593901
-0.009306835266
0.2823647697
0.007574890282
-0.002795178297
-0.257556771
0.2589631377
0.001536848515
-0.4726935335
0.001158544918
0.4734503861
-0.001915397572
-0.4668341004
0.002171288007
0.4668477926
-0.002184980194
-0.003880618531
0.9232108291
0.00268555699
0.002211291458
-0.002679174855
0.9186080729
-0.001372925754
0.9158933651
0.9145573135
-0.002590439915
0.9189733542
-0.005298026479
0.9180506127
-0.007963788215
0.9160787196
-0.004997391184
0.9128054228
-0.005792515358
-0.4529858416
0.4535747058
-0.005586255459
-0.4494008442
0.006280641507
0.4502042612
-0.007084058484
-0.4423322466
0.00790697507
0.4424969051
-0.003826444111
-0.004287471175
-0.1984674537
0.002863202602
0.1974219788
-0.001993543325
-0.1827075266
-0.001147926013
0.1814125799
0.002166478593
-0.1866242892
-0.00424445523
0.1862596675
0.004408690623
-0.201173342
-0.002703445535
0.2023602176
0.001510423096
-0.09677341357
0.001231036728
0.09719729481
-0.0008072336906
-0.0008476842633
0.003605953834
-0.1553265247
0.1542503653
-0.002529794488
-0.002496893481
-0.2853036369
0.2845921655
0.003243344564
-0.2943977897
-0.003327785964
0.2951322644
0.002816810029
-0.2871068596
-0.000512192501
0.2882122387
-0.0003216127903
0.002245190374
-0.2611758674
0.2616683945
-0.002591157509
-0.4732443421
0.00532187706
0.4725938758
-0.004671410725
-0.4665102294
0.004384312437
0.4666924852
-0.004566568198
-0.006611414172
0.9208632666
0.004783783221
0.004175193498
-0.004342639592
0.9163392983
-0.002189253443
0.913739979
0.9123680601
-0.003274339033
0.9222476932
-0.006563147567
0.9213394213
-0.0100488126
0.9195643847
-0.006545833683
0.9166019852
-0.007299541319
-0.454467872
0.4553636316
-0.007441593299
-0.4511639093
0.008532576453
0.4522606839
-0.009629351135
-0.4429630862
0.01089669551
0.4435399802
-0.005624340156
-0.005910968784
-0.1943910781
0.00449712695
0.1933956389
-0.003686006994
-0.1777944283
0.0008697774662
0.1766604078
-1.367798037e-05
-0.1855802337
-0.00140337469
0.1854746104
0.001315078939
-0.2059569436
0.001102105389
0.2071524579
-0.002299890648
-0.09971040975
0.002833383677
0.1000085658
-0.001550469865
-0.00158106983
0.01348577767
-0.1450542604
0.1436256842
-0.0120572015
0.01171571483
-0.2817215693
0.2809193592
-0.01085429651
-0.2970519428
0.01120801529
0.2949729803
-0.008901969228
-0.2902224887
0.008356895216
0.290246443
-0.008115605838
0.007040434285
-0.2606263037
0.2601954213
-0.006481305773
-0.471618185
0.009232608374
0.4703594144
-0.007973837782
-0.4667499181
0.006838893612
0.4657099697
-0.005798945212
-0.009115154792
0.917404019
0.006495275222
0.006079127203
-0.005941018715
0.9131651623
-0.002927070508
0.9107260308
0.9094409896
-0.00388183933
0.9261295326
-0.007821275574
0.9252788575
-0.01196383721
0.9237069463
-0.007909373875
0.9209041314
-0.008356609456
-0.4565034926
0.4576309554
-0.009036836683
-0.4536190144
0.01036040191
0.4550691745
-0.011810562
-0.4438467819
0.0134129931
0.444984075
-0.006713242393
-0.007922357695
-0.1903731755
0.005400183307
0.189314414
-0.004534692798
-0.1734260289
0.001769402339
0.1723978602
-0.001020074938
-0.1855029505
0.0001404977194
0.1856531261
-0.0004768495843
-0.2107541902
0.003750630064
0.2119746191
-0.004971255542
-0.101970636
0.004225716926
0.1022585204
-0.002236184039
-0.002277417246
0.01675954999
-0.1340305631
0.1326645188
-0.01539350573
0.02005394176
-0.2783314123
0.27804358
-0.01966904839
-0.2947124148
0.01549877432
0.2982380099
-0.01878356439
-0.2893173269
0.01920247935
0.288715209
-0.01834910672
0.01127800781
-0.2561298247
0.2543459722
-0.00939595788
-0.4688652334
0.0124756873
0.4671414776
-0.01075193149
-0.4646131545
0.009228077577
0.4632855399
-0.00790046299
-0.01134636059
0.9146314668
0.007292757878
0.006826154925
-0.007332134665
0.9091509364
-0.003570406337
0.9069643024
0.9058705833
-0.008099921132
0.9342294537
-0.01641303153
0.933591968
-0.02490071433
0.9321946291
-0.009241142496
0.9299644372
-0.02471987766
-0.4590312253
0.4604085361
-0.0106184533
-0.4565875489
0.01215802437
0.4583169797
-0.01388745508
-0.4432242621
0.01566332824
0.4406440971
-0.006263310179
-0.006957756273
-0.186628502
0.003155314844
0.1846288598
-0.001358089297
-0.1694196597
0.0007422458097
0.1690962052
-0.0006961826896
-0.1865322093
0.002214690226
0.1852679331
-0.001130723491
-0.2157173132
0.00529072464
0.2170085692
-0.003285090735
-0.003296889957
-0.05238668367
0.002753853064
0.05248100722
-0.002848176614
-0.05831821496
0.006263039539
0.05782489919
-0.0121662619
0.006396538128
0.01494055317
-0.1246258004
0.2455498622
-0.02577980389
0.0144934667
-0.1245782777
-0.2770700691
0.02538335864
0.279244344
-0.02741853464
-0.2978182426
0.02512540964
0.2969082604
-0.02395658217
-0.2856368805
0.01965175214
0.2841003589
-0.01788579213
0.01186342807
-0.2462431988
0.2441063195
-0.009673927869
-0.4651020521
0.01466598545
0.4630657335
-0.01262966688
-0.46191032
0.01104656347
0.4604333926
-0.009569635959
-0.01311613122
0.9106656683
0.008768658655
0.008313271107
-0.008468417945
0.9045032231
-0.004171711133
0.9026675957
0.9016988721
-0.004620316154
0.9388497699
-0.00937782912
0.9383494809
-0.01441763841
0.9372344384
-0.009843158647
0.9354610899
-0.01007113247
-0.4638430191
0.4653067328
-0.01130687237
-0.4618292326
0.01294252261
0.4635960315
-0.01470932149
-0.4398483752
0.01664116989
0.4443989182
-0.01015651478
-0.01119673734
-0.1805926707
0.01123433658
0.1805685187
-0.01142398039
-0.165847631
0.01077284557
0.1650475218
-0.01025153252
-0.1890621445
0.008244013155
0.1881579444
-0.007506790726
-0.2213372591
0.005771214407
0.2226093497
-0.003523200843
-0.003520104135
-0.05473746124
0.005825458401
0.1098915223
-0.05471097427
-0.003128607613
-0.003139937533
-0.1122396633
0.008185259364
0.1120889863
-0.01597506185
0.00794047945
0.02484907105
-0.238788247
0.2386097368
-0.0246645922
-0.2802028093
0.0256759715
0.2809106053
-0.02620563536
-0.2936648494
0.02542539579
0.2990134156
-0.03051726994
-0.278729549
0.02681935865
0.2727152122
-0.02061939237
0.01136143529
-0.2346220588
0.2327240408
-0.009455599609
-0.4612774692
0.01555254075
0.4596695825
-0.01394465397
-0.4589401031
0.01236816506
0.4572049834
-0.01063304534
-0.01262720499
0.9058554631
0.008655420847
0.008781989388
-0.00919703796
0.9010730561
-0.004507396821
0.8979779545
0.8971914753
-0.004818056209
0.9436678261
-0.009767831033
0.9432992558
-0.01498414363
0.9424507511
-0.01024017236
0.9410972124
-0.01038009376
-0.4668628582
0.4684058646
-0.01178317875
-0.4653732547
0.01345252918
0.4671465559
-0.01522583037
-0.4522429581
0.01713352462
0.4612329725
-0.01313819831
-0.01304694576
-0.1843536077
0.01975786958
0.1870567231
-0.0226421739
-0.1643216467
0.02862917991
0.16494554
-0.02951946473
-0.1827399955
0.02818477177
0.1806593709
-0.02630040151
-0.2195308257
0.01614145122
0.2147242815
-0.01137685536
-0.1130460378
0.009699471004
0.226120496
-0.009783795341
-0.1129901339
-0.2264332079
0.01628685826
0.2269929405
-0.01684659091
-0.2473739632
0.02651990656
0.2518294551
-0.03090741176
-0.2862923042
0.03800398688
0.2869878407
-0.03848738194
-0.2960184767
0.03538330034
0.2940212595
-0.03312967265
-0.2628826267
0.0240077942
0.2631874921
-0.02417731686
0.0116315574
-0.2310276228
0.2287028482
-0.009306782792
-0.4582359229
0.01731223902
0.4551279249
-0.01420424101
-0.4554427912
0.0127323065
0.453426681
-0.01071619628
-0.01305613335
0.901120089
0.008976337141
0.008815170322
-0.009279293375
0.8972962162
-0.004725851784
0.893424513
0.8924656236
-0.004887936031
0.9485557621
-0.009892321997
0.9483036418
-0.0151276315
0.9476860606
-0.01035192377
0.9466995948
-0.01037809015
-0.4699420684
0.4714798322
-0.01188968757
-0.4688926064
0.01352457414
0.4706034552
-0.01523542292
-0.4675560588
0.01704351152
0.469594981
-0.009629222949
-0.009453411572
-0.1999119301
0.02134872808
0.2057826807
-0.02732952769
-0.1708930353
0.04278336858
0.1745405592
-0.04665098192
-0.1767616093
0.05311455771
0.1768859435
-0.05344743685
-0.2029023299
0.04963417554
0.2004335762
-0.04728180789
-0.2185300976
0.03999278672
0.2142740887
-0.03576807129
-0.2371763073
0.04303930638
0.2400384681
-0.04587307116
-0.2631538066
0.05477568657
0.2654845666
-0.05698770192
-0.2868829708
0.05821355416
0.2855160671
-0.05663988949
-0.284319493
0.04645263986
0.2796536976
-0.04158466328
-0.2491235375
0.02453472992
0.2431990105
-0.01853785464
0.01115636332
-0.2267827091
0.2261820138
-0.01055566799
-0.4543935547
0.01772721639
0.4517048019
-0.01503846356
-0.4505827704
0.01164545671
0.4490006299
-0.01006331622
-0.01229113198
0.8949033952
0.009525180913
0.008982644851
-0.006902479458
0.8919075637
-0.00479185916
0.8913138927
0.8876737644
-0.004845848514
0.9534016106
-0.009788897802
0.953246691
-0.01492012787
0.9528172907
-0.01022025058
0.9521311842
-0.01013146662
-0.4729675994
0.4744412866
-0.01169393782
-0.4722600661
0.01324223768
0.4738582385
-0.01484041005
-0.471431223
0.01650336006
0.4731687972
-0.009175920299
-0.009065013954
-0.227496772
0.01021772773
0.2342213066
-0.01695702385
-0.1910153463
0.04135402699
0.1982449425
-0.04871646862
-0.1830939537
0.06653697097
0.1872031936
-0.07081293085
-0.1987523957
0.07893322249
0.1999761714
-0.08028015019
-0.2043952179
0.07544545508
0.2042131873
-0.0753085559
-0.2442029393
0.08215446399
0.2442734638
-0.08218566106
-0.2663229655
0.08016359312
0.2645805895
-0.07830173171
-0.2760088444
0.06789989649
0.2710128563
-0.06274443455
-0.2612307289
0.04305278271
0.2537792193
-0.03548913965
-0.2256456463
0.01288648809
0.2247372002
-0.01197737956
0.0104146497
-0.2245508822
0.2240477657
-0.009911533244
-0.4480177178
0.01686926053
0.4462793761
-0.01513091889
-0.4474258995
0.01347314451
0.4458227681
-0.01187001313
-0.01151194723
0.8877888143
0.01021095875
0.008415569423
-0.006530031884
0.8869256483
-0.00443723518
0.889221096
0.8832365292
-0.004714501616
0.9581161123
-0.009504865091
0.9580370545
-0.01443535576
0.9577477813
-0.009882799005
0.9572866927
-0.009708065254
-0.4758494725
0.4772283304
-0.01126165691
-0.4753847848
0.01269296758
0.4768413208
-0.01414950356
-0.4748020227
0.01564090643
0.4763308305
-0.00865566432
-0.008514049844
-0.2368654322
0.009447143943
0.237266063
-0.009847774799
-0.2236970513
0.01535362883
0.2328610686
-0.02454147225
-0.2049264927
0.05003313137
0.2122057589
-0.05739435565
-0.2062114636
0.07425777062
0.2086369595
-0.07676024424
-0.2129008487
0.08167472119
0.2167186823
-0.08552159155
-0.2414058717
0.08589430036
0.2396517635
-0.08410754135
-0.2541790073
0.07416310618
0.24938801
-0.06929415792
-0.2515829799
0.05028024909
0.2440815201
-0.0427046718
-0.2289962516
0.01776503817
0.2237616482
-0.01252228461
-0.2233066666
0.01122839103
0.2228865956
-0.01080832005
0.009556228103
-0.2226957536
0.2222809493
-0.009141423751
-0.4446524301
0.01573582079
0.4431360022
-0.01421939289
-0.4443297375
0.01274380824
0.4428790762
-0.01129314696
-0.01436885564
0.8825964005
0.009674253826
0.009887015592
-0.009438239415
0.8819950321
-0.001863914029
0.8816467706
0.8813726152
-0.00451547162
0.9626315839
-0.009085159431
0.9626067424
-0.01374768036
0.9624103023
-0.009396075956
0.9621008495
-0.009165761213
-0.4785349726
0.4798046562
-0.01066575955
-0.4782198267
0.01196753233
0.4795257786
-0.01327348419
-0.4777578832
0.01458924364
0.4790832877
-0.008029576407
-0.007885071655
-0.2383631145
0.00870889441
0.238697237
-0.009043016816
-0.2373225803
0.01002935732
0.2376441367
-0.01035091367
-0.2353139299
0.01129789659
0.2363565623
-0.01234161154
-0.2179301401
0.02747698219
0.2219206138
-0.03148343728
-0.2254613884
0.04261988761
0.2274970229
-0.04466323032
-0.2331273107
0.04323621776
0.2308275838
-0.0409251862
-0.2331451153
0.0289196835
0.2276774734
-0.023438046
-0.2240592188
0.012312
0.2238193267
-0.01207210789
-0.2227117615
0.0112529562
0.2224119291
-0.01095312382
-0.2217696387
0.009999574188
0.2214395052
-0.009669440717
0.008662358048
-0.2211691793
0.2208270314
-0.008320210225
-0.441725343
0.01446050174
0.4404168656
-0.01315202437
-0.4415410004
0.01185614587
0.4402477036
-0.01056284901
-0.01354370027
0.877821237
0.009027084064
0.009291779771
-0.008935614755
0.8773869466
-0.004435791698
0.8771469476
0.8769368235
-0.004269646487
0.9669012304
-0.00857379945
0.9669108953
-0.01292864103
0.9667651439
-0.008813415451
0.9665409567
-0.008555332788
-0.4809991156
0.4821571826
-0.009971482526
-0.4807546705
0.01114314954
0.4819142996
-0.01230277858
-0.4803127814
0.01345391883
0.4814521606
-0.007359258564
-0.007234039417
-0.2396116704
0.007946931385
0.2398905521
-0.008225813039
-0.2385102223
0.009033180466
0.2387693579
-0.00929231603
-0.2371107586
0.01003316516
0.2373209415
-0.0102433481
-0.2243192297
0.01028751864
0.2242150462
-0.01018333521
-0.2300693941
0.01133661318
0.2301944097
-0.0114616288
-0.228002034
0.01147684357
0.2279736566
-0.01144846611
-0.2253430319
0.01122508113
0.2252280132
-0.0111100625
-0.2231937204
0.01065950453
0.2230117517
-0.0104775358
-0.2216221615
0.00985114943
0.2213903356
-0.009619323468
-0.2205555296
0.008870892779
0.2202921281
-0.008607491275
0.007789049226
-0.2199103275
0.2196254059
-0.007504127606
-0.4392038211
0.01315303691
0.4380799241
-0.01202913987
-0.4390615253
0.01089865218
0.4379175451
-0.009754672018
-0.01260016154
0.8734788369
0.00832776965
0.008614791969
-0.00834757363
0.8731343587
-0.004153769353
0.8729531433
0.8727830542
-0.003996148987
0.9708973794
-0.0080100826
0.970924829
-0.0120403
0.9707953613
-0.008184471778
0.970601404
-0.007916275556
-0.4832378185
0.4842868157
-0.009233469026
-0.4830021299
0.01028145462
0.4840268619
-0.01130618659
-0.4825074191
0.01231031517
0.4834839706
-0.006695229201
-0.006591637467
-0.2406547956
0.007204953013
0.2408885766
-0.007438734018
-0.2394704626
0.008105386474
0.2396815122
-0.008316436067
-0.2378585821
0.008901798602
0.2380115657
-0.009054782169
-0.2239905459
0.009001003937
0.2239408659
-0.008951323873
-0.2304504429
0.009899741236
0.2305077126
-0.00995701088
-0.2278871031
0.009941016461
0.227857513
-0.009911426369
-0.2249208902
0.009723798421
0.2248289882
-0.009631896441
-0.2225295339
0.009277323997
0.2223869027
-0.009134692834
-0.2207721333
0.008641841245
0.2205884241
-0.008458132088
-0.2195812638
0.007858674907
0.2193677179
-0.007645129071
0.006972000679
-0.2188650154
0.218625807
-0.006732792224
-0.4370377656
0.01188589016
0.4360712139
-0.01091933849
-0.436871978
0.009934754193
0.4358634083
-0.008926184481
-0.0116078113
0.8695601353
0.007618695997
0.007907816866
-0.007718061216
0.8692446086
-0.003848570074
0.8690836522
0.8689344841
-0.003710024229
0.9746074037
-0.007424291986
0.9746390967
-0.01112840005
0.9744994693
-0.007542290687
0.9742931578
-0.007277863132
-0.4852584721
0.486203791
-0.008487609615
-0.484986828
0.009421742734
0.485890658
-0.01032557274
-0.4843895749
0.01120233092
0.4852310402
-0.006069186341
-0.005974609871
-0.2415305973
0.006505370424
0.2417274686
-0.006702241647
-0.2402564195
0.007258118511
0.2404307155
-0.007432414496
-0.2384068743
0.007903820458
0.238520187
-0.008017133196
-0.2238604892
0.007908934005
0.2238555247
-0.007903969473
-0.2306233322
0.008685079816
0.2306477854
-0.008709533062
-0.2277672185
0.008670743448
0.2277367472
-0.00864027216
-0.2245782979
0.00847654566
0.2245019141
-0.0084001619
-0.222003125
0.008111351929
0.2218879474
-0.007996174306
-0.2200930027
0.007598318891
0.2199441889
-0.007449505003
-0.2187869865
0.006960454251
0.2186112635
-0.006784731213
0.00622507104
-0.2179899887
0.2177886219
-0.006023704172
-0.4351732898
0.01069509767
0.4343383828
-0.009860190686
-0.434943613
0.009001788379
0.4340553609
-0.008113536324
-0.0106152213
0.8660398939
0.006928714804
0.00720674787
-0.007080053546
0.8657094409
-0.003536935902
0.8655405346
0.8653975482
-0.003424096435
0.9780315001
-0.006841911529
0.9780569118
-0.01023021873
0.9778877765
-0.006914121883
0.9776378332
-0.006660772248
-0.4870747467
0.4879244932
-0.007763868327
-0.4867373174
0.008595776651
0.4875347506
-0.009393209827
-0.4860134251
0.01015945892
0.4867416106
-0.005487641642
-0.005400002714
-0.2422701703
0.005862185187
0.2424373673
-0.006029382227
-0.2409094494
0.006498649016
0.2410558328
-0.006645032469
-0.2388138749
0.007030961613
0.2388978455
-0.007114932189
-0.2239019092
0.006983397097
0.2239365606
-0.007018048414
-0.230692294
0.007655249494
0.2306997652
-0.007662720608
-0.2276447604
0.007609140049
0.2276140101
-0.007578389793
-0.2242904199
0.00743220964
0.2242251104
-0.007366900109
-0.2215738982
0.007125013966
0.2214784615
-0.007029577228
-0.2195387596
0.006700990585
0.2194157845
-0.006578015477
-0.2181298907
0.006172152094
0.2179831915
-0.006025452868
0.005554636471
-0.2172527249
0.2170817532
-0.005383664783
-0.4335610776
0.009601465067
0.4328371605
-0.00887754797
-0.4332457735
0.008127076602
0.4324625937
-0.007343896769
-0.009658884236
0.862885081
0.006276445467
0.006537251685
-0.006459159674
0.8625097163
-0.003231974538
0.8623133494
0.8621655737
-0.003146977969
0.9811784781
-0.006279836949
0.9811897708
-0.009369803905
0.9809777435
-0.006315645784
0.9806625115
-0.006078836413
-0.4887042382
0.4894673704
-0.007078778052
-0.4882821885
0.007819955283
0.4889869624
-0.008524729208
-0.4874202988
0.0091963122
0.4880536534
-0.004955845136
-0.004873821647
-0.2429005073
0.005279875074
0.2430440354
-0.005423403147
-0.2414610422
0.005825252801
0.2415858572
-0.005950067755
-0.2391132095
0.006268821351
0.2391737243
-0.006329336158
-0.2240911858
0.006198959279
0.2241578358
-0.006265609342
-0.2307068653
0.006779072003
0.230705259
-0.006777465719
-0.2275217034
0.006714047995
0.2274909527
-0.006683297261
-0.2240422284
0.006550439734
0.2239851426
-0.006493353914
-0.2212153986
0.006286167448
0.2211346079
-0.006205376671
-0.2190778265
0.005928671747
0.2189744265
-0.005825271738
-0.2175786776
0.005483274408
0.2174545725
-0.005359169333
0.004958558838
-0.2166253273
0.2164787743
-0.004812005793
-0.4321617237
0.008611109811
0.4315311222
-0.0079805083
-0.4317487933
0.007322080399
0.431056873
-0.006630160115
-0.008760276148
0.8600600903
0.005672935039
0.005912331794
-0.00587115253
0.8596205927
-0.002941880665
0.8593840776
0.859223693
-0.002885015121
0.9840634932
-0.005750350917
0.9840551066
-0.008564191497
0.9837915841
-0.005757560458
0.9833970753
-0.005541194878
-0.4901656666
0.4908513307
-0.006443224588
-0.4896483772
0.007104653196
0.4902730576
-0.007729333603
-0.4886456753
0.00832050002
0.4891998874
-0.004474152282
-0.004400559854
-0.2434437105
0.00475669069
0.2435683106
-0.004881290789
-0.2419330935
0.005229711956
0.2420405133
-0.005337131717
-0.2393250315
0.005600125496
0.2393662604
-0.005641354421
-0.2243944838
0.005529841251
0.2244835589
-0.005618916364
-0.2306918786
0.006028689432
0.2306851071
-0.006021917903
-0.2273989132
0.005952246068
0.2273683341
-0.005921666969
-0.2238238698
0.005799212437
0.2237730907
-0.005748433276
-0.2209099654
0.005567734783
0.2208403699
-0.005498139355
-0.2186882073
0.005261341638
0.2185999864
-0.005173120782
-0.2171104358
0.004881157454
0.2170042278
-0.004774949506
0.004430617677
-0.2160863564
0.2159596589
-0.00430392022
-0.4309411704
0.007725050844
0.4303888484
-0.0071727288
-0.4304258693
0.006592632448
0.4298128067
-0.005979569871
-0.007933056713
0.8575288399
0.005124503838
0.005339803271
-0.005326469787
0.8570140058
-0.00267219085
0.8567297987
0.8565515022
-0.002641775599
0.9867052688
-0.005260128227
0.9866734593
-0.007821988083
0.9863534439
-0.005245869133
0.9858714179
-0.005050461515
-0.4914776702
0.492094753