/*--------------------------------*- C++ -*----------------------------------*\
| =========                 |                                                 |
| \\      /  F ield         | OpenFOAM: The Open Source CFD Toolbox           |
|  \\    /   O peration     | Version:  v1912                                 |
|   \\  /    A nd           | Website:  www.openfoam.com                      |
|    \\/     M anipulation  |                                                 |
\*---------------------------------------------------------------------------*/
FoamFile
{
    version     2.0;
    format      ascii;
    class       surfaceVectorField;
    location    "1.96";
    object      Uf;
}
// * * * * * * * * * * * * * * * * * * * * * * * * * * * * * * * * * * * * * //

dimensions      [0 1 -1 0 0 0 0];


internalField   nonuniform List<vector> 
25162
(
(99.99801128 0.008493287181 -2.309637689e-21)
(99.99204585 0.007705568389 6.846385226e-21)
(99.997036 0.02021720285 -2.276080793e-21)
(99.98902524 0.02593943567 2.324324995e-21)
(99.99512544 0.03924066274 -4.53610095e-21)
(99.98219572 0.05435464394 1.372459349e-20)
(99.99782303 0.04430636682 1.398397742e-21)
(99.97014095 0.09946483674 -8.983061232e-21)
(99.98734153 0.09800003757 -1.506583442e-21)
(99.99679115 0.08011490989 2.178899386e-21)
(99.99889924 0.04772989327 1.072029917e-21)
(99.98529837 0.1321904303 2.161490928e-21)
(99.99665286 0.07472937079 1.052896057e-21)
(99.99752198 0.05900652171 -1.093641264e-21)
(99.99589247 0.09428928624 1.052853054e-21)
(99.97764103 0.21170572 2.091911486e-21)
(99.99555741 0.1181981457 0)
(99.99536428 0.1442061333 -3.77990204e-21)
(99.97149721 0.3179984756 -3.779882367e-21)
(99.99479766 0.1746915468 -9.785205918e-22)
(99.99420049 0.2091297841 3.292187428e-21)
(99.96450232 0.4557450531 3.559815781e-21)
(99.99370403 0.2471319074 4.381350829e-22)
(99.99340098 0.2877316764 -2.81759615e-21)
(99.96096737 0.6176484204 4.039629611e-22)
(99.99339273 0.3294919838 -2.798281362e-21)
(99.99371329 0.3703431932 4.174403236e-22)
(99.96457483 0.7806424474 -1.840444635e-21)
(99.99400122 0.4082314501 2.556672482e-21)
(99.99446921 0.4405766431 2.100807899e-21)
(99.97772863 0.9064979543 -9.120555708e-22)
(99.99608514 0.4644586884 0)
(99.99861314 0.4774841849 0)
(99.9985442 0.9583035491 1.605262512e-22)
(100.0012223 0.4790434562 0)
(100.003613 0.4688027609 5.909610713e-22)
(100.0192139 0.9181904941 -1.291140616e-23)
(100.0052908 0.4482518184 1.139664448e-21)
(100.005998 0.4190522219 -3.575887083e-22)
(100.0326762 0.8045554562 -7.06363553e-22)
(100.0061988 0.3840720402 -1.259777135e-21)
(100.0063563 0.3463273726 8.406253805e-23)
(100.0365033 0.6537529571 1.848988186e-21)
(100.0063891 0.3072900707 4.842439168e-22)
(100.0061428 0.2688296848 0)
(100.0340631 0.5004226705 0)
(100.0057226 0.2324021172 0)
(100.0053334 0.1987913861 7.640139969e-22)
(100.0280153 0.3668946711 1.592446665e-21)
(100.0053128 0.1688391843 -3.869442922e-21)
(100.0050675 0.1404509524 -1.438993103e-21)
(100.0226567 0.2551251155 3.131517307e-21)
(100.004297 0.1162347131 3.131283629e-21)
(100.0031994 0.09609645675 -8.690504243e-22)
(100.0134297 0.1728820658 -4.622464242e-23)
(100.0009579 0.08174877592 1.697983461e-21)
(100.0080603 0.07795841828 -7.521990369e-21)
(100.0463456 0.1913452755 3.881993486e-22)
(100.0169098 0.1741540435 -2.669160514e-21)
(100.0028142 0.0807052108 -1.54196911e-21)
(100.0055897 0.04484492376 -9.409605218e-22)
(100.0309669 0.1165389028 1.49252204e-20)
(100.0045759 0.02093840214 -7.554107787e-21)
(100.0224611 0.06172252517 -1.591376018e-20)
(100.0197319 0.01936578527 1.33222567e-21)
(99.98140374 0.02381462589 1.142551722e-20)
(99.96966237 0.01286460576 3.467557464e-22)
(99.97167312 0.05717273083 1.82177722e-20)
(99.95775291 0.044056241 -1.599537649e-20)
(99.9534717 0.1108946197 9.513532006e-21)
(99.93191712 0.09408307443 -2.47305152e-20)
(99.94476776 0.1752197053 -1.618042776e-21)
(99.88825138 0.1748799763 4.763624914e-20)
(99.90603912 0.2217252336 -1.048041764e-20)
(99.91828363 0.2248759294 -2.251889595e-21)
(99.9377705 0.2215294956 4.418404544e-21)
(99.96162252 0.1573719466 2.195514186e-21)
(99.94031275 0.2594363098 2.133404063e-21)
(99.92044347 0.2850210459 2.178358449e-21)
(99.86649014 0.3766324888 -4.40943871e-21)
(99.90130273 0.3639344879 -2.692788346e-23)
(99.90975081 0.4141510359 2.092239786e-21)
(99.87923853 0.4603866589 -2.344342195e-23)
(99.80244393 0.6020184353 0)
(99.86824888 0.5355465754 0)
(99.83299307 0.6146837046 -2.602560707e-21)
(99.87933751 0.6109588128 -5.102609216e-21)
(99.86275092 0.6460759735 -7.636159239e-23)
(99.82446011 0.74683033 -1.147640229e-20)
(99.85286877 0.7046601223 -3.944930548e-21)
(99.82220158 0.9382918181 3.118224015e-23)
(99.84801135 0.882116405 -2.568667353e-21)
(99.7752145 1.084818269 -1.3992642e-20)
(99.8152761 1.016012661 -3.414207437e-21)
(99.79690225 1.296977406 -6.245217738e-21)
(99.83194174 1.207510244 -5.912357693e-21)
(99.74710246 1.494280327 7.405211532e-22)
(99.79665045 1.387528437 -7.481411065e-21)
(99.80645344 1.675304461 -1.352093833e-23)
(99.84839142 1.541627167 -4.756212077e-21)
(99.76482244 1.91782705 -2.457927862e-21)
(99.81778547 1.764449182 -3.55721236e-21)
(99.86401574 1.989349405 -2.487552744e-21)
(99.90649973 1.807894795 -4.209362598e-21)
(99.83996807 2.262895412 5.231772916e-21)
(99.88724117 2.060188319 -1.899145868e-21)
(99.96601473 2.154260715 4.17115493e-22)
(99.99678012 1.927976562 -1.881735407e-21)
(99.96880198 2.424132081 -1.505774658e-21)
(99.99426169 2.18393626 -6.516351834e-22)
(100.0748337 2.114878719 1.730342776e-22)
(100.072521 1.859346224 -1.810266522e-22)
(100.0983607 2.343535681 9.880292848e-22)
(100.0982366 2.086892722 -8.693806593e-22)
(100.1562084 1.891322946 -2.874105148e-22)
(100.1206296 1.636209277 -2.440431127e-22)
(100.1881878 2.063119276 -8.560156433e-23)
(100.1672126 1.818765819 2.272387661e-21)
(100.1898352 1.562712432 2.500166599e-21)
(100.1357032 1.333856951 4.350974473e-21)
(100.2226403 1.681913633 4.345934166e-21)
(100.190299 1.469528253 5.354953797e-22)
(100.1843465 1.207962272 -6.843988001e-21)
(100.1267727 1.021138084 -6.376306258e-21)
(100.2112924 1.285445584 -2.31003275e-21)
(100.1773472 1.117429593 -2.258018795e-21)
(100.1546339 0.8923395505 -5.35127815e-21)
(100.1012969 0.7496172084 4.859358934e-22)
(100.1715429 0.9391536865 -1.42448907e-21)
(100.1444772 0.8171384837 5.791110786e-21)
(100.0911739 0.5037058405 -1.321868502e-20)
(100.1467919 0.6890306122 -1.321765796e-20)
(100.2036581 0.7391152947 1.337226099e-20)
(100.1248816 0.568633985 -2.697750023e-20)
(100.1043714 0.4665311555 1.160731116e-20)
(100.1438209 0.4939420637 -1.634530841e-20)
(100.0843043 0.380689996 2.363513768e-20)
(100.0635396 0.3384451699 2.624827851e-20)
(100.0760779 0.2252647058 2.221650794e-20)
(100.1740076 0.3536954073 -1.704011754e-22)
(100.1350958 0.4032472 4.694843876e-20)
(100.079587 0.3191274279 2.526939666e-21)
(100.0536772 0.1301438127 -7.009234729e-22)
(100.1202118 0.2139570591 3.184714768e-20)
(100.0424294 0.05939298055 -7.420631832e-21)
(100.0891588 0.1134382843 -1.68812236e-20)
(100.0757536 0.03548678504 7.55177294e-21)
(99.94960642 0.03159787542 -2.744329691e-20)
(99.93982762 0.01303795788 -1.371633982e-20)
(99.92265675 0.0777271969 -5.937262357e-20)
(99.9142951 0.04666082536 1.256129118e-20)
(99.87351036 0.1543346567 1.205811917e-20)
(99.85999076 0.1058371899 -5.025584879e-20)
(99.82308362 0.2660128469 3.031895563e-20)
(99.77141929 0.2048151413 5.460588814e-20)
(99.76247889 0.2924985081 -4.813496246e-20)
(99.84953121 0.2819115563 -9.01852909e-21)
(99.76770129 0.3221579347 -6.680125589e-20)
(99.78906173 0.353535906 -4.514336447e-21)
(99.76577749 0.4781492777 -8.783602514e-21)
(99.73698275 0.4632722106 -4.376305788e-21)
(99.64028054 0.5585952195 3.072772112e-20)
(99.67692304 0.5976633298 8.609650108e-21)
(99.65509491 0.7725492351 -7.590595994e-21)
(99.60832918 0.7614704824 5.622618118e-21)
(99.46968522 0.917023071 -4.326517528e-20)
(99.56993682 0.9249469241 3.030563935e-21)
(99.49928038 0.994529365 -1.882819628e-20)
(99.55638313 1.141474525 -7.720918721e-21)
(99.51968889 1.142325458 0)
(99.43863606 1.260380677 8.014501972e-21)
(99.48366765 1.268166051 -7.681108553e-21)
(99.42994842 1.690791416 3.728267297e-21)
(99.37604399 1.707807291 1.46016548e-20)
(99.27597255 1.880916751 7.229216738e-21)
(99.34405785 1.872388591 1.8125494e-20)
(99.35262992 2.366546285 4.12212329e-22)
(99.27785788 2.414895024 -1.352063529e-20)
(99.1767004 2.646817577 4.094009747e-22)
(99.27090419 2.603176111 1.269173136e-20)
(99.39213 3.082663081 2.091025878e-20)
(99.30286615 3.183709026 0)
(99.22108538 3.475788577 -4.444511788e-20)
(99.33388071 3.369810263 1.912502654e-20)
(99.58601663 3.697893618 -1.414550855e-20)
(99.49872662 3.875365007 -1.283212096e-20)
(99.46843144 4.203578458 1.996629867e-20)
(99.57874836 4.007693324 -2.085137793e-20)
(99.9336473 4.00455562 -3.515484212e-21)
(99.87275383 4.264539414 1.227040062e-20)
(99.91940791 4.574548852 4.489078108e-20)
(99.98061678 4.287228676 2.796172064e-20)
(100.2907839 3.867477765 -1.580041703e-20)
(100.2917285 4.17835064 -8.988885472e-21)
(100.3870751 4.414209155 3.803934816e-23)
(100.3812751 4.080382066 -1.817789961e-21)
(100.5256415 3.358327421 4.401907439e-20)
(100.5800425 3.664638333 2.484934174e-20)
(100.6873784 3.809045141 -1.104986505e-20)
(100.6204893 3.492991508 1.095724035e-20)
(100.6014135 2.692411276 1.081262333e-21)
(100.680469 2.951285819 4.431138907e-21)
(100.7732013 3.0247952 -3.245317007e-20)
(100.683929 2.767464942 4.521278788e-21)
(100.5673839 2.033894397 -6.352700842e-21)
(100.6535482 2.240639685 -1.485178362e-20)
(100.7253909 2.272451222 -5.143012685e-21)
(100.6311162 2.071679714 5.655295527e-21)
(100.5465469 1.613457036 -1.768185458e-20)
(100.4694794 1.459764499 -1.190006343e-20)
(100.5980502 1.620824375 -1.191611115e-20)
(100.5182534 1.475784794 6.346763368e-21)
(100.3583398 0.9554055607 -5.228686809e-20)
(100.4816057 1.169566287 -2.74465258e-20)
(100.5552001 1.147126518 -7.9326482e-20)
(100.4127366 0.9598326203 -3.762111498e-20)
(100.2563918 0.6345519875 -5.953996506e-20)
(100.3494021 0.781797814 2.370333733e-20)
(100.3969299 0.7543568413 -2.826577163e-20)
(100.2914371 0.6321228376 -2.470761452e-20)
(100.2103396 0.3386738553 9.964039993e-21)
(100.3628359 0.46095067 -2.534134455e-20)
(100.3462937 0.5642709503 -1.364044314e-22)
(100.2583486 0.5156238613 -1.454091657e-20)
(100.1503882 0.1944000118 1.492992854e-20)
(100.2559264 0.2761153934 2.652290916e-20)
(100.1181121 0.08823075379 -1.896776553e-21)
(100.1893191 0.1452698456 -3.825852508e-21)
(100.1589618 0.04511365718 0)
(99.91124007 0.02694931271 2.755637888e-20)
(99.91443159 0.006248353795 -4.600172411e-21)
(99.8599319 0.07202429766 2.321809686e-20)
(99.87182665 0.02734300967 3.219140401e-20)
(99.76790845 0.1553093662 -9.219617242e-21)
(99.7815495 0.07881331031 -4.549281263e-21)
(99.65143917 0.3020426615 0)
(99.63499196 0.1731509642 7.039418583e-21)
(99.5795932 0.2990812764 2.140108935e-20)
(99.67106968 0.3449981076 -6.241783991e-20)
(99.56614284 0.3466797918 1.609018272e-20)
(99.57488953 0.4137051734 0)
(99.49356386 0.6129395639 2.611441468e-22)
(99.47226932 0.5541522102 -3.542104677e-20)
(99.32963131 0.6371175541 -3.539721804e-20)
(99.35119737 0.7293698591 7.177874091e-20)
(99.25002705 1.027191206 -1.065464797e-19)
(99.21034935 0.9453879639 3.980400315e-20)
(99.00393899 1.091151693 -7.130824375e-20)
(99.10079778 1.198937942 -3.549307446e-20)
(99.00142832 1.22325155 -5.83052022e-20)
(99.00324603 1.558114879 8.399629499e-21)
(98.96230651 1.511631731 1.667750851e-20)
(98.83243491 1.632861338 4.223779027e-20)
(98.87848889 1.694228906 8.330221573e-21)
(98.70049346 2.380844208 -4.607294159e-22)
(98.63022265 2.334329833 -2.470671355e-20)
(98.47401313 2.514855226 3.114141692e-21)
(98.55701473 2.577599598 1.271636749e-19)
(98.49953831 3.433368411 -1.410896447e-20)
(98.38754816 3.405716761 -1.208639322e-19)
(98.22057327 3.671194912 0)
(98.35524308 3.711998108 -2.336544716e-19)
(98.53097679 4.666263847 6.834775752e-22)
(98.37095204 4.69607539 5.843047441e-20)
(98.23023921 5.063428452 -8.848639026e-23)
(98.42447996 5.032844697 -3.771495835e-20)
(98.96676419 5.839424578 -1.822619675e-19)
(98.77523797 5.986770728 -1.371482631e-19)
(98.73280721 6.434060908 -1.394564004e-19)
(98.96118219 6.256657173 -7.326694523e-20)
(99.84533592 6.487325928 -5.839505971e-20)
(99.69228878 6.793495769 2.070807373e-20)
(99.8072765 7.21642977 -4.629756808e-20)
(99.96985346 6.854210298 -5.563431079e-20)
(100.7997574 6.234034485 2.909143974e-20)
(100.7693414 6.64773704 2.804130652e-20)
(100.9909751 6.919873078 3.350230894e-20)
(100.9938716 6.459885443 3.909138568e-20)
(101.3666378 5.246023407 -2.811925782e-20)
(101.4605234 5.653782359 4.79517501e-21)
(101.6743602 5.757967547 1.593695547e-20)
(101.5432935 5.335166573 -7.309252495e-20)
(101.4648467 4.022438714 0)
(101.6133557 4.349913791 -4.357266642e-21)
(101.7658888 4.352515727 0)
(101.5922664 4.031799125 0)
(101.3146142 2.924989586 -4.308233113e-20)
(101.4575912 3.159169512 -4.428106197e-20)
(101.555766 3.115823647 -8.754975457e-20)
(101.3992433 2.898831273 1.247403149e-19)
(101.2042957 2.215356928 0)
(101.0779507 2.048789352 4.765465384e-20)
(101.2672641 2.168263531 0)
(101.1327202 2.013910476 0)
(100.7911731 1.306303229 2.878201271e-20)
(100.9948332 1.531768817 1.869464719e-20)
(101.0615732 1.42503396 -1.628504676e-20)
(100.8476861 1.243346353 3.608657882e-20)
(100.565451 0.8490892839 -3.284439124e-20)
(100.7162983 1.000781737 -1.467145082e-20)
(100.7555261 0.9156335062 -1.481352201e-20)
(100.6011743 0.7981358432 -7.19957016e-21)
(100.3962379 0.3962095726 -9.219616899e-21)
(100.5975419 0.4903803664 -1.901899945e-20)
(100.6320895 0.6579791674 -2.512608195e-21)
(100.5203906 0.633679203 5.500195713e-21)
(100.2837263 0.2244926662 7.626323268e-21)
(100.4178013 0.289218924 1.158186449e-20)
(100.2210009 0.1007914137 -1.928734604e-21)
(100.3059781 0.1486856856 -3.403062924e-21)
(100.2540144 0.04557549123 -4.887365343e-22)
(99.88224281 0.006259667367 0)
(99.90855048 -0.008579352354 0)
(99.80254762 0.03229832375 4.657451457e-21)
(99.84734579 -0.01742473901 0)
(99.65939928 0.09911511989 1.184748329e-20)
(99.71866874 0.005622233087 -3.74547747e-21)
(99.46145448 0.2607262467 1.966204217e-20)
(99.50404499 0.07140342467 2.605714774e-20)
(99.39187133 0.2160660817 -7.857880363e-21)
(99.46064551 0.3253567207 2.770796597e-20)
(99.35184526 0.2792049406 2.230959135e-21)
(99.32964424 0.3768318157 -1.127007716e-20)
(99.15472327 0.6265575324 0)
(99.15961308 0.5269665829 -2.326889215e-20)
(98.97563247 0.5771416093 -1.913604971e-20)
(98.95757821 0.7182200423 4.749688821e-21)
(98.73343262 1.101383937 0)
(98.72183955 0.9608814549 4.749180304e-21)
(98.44921782 1.055168074 -4.914960648e-21)
(98.49918168 1.269022704 2.371269003e-20)
(98.38560975 1.259010581 6.143695753e-21)
(98.2610734 1.748959584 4.489905001e-19)
(98.2343826 1.649418808 1.759751254e-19)
(98.05780387 1.747053679 1.379790237e-19)
(98.08762937 1.865225146 3.783459651e-20)
(97.69620283 2.79230843 2.185388377e-19)
(97.63051431 2.665713502 1.478345009e-19)
(97.40830853 2.827603183 1.473172326e-19)
(97.48037082 2.986987584 2.902158226e-19)
(97.20713846 4.266098085 2.873432458e-19)
(97.07436233 4.130905143 4.392798596e-19)
(96.80775925 4.408823452 5.935982897e-19)
(96.965633 4.57683383 1.402242304e-19)
(97.0427124 6.215959077 -3.587921772e-19)
(96.80122005 6.116336865 -1.383211338e-19)
(96.52967503 6.568212391 -3.142107015e-20)
(96.83000021 6.688885879 -3.087537634e-19)
(97.70578781 8.405431897 4.695895731e-19)
(97.3311352 8.470165687 5.368931946e-19)
(97.20759013 9.132441616 1.212038802e-19)
(97.67337408 9.026998578 1.396719601e-19)
(99.59815889 9.825350373 -3.395052103e-20)
(99.23308178 10.22078422 -3.247624746e-19)
(99.47707094 10.88975865 5.046563466e-20)
(99.8722303 10.37163057 9.317384255e-20)
(101.8042107 9.323020385 2.240163393e-19)
(101.7148821 9.94904738 2.227682118e-19)
(102.1879397 10.27209853 1.2251204e-19)
(102.2060706 9.557775566 -5.491126293e-21)
(102.933052 7.400120128 -1.164801702e-19)
(103.115801 7.974826053 4.566660559e-21)
(103.4945627 7.972521246 -1.331040122e-19)
(103.2373183 7.391604255 -1.375301919e-19)
(102.9318268 5.27888594 1.914247664e-19)
(103.2063779 5.688737914 1.65876816e-19)
(103.4288235 5.560028531 2.142244535e-20)
(103.1090514 5.176050072 4.551722118e-20)
(102.4415571 3.609049312 1.119259505e-19)
(102.6878379 3.867271497 2.205961743e-19)
(102.7905316 3.733889688 -5.281383155e-20)
(102.5314538 3.500688357 5.457916639e-19)
(102.0918056 2.585819756 -7.922322589e-23)
(101.9081414 2.422816371 -3.755686115e-21)
(102.1460568 2.47207657 1.103420817e-20)
(101.9583453 2.332014124 2.230166844e-20)
(101.3610169 1.496828205 -9.240371009e-20)
(101.6501537 1.709547432 -5.847445567e-20)
(101.6838868 1.514042949 -3.273221039e-20)
(101.3973072 1.365408611 -1.679736553e-20)
(100.961793 0.9477872528 1.135026497e-20)
(101.1730395 1.081754458 3.428832639e-20)
(101.1808663 0.9415357123 -3.819173312e-21)
(100.9793017 0.8482933386 -3.748000674e-21)
(100.605965 0.3847355903 1.962971851e-21)
(100.8449813 0.4256263877 0)
(100.952524 0.6387582521 -7.813744311e-23)
(100.8318716 0.6561466929 -1.020265839e-20)
(100.4290201 0.2110720103 4.353406824e-22)
(100.581544 0.2426452703 1.962794882e-21)
(100.3296194 0.0925282559 -1.966614338e-21)
(100.4177794 0.1181566348 -1.968828929e-21)
(100.3412832 0.03526129504 -1.971837843e-21)
(99.88055389 -0.03198269233 0)
(99.93874533 -0.03152053698 2.280370017e-21)
(99.77221348 -0.04473639369 -9.327238247e-21)
(99.85947184 -0.08767683038 -2.298565759e-21)
(99.57616967 -0.01982795848 9.699071269e-21)
(99.69536833 -0.1151653695 -4.630144465e-21)
(99.28690804 0.1063917548 1.268570293e-20)
(99.41863864 -0.1035435309 3.931752158e-21)
(99.22855392 0.03618864198 -4.200135495e-23)
(99.25724675 0.205732717 -9.414753815e-21)
(99.15138445 0.1070359523 -9.533570905e-21)
(99.09256348 0.2189232962 0)
(98.79999873 0.4861350954 -1.913557731e-20)
(98.84844041 0.3544143818 0)
(98.63562496 0.3533238673 -1.315091846e-22)
(98.55567612 0.5300079745 -9.299459733e-23)
(98.16191672 0.9476853229 9.898703131e-21)
(98.2091748 0.7578209207 1.484872137e-20)
(97.88899919 0.7763188705 2.004864354e-20)
(97.86227164 1.085206565 -1.633509427e-20)
(97.75640692 1.013082311 3.552511285e-20)
(97.4386062 1.606616719 3.228951088e-21)
(97.44994289 1.461472983 1.628263987e-19)
(97.23480027 1.512258781 3.171154252e-19)
(97.21670925 1.684823227 6.425338099e-19)
(96.48311276 2.744610237 1.666863927e-19)
(96.45726088 2.541047502 0)
(96.16285973 2.651090409 -7.32703419e-19)
(96.18847497 2.903812106 6.944470569e-19)
(95.43284354 4.537914314 -9.557915556e-19)
(95.3366741 4.271620639 3.449656203e-19)
(94.9358794 4.467747631 -7.454314849e-19)
(95.0457515 4.826650568 6.684039064e-19)
(94.54275003 7.359545896 -4.532424903e-19)
(94.25640148 7.002120429 5.765197793e-19)
(93.71494486 7.470735884 0)
(94.07476293 7.919341886 0)
(94.91916312 11.51302145 9.073736434e-19)
(94.22770984 11.29018649 4.610297746e-20)
(93.76023035 12.33481734 5.902167203e-19)
(94.69608279 12.55692205 0)
(98.83134006 15.06972026 -1.915921337e-20)
(97.92959713 15.64988994 1.667981322e-19)
(98.47740215 16.97358468 -4.08969848e-19)
(99.48402953 16.05765017 -1.93912519e-19)
(103.979382 13.71647089 5.491136088e-19)
(103.839908 14.82512652 3.580042753e-19)
(104.9179906 15.10170977 8.11559611e-19)
(104.8247247 13.84801998 4.01543105e-19)
(105.805783 9.665271567 0)
(106.2178168 10.4858648 0)
(106.845047 10.18601965 0)
(106.2782243 9.411664821 -4.867562308e-19)
(105.2350332 6.229883827 -4.673790476e-19)
(105.7315667 6.675821555 4.982829976e-19)
(105.9639047 6.360669577 -2.707761098e-19)
(105.4172283 5.920689424 0)
(103.9897367 3.93185462 -5.209870929e-19)
(104.3788991 4.180935956 -3.866247987e-21)
(104.4361972 3.922051836 5.271288769e-19)
(104.0449596 3.718951763 -7.043848806e-19)
(103.1729542 2.622158187 3.217428204e-20)
(102.9110713 2.488179008 3.187661935e-20)
(103.1842089 2.442912004 3.201909079e-20)
(102.9302856 2.333568944 -3.381750427e-20)
(102.0176949 1.467788473 2.682395418e-20)
(102.3810597 1.621294857 -2.306270209e-22)
(102.3476781 1.352258028 1.62431933e-20)
(102.0031379 1.269419528 1.210979299e-20)
(101.3998466 0.8925422449 -1.587525606e-20)
(101.6662714 0.9827294347 -8.082693999e-21)
(101.6171745 0.7978883234 -8.084259907e-21)
(101.3773175 0.7515730939 1.228602719e-20)
(100.806919 0.2890719248 0)
(101.0704255 0.2610830964 1.296483278e-21)
(101.2594798 0.4892149957 -1.08544682e-20)
(101.1504392 0.5671588651 2.694532784e-20)
(100.5587845 0.1479039731 -4.948063016e-22)
(100.714611 0.1304155094 -1.534062332e-21)
(100.4203106 0.0609513672 -1.982290289e-21)
(100.4997575 0.05177363819 -2.239977413e-21)
(100.398762 0.01373376479 2.533357034e-21)
(99.92371416 -0.08636148644 -1.746886082e-23)
(100.0202273 -0.06157952081 9.258263046e-23)
(99.79011856 -0.1568408726 2.395003942e-21)
(99.92602904 -0.1799001382 -1.130455859e-22)
(99.54753889 -0.1967391389 -1.254438388e-20)
(99.73318346 -0.2769198817 1.912948543e-21)
(99.16536298 -0.1290779543 -1.135925059e-20)
(99.40516259 -0.3438760197 -1.902904476e-20)
(99.13787615 -0.2350732968 -1.625092785e-20)
(99.09041642 -0.0198309056 -8.863897033e-21)
(99.02058902 -0.1687686004 -3.551629426e-21)
(98.90911797 -0.05489556993 3.976660665e-23)
(98.49189841 0.1800539974 1.44653724e-20)
(98.59750533 0.03325512094 1.475308072e-20)
(98.3769432 -0.03100911521 7.289832144e-21)
(98.22364595 0.1551600761 2.515805221e-20)
(97.65173074 0.5407943847 2.147253898e-20)
(97.7818731 0.3166360569 2.647400123e-20)
(97.45751747 0.2440079306 -2.494002993e-20)
(97.3051188 0.5805194926 2.044620343e-19)
(97.22329834 0.4699636551 1.291898106e-20)
(96.66692828 1.085189193 -8.162161154e-20)
(96.7360137 0.9089935509 7.047757323e-19)
(96.50198921 0.8971389981 1.615969802e-19)
(96.4134705 1.099379331 6.943455923e-19)
(95.25092419 2.123081411 -3.855123462e-19)
(95.31068148 1.85387279 3.95987247e-19)
(94.976886 1.86712179 0)
(94.89203736 2.177774081 7.908180063e-19)
(93.38593477 3.857344669 1.85784536e-18)
(93.41704616 3.439505517 8.51503427e-19)
(92.90192997 3.499011453 1.730405653e-18)
(92.83310814 3.988906369 -8.510708689e-19)
(90.81266892 6.990727174 -6.094360099e-20)
(90.71398886 6.286011361 4.181064455e-20)
(89.79837804 6.483233799 -8.531378227e-19)
(89.87669335 7.392908704 -1.274967432e-18)
(88.15562632 14.1408298 -2.210774615e-19)
(87.26677171 12.83511245 4.672839589e-19)
(85.304372 14.50536966 -1.457928031e-18)
(85.53237784 13.58686173 2.266070432e-18)
(87.26363736 15.82349574 -3.44233842e-19)
(86.16197424 15.88665287 1.531720233e-18)
(93.92337837 26.29240219 5.734267002e-20)
(95.38344387 25.76915348 2.201250126e-19)
(94.5669915 28.19853244 2.976097719e-19)
(96.32034014 27.2093127 3.020624493e-19)
(109.9603408 21.73242972 9.952922727e-19)
(110.0034676 19.81199605 2.109194665e-19)
(111.7043544 19.15598962 -8.641947457e-20)
(110.9612807 22.40352081 3.088702339e-19)
(113.0635525 20.92718938 -5.707323819e-20)
(112.7086629 21.84086372 4.760767165e-19)
(111.8397757 12.19635258 1.186315851e-18)
(110.8420889 11.21528207 3.639351592e-19)
(112.4685495 11.21691367 0)
(111.3136977 10.48167465 0)
(108.3905183 6.269850394 -4.359842941e-20)
(109.1973593 6.674100086 -2.538665303e-19)
(109.2734975 6.034520896 -4.728998358e-21)
(108.455536 5.763254711 2.760017385e-19)
(105.8598891 3.598421177 2.85765096e-19)
(106.4074926 3.7648199 -5.815335191e-19)
(106.3409629 3.381420283 -8.93045605e-19)
(105.8150943 3.28209609 -3.916254206e-21)
(104.3442385 2.19277344 -2.897932639e-19)
(104.000623 2.12719951 -2.874966664e-19)
(104.2714678 1.958349815 5.809468062e-19)
(103.9481499 1.912986563 -2.766287475e-19)
(102.6598323 1.16345243 4.250677701e-21)
(103.087043 1.212287243 -2.318436348e-21)
(102.939575 0.9000418746 -2.431057224e-21)
(102.5679747 0.9149923365 -4.401612652e-21)
(101.8181413 0.654308669 4.37629109e-21)
(102.1220254 0.6768025541 -2.20604834e-23)
(102.0007799 0.4663555444 -7.157973155e-21)
(101.7368779 0.4829522081 8.847409036e-21)
(100.9603439 0.1074341256 -1.970858293e-22)
(101.214697 0.001372334784 -2.806212126e-22)
(101.5105765 0.2062800921 8.258781471e-22)
(101.4252643 0.3148446062 6.489439938e-21)
(100.6441732 0.03398452527 -3.284169256e-21)
(100.783774 -0.04405981818 -2.432354008e-22)
(100.4692718 0.005049144061 2.461507859e-21)
(100.526995 -0.0476458141 -2.184471249e-21)
(100.4035085 -0.01832283257 4.057367856e-22)
(100.0270113 -0.1537985372 1.829481603e-23)
(100.1653118 -0.09675403895 -3.378975451e-21)
(99.87462683 -0.2969100198 -6.214580899e-22)
(100.0610558 -0.2877956449 1.472992893e-21)
(99.5979762 -0.420684393 -4.866881234e-21)
(99.85002462 -0.4674592379 -3.20336971e-21)
(99.14022569 -0.4437016924 1.007165043e-20)
(99.48963646 -0.6294511781 -1.109340175e-21)
(99.15399493 -0.5765218665 1.051785866e-21)
(99.01257186 -0.3406011325 4.930944057e-21)
(98.99898825 -0.5256917699 1.019595455e-20)
(98.83387523 -0.4291603301 7.195310825e-21)
(98.30042565 -0.2734086226 -2.458763936e-21)
(98.47118186 -0.4131008463 3.817391728e-21)
(98.26759398 -0.5413362636 2.519317804e-21)
(98.04106412 -0.3780892092 7.643383676e-21)
(97.31831076 -0.1042681896 -4.433542378e-20)
(97.53676795 -0.3230380596 -2.926356816e-23)
(97.24244098 -0.4906990949 -2.623851313e-21)
(96.95102303 -0.1631079452 9.197100484e-19)
(96.91508194 -0.3165298849 -4.666733623e-19)
(96.11595085 0.2102841571 -1.117682761e-18)
(96.25416167 0.03240985867 -1.201617638e-18)
(96.02967191 -0.05074434851 1.086867966e-19)
(95.86264434 0.1451484263 4.098392646e-20)
(94.32641894 0.8879091817 0)
(94.49759522 0.6093603451 6.279660789e-19)
(94.17745234 0.5071171819 8.84599223e-19)
(93.96242935 0.8084444928 8.75221694e-19)
(91.74419932 1.98954873 -2.981298241e-20)
(91.99166062 1.552514236 -1.17822817e-19)
(91.49731909 1.386456302 -7.678489158e-19)
(91.16493701 1.856217286 1.175830977e-19)
(87.37363015 3.76537026 -2.088350336e-18)
(87.82260879 2.982180787 -4.480262592e-20)
(86.9686832 2.600149126 1.165332167e-20)
(86.27224308 3.439814519 -2.629313722e-19)
(78.42890795 6.957445894 -1.434852308e-18)
(79.05280857 5.912212894 -3.938901607e-18)
(78.03602671 5.245245323 -1.310303224e-18)
(77.08598458 6.353720631 -1.258838991e-18)
(128.4831633 23.8954109 1.910483339e-18)
(126.3908079 22.88815792 0)
(129.0247746 21.69272083 -1.933170792e-18)
(127.0305651 21.14593993 1.358923056e-19)
(119.6894477 9.808331256 1.1222743e-19)
(117.8430703 9.400538376 9.053412787e-19)
(119.492164 8.102164227 -1.153513046e-18)
(117.7941908 8.09458807 -1.284010228e-18)
(111.8751192 4.578996873 -3.133047464e-19)
(112.9748019 4.658368132 -1.743831314e-19)
(112.6311264 3.833046559 -8.976189312e-19)
(111.6336455 3.905875625 -1.107609854e-18)
(107.6725083 2.373249574 -1.011099643e-18)
(108.3327358 2.354985865 -9.946278194e-19)
(108.0463452 1.922126391 -1.386787736e-18)
(107.4525233 2.000546033 -6.890295808e-19)
(105.3724413 1.226914483 1.206450501e-18)
(104.9802621 1.264284122 -6.474266526e-19)
(105.1868822 0.9735658508 5.154769849e-19)
(104.832552 1.029869795 5.933537247e-19)
(103.1722697 0.5690480119 -4.745375837e-21)
(103.628998 0.4937007042 -1.190705999e-20)
(103.34504 0.1810223258 7.506598693e-21)
(102.9833831 0.3099569912 1.133456518e-21)
(102.1415351 0.2370306422 -1.967407001e-21)
(102.4485874 0.1725179163 1.332352423e-20)
(102.2425383 -0.0283082655 4.931238099e-21)
(101.9911746 0.06522346766 9.775568587e-21)
(101.0264248 -0.146187861 -3.418197271e-22)
(101.2461724 -0.3351068039 -1.037841651e-21)
(101.640367 -0.1880410044 -1.051127444e-21)
(101.6053822 -0.03713267665 -1.166609298e-21)
(100.6573741 -0.1235711863 1.058263856e-21)
(100.7623243 -0.2663409674 1.291180848e-21)
(100.4538381 -0.07004439799 -4.191015528e-21)
(100.4764457 -0.1725611465 1.637143255e-21)
(100.3374169 -0.0587798176 -2.071395687e-21)
(100.2015941 -0.2292317319 -1.924234589e-21)
(100.3815485 -0.1343512412 1.067124777e-21)
(100.0390939 -0.4540751412 -1.123370397e-21)
(100.2731853 -0.4030436882 -7.866527071e-22)
(99.74486898 -0.6727128278 5.753097786e-22)
(100.0563186 -0.6710681065 -2.832992734e-22)
(99.23682065 -0.8062602449 6.61856937e-22)
(99.68565199 -0.9357779146 9.519916578e-22)
(99.29835752 -0.9545955901 5.724643079e-22)
(99.05655427 -0.7260240267 1.669410337e-21)
(99.1125854 -0.9299555045 -1.701773714e-23)
(98.89924052 -0.8655285395 -1.702015759e-23)
(98.28346399 -0.8274323117 -2.513548027e-21)
(98.51335066 -0.9368990851 0)
(98.34981478 -1.123283971 -1.231629583e-21)
(98.06232314 -1.007051635 -1.312322158e-21)
(97.23532059 -0.9017753181 1.319039711e-21)
(97.53472963 -1.077123755 1.85897755e-23)
(97.29973126 -1.322994305 -4.122888427e-21)
(96.88614524 -1.054677447 8.62180358e-22)
(96.90677185 -1.230433911 8.605143248e-22)
(95.92710215 -0.8878595023 7.874353881e-19)
(96.12540745 -1.036264395 7.805281312e-19)
(95.94332134 -1.175872486 1.54356326e-18)
(95.70410732 -1.02218923 -5.288487446e-20)
(93.99180184 -0.7022198111 -1.709994398e-21)
(94.24912586 -0.9253493703 -6.605303532e-19)
(94.00997033 -1.108364615 -4.17532941e-19)
(93.68611681 -0.8836918206 -9.063073431e-19)
(91.25407088 -0.487135298 -9.028523632e-19)
(91.66084335 -0.7941641372 7.435738139e-20)
(91.31786851 -1.084788696 -9.214654402e-19)
(90.83507606 -0.7990185571 -6.723655347e-19)
(86.97889608 -0.7163217638 -1.033641538e-18)
(87.7108172 -1.090087868 -9.860677388e-19)
(87.25806405 -1.635717908 5.084667905e-20)
(86.41420638 -1.358650459 -9.926036266e-19)
(81.01744767 -3.033944676 2.963290147e-20)
(81.71646924 -3.069136713 0)
(81.61931626 -3.610286902 0)
(80.96933111 -3.693125684 3.107469115e-19)
(141.3942089 4.824821894 -8.275918293e-21)
(139.6705614 5.958640102 -2.544137295e-18)
(139.9258862 3.460275225 2.735988438e-21)
(138.4911808 4.5758852 -4.816321796e-18)
(124.6536661 1.785431073 -1.373712381e-19)
(122.8604304 2.586179042 1.6236434e-18)
(123.3038604 0.4727407377 1.649985622e-18)
(121.9045258 1.372144796 1.653425592e-18)
(114.2654986 0.9534612463 -2.38753061e-19)
(115.3572036 0.522423128 1.357818442e-18)
(114.5342529 -0.1418864639 7.079552849e-19)
(113.6302352 0.3463043177 6.747865899e-19)
(108.8664541 0.2811658226 -3.502156174e-19)