/*--------------------------------*- C++ -*----------------------------------*\
| =========                 |                                                 |
| \\      /  F ield         | OpenFOAM: The Open Source CFD Toolbox           |
|  \\    /   O peration     | Version:  v1912                                 |
|   \\  /    A nd           | Website:  www.openfoam.com                      |
|    \\/     M anipulation  |                                                 |
\*---------------------------------------------------------------------------*/
FoamFile
{
    version     2.0;
    format      ascii;
    class       volScalarField;
    location    "0.29";
    object      nut;
}
// * * * * * * * * * * * * * * * * * * * * * * * * * * * * * * * * * * * * * //

dimensions      [0 2 -1 0 0 0 0];


internalField   nonuniform List<scalar> 
12556
(
1.155897567
1.155867862
1.155836435
1.155807623
1.156029505
1.156022866
1.156031384
1.156056727
1.15610925
1.156205442
1.156351665
1.156494255
1.156675489
1.142942144
1.156588938
1.15643675
1.156289185
1.156181878
1.156090283
1.156057449
1.155821369
1.155827909
1.155849449
1.155875651
1.155168356
1.15508441
1.154995721
1.154925151
1.155120945
1.15512098
1.15518248
1.155399274
1.155652424
1.156107396
1.15680643
1.157723774
1.075443134
1.046507796
1.095233592
1.157467407
1.156674752
1.156049973
1.15554338
1.155303451
1.154970154
1.154972599
1.155029575
1.155109258
1.15441355
1.154264888
1.15411464
1.154006076
1.154219955
1.154264761
1.154427749
1.154827413
1.155468302
1.156583868
1.114835954
0.9127564663
0.8390008274
0.8171203985
0.8703194403
0.9954126658
1.157840937
1.156394151
1.155285152
1.154711594
1.154191673
1.154140924
1.154211307
1.154335088
1.153632786
1.153433897
1.153241203
1.153129406
1.153343425
1.153485295
1.153850554
1.154604122
1.15596966
1.050944891
0.7785366649
0.6363827774
0.5549431786
0.5605977296
0.6178044572
0.7245612896
0.9016584134
1.157717133
1.155590487
1.154422544
1.153519792
1.153370909
1.153414271
1.153569889
1.152839195
1.152577794
1.152346231
1.152238605
1.152526399
1.152829606
1.153594492
1.154879769
1.114976286
0.7507732122
0.518444502
0.3856450855
0.3332378719
0.3460709741
0.4110448389
0.5116562535
0.662078248
0.9051718302
1.156808651
1.154565051
1.153069468
1.152658739
1.152631268
1.152791435
1.152042167
1.151738929
1.151490494
1.151429631
1.151792291
1.152346541
1.153671025
1.155887756
0.8822828817
0.5534253095
0.3418096484
0.2142678687
0.1655009063
0.1922709753
0.2646016681
0.3643914827
0.4986066266
0.7036842072
1.038868821
1.155243134
1.152808174
1.152024618
1.151861886
1.151997689
1.151234763
1.150892935
1.150641771
1.150636693
1.151170198
1.152071246
1.154189982
1.157489817
0.7338742804
0.4387987434
0.2407070836
0.1081148526
0.06060548121
0.09520810948
0.1739286696
0.2708840511
0.3939566258
0.5693546679
0.8789790762
1.156513403
1.152758096
1.15145644
1.151086315
1.151166111
1.150465391
1.15009973
1.149868637
1.149973232
1.150713249
1.152045202
1.15515336
1.062645056
0.6663653373
0.4037953482
0.2239641175
0.09103991005
0.05392220259
0.1314839552
0.2218151801
0.3345213653
0.4915961963
0.7702315144
1.147951178
1.152973601
1.151004273
1.150336829
1.150328085
1.149741293
1.149354781
1.149160771
1.149447939
1.150363124
1.152288459
1.156436703
1.00520315
0.6574459896
0.4335358401
0.2949828917
0.2136274639
0.0648677117
0.1278960547
0.2074564234
0.3099690633
0.4527398697
0.7100458723
1.05771959
1.153418121
1.150680537
1.149656946
1.149529838
1.149110512
1.148718895
1.14858391
1.149063883
1.150151107
1.152790474
1.157930808
0.9859938555
0.680518745
0.4934915726
0.4024466228
0.419489592
0.09061725268
0.1446734243
0.2166366657
0.3121717882
0.4451232951
0.6840034988
1.000575468
1.154140948
1.150584184
1.149141196
1.148870943
1.148564231
1.148173773
1.148117594
1.14882789
1.150165077
1.153517456
1.159460223
0.9866252709
0.7158830026
0.5536301916
0.4925040163
0.5306080279
0.1236509987
0.1745448019
0.2431564255
0.3337763765
0.4594743113
0.6869056914
0.9720382502
1.155059601
1.150715208
1.148855766
1.148427369
1.148156882
1.147777079
1.147805804
1.14874305
1.150363625
1.154410711
1.161043229
1.003353796
0.7544161797
0.5992179658
0.5308514403
0.4630830457
0.1618052888
0.2168011528
0.2867426909
0.3757261371
0.4981926432
0.7152866867
0.9748047586
1.156215354
1.151139875
1.148860163
1.148272186
1.147836743
1.147470378
1.147626522
1.14883431
1.150695326
1.155384672
1.162451376
1.03732734
0.798939427
0.6367243351
0.5307414111
0.4122397767
0.05923100578
0.2111699846
0.2799720382
0.3544132382
0.4422187996
0.5671984448
0.7654525879
0.9995862934
1.157440114
1.151782462
1.149138369
1.148408802
1.147663628
1.147314912
1.147585522
1.149017383
1.151284624
1.156648577
1.164157328
1.084968325
0.8627539929
0.6922084855
0.5573888132
0.2721552101
0.1164978205
0.3159448934
0.3939799958
0.4629138284
0.5414104059
0.6579027571
0.8381821386
1.045364431
1.158717821
1.152633008
1.149659934
1.148809512
1.147542345
1.147206561
1.147586714
1.149256879
1.151850411
1.157729175
1.165393746
1.166440497
0.9653335814
0.803628468
0.6630292592
0.08152362998
0.1632824393
0.4270902281
0.6106003557
0.6359027761
0.6897827562
0.788269031
0.9482399212
1.12531858
1.159930135
1.15354121
1.150334866
1.149407957
1.147532974
1.147211256
1.147684751
1.149563569
1.152444325
1.158729797
1.166395821
1.16683274
1.124643717
0.9973987082
0.8089113902
0.04971539312
0.1780691416
0.4369072522
0.6944543414
0.906444967
0.89436282
0.9592544171
1.095572363
1.168093695
1.161037727
1.154470065
1.151108814
1.150120673
1.147518117
1.147200654
1.147749611
1.149838797
1.153013915
1.159598747
1.167064181
1.166654876
1.144845685
1.066958985
0.7632342448
0.04349895049
0.1851066583
0.4410664074
0.6995597056
0.913693282
1.053392599
1.127427367
1.163053373
1.168985219
1.161949668
1.155320671
1.151865368
1.150842761
1.147579245
1.147265713
1.147867677
1.15011735
1.153517643
1.160296582
1.167445163
1.165880954
1.1408682
1.051907413
0.7006818985
0.03786707004
0.1941003183
0.446142138
0.7064739351
0.9187739764
1.056065563
1.128891086
1.163815972
1.169519893
1.162647815
1.156062124
1.152602718
1.151565479
1.147586212
1.147268682
1.147905389
1.150307458
1.153931286
1.160806275
1.167465115
1.164606743
1.135665555
1.031846824
0.615628889
0.03327153433
0.2068899127
0.4543090817
0.7137602896
0.922722531
1.057448664
1.129415149
1.163990301
1.169701065
1.163098712
1.156626011
1.153204634
1.152169708
1.147649641
1.147333672
1.147989865
1.150486553
1.154243556
1.161129117
1.167175692
1.162866426
1.129597599
1.008849499
0.5334485618
0.03271898811
0.2185033403
0.4616384362
0.7181289703
0.9252626795
1.057956473
1.129293899
1.1637471
1.169595089
1.163400943
1.157115683
1.153756807
1.152725628
1.147624071
1.147308892
1.147978894
1.150569137
1.154461352
1.1612789
1.166615055
1.160736968
1.12269274
0.9824768539
0.4696043437
0.03364530445
0.228086427
0.4677347001
0.7201751397
0.926452951
1.057827207
1.128732786
1.16319448
1.169270029
1.163505494
1.157431168
1.154147943
1.153123703
1.147653298
1.147350331
1.148033184
1.150669442
1.154598847
1.161279693
1.165822567
1.15827159
1.114975667
0.950334527
0.4211982164
0.03501977769
0.2363377959
0.4728698146
0.7210332083
0.9262417173
1.057140051
1.127854813
1.162419526
1.168785133
1.163540116
1.157715725
1.154509574
1.153484846
1.147570665
1.147282677
1.147984553
1.150684967
1.154677604
1.161160231
1.164835517
1.155499997
1.106261032
0.9115794868
0.3831158556
0.03679873362
0.2435173214
0.4772144523
0.7213093968
0.9248818076
1.055890982
1.12671348
1.161482527
1.168188104
1.163427817
1.15784158
1.154710147
1.153684519
1.147555155
1.147294091
1.148020785
1.150748311
1.154709888
1.160944457
1.163680009
1.152407817
1.096025132
0.8706053362
0.3523407358
0.03903379483
0.2498383475
0.4809252857
0.7212487453
0.9228140898
1.054123811
1.125332544
1.16042237
1.167513583
1.163309958
1.157984807
1.154922195
1.153887171
1.147412503
1.1471798
1.147939353
1.150722325
1.154707171
1.160646749
1.162366057
1.14893635
1.0836702
0.8316433274
0.3269668206
0.04174028032
0.255501522
0.4841500798
0.720977865
0.9203958737
1.051957141
1.123741638
1.159267715
1.166786264
1.163067461
1.157973853
1.154974197
1.153929634
1.147356416
1.147162275
1.147960881
1.150763693
1.154669462
1.160273631
1.160891164
1.144999937
1.06905548
0.7960428985
0.3057976964
0.04492581397
0.2606804362
0.4870112
0.720590939
0.917846035
1.049530535
1.121984521
1.158043536
1.166023368
1.162867736
1.158026629
1.155083614
1.154022362
1.147163638
1.147006371
1.147848277
1.150699682
1.15460269
1.159827866
1.159248197
1.140507332
1.052616204
0.7637165593
0.2879491608
0.04852175657
0.2654791383
0.4896384086
0.7201653382
0.9152907125
1.046962824
1.120109879
1.15677254
1.165238217
1.162545532
1.157919313
1.155028046
1.153951776
1.147076318
1.146965253
1.147857065
1.150722769
1.154502991
1.159311344
1.157425435
1.135378593
1.035012575
0.7342568262
0.2727785184
0.05252016325
0.2699883338
0.4921277094
0.719758911
0.9128002617
1.044339085
1.118160928
1.155473755
1.164440726
1.162308314
1.157919887
1.155076579
1.153980376
1.146851983
1.146781632
1.147721293
1.150623208
1.154377147
1.158725241
1.155407205
1.129571973
1.016824363
0.7073007222
0.2597654334
0.05695970111
0.2742763106
0.4945669057
0.7194050178
0.9104094334
1.041714354
1.116171683
1.154161976
1.163638398
1.161939062
1.157749134
1.154950949
1.153838462
1.14673915
1.146719894
1.147716799
1.150628905
1.154219571
1.158069626
1.153175215
1.123090101
0.9984694029
0.6825696233
0.2485395737
0.0618245373
0.2783824883
0.4969664624
0.7191187063
0.9081320604
1.039121259
1.114166449
1.152847719
1.162836982
1.161688665
1.157719652
1.154965793
1.153833911
1.146510282
1.14653173
1.147575732
1.150503692
1.154038156
1.157342384
1.150707054
1.115972161
0.9802117382
0.6598151539
0.2388087675
0.06703309698
0.2823461022
0.4993379416
0.7189086233
0.9059714625
1.036577904
1.112162134
1.151538193
1.162039033
1.161298141
1.157515848
1.154803688
1.153657161
1.146365786
1.146442004
1.147547773
1.150484235
1.153825605
1.156540149
1.147981919
1.108278534
0.962211189
0.6387896633
0.2301803823
0.07249203858
0.2862116797
0.5016918226
0.7187767881
0.9039236965
1.034093705
1.11017041
1.150238302
1.161249062
1.161033253
1.157453123
1.154786087
1.153622372
1.146172104
1.146285549
1.147433525
1.150358496
1.153589675
1.15565793
1.144983455
1.100081941
0.9445500221
0.6192628831
0.2224076568
0.07810874434
0.2900105979
0.5040431141
0.7187145917
0.901980407
1.031673919
1.108199677
1.148951803
1.16046431
1.160662739
1.157260497
1.154632144
1.153457676
1.145972809
1.146144768
1.14735704
1.150283911
1.153324056
1.154693564
1.14170712
1.091463817
0.927281085
0.6010784907
0.2154069224
0.08378936335
0.2937485045
0.5063798882
0.7187092661
0.9001360314
1.029325229
1.106260251
1.147685514
1.15969544
1.1603374
1.157130036
1.154553097
1.15336411
1.145855279
1.146058335
1.147303724
1.150204218
1.153037092
1.153649544
1.138218749
1.082509796
0.9104801942
0.5841637306
0.2091309129
0.08944531368
0.2974137178
0.5086863532
0.7187530871
0.8983928602
1.027057566
1.104361432
1.146458753
1.158944349
1.16008585
1.157016872
1.154472664
1.15327851
1.145623957
1.145898594
1.147216493
1.15007843
1.15274631
1.152550448
1.134602426
1.073350881
0.8943394499
0.5686080811
0.2035611731
0.09499412834
0.3009815218
0.5109429305
0.7188475842
0.8967609927
1.024883983
1.102512137
1.145340733
1.158276955
1.159661677
1.156839719
1.154367056
1.153161734
0.1887975274
0.05775054345
0.04668180273
0.3991883388
0.0828890613
0.06068855391
0.538853506
0.1167736046
0.0868652434
0.4704829774
0.1483362099
0.1217845661
0.4169863607
0.04415464926
0.05550867297
0.1855869068
0.1523823673
0.3181738095
0.08644251469
0.04537407897
0.1107154499
0.2548467536
0.1889113881
0.08823071938
0.06098909932
0.04825644668
0.09029815978
0.02948488567
0.02004861716
0.06236482625
0.1086247062
0.1117969842
0.3753647865
0.3846076005
0.2201265331
0.03392975123
0.05009769311
0.08716417813
0.1241420427
0.1109120144
0.4740283172
0.5411647146
0.4042669615
0.4774096826
0.2082133762
0.2383084227
0.05792868991
0.04184779117
0.1194083019
0.1523814327
0.1301792278
0.5259991948
0.5655257854
0.5573305191
0.5055882199
0.131358257
0.1729390629
0.1047502331
0.07787725013
0.529309951
0.4947179198
0.5577707686
0.4500672387
0.07580073314
0.1010548167
0.01895366918
0.139506287
0.1345461761
0.5461765036
0.3930143432
0.4853939786
0.3778918889
0.02914126477
0.04830374631
0.2586153722
0.1187944432
0.08845064256
0.07211051027
0.1776092547
0.0342138236
0.0652649439
0.04881218342
0.03072735397
0.04979100372
0.03258238031
0.04750284992
0.242525449
0.2738658642
0.323465475
0.211534043
0.1929776176
0.2080821785
0.215169038
0.04145447391
0.03374070521
0.07230373136
0.04937153462
0.05553755694
0.04880049606
0.04962009841
0.0708071338
0.1759761176
0.2038591888
0.5001164332
0.1576555235
0.1312284493
0.1909302596
0.1598667516
0.07430065916
0.05929353532
0.1039559793
0.0801351982
0.1017838209
0.0560479103
0.07732883107
0.09947378773
0.1025018904
0.1296207945
0.4972469579
0.1035104689
0.07771819719
0.1297267081
0.1049138973
0.1334204447
0.1089047615
0.049262985
0.0740314386
0.4480449673
0.01358823695
0.05171057784
0.03090407031
0.07664375199
0.0532561477
0.012333956
0.146086004
0.1413148295
0.02148257632
0.00468578384
0.02882476172
0.3727430274
0.07043401085
0.01816055954
0.0106451649
0.03055898578
0.01849885324
0.06754634208
0.2709949245
0.1973832064
0.106172789
0.1155910488
0.07182798586
0.04032021555
0.01817499667
0.00862071988
0.296893345
0.2780524726
0.1958570129
0.009154970002
0.1546456726
0.1899152395
0.1609355214
0.0105816086
0.0620303759
0.05406624468
0.08389019986
0.163049104
0.1499870149
0.1750663128
0.08000790271
0.1301574218
0.04169802193
0.01364486342
0.02375945098
0.02297524584
0.03087223123
0.04828514502
0.05242386484
0.03780277783
0.1367177882
0.1275412408
0.1357608142
0.1052538284
0.1262212589
0.1334322045
0.03053575543
0.01200035731
0.05355591017
0.02410441897
0.04131815108
0.03329355693
0.02027027111
0.03147820597
0.0229470256
0.01782533425
0.02356787312
0.02145788861
0.01027790054
0.01713602191
0.02229605851
0.04308899966
0.04378654104
0.0500054927
0.04887309073
0.01920978894
0.01000248595
0.09277755152
0.01624481175
0.02962658407
0.009330915977
0.01377020255
0.08883422047
0.09002322679
0.2560136156
0.2425437813
0.07842816877
0.06625908003
0.01041961453
0.04339982978
0.1845394839
0.1715688338
0.2024647785
0.1897921451
0.04375757744
0.05116275609
0.04204248488
0.1074421841
0.06721268012
0.06210714575
0.03991094906
0.06667402442
0.1215330037
0.04163050039
0.02481103528
0.01557940627
0.0558456792
0.0276833728
0.04615290549
0.02643212664
0.06493349946
0.03926222469
0.03862656722
0.2071107026
0.03062814073
0.2063034623
0.2341042356
0.03449331691
0.03884039166
0.03106280618
0.03397335478
0.2293864471
0.0398033815
0.03950553391
0.05297390826
0.06941213828
0.06478808317
0.0760064066
0.0710464326
0.05326449108
0.05878676989
0.05701330814
0.05186799054
0.0630906467
0.05844092268
0.05807119984
0.1446525593
0.142944257
0.1765554801
0.1746161008
0.07038840075
0.009161571948
0.06903740049
0.09387735097
0.09203272875
0.1167041895
0.1150308183
0.03158320825
0.04654825777
0.1208039793
0.03521312821
0.02066339506
0.0650459233
0.2203062257
0.2070905583
0.2380233026
0.2247052015
0.06635043674
0.02779506172
0.04726248958
0.04626900293
0.06951790085
0.06866476053
0.007017278529
0.03662798765
0.09535651792
0.08273400736
0.1664865296
0.1568070345
0.02298645424
0.01164582893
0.02193160622
0.01463103233
0.02909961095
0.01185571119
0.01392692271
0.01214811974
0.02912792695
0.05731552087
0.01220258448
0.01841908831
0.003506291602
0.01992857295
0.01498770363
0.6214449828
0.3600397077
0.3812350221
0.2416799546
0.008386102133
0.00531343291
0.1578884607
0.3562146128
0.2877680672
0.006054827302
0.01326249459
0.01069666387
0.1119506023
0.09989248557
0.03935555032
0.2035588564
0.1696927742
0.08720524153
0.00992085826
0.01691878519
0.01349887908
0.008884650297
0.01317158058
0.009239716244
0.03662669391
0.01582455539
0.01478342193
0.04686655465
0.05408818059
0.01598589662
0.02183703672
0.0103943703
0.01043365593
0.04368674378
0.1461548701
0.3266056622
0.3132344517
0.3445231887
0.3310752367
0.1495381979
0.2736049265
0.2602815604
0.09132825393
0.03206387465
0.0930675204
0.08781400106
0.01140135392
0.01636088809
0.09597324946
0.04569037097
0.01800376783
0.01595840054
0.03812827525
0.04381896385
0.03956960607
0.05025371936
0.04532036014
0.0394847634
0.04060767886
0.01073022358
0.01044735243
0.03519857916
0.1878178459
0.3624280827
0.3489637705
0.05883562066
0.06082093402
0.1362177608
0.02316104797
0.02527648093
0.06311532064
0.08880079838
0.1040993055
0.09617382654
0.06255794251
0.08377485149
0.07793286761
0.09329433093
0.0860778396
0.06372676734
0.1161282813
0.2911960365
0.2779573627
0.3088109107
0.2956112883
0.1179765656
0.09945951898
0.03592342975
0.03664878008
0.02082843509
0.02164201899
0.0821347798
0.1243610148
0.05463929934
0.05842793507
0.03695559461
0.03763891448
0.109128854
0.1248608686
0.04897275204
0.06606480842
0.007514427617
0.01881833411
0.0494110503
0.03770142097
0.07354597672
0.02020153558
0.02068564855
0.01977623948
0.06234685345
0.01088243172
0.004370270596
0.1198811025
0.102104624
0.08600930034
0.08172687791
0.02843231399
0.01989655233
0.03277217905
0.07928534061
0.01791650954
0.01154316132
0.01984258398
0.02557660631
0.00284533842
0.03007392764
0.01952006043
0.01236310965
0.006361909083
0.01211871586
0.009221556413
0.009071448254
0.02914221132
0.02235450433
0.006867265272
0.03844877437
0.04020045689
0.01598091994
0.01131444036
0.007436504068
0.01180737648
0.01736831292
0.01066460405
0.01379652609
0.04432133461
0.01006582463
0.009691762482
0.01111296813
0.01278367122
0.03636839492
0.01133148008
0.01124512032
0.01297377486
0.01117796123
0.0118418444
0.01908472994
0.0141094534
0.02760359364
0.02144262827
0.01172254893
0.01761619259
0.02196745976
0.01867181126
0.03019124249
0.02336773573
0.01827132999
0.01641271873
0.01274068367
0.01353635536
0.01056365901
0.03874525189
0.0461049335
0.0145054578
0.01363960205
0.01499046194
0.01550517215
0.05278151669
0.009619946732
0.00977573153
0.01251101134
0.009786672946
0.009838584627
0.04490749354
0.01005430218
0.01470202924
0.01325710271
0.01198818401
0.02143573574
0.0557125202
0.05058079872
0.0110292342
0.04153127985
0.03556396859
0.04871602266
0.04365901398
0.01153308513
0.0115826041
0.03812882018
0.03173787338
0.1014841449
0.09495731153
0.03572327413
0.04590031679
0.1087243497
0.1032748027
0.04569106528
0.04474201101
0.06975753544
0.08554974879
0.1065239566
0.06407310468
0.08010010565
0.07080753068
0.06097336424
0.1456408259
0.1328810366
0.1169365661
0.1494864543
0.06088467667
0.0407913855
0.0470169968
0.05863981522
0.03524324901
0.03963362428
0.02516709636
0.02383981087
0.04431607066
0.01719778431
0.01735671737
0.01365558302
0.02512034044
0.02969339096
0.0180894977
0.02533621623
0.03480294259
0.03446870892
0.02641572323
0.02877328077
0.09612064768
0.08371878585
0.1030220193
0.09874622639
0.02991734708
0.07486864641
0.07251202315
0.08019177064
0.07572272637
0.03608787856
0.1214258415
0.1163472707
0.1297540459
0.123244921
0.03670287288
0.03222442522
0.1086883654
0.1045122296
0.1147361783
0.110152374
0.03258422247
0.01118418896
0.01085072028
0.04037553732
0.03666523204
0.01090692989
0.01131919149
0.04245744613
0.04167293604
0.04465730325
0.04272739083
0.04024388401
0.03918753484
0.04141492859
0.04051516879
0.06895217497
0.06690304727
0.07178193001
0.06967075477
0.06127173477
0.04738055939
0.06604440434
0.06388418676
0.0260280313
0.02207960253
0.03383664494
0.02820072245
0.007114374694
0.01409042605
0.0132058949
0.02061915979
0.01453292321
0.03496120327
0.03556740278
0.09807675675
0.02078099312
0.02057891774
0.02142399241
0.02096477737
0.01994261809
0.08448980114
0.02224761139
0.03288170997
0.03978960406
0.05276586303
0.1225014224
0.03642674516
0.02351673291
0.03904979636
0.0361099676
0.02218464873
0.02165765529
0.02309112014
0.02240434494
0.1105609617
0.03787324138
0.03876793649
0.006534283396
0.02904318269
0.009557854287
0.009969885631
0.00952959774
0.02700751275
0.007838611289
0.02115515147
0.0109946859
0.011208257
0.04876393389
0.04243196187
0.01960129109
0.02009377303
0.07259815977
0.06450713233
0.01872129949
0.0195351376
0.01053048439
0.02735211315
0.07911376062
0.07079939011
0.01285829636
0.01231265637
0.01712309177
0.01190043809
0.01299852226
0.0174656135
0.02996012699
0.008350182862
0.01283174824
0.01175329405
0.01222022146
0.02033147231
0.05546533584
0.1175797903
0.1521168696
0.01016474163
0.01005401914
0.1925916335
0.2440668616
0.2014864595
0.006742670731
0.03825972563
0.01380707453
0.01872226786
0.1401243657
0.1461131358
0.1637210044
0.004944227779
0.007758628457
0.005764279166
0.004944608953
0.005973789918
0.004671354498
0.05933263292
0.03715845451
0.02330510787
0.02633957714
0.0234910308
0.02745828104
0.2212537733
0.3981299228
0.3847821529
0.4159138005
0.4025431568
0.2255114736
0.04654970595
0.04037651433
0.01274808748
0.07014134975
0.08238327963
0.1374866508
0.1159807162
0.1104561893
0.04638508387
0.02901850485
0.03457904024
0.03342255026
0.3803189597
0.3668860169
0.1916524001
0.1517896543
0.06662586228
0.07050776067
0.07362598045
0.08457877496
0.1665504128
0.05674838585
0.1242430305
0.1178979304
0.01082649633
0.01087954915
0.01497308357
0.01934141149
0.01962926129
0.03172787776
0.01140411959
0.0108275119
0.01065640826
0.02833638759
0.05605516395
0.04831307573
0.01811337658
0.03034565456
0.01891262687
0.01907903059
0.01851343396
0.01549055755
0.009391144367
0.01159359329
0.01090408892
0.01052637518
0.02443630345
0.03035810467
0.06179598793
0.04042050111
0.03823354708
0.03493711592
0.02573577428
0.04644731057
0.01589030834
0.02213393182
0.01153810088
0.008222333589
0.008326908888
0.0116796577
0.01166030912
0.02416031232
0.01524921177
0.01039935653
0.02083413377
0.0200675191
0.0183537409
0.01690482739
0.02060052173
0.01757601908
0.0106541284
0.0113425274
0.006558870188
0.009233116334
0.01080429104
0.0627761939
0.05738121854
0.02331101883
0.009138001923
0.0142651179
0.01291397015
0.01079053721
0.01469479853
0.01298570907
0.04893678375
0.0374719731
0.0429663386
0.06816425211
0.09742702726
0.09580908712
0.04152008848
0.06814835386
0.06428556967
0.09471020037
0.09259562675
0.06507750823
0.03545770277
0.04259667706
0.03708270346
0.02836772511
0.02916690645
0.02396326888
0.04800827529
0.04648687655
0.05380975489
0.02306388122
0.03337223408
0.03172087682
0.05208197687
0.05169137128
0.03036933909
0.02802233654
0.02760327565
0.03068044098
0.02996727282
0.03505706434
0.05857657355
0.05791404902
0.06253576696
0.06169968342
0.03804773816
0.03140484581
0.05338254005
0.05283940048
0.05723520086
0.05656767992
0.03349157282
0.06393635596
0.06589937731
0.1499532936
0.1378194446
0.06141603526
0.06331491262
0.09172496129
0.09506454838
0.1826750408
0.02599934713
0.02585885839
0.02736301541
0.02714433992
0.01981456336
0.02558607978
0.02548491966
0.1685813932
0.08686862404
0.0904801959
0.009201432516
0.009232632763
0.01247335744
0.01192173546
0.009170936862
0.009138537366
0.007607903454
0.06443987797
0.02629601777
0.03233060186
0.1324720049
0.1263582785
0.05990119285
0.06928972589
0.1398069517
0.1342964927
0.03109590587
0.03116356697
0.04761817374
0.04594655779
0.03070009265
0.03066828039
0.01056661393
0.02182107752
0.03443404362
0.0340435574
0.008548799438
0.01391146851
0.01931929853
0.01310678985
0.01239435494
0.01800333949
0.01824674271
0.0295473728
0.01193776629
0.0087009682
0.01185725695
0.01190335155
0.02760786471
0.01751073141
0.01809026852
0.0141013647
0.03534241417
0.02988297736
0.01032484888
0.01032364029
0.01059637877
0.01098083271
0.01644849531
0.006592350506
0.004274234734
0.007952390331
0.01189926672
0.009926979568
0.01038189353
0.009875589891
0.01008280294
0.01092199462
0.01047819425
0.006928114043
0.005403026415
0.01348536548
0.01389765292
0.01302847045
0.01315452589
0.01534703879
0.02346385917
0.02381490393
0.02298326161
0.02329171096
0.01519920438
0.01027494656
0.01768229502
0.0176663167
0.01825017863
0.01781425984
0.01010261144
0.01707205148
0.02638689409
0.02932302957
0.02412065967
0.02491808672
0.01654841382
0.01069241235
0.01768355184
0.01768621429
0.01762321144
0.01767464783
0.01054811959
0.01254534427
0.01280614525
0.01206693783
0.01270108535
0.03608356895
0.05492814836
0.05446095311
0.02107371581
0.03473895645
0.0344952428
0.03601877293
0.03508726387
0.02127981356
0.01105864136
0.01077326891
0.01085945964
0.01111974138
0.01964448402
0.01945209124
0.02006818706
0.01985227174
0.01531230092
0.03374168391
0.02021419131
0.02111583173
0.02038119673
0.0340269106
0.03381107229
0.03434669571
0.03416861534
0.02050908191
0.02094597149
0.020362562
0.03050827354
0.02188696702
0.01574033003
0.007312564599
0.01075075829
0.01086961702
0.007253401601
0.04064327334
0.02812567129
0.003016889637
0.02844150671
0.04340099656
0.04303142783
0.01788542957
0.01153577545
0.008457645755
0.003854353251
0.01272836969
0.01285267773
0.01868215263
0.01884153353
0.03026975814
0.01893711729
0.01021919355
0.009744623367
0.01528612334
0.004169585036
0.009249318194
0.007199769531
0.005620319312
0.006872401323
0.00922576341
0.006747925496
0.01036819766
0.01062680531
0.01031434031
0.04017427325
0.03080354486
0.008568694697
0.01069196146
0.0119453401
0.01893530456
0.02130317965
0.01268730638
0.01558441026
0.01501706842
0.00992017354
0.006597520134
0.009914820797
0.01117343646
0.007777684114
0.01120419268
0.01144984612
0.01200241637
0.01157885925
0.01130502799
0.01161063513
0.01151237314
0.01155842259
0.01167112752
0.01164022698
0.01167969936
0.0118475038
0.01246693641
0.01204987372
0.02183479563
0.02155669067
0.02175903211
0.02731076741
0.02701340596
0.02113229615
0.01972713996
0.02109463363
0.01289559701
0.02066195561
0.02195174886
0.01493055811
0.02071153157
0.01374728545
0.01420469085
0.02250761369
0.02280344821
0.02197742388
0.02237406538
0.01400483348
0.01515362006
0.02634066514
0.02589269762
0.009700118637
0.009732131965
0.01094071234
0.008879796614
0.009331184461
0.009519573529
0.009752327316
0.009414897952
0.01194697439
0.02181001145
0.019534456
0.025185579
0.02389732354
0.01381248777
0.009249076007
0.01002838855
0.01542449379
0.006479797107
0.009390461836
0.009362267651
0.01157116087
0.00925621545
0.00946142517
0.01872053298
0.01665439033
0.009949721766
0.04703291484
0.04360358764
0.08470557568
0.07550110095
0.04354989665
0.06478661762
0.09160201694
0.08770543664
0.036213526
0.03308086496
0.03192110644
0.02348255633
0.02997448329
0.04598133358
0.04552384445
0.03966852038
0.02508496494
0.03579373803
0.03633084049
0.03255894446
0.0336625986
0.02363008592
0.01634680435
0.01757097941
0.02678142074
0.01915315738
0.0182004933
0.02037521616
0.01934582035
0.02719143888
0.01856005335
0.01929136671
0.0153395686
0.01989360998
0.04748164902
0.04768520109
0.03023566459
0.02988576244
0.05065150737
0.05064201944
0.02872407194
0.02832312672
0.02950829126
0.02907832328
0.05980217089
0.0591614296
0.03547601264
0.03735893201
0.06105534482
0.06043216365
0.05466198355
0.05407804313
0.03186357391
0.03299314985
0.05588930974
0.05527151912
0.01106221036
0.01774694343
0.01777446083
0.01772650483
0.01775802725
0.01100996391
0.01136248538
0.01648952901
0.01432500761
0.01768254414
0.01737777746
0.01135644222
0.04218305234
0.02471933101
0.02498716036
0.02430640603
0.02450714308
0.04193385659
0.04353660058
0.025911419
0.02638084828
0.02524695673
0.02555370118
0.04305230196
0.03985897899
0.02310386335
0.02334236395
0.02274149352
0.02296984864
0.039628302
0.04113188855
0.02392126377
0.02410729944
0.02350347188
0.02373662437
0.04085840399
0.02643717825
0.02625664284
0.06827778686
0.04545010075
0.04577702989
0.04473453896
0.04501779563
0.06752532321
0.02688340904
0.02667979428
0.02436732043
0.02560865695
0.05917650446
0.04096547476
0.04065643184
0.02726083741
0.0286477151
0.05272076923
0.06555319936
0.04401879451
0.04421928139
0.04328700545
0.04323560154
0.06427476926
0.02515659389
0.02520501102
0.009152935254
0.009376309026
0.009029591186
0.01136597156
0.01012776012
0.01374594337
0.009380471142
0.009324255823
0.009367402041
0.009371112946
0.01359313246
0.01846337591
0.01039015421
0.01183011001
0.009489508012
0.009265846482
0.01597708675
0.03488868924
0.05237123673
0.05206749199
0.05376699466
0.05340929131
0.03546920261
0.02073940904
0.02050512822
0.02130489297
0.02103432747
0.02105515238
0.01659208186
0.02335620037
0.04285090391
0.03828231409
0.04992212337
0.04817301961
0.03299267429
0.02554039313
0.0177747555
0.02284569407
0.02426752376
0.03837422791
0.02239715026
0.0226804374
0.02174043753
0.02245213982
0.03844151727
0.02202422317
0.02180053129
0.02283242671
0.02259160689
0.009759664909
0.0116279232
0.0111939312
0.014696004
0.01265480258
0.009736407246
0.009402467151
0.009592506988
0.01062767702
0.01007298671
0.006472865577
0.01127878221
0.01096708417
0.01103408526
0.01216865474
0.01143963962
0.01119311466
0.01900805917
0.01896249431
0.01925335763
0.01919058842
0.02908314321
0.02906289837
0.04400262847
0.01820941825
0.01922129671
0.01873571838
0.01879806995
0.01981797024
0.03324855285
0.03290006594
0.03366074796
0.0333877288
0.01989813131
0.01926051369
0.03222275857
0.03044607053
0.0327771034
0.03221546782
0.01925116603
0.01072285861
0.04144836615
0.04085844216
0.02715949272
0.01297330698
0.01074502147
0.01069485846
0.008055091277
0.01108762833
0.01244516153
0.01770003727
0.01240106875
0.01287067653
0.01273465896
0.02967018966
0.01835903707
0.01856352377
0.01163270074
0.01189859021
0.01188102432
0.01233168503
0.01230955726
0.008623002773
0.008685433112
0.01223819727
0.01195296138
0.01224489926
0.01487509972
0.01834848524
0.02765311135
1.154943467
1.155304549
1.155575657
1.155463885
1.156111498
1.155975816
1.156376554
1.157389306
1.156617184
1.157762181
1.027646973
1.157467433
0.9916450758
0.9128757853
1.085574288
0.9150639671
0.8737610802
1.045877011
0.8789883053
0.9152092379
1.082982563
0.9325546342
1.028943771
1.1577107
1.063180901
1.157800977
1.156851533
1.157417267
1.156478515
1.156185076
1.154617503
1.1553979
1.155269457
1.15575319
1.157200801
1.156256795
1.135836727