/*--------------------------------*- C++ -*----------------------------------*\
| =========                 |                                                 |
| \\      /  F ield         | OpenFOAM: The Open Source CFD Toolbox           |
|  \\    /   O peration     | Version:  v1912                                 |
|   \\  /    A nd           | Website:  www.openfoam.com                      |
|    \\/     M anipulation  |                                                 |
\*---------------------------------------------------------------------------*/
FoamFile
{
    version     2.0;
    format      ascii;
    class       volVectorField;
    location    "0.29";
    object      U;
}
// * * * * * * * * * * * * * * * * * * * * * * * * * * * * * * * * * * * * * //

dimensions      [0 1 -1 0 0 0 0];


internalField   nonuniform List<vector> 
12556
(
(99.99920553 0.001963480647 -3.999996493e-21)
(99.99880811 0.006917180023 -1.10158286e-25)
(99.99783472 0.01545731347 -3.997399248e-21)
(99.99605353 0.0302626733 -3.97967088e-21)
(99.9997025 0.0246425785 3.851819366e-21)
(99.99795956 0.04183917143 0)
(99.99680537 0.06923802565 0)
(99.99637797 0.1077852191 -6.904358121e-21)
(99.99519734 0.1601117981 8.131449422e-22)
(99.99421683 0.2263119642 -5.450709062e-21)
(99.99396227 0.3008278781 6.198712569e-22)
(99.99518227 0.3706532915 0)
(99.99789054 0.4172491207 0)
(100.0012925 0.426681773 6.23347535e-22)
(100.0039209 0.3974166936 -1.243994742e-21)
(100.005458 0.3399591156 8.635466631e-22)
(100.0056466 0.2716465016 0)
(100.005303 0.2057437157 1.510282706e-21)
(100.0050468 0.1476978914 6.22179336e-21)
(100.0027129 0.1047339449 -1.76886221e-21)
(100.0111614 0.1206007922 -1.542332993e-20)
(100.0077223 0.07461804963 0)
(100.0057533 0.0399823539 -1.944543418e-21)
(100.0055446 0.01265564491 -1.370136517e-20)
(99.99283543 0.004955079734 1.600775271e-20)
(99.98860177 0.01795961434 4.00270417e-21)
(99.97943797 0.0409232059 2.799133895e-20)
(99.96364771 0.08233172218 -1.198986781e-20)
(99.96503501 0.1158805756 3.878140514e-21)
(99.93980933 0.1994463115 -3.707661402e-23)
(99.90651378 0.3305945178 0)
(99.88763291 0.4530602578 -6.899356694e-21)
(99.84697485 0.6810475134 -6.464340325e-21)
(99.80981759 0.9762295052 -1.147666647e-20)
(99.79146299 1.319191245 -4.860199829e-21)
(99.81412848 1.653893289 -6.620396155e-21)
(99.88615432 1.886680034 -5.731260915e-21)
(99.97946229 1.950096312 -2.512482259e-22)
(100.0717766 1.83129412 -4.320243881e-22)
(100.1314559 1.575758855 4.439457856e-21)
(100.1488978 1.25858481 -8.980913238e-21)
(100.1350681 0.9553746268 0)
(100.1465022 0.7261612068 -2.656067208e-20)
(100.1057615 0.498805256 5.136039761e-20)
(100.105171 0.3456633474 1.493496581e-20)
(100.0741551 0.2130479478 3.088617863e-20)
(100.0561009 0.1145051305 -3.097760703e-20)
(100.0491785 0.03625944228 1.564660029e-20)
(99.98150222 0.005312945575 -1.597209786e-20)
(99.96962286 0.02082308267 -3.204955855e-20)
(99.94427551 0.0514573175 -7.201210098e-20)
(99.90229561 0.1075565998 9.585818912e-20)
(99.87672162 0.1777379484 -7.924336958e-21)
(99.8034838 0.3190458235 -7.754450409e-21)
(99.70121414 0.5412360783 -1.347972674e-20)
(99.63851221 0.7911189762 0)
(99.5080379 1.218815107 2.671852453e-20)
(99.38561199 1.789755725 1.779837668e-19)
(99.32974242 2.488253779 -3.937890888e-20)
(99.42308178 3.206667694 0)
(99.69113406 3.713567464 -1.505247072e-20)
(100.0665475 3.855288179 0)
(100.3895049 3.582308761 -8.68873791e-20)
(100.5728146 3.031460408 3.560858039e-21)
(100.6124229 2.384064741 -9.709022908e-21)
(100.5471819 1.764241301 -2.338825046e-20)
(100.487698 1.248154705 -1.594225241e-19)
(100.3611325 0.8441307614 -3.563872352e-20)
(100.2919286 0.5262557239 -1.536321318e-20)
(100.208848 0.3220430916 3.494573573e-20)
(100.1585902 0.1730808429 -3.932213392e-21)
(100.1364959 0.05448066703 0)
(99.97106957 0.001373904348 -8.038301701e-21)
(99.9483606 0.01014267245 5.630607526e-20)
(99.90025166 0.0382108981 -1.610611427e-20)
(99.8213128 0.09503024974 0)
(99.75629471 0.1915955848 0)
(99.61024606 0.3706306417 -6.246193485e-20)
(99.40482097 0.6611127977 -1.251412906e-19)
(99.23110641 1.025088434 2.963828123e-20)
(98.93399673 1.638171443 -1.146650525e-19)
(98.6355417 2.530314588 1.999648343e-19)
(98.47059799 3.725949834 0)
(98.6605086 5.044869983 9.734760036e-19)
(99.37620748 5.993878689 -1.624235375e-19)
(100.3404662 6.136740919 8.891521985e-20)
(101.0678465 5.52169402 7.058379114e-19)
(101.3916134 4.52372065 -7.784854799e-20)
(101.399477 3.435744073 8.995659399e-20)
(101.2298075 2.47387168 0)
(101.0203416 1.662383418 5.846074645e-20)
(100.7499448 1.096611488 -4.539713578e-20)
(100.5548065 0.6353179681 -3.942707052e-20)
(100.3986592 0.3839603096 1.999143894e-20)
(100.3014004 0.2040446494 -4.014909555e-21)
(100.2568168 0.06366081012 0)
(99.97167364 -0.007905621447 0)
(99.93636091 -0.01745936896 0)
(99.86234675 -0.005752560256 8.095922927e-21)
(99.73950351 0.03752002374 1.22611598e-20)
(99.62412151 0.1445341228 2.030354929e-20)
(99.38514915 0.3305544574 0)
(99.04821788 0.6389839865 0)
(98.71170151 1.084714535 0)
(98.15899639 1.864499515 2.323839497e-19)
(97.5239904 3.122601943 2.103434844e-20)
(97.03298441 5.027080289 -1.650327287e-18)
(97.33912532 7.367465521 5.1079231e-19)
(98.97016846 9.146287421 -1.24490993e-19)
(101.1632226 9.095704466 -1.31236176e-20)
(102.4925281 7.669322458 -4.646757231e-21)
(102.8515123 5.898917627 1.652793996e-21)
(102.6379053 4.302366586 2.269870079e-19)
(102.1819907 2.964701867 -6.053264141e-22)
(101.7183726 1.891585653 -9.782064952e-20)
(101.2444533 1.21336617 8.150506307e-21)
(100.8625777 0.6437479671 0)
(100.6145108 0.3833495863 4.105587101e-21)
(100.4593044 0.1989144297 -3.083210216e-21)
(100.3870441 0.061195701 -1.022608916e-21)
(99.99483881 -0.02288935164 0)
(99.94664713 -0.06290064396 0)
(99.84696383 -0.08254066062 -1.623838452e-20)
(99.67929419 -0.07121110281 3.298668236e-20)
(99.5014473 0.02664713989 0)
(99.16576875 0.1831596853 0)
(98.67830237 0.4630281477 2.582648367e-20)
(98.1431595 0.9277951976 -8.081809952e-22)
(97.24879121 1.764696821 0)
(96.00044971 3.292707651 -5.087281032e-19)
(94.68276987 5.983485044 0)
(94.52447283 10.18450477 0)
(98.07454067 14.13882298 -1.198087218e-19)
(103.2437814 13.27239882 0)
(105.2711784 9.799813776 9.598773088e-19)
(105.1781176 6.859147265 3.23107115e-19)
(104.3636245 4.719842265 -6.316517116e-19)
(103.4035975 3.125524935 1.379124971e-19)
(102.5145275 1.851418775 2.525027199e-20)
(101.7889048 1.147304347 -1.694071732e-20)
(101.1775828 0.5350067392 0)
(100.8227569 0.308774304 0)
(100.6038253 0.1517998079 -1.039709861e-21)
(100.5014125 0.04548916789 -3.123216633e-21)
(100.0517153 -0.04322956247 3.960496535e-21)
(99.99188324 -0.1249578175 -3.98859835e-21)
(99.86962299 -0.1901469667 8.132387025e-21)
(99.66214605 -0.2287726131 -2.978304864e-20)
(99.42138944 -0.1630269361 7.804626897e-23)
(98.99543983 -0.07280633644 2.538218915e-20)
(98.36946966 0.1248430928 -5.24874514e-20)
(97.63210073 0.5202959665 0)
(96.34335225 1.245519612 -2.723235207e-19)
(94.28971965 2.667900465 4.944877171e-21)
(91.34001352 5.391390888 0)
(87.78424905 11.65366244 -3.737356344e-19)
(94.00435989 23.63319793 2.211201919e-20)
(109.1199462 19.30127837 0)
(110.0963035 11.14417228 3.939801631e-19)
(108.3675322 6.820149494 0)
(106.4555597 4.353122044 7.617731511e-19)
(104.7552013 2.750217854 -3.254300855e-19)
(103.3088843 1.470807891 0)
(102.3065035 0.8499312209 9.353558811e-21)
(101.4467386 0.3065082677 2.747065888e-21)
(100.9845592 0.1532773848 -3.245296711e-21)
(100.7053628 0.06166244785 -3.689212996e-21)
(100.5736108 0.01645373486 8.870318166e-21)
(100.1519448 -0.06790205065 -3.960914379e-21)
(100.0830842 -0.2004120932 3.990032761e-21)
(99.94397476 -0.3222634984 -5.058473124e-21)
(99.70702223 -0.4252169633 -3.395078901e-21)
(99.41084356 -0.4124086554 1.446230574e-20)
(98.91596193 -0.418756957 8.591057533e-21)
(98.18721043 -0.3561765843 -1.125271274e-19)
(97.30543011 -0.1218727298 5.250363495e-19)
(95.7012523 0.2876420349 0)
(93.04841727 1.059437656 0)
(88.78240504 2.198024506 9.22025906e-19)
(80.94518525 4.023025985 0)
(123.953678 22.28623542 0)
(116.7434358 9.270936725 1.294951457e-18)
(111.8172207 4.99093929 1.432413168e-20)
(108.4714982 2.952712907 0)
(105.9849158 1.728666005 -5.726818277e-19)
(103.9486464 0.7311576506 -5.013026028e-21)
(102.6930277 0.3343583328 2.116067318e-20)
(101.609636 -0.03510814618 -3.360033787e-21)
(101.0607182 -0.07248918352 2.744999331e-21)
(100.7343301 -0.06568280708 -5.262172737e-22)
(100.5779797 -0.02451572675 -8.347150855e-21)
(100.3026809 -0.09532285846 -1.907970171e-21)
(100.2284327 -0.2843258954 -1.433306629e-21)
(100.0801507 -0.4695992627 -4.909354442e-22)
(99.8272914 -0.6453614009 1.484055316e-21)
(99.49005887 -0.7004336319 -2.73271735e-23)
(98.9571503 -0.8214391476 0)
(98.17994964 -0.9217144122 3.94148172e-20)
(97.23092927 -0.899473728 -5.464790489e-19)
(95.50705681 -0.8972923739 -5.875209183e-19)
(92.79725491 -0.9214433748 3.150556129e-19)
(88.98013077 -1.427076305 -8.999861628e-19)
(84.4494221 -3.448788873 2.088752569e-18)
(136.6618856 6.897539562 0)
(121.3742734 2.786768569 1.426342526e-18)
(114.1226417 1.275881274 0)
(109.769403 0.5750836548 2.616030188e-19)
(106.7453531 0.1678819413 0)
(104.2770185 -0.2812230289 -5.145859622e-21)
(102.8537137 -0.3483338551 1.194742127e-20)
(101.6201158 -0.4554246959 1.159486436e-21)
(101.0200395 -0.3471448183 0)
(100.6658383 -0.2187409646 4.217392547e-21)
(100.4936362 -0.07395740612 4.163932861e-21)
(100.507642 -0.1235674951 3.760115143e-21)
(100.4321013 -0.370744547 5.663476029e-23)
(100.2831127 -0.6211031943 0)
(100.0292698 -0.872221466 1.939638348e-22)
(99.66818742 -1.002843773 -1.983476227e-21)
(99.13091668 -1.241755166 2.105043757e-21)
(98.36334848 -1.507471466 -3.991837291e-20)
(97.4205272 -1.695394395 0)
(95.75610264 -2.056685405 -1.433468909e-19)
(93.30618842 -2.628610239 -4.298967455e-20)
(90.29868064 -3.707264392 0)
(87.50225783 -5.414906536 -8.671686663e-19)
(134.0254307 -9.064431394 4.288284589e-18)
(121.164522 -4.857537997 3.891535277e-20)
(114.2294484 -3.134505055 0)
(109.8605123 -2.201957411 -5.236369715e-19)
(106.7922169 -1.637886437 1.02129972e-18)
(104.1884858 -1.414749197 4.357551178e-20)
(102.734606 -1.109737826 0)
(101.4509523 -0.906987658 -1.134460132e-21)
(100.8444335 -0.6409032031 -4.670308207e-21)
(100.4853476 -0.3822115479 5.212834645e-22)
(100.3082983 -0.1269280439 0)
(100.7667312 -0.1507638755 -1.851983582e-21)
(100.6937884 -0.4537591463 1.86728093e-21)
(100.5518443 -0.7658387866 1.821436985e-21)
(100.3125171 -1.089304537 -1.699386728e-21)
(99.9428191 -1.295575265 -1.95528159e-21)
(99.43183416 -1.642062765 0)
(98.72056789 -2.056105151 2.18403518e-21)
(97.83594508 -2.42512184 0)
(96.31753362 -3.059120056 -1.253187171e-18)
(94.17769345 -3.945667199 3.237188187e-19)
(91.67770317 -5.17249404 -7.653870062e-19)
(89.41069284 -6.526674579 1.858836515e-18)
(125.3722072 -17.82071708 -1.593315378e-18)
(117.453379 -10.48389694 1.323007985e-18)
(112.3822129 -6.825977254 -1.130597843e-18)
(108.8172246 -4.696396944 0)
(106.116871 -3.339404698 -1.039063712e-18)
(103.6770627 -2.482844307 0)
(102.3358779 -1.838978138 -2.832889747e-20)
(101.099483 -1.336723789 -1.410475812e-20)
(100.5323815 -0.9212520878 1.065776697e-21)
(100.1909337 -0.5394432911 -3.357165967e-21)
(100.0199845 -0.1780989248 4.923355195e-22)
(101.0761461 -0.1752310142 6.808507408e-21)
(101.0093052 -0.5279992669 0)
(100.8803868 -0.8925549603 -1.817878007e-21)
(100.6662655 -1.287339848 0)
(100.2984117 -1.558697448 0)
(99.84278445 -1.992330982 -5.811007423e-21)
(99.21936356 -2.526025156 4.24096918e-21)
(98.42581526 -3.038345861 9.311782196e-21)
(97.09255783 -3.863422176 -2.598086968e-19)
(95.23587772 -4.948596461 3.650807693e-20)
(93.02435921 -6.291107194 1.351607869e-18)
(90.86273573 -7.603536048 -1.694883354e-19)
(116.2213232 -20.93828231 0)
(112.4334927 -13.32584245 -9.876296019e-19)
(109.4483822 -9.124872834 9.074906214e-19)
(106.9766948 -6.461331972 1.576521172e-18)
(104.8853511 -4.642656446 1.704188041e-19)
(102.8284421 -3.338472289 2.24936561e-21)
(101.7026542 -2.44954447 -3.426670067e-20)
(100.59426 -1.705475649 8.3618954e-21)
(100.0994192 -1.160069475 0)
(99.79282742 -0.6760940301 3.868632195e-21)
(99.63689064 -0.2228293431 0)
(101.4293274 -0.1964091686 6.799806263e-21)
(101.3707635 -0.5927439075 1.073657576e-19)
(101.2578112 -1.001574165 -2.162321548e-19)
(101.0717903 -1.451999543 -4.632278337e-22)
(100.7406462 -1.773092748 -1.708842866e-21)
(100.3433505 -2.272941784 0)
(99.82538865 -2.893797859 -1.105833591e-19)
(99.13735477 -3.506545535 9.063303624e-19)
(98.01120104 -4.455832115 8.310450389e-19)
(96.44139324 -5.681235859 -2.286366136e-19)
(94.51418532 -7.221551479 0)
(92.49239522 -8.763611128 -1.460472186e-18)
(104.0243438 -29.74633705 9.840654636e-20)
(107.8922581 -19.38813736 3.308642084e-19)
(107.603187 -13.7459626 -6.579726583e-19)
(106.2990025 -9.987458975 1.006455224e-18)
(104.8334446 -7.362257894 6.596486787e-19)
(103.3746578 -5.427208455 1.508449295e-19)
(101.7840693 -3.902565852 -6.796166778e-20)
(100.9082263 -2.885182231 0)
(99.98289409 -1.981984177 0)
(99.57273937 -1.341191791 1.202925844e-20)
(99.31049787 -0.7829212938 2.222498831e-21)
(99.17535205 -0.2579671414 -7.190666078e-21)
(101.8172916 -0.2123207822 0)
(101.7684379 -0.6419895593 0)
(101.6747112 -1.083605165 0)
(101.5193298 -1.568401934 0)
(101.2240228 -1.939800892 0)
(100.8888871 -2.491385957 0)
(100.4723415 -3.169746895 0)
(99.90818241 -3.836774299 -1.136828898e-20)
(98.99276015 -4.847807842 8.373214675e-19)
(97.73410232 -6.145703646 -5.687388274e-20)
(96.22940633 -7.852468357 0)
(94.69162311 -10.14102538 -7.014918958e-19)
(97.42284146 -19.39442052 4.622468752e-20)
(102.9093116 -15.96646546 -5.401952053e-19)
(103.877504 -12.54712601 0)
(103.5521707 -9.753001189 -2.358759672e-19)
(102.7882882 -7.527585281 -2.651467666e-19)
(101.8189844 -5.722881157 -5.835064297e-20)
(100.6756281 -4.187151497 -9.341124475e-20)
(100.0362188 -3.14089261 -3.524994859e-20)
(99.30999351 -2.150700352 -1.954975591e-20)
(98.98312991 -1.461777638 1.919505631e-20)
(98.76844818 -0.8559590832 0)
(98.65645398 -0.281990447 1.92236805e-20)
(102.2307754 -0.2228718937 0)
(102.1925548 -0.6748647064 0)
(102.120445 -1.138115704 0)
(101.997877 -1.639085329 0)
(101.7394161 -2.040620678 0)
(101.4779344 -2.617095049 0)
(101.1637199 -3.301678282 -3.206521403e-20)
(100.7320839 -3.986698746 9.017336112e-20)
(100.0490495 -4.966926114 -3.593867219e-19)
(99.10834655 -6.205122643 0)
(98.11848663 -7.790367964 -3.713218741e-19)
(97.35251697 -9.98259647 8.495272331e-20)
(98.91605776 -12.74545355 1.299841556e-19)
(100.8860412 -12.35787038 1.218057215e-19)
(101.5299324 -10.72220427 -5.040632948e-19)
(101.4730914 -8.898135589 0)
(101.0480745 -7.189331871 1.953928005e-19)
(100.4082148 -5.664882721 -2.452278182e-20)
(99.5978047 -4.240874032 0)
(99.16164566 -3.239910434 0)
(98.61198965 -2.222823614 -3.608608135e-20)
(98.36067939 -1.523290341 1.78049632e-20)
(98.19194238 -0.8948767512 7.477803038e-22)
(98.10245749 -0.2948668273 -1.321874006e-20)
(102.659757 -0.2282308128 0)
(102.631759 -0.6913984853 0)
(102.5804756 -1.165169571 0)
(102.4894125 -1.668707655 0)
(102.2666814 -2.085901896 0)
(102.071732 -2.663718241 0)
(101.846036 -3.327227727 -6.097583372e-22)
(101.5249037 -3.997054644 3.262579918e-19)
(101.03663 -4.882014345 -6.128500638e-19)
(100.3441095 -5.950364776 0)
(99.64238483 -7.194139362 -1.402894879e-19)
(96.94961993 -8.339934533 -1.780506385e-20)
(99.78131212 -9.855757378 0)
(100.18919 -9.808402405 2.782100116e-20)
(100.2215262 -9.007258407 0)
(100.0216682 -7.859993081 -1.096236229e-19)
(99.67305446 -6.593582054 -2.038078849e-19)
(99.20689341 -5.368256386 0)
(98.61938163 -4.123041579 -2.987168474e-20)
(98.33566282 -3.215083522 4.58377146e-20)
(97.9208605 -2.216944394 1.117077703e-20)
(97.73319537 -1.533824445 1.909619436e-20)
(97.60398402 -0.9036038197 -2.168215165e-20)
(97.53401503 -0.2978068237 0)
(103.0946414 -0.2289849031 0)
(103.0756573 -0.6933789401 0)
(103.0422774 -1.167621414 0)
(102.9785743 -1.662779658 0)
(102.7884699 -2.083240846 0)
(102.6495354 -2.64419208 0)
(102.4926721 -3.267434575 0)
(102.2494642 -3.897376975 8.569332123e-21)
(101.8913253 -4.665558508 -1.103120797e-21)
(101.3404291 -5.523364958 5.803668827e-20)
(100.7236479 -6.432406747 1.711218109e-19)
(96.8895083 -6.991166369 -1.417291397e-19)
(100.2869537 -8.037585878 0)
(99.92733447 -8.048268203 -5.498506004e-21)
(99.47176277 -7.600236147 0)
(99.04179884 -6.841027166 5.062806555e-20)
(98.62274608 -5.912893493 0)
(98.22174789 -4.955112375 0)
(97.76890337 -3.90297386 0)
(97.57775678 -3.099224393 0)
(97.26032525 -2.151971747 3.841265408e-20)
(97.12195702 -1.503519405 -3.592360352e-20)
(97.02339541 -0.8874973872 -2.436815929e-21)
(96.96870951 -0.2929333193 2.444953279e-21)
(103.5269147 -0.2258893268 0)
(103.5154534 -0.6832628449 0)
(103.4964276 -1.149581953 0)
(103.4547603 -1.62753019 0)
(103.2928175 -2.040669586 0)
(103.1966983 -2.572685833 0)
(103.0881065 -3.145793353 0)
(102.8891864 -3.721357474 0)
(102.592608 -4.373251269 5.111213807e-21)
(102.0943654 -5.049621264 -5.088356692e-20)
(101.4781477 -5.717054616 1.448048398e-22)
(96.48430437 -5.890802108 2.994247932e-20)
(100.58296 -6.760023429 -3.044417251e-20)
(99.79134695 -6.766882514 9.761677041e-22)
(98.99232309 -6.472782487 1.081528234e-20)
(98.34696005 -5.934867914 -3.298186325e-23)
(97.83187284 -5.244407397 0)
(97.43043733 -4.498836462 0)
(97.03823628 -3.620925715 0)
(96.89493559 -2.919147855 0)
(96.64318269 -2.043761781 0)
(96.53987552 -1.440744692 0)
(96.46402824 -0.8533070631 0)
(96.42051099 -0.2827938671 0)
(103.9497284 -0.2197187737 0)
(103.9442188 -0.6635692664 0)
(103.9359588 -1.115418622 0)
(103.9107316 -1.570082725 0)
(103.7710993 -1.967952793 0)
(103.7046652 -2.464334003 0)
(103.6246396 -2.983805922 0)
(103.4473485 -3.499416094 0)
(103.1610858 -4.051272135 0)
(102.6589365 -4.589616226 0)
(102.0069977 -5.091643469 -2.01153308e-21)
(95.87961324 -5.028323951 3.82231857e-21)
(100.7433627 -5.799907807 -4.167795557e-22)
(99.67730153 -5.784641485 9.708892068e-23)
(98.64595546 -5.560861993 0)
(97.83512412 -5.160325822 0)
(97.22794352 -4.636502071 0)
(96.79320212 -4.045344205 0)
(96.41852367 -3.312175429 0)
(96.29135222 -2.706246148 0)
(96.076874 -1.910625837 0)
(95.99543804 -1.357410625 0)
(95.93410008 -0.8060860317 0)
(95.899034 -0.2678128856 0)
(104.3578899 -0.2112516551 0)
(104.3567465 -0.6368007359 0)
(104.3557789 -1.069463017 0)
(104.3416277 -1.49735882 0)
(104.2184771 -1.874746872 0)
(104.1699974 -2.332550445 0)
(104.1029502 -2.800619859 0)
(103.9294078 -3.256371375 0)
(103.6298747 -3.722803715 0)
(103.096671 -4.158530212 0)
(102.3883667 -4.54854934 0)
(95.58947691 -4.393301582 0)
(100.8210372 -5.043441951 0)
(99.5720823 -5.004314817 0)
(98.38083158 -4.821326535 0)
(97.44564955 -4.509947365 0)
(96.75467649 -4.098808426 0)
(96.27367678 -3.620962116 0)
(95.89239596 -3.004119532 0)
(95.7613661 -2.481911252 0)
(95.56355348 -1.765971317 0)
(95.49325969 -1.262926993 0)
(95.43969261 -0.75168004 0)
(95.40970278 -0.25024263 0)
(104.7477426 -0.2012331768 0)
(104.7494737 -0.6053278564 0)
(104.7526308 -1.015722304 0)
(104.7447731 -1.415436311 0)
(104.632929 -1.769358054 0)
(104.5926932 -2.188469314 0)
(104.5261697 -2.610163675 0)
(104.3450643 -3.009483152 0)
(104.0189525 -3.40524588 0)
(103.4472489 -3.76285796 0)
(102.6654921 -4.071733914 0)
(95.59487161 -3.894655115 0)
(100.8514431 -4.42579978 -5.901429443e-35)
(99.47301473 -4.372472043 0)
(98.16717874 -4.215232872 0)
(97.13700899 -3.962270989 0)
(96.37410596 -3.629406517 0)
(95.84542702 -3.236315322 0)
(95.44258273 -2.712349702 0)
(95.29654102 -2.260108249 0)
(95.10137737 -1.619182517 0)
(95.03412877 -1.164377665 0)
(94.98320635 -0.694345421 0)
(94.95582105 -0.2316115693 0)
(105.1169835 -0.1903185197 0)
(105.1202922 -0.571232826 0)
(105.1248906 -0.957684835 0)
(105.1192834 -1.329204628 0)
(105.014631 -1.65845359 0)
(104.9750281 -2.040735535 0)
(104.899831 -2.420601719 0)
(104.7042712 -2.769852021 0)
(104.3449856 -3.108001139 0)
(103.7341308 -3.406287362 0)
(102.8624612 -3.654379124 0)
(95.78327462 -3.487009323 0)
(100.8511358 -3.912812266 0)
(99.3782073 -3.851136348 0)
(97.98740298 -3.711486886 0)
(96.88382082 -3.498763073 0)
(96.06055758 -3.221889152 0)
(95.48686443 -2.892331297 0)
(95.05561091 -2.443179878 0)
(94.88819224 -2.049185343 0)
(94.68652064 -1.476655318 0)
(94.61667135 -1.066769692 0)
(94.5647829 -0.637130704 0)
(94.53813773 -0.2129402405 0)
(105.4644952 -0.1790430373 0)
(105.4683151 -0.5362109107 0)
(105.4722383 -0.8982127853 0)
(105.4656494 -1.242437613 0)
(105.3649464 -1.547100954 0)
(105.3203775 -1.895354998 0)
(105.2303449 -2.23756885 0)
(105.0162043 -2.543928545 0)
(104.6214143 -2.835401873 0)
(103.9738615 -3.088415166 0)
(102.9977415 -3.289607204 0)
(96.07977915 -3.146031014 0)
(100.8306443 -3.48152954 -7.9614376e-35)
(99.28691607 -3.415082117 0)
(97.83134209 -3.288336634 0)
(96.67015697 -3.10461332 0)
(95.7965799 -2.868992663 0)
(95.18197546 -2.587892125 0)
(94.72023685 -2.199242505 0)
(94.52824434 -1.853788037 0)
(94.31444801 -1.342440862 0)
(94.23831624 -0.9734109188 0)
(94.18307021 -0.5820940674 0)
(94.15583453 -0.1949122887 0)
(105.7901275 -0.1678249197 0)
(105.7936109 -0.501561873 0)
(105.7952832 -0.8395010782 0)
(105.7852852 -1.157949482 0)
(105.6859667 -1.438947775 0)
(105.6325484 -1.756373508 0)
(105.5237229 -2.064486041 0)
(105.2888125 -2.335226455 0)
(104.8588224 -2.588846978 0)
(104.177788 -2.806956981 0)
(103.0857749 -2.971074479 0)
(96.43247144 -2.855549506 0)
(100.7968213 -3.115831146 0)
(99.19881808 -3.046859573 0)
(97.69274219 -2.930121105 0)
(96.48565753 -2.768140613 0)
(95.57012997 -2.56377887 0)
(94.91904426 -2.320355762 0)
(94.42709491 -1.980999706 0)
(94.2095479 -1.676082045 0)
(93.98050553 -1.218829201 0)
(93.89586218 -0.8863418805 0)
(93.83577315 -0.5305451899 0)
(93.80704022 -0.1779666455 0)
(106.0944361 -0.1569806349 0)
(106.0969268 -0.4682428159 0)
(106.0952251 -0.7831478449 0)
(106.0800945 -1.07774071 0)
(105.980199 -1.336506731 0)
(105.9153531 -1.626272254 0)
(105.785838 -1.904098841 0)
(105.528707 -2.145160974 0)
(105.0654493 -2.36817352 0)
(104.3536669 -2.558993192 0)
(103.1380581 -2.693565897 0)
(96.80664096 -2.605817587 0)
(100.7540039 -2.80425726 2.775901981e-35)
(99.11372505 -2.734012105 0)
(97.56755332 -2.625334102 0)
(96.32338745 -2.480196582 0)
(95.37275664 -2.300119213 0)
(94.68947311 -2.086517008 0)
(94.16872932 -1.787647515 0)
(93.92595258 -1.516679938 0)
(93.68018887 -1.106894925 0)
(93.5858377 -0.8066949766 0)
(93.52007969 -0.4832447761 0)
(93.48926626 -0.1623639018 0)
(106.3784686 -0.1467416243 0)
(106.3794735 -0.4369342158 0)
(106.3736311 -0.730267757 0)
(106.3522046 -1.003161266 0)
(106.2502757 -1.24139002 0)
(106.172365 -1.506553272 0)
(106.0213067 -1.758114399 0)
(105.7416294 -1.974098279 0)
(105.2477546 -2.172360673 0)
(104.5071303 -2.341505502 0)
(103.1636119 -2.452465309 0)
(97.17959388 -2.390130448 0)
(100.7048425 -2.538053507 0)
(99.03143145 -2.467235011 0)
(97.45299204 -2.365234323 0)
(96.17850904 -2.23349756 0)
(95.19834346 -2.072695598 0)
(94.48677065 -1.883062463 0)
(93.93915344 -1.617711477 0)
(93.67219799 -1.375256015 0)
(93.40929272 -1.006916028 0)
(93.30474069 -0.7349661489 0)
(93.23295066 -0.4405584785 0)
(93.19971221 -0.1482359114 0)
(106.6436243 -0.1372687446 0)
(106.6427854 -0.4080965904 0)
(106.6323091 -0.6816015684 0)
(106.6038476 -0.9350657083 0)
(106.4987812 -1.154596843 0)
(106.4068608 -1.398090498 0)
(106.2340632 -1.627072762 0)
(105.9323042 -1.821801929 0)
(105.4106876 -2.000010631 0)
(104.6423997 -2.151676079 0)
(103.169359 -2.24361035 0)
(97.53616869 -2.203042894 0)
(100.6512781 -2.310242835 0)
(98.95178581 -2.239424019 0)
(97.34708734 -2.143101976 0)
(96.04755485 -2.022254284 0)
(95.04238246 -1.877014169 0)
(94.30597276 -1.706881573 0)
(93.73356711 -1.469466682 0)
(93.44384231 -1.250996104 0)
(93.16396481 -0.9186817155 0)
(93.04917095 -0.6712276639 0)
(92.97128922 -0.4025805017 0)
(92.93544775 -0.1356250026 0)
(106.891557 -0.128666514 0)
(106.8886218 -0.3820191894 0)
(106.8732225 -0.6376042899 0)
(106.8372976 -0.8739345651 0)
(106.7282693 -1.076646209 0)
(106.6218713 -1.30122617 0)
(106.4275597 -1.510860485 0)
(106.104679 -1.687633413 0)
(105.5580581 -1.849565142 0)
(104.762731 -1.986970345 0)
(103.1603952 -2.063400368 0)
(97.86724033 -2.040484908 0)
(100.5948967 -2.115508688 0)
(98.87467619 -2.045081857 0)
(97.24836507 -1.953659697 0)
(95.92792168 -1.841791009 0)
(94.90142325 -1.709266595 0)
(94.14316152 -1.555134113 0)
(93.54800443 -1.341106746 0)
(93.23704809 -1.14281668 0)
(92.94069769 -0.8416917799 0)
(92.815893 -0.6152849578 0)
(92.73204214 -0.369231235 0)
(92.69352853 -0.1245153461 0)
(107.1240307 -0.1209985373 0)
(107.1188287 -0.3588676693 0)
(107.0983643 -0.5985273043 0)
(107.054769 -0.8200042508 0)
(106.9411554 -1.007750939 0)
(106.8201396 -1.215993418 0)
(106.6046926 -1.408836458 0)
(106.2620159 -1.570840121 0)
(105.6928164 -1.719514415 0)
(104.8706916 -1.845222154 0)
(103.1404697 -1.9089804 0)
(98.16860589 -1.900101343 0)
(100.5367223 -1.949912243 0)
(98.79993349 -1.879970373 0)
(97.15567503 -1.792759252 0)
(95.8176029 -1.688348464 0)
(94.77277227 -1.566282331 0)
(93.99520555 -1.425328964 0)
(93.37918255 -1.230912746 0)
(93.04851942 -1.049562662 0)
(92.73634485 -0.7753234349 0)
(92.60190637 -0.5668008575 0)
(92.5123068 -0.3403350459 0)
(92.47112036 -0.1148584401 0)
(107.3429689 -0.1142970047 0)
(107.3353802 -0.3387164428 0)
(107.3098014 -0.564474744 0)
(107.2584812 -0.7733201884 0)
(107.1397242 -0.9479158914 0)
(107.0041772 -1.142169153 0)
(106.7682612 -1.320374037 0)
(106.4069777 -1.470524812 0)
(105.8173285 -1.608423755 0)
(104.968402 -1.724541286 0)
(103.1124543 -1.777956581 0)
(98.43902786 -1.780128589 0)
(100.4773134 -1.810184956 0)
(98.72729605 -1.740695018 0)
(97.06805307 -1.657069005 0)
(95.71497572 -1.558860197 0)
(94.65424039 -1.445410087 0)
(93.85950138 -1.315290355 0)
(93.22433319 -1.137316548 0)
(92.87538051 -0.9701116589 0)
(92.54800576 -0.7188998229 0)
(92.40437608 -0.5253707279 0)
(92.30928449 -0.3156660699 0)
(92.2654565 -0.1065871183 0)
(107.5500146 -0.1085823295 0)
(107.5399752 -0.321596531 0)
(107.5092971 -0.5354583248 0)
(107.4503038 -0.7339126499 0)
(107.3260835 -0.8970028965 0)
(107.1762414 -1.079372374 0)
(106.9207759 -1.245198838 0)
(106.5418338 -1.385753962 0)
(105.9335432 -1.514956949 0)
(105.0576402 -1.623251616 0)
(103.0785927 -1.668249965 0)
(98.67881811 -1.679020082 0)
(100.417052 -1.693588876 -4.733059138e-36)
(98.65648222 -1.624508412 0)
(96.98467352 -1.543904723 0)
(95.61869827 -1.450833571 0)
(94.54402495 -1.344473079 0)
(93.73381088 -1.223340187 0)
(93.08107022 -1.059030492 0)
(92.71509058 -0.9034171021 0)
(92.37324727 -0.6718239956 0)
(92.22087487 -0.4905789603 0)
(92.12055581 -0.2949963738 0)
(92.0741488 -0.09963494491 0)
(107.7479361 -0.1038413541 0)
(107.7353331 -0.3074738134 0)
(107.6995352 -0.5114208435 0)
(107.6329129 -0.701493668 0)
(107.5022627 -0.8548367111 0)
(107.3383605 -1.02719863 0)
(107.0646169 -1.18359186 0)
(106.6685488 -1.315490482 0)
(106.0431005 -1.437897968 0)
(105.1398923 -1.539868799 0)
(103.0408145 -1.578080063 0)
(98.88919856 -1.59543838 0)
(100.3562266 -1.597887678 0)
(98.58722805 -1.529188456 0)
(96.90482263 -1.45110484 0)
(95.52764011 -1.362245153 0)
(94.44064962 -1.261665192 0)
(93.61658696 -1.148124029 0)
(92.94710349 -0.995040923 0)
(92.5653819 -0.848602659 0)
(92.20912265 -0.6333614061 0)
(92.04843009 -0.4620301776 0)
(91.94308261 -0.2780792121 0)
(91.89409823 -0.09391891089 0)
(107.9352711 -0.1001377847 0)
(107.9202117 -0.2964493787 0)
(107.879392 -0.4923751155 0)
(107.8053492 -0.6766864786 0)
(107.6701165 -0.8211081942 0)
(107.4923922 -0.9854071334 0)
(107.2009515 -1.135015742 0)
(106.7890606 -1.259101864 0)
(106.1474145 -1.376204123 0)
(105.2164171 -1.473104483 0)
(103.000622 -1.505866105 0)
(99.07207971 -1.528116383 0)
(100.2951127 -1.521223673 0)
(98.51929554 -1.452929294 0)
(96.82786022 -1.376923752 0)
(95.44079401 -1.291448023 0)
(94.3427698 -1.195447069 0)
(93.50616495 -1.08762809 0)
(92.82065622 -0.9439365447 0)
(92.42408662 -0.8045752742 0)
(92.05569923 -0.6036105107 0)
(91.88714076 -0.4393949659 0)
(91.77701427 -0.2648123672 0)
(91.72563132 -0.08943438257 0)
(108.1263101 -0.09727589791 0)
(108.1082162 -0.2882010359 0)
(108.0620162 -0.4781036153 0)
(107.9792334 -0.656287718 0)
(107.8323161 -0.795898746 0)
(107.6399822 -0.954122137 0)
(107.3314069 -1.098484593 0)
(106.9047011 -1.215999582 0)
(106.2476225 -1.329011924 0)
(105.2882688 -1.421889616 0)
(102.9590667 -1.45029889 0)
(99.22995607 -1.476215814 0)
(100.2339882 -1.462210805 0)
(98.45249011 -1.394348318 0)
(96.75321853 -1.320013495 0)
(95.35725974 -1.237168333 0)
(94.24914349 -1.144676301 0)
(93.40068188 -1.041120104 0)
(92.70032427 -0.9048488516 0)
(92.2895225 -0.7716460749 0)
(91.90309004 -0.5795752276 0)
(91.72594063 -0.422252556 0)
(91.61085251 -0.254754594 0)
(91.55659707 -0.08595334816 0)
(108.2748637 -0.09590733179 0)
(108.2550405 -0.2837930978 0)
(108.2047927 -0.4699486336 0)
(108.1174874 -0.6485391951 0)
(107.9869609 -0.7783848079 0)
(107.7823084 -0.9326172056 0)
(107.4572091 -1.07359725 0)
(107.0166614 -1.185610457 0)
(106.3446809 -1.295565655 0)
(105.3563778 -1.38533569 0)
(102.9169583 -1.41037916 0)
(99.36580432 -1.439257162 0)
(100.1730421 -1.419930985 0)
(98.38659822 -1.352465355 0)
(96.68035076 -1.279376201 0)
(95.27621042 -1.198447229 0)
(94.15870027 -1.108501027 0)
(93.29902837 -1.007997084 0)
(92.58467219 -0.8773221292 0)
(92.16047639 -0.748765152 0)
(91.78143641 -0.5679125266 0)
(91.5991155 -0.4116726023 0)
(91.48030507 -0.2488700519 0)
(91.4244705 -0.084077333 0)
(108.5628329 -0.09417021625 0)
(108.5388109 -0.2798976203 0)
(108.4803569 -0.463258982 0)
(108.3761521 -0.6342444527 0)
(108.1319754 -0.7700661027 0)
(107.9138809 -0.9214719873 0)
(107.5742416 -1.060368195 0)
(107.1258167 -1.167649245 0)
(106.4392534 -1.275171339 0)
(105.4215886 -1.362641861 0)
(102.8751342 -1.385571209 0)
(99.48260299 -1.417183457 0)
(100.1124943 -1.393875128 0)
(98.32144056 -1.326670863 0)
(96.6087712 -1.25432834 0)
(95.19693021 -1.174596697 0)