/*--------------------------------*- C++ -*----------------------------------*\
| =========                 |                                                 |
| \\      /  F ield         | OpenFOAM: The Open Source CFD Toolbox           |
|  \\    /   O peration     | Version:  v1912                                 |
|   \\  /    A nd           | Website:  www.openfoam.com                      |
|    \\/     M anipulation  |                                                 |
\*---------------------------------------------------------------------------*/
FoamFile
{
    version     2.0;
    format      ascii;
    class       surfaceScalarField;
    location    "1.9";
    object      meshPhi;
}
// * * * * * * * * * * * * * * * * * * * * * * * * * * * * * * * * * * * * * //

dimensions      [0 3 -1 0 0 0 0];
oriented        oriented;


internalField   nonuniform List<scalar> 
25162
(
0
0
0
0
0
0
0
0
0
0
0
0
0
0
0
0
0
0
0
0
0
0
0
0
0
0
0
0
0
0
0
0
0
0
0
0
0
0
0
0
0
0
0
0
0
0
0
0
0
0
0
0
0
0
0
0
0
0
0
0
0
0
0
0
0
0
0
0
0
0
0
0
0
0
0
0
0
0
0
0
0
0
0
0
0
0
0
0
0
0
0
0
0
0
0
0
0
0
0
0
0
0
0
0
-4.452849488e-09
4.047889354e-08
-4.533212427e-07
0
9.492653063e-09
3.854104684e-07
0
0
0
0
0
0
0
0
0
0
0
0
0
0
0
0
0
0
0
0
0
0
0
0
0
0
0
0
0
0
0
0
0
0
0
0
0
0
0
0
0
0
0
0
0
0
0
0
0
0
0
0
0
0
0
0
0
0
0
0
0
0
0
0
0
0
2.098534127e-08
-5.738856815e-07
-1.849731749e-06
3.620792737e-06
7.018506848e-06
-3.213281974e-05
-1.581645784e-05
4.546481244e-05
9.366029109e-06
-8.463216066e-05
-1.621576455e-05
9.499433715e-05
-1.065677728e-06
-0.0001107282031
1.682979369e-06
0.0001098388188
-1.008324457e-05
-8.871697729e-05
1.829294132e-05
7.656515503e-05
-4.844199625e-06
-3.418509604e-05
1.350909854e-05
2.12639465e-05
0
-6.203994083e-07
2.941527113e-07
0
0
0
0
0
0
0
0
0
0
0
0
0
0
0
0
0
0
0
0
0
0
0
0
0
0
0
0
0
0
0
0
0
0
0
0
0
0
0
0
0
0
0
0
0
0
0
0
0
0
0
9.982573564e-07
-1.034563422e-06
-4.861037662e-06
7.386002026e-06
3.128756031e-05
-6.361526924e-05
-4.690779883e-05
9.065315182e-05
5.73993322e-05
-0.000181285055
-7.447528247e-05
0.000211468584
4.462979711e-05
-0.0002902555936
-5.572234547e-05
0.0003102371574
-3.535003312e-06
-0.0003437242577
3.975003865e-06
0.000344851286
-5.382485209e-05
-0.000315651009
6.783441842e-05
0.0002952644514
-6.341769996e-05
-0.0002082381881
8.633307187e-05
0.000173643335
-2.489374598e-05
-7.225591658e-05
4.261684191e-05
4.467910866e-05
0
-1.044001095e-06
7.850738271e-07
0
0
0
0
0
0
0
0
0
0
0
0
0
0
0
0
0
0
0
0
0
0
0
0
0
0
0
0
0
0
0
0
0
0
0
0
0
0
0
0
0
0
0
0
0
-3.338585091e-07
3.155086463e-07
3.466667453e-05
-3.764216628e-05
-4.781856713e-05
6.450997616e-05
0.0001010043527
-0.0001707291601
-0.0001195494661
0.0002104675229
0.0001283020722
-0.0003293170794
-0.0001457001651
0.0003657157446
8.902104473e-05
-0.0004543790095
-9.897872887e-05
0.0004754566509
-4.419364334e-06
-0.0005111528797
4.308155732e-06
0.0005139927303
-0.0001084944003
-0.0004938282403
0.0001197586881
0.0004763702118
-0.0001627891463
-0.000387659833
0.0001877934742
0.0003471803329
-0.0001166437716
-0.0002103832673
0.0001468211913
0.0001666656384
-2.608005154e-05
-4.978476886e-05
4.200811494e-05
2.444847728e-05
0
0
0
0
0
0
0
0
0
0
0
0
0
0
0
0
0
0
0
0
0
0
0
0
0
0
0
0
0
0
0
0
0
0
0
0
0
0
0
0
0
0
9.430744947e-06
-3.629242261e-06
-1.490659215e-05
1.550394633e-05
9.432480387e-05
-9.04622946e-05
-0.0001081444929
0.0001246772668
0.0001731327156
-0.0002428706047
-0.0001902510477
0.0002837521614
0.0001953190992
-0.0003936206224
-0.0002061540667
0.0004205190118
0.0001216229791
-0.0004812185094
-0.0001266535595
0.0004912554171
-3.661504222e-06
-0.0005010936911
3.518442051e-06
0.0005017125172
-0.0001409388285
-0.0004992784644
0.0001422545096
0.0004942789497
-0.0002474643177
-0.0004515134006
0.0002590407551
0.0004265002036
-0.0002408151383
-0.0003045388838
0.0002682444053
0.0002570112163
-0.000102819884
-0.0001158017545
0.0001245775338
7.647147564e-05
-4.951208475e-06
-2.438188191e-06
4.344902989e-06
7.280833612e-08
0
0
0
0
0
0
0
0
0
0
0
0
0
0
0
0
0
0
0
0
0
0
0
0
0
0
0
0
0
0
0
0
0
0
0
-2.94435169e-07
1.985283659e-09
6.879192838e-08
3.189689839e-05
-1.352329892e-05
-3.779172801e-05
3.002174411e-05
0.0001379187027
-0.0001073260559
-0.0001498003335
0.0001445079417
0.0002306097497
-0.0002480480055
-0.0002396849352
0.0002806352696
0.0002360523577
-0.0003593969215
-0.0002459747847
0.0003780012784
0.0001286101942
-0.000394145506
-5.466116279e-05
-6.874401159e-05
0.0001969946511
0.000191945835
-0.0001967343612
2.236509926e-06
-2.213336923e-06
0.0001967111882
-0.0001994301
-0.0001349785626
0.0003922174371
-0.0001941900086
7.377069252e-05
6.261054148e-05
-0.0003818099244
-0.0002883893237
0.0002902713668
0.0003703340675
-0.0003312477628
-0.0002932467614
0.0003423816243
0.000259648701
-0.0001840446143
-0.0001414266613
0.0002043718013
0.0001032725221
-1.991889558e-05
-2.088114077e-05
2.748191505e-05
6.202072702e-06
0
0
0
0
0
0
0
0
0
0
0
0
0
0
0
0
0
0
0
0
0
0
0
0
0
0
0
0
0
0
0
0
0
1.233428672e-06
0
-2.641523849e-06
4.859850406e-07
6.409985625e-07
4.949875314e-05
-1.568461415e-05
-5.087487189e-05
3.056166215e-05
0.0001682031333
-9.623477528e-05
-0.0001704579717
0.0001223693008
0.0002597540108
-0.0001990345373
-0.00026227568
0.000220904243
0.000260141632
-0.0002637388868
-0.0002622155066
0.0002681589299
7.118915209e-05
-0.0001396507548
-7.106167658e-05
0.0001395232793
-0.0001386245019
-6.670977344e-05
6.692469377e-05
0.0001384095816
-0.0002676932485
-0.0002884322891
0.0002871725569
0.0002644227871
-0.0003784068776
-0.0002220694496
0.0003831197304
0.000198886403
-0.0002465437652
-0.0001161183368
0.0002530030765
8.846591278e-05
-2.432702969e-05
-4.332561884e-05
5.040618807e-05
1.049268407e-05
0
0
0
0
0
0
0
0
0
0
0
0
0
0
0
0
0
0
0
0
0
0
0
0
0
0
0
0
0
0
0
0
0
3.432407322e-06
0
-4.325857815e-06
7.149642345e-07
6.38570117e-07
5.795085358e-05
-1.056951489e-05
-5.942453388e-05
1.934954644e-05
0.0001792765944
-5.659137717e-05
-0.0001810231551
7.110119551e-05
0.0002700709786
-0.0001133769887
-0.0002715163191
0.0001251232389
0.0002652164936
-0.00014598077
-0.000265636738
0.0001469653882
7.171706415e-05
-7.716886575e-05
-7.170579441e-05
7.7157596e-05
-7.764154067e-05
-6.73731167e-05
6.740811273e-05
7.760654465e-05
-0.0001476958504
-0.0002837702723
0.0002829673577
0.0001469309678
-0.0003938676717
-0.000127635785
0.0003955895192
0.000116063945
-0.0002762912037
-7.172812441e-05
0.0002808575012
5.607916985e-05
-1.647031931e-05
-5.950632758e-05
6.249089737e-05
7.918458615e-06
0
0
0
0
0
0
0
0
0
0
0
0
0
0
0
0
0
0
0
0
0
0
0
0
0
0
0
0
0
0
0
0
0
5.186350286e-06
0
-6.360967686e-06
1.874984153e-07
-3.274450826e-08
6.305840162e-05
-1.97404867e-06
-6.451294968e-05
3.394252547e-06
0.0001852149532
-9.238860455e-06
-0.0001868951063
1.164994549e-05
0.0002748641551
-1.96407147e-05
-0.0002762458384
2.22234535e-05
0.0002664568876
-2.762584187e-05
-0.0002667425793
2.794277308e-05
7.158992715e-05
-1.756048703e-05
-7.156578976e-05
9.689902491e-06
7.846447153e-06
-1.740832619e-05
-6.731721453e-05
6.728440894e-05
1.744113178e-05
-2.779123045e-05
-0.0002830338912
0.000283422213
2.671582062e-05
-0.0003930408771
-2.118163915e-05
0.000391310796
1.88334207e-05
-0.0002773215255
-1.137463051e-05
0.0002751777961
8.95702332e-06
-2.825381693e-06
-6.04453128e-05
5.949963784e-05
1.402890138e-06
0
0
0
0
0
0
0
0
0
0
0
0
0
0
0
0
0
0
0
0
0
0
0
0
0
0
0
0
0
0
0
0
0
7.633599659e-06
0
-9.081947076e-06
-1.008998935e-06
-1.452811354e-06
6.901384507e-05
8.871600006e-06
-7.058158778e-05
-1.548582231e-05
0.0001920222016
4.22787205e-05
-0.0001937882562
-5.20453382e-05
0.0002804827156
7.740011857e-05
-0.0002819548057
-8.332737533e-05
0.0002674581439
9.081286354e-05
-0.0002676470471
-9.072464295e-05
7.141233605e-05
4.175862923e-05
-7.138767579e-05
-1.996364295e-05
-2.181964654e-05
4.224657315e-05
-6.692802076e-05
6.684093821e-05
-4.215949059e-05
9.187925747e-05
-0.0002856454941
0.0002866040324
-9.227838529e-05
-0.0003795910608
8.388729687e-05
0.0003696465452
-7.302468826e-05
-0.0002525063689
4.282216553e-05
0.0002451766764
-3.240294271e-05
7.999580881e-06
-4.644877144e-05
4.344498656e-05
-3.343154831e-06
0
0
0
0
0
0
0
0
0
0
0
0
0
0
0
0
0
0
0
0
0
0
0
0
0
0
0
0
0
0
0
0
0
1.081095258e-05
0
-1.144810498e-05
-3.281708514e-06
-3.772794847e-06
7.564379034e-05
2.265619035e-05
-7.760030993e-05
-3.812532206e-05
0.0001994359101
9.910547688e-05
-0.0002016078803
-0.0001211343577
0.0002867130188
0.0001786765746
-0.0002885620226
-0.0001922867799
0.0002680625008
0.0002094662326
-0.0002681620604
-0.0002093915827
7.12013609e-05
0.0001010521143
-7.117101192e-05
-4.959635268e-05
-5.148611066e-05
0.000101392294
-6.627134178e-05
6.61598752e-05
-0.0001012808274
0.0002085910058
-0.0002879229926
0.0002879644861
-0.0002039540715
-0.0003484478181
0.0001622145282
0.0003459672132
-0.0001486095164
-0.0002125155576
8.343858573e-05
0.0001970650483
-6.127855414e-05
1.1725279e-05
-2.83894428e-05
2.402343713e-05
-3.71271476e-06
0
0
0
0
0
0
0
0
0
0
0
0
0
0
0
0
0
0
0
0
0
0
0
0
0
0
0
0
0
0
0
0
0
1.577748674e-05
0
-2.014557872e-05
-7.890291805e-06
-9.68205443e-06
8.378082496e-05
4.20889363e-05
-8.854512186e-05
-6.816053527e-05
0.0002089809174
0.0001641601014
-0.0002128930123
-0.0001974555799
0.0002948593548
0.0002815273543
-0.0002936898411
-0.000305204803
0.0002682532792
0.0003283854918
-0.000268405136
-0.0001604002049
-0.0001678334302
3.656127674e-05
7.916378536e-05
-3.658253609e-05
-7.9142526e-05
1.76224183e-06
3.954615292e-05
-1.880529384e-06
-7.943576004e-05
4.000789467e-05
0.0001595865029
-6.550010468e-05
0.0001389157978
-0.0003261931169
0.0001668813211
-7.369040028e-05
-0.000284909127
0.0003170340191
0.0002832608163
-0.000304537532
-0.0003159939084
0.0002302134504
0.0003036947362
-0.0001973558184
-0.0001582109399
9.509023862e-05
0.000147112868
-6.523983705e-05
7.100375176e-06
-9.329504459e-06
7.236368926e-06
-6.822081519e-07
0
0
0
0
0
0
0
0
0
0
0
0
0
0
0
0
0
0
0
0
0
0
0
0
0
0
0
0
0
0
0
0
0
2.287267872e-05
0
-1.90732226e-05
-1.368247439e-05
-1.322213663e-05
9.568050513e-05
6.102948893e-05
-9.328432608e-05
-9.499041523e-05
0.0002203470471
0.0002206652312
-0.0002171303198
-0.0002649611315
0.0003030369202
0.0003815680838
-0.0002991394111
-0.0004099710451
0.0002651149163
0.0004477701081
-0.0002651149163
-0.0002202258806
-0.0002275442275
3.577903194e-05
0.0002202258806
-6.945489925e-05
3.367586731e-05
-0.0001091335706
-0.00011109231
2.151741691e-06
0.0001091335653
-2.151733726e-06
-0.0002202258806
0.0001110923073
0.0004477701081
-0.0001388765833
0.000139448796
-0.0004476477769
-0.0002728017279
0.0004029191723
0.0002675642792
-0.0003753267964
-0.0002612598246
0.0002575184838
0.0002525016895
-0.0002186753617
-0.0001054715326
8.9155347e-05
9.033831824e-05
-5.530378096e-05
1.267458127e-06
-1.336984094e-06
6.011276657e-07
0
0
0
0
0
0
0
0
0
0
0
0
0
0
0
0
0
0
0
0
0
0
0
0
0
0
0
0
0
0
0
0
0
0
1.215625044e-05
0
-4.567174195e-06
-7.700754109e-06
-5.05693363e-06
7.591005079e-05
5.23678188e-05
-6.720424476e-05
-8.694179825e-05
0.0001942034972
0.0002211222544
-0.0001824955035
-0.0002707768302
0.0002721400538
0.0004138497219
-0.0002587543735
-0.0004550430402
0.000255903988
0.0005431555449
-0.0002463717243
-0.0005584997904
6.945489928e-05
0.0005666766947
-0.0001304996202
-0.0005666766947
6.104472091e-05
-4.10966165e-06
0.0005666766947
4.109661655e-06
-0.0005666766947
-0.0001414452574
0.0005602799401
0.0001404247728
-0.0005485321417
-0.0002482493585
0.0004648410858
0.0002374520812
-0.0004210055842
-0.0002031670256
0.0002594439692
0.0001866369079
-0.000202967978
-5.324903556e-05
6.093420859e-05
4.3361881e-05
-3.198681823e-05
0
0
0
0
0
0
0
0
0
0
0
0
0
0
0
0
0
0
0
0
0
0
0
0
0
0
0
0
0
0
0
0
0
0
0
0
0
1.129945856e-07
0
0
-5.079146952e-08
0
3.619096826e-05
2.12986566e-05
-2.570961863e-05
-4.688917815e-05
0.0001372101598
0.000164898617
-0.0001194113744
-0.0002126763446
0.0002086103464
0.0003616494618
-0.0001891699259
-0.0004091481148
0.0002076342308
0.0005306857854
-0.0001916980187
-0.0005616375641
0.0001223048054
0.0006215972749
-0.0001155307998
-0.0006314150047
-3.023931676e-06
0.0006365577237
2.912044949e-06
-0.0006306032944
-0.0001271489837
0.0005832327478
0.0001190355327
-0.0005551028486
-0.000190038059
0.0004289826372
0.0001697996546
-0.0003749088331
-0.0001257729721
0.0001994931008
0.000103758686
-0.0001446910146
-1.685872226e-05
2.553026697e-05
9.784313572e-06
-6.852540641e-06
0
0
0
0
0
0
0
0
0
0
0
0
0
0
0
0
0
0
0
0
0
0
0
0
0
0
0
0
0
0
0
0
0
0
0
0
0
0
0
0
0
0
3.000348942e-06
5.76954206e-08
-5.089001204e-07
-4.274364396e-06
6.290841264e-05
6.984468976e-05
-4.500278213e-05
-0.0001048007032
0.0001252214408
0.0002279828251
-0.0001030050019
-0.0002708568903
0.000137075447
0.0003899479683
-0.0001173879317
-0.0004235764602
8.664499506e-05
0.0004971725333
-7.514951578e-05
-0.000511208324
-3.29101599e-06
0.0005182629151
3.381371487e-06
-0.0005083312888
-8.558344061e-05
0.0004400654127
7.24970222e-05
-0.0004048206719
-0.0001025721911
0.0002703793436
8.041056331e-05
-0.0002204395504
-4.309437881e-05
8.242228953e-05
2.723498874e-05
-4.756173744e-05
-1.296662812e-07
1.917783093e-07
0
0
0
0
0
0
0
0
0
0
0
0
0
0
0
0
0
0
0
0
0
0
0
0
0
0
0
0
0
0
0
0
0
0
0
0
0
0
0
0
0
0
0
0
0
0
0
0
5.832776737e-06
2.172548221e-06
-9.443456761e-07
-9.942611285e-06
4.108573989e-05
6.673432045e-05
-2.463918594e-05
-9.224537969e-05
5.924210524e-05
0.0001716510385
-4.202088693e-05
-0.0001957256505
4.009503707e-05
0.0002494910818
-2.951777822e-05
-0.0002592535103
-2.698758794e-06
0.0002587681897
2.164595262e-06
-0.0002482905536
-3.394973707e-05
0.0001890217451
2.307139066e-05
-0.0001621251107
-2.562572536e-05
7.547345791e-05
1.347507408e-05
-4.955204342e-05
-1.223102166e-06
2.741730351e-06
3.347580108e-09
-2.927155544e-08
0
0
0
0
0
0
0
0
0
0
0
0
0
0
0
0
0
0
0
0
0
0
0
0
0
0
0
0
0
0
0
0
0
0
0
0
0
0
0
0
0
0
0
0
0
0
0
0
0
0
0
0
0
0
1.47082376e-07
0
0
-4.028171831e-07
5.847887601e-06
1.087945595e-05
-9.38856208e-07
-1.68351874e-05
6.126223552e-06
3.292984214e-05
-2.044001172e-06
-3.587156078e-05
-4.845469702e-07
3.37083213e-05
1.457175732e-07
-2.949144253e-05
-2.33714916e-06
1.174264622e-05
1.917237844e-07
-6.451461698e-06
0
0
0
0
0
0
0
0
0
0
0
0
0
0
0
0
0
0
0
0
0
0
0
0
0
0
0
0
0
0
0
0
0
0
0
0
0
0
0
0
0
0
0
0
0
0
0
0
0
0
0
0
0
0
0
0
0
0
0
0
0
0
0
0
0
0
0
0
0
0
0
0
0
0
0
0
0
0
0
0
0
0
0
0
0
0
0
0
0
0
0
0
0
0
0
0
0
0
0
0
0
0
0
0
0
0
0
0
0
0
0
0
0
0
0
0
0
0
0
0
0
0
0
0
0
0
0
0
0
0
0
0
0
0
0
0
0
0
0
0
0
0
0
0
0
0
0
0
0
0
0
0
0
0
0
0
0
0
0
0
0
0
0
0
0
0
0
0
0
0
0
0
0
0
0
0
0
0
0
0
0
0
0
0
0
0
0
0
0
0
0
0
0
0
0
0
0
0
0
0
0
0
0
0
0
0
0
0
0
0
0
0
0
0
0
0
0
0
0
0
0
0
0
0
0
0
0
0
0
0
0
0
0
0
0
0
0
0
0
0
0
0
0
0
0
0
0
0
0
0
0
0
0
0
0
0
0
0
0
0
0
0
0
0
0
0
0
0
0
0
0
0
0
0
0
0
0
0
0
0
0
0
0
0
0
0
0
0
0
0
0
0
0
0
0
0
0
0
0
0
0
0
0
0
0
0
0
0
0
0
0
0
0
0
0
0
0
0
0
0
0
0
0
0
0
0
0
0
0
0
0
0
0
0
0
0
0
0
0
0
0
0
0
0
0
0
0
0
0
0
0
0
0
0
0
0
0
0
0
0
0
0
0
0
0
0
0
0
0
0
0
0
0
0
0
0
0
0
0
0
0
0
0
0
0
0
0
0
0
0
0
0
0
0
0
0
0
0
0
0
0
0
0
0
0
0
0
0
0
0
0
0
0
0
0
0
0
0
0
0
0
0
0
0
0
0
0
0
0
0
0
0
0
0
0
0
0
0
0
0
0
0
0
0
0
0
0
0
0
0
0
0
0
0
0
0
0
0
0
0
0
0
0
0
0
0
0
0
0
0
0
0
0
0
0
0
0
0
0
0
0
0
0
0
0
0
0
0
0
0
0
0
0
0
0
0
0
0
0
0
0
0
0
0
0
0
0
0
0
0
0
0
0
0
0
0
0
0
0
0
0
0
0
0
0
0
0
0
0
0
0
0
0
0
0
0
0
0
0
0
0
0
0
0
0
0
0
0
0
0
0
0
0
0
0
0
0
0
0
0
0
0
0
0
0
0
0
0
0
0
0
0
0
0
0
0
0
0
0
0
0
0
0
0
0
0
0
0
0
0
0
0
0
0
0
0
0
0
0
0
0
0
0
0
0
0
0
0
0
0
0
0
0
0
0
0
0
0
0
0
0
0
0
0
0
0
0
0
0
0
0
0
0
0
0
0
0
0
0
0
0
0
0
0
0
0
0
0
0
0
0
0
0
0
0
0
0
0
0
0
0
0
0
0
0
0
0
0
0
0
0
0
0
0
0
0
0
0
0
0
0
0
0
0
0
0
0
0
0
0
0
0
0
0
0
0
0
0
0
0
0
0
0
0
0
0
0
0
0
0
0
0
0
0
0
0
0
0
0
0
0
0
0
0
0
0
0
0
0
0
0
0
0
0
0
0
0
0
0
0
0
0
0
0
0
0
0
0
0
0
0
0
0
0
0
0
0
0
0
0
0
0
0
0
0
0
0
0
0
0
0
0
0
0
0
0
0
0
0
0
0
0
0
0
0
0
0
0
0
0
0
0
0
0
0
0
0
0
0
0
0
0
0
0
0
0
0
0
0
0
0
0
0
0
0
0
0
0
0
0
0
0
0
0
0
0
0
0
0
0
0
0
0
0
0
0
0
0
0
0
0
0
0
0
0
0
0
0
0
0
0
0
0
0
0
0
0
0
0
0
0
0
0
0
0
0
0
0
0
0
0
0
0
0
0
0
0
0
0
0
0
0
0
0
0
0
0
0
0
0
0
0
0
0
0
0
0
0
0
0
0
0
0
0
0
0
0
0
0
0
0
0
0
0
0
0
0
0
0
0
0
0
0
0
0
0
0
0
0
0
0
0
0
0
0
0
0
0
0
0
0
0
0
0
0
0
0
0
0
0
0
0
0
0
0
0
0
0
0
0
0
0
0
0
0
0
0
0
0
0
0
0
0
0
0
0
0
0
0
0
0
0
0
0
0
0
0
0
0
0
0
0
0
0
0
0
0
0
0
0
0
0
0
0
0
0
0
0
0
0
0
0
0
0
0
0
0
0
0
0
0
0
0
0
0
0
0
0
0
0
0
0
0
0
0
0
0
0
0
0
0
0
0
0
0
0
0
0
0
0
0
0
0
0
0
0
0
0
0
0
0
0
0
0
0
0
0
0
0
0
0
0
0
0
0
0
0
0
0
0
0
0
0
0
0
0
0
0
0
0
0
0
0
0
0
0
0
0
0
0
0
0
0
0
0
0
0
0
0
0
0
0
0
0
0
0
0
0
0
0
0
0
0
0
0
0
0
0
0
0
0
0
0
0
0
0
0
0
0
0
0
0
0
0
0
0
0
0
0
0
0
0
0
0
0
0
0
0
0
0
0
0
0
0
0
0
0
0
0
0
0
0
0
0
0
0
0
0
0
0
0
0
0
0
0
0
0
0
0
0
0
0
0
0
0
0
0
0
0
0
0
0
0
0
0
0
0
0
0
0
0
0
0
0
0
0
0
0
0
0
0
0
0
0
0
0
0
0
0
0
0
0
0
0
0
0
0
0
0
0
0
0
0
0
0
0
0
0
0
0
0
0
0
0
0
0
0
0
0
0
0
0
0
0
0
0
0
0
0
0
0
0
0
0
0
0
0
0
0
0
0
0
0
0
0
0
0
0
0
0
0
0
0
0
0
0
0
0
0
0
0
0
0
0
0
0
0
0
0
0
0
0
0
0
0
0
0
0
0
0
0
0
0
0
0
0
0
0
0
0
0
0
0
0
0
0
0
0
0
0
0
0
0
0
0
0
0
0
0
0
0
0
0
0
0
0
0
0
0
0
0
0
0
0
0
0
0
0
0
0
0
0
0
0
0
0
0
0
0
0
0
0
0
0
0
0
0
0
0
0
0
0
0
0
0
0
0
0
0
0
0
0
0
0
0
0
0
0
0
0
0
0
0
0
0
0
0
0
0
-8.475306785e-05
8.47477153e-05
7.17224167e-05
5.896648642e-05
8.504505445e-05
-5.890806841e-05
-4.167475018e-05
-4.342872228e-05
-5.765217185e-05
-0.0001391849707
5.821264058e-05
-2.4969712e-05
7.161623185e-05
1.340428654e-05
1.153912076e-05
5.902323099e-05
2.492852551e-05
-5.904948387e-05
-1.151279249e-05
-1.338948013e-05
5.908711136e-05
-3.794148802e-05
-3.982067759e-05
3.434073552e-05
7.143326007e-05
-1.625755353e-05
-1.810410601e-05
5.86492664e-05
-3.481034137e-05
-5.868447916e-05
1.83417757e-05
1.650377842e-05
5.899156883e-05
-7.738233475e-06
-9.638430559e-06
9.361329092e-05
7.121424659e-05
-4.589224846e-05
-4.773392816e-05
5.792679247e-05
-9.392661442e-05
-5.805128864e-05
9.405111058e-05
4.233197922e-05
5.856386033e-05
7.738138324e-05
-7.738268909e-05
3.656258259e-05
-3.914576752e-05
-1.610148858e-06
1.592482644e-06
3.916343373e-05
3.868453055e-05
-7.769683261e-05
1.628776378e-06
5.697339011e-05
-0.0001525116704
-5.707466384e-05
0.0001526129442
0.0001015701208
5.774896571e-05
0.0001073776817
-0.0001073776817
3.577903195e-05
-0.0001073776669
-4.230866014e-06
4.230943444e-06
0.0001073775895
3.959298055e-05
-1.65697649e-06
-0.000212800073
9.757449159e-05
6.744710215e-06
3.254945985e-06
0.0001002136229
-0.0004108244728
0.000211822331
0.0002030495583
-4.821700537e-05
-5.604403409e-05
0.0001597114389
5.684845412e-05
-0.0001472526049
0.000147276334
7.116542301e-05
1.071544084e-05
-0.0001967677016
-1.068210047e-05
0.0001467856261
-5.772477463e-05
-0.0001467130233
-5.569691261e-05
-0.0001985930621
5.48598747e-05
7.353878391e-06
2.844280469e-05
-7.312613334e-06
-2.848406975e-05
7.141734576e-05
-1.290478889e-05
-7.165507412e-05
1.314251725e-05
8.502585374e-05
-6.735391599e-05
0.0002431537918
0.0001774520733
-0.0002431032824
-0.0001775136807
-0.0002446197762
-0.0002677799617
0.0002440839512
-5.722213948e-05
5.759761078e-05
0.000266211039
-7.991311252e-05
7.993297691e-05
-2.498957639e-05
8.003722442e-05
-7.717182445e-05
-8.003426572e-05
8.122449471e-06
1.306157502e-05
-8.137443555e-06
-1.304658093e-05
-7.671359513e-06
2.002772871e-05
-1.990766909e-05
7.55129989e-06
2.495452284e-05
-6.734321187e-05
0.0002428788437
5.777299654e-05
-0.0002429492867
-5.77185774e-05
-0.0001476370617
0.0002431007652
6.116355029e-05
-6.105624139e-05
0.0002672554661
-7.973730017e-05
7.975768851e-05
3.43203472e-05
-1.758335737e-05
-7.989024219e-05
-7.150554589e-05
4.675216178e-06
7.153044281e-05
-1.419901488e-06
-3.280211623e-06
-2.24052508e-05
-1.848513266e-06
2.233721922e-05
3.267385144e-06
-1.350840298e-06
2.235588787e-05
5.053585706e-06
-9.661325236e-06
-2.233791238e-05
4.589764045e-06
7.265088056e-06
-2.058005313e-06
-7.303490419e-06
2.096407677e-06
-7.448870335e-06
5.141523586e-06
-5.22514685e-06
7.532493599e-06
-3.474015295e-05
-6.699820917e-05
0.0002432913502
-6.176134459e-05
-0.0002430035217
6.138930658e-05
-2.779050826e-05
0.0002428440809
0.000179824467
-0.0001796775282
0.0002678550866
-7.954054084e-05
7.956365838e-05
9.359017339e-05
4.173239563e-05
-7.971106658e-05
-7.128575191e-05
6.4007033e-05
7.132681691e-05
-3.110185916e-05
-3.294623883e-05
-1.094299799e-05
-1.678087889e-05
1.097029081e-05
1.675358608e-05
2.221717755e-05
-9.7881733e-06
1.999567685e-05
-2.219912472e-05
-1.022555637e-05
1.363831389e-05
-3.328627703e-05
-1.368184781e-05
3.332981095e-05
-1.385562001e-05
-2.033610654e-05
1.379639493e-05
1.044960113e-05
9.945730497e-06
0.0002986322991
0.0002682388532
-0.0001456084077
-0.0001530094654
-7.945318074e-05
-7.558354809e-05
7.94067268e-05
0.0001530113853
0.0001010326528
-7.95210793e-05
-3.658792618e-05
6.260407521e-05
-6.261756311e-05
3.660141408e-05
-1.136713223e-05
-3.141349712e-05
1.130704337e-05
3.147358598e-05
1.120456289e-05
-2.468597299e-05
2.462517572e-05
-1.114376562e-05
3.198447733e-05
-7.722007894e-07
-3.191308817e-05
7.008116292e-07
1.314350641e-05
-6.28739411e-05
-1.316360298e-05
6.289403768e-05
-1.343044561e-05
-4.996825578e-05
4.998720313e-05
1.341149825e-05
0.0003923499812
0.0002666439683
-0.0001810789603
-0.000212800073
-7.787113932e-05
-0.0001054223913
7.787113934e-05
0.000212800073
-8.11876372e-05
0.0001603504995
-7.94522577e-05
-3.656144973e-05
9.228591818e-05
-9.2278419e-05
3.655395055e-05
-1.093899366e-05
-4.673699446e-05
1.10344434e-05
4.664154472e-05
1.141345951e-05
-3.955657972e-05
3.944471631e-05
-1.13015961e-05
0.0002721996359
-0.0002721996359
6.945489927e-05
-0.0002721996359
-1.056490509e-05
1.05649051e-05
0.0002721996359
0.0001091335245
-4.230825228e-06
2.030626132e-05
-5.470738189e-05
-2.027688891e-05
2.754689375e-05
2.713111574e-05
-2.043320788e-05
-4.14163267e-05
2.038360729e-05
2.102086398e-05
2.044506331e-05
-7.137874899e-05
1.896118849e-05
-1.888111151e-05
7.129867201e-05
-5.673789486e-05
5.678634367e-05
2.025781251e-05
2.057212162e-05
-7.750814074e-06
-2.049266706e-05
2.78982268e-05
-2.791502657e-05
7.370678162e-06
-5.868865003e-05
0.0001080359591
5.881634849e-05
-5.322206929e-05
-5.494158831e-05
-1.586800382e-05
-2.731404031e-05
1.596526808e-05
5.511500285e-05
8.041244578e-06
2.061260646e-05
-8.081729418e-06
5.502973233e-06
2.237263696e-05
-1.150916467e-05
5.989442344e-06
2.450638684e-05
2.232944708e-05
-2.451407587e-05
-2.232175805e-05
7.166432682e-05
-4.725642872e-05
-7.164708922e-05
4.723919112e-05
2.024049841e-05
-2.020425422e-05
1.245659922e-05
1.201354342e-05
-1.045799066e-05
5.497972204e-06
1.046299169e-05
-3.947827148e-05
-2.041193291e-05
1.998604725e-05
1.947094926e-05
-2.637892401e-05
2.025881479e-05
1.341397369e-05
1.294663394e-05
5.607425009e-06
-7.365879059e-06
-5.690416284e-06
1.253913246e-05
-1.251425933e-05
8.097576347e-06
-3.058373334e-05
2.47123532e-05
-2.470896514e-05
3.058034528e-05
-8.565302175e-06
8.541444041e-06
1.256299059e-05
7.907963332e-06
5.552449865e-06
-7.852988187e-06
7.971646713e-06
2.009732658e-05
1.305933384e-05
-8.563061004e-06
2.65543269e-05
-3.05883452e-05
-2.654971504e-05
-9.313961338e-06
2.224459772e-05
1.814370632e-05
-8.857165159e-06
-2.293506953e-06
5.148173503e-06
-2.242830043e-05
-2.831616923e-06
1.210431244e-05
-7.148248291e-05
-5.135386191e-06
-6.991989217e-06
1.057808129e-05
-1.059231221e-05
-2.279276033e-06
-1.02886407e-05
-9.340487717e-06
1.031516707e-05
-1.044251203e-05
5.038107074e-06
-1.774375233e-06
1.050394325e-05
-1.844975534e-05
-1.387290332e-05
9.466029274e-06
9.001009375e-06
-2.482828282e-06
2.495416254e-06
7.252500084e-06
-5.886169058e-05
-1.247071384e-05
5.88017185e-05
7.191080167e-06
5.339605742e-06
-1.602928971e-05
2.929495755e-06
1.600766316e-05
-5.390697489e-06
1.588975977e-05
-1.843055043e-05
-1.590896467e-05
7.961187971e-06
5.088298947e-06
1.571492174e-06
-3.538481967e-06
-7.819121499e-06
-8.301183732e-06
-5.039460065e-06
-5.888754467e-05
3.459738196e-06
1.605575958e-06
-2.420243812e-05
1.12584089e-05
2.414859211e-05
-1.724131713e-05
1.720719861e-05
-1.090887946e-05
7.136347978e-05
-7.12793227e-05
-3.477872886e-05
-3.659118012e-05
1.050959359e-05
-1.046084158e-05
-1.729006913e-05
-1.088430906e-05
-2.428353988e-05
1.096541082e-05
-1.027501389e-05
-9.801800111e-06
-1.683586838e-05
1.056458307e-05
-4.813348782e-05
-1.346629182e-05
4.816933403e-05
-3.519027197e-05
3.520371493e-05
1.362487094e-05
-3.903591098e-05
1.148365055e-05
3.896571994e-05
-3.206270606e-05
3.204609793e-05
-1.135052409e-05
6.444298463e-05
-3.658331515e-05
-6.444759566e-05
1.428352802e-06
-3.226698269e-05
3.219101115e-05
-1.352381266e-06
1.098873834e-05
-1.092633827e-05
-3.212510614e-05
-1.072527265e-05
-3.916884031e-05
1.085820198e-05
-1.079703313e-05
-2.477324892e-05
-3.135209964e-05
1.092734087e-05
1.297778402e-06
3.211505173e-05
2.374201868e-05
-0.0001528659675
-2.384891238e-05
7.735656219e-05
7.561629904e-05
-6.465829363e-05
6.466992822e-05
1.313187183e-05
-7.754576002e-07
-3.226372588e-05
-0.0001082198715
-2.131641431e-05
0.0001078121984
1.12548595e-05
1.046922784e-05
-4.723532266e-05
4.71356953e-05
-1.08393663e-05
9.411784148e-05
-3.658199008e-05
-9.409730113e-05
4.843534853e-06
-9.347102864e-05
9.361442927e-05
-4.986935482e-06
9.203336054e-06
-9.197671915e-06
-4.72409868e-05
-1.891363429e-05
-0.0001081125315
9.904479146e-06
8.901815183e-06
-1.060982951e-05
-3.967202287e-05
9.253039304e-06
-4.67866977e-05
-9.172856782e-05
4.654269526e-06
9.191783314e-05
-0.0001755046406
0.0001769640179
0.0002645539251
8.0040674e-05
-8.475651743e-05
7.957168915e-05
-0.0001394167459
-7.980569813e-05
-7.162724302e-05
-0.0001153871662
0.0001153934772
7.1620932e-05
-2.234765738e-05
2.23342187e-05
-5.672445618e-05
2.189789528e-05
-7.152968021e-05
-2.174696406e-05
-1.662267133e-06
3.16200035e-05
-4.894968919e-06
-2.506276745e-05
3.718118013e-05
-2.294931211e-06
-3.774354692e-05
2.857298004e-06
-5.47121033e-05
5.469969385e-05
7.167673627e-05
2.234228496e-05
-2.639176189e-05
2.240909845e-05
-3.947758965e-05
-2.240978028e-05
6.947925899e-06
-1.34234752e-05
-4.108549958e-06
1.058409925e-05
-9.383972461e-05
-6.63582316e-05
0.0002476181878
-0.0001798876585
-0.0002462819291
0.0001799536365
9.1091798e-05
0.0002440686814
5.974173782e-06
-2.815874634e-05
-1.309960261e-06
2.349453282e-05
5.112441518e-06
-5.56192046e-05
-5.177509375e-06
2.807188097e-05
2.761239149e-05
-2.89169439e-06
-2.480645967e-05
2.480797782e-05
2.890176241e-06
-2.605605176e-06
-9.158461902e-05
2.461656374e-06
2.402768227e-05
-0.0001815442583
-2.376373547e-05
0.0001812803115
-0.0001600440383
2.363975637e-05
8.095657815e-05
7.918972242e-05
2.239373898e-05
-4.140096723e-05
-5.470827838e-05
-2.234676089e-05
-0.0001072384963
-7.168918667e-05
0.0001073004399
5.585089573e-06
-2.335880853e-05
-5.616216951e-06
2.338993591e-05
-3.715907667e-05
4.810572682e-06
-5.319596901e-06
3.766810089e-05
-3.251647456e-05
-5.842081422e-06
3.249048541e-05
5.868070578e-06
-1.462423218e-05
1.518773174e-05
7.08538462e-05
-2.88476069e-05
5.714266154e-05
-1.572025376e-05
0.0001155404828
-5.883240403e-05
-5.679052845e-05
-5.860620041e-05
-2.438827141e-05
-2.917298656e-06
2.441387568e-05
-3.215139355e-06
-2.116246363e-05
2.123852049e-05
3.139082499e-06
-5.834963119e-05
-7.180016398e-05
7.190432845e-05
5.824546671e-05
-1.572596803e-05
1.568536484e-05
-3.514966878e-05
1.550056481e-05
-4.809206042e-05
-1.55419922e-05
1.586292672e-05
-2.03092735e-05
-3.327514221e-05
-1.573710285e-05
-6.447511232e-05
-5.843370431e-05
6.455918544e-05
1.223109877e-06
-3.602412007e-05
3.613011689e-05
-1.329106693e-06
4.272688853e-05
-4.852184098e-06
-4.266078764e-05
4.786083206e-06
-4.277991284e-06
-8.481234059e-05
4.188436854e-06
4.263136867e-05
4.227052635e-05
8.472622524e-05
3.927326013e-06
-8.470484418e-05
-3.948707071e-06
-0.0001761314539
3.394899846e-05
-1.395145484e-05
-1.798913755e-05
8.742223239e-05
8.670081539e-05
-7.273422398e-05
7.414080113e-05
1.755461134e-05
7.322261243e-05
-1.276220046e-05
-7.336520087e-05
0.0001731946343
-1.998977827e-05
-8.58889886e-05
-8.532486988e-05
1.125838424e-05
6.750618182e-06
2.95397734e-06
-3.029960921e-06
8.480220882e-05
4.139189109e-05
-4.305415823e-05
-1.35888276e-05
6.328291143e-05
1.37859238e-05
-3.146962897e-05
-3.201037865e-05
-2.814366451e-06
1.176266974e-05
3.244358781e-05
-3.174321847e-06
3.490342681e-06
3.68651593e-05
3.263518913e-05
-3.829552076e-06
6.500548758e-05
-1.373332245e-05
-3.223436076e-05
-3.262663197e-05
-6.91134691e-06
1.64298343e-05
-1.64348543e-05
6.91636691e-06
1.681458229e-05
-6.955144786e-06
-1.677078442e-05
-7.224357436e-06
1.291413719e-06
-1.325269116e-06
7.258212833e-06
1.702940771e-06
-7.252247514e-06
-1.675050694e-06
-1.687143836e-05
3.214621818e-06
-3.048410506e-06
1.670522705e-05
-1.424090156e-05
1.852713871e-05
2.661688751e-06
-1.375661224e-05
-2.771911638e-05
2.772816088e-05
1.374756773e-05
-3.901827599e-06
3.610191742e-06
-1.394926571e-05
3.738998444e-06
-1.692413782e-05
-3.686298981e-06
-3.476443117e-06
4.436099039e-06
-9.677055218e-06
8.717399296e-06
-1.331112308e-05
-4.014179716e-06
-2.587964241e-05
-1.377441857e-05
1.318033818e-05
1.271711058e-05
-2.841935977e-05
1.07170515e-05
2.836704757e-05
-1.06647393e-05
2.828572006e-05
5.701692054e-05
-2.827864481e-05
-5.702399579e-05
-2.82607411e-05
6.262850239e-05
-6.264205567e-05
2.827429438e-05
4.880969352e-06
-6.296962809e-05
-4.935286364e-06
6.30239451e-05
-5.745058822e-05
5.042519962e-06
2.900121002e-05
2.851929975e-05
3.609543708e-05
-1.09213519e-06
-2.902912811e-05
1.0469816e-05
-4.326112505e-05
4.314370285e-05
-1.03523938e-05
2.814395994e-05
8.665038289e-05
-2.816241513e-05
-8.663192769e-05
-2.816735111e-05
9.227564378e-05
2.813580763e-05
-4.587184859e-05
-4.637225173e-05
2.822226463e-05
7.914967835e-05
-2.822029813e-05
-7.915164485e-05
8.479283912e-05
-8.480348153e-05
2.815460236e-05
-4.285274862e-05
1.058032167e-05
4.274224294e-05
-2.916903255e-05
5.355501812e-06
-1.429580114e-05
3.810933188e-05
-2.369349002e-05
5.613584388e-06
2.366499521e-05
-2.027082486e-05
-4.900015934e-05
2.030369259e-05
2.468434261e-05
2.428294901e-05
-6.687051013e-06
6.815086731e-06
-2.382152574e-05
6.694112221e-06
-2.854892403e-05
-7.314220741e-06
-6.676798517e-06
8.453981041e-06
-2.074153844e-05
1.896435592e-05
-2.347410519e-05
-6.571754361e-06
-4.716643466e-05
-2.031195662e-05
2.386241857e-05
2.334514786e-05
-2.008805158e-05
-6.551763952e-05
6.558828161e-05
2.001740949e-05
-6.688288267e-06
6.71569645e-06
-3.254388275e-05
4.620265415e-06
-3.606981657e-05
-5.709525513e-06
2.894063039e-05
6.472579675e-06