/*--------------------------------*- C++ -*----------------------------------*\
| =========                 |                                                 |
| \\      /  F ield         | OpenFOAM: The Open Source CFD Toolbox           |
|  \\    /   O peration     | Version:  v1912                                 |
|   \\  /    A nd           | Website:  www.openfoam.com                      |
|    \\/     M anipulation  |                                                 |
\*---------------------------------------------------------------------------*/
FoamFile
{
    version     2.0;
    format      ascii;
    class       volScalarField;
    location    "1.9";
    object      omega;
}
// * * * * * * * * * * * * * * * * * * * * * * * * * * * * * * * * * * * * * //

dimensions      [0 0 -1 0 0 0 0];


internalField   nonuniform List<scalar> 
12556
(
31.9314345
31.93237792
31.9333231
31.93413741
31.9667971
31.9678253
31.96898777
31.97129657
31.97554586
31.98189717
31.98946876
31.99574148
31.99663671
31.99371734
31.98682994
31.97971479
31.97429726
31.97036392
31.96876425
31.96746368
31.93353617
31.93240166
31.93139439
31.93047404
31.79614561
31.79875954
31.80125268
31.8034075
31.83708838
31.84097705
31.84749496
31.87249959
31.89191609
31.92159438
31.95767794
31.99007272
31.99925026
31.98437031
31.95211546
31.91800589
31.89074647
31.87285512
31.84644247
31.83979419
31.80280465
31.79928578
31.79616737
31.79344723
31.6626825
31.6673112
31.6716828
31.67545396
31.71009943
31.7187619
31.73401434
31.77187528
31.8173953
31.88271997
31.95960387
32.02587171
32.0513107
32.02113657
31.95238796
31.87606939
31.81531994
31.77317498
31.73105096
31.7163826
31.67492105
31.66890893
31.66342371
31.6588388
31.53081171
31.5367365
31.54255906
31.54837399
31.58648993
31.60333663
31.63577606
31.69822109
31.78786537
31.91481255
32.06359962
32.20369183
32.27323042
32.21205192
32.06706977
31.90568563
31.77805258
31.69614978
31.62824297
31.60037153
31.55092514
31.54119401
31.53300016
31.52639353
31.40081675
31.4086215
31.41658737
31.42621362
31.4684817
31.49799789
31.55844102
31.65902008
31.82834437
32.07387553
32.39688904
32.7895629
33.02820977
32.90042708
32.49494078
32.10577042
31.8140324
31.65494831
31.54459308
31.49375211
31.43111098
31.41636166
31.40487627
31.39594274
31.27174553
31.28096336
31.29115869
31.30548591
31.35739056
31.40670382
31.50849361
31.67090256
31.96391011
32.43682191
33.25866842
34.75612294
35.97137242
35.40016054
33.78637392
32.68525437
31.98983459
31.66087528
31.48302563
31.39894319
31.31625605
31.29375762
31.27810889
31.2666282
31.1450762
31.15628751
31.17018059
31.19195346
31.25440573
31.32991343
31.48534536
31.74493749
32.22880727
33.11220415
35.26677724
42.69604722
50.45477199
46.64355804
37.40601188
33.96599343
32.38542433
31.73976047
31.4455731
31.31768677
31.2070179
31.17405169
31.15307782
31.13862988
31.02005164
31.03318182
31.05111548
31.08236299
31.15940106
31.26739483
31.49309713
31.87749546
32.61150745
34.10450458
38.68414676
62.88382454
81.74672939
45.68463624
36.28824388
33.04732371
31.90086247
31.43375802
31.24898723
31.10408654
31.05761311
31.02988936
31.01213208
30.90008094
30.91605232
30.9399835
30.98364827
31.07357038
31.21848434
31.52595892
32.05052695
33.04571946
35.11030746
41.62908566
78.00908091
160.7134584
57.55225221
39.4451236
33.93960368
32.13072289
31.44277991
31.19164366
31.00792104
30.94559561
30.90994043
30.88843756
30.78485645
30.80340975
30.8331527
30.88957882
30.99787878
31.18167191
31.57719061
32.23989917
33.45925657
35.91359571
43.30614365
84.02675572
200.5713394
67.68313202
42.53079085
34.84022756
32.38272741
31.47063402
31.14384495
30.91927247
30.83929447
30.79457871
30.76883138
30.67796564
30.70020414
30.73762802
30.80963367
30.9316339
31.15517847
31.63746331
32.42292934
33.8095413
36.51136564
44.48664557
93.60907188
199.1556719
73.2074807
44.58426832
35.54854311
32.61420614
31.50501352
31.1037231
30.838049
30.73997059
30.6855564
30.6552731
30.57749224
30.60264931
30.64641904
30.73261058
30.87297264
31.13659576
31.69958872
32.58632186
34.10118
36.99402774
45.62096851
105.0383726
183.0738167
74.52856999
45.47963098
35.9721354
32.79433051
31.53523354
31.06782143
30.76424233
30.64760645
30.58363353
30.54832996
30.4861804
30.51514368
30.56762409
30.66926694
30.81933539
31.12166588
31.75046266
32.73244268
34.33461344
37.4013488
46.9960619
114.3175285
864.7208109
156.2732359
73.01260524
45.46316778
36.08494208
32.90199759
31.55295581
31.03253521
30.69488107
30.56204106
30.48793633
30.44816248
30.39942629
30.43158957
30.49145797
30.60529078
30.77811052
31.12237987
31.84173197
32.89743412
34.59129788
37.88575934
49.04629779
158.7371948
531.6749124
145.4974065
70.53843953
44.62806492
35.98448336
32.9582398
31.55345325
30.99435441
30.62691721
30.48086703
30.39758853
30.35308249
30.31863183
30.35388936
30.42012001
30.54414199
30.73008044
31.10666518
31.89311349
33.10299303
35.05661689
38.70727203
51.06468671
383.056137
379.4118199
133.4647159
65.9615635
43.44313202
35.74580404
32.96850468
31.53409294
30.95019948
30.55982136
30.40225631
30.31053703
30.26237388
30.2378451
30.27588765
30.34757212
30.48111004
30.68013191
31.08276831
31.92366323
33.37078692
35.91559904
40.64667631
58.76277843
761.6662417
304.800247
114.1275719
59.88412156
41.89153265
35.46389867
32.92512651
31.49334084
30.89774226
30.48890044
30.32232318
30.22402188
30.17185574
30.15929344
30.20004358
30.27594299
30.4163074
30.62547324
31.04904946
31.92956652
33.58576794
37.17538592
45.3821957
104.2870606
987.2193046
202.3614728
90.74091645
53.57074189
40.3747758
35.25006577
32.85050209
31.43412192
30.83632853
30.41478492
30.24158911
30.13716986
30.08204179
30.07627923
30.11940379
30.19880869
30.34544392
30.56438189
31.00353735
31.91862778
33.6487829
38.32827678
56.46450763
375.8011274
534.5771629
143.5053219
73.56335039
49.17740257
39.51262424
35.08734188
32.7538501
31.35825105
30.76275394
30.3327528
30.15462218
30.04665518
29.98925851
29.99336821
30.03879314
30.1208689
30.2711162
30.49599311
30.94623454
31.88641204
33.6752622
38.72895343
71.45211641
579.5154536
258.8763732
114.5920065
65.84042509
47.59992294
39.18162142
34.9106653
32.64010089
31.26992396
30.6794396
30.24528071
30.06427063
29.95369979
29.89496723
29.90322827
29.95049022
30.03498337
30.18911831
30.4204094
30.87833385
31.83799785
33.67798494
39.09843448
78.47328167
538.487245
228.3883489
108.2564088
64.60836696
47.01480067
38.8784214
34.73117516
32.51604905
31.1719576
30.58740551
30.15006119
29.9668575
29.85460613
29.79507951
29.81340689
29.8622625
29.94858394
30.10424988
30.33802081
30.80142341
31.77640125
33.66309308
39.50880746
83.65751251
497.7357072
215.3735852
104.9649673
63.76026029
46.5437751
38.60460655
34.55519917
32.3864242
31.06672719
30.48789272
30.05047622
29.86677419
29.75371258
29.69381014
29.71503432
29.76486847
29.85289356
30.01123276
30.24958063
30.7170007
31.70440506
33.63561911
40.01245958
86.94182954
461.0308085
204.7739758
102.266817
63.08079466
46.18526117
38.36434939
34.38673134
32.25472858
30.95620098
30.38229992
29.94385056
29.75944494
29.64599813
29.58616737
29.61917436
29.66967367
29.75871317
29.91719453
30.15568005
30.62641191
31.62454306
33.60212554
40.66915945
88.94946757
428.2648841
195.8898828
100.0058496
62.51538464
45.91746781
38.16082195
34.22892036
32.12374328
30.84211943
30.27200102
29.83536872
29.65177379
29.53849383
29.47895963
29.51378024
29.56440601
29.65443178
29.81489683
30.05734327
30.53095704
31.53949268
33.57292454
41.42462159
89.98854574
399.1246999
188.4454464
98.07825123
62.03614513
45.71297584
37.99252453
34.08381879
31.99558948
30.72606374
30.15832446
29.7206957
29.53676175
29.42364488
29.3646348
29.41440447
29.46495774
29.55525131
29.71470207
29.95529228
30.43195156
31.45204978
33.55947245
42.1482714
90.27985294
373.0193132
182.0653089
96.40840534
61.62451597
45.55227761
37.85447564
33.95197503
31.87161806
30.60931857
30.04236172
29.60724755
29.42469181
29.31214247
29.25371828
29.30363279
29.3537622
29.44453475
29.60576938
29.85073147
30.33058562
31.36469338
33.5683364
42.76074003
90.01857842
349.6843078
176.4545567
94.94454014
61.26833378
45.4242826
37.74110477
33.83274158
31.75248001
30.4928193
29.92510262
29.48744803
29.30416564
29.19187857
29.13413206
29.20356209
29.25321426
29.34377732
29.50312468
29.74415151
30.22784344
31.27938919
33.599085
43.25325702
89.34217902
328.5943327
171.4569797
93.65210348
60.95921178
45.32219879
37.64762609
33.72492806
31.63836321
30.37723264
29.8072322
29.37254802
29.19092092
29.07929619
29.02220648
29.08843133
29.13739656
29.22816534
29.38955231
29.63668307
30.12447988
31.19752326
33.64509363
43.63619156
88.3750492
309.4028179
166.9341757
92.4984114
60.68876769
45.24088178
37.57025016
33.6272092
31.52916762
30.26298776
29.68942166
29.24931187
29.06613692
28.9546589
28.89824603
28.99035552
29.03868917
29.12901244
29.28784776
29.52831394
30.02110132
31.11987178
33.69781052
43.9197483
87.18609256
291.8093045
162.7915201
91.45395952
60.44900313
45.17612529
37.50600439
33.53834597
31.42467648
30.15037007
29.57196567
29.13604469
28.95477457
28.84388975
28.78808094
28.87086722
28.9184204
29.00878925
29.17014347
29.42020803
29.91820352
31.04657023
33.74928194
44.11072748
85.80133303
275.6042966
158.9522075
90.49499222
60.23285272
45.12429972
37.45245246
33.45721934
31.32462113
30.03956339
29.45537434
29.009527
28.82565749
28.71472497
28.65950538
28.77753793
28.82445058
28.91431991
29.07269595
29.31178946
29.81619153
30.97735942
33.79464646
44.22345278
84.29632205
260.616696
155.3606197
89.6012691
60.03401156
45.08222155
37.4075792
33.38285177
31.22872728
29.93070574
29.3396555
28.90119352
28.71946687
28.60894614
28.55420148
28.6525479
28.69866404
28.78842993
28.94963738
29.20455134
29.71541315
30.91178492
33.83187389
44.27683771
82.75969091
246.7213075
151.9732727
88.75640872
59.84735457
45.04725035
37.36972363
33.31439221
31.13672626
29.82391206
29.22537467
28.76965443
28.58435737
28.47361911
28.4193341
28.56718747
28.61273461
28.702102
28.86053815
29.09726037
29.61618687
30.84923298
33.8596055
44.28071836
81.21443774
233.7950979
148.761818
87.94924707
59.66895076
45.01714279
37.33742618
33.25105927
31.04835039
29.71933267
29.11230465
28.6708924
28.48757002
28.37695563
28.32298384
28.43419646
28.47895038
28.5680409
28.72862093
28.99236477
29.51896949
30.78907527
33.8767415
44.24061084
79.66579611
221.7343731
145.7067315
87.17062394
59.49504091
44.98966124
37.30929482
33.19212624
30.9633599
29.61727495
29.0014931
28.52962247
28.34274433
28.23181362
28.17817196
28.36080268
28.40512889
28.49401364
28.65389006
28.88811719
29.42449231
30.73107658
33.88296912
44.16192254
78.13106553
210.4666775
142.7693492
86.41012774
59.32133857
44.96244902
37.2839837
33.13689931
30.88147045
29.5185149
28.89300281
28.44816366
28.26120769
28.1500513
28.09653906
28.19116668
28.23458444
28.32313452
28.48485661
28.78957539
29.33431591
30.67588933
33.87888096
44.05130759
76.62990978
199.933128
139.9390894
85.66363823
59.14510535
44.93356365
37.26038979
33.0849097
30.80259236
29.42510109
28.79027116
28.2668523
28.07582145
27.96393621
27.91062012
77.24348285
191.3031605
93.05879231
83.19596889
243.3487846
198.690081
92.21589144
237.4717861
245.1209253
103.7369966
212.3570401
234.2978493
113.2673002
1065.942723
903.0028892
190.0919661
208.9285015
139.6451731
654.9200122
1042.496813
555.3300068
184.8349764
187.9516804
59.4797199
49.72001489
84.78577148
46.14573508
626.2876603
205.798805
151.7388461
63.66519297
50.67577904
42.97730981
71.07223144
67.14964871
2156.068452
1533.108014
198.30569
78.78412191
67.97381097
44.2447746
76.67020173
71.63575469
86.99208316
247.3855018
225.1433375
1161.45215
1641.705011
200.6894563
86.89004341
81.52867598
45.41069137
85.11182887
77.59641297
97.7339443
345.6641174
280.7159904
627.7206365
848.9311692
46.74354859
95.71627489
86.14281228
106.8320988
513.1754793
416.4822352
2581.882205
400.9430037
467.1224339
48.68269125
115.9136025
97.28374764
122.3555006
1074.793577
720.7021901
152.349313
494.0311752
645.1130735
196.897782
227.5411112
119.9257909
190.5325031
1493.007778
662.3138818
149.357977
526.0174268
1032.502105
222.4417803
204.4176317
80.71235164
266.0025587
277.0951703
233.2131074
263.2478788
1663.304612
2156.090322
223.9430484
1479.688022
1259.500834
1067.122437
1476.456636
221.0945728
277.6397207
251.0767749
88.16794964
318.6555122
360.1706903
279.1143998
315.4964603
890.1987982
1134.37981
243.6169335
846.7583568
656.6318963
1244.349058
880.5762647
245.106906
412.3872433
348.868999
99.11394296
423.2187486
519.9515301
362.8951431
419.4233392
481.4570491
603.1055759
710.4846642
522.3203361
107.1189491
3542.936001
701.8050667
1047.658484
524.8228631
686.3904331
3953.441021
367.0035076
394.1239634
2276.010952
8570.371579
1083.003309
123.6600608
753.1558105
1675.784111
7812.038728
1055.836586
1649.891801
774.2813373
41.04910974
66.41679233
55.48386261
71.47904178
155.2542912
103.9158405
3922.460046
688.5712972
80.23919494
202.1576109
180.5788665
6416.767759
185.575529
89.02065049
87.93132014
6151.396527
904.6536842
1008.44106
681.0098291
324.322322
354.2044316
177.9191776
159.0713592
73.36874092
1463.247551
290.877915
660.0322166
170.4032015
463.9851477
137.5562039
1029.944899
1329.327614
221.5313432
497.0525781
422.422093
633.7488421
511.1716178
225.061996
1538.920103
4789.003352
918.1043255
83.58760638
66.70054924
108.4616481
178.1694577
80.23004322
86.07789565
5545.746722
435.2869456
3870.191541
502.7425928
2822.850999
390.9979165
1754.315402
1731.36256
1357.275763
1390.853222
2600.403157
5454.094121
710.5774244
3171.293411
1689.391586
6172.453421
3682.939465
742.9474628
451.1112515
181.772983
189.1920615
758.6679907
861.8109497
5598.511099
774.0556564
231.6866307
244.4150194
216.3456268
226.8727448
771.2447658
1334.12287
1465.113857
210.7992481
948.6037166
786.1664832
1401.514011
948.5196783
214.6309495
156.5524297
487.5799048
231.7935445
701.3021493
520.437699
168.0486429
689.6702826
990.2290136
1046.730178
990.3006204
265.4690218
1505.510769
265.7893222
248.0620729
1468.172393
1419.719176
1501.282415
1473.637458
252.0386616
1780.296471
1800.971916
1350.421796
444.3495617
433.9883581
445.3645497
446.0460648
1338.907895
1255.292473
395.9173951
362.5405814
428.360821
405.7810568
1277.568817
337.6483561
340.3399165
294.4443058
296.6760887
949.8384795
6391.833715
968.5996284
452.0498658
458.5825428
390.6320445
394.5018387
1592.425894
1150.638854
542.2999288
1412.534328
2401.635653
572.1472394
203.208474
212.7397474
191.8758146
200.25369
563.8725149
1708.090531
744.675163
756.6557734
560.0051722
564.4030355
6295.230864
1265.924881
648.3408814
727.5209131
249.8653115
259.918808
1318.562085
2659.784941
2192.162687
3233.364283
1088.525247
6878.513328
3480.216936
5960.523268
1084.612646
870.8855863
4408.249173
2661.771258
4671.802778
2439.013885
3265.925077
50.14238651
118.2773545
118.3329838
170.6736016
4248.211171
7974.285458
397.4301711
169.1531219
180.9764481
1357.414771
3695.205192
4916.023085
563.9260178
622.9985268
1185.002927
296.6374404
314.6111921
662.3828671
173.6182437
127.5195884
263.6217032
538.8751651
157.4343135
186.5937464
2032.05749
5146.856089
5286.924915
1633.499937
1247.387016
3605.779348
2583.827778
6124.369852
5980.687374
1560.551132
320.0319605
152.3202655
156.9491826
146.6474074
150.8517657
314.3422302
173.1262209
179.5871247
446.6828743
994.3038527
410.5150997
428.2381858
6632.12205
3500.754355
599.965587
1296.077265
4735.832334
5146.516201
710.5710237
290.1236691
242.3416138
348.8361999
306.4180379
744.7517654
1716.693454
6075.562302
6137.510558
2041.598185
265.528716
141.4566964
145.3246985
711.5368897
699.2639137
351.3650686
2432.868203
2219.588197
1062.755291
759.0496311
393.1382743
410.000289
1098.512331
434.62272
443.5538669
415.9253417
430.1510585
1075.69683
376.6032225
165.4388294
171.1448314
158.5605223
163.6406684
372.3791539
434.6477534
1007.695756
998.8248153
1571.287377
1527.067685
499.85976
373.5433636
746.7739086
713.5749603
995.0106777
989.017226
408.5839772
524.1623266
1106.369255
892.6651056
6360.13423
2607.480638
723.8902121
890.106969
539.3998878
1602.395806
1578.312834
1606.612575
605.8916493
5431.684599
8658.328034
324.8105212
364.4007083
434.7770643
450.4629204
1088.87015
2453.652734
1503.101124
695.4850431
1690.405421
8433.646951
2251.834089
2064.845612
15877.29811
1065.010848
1572.420531
2381.200177
2911.071096
2160.868946
6382.626452
6482.879473
1616.871943
2151.266308
6339.31868
1506.409518
1443.218322
449.6749507
1709.170708
698.4943747
1679.2058
492.6655917
4905.267375
3574.923126
1167.867584
5599.889443
6415.671488
5002.660546
3755.468603
1280.353243
5141.627417
6235.017954
3716.423668
4913.399665
6609.54329
2565.186328
3376.376866
1833.534389
2313.446609
5940.781244
5769.279416
1586.807868
959.5160109
2624.318764
1752.390734
860.5934324
532.1857547
1592.34253
5462.182908
7012.985238
1931.83607
1656.580207
5343.948734
5468.997013
3989.943984
3726.044922
1279.333342
6233.226966
6133.350815
4606.51108
6055.968201
6094.493942
1516.094716
6100.137442
4102.418324
3785.151931
4242.77554
2346.417477
1076.856969
1167.360651
4793.220738
1373.142557
1562.4821
1204.072341
1316.618036
4520.637254
4273.511072
1239.728265
1480.202621
384.7795051
404.4519076
907.2843328
745.4041148
365.8976326
379.8973554
1434.528887
1444.45122
942.2564134
358.3353271
378.507343
333.2755404
352.4006784
936.12609
991.9099468
422.0331195
456.397496
385.5251215
411.9487581
999.3131269
638.1826571
306.705088
327.5215571
912.7523397
944.0334757
3394.571214
3522.661894
1228.343844
4987.520921
5122.372279
6446.912466
3517.416383
2925.533379
4998.556534
3470.205961
827.7533445
2424.278165
3249.565199
1539.155436
553.7618988
616.9440227
530.3538764
543.2895341
1506.762252
663.9239014
673.2391632
637.4716876
660.5594288
1453.100054
484.3535054
496.2602159
464.5410584
480.1478985
1446.024585
1489.413967
515.2138006
526.1325589
500.1356284
511.4923618
1487.91527
5932.622807
6025.546571
1733.783469
1955.951758
6222.548855
5903.653883
966.4270707
970.0768391
942.9099573
965.2962578
980.7248769
991.9931739
971.5226692
978.4332011
687.9674225
697.2237346
676.1460504
684.8421765
735.4653123
901.6041677
701.7921154
713.4537571
2066.709803
2440.610786
1631.390552
1917.306995
6655.783417
3919.176932
4322.214659
2619.036588
3780.190501
1019.9724
1013.117388
438.7855967
1602.338006
1606.531246
1572.129149
1593.567864
1649.691857
489.2440336
1492.294079
1071.320742
961.2782095
766.8070951
377.509906
1037.961282
1482.17403
992.5535939
1047.65868
1539.114755
1561.104589
1501.055222
1529.868087
405.064557
987.251091
978.6812777
6484.920123
1691.486306
6426.42086
5589.896418
6404.529335
1818.62737
6572.578158
2316.884705
6301.782011
5519.268798
730.2631352
807.9636492
1634.042749
1607.388352
543.9756298
590.4719745
1695.443263
1636.476848
6246.508472
1127.086504
461.6303061
502.038016
6367.206429
7190.51863
1759.615571
7795.639483
5773.954563
2733.231042
1066.415942
6875.967825
4230.029592
7588.326767
4638.043415
1517.11681
75.31295323
46.87759266
38.81860347
6341.471714
6316.114822
172.2073838
87.60832888
88.9016202
6562.309203
1212.053276
3447.398608
2600.976434
411.6849502
342.2025922
200.5571658
439.7697487
290.0873268
705.7774865
2587.917111
421.1547245
481.9924481
60.79229956
73.11185176
153.6950545
545.0213734
1118.758738
1667.465179
237.051038
131.7764399
135.493728
126.6332601
130.5314668
233.9246485
1054.545626
1180.763413
3809.531399
851.5693962
747.1100091
436.5858602
349.0337813
361.7077093
740.6082896
1817.308763
2331.108792
777.1664556
136.6682153
140.2266508
261.9319553
326.9741987
668.8916489
644.7516628
623.770978
560.1497712
306.4884689
635.1181176
331.6681557
344.8196398
5061.762097
4781.075861
3223.668673
1611.453065
1590.672085
1026.302228
4429.834776
6198.624817
5629.946971
1666.068932
927.0996063
1027.756923
1678.733974
1060.45367
1643.291967
1631.063061
1649.00241
4225.183747
6217.405606
4282.954569
4666.237009
6093.13917
1959.829372
1560.368468
917.7698911
1478.682212
225.550319
176.7757101
329.1556274
1127.225962
3101.247564
2179.703813
6382.276252
6715.656089
6855.666322
5728.007314
6547.643256
113.7404936
148.9752724
414.5237501
4494.571173
2911.195843
2232.239423
6055.289295
4618.248813
2866.288578
4903.133517
4515.650148
6727.721192
6389.612096
4855.862784
974.9389461
1052.141044
2147.692668
6327.606712
3650.15258
4034.928007
4977.004663
3317.322738
3765.435542
1381.834669
1803.823052
1459.883939
946.2304156
659.2395711
666.5498737
1367.371648
873.0565262
913.7679929
671.9231698
680.7745109
958.3896688
272.9862271
300.3458239
612.254321
770.6174147
1344.596484
998.4765202
1473.48753
1524.66312
997.5858068
1823.661761
1351.616358
1399.873052
969.3650323
970.5485648
1508.424946
1487.007293
1497.722545
1429.122281
1447.670666
1461.764792
940.2729049
942.5858773
929.3744167
933.3120892
1430.320364
1497.496775
962.0975906
964.6403097
945.2356541
948.0133234
1478.563136
682.4595442
672.5851658
329.6839431
348.6614151
695.9166292
685.6470074
531.9364923
521.3413092
287.6734719
1523.183683
1524.686225
1501.163666
1504.501631
1852.535533
1530.116163
1530.688805
303.9055516
549.5138754
536.2563199
6382.273064
6318.835435
4221.056267
4458.007828
6349.844739
6384.198763
6601.357943
1040.54135
2133.369601
1769.816656
316.3294216
327.5150395
608.4930251
547.3930255
304.2344954
313.1900589
1054.79837
1054.881887
741.7543558
758.8835292
1061.674464
1065.877584
6257.058471
1393.311381
921.1483662
909.2038145
11727.11311
2174.522669
2566.237627
5253.60364
4474.49544
1705.871075
1686.339367
1075.369685
6658.489693
7228.74824
6920.776527
5521.669912
1139.104267
1747.991831
1695.758649
3495.676115
1364.189197
1655.040644
6225.700914
6149.431035
4993.16708
4677.960688
2964.537845
1523.655805
2248.705101
1947.229214
4174.313645
6307.992093
5515.285729
6390.148932
6143.173129
4618.07417
262.6737132
379.6498069
1381.744412
5274.345448
5163.788731
5403.041814
5370.841876
5224.733156
3399.239209
3382.67133
3409.135062
3400.650592
5217.786874
6152.993562
3422.747207
3453.328667
3272.159701
3374.364457
6250.556477
4918.866302
3107.345695
2802.206684
3361.333474
3281.113192
5031.642242
6053.774509
3530.196516
3559.268055
3487.289142
3505.086074
6101.416208
5540.143027
5435.083009
5645.599058
5401.178184
1006.215051
713.6415766
716.8676204
1558.408608
1009.862704
1013.172613
985.3461093
1004.199432
1547.659788
6091.220118
6288.411004
5603.127278
6166.381587
1613.567147
1626.062037
1587.304237
1600.938162
2035.789546
975.6028976
1548.617654
1490.371683
1593.362255
1017.726237
1020.681231
1014.477899
1016.453656
1587.176556
1528.410486
1567.265308
1087.406363
1471.360745
2013.610931
6503.847901
6146.241193
4910.929845
6326.223715
825.436639
1142.631428
13045.81987
1091.169862
760.8623168
763.4372422
1695.139201
8118.054638
8418.55472
9761.873729
6264.241661
6017.896535
1657.906278
1647.233478
1060.965142
1616.780725
3440.367281
5143.614547
3559.881625
4537.637199
3506.339007
1461.252955
4721.166019
3507.607734
6440.468754
6688.332058
6302.184883
5008.501192
5603.854971
1475.973024
1784.082901
1605.740903
787.9278796
1002.251854
1476.681928
1556.096921
1026.244119
1451.552469
1905.94548
6241.030356
6461.877804
6158.74623
5719.427404
6490.977302
6437.666239
6304.327958
4115.835391
5604.995222
5164.897064
6251.216169
6456.09351
4510.058507
4787.88175
5212.807737
6508.475864
5389.135395
4057.919987
4356.4814
4265.764707
3011.247103
4223.136302
2215.438692
3264.632733
4456.619035
4902.347373
4474.914086
5658.755614
3584.979798
3411.038821
4897.778196
3533.34225
5243.985872
5368.043225
3417.956684
3412.668934
3435.974056
3412.888848
5400.667937
3890.213417
2261.11055
2304.224561
6167.074512
6159.964806
5345.004704
6489.624759
6283.505203
6190.275897
6178.532224
6420.726665
5156.847651
2722.196487
3045.28422
2368.474595
2491.667157
4427.091775
6406.72054
5459.880366
3298.471098
6712.795083
6431.831872
6412.045241
4439.426017
6410.52609
6199.80413
2772.331285
3147.297548
5503.30671
1416.564527
1456.840395
726.6862524
801.3331597
1323.38268
955.7658336
684.2335259
706.9817015
1448.448168
1419.610493
866.3328472
1505.442192
1842.765078
944.8176353
1482.790098
1475.112918
3390.366314
2286.238278
2252.414142
2512.926237
2431.188023
3573.487269
5336.80897
5015.91106
3290.619075
4967.749853
5186.367765
4665.7823
4904.95208
3236.235857
4885.501609
4817.867148
6257.878692
4599.936319
1021.288634
1013.314731
1468.832889
1513.75911
979.3402018
975.5166486
1473.137623
1481.844164
1457.563485
1466.605411
937.4714315
939.1411541
1460.052583
1438.527591
934.7818825
936.005118
955.8573331
958.3844751
1492.563576
1484.225063
951.0146699
953.5313516
5991.656263
3635.007011
3660.77978
3578.951481
3603.06666
5977.425515
5932.017952
4046.864874
4697.03092
3711.588276
3808.649762
5923.990579
967.7443981
1500.396005
1492.073937
1512.272663
1506.700655
968.7930745
958.8094225
1463.060797
1447.119281
1484.097951
1474.642767
963.3937875
984.8036953
1548.30254
1540.25761
1559.978718
1552.159564
986.7434783
973.3391797
1522.984734
1518.160343
1535.577185
1528.328519
975.32847
1515.91234
1518.525625
690.9232173
969.8483179
968.2192261
974.0985076
972.7969355
694.4635121
1509.081889
1512.062531
1566.800847
1490.909253
754.9951355
1021.32441
1030.520377
1415.407224
1366.779368
827.9640398
703.6984395
978.9227806
978.4729816
984.1775941
987.9676083
712.3083595
1538.621097
1532.050104
6292.690497
6159.5108
6450.635296
4748.836123
5465.61567
4064.262907
6268.948863
6340.134437
6261.798613
6272.300413
4147.725165
2936.7433
5446.269351
4687.312881
6142.645654
6283.31138
3419.739998
1024.017602
734.5028877
735.974754
722.4501872
724.6439279
1013.447659
1602.716439
1614.595419
1576.954747
1591.197217
1562.413698
1964.290454
1434.200886
858.3386342
939.4545987
760.0561176
780.9278098
1061.149651
1396.191058
1902.225923
1521.996455
1449.00362
1002.676158
1571.394682
1560.404015
1603.484771
1564.537972
998.8918322
1545.504992
1555.336916
1512.098114
1522.209734
6189.992654
4318.494278
4559.573658
3377.589404
3913.354011
6284.414908
6403.502357
6214.090142
4910.668192
5495.58172
6710.87707
6126.372017
4792.191658
5027.817496
3972.699434
4390.873127
6303.302956
1654.588558
1655.63856
1639.360075
1642.541527
1103.722591
1114.770335
785.7354276
1711.082536
1620.758006
1671.487778
1662.90312
1621.351922
1028.282779
1035.022079
1022.264907
1026.811044
1618.009641
1652.545174
1046.469081
1098.527247
1036.283894
1049.275898
1655.727337
6065.141078
787.8444167
791.9385799
1128.863516
6234.25804
8883.558245
9178.038143
8939.368231
8831.507296
6835.813188
1710.10406
6835.609133
5061.846744
5436.611302
1073.580582
1678.936283
1664.924995
6826.731694
7444.027845
7213.975799
5961.414286
6474.967305
7902.65206
7520.757825
5000.429411
7116.956395
6209.953173
2063.914994
1666.915027
1128.514203
31.79509216
31.82189596
31.8854984
31.83238789
31.87343011
31.91229457
31.88728132
31.93813703
31.94704039
31.95304288
31.99812259
31.98143204
32.00872686
32.02657433
31.99863436
32.02716772
32.01521514
31.99246037
32.00560149
31.96116636
31.96207702
31.94661824
31.8964754
31.92726148
31.88330756
31.8420602
31.89740899
31.83127741
31.80301789
31.87688571
31.71369811
31.76741826
31.80441024
31.78852557
31.86893143
31.86541289
31.89726246
31.99186736
31.9422028
32.02304177
32.11627323
32.01256054
32.13795922
32.17935046
32.05091988
32.18304051
32.17098498
32.03285826
32.15090152
32.05056114
31.9709783
32.02118071
31.91649683
31.89438773
31.88656265
31.80518223
31.82854103
31.78318701
31.72754751
31.78122988
31.66585965
31.7678549
31.76055471
31.80910487
31.95885295
31.87994521
32.01574115
32.20951951
32.02667005
32.28061074
32.51543076
32.16763903
32.56116015
32.7159288
32.26646633
32.72774426
32.7192967
32.23437078
32.65084631
32.42589831
32.11434505
32.35357832
32.09200142
31.94451008
32.01743795
31.8389514
31.80625462
31.79309447
31.68832484
31.71355129
31.66246581
31.84256936
31.77843696
31.91830989
32.19951983
32.00488279
32.31935888
32.77235137
32.30979168
32.96634933
33.75148805
32.66177464
33.92566479
34.69430845
32.98815194
34.79133542
34.67531469
32.93528146
34.33283336
33.62134621
32.61472182
33.3586964
32.63620423
32.19904654
32.44785537
32.02810882
31.87353888
31.92683027
31.70496389
31.68729992
31.7203027
32.01982078
31.87627897
32.14615656
32.6654598
32.29642723
32.90746709
34.01707346
33.00590867
34.59697481
37.90798921
34.20795583
39.29524984
46.50162904
35.79359544
46.79398606
43.82548505
35.54415776
41.17383769
37.23082471
34.14066374
36.18561736
33.98456865
32.92698911
33.48467162
32.4797017
32.12469893
32.25830774
31.80629622
31.72091588
31.83592121
32.29316283
32.08243923
32.49515868
33.37509517
32.83066234
33.82055944
36.22433067
34.49272054
37.77421745
53.07380916
39.49369003
48.04123649
55.54172881
44.87694198
71.33559188
68.07398114
50.26812221
53.8934882
46.72640526
43.35190606
43.10879785
36.70590542
34.595634
35.48885077
33.30081397
32.6653709
32.85914951
32.01634915
31.84984265
32.00306668
32.64922893
32.38593806
32.93702098
34.21619131
33.60015006
34.87878452
38.58358757
36.87559993
39.56710247
42.6770737
41.49539198
66.13546608
76.2955836
71.73340845
112.277609
76.99916133
63.22444154
54.55201308
40.80154568
37.74206363
38.43984866
34.44403901
33.57670937
33.69272257
32.3265201
32.08848343
32.19420542
33.00504764
32.73946098
33.3629153
34.93347896
34.40405766
35.73849999
40.15066859
39.04211876
42.14768329
46.09659012
45.43663575
78.86312912
94.20399852
92.88744669
181.8649855
108.955645
97.54277442
65.56496368
45.09270908
42.07197078
41.57806323
35.69741573
34.80122487
34.61524258
32.68225361
32.41588468
32.38345424
33.32348742
33.08734096
33.73152643
35.49237989
35.0835784
36.38203639
41.19197619
40.43550532
43.64860215
48.01350547
47.56732084
84.92993757
113.0056865
109.6804001
203.2050997
125.7921189
121.4396313
72.29292964
48.30105626
46.21022286
44.04613446
36.72274952
36.03194566
35.39157366
33.00623136
32.76600956
32.56085211
33.59613474
33.39200729
34.03941289
35.93495752
35.60434301
36.88956672
42.06396747
41.40317005
44.81925402
49.64780287
49.15311693
94.9845109
129.488725
126.3348941
194.0768977
128.2651933