/*--------------------------------*- C++ -*----------------------------------*\
| =========                 |                                                 |
| \\      /  F ield         | OpenFOAM: The Open Source CFD Toolbox           |
|  \\    /   O peration     | Version:  v1912                                 |
|   \\  /    A nd           | Website:  www.openfoam.com                      |
|    \\/     M anipulation  |                                                 |
\*---------------------------------------------------------------------------*/
FoamFile
{
    version     2.0;
    format      ascii;
    class       volScalarField;
    location    "1.92";
    object      k;
}
// * * * * * * * * * * * * * * * * * * * * * * * * * * * * * * * * * * * * * //

dimensions      [0 2 -2 0 0 0 0];


internalField   nonuniform List<scalar> 
12556
(
36.90871421
36.90880068
36.90895324
36.90920041
36.95457457
36.95591074
36.95823193
36.96293003
36.97150692
36.98419867
37.00088022
37.00832468
37.01021365
37.00672228
36.99568508
36.98116239
36.96977731
36.96213293
36.95813856
36.9558974
36.90968749
36.90901003
36.90866475
36.90841979
36.72751056
36.72778484
36.72833688
36.7298453
36.77611223
36.78284715
36.79608134
36.8363707
36.87642366
36.93861
37.00890602
37.04374369
37.0540321
37.04146835
37.00293921
36.93695951
36.87842755
36.83965346
36.79557277
36.78255698
36.73155639
36.72903324
36.72784598
36.72719359
36.54771862
36.5485023
36.55006291
36.55316405
36.60261104
36.61926673
36.6516691
36.71929657
36.81471841
36.943677
37.05590582
37.12371966
37.14595411
37.1230678
37.0534534
36.94135946
36.8162743
36.72604512
36.64759591
36.61761479
36.55789502
36.55224544
36.54955563
36.5484509
36.36929411
36.37042064
36.37340948
36.38098599
36.4362689
36.47039878
36.53982629
36.65934148
36.83033195
37.01384144
37.17806523
37.29365302
37.34119841
37.30644235
37.19444314
37.01622172
36.8270544
36.66128401
36.52666331
36.46772813
36.39092499
36.37965658
36.37432341
36.37225051
36.19275425
36.19489131
36.20073814
36.21475141
36.28157938
36.34348273
36.47354889
36.664417
36.90649352
37.16259566
37.41787702
37.63644017
37.75583719
37.70192155
37.50916775
37.2075546
36.90813798
36.66568556
36.44619608
36.33762535
36.2321261
36.21109619
36.20155868
36.19785172
36.01732262
36.02074919
36.03065246
36.05597376
36.14267222
36.24689528
36.466643
36.71820256
37.03961619
37.40711447
37.85051259
38.35259395
38.69921887
38.58297606
38.12024822
37.58468548
37.09023155
36.72005962
36.41251309
36.2321782
36.08452087
36.04680186
36.03072099
36.02445673
35.84459038
35.8505532
35.86762819
35.91017204
36.01766454
36.18265498
36.48987183
36.81928319
37.24536623
37.77826204
38.5955003
40.02080063
40.78261832
40.64622215
39.23100534
38.1985084
37.38915082
36.83319334
36.42154926
36.15551761
35.94704619
35.88736673
35.86186135
35.8519962
35.67590944
35.68487815
35.71066404
35.77468098
35.91176738
36.15013235
36.54374515
36.96254437
37.51473359
38.27156574
39.67025062
42.92752062
43.76893509
40.99376865
39.06693815
37.79494705
36.99868181
36.45568281
36.10494756
35.82268898
35.73455987
35.69626559
35.6816678
35.51557301
35.52936583
35.56790361
35.65965567
35.82837493
36.14605835
36.62331138
37.13647126
37.81883071
38.79127759
40.71080757
45.75344642
49.10591772
43.11736349
40.09014506
38.27804549
37.20094513
36.50810535
36.07661937
35.71227657
35.59048072
35.5367717
35.51634988
35.36605316
35.38486909
35.43663327
35.55804975
35.76808963
36.1611836
36.72058254
37.3271372
38.12476372
39.26248466
41.49346678
47.06378006
52.64884197
45.02523265
41.0815811
38.74899431
37.40922909
36.57316928
36.06530622
35.61777108
35.45883092
35.3872342
35.35992573
35.23173388
35.25763569
35.32671328
35.48429216
35.72940139
36.19091339
36.82922531
37.51991519
38.40842523
39.66685844
42.11788401
47.70747728
54.33793484
46.41281938
41.85605209
39.14299799
37.59971667
36.64108449
36.06670621
35.53843636
35.34153136
35.25130492
35.21630403
35.11234272
35.14449825
35.22875863
35.4198875
35.70769942
36.22904646
36.94278246
37.70563616
38.66988701
40.02495419
42.68247563
47.53830988
55.05606717
47.26291543
42.3717604
39.42941844
37.75823652
36.70386224
36.07107465
35.47520094
35.23981163
35.13068587
35.08770008
35.00920121
35.04943571
35.15463359
35.3836206
35.69801912
36.27029612
37.05019034
37.88227908
38.89803073
40.34671215
43.2646018
47.02523261
42.89887758
54.88155275
47.66055116
42.64228518
39.5848159
37.87346626
36.75533175
36.07420856
35.42030816
35.15251592
35.02499946
34.97435049
34.91830248
34.96577814
35.08907799
35.34855877
35.70863368
36.34566467
37.20324302
38.07627494
39.14089356
40.68608592
43.89540098
45.53415507
53.67520897
54.85343432
47.72027156
42.64455267
39.64053025
37.95696146
36.7933429
36.07152528
35.36970843
35.07563315
34.93150572
34.87389752
34.83713198
34.89146237
35.03115052
35.31841056
35.70883141
36.39540517
37.32005859
38.30364004
39.49560233
41.1420951
44.30592365
41.94088934
55.05698085
54.07948433
47.25683819
42.46058422
39.60957072
38.00826679
36.81215596
36.05770114
35.32022978
35.00477603
34.8463558
34.78277112
34.76019471
34.82084187
34.97486766
35.28706963
35.70571844
36.43354898
37.41918778
38.57257947
40.03736431
41.95250519
44.95938647
36.40355936
53.69270652
52.26825571
46.26496926
42.06688478
39.52701942
38.01690464
36.80776384
36.02751607
35.26444368
34.93333857
34.76454071
34.69604867
34.68497195
34.75119448
34.91706491
35.25017542
35.69270438
36.45195954
37.49193762
38.79322856
40.70358103
43.07823542
44.35136985
28.96274907
53.04158849
49.85568247
44.94536155
41.57637227
39.44869677
37.99454602
36.77582513
35.97964391
35.201277
34.85994767
34.68245901
34.60987611
34.60617863
34.67723856
34.85289922
35.20347709
35.66528903
36.4461071
37.5241714
38.87357376
41.12121035
43.55519301
35.90214188
42.38508777
51.51948592
47.59556154
43.81053612
41.19698165
39.34203485
37.92551713
36.70616527
35.90821567
35.12430181
34.77723291
34.5956255
34.52002346
34.52409048
34.5991886
34.78247373
35.14627606
35.62258487
36.41772359
37.51684764
38.89095269
41.12053735
42.81860973
28.04098086
47.87946274
49.76964391
46.15558496
43.19811838
40.93689328
39.17701233
37.8096776
36.60799732
35.81716858
35.03526131
34.68630534
34.50247184
34.42518286
34.43420172
34.51264712
34.70217361
35.07655413
35.56413603
36.36711346
37.48035757
38.86508815
41.01745801
41.93610887
25.86319663
46.83622368
48.55717046
45.49055513
42.7819549
40.65551607
38.97952027
37.6622193
36.48745668
35.70882333
34.93367802
34.58526717
34.40068172
34.32236545
34.34015395
34.42126446
34.61545532
34.99672845
35.49099586
36.29788104
37.41765114
38.80391178
40.84117865
41.01693153
24.09586946
45.5365803
47.54124073
44.89403356
42.38302739
40.36868684
38.76526805
37.49420293
36.34994527
35.58604464
34.82185583
34.47631639
34.292151
34.21336589
34.23692904
34.32022774
34.5184391
34.90540874
35.40501727
36.21333693
37.3357094
38.71518306
40.60664543
40.11173141
22.63397638
44.31478876
46.61778516
44.33857284
42.00476123
40.08531658
38.5436966
37.31369904
36.19991558
35.45183245
34.69976314
34.35775609
34.17447282
34.09557452
34.13167792
34.21670017
34.4178059
34.80740672
35.30821299
36.11651243
37.23898609
38.60420736
40.32738105
39.2420354
21.42974161
43.15834423
45.76592633
43.81681619
41.64597083
39.80979129
38.32058738
37.1264103
36.04105259
35.30893755
34.57122935
34.23410673
34.05221712
33.97348264
34.01679092
34.10330546
34.30726323
34.69987548
35.20279015
36.01008434
37.13096955
38.47478158
40.01019129
38.41891589
20.439305
42.05798575
44.97120062
43.32357089
41.30422772
39.54365124
38.0994159
36.93622614
35.87644974
35.15976142
34.43493866
34.10199552
33.92134003
33.84286343
33.90374785
33.99144902
34.19732614
34.59001363
35.09053874
35.89640681
37.0143255
38.32919189
39.66667899
37.64766968
19.62317972
41.00327836
44.22258477
42.85474438
40.97741934
39.28697872
37.88214669
36.74568655
35.7085168
35.00620248
34.29629078
33.96874257
33.78961044
33.71149715
33.77979398
33.86862292
34.07678999
34.47144791
34.97329352
35.77739713
36.89085615
38.16880864
39.31055817
36.93002967
18.94910855
39.99104706
43.51232796
42.40686279
40.66376059
39.03924999
37.66972237
36.55639341
35.53901235
34.84985902
34.15105585
33.82709314
33.64897358
33.5711602
33.6630034
33.75272404
33.96221946
34.35533762
34.85215783
35.65452665
36.7616746
37.99506624
38.95189771
36.26499245
18.39166173
39.02028823
42.83595457
41.97705148
40.361733
38.79980835
37.46252714
36.36935673
35.36922073
34.69187202
34.00780112
33.68925529
33.51248054
33.43499975
33.53190668
33.62256755
33.83404383
34.22907331
34.72852453
35.52885858
36.62743175
37.80987798
38.59345369
35.64998312
17.92973076
38.08842146
42.18994842
41.56285226
40.06994757
38.56794136
37.26059869
36.18516614
35.20002949
34.53327929
33.8568897
33.54071711
33.3645491
33.28725721
33.41536455
33.50674069
33.71912876
34.11138057
34.60278181
35.40115302
36.48858934
37.61545664
38.23787373
35.08165135
17.54764922
37.19393889
41.57212873
41.16224547
39.78719773
38.34297852
37.06382305
36.00417454
35.03207396
34.37462763
33.71362918
33.40294149
33.22786877
33.15078466
33.27763815
33.36985519
33.58399363
33.97863548
34.47618991
35.27197055
36.34555072
37.41388802
37.88715128
34.55600001
17.23380721
36.3353426
40.97678046
40.77350393
39.51239279
38.12426211
36.87197609
35.82655852
34.8657938
34.21668536
33.55801025
33.24814952
33.07328831
32.99623338
33.16548297
33.25828906
33.473062
33.86394005
34.34846985
35.14172249
36.19874781
37.20710477
37.54311502
34.06917865
16.97908065
35.51098838
40.39977412
40.39520144
39.24458297
37.91118162
36.684786
35.65237981
34.70150842
34.05954685
33.41948834
33.11535863
32.94131611
32.86432491
33.01986118
33.11346345
33.32974814
33.72354034
34.22115883
35.01077664
36.04877072
36.99675234
37.20681108
33.61740771
16.77644762
34.71967195
39.83907319
40.02619223
38.9829842
37.70320351
36.50197445
35.48161782
34.5394621
33.90401681
33.2572257
32.95239558
32.77830188
32.70117741
32.91701006
33.01108405
33.227889
33.61764564
34.09319132
34.87946129
35.8963273
36.78414562
36.87878259
33.19693401
16.62087619
33.96053799
39.29350119
39.66556586
38.7269221
37.49983919
36.32325349
35.31420851
34.37992408
33.74976287
33.13022285
32.83102618
32.65738372
32.580203
32.76008754
32.85495577
33.07299996
33.46497591
33.96717784
34.74839989
35.74222231
36.57041295
36.55930876
32.80447229
16.50927451
33.23332493
38.76250819
39.31264601
38.47588384
37.30069719
36.14838946
35.15012737
34.22340902
33.59832172
32.95454822
32.65450987
32.48076666
32.40330273
32.67251316
32.76775877
32.98631694
33.376683
33.84151968
34.61874072
35.5882368
36.35654785
36.24851446
32.437312
16.43836485
32.53872027
38.24655356
38.96713339
38.22948048
37.10544004
35.97715234
34.98924726
34.07132479
33.44979368
32.85108641
32.5536435
32.3798805
32.30224796
32.47162519
32.56780725
32.78771153
33.17948023
33.72263761
34.49341947
35.43968313
36.14394104
35.94846245
32.0951551
16.40643442
31.87998333
37.75054478
38.63170831
37.98858445
36.91430366
35.80963263
34.83162465
33.92811022
33.31019843
32.62462765
32.3269686
32.15286829
32.07472829
45.52675539
49.78905453
44.19901566
46.93584828
53.67387508
50.26396424
47.6788402
55.37436241
53.98489736
47.58481732
56.0334803
55.48359289
47.06090302
40.24185632
42.13207862
56.32198077
56.07292467
46.07693921
47.76301279
40.3730809
53.10698589
56.77228544
56.3454188
42.44198909
40.75435391
43.68150021
40.50476131
55.01799958
46.35927927
48.52646169
43.63934129
41.67125541
41.31859722
45.76692295
44.63891244
57.73139578
61.10644146
52.3304029
46.00779859
44.27159424
41.97446023
46.65087406
45.89689773
47.39847607
50.12591519
51.21690469
55.26095524
54.9858765
54.20245657
47.71205754
46.4890826
42.55933348
47.03725146
46.72961829
47.70626235
45.94930716
48.23669502
57.00846479
55.86147302
43.13917066
47.04717185
47.05642654
47.31594925
40.59518283
43.3074497
42.35800825
58.32449275
57.9376718
43.78555356
46.61368257
47.02296437
46.73436248
33.48100283
36.89255185
44.40870721
50.1131268
48.1643791
50.76829033
53.14341501
45.32386807
50.23647732
61.10408951
55.40553225
47.41251772
54.06598472
59.55609876
51.34532652
52.04908761
46.47312764
52.97084666
51.47686735
53.36118898
53.12670418
55.12968674
57.42725212
52.18377255
58.80624086
57.07193789
59.72280524
58.97604234
51.92186935
48.45596619
49.93796801
47.48978874
49.53100478
47.40742395
51.38019496
49.66244615
55.65078912
55.34876259
54.91910521
57.47726789
57.72720799
56.98130468
57.43790055
54.73241094
43.45771229
45.80781434
47.68641007
44.69507036
41.84775261
47.26559098
44.85423577
57.86163304
57.1388469
37.06742459
40.39699222
47.28775324
46.7191351
38.15773256
34.30271046
41.68822784
38.39904503
49.39135975
58.52911514
58.36935829
41.59548118
40.74426934
33.41580976
46.68852564
44.42985717
32.31811811
89.62487536
34.19777026
32.35943097
43.81090145
40.47666613
44.42442753
42.21851473
44.26973563
48.89151788
44.80833071
71.68020795
51.00743955
46.33455688
52.10121199
51.54653758
65.77311375
55.01448817
48.77822858
48.01840785
75.72728596
46.77476076
45.06894378
48.2249031
58.80153525
58.6266779
51.3425117
49.30777792
44.6383077
60.87502106
48.50384065
58.40617341
45.82290073
52.89945068
46.710224
44.60201548
41.88771256
55.83357229
58.12265814
58.30932148
57.77490102
58.08947716
55.76733822
40.23439549
67.18048084
41.33548715
42.58338518
42.15734057
44.69108557
45.67965574
42.60706639
42.64833709
78.89744004
51.38469568
71.32825363
49.46899139
66.0693991
50.35695953
60.0915649
60.31377302
55.02209949
55.01178135
42.92837732
57.80714744
56.54715237
44.13523169
42.10139629
62.30745907
45.43162285
56.38791495
42.07550501
46.84909845
46.46129476
50.36614843
47.78053224
67.04180657
35.81453436
44.46764585
43.94050448
45.14812095
44.66097891
35.94444521
66.47816262
61.48958405
51.99261469
61.98438086
63.0782881
56.38974272
61.54821239
52.31482142
47.60332491
55.34497805
47.50004949
62.00657768
56.32885779
48.38065572
59.34955189
66.25311467
59.34210103
58.92484951
52.27034912
47.51524296
52.17572696
53.54211828
51.6494415
55.69366502
47.99006485
51.12671257
53.49411676
56.39839336
56.59258046
57.97257335
56.84965868
56.27106869
57.3773461
57.00070331
57.84122746
60.03060308
54.87642361
53.74054669
56.04259461
55.20262852
59.96867398
48.56406908
48.42696165
50.63678796
50.52841338
55.90185818
63.65151287
55.82183815
43.56166965
43.36560732
46.12901549
45.96523492
42.11412821
43.86833246
57.49765105
41.7453104
42.53551316
39.12697668
45.76879211
45.30961992
46.32745575
45.91303369
39.29899081
40.36412616
37.15212927
36.98071027
40.56265318
40.40325355
76.99853235
40.00426308
53.1221805
51.15140307
43.73677701
43.23682537
32.70233775
32.89489199
44.32030261
52.54916488
33.70151824
89.80669727
55.02754671
81.47980512
33.62258248
41.8930831
63.27658814
45.61962128
71.21180178
41.99540404
44.45942002
44.20090172
45.96688834
46.48991585
44.9372675
38.23873473
42.75599234
55.4784813
56.04106399
56.67305621
59.62867544
46.17988266
56.06672899
55.00843299
53.69543289
40.00860311
58.89532759
58.85054221
48.90621263
44.6936976
44.31517673
47.72903573
49.55579625
44.45508586
44.80048788
58.87684617
62.8084258
60.88047835
60.96088639
55.06571076
45.50514405
45.00664333
54.34092634
54.04103634
54.7467119
46.96635956
48.56567932
48.2836704
48.90868408
48.65543831
47.13327219
47.33107758
46.97176637
42.23216683
34.06902387
40.47285739
40.00783827
82.75057492
63.37255543
48.36720088
60.65522992
65.5128257
63.34925768
56.97735129
51.32599973
49.61685724
53.30654204
51.85872895
57.38214766
55.61734285
54.0605967
54.37491652
56.861291
49.12317081
49.19001595
48.98587981
43.09533083
43.69022532
47.85231278
44.98272123
44.72813802
55.52656282
57.57270439
57.92338138
57.88688445
56.81847328
57.69658164
57.47034371
57.86661637
57.74712441
56.81870449
44.64241215
47.77505252
47.44543213
48.18566578
47.88089527
44.80045591
44.21941314
37.85796621
38.25279319
34.10435185
34.42108129
42.39444587
46.79087343
42.13371545
42.93071882
38.40693297
38.8491626
45.33004929
57.59085296
44.4387167
49.32291782
81.49834607
42.49344056
37.67480986
35.57244285
41.21202675
33.7992106
34.03321286
33.25065088
39.5267171
67.02384731
38.04279776
41.74326448
40.84279587
39.85782627
39.42316788
33.24631409
44.63114977
41.7277882
46.36786585
32.21078292
102.3565798
47.95172099
43.8178561
44.73739375
34.00777326
32.51591627
62.68268253
62.3698081
61.27612408
65.41588637
65.12820194
40.68486747
41.47149448
76.32181252
58.33694504
58.18979349
52.47023016
67.43500216
52.73869089
67.73352282
53.76536248
54.7656407
45.55928443
42.68368742
62.96958036
72.40853375
64.41636166
49.9176158
39.96874933
67.49899539
81.11117837
50.63082939
63.94958007
87.20335962
43.14179842
47.95212781
40.90153961
42.32019553
79.24977935
79.30899245
60.98292599
56.17299296
66.143281
61.97852099
55.2501237
51.30109681
58.86075991
57.91752426
58.35765967
59.26462205
60.81277249
60.36525416
58.51740051
47.29625256
45.96799912
55.01885554
57.40298204
55.80160288
49.00560626
56.41115259
55.11474193
54.78629482
54.21065067
47.97080584
46.11260697
47.86495719
42.66970528
49.39521252
48.1160202
51.18650899
45.76887139
44.62503972
47.62291982
46.31033986
49.09961028
51.7263776
40.46420055
40.60122758
41.13144074
40.61070289
34.66282286
36.35965421
41.71114055
41.27814628
64.63258131
63.87895349
63.3708198
55.99866815
56.73899453
54.7302103
55.71437468
63.73929549
59.53356418
57.32430103
57.18765138
56.92510165
57.26762835
59.89932329
60.01659524
53.15603287
54.39351541
64.1777724
64.74116913
66.16905446
65.09112452
60.35593334
66.71793378
68.51482922
67.12565367
68.4104304
67.49568625
69.07609985
68.12703387
57.48237127
65.17676421
66.38037809
45.79483489
52.45142864
51.3702969
53.47311055
52.74440026
46.52140247
49.88036971
49.14471448
50.99551548
50.13408479
53.25620264
56.26587603
55.60287701
57.04139895
56.47552862
53.83323811
49.24445117
54.43797002
53.7192327
55.37339836
54.67447848
49.69622557
53.96747462
53.97363589
55.80519616
56.84961768
55.07383592
53.95751584
42.46128702
41.88270243
43.46544477
42.66432609
40.95781088
40.39201286
41.6983831
41.12901947
47.98130785
47.29980535
48.90834278
48.21481844
45.95060229
43.9973976
47.05389006
46.37398451
43.84843876
44.14805161
44.33956697
43.88454009
63.45600475
45.94010107
47.67911197
44.26781337
45.27713807
37.34219691
37.70241047
44.05964832
34.84810475
34.58624729
35.23682473
34.95451563
34.39856622
42.63072325
34.66511588
36.88509847
39.82715299
41.83325237
46.63092103
39.36096338
36.43981428
40.2765921
39.3962511
35.70078529
35.35877384
36.23282057
35.82795546
45.48805719
39.00585303
39.53666467
72.36795582
41.76815737
71.31277435
61.76448121
70.77010817
41.87877126
84.43838886
41.67337217
80.92953779
71.85994131
37.53323696
36.28852607
33.49472086
33.72880061
41.05313906
39.80809153
33.25379833
33.44403135
77.40293706
33.17037147
39.21736442
38.47140602
90.51638476
94.69881536
32.16798315
98.13862726
83.26349679
47.50723474
33.93620247
90.00298087
63.62656087
97.40963894
67.35999232
32.65805771
43.29093559
41.06094276
39.52975201
75.37840226
74.72165026
55.50714783
49.33375944
48.94425838
76.03621956
39.99251587
47.78653541
43.00591752
58.32405593
58.47089958
56.205764
47.7866461
46.76291796
51.89601557
59.86985477
47.44904458
47.78966654
42.00393137
42.40450824
45.32677639
53.35792486
58.3306448
61.79481356
50.63618484
49.48133237
49.42739445
49.44608031
49.48452295
50.79050346
41.322933
40.57544918
47.73591052
50.18177095
52.34822458
58.13950414
42.26324849
41.84725199
36.48642696
62.87767599
64.92511017
57.02492216
49.39162348
49.248388
49.3348065
49.11840466
45.49236769
46.24542397
46.61516837
47.75338225
50.05589986
38.04867365
42.83960625
42.4003639
62.3768377
58.71333444
44.98959791
32.8459807
32.89817263
34.48802872
53.9048411
78.27559452
69.90618072
40.39647876
43.4546689
41.68042481
32.28355484
34.12919173
32.75076931
32.80325876
32.39682348
72.58737794
64.806756
50.63157417
54.48652786
74.54134831
41.37288929
40.85605974
47.31186314
59.94603312
49.01992447
47.17087858
49.88523364
43.13730735
43.98147648
41.73863538
84.24614374
87.41725337
88.50511116
76.7371029
86.0019423
43.96292906
44.41060404
48.43286126
74.288408
67.03285694
63.44599587
77.74298241
74.48636597
43.49437611
52.85558838
50.4360796
68.07305604
66.82681182
51.87307402
50.99011944
49.8426739
42.48454637
63.44632847
45.26684958
46.41589115
59.70208877
44.9312122
47.0754218
66.09011365
67.04624377
62.31811451
62.47603124
60.84875613
60.69587051
57.12455231
58.44905712
57.9618385
60.50160141
60.22661773
60.98766528
51.21885568
52.73971512
59.36779621
61.28124271
68.79856102
63.99256762
68.66689549
69.10140092
65.37202415
43.72920827
46.47871567
45.84971433
50.99201836
50.69655543
47.22028897
43.25025107
42.94978208
45.30914029
44.87597024
52.17686041
54.95008811
54.53364571
57.50894602
57.07517601
55.04536783
48.35896957
51.74984689
51.4013816
54.11581332
53.70763894
50.6364894
44.67733228
45.28284588
48.98476308
47.99278915
43.88203973
44.47979718
48.87753688
49.48426689
50.9696303
41.25086714
41.06602308
42.69334593
42.45746561
38.30755429
40.80427
40.65313452
50.17388155
48.03429844
48.66798795
61.9875313
61.16169421
47.4711011
48.50408658
63.01449692
60.77584334
61.18607666
55.59990151
44.72951712
45.30322555
43.38825269
42.98025275
38.42905338
39.75448369
43.87889744
43.51015402
34.70493559
34.76608762
37.26829618
36.85010988
34.50850334
34.57743433
76.81493722
32.68327695
34.58560091
33.47606102
109.5080128
32.42089963
46.16004374
79.07776385
73.32577381
32.40578391
32.44483697
33.78461424
88.42901995
93.52481454
91.33619405
75.88520516
33.48300089
32.31360639
32.36153211
53.25927673
40.47139234
40.73303023
74.94052439
73.84392121
57.23206269
54.21273246
43.40896126
60.79892116
64.01680254
67.74183383
49.10862362
73.32801948
63.97877982
73.44771842
71.73324768
52.31702055
46.13811346
47.18541223
54.10845036
55.72095265
56.1195098
55.08387429
55.36745272
62.24296787
61.99406311
62.46058798
60.96083321
61.42598204
61.50938821
54.65179268
47.15498139
47.53943555
46.58746068
46.85191293
55.1699981
64.5142149
63.81023406
63.94825364
62.99405413
63.41722694
63.90850109
53.87889238
48.68423433
49.13560179
47.89977851
48.29912081
54.17879949
54.73895734
54.60784863
54.00075228
54.0301547
37.96790013
40.69780072
40.54887055
34.19111639
36.97821247
36.83743195
37.40168831
37.14510029
34.28372428
77.95846746
79.59548358
70.9770494
79.41521242
33.22882302
33.16919511
33.39307648
33.31294603
32.71206616
34.86748566
32.9708071
33.12050247
33.88343434
36.48471798
36.3619082
36.71759136
36.59813388
33.95603676
33.59280076
33.47083638
34.95543517
33.82501295
33.19516331
80.59693733
77.07738763
59.59617151
80.06788619
36.30337267
34.99008211
38.76144546
33.3181384
35.58727836
35.4508703
32.24116345
101.9910801
103.0288794
66.37677473
96.75468894
89.11237172
32.63427683
32.70352411
34.07562899
32.44857794
67.75772043
76.62700915
68.75068441
71.68403646
66.30486796
55.38420358
73.78097405
67.161672
66.34802261
65.71897209
76.01018998
58.45529281
65.86921297
59.45168269
55.88607418
63.87551541
56.01817428
59.86614558
68.67226521
70.33673702
61.00882892
67.26466706
72.49896268
71.81698861
73.55991677
70.49355569
74.53123233
84.46960708
83.96970791
82.2786962
54.42351706
75.0460957
68.5337728
82.39427898
84.3473798
59.49039224
65.67554184
70.96005306
85.77604247
73.51140699
57.40894919
61.05252887
72.86773841
67.65425952
73.79108454
64.5193117
68.78438266
72.64050961
74.98320257
74.1350716
57.45158981
57.81172612
58.18124784
56.91201821
56.77586475
56.68416233
59.65972155
59.92562856
60.37167137
58.88244919
59.28979977
59.16651546
46.86508657
46.79574283
46.83060394
56.76535587
56.36706847
52.18526267
58.16130668
58.14436065
56.85045966
55.06179342
56.00240191
51.03581526
46.56263905
46.4871247
46.83046274
46.72021508
48.81420023
67.34462223
59.00120978
44.43977584
70.00866638
69.5249427
68.97860261
49.62026282
67.39609332
66.10448234
43.66215684
44.23712894
56.25551779
65.41938751
63.03592335
59.4365786
58.96072578
57.8318544
60.57389369
59.99357436
59.67230979
70.18848312
69.91017155
63.00837417
71.0396025
73.48984097
65.25163555
69.84350225
70.12988535
65.84766426
64.00004918
64.00021256
63.94514662
63.96792289
65.48498154
67.19153604
67.78402258
68.34527454
72.57927472
72.17203661
72.98570786
72.85796099
68.14743961
69.59739838
71.59520857
72.99049642
69.90308941
49.29942353
49.10006143
45.77550833
46.70939804
50.23334067
50.02748729
43.85523369
43.53885493
44.51342431
44.17146069
55.79192013
55.36684957
52.6932992
54.43254988
56.64771556
56.219069
52.52051116
52.14968965
48.83561286
50.14043309
53.30039891
52.9121223
54.0129773
50.48432544
50.98248511
49.54494745
50.01944689
53.77791072
54.32576751
52.50536007
53.15618477
51.48622005
52.00190657
54.36682289
42.26212003
38.69083612
38.87899588
38.3516709
38.52278686
42.0728902
43.13170181
39.50816608
39.78878909
39.06788596
39.27813035
42.8833542
40.75647333
37.37085774
37.54395038
37.07753402
37.24877848
40.60612394
41.50755381
38.01925153
38.18951558
37.68542335
37.86317075
41.32638295
41.71619707
41.50557808
47.75528012
45.25321856
45.48249769
44.78514582
44.9944673
47.51869755
42.19785562
41.96920194
39.81305546
39.76476689
45.62608241
43.18076758
43.26299954
40.20241486
40.75554884
44.77229559
46.8487238
44.33500252
44.50805543
43.88008874
44.00165946
46.56910722
40.3628634
40.25688809
61.3095166
60.61365986
62.78666378
50.33951189
54.91492199
46.35541027
59.74106805
60.6446591
58.63957008
59.25688359
47.04663715
44.46747109
53.81831888
49.70563406
59.2267996
59.76483014
44.93148625
37.40748605
40.0277391
39.88777988
40.37365961
40.23807121
37.6156981
34.78150694
34.64799683
35.14533935
35.02558593
34.27205427
33.6256037
35.09852961
38.51255894
37.84420743
39.53893151
39.23532341
36.84889438
37.26508217
35.27404408
36.30994629
36.76922313
40.01254552
36.78735338
36.98340387
36.42074826
36.7103222
39.92772448
35.58812386
35.46325958
36.0857564
35.94898736
69.46183033
49.19823121
51.20094284
44.78756284
46.99859291
70.66517995
69.33334572
68.03478756
53.81096114
60.39840832
71.98430736
79.45538485
60.05316092
63.68369386
50.73684847
55.54696205
81.48227083
32.98826346
32.93816311
33.10278416
33.05960282
33.97279031
34.26718454
36.56385595
32.72054208
32.70613592
32.8580535
32.80714554
33.58120103
36.01975745
35.87757435
36.25045085
36.12125523
33.64282109
33.32753802
35.54699102
35.23460164
35.79483232
35.61599668
33.36337096
75.41105457
35.3173629
35.06489823
32.97133015
88.31997189
107.4500503
109.3910482
107.9182547
107.5109131
91.53231009
32.21952253
91.35492709
75.57851111
78.6296348
33.85480501
32.49610649
32.56370312
89.50961469
95.02892597
94.10272933
82.53892947
87.68826626
98.43272034
95.61301085
71.410342
92.3462516
84.67022247
32.4077144
32.29359013
33.18064284
36.74427101
36.80017351
36.86391715
36.82267042
36.90899127
36.92010645
36.93641544
37.01650108
36.98965311
37.0379781
37.0872963
37.03664025
37.09737529
37.11537157
37.05346978
37.11634512
37.10477886
37.04740345
37.09646311
37.05384023
37.01818304
37.03508014
36.96161091
36.95562955
36.93525694
36.84897347
36.89178713
36.82547867
36.76495027
36.84802479
36.6677716
36.78028522
36.78711149
36.82091435
36.94823283
36.91273264
36.98971905
37.10533157
37.03188406
37.1386373
37.22003426
37.11179081
37.23994713
37.27489516
37.14484629
37.2783605
37.26540842
37.1329587
37.25115515
37.17651362
37.07497102
37.1451968
37.03077759
36.97143953
36.98847992
36.86035601
36.84585713
36.81954108
36.70327668
36.74354681
36.65937312
36.82417534
36.78534603
36.88147637
37.05777028
36.96858922
37.11647683
37.2888372
37.1407811
37.3430914
37.48992892
37.27105802
37.53353289
37.61328363
37.33765288
37.62745426
37.61880082
37.32381427
37.59436702
37.45572961
37.23127784
37.40488897
37.21550352
37.06372252
37.14542559
36.94186602
36.87307819
36.87908832
36.71153029
36.699368
36.70034743
36.92149807
36.84324286
36.99957197
37.2462666
37.09763731
37.33490148
37.61829026
37.35542195
37.71847083
38.03211673
37.59099946
38.1396417
38.36567391
37.74530079
38.40266657
38.38358784
37.73028459
38.30344808
38.0293562
37.57699362
37.92910135
37.58614846
37.28641233
37.46853644
37.13511491
36.97858694
37.03487748
36.7758711
36.72178774
36.79017372
37.08262943
36.95544833
37.18621602
37.53702902
37.30977775
37.67285359
38.16631941
37.73084142
38.36969286
39.16028194
38.23158122
39.48476201
40.36605852
38.65238977
40.43955643
40.19520837
38.61242045
39.82147675
39.14068394
38.25294144
38.90198583
38.22570761
37.72086487
38.01799795
37.46205709
37.20415819
37.30328509
36.90613101
36.80148221
36.9208524
37.29807371
37.13232754
37.43670316
37.92992607
37.62919264
38.1345937
38.97558093
38.34837822
39.38384606
41.82493074
39.58368834
40.85358568
41.40118512
40.30140732
42.11775935
42.10577379
40.77289109
41.50638558
40.79409684
40.27529821
40.50290337
39.17882577
38.43878797
38.8188441
37.93184442
37.56779187
37.68930721
37.10305321
36.95012794
37.08970691
37.56445268
37.36581462
37.74138714
38.38772523
38.04816315
38.66498087
39.86336227
39.20728748
39.95304924
40.60794862
40.26367766
43.40280073
44.12641626
43.52435575
45.86509731
44.34195895
42.86506807
42.59671783
40.36368121
39.47153787
39.80270066
38.49395937
38.06354786
38.15164717
37.34980935
37.16243189
37.27919614
37.84059567
37.63337659
38.05030893
38.81977377
38.49802468
39.15192587
40.59272644
40.06211812
40.92883367
41.78847575
41.53172862
45.96891303
47.26324276
47.01413216
50.70399363
47.75018333
46.50632123
44.60604614
41.55787927
40.69350731
40.80106878
39.07396749
38.65011044
38.63184883
37.61156185
37.4167125
37.4738972
38.10681608
37.90808778
38.34183729
39.20154978
38.91944108
39.57210526
41.17437208
40.74833703
41.66167055
42.63013812
42.43892682
47.18426926
48.84689706
48.7288475
53.45301355
50.16509195
49.39645439
46.14025342
42.55684236
41.86364453
41.65436297
39.57346579
39.22136082
39.05073859
37.85006432
37.67411162
37.66737316
38.354735
38.16821362
38.60900802
39.53915627
39.28758319
39.94102289
41.68404463
41.30431816
42.2699343
43.32440877
43.14676408
47.71854188
48.50867999
48.66616605
54.70149703
51.53775024