/*--------------------------------*- C++ -*----------------------------------*\
| =========                 |                                                 |
| \\      /  F ield         | OpenFOAM: The Open Source CFD Toolbox           |
|  \\    /   O peration     | Version:  v1912                                 |
|   \\  /    A nd           | Website:  www.openfoam.com                      |
|    \\/     M anipulation  |                                                 |
\*---------------------------------------------------------------------------*/
FoamFile
{
    version     2.0;
    format      ascii;
    class       surfaceScalarField;
    location    "1.92";
    object      phi;
}
// * * * * * * * * * * * * * * * * * * * * * * * * * * * * * * * * * * * * * //

dimensions      [0 3 -1 0 0 0 0];
oriented        oriented;


internalField   nonuniform List<scalar> 
25162
(
0.0004926570456
0.916157343
0.0006654031744
0.9165272539
0.0008571487832
0.9164582544
0.0004252326457
0.9164361194
0.0006457967031
0.4583355637
0.0004396689204
0.458275231
0.0005679005006
-0.0005431314997
-0.0007102649935
0.4582380523
0.0008222126485
-0.0009330653378
0.4581797549
0.001088310469
-0.001254958241
0.4581543442
0.001430614017
-0.001619813531
0.458144636
0.001810177478
-0.001988119279
0.4581745337
0.002148585561
-0.002284001653
0.458249713
0.002365788601
-0.00240207731
0.4583506424
0.002384934939
-0.00231565777
0.4584478387
0.002202819063
-0.0020575315
0.458500313
0.001887218502
-0.001713763298
0.4585104945
0.001538268836
-0.001357961959
0.4584943616
0.001198600374
-0.001047679855
0.4584843922
0.0008782876551
-0.0008111798027
0.4584491367
0.0007120430797
-0.0005800643503
0.4584584976
0.0004715667243
-0.001844644795
0.9185932239
0.0003170081288
-0.0004155872609
-0.001155122024
0.9186604772
-3.997043118e-05
0.9157348484
0.9137600296
0.001360991136
0.9147963518
0.002260781816
0.9156274632
0.002802767665
0.9159162685
0.001089629013
0.9165232301
0.001626028021
0.4578804082
0.001311120231
-0.4581018994
-0.4580465332
-0.001615239793
0.4576710545
0.001990718532
-0.4578482783
-0.002446626159
0.4573100439
0.001396219718
0.001588640833
-0.2288440769
-0.001666778376
0.2287081816
0.00180267365
-0.002350051823
-0.2287763851
0.2286047198
0.002521717148
-0.003153848886
-0.2287543242
0.2285538663
0.003354306848
-0.003967076817
-0.2288190254
0.2286291951
0.004156907047
-0.004599597348
-0.2289763601
0.2288308998
0.004744991063
-0.004921688482
-0.2291913246
0.2291600157
0.004953107031
-0.004688882806
-0.2293584028
0.229450043
0.004597242624
-0.004122783131
-0.2294530951
0.2296303575
0.003945520731
-0.003368411584
-0.2294780413
0.2296892917
0.003157161137
-0.002591073873
-0.2294482245
0.2296464881
0.002392810262
-0.001916051553
-0.2293910941
0.2295529483
0.001754197401
-0.4588488919
-0.002551397966
0.460241881
0.001158408841
0.0001065061582
0.4608695727
-0.001751054102
-0.4592250248
-0.002100048354
0.9179253481
0.0008173838454
0.001950540338
-0.00129750164
0.9178579305
0.000205521797
0.914231825
0.9139655514
0.001757524205
0.9130388276
0.004600897046
0.9127840904
0.007826810185
0.9126903554
0.003561518306
0.9136941681
0.007094353871
-0.4576733134
0.4573042351
0.003930596644
-0.4572576878
-0.004157831862
0.4576143585
0.003801161117
-0.4565693391
-0.004229681385
0.4559341299
0.002346940531
0.002517950044
-0.228044362
-0.002864011007
0.2277518427
0.003156530277
-0.2277634585
-0.004172558077
0.2273853029
0.004550713692
-0.2276251171
-0.005918446687
0.2264157333
0.007123360015
-0.2265442156
-0.01142216569
0.2251769944
0.01277035828
-0.2272711195
-0.01616684419
0.2264397724
0.01698443816
-0.2292666162
-0.01827280082
0.2292869796
0.01825506853
-0.2312270576
-0.01685437139
0.2321586912
0.01593994498
-0.2316418343
-0.01221294918
0.2331361775
0.01073619449
-0.2305887462
-0.006392009506
0.2311734598
0.005808249825
-0.2304658613
-0.004676212549
0.2308270745
0.004314999359
-0.003063268668
-0.2302677175
0.2309338832
0.002397102949
-0.4628110282
0.0008859786362
0.4615597083
0.0003653412569
-0.4599025218
-0.0005899949239
0.459809581
0.0006829357607
-0.0005866692216
0.9193711164
-0.0005446158824
-0.0003144831561
0.001140826744
0.9161304346
0.0005215986764
0.914851053
0.91448715
0.0007836874043
0.9122551402
0.001738895399
0.9118288824
0.003455386789
0.910973864
0.004071536949
0.9100039051
0.003074112778
-0.4562954107
0.4555987699
0.004768177819
-0.458815321
-0.006300609334
0.4553813397
0.009734590655
-0.4569071069
-0.01145459856
0.4579151912
0.00352943724
0.006917077072
-0.2266608282
-0.003828121897
0.2262782321
0.004210718065
-0.2253731864
-0.006162039206
0.2231014676
0.008423192324
-0.2201986213
-0.01603796192
0.2175433117
0.01864626491
-0.2196098035
-0.02602103886
0.2173681833
0.02821324908
-0.2230452771
-0.03363013887
0.2216685076
0.03498023832
-0.2291248707
-0.03740177848
0.2289399494
0.03759240452
-0.2356305855
-0.03607694903
0.2369069517
0.03483696057
-0.239372707
-0.02907415664
0.2419204527
0.02657964922
-0.2377446251
-0.01809570878
0.2407396546
0.01514231167
-0.2344688441
-0.002186624847
0.2389927558
-0.002335641396
-0.002963626944
-0.2317603925
0.2317533042
0.002970715244
-0.4614389615
-0.004311724642
0.4625043271
0.003246359087
-0.4604326063
-0.002172460012
0.4612930828
0.00131198352
0.001983972132
0.9189331193
-0.0008407452029
-0.0007052298437
0.001448825646
0.916665581
0.0006555524494
0.9156443262
0.9151427025
0.0003570851517
0.9118980551
0.0008509389522
0.9113350286
0.00168265897
0.910142144
0.002222934573
0.9081373392
0.001326290306
-0.4550444686
0.4539828057
0.003284597412
-0.4535253841
-0.004064815984
0.4524490771
0.005141122934
-0.4511936796
-0.006562183923
0.4497492397
0.004137385868
0.003869237977
-0.2263192956
-0.006385538559
0.2239942355
0.008710079914
-0.215248326
-0.01877308727
0.2141214163
0.01984279738
-0.2085103103
-0.02615535423
0.2054057897
0.0291766468
-0.2101847357
-0.0373182767
0.2078322689
0.03960457645
-0.2171471792
-0.04521581343
0.2156120752
0.04672162123
-0.2277781044
-0.05011173202
0.2271226714
0.0507734005
-0.2404555887
-0.05064470375
0.2415647911
0.04957803852
-0.2503188238
-0.04261916484
0.2533666216
0.03964767035
-0.2573682453
-0.02348267455
0.258061628
0.02286645167
-0.2421673416
-0.01528833877
0.2457401783
0.01175981833
-0.004347862244
-0.2330345375
0.2335222793
0.003860120492
-0.4639855909
-0.004808135516
0.4653631856
0.003430540804
-0.4620705511
-0.002494891235
0.4628494453
0.001715997109
0.002532099917
0.9202841475
-0.00227406459
-0.001609063521
0.001302702596
0.9178949784
0.0005701617637
0.9163768671
0.9157128643
-3.812945448e-05
0.9119361845
0.0001058491057
0.91119105
0.0006553105618
0.9095926826
0.0009238084967
0.9070640722
0.0008047691342
-0.4528351765
0.4522257321
0.001533252879
-0.4514878281
-0.002844222767
0.450285522
0.004046528962
-0.4482438306
-0.005144572045
0.4465571906
0.003428016978
0.003403195028
-0.2165013359
-0.006050326007
0.213749059
0.00877334164
-0.200488382
-0.01840026557
0.1969840121
0.02181385636
-0.1987026462
-0.03352460879
0.1942746727
0.03785330783
-0.2043094723
-0.04399042125
0.2036148424
0.04462681832
-0.2117457368
-0.04633465278
0.2120022793
0.04606406923
-0.2240295714
-0.05011170842
0.2226991218
0.0514434012
-0.2449968318
-0.05106423611
0.2445564916
0.05152870609
-0.2673583365
-0.04266467725
0.2650167176
0.04508079366
-0.2665730073
-0.03815499526
0.2706132743
0.03421626767
-0.2578110398
-0.02154362261
0.2621040076
0.01733312143
-0.005355826369
-0.2375148838
0.2396420445
0.003240366173
-0.4664971552
-0.004673173436
0.4676049691
0.003565359588
-0.4632178008
-0.002783300161
0.4635184621
0.002482638917
0.001748192023
0.921920285
-0.00157994474
-0.001804384832
0.0008533685816
0.9187898018
0.0002950792448
0.9169351564
0.9160079435
-0.0006365486312
0.9125727332
-0.001075526178
0.9116300276
-0.001229163631
0.90974632
0.0001794580328
0.9064107412
-0.0007552906617
-0.4518885729
0.4513580979
0.0007099330628
-0.4488444722
-0.001206664056
0.448143028
0.001908108329
-0.4455957467
-0.00327108896
0.4445507159
0.002097115295
0.002218946094
-0.2059680544
-0.006209844171
0.203348033
0.008776450252
-0.1858072514
-0.01750671
0.1851210036
0.01807927859
-0.1863300529
-0.02589045696
0.1843911704
0.02773008514
-0.1975606225
-0.03225631297
0.1960879346
0.03369504447
-0.2046117788
-0.04900053683
0.1035308039
0.09763876845
0.0240518027
0.02839094059
-0.0348519449
-0.1086678397
0.1081053678
0.03541441677
-0.02811085039
-0.2523686826
0.05295488753
-0.02848332768
0.1276212028
0.1283867703
-0.04721227267
-0.2689030945
0.2715269118
0.04463772228
-0.2827698034
-0.03328668441
0.2849314735
0.03123270519
-0.2735007614
-0.0232432982
0.2775862905
0.01925836019
-0.008469187659
-0.2486863996
0.2516530973
0.005541266534
-0.4686682366
-0.003499655455
0.4691668473
0.003001044707
-0.4642519122
-0.002109717162
0.4649596977
0.001401931718
0.0003720007828
0.9228938686
-0.0005450020082
-0.0008005823612
-5.611926453e-05
0.9192179219
-0.0001226985714
0.9170017357
0.9158852449
-0.001309615865
0.913882349
-0.002521165209
0.9128415769
-0.003455668124
0.9106808229
-0.001678872516
0.9071285592
-0.002494613618
-0.4512386552
0.4511418974
-0.001582114704
-0.4477416297
0.001529474807
0.4475151022
-0.001302947238
-0.4423857397
0.0009862646931
0.4410332313
6.899575094e-05
0.000292792527
-0.1969995106
-0.002382595439
0.1955602375
0.003755087333
-0.177453987
-0.008837337589
0.175618513
0.01055571016
-0.1800211417
-0.01555358968
0.1785402926
0.01694135639
-0.1944301194
-0.01944045373
0.1942671993
0.01959233316
-0.08824352011
-0.01254251035
0.08792956186
0.0128564686
-0.03467510775
-0.142288522
0.1453206995
0.03164293032
-0.0392517837
-0.2788959407
0.2817062021
0.03646678963
-0.2952631999
-0.02758585515
0.2984502522
0.02449897988
-0.2886753052
-0.01538511132
0.2916575219
0.01251605609
-0.008023930956
-0.259149606
0.261672372
0.005554130329
-0.4700265776
-0.001354950733
0.4706789829
0.0007025454159
-0.4654874417
-0.0002774970391
0.4658917246
-0.0001267858942
-0.001675898
0.9230301536
0.001029856328
0.0005097567275
-0.001311690285
0.9188537141
-0.0006982379499
0.9163882834
0.915187007
-0.002007740679
0.9158900897
-0.003928217316
0.9147620536
-0.005898257017
0.9126508626
-0.003421142217
0.9089110385
-0.004259594089
-0.4514009657
0.4516554184
-0.003675594935
-0.4475869651
0.003994009135
0.4479135019
-0.004320545872
-0.4402929005
0.004645935594
0.439877279
-0.001901919074
-0.002339209456
-0.1912487399
0.0003684979684
0.1900061834
0.0008067565138
-0.1705483241
-0.004949140507
0.1690617019
0.00632524874
-0.1760416867
-0.009502184927
0.1754227299
0.01003782833
-0.1959056051
-0.009401301362
0.1968888527
0.008413578675
-0.09174370236
-0.002003297768
0.09248062658
0.001266373544
-0.01531686314
-0.1585176036
0.1589794979
0.01485496879
-0.02192853377
-0.2870965867
0.287806777
0.02123168536
-0.305128747
-0.01778517465
0.3067537129
0.01625001154
-0.2991010423
-0.01073506313
0.3010758253
0.008868905089
-0.003455663404
-0.2669484387
0.2685235193
0.001939082357
-0.4715818389
0.001455905454
0.4722928841
-0.002166950646
-0.4659998073
0.002390577229
0.4659876838
-0.002378453701
-0.00408255594
0.9219319566
0.002809735296
0.002371017587
-0.002809363471
0.9175805217
-0.001436316162
0.9150152361
0.9137506908
-0.002672807796
0.9185628975
-0.005469477784
0.9175587236
-0.008240586077
0.9154219709
-0.005178552302
0.9118711375
-0.006022132758
-0.4522726392
0.4528948664
-0.005800779597
-0.4484429212
0.006547614601
0.449309391
-0.007414084351
-0.4397495348
0.008309344341
0.4397349329
-0.003915340712
-0.004394257916
-0.1867127885
0.002624484028
0.1856167599
-0.001593215674
-0.1650622549
-0.001957332015
0.163850214
0.003067002136
-0.1741275367
-0.005223300275
0.1739336243
0.005342506287
-0.2004131137
-0.003281867557
0.2017134007
0.001979292716
-0.09643387256
0.001081876144
0.09687696684
-0.0007410859038
-0.0007838845122
0.003493167766
-0.1557018745
0.1546056696
-0.002396962882
-0.002919126348
-0.2883813388
0.2878514079
0.003462438049
-0.3107599132
-0.003254192394
0.3114146409
0.002684729948
-0.3055016914
-0.00028380398
0.3064511851
-0.0005623775957
0.002449698207
-0.2704298821
0.270788928
-0.002753058874
-0.4720691952
0.005365707636
0.4714289115
-0.004725423967
-0.4656418127
0.004444678174
0.4658265058
-0.004629371282
-0.006686144506
0.9195774452
0.004805944094
0.004234711806
-0.004397749009
0.9152921262
-0.002217765442
0.9128352525
0.9115329254
-0.003399410717
0.9219623082
-0.00682484807
0.9209841609
-0.01047262841
0.9190697513
-0.006841136977
0.9158800081
-0.007640362052
-0.4538475041
0.4548058341
-0.007799467046
-0.4503480799
0.008973513614
0.451537875
-0.01016330867
-0.4400280915
0.01153784263
0.4404144633
-0.005818613429
-0.006125568586
-0.1824453655
0.004365778541
0.1814038816
-0.003386406547
-0.1604763381
0.0001275737965
0.1594222083
0.0008323245384
-0.1737652147
-0.002355808241
0.1738319067
0.002222896018
-0.2056299991
0.0005890750186
0.2069225243
-0.001882365763
-0.09951297999
0.002716943909
0.09982713717
-0.001500493641
-0.001530607441
0.01338555584
-0.1452769484
0.1438304889
-0.01193909642
0.01169391941
-0.2861419008
0.2859704145
-0.01150100591
-0.3135799567
0.01363546205
0.3105810653
-0.01055353045
-0.3078306952
0.009781452849
0.3075185153
-0.009373723392
0.00765073151
-0.2685659943
0.2678074808
-0.006846134539
-0.4704887558
0.009050104581
0.4692868065
-0.007848155355
-0.4659017168
0.006753472117
0.4648932277
-0.005744983054
-0.009071846233
0.9161743881
0.006430207365
0.00604469602
-0.005925084088
0.912145364
-0.002922336428
0.9098325049
0.908610589
-0.004039323141
0.9260016314
-0.008150707797
0.9250955456
-0.01249440633
0.9234134498
-0.008291231542
0.9204344093
-0.008757575944
-0.4560212322
0.4572289038
-0.00949890313
-0.4530002878
0.01092369583
0.4545634665
-0.01248687454
-0.440482814
0.01421713649
0.4416465904
-0.00692888914
-0.008478001841
-0.1782320444
0.005226934301
0.1771090446
-0.004162785335
-0.1564244182
0.0008898084876
0.1554753745
-2.634632574e-05
-0.1743962312
-0.0009409524605
0.1747425453
0.0005369907474
-0.2107855747
0.003246027461
0.2120816831
-0.004542190684
-0.1019103691
0.00411355499
0.1022167603
-0.002189488454
-0.002230457806
0.01661914176
-0.1341205047
0.1327392317
-0.0152378688
0.02065742499
-0.2850297621
0.2853959006
-0.02099110691
-0.3103208433
0.0169152813
0.3151590391
-0.02167262283
-0.3055483358
0.02267431824
0.3046061111
-0.02164426838
0.01223872428
-0.2621222034
0.259755811
-0.009838735985
-0.4678648551
0.01213510622
0.466223247
-0.01049349814
-0.4638396122
0.009031499833
0.4625626728
-0.007754560385
-0.01120964808
0.9135148137
0.00714846878
0.006720753748
-0.00725840244
0.9081941184
-0.003538106941
0.9061122094
0.905072482
-0.00827746657
0.934279098
-0.01678275569
0.9336008347
-0.02549309196
0.9321237861
-0.009676534622
0.9297739918
-0.02515613986
-0.4587251328
0.4601919349
-0.01114333669
-0.456201205
0.01279109554
0.4580544924
-0.01464438287
-0.4390651485
0.01655636175
0.4356549815
-0.006148990723
-0.007032448289
-0.1744124275
0.002133007786
0.1720882709
0.0001384440804
-0.1527433402
-0.0006468178593
0.1526962818
0.0006180578565
-0.1762658216
0.001432466289
0.1747214334
6.143846488e-05
-0.216012496
0.004711454968
0.2173644542
-0.003028748765
-0.003034664447
-0.05243936128
0.002687746442
0.05253936159
-0.002787746748
-0.05828146043
0.006233531565
0.05778781984
-0.01210568567
0.00636579469
0.0147273089
-0.124610634
0.2454722459
-0.02529952023
0.01426952616
-0.1245589267
-0.2858361257
0.02719174443
0.2892267159
-0.03053876073
-0.3147247154
0.02850463939
0.3135124125
-0.02721153246
-0.300082452
0.02196232141
0.2979484648
-0.01975709625
0.01227607341
-0.2492832366
0.2466275302
-0.009604046488
-0.4642707086
0.01425179596
0.4623207922
-0.01230187949
-0.4612408181
0.01078776264
0.4598230434
-0.009369987877
-0.01292160044
0.9096657081
0.008611716027
0.008158990076
-0.008355002928
0.9036275209
-0.004120048812
0.9018772553
0.9009524332
-0.004805395243
0.9390844933
-0.009762974673
0.9385584142
-0.0150343022
0.9373951137
-0.01029400054
0.9355568756
-0.01052318546
-0.463718259
0.4652714408
-0.01184718234
-0.461686179
0.01358558957
0.4635741227
-0.01547353323
-0.4343613904
0.01753906277
0.4399778875
-0.01096485323
-0.01223383502
-0.1677294383
0.01235064734
0.1679626343
-0.01264022389
-0.1495700954
0.01203148104
0.1488958171
-0.01143079073
-0.1798439701
0.008881698617
0.1787732567
-0.007855136543
-0.2218566354
0.005022117412
0.2231697619
-0.00317563413
-0.003159609777
-0.0548923116
0.005548128655
0.1102165344
-0.05487083816
-0.003000049344
-0.003001463965
-0.1121006356
0.008069826024
0.1119379784
-0.01572844901
0.007821280248
0.02421503092
-0.2387336969
0.2390323865
-0.02451201315
-0.291373902
0.0282017392
0.2923155477
-0.02909359237
-0.3089467877
0.02843676023
0.3154903634
-0.03490708619
-0.2906739966
0.03058085128
0.2828762339
-0.0227279722
0.01140317314
-0.2348762626
0.232645449
-0.00916985621
-0.4606153415
0.01513425596
0.4590848072
-0.01360372161
-0.4583906876
0.01209302817
0.4567122173
-0.01041455782
-0.01240299536
0.9049819094
0.008479148106
0.008607645935
-0.009063023076
0.9002875487
-0.004445256264
0.8972594885
0.896507177
-0.004998321259
0.9440828145
-0.0101411701
0.943701263
-0.01557644838
0.942830392
-0.01067303071
0.9414589485
-0.01080549059
-0.4669108182
0.4685385703
-0.01230078276
-0.4654651372
0.01406103581
0.4673398408
-0.0159357394
-0.4495648061
0.01796413002
0.4603823482
-0.01448186192
-0.01431884327
-0.1733775582
0.02261042807
0.1769052261
-0.02618650421
-0.148951707
0.03371116418
0.150021478
-0.03485217105
-0.1722902761
0.03322124499
0.1698484441
-0.03083200452
-0.2185475273
0.01783337839
0.2124089382
-0.01170612406
-0.1133906878
0.008796863587
0.2269497878
-0.008988821497
-0.1133671421
-0.2260822552
0.01548002276
0.226632298
-0.01603006552
-0.2507820245
0.02815841904
0.2563674984
-0.03372644285
-0.2990593034
0.04289710672
0.2998100157
-0.04359307557
-0.3114959948
0.03995071629
0.3088254794
-0.03721405996
-0.270553486
0.02612402438
0.2709379139
-0.02647210629
0.01136036065
-0.2307284287
0.228428177
-0.009060108973
-0.4577206882
0.01693554483
0.4546767801
-0.0138916367
-0.4550000173
0.01247564565
0.4530279935
-0.01050362183
-0.01282805361
0.9003647582
0.008804166944
0.008641037933
-0.009140797344
0.8966002924
-0.004660554864
0.892779246
0.8918466221
-0.005053339302
0.9491361539
-0.01023342011
0.9488813439
-0.0156645978
0.9482615696
-0.01074527989
0.9472925055
-0.01075287486
-0.4701468698
0.4717578126
-0.01235622262
-0.4691744272
0.01406600089
0.470962572
-0.01585414564
-0.4677945181
0.01775334756
0.4699660988
-0.01007226104
-0.009852785316
-0.1930187565
0.02414260501
0.2002016884
-0.03135536686
-0.1581037529
0.05008355213
0.1627513381
-0.05479096301
-0.1655580174
0.0626613455
0.1658897379
-0.06305000179
-0.197693621
0.05826319031
0.1947159337
-0.05531773346
-0.218055224
0.04607372638
0.2130830003
-0.04111086964
-0.2387330507
0.04901848575
0.2420951346
-0.05237424221
-0.270144035
0.06313139589
0.2728027567
-0.06576054935
-0.2991996695
0.06732894176
0.297356837
-0.06543392018
-0.2963769057
0.05312018748
0.2905494298
-0.04724147823
-0.2536545158
0.02670194644
0.2464782943
-0.019507301
0.01094652792
-0.2265587612
0.2259711688
-0.01035893551
-0.4539954087
0.01742026829
0.4513533511
-0.01477821067
-0.4502217559
0.01142374188
0.4486713135
-0.009873299433
-0.01208069196
0.8942492186
0.00937289672
0.008823334778
-0.006773181616
0.8912927821
-0.00472922237
0.8907352868
0.8871173998
-0.004989133126
0.954125287
-0.01008335043
0.9539755612
-0.01538082036
0.9535590396
-0.0105594081
0.9529157826
-0.01044468937
-0.4733065298
0.4748385153
-0.01209139359
-0.4726870678
0.01369845444
0.474344231
-0.01535561772
-0.4718916802
0.01708200862
0.4737016522
-0.00951013439
-0.009381846267
-0.2262880568
0.0106182574
0.2342428669
-0.01857728279
-0.1830407896
0.04751078785
0.1917568495
-0.05626370067
-0.1738688767
0.07748404945
0.1789221984
-0.08258414443
-0.1928485631
0.09226678552
0.1942314075
-0.09368511219
-0.202553359
0.08768967816
0.2030898486
-0.08824098685
-0.2468074908
0.09525649392
0.2468166671
-0.09525827886
-0.2734691664
0.09278516679
0.2712683792
-0.09055606503
-0.2854149869
0.07813970887
0.2793287036
-0.07201437168
-0.2680197795
0.04857442036
0.2590561507
-0.03958295793
-0.2255339531
0.01278637666
0.2245557266
-0.01180795016
0.01026316383
-0.2243701398
0.2238744455
-0.009767469502
-0.4477036033
0.01663627356
0.4459910271
-0.01492369728
-0.4471225947
0.0132891691
0.4455419825
-0.01170855689
-0.01132949853
0.8872162263
0.01008330786
0.008279183026
-0.006415728924
0.8863790125
-0.00438139952
0.8887009574
0.8827360002
-0.004831228792
0.9589565158
-0.009743848221
0.9588881806
-0.01480675861
0.95862195
-0.01015748537
0.9582199837
-0.009953474292
-0.476293907
0.4777165229
-0.01158010132
-0.4759209142
0.01305427035
0.4774190475
-0.01455240364
-0.475393328
0.01608699247
0.4769699463
-0.008911246126
-0.008752364633
-0.2371866789
0.00972731662
0.2375994728
-0.01014011051
-0.221943495
0.01642571909
0.2326675754
-0.02715653448
-0.2002408494
0.05698974657
0.2088492245
-0.06562189022
-0.2003623499
0.0845946169
0.2028186079
-0.08707437504
-0.2138397098
0.09501375323
0.2176880708
-0.09887338789
-0.2432652468
0.09841367719
0.2411616069
-0.09630505767
-0.2586771321
0.08463028783
0.2529853865
-0.07892118368
-0.2560326267
0.05663212473
0.247170731
-0.04775269104
-0.2296734488
0.01854300915
0.2235652471
-0.01243286375
-0.223129214
0.0111201947
0.2227087945
-0.01069977516
0.009452565419
-0.2225370293
0.2221252974
-0.009040833488
-0.4443834139
0.01556382782
0.442881184
-0.01406159792
-0.4440668203
0.01260001394
0.44263098
-0.01116417363
-0.01421608537
0.882085228
0.00957276256
0.009774321131
-0.009340467574
0.8815033947
-0.00181798583
0.8811784757
0.8809180144
-0.004603418757
0.9635599346
-0.009264547907
0.9635493098
-0.01402449372
0.9633818958
-0.009602144275
0.9631402504
-0.00934261616
-0.4790566558
0.4803568299
-0.01090231844
-0.4788308967
0.0122323707
0.4801628706
-0.01356434458
-0.4784316945
0.01490541784
0.4797825744
-0.008204651935
-0.008051645798
-0.2387233703
0.008901888382
0.2390638663
-0.009242384327
-0.2377294011
0.01024514096
0.23805613
-0.01057186984
-0.2357431732
0.01152679464
0.2368830764
-0.01266691524
-0.2138682397
0.02977621993
0.21874656
-0.0346596865
-0.2257971622
0.04782864475
0.2277443354
-0.04977946751
-0.2334722064
0.04803523162
0.2307963642
-0.04535797565
-0.2339544236
0.03147003001
0.2276199156
-0.02513259741
-0.2237937752
0.01229673524
0.2235433425
-0.01204630259
-0.2224948354
0.01120334678
0.2221894202
-0.01089793159
-0.2215881142
0.009933725186
0.2212562384
-0.009601849399
0.00859395995
-0.2210182072
0.2206772764
-0.008253029082
-0.4414805383
0.01433944322
0.4401781953
-0.01303710022
-0.4413041267
0.01174856437
0.4400197328
-0.0104641704
-0.01342285797
0.8773550375
0.008949336314
0.00920371211
-0.008857117448
0.8769376542
-0.004397260662
0.8767186189
0.8765207538
-0.004328445969
0.9678883805
-0.008693374657
0.9679142385
-0.0131118911
0.9678004123
-0.008951433235
0.9676466893
-0.00866689675
-0.4815722569
0.4827500027
-0.010129179
-0.4814111072
0.01131711015
0.4825843402
-0.01249034314
-0.4810296915
0.01365367155
0.4821799194
-0.007467062235
-0.007336837285
-0.239991287
0.008065903979
0.2402729242
-0.008347541125
-0.2389333628
0.009161916726
0.2391946639
-0.009423217839
-0.2375554568
0.01015220879
0.2377365208
-0.01033327274
-0.2220979472
0.01034553062
0.2221652558
-0.01041283921
-0.2302027266
0.01146923463
0.230256816
-0.01152332398
-0.2275115585
0.01153125699
0.22747522
-0.01149491851
-0.2249519845
0.0112487802
0.2248296621
-0.0111264579
-0.2228928206
0.01065478931
0.2227044771
-0.01046644579
-0.2213849759
0.009824194406
0.2211490483
-0.009588266871
-0.2203666638
0.008831066983
0.2201014519
-0.008565855064
0.007744858921
-0.2197610708
0.2194764598
-0.007460247969
-0.4389688434
0.01306978138
0.4378469577
-0.01194789568
-0.438839962
0.01082067882
0.4377010302
-0.009681746959
-0.01250778582
0.8730439118
0.008269680301
0.008549231179
-0.008286740969
0.8727166093
-0.004123701176
0.8725555791
0.8723970526
-0.004026847924
0.9719152285
-0.008072442596
0.9719598332
-0.01213540886
0.9718633785
-0.008260226452
0.9717392628
-0.00796775596
-0.4838410397
0.4848999463
-0.009319133123
-0.483680624
0.01037363335
0.4847094891
-0.01140249847
-0.4832399689
0.01240964537
0.4842176249
-0.00674852488
-0.006638776531
-0.241041572
0.007262837698
0.241275792
-0.00749705774
-0.2398984788
0.008164687778
0.2401093841
-0.008375593139
-0.2381893981
0.00893988251
0.2383151326
-0.009065617019
-0.2224317959
0.009049779503
0.2225361107
-0.00915409425
-0.2303675381
0.009950480425
0.230392237
-0.009975179309
-0.2273726736
0.009961599064
0.2273400345
-0.00992895992
-0.2245073337
0.009732214352
0.2244122124
-0.00963709311
-0.2222079804
0.00927229366
0.2220620023
-0.009126315546
-0.2205210319
0.008624567899
0.2203348653
-0.008438401366
-0.2193858316
0.00783331878
0.2191709972
-0.007618484398
0.006943112633
-0.2187148985
0.2184758094
-0.006704023499
-0.4368056181
0.01182870462
0.4358391677
-0.01086225424
-0.4366588503
0.009878840597
0.435652972
-0.008872962288
-0.01153857881
0.8691472848
0.007575893054
0.007859312807
-0.007672121338
0.8688501519
-0.00382575461
0.8687092124
0.868571298
-0.003714550109
0.9756297786
-0.007433697661
0.9756789807
-0.01114275773
0.9755724386
-0.007561700999
0.9754336591
-0.007275453034
-0.4858736278
0.4868208655
-0.008508938637
-0.4856697699
0.009442028292
0.486570608
-0.0103428664
-0.4851222984
0.01121585866
0.4859597161
-0.006077650552
-0.005975625813
-0.2419167279
0.006513428713
0.2421127255
-0.006709426339
-0.2406813698
0.007262761396
0.2408539471
-0.007435338712
-0.2386320114
0.007879952191
0.2387204509
-0.007968391674
-0.2228805743
0.007950248272
0.2230033716
-0.008073045493
-0.2304409018
0.008685563063
0.2304505042
-0.008695165448
-0.2272456065
0.008664302322
0.2272151081
-0.008633803866
-0.224156105
0.008469145948
0.2240790937
-0.00839213463
-0.2216717089
0.008100435587
0.221555391
-0.007984117637
-0.2198343676
0.007582953119
0.2196845822
-0.007433167714
-0.2185874408
0.00694178982
0.2184111453
-0.006765494325
0.006204545596
-0.2178385574
0.217636774
-0.006002762179
-0.4349413937
0.01065381248
0.434106671
-0.009819089714
-0.4347350134
0.00896118667
0.4338483675
-0.008074540826
-0.01056361962
0.865643055
0.006896969028
0.007170880323
-0.007045753571
0.8653322858
-0.003519874605
0.8651833334
0.8650514234
-0.003404799832
0.9790345784
-0.00680336326
0.9790775442
-0.01017203239
0.9789411077
-0.006883444385
0.9787558166
-0.006610745505
-0.4876871003
0.4885322284
-0.007728572551
-0.4874113324
0.008553402172
0.4882003071
-0.009342376872
-0.4867357629
0.01009979966
0.487455706
-0.005456834916
-0.005362907835
-0.242651652
0.005829126262
0.2428172895
-0.005994763763
-0.2413253623
0.006459005652
0.2414685824
-0.006602225757
-0.2389444265
0.006957415475
0.2390073038
-0.007020292719
-0.22338756
0.007016487802
0.2235191845
-0.00714811226
-0.2304645915
0.007621290405
0.2304652335
-0.007621932497
-0.22712617
0.007579933891
0.2270973416
-0.00755110556
-0.2238685177
0.007409346383
0.2238043239
-0.007345152544
-0.2212405188
0.007105537544
0.2211455772
-0.007010595919
-0.2192781991
0.006683098715
0.2191555098
-0.006560409458
-0.2179292213
0.00615527341
0.2177827235
-0.006008775619
0.00553836185
-0.2171003558
0.216929422
-0.005367428124
-0.433329386
0.009570177729
0.4326056171
-0.008846408831
-0.4330400475
0.008096418171
0.4322581063
-0.007314476985
-0.009619785259
0.8625006155
0.006252102511
0.006510122275
-0.006433315482
0.862145816
-0.003219154958
0.8619691729
0.8618322684
-0.00310634337
0.9821409218
-0.006198514824
0.9821697156
-0.009247339236
0.9819899321
-0.006240997076
0.9817366254
-0.005987150962
-0.4893017854
0.4900549123
-0.006994124019
-0.4889370248
0.007723367828
0.4896290677
-0.008415410735
-0.4881244591
0.009074429034
0.4887463515
-0.004891858626
-0.004804462773
-0.2432747958
0.005212142924
0.2434161318
-0.005353478942
-0.2418621868
0.00574752165
0.2419824806
-0.005867815423
-0.2391677951
0.006154977769
0.2392133316
-0.006200514233
-0.2239190054
0.006218835457
0.2240527572
-0.006352587288
-0.2304576371
0.006718644425
0.2304524048
-0.006713412086
-0.2270131717
0.006664461363
0.2269858704
-0.006637160054
-0.2236268483
0.006512828851
0.2235721881
-0.006458168622
-0.2208859725
0.006257140603
0.2208069257
-0.006178093863
-0.2188200105
0.005905922842
0.2187179158
-0.005803828105
-0.2173799043
0.005465157666
0.2172567075
-0.005341960908
0.004943436276
-0.2164738152
0.2163277307
-0.004797351825
-0.4319306485
0.008584246405
0.4313009433
-0.007954541189
-0.4315455249
0.007297074357
0.4308549571
-0.006606506481
-0.008729215152
0.8596862136
0.005652921089
0.005890695958
-0.005850920196
0.8592675211
-0.002931929045
0.8590501818
0.8589003394
-0.002825501273
0.9849664231
-0.005631303173
0.9849755175
-0.008385320898
0.9847439499
-0.005644612099
0.9844091741
-0.005413257495
-0.4907385305
0.4914096682
-0.006315749787
-0.4902759189
0.006961241268
0.4908843672
-0.007569689539
-0.4893255
0.008145238971
0.4898655042
-0.004381742967
-0.00430350025
-0.2438081218
0.004659038238
0.2439297976
-0.004780714071
-0.2423146016
0.00511855034
0.2424165888
-0.005220537548
-0.2393310338
0.005455393833
0.2393649683
-0.005489328334
-0.2244514208
0.005531975292
0.2245827574
-0.005663311879
-0.2304301842
0.0059464118
0.2304209002
-0.005937127802
-0.2269061823
0.005883990346
0.2268803338
-0.005858141771
-0.2234198623
0.005747684499
0.2233725854
-0.005700407579
-0.220589059
0.005528981154
0.2205221927
-0.005462114869
-0.2184368875
0.005232567482
0.2183507851
-0.005146465121
-0.2169162364
0.004859961988
0.2168115437
-0.004755269267
0.004414560429
-0.2159374639
0.2158116552
-0.004288751704
-0.4307123768
0.007698732267
0.4301619694
-0.007148324864
-0.4302255117
0.006569923742
0.4296142312
-0.005958643231
-0.007906311957
0.8571651479
0.005106388055
0.005320989524
-0.005309434076
0.8566706432
-0.002663924626
0.8564046723
0.8562364148
-0.002565731771
0.9875321549
-0.005108121763
0.9875179075
-0.007594014333
0.9872298424
-0.005099725769
0.9868060711
-0.004891185501
-0.4920175956
0.4926163384
-0.005698468634