/*--------------------------------*- C++ -*----------------------------------*\
| =========                 |                                                 |
| \\      /  F ield         | OpenFOAM: The Open Source CFD Toolbox           |
|  \\    /   O peration     | Version:  v1912                                 |
|   \\  /    A nd           | Website:  www.openfoam.com                      |
|    \\/     M anipulation  |                                                 |
\*---------------------------------------------------------------------------*/
FoamFile
{
    version     2.0;
    format      ascii;
    class       volScalarField;
    location    "2.86";
    object      nut;
}
// * * * * * * * * * * * * * * * * * * * * * * * * * * * * * * * * * * * * * //

dimensions      [0 2 -1 0 0 0 0];


internalField   nonuniform List<scalar> 
12556
(
1.155877151
1.15584617
1.155816391
1.15579349
1.156030035
1.15603223
1.156059722
1.156114958
1.156217985
1.156377667
1.156569783
1.077258013
1.02892913
1.083088413
1.156570605
1.156385912
1.156231485
1.15613721
1.156070261
1.15604676
1.155826844
1.155844985
1.155869732
1.155895542
1.155106352
1.155019124
1.15494179
1.154902392
1.155129558
1.155186435
1.155345667
1.155671715
1.156164088
1.15694692
1.15522087
0.9986331164
0.9449301072
0.9750239597
1.097566587
1.157194588
1.156383071
1.15582886
1.155407285
1.15523738
1.154968136
1.155014845
1.155091185
1.155170988
1.154301444
1.15415527
1.154037234
1.15398751
1.154269735
1.15444572
1.154837397
1.15552553
1.156726148
1.077609201
0.880715074
0.7747321565
0.7405317677
0.7691974227
0.8703970864
1.051910287
1.157144206
1.155874341
1.154949901
1.154534296
1.154153754
1.154186453
1.154297106
1.154429478
1.153475604
1.153288762
1.153156022
1.153155554
1.153488985
1.153883755
1.154760648
1.156083901
1.037704447
0.7814428739
0.626571758
0.5373928356
0.5059321647
0.5299940324
0.6157552128
0.7690462617
1.010616167
1.156635741
1.154889847
1.154035779
1.153392628
1.153384177
1.153511167
1.153688207
1.152629502
1.15240033
1.152270174
1.15233164
1.152840867
1.153591022
1.155256193
1.117492066
0.7819783599
0.5703186925
0.4299031825
0.3387037689
0.3005126849
0.3248082155
0.4052199144
0.5432141656
0.7538476168
1.069745493
1.155425153
1.153823932
1.152756366
1.15261028
1.152717365
1.152924294
1.151774253
1.151529639
1.151436253
1.151639857
1.152391011
1.15366852
1.156518361
0.904392899
0.6225332011
0.4341176548
0.292978153
0.1921200452
0.1508761227
0.1773324028
0.255832361
0.3812579148
0.572531306
0.853318784
1.156666669
1.153970157
1.152280238
1.151880282
1.151929867
1.152149893
1.150913247
1.150663973
1.150641209
1.151083524
1.152085698
1.154168661
1.086372201
0.772474018
0.5282032496
0.3536951748
0.2109874744
0.09743568079
0.05539216602
0.08774922842
0.164628201
0.2795548752
0.4513841569
0.6974625733
1.08040728
1.154551014
1.151929465
1.151201961
1.151140948
1.151349192
1.150101996
1.149871128
1.149958051
1.150682916
1.15199843
1.155093786
0.9830937383
0.7047792059
0.4895221404
0.3290175757
0.1936574726
0.07995710547
0.05058260575
0.1243896616
0.2257525817
0.3808863042
0.607517524
0.9607127662
1.155523348
1.151768191
1.150610156
1.150378247
1.150557388
1.149366795
1.149166399
1.149400925
1.150477673
1.152245024
1.156345823
0.9261056692
0.6759157833
0.4939803975
0.35627239
0.2487512209
0.1763400414
0.06242421008
0.1221030141
0.2097599189
0.3497508045
0.556299376
0.8852459691
1.156786943
1.151808171
1.150132692
1.149689047
1.149811155
1.148779195
1.148630094
1.149038495
1.150509799
1.152799269
1.157844393
0.9017315336
0.6831105898
0.5226187466
0.4087774806
0.3340110975
0.3304060442
0.08819227196
0.1394728703
0.2193947855
0.3501967919
0.5432938703
0.845028418
1.158254339
1.152083918
1.149840004
1.14913996
1.149195926
1.148342783
1.148263647
1.148890702
1.15083689
1.153647452
1.159384739
0.897800873
0.7025965902
0.5617307651
0.4635801497
0.4090276076
0.4583941498
0.1202996563
0.1694197766
0.2479365145
0.3728558904
0.5543169584
0.8350601605
1.153368486
1.152573378
1.14974682
1.148788291
1.148756222
1.148125495
1.148120577
1.148955549
1.151354393
1.154734293
1.159177628
0.9071087321
0.7324012861
0.6032881349
0.5092811818
0.4473267602
0.4393920164
0.1575910643
0.2120617658
0.2942321402
0.4200462073
0.5909839056
0.8517167397
1.140412553
1.153302243
1.149895023
1.148667424
1.148558152
1.148059429
1.148147865
1.149270941
1.152194272
1.15599801
1.15010667
0.9294328971
0.777139994
0.6505168523
0.5536195567
0.4699995761
0.3976229719
0.04851446721
0.2066922049
0.2763830362
0.3665054535
0.489379689
0.656114204
0.890918151
1.145328069
1.154131599
1.150251915
1.148785581
1.148591041
1.148195866
1.14837541
1.149752918
1.153103166
1.157427349
1.16428598
0.9918700014
0.8307423275
0.7167058356
0.6155969879
0.517452169
0.2752606181
0.09804876816
0.3079290572
0.3890367229
0.4748083377
0.5903778123
0.7401992997
0.9481241043
1.164015759
1.155036364
1.150782052
1.149113183
1.148866275
1.148401675
1.14866459
1.150284796
1.154065424
1.158821555
1.165754252
1.064100379
0.918977845
0.8097601916
0.7180192871
0.6244231423
0.1016089848
0.1402532138
0.3945104965
0.5896100957
0.6352150084
0.7233890646
0.8568312401
1.040540573
1.165219662
1.15593113
1.151402949
1.149572258
1.149267061
1.148734079
1.149076884
1.150914407
1.155074868
1.160182515
1.167088807
1.164480291
1.049355191
0.9555199419
0.8895238588
0.7404386619
0.04586313516
0.1681873435
0.4405871164
0.7521325096
0.8546455034
0.9000841352
1.004707618
1.168456405
1.166173503
1.156750424
1.152052571
1.150139526
1.149821638
1.149032969
1.149437941
1.151468252
1.155999963
1.16142121
1.168234289
1.165110666
1.14259559
1.08015817
0.9369749454
0.4520069397
0.0275640997
0.2446018177
0.5235372851
0.8169645239
1.018217008
1.114750646
1.155038089
1.169559225
1.166859968
1.157435709
1.15266212
1.150689518
1.150352739
1.149394305
1.149854804
1.152048872
1.156882069
1.162512131
1.169156405
1.165340106
1.140307172
1.054269984
0.7771035913
0.1200352444
0.06164888355
0.3332771209
0.6178023342
0.8705782229
1.032501125
1.117090866
1.156157104
1.170003528
1.167210877
1.157955619
1.153195646
1.151233167
1.15089254
1.14965824
1.150156176
1.152487697
1.157608437
1.163449831
1.169903373
1.165253782
1.137353717
1.037180498
0.6095394552
0.04989074074
0.1587256095
0.4071642389
0.6755505248
0.8909749068
1.036033348
1.117993985
1.156332942
1.169951323
1.16726655
1.158276353
1.153582685
1.151657948
1.151321092
1.149970285
1.150506229
1.152952023
1.158282745
1.164225018
1.170466854
1.164924622
1.133876207
1.017533064
0.5214117183
0.04702259858
0.1880805289
0.4291143947
0.6856712875
0.8971559118
1.03793044
1.117876249
1.155835236
1.16951372
1.167072026
1.158473058
1.153902374
1.15203104
1.151698603
1.150160966
1.150726501
1.15326944
1.158800235
1.164860433
1.170897706
1.164494351
1.130148462
0.9940428854
0.4574961012
0.04619545416
0.2034826062
0.4416151764
0.6923915379
0.9008347697
1.038508038
1.117028318
1.154876111
1.168791193
1.16668242
1.15849711
1.154062555
1.152250686
1.151924087
1.150416747
1.15102399
1.153657663
1.15932006
1.165386038
1.17123963
1.164077867
1.126519978
0.9654363594
0.4122184963
0.04631700584
0.2160103742
0.4514256433
0.6965850688
0.901816353
1.037810861
1.115633425
1.153610568
1.167866031
1.166150303
1.158453045
1.154183483
1.152428938
1.152101095
1.150540537
1.151189174
1.153911047
1.159716929
1.165839079
1.171523254
1.163707125
1.123043791
0.9333879222
0.3826874084
0.04700156276
0.2250324343
0.457796973
0.6977894171
0.9001686401
1.035848712
1.113801327
1.15213216
1.166800283
1.16551901
1.158271848
1.15415206
1.15244801
1.152117337
1.150755906
1.151462277
1.154278181
1.1601761
1.166243522
1.171764775
1.163320909
1.119298383
0.904295093
0.3672936759
0.047961876
0.2297972411
0.4603577246
0.6960072228
0.896478301
1.032880707
1.111616931
1.150490112
1.165637986
1.164819793
1.158078154
1.15412665
1.152465811
1.15212553
1.150826429
1.151589935
1.154501014
1.160519063
1.166621168
1.171972152
1.162830673
1.11470632
0.8808366646
0.3610213678
0.04914535607
0.2312744843
0.4600175324
0.6922874144
0.8917212138
1.029293606
1.109149243
1.148712533
1.164408674
1.16407461
1.157766644
1.153955482
1.152329872
1.151980309
1.151016796
1.151852385
1.154867211
1.16096002
1.166976189
1.172147
1.162159137
1.108964127
0.8616694222
0.3587633703
0.05055615649
0.2314705293
0.4584241291
0.6879204524
0.8866233513
1.025346272
1.106449292
1.146820658
1.163132229
1.163298107
1.157489628
1.153838247
1.152241876
1.1518775
1.151045609
1.151948361
1.155063362
1.161262616
1.167317311
1.172286173
1.161246539
1.102234877
0.8456453487
0.358080889
0.05220573545
0.2313585295
0.4565164856
0.6834821836
0.8814334249
1.021160994
1.103559638
1.144833654
1.161822829
1.162500732
1.157096586
1.153572401
1.151999752
1.151622163
1.151221501
1.152205156
1.155430847
1.161695211
1.167638839
1.172385534
1.160054497
1.094909683
0.8321611441
0.3585430551
0.05407053111
0.2311190462
0.4545083475
0.6790476365
0.8761904732
1.016803922
1.100517441
1.142768517
1.16049035
1.161689404
1.156779084
1.153404084
1.151850488
1.151454513
1.151219545
1.152273645
1.155598302
1.161954964
1.167949527
1.172440258
1.158567612
1.087341293
0.820720333
0.359955644
0.05612557623
0.2307978829
0.4523901121
0.6746125826
0.8709045247
1.012316868
1.097352314
1.140639569
1.159141593
1.160868831
1.156335764
1.153079152
1.151542773
1.151131484
1.151384276
1.152524087
1.155963751
1.162383009
1.168240403
1.1724445
1.156794116
1.079775781
0.8109347923
0.3621580761
0.05836562211
0.2304290885
0.4501689567
0.6701767971
0.8655827063
1.007727497
1.094086798
1.138458057
1.157781079
1.160042816
1.156000764
1.152882317
1.151358826
1.150927426
1.151366351
1.152574333
1.156106174
1.16259909
1.168521699
1.172391304
1.154767082
1.072412995
0.8026381168
0.365083013
0.06080290187
0.2300026435
0.4478428265
0.6657417337
0.8602395634
1.003061893
1.090740145
1.136233049
1.156411921
1.159212614
1.155534146
1.15253349
1.151024581
1.150578202
1.151511808
1.152808918
1.156459485
1.16302185
1.168780234
1.172274983
1.152533401
1.065390247
0.795724766
0.3686852294
0.06343977589
0.2295126984
0.4454450768
0.6613302458
0.854903865
0.9983479274
1.087329705
1.133971771
1.155036327
1.158381992
1.155179912
1.152304964
1.150806995
1.150340078
1.151504371
1.152862621
1.156594385
1.163205368
1.169028607
1.172091229
1.150141211
1.058759336
0.7899617661
0.3728447665
0.06628200517
0.2289993495
0.4430199196
0.6569775236
0.849606949
0.9936110682
1.083870754
1.13168042
1.153656341
1.157547562
1.154735131
1.151982581
1.150498096
1.150018333
1.151607809
1.153059704
1.156915592
1.163608827
1.169251798
1.17184147
1.147637093
1.052524469
0.7851591579
0.3773482377
0.06934049301
0.2285379687
0.4406218747
0.6527124373
0.8443760898
0.9888752416
1.080378694
1.12936616
1.152276553
1.156719242
1.154310074
1.151680012
1.15020919
1.149708627
1.151642743
1.153144837
1.157067315
1.163792234
1.169466861
1.171533324
1.145088026
1.046689097
0.7811471714
0.3820739508
0.07262119137
0.2281585531
0.4382957587
0.6485610416
0.8392376654
0.98416439
1.076868761
1.127034598
1.150913987
1.155897464
1.153992195
1.151462194
1.150002476
1.14949211
1.151772932
1.15339058
1.157466205
1.164288426
1.169674262
1.171195141
1.142629488
1.041277224
0.7778646385
0.3869406534
0.0761377607
0.2278813755
0.4360987637
0.644586407
0.8342459449
0.9795156678
1.073360224
1.124690783
1.149639397
1.155151718
1.153414691
1.151056481
1.149621081
1.149087916
0.1572644923
0.05576396382
0.04358195975
0.3136403752
0.08111529272
0.05879357347
0.4453412046
0.1138812686
0.08497838883
0.4457373021
0.1445006805
0.1187081909
0.4016712988
0.03662148686
0.04559564669
0.1819532243
0.148475977
0.3173674031
0.0708670572
0.03758750791
0.09298937773
0.2491897503
0.1851841814
0.07774913135
0.05571241289
0.04496784057
0.08340742118
0.02830486287
0.01885809515
0.05985028691
0.1032904329
0.1049068737
0.3123895073
0.3062988918
0.1814261337
0.02736005223
0.04084053648
0.08476849326
0.1194763009
0.1058368269
0.3929467559
0.4261646883
0.3215574855
0.3780336975
0.1986098917
0.2240283622
0.04799599754
0.03400619998
0.1161810356
0.1476320502
0.1255696251
0.4418696664
0.4668509975
0.4388707672
0.4759112644
0.129573973
0.1677176097
0.09045858192
0.06592147447
0.4612929672
0.4228883975
0.4638517405
0.4290245067
0.07709809238
0.1012723134
0.01586764164
0.1356208641
0.1228442134
0.5026154751
0.3869571584
0.4164519033
0.3685737089
0.03055348925
0.05002188755
0.2771095026
0.09855837998
0.07252832421
0.06404180799
0.1478212873
0.03065884498
0.05829970153
0.04194988132
0.02957495919
0.04743465989
0.0313473938
0.04879354516
0.2274895921
0.2525620909
0.2598137703
0.1972230126
0.1829206229
0.1671756226
0.2000618347
0.03366444488
0.02720824798
0.07038565637
0.04050411231
0.04594146152
0.05001884894
0.04072089799
0.06884298934
0.1704096583
0.1948457237
0.3948180595
0.1523022961
0.1286264278
0.1811936666
0.1542708148
0.06268030328
0.04919928334
0.1014533513
0.06829220391
0.08795824648
0.04640758743
0.06567964618
0.09712781637
0.1026342951
0.1279729362
0.4687179256
0.1030534201
0.07855330097
0.1272610308
0.1043625612
0.1190972955
0.09429510985
0.05097565054
0.0753841318
0.4275377743
0.01262840213
0.0531585515
0.03214221655
0.07752773264
0.05468987211
0.01191632862
0.1426004576
0.1376222923
0.01771840951
0.004736510113
0.03025941061
0.3642481635
0.057495812
0.01901498632
0.01136482281
0.03179643874
0.01934025061
0.05515408851
0.2300423437
0.1642879486
0.09304466259
0.09955891881
0.06310781882
0.03598393529
0.01564435487
0.00826188995
0.2391609412
0.2557276904
0.1619783496
0.00969945543
0.1506181993
0.18508462
0.1560702585
0.01175008335
0.05123988221
0.04437748847
0.06916630942
0.1596751423
0.1466048935
0.1469019948
0.0703435345
0.1112148752
0.0412105539
0.01278152959
0.02234907293
0.02161606155
0.02965391523
0.04581936024
0.04300249463
0.03112766649
0.1331656006
0.1163003519
0.1321665249
0.09113916667
0.1130872818
0.1300125071
0.02532479878
0.01337311635
0.04377344101
0.02204506081
0.03747086573
0.02988534409
0.01902122245
0.02910119259
0.02104740951
0.01463168728
0.0225105156
0.01885445357
0.009824248664
0.01601901027
0.02133559266
0.03502457755
0.03562264048
0.04101202443
0.04003072183
0.01621648188
0.01011159457
0.07945283867
0.01367520047
0.02462216672
0.009581575241
0.01204662973
0.07584087149
0.09083316741
0.2492316988
0.2372373842
0.06557492348
0.05492202768
0.01138398815
0.04521714515
0.1849259374
0.1731493099
0.2011721281
0.1896992736
0.04555564826
0.04950300713
0.04156791543
0.09352739658
0.06482857243
0.05655149682
0.03978485685
0.06437132898
0.1053319909
0.03717629073
0.02314661821
0.01456922124
0.05206636096
0.02580158148
0.04105860368
0.02488171933
0.05776536373
0.0399612796
0.03906710871
0.1943927123
0.03113993494
0.1937669268
0.214791648
0.03474708024
0.03878543499
0.03154433568
0.03426345498
0.2110021412
0.03225021523
0.03199866551
0.04364496371
0.0683138182
0.06364760215
0.07471509666
0.07000212439
0.04390463484
0.0488206401
0.05575608617
0.05056123017
0.06198801392
0.05721034915
0.04790662706
0.1407330017
0.1392002635
0.1689007176
0.167221758
0.05916144741
0.009441840681
0.0579531489
0.09400394424
0.09225110741
0.115288052
0.1137449486
0.02612729238
0.03793918178
0.1053172529
0.0291393563
0.01741930372
0.06667730403
0.2172841012
0.205352274
0.2331887457
0.2212396929
0.06794836285
0.02288935072
0.0487847836
0.04779751898
0.07069698118
0.06987151934
0.007759919073
0.03066293451
0.08063594393
0.06939858128
0.1685384605
0.1600781702
0.0243651035
0.01221630487
0.01777412227
0.01364731553
0.03038982414
0.01274148808
0.01354324784
0.01322347105
0.03042622903
0.04680976597
0.01357274416
0.0151777827
0.003653237757
0.01676992632
0.01317755616
0.5871143297
0.3713010951
0.3777873526
0.2516530281
0.00886809418
0.005339298825
0.1350991907
0.3228177864
0.2804214171
0.005870381893
0.0120521077
0.01083288943
0.09573890017
0.08475455052
0.03276162512
0.193418131
0.1661924336
0.07207217383
0.009191811678
0.01559050368
0.01245673642
0.00838528266
0.01226370454
0.008691035157
0.02960889308
0.01252376947
0.01177303455
0.03820099091
0.04458728098
0.01269099742
0.01750929914
0.008737270987
0.008859252053
0.03557707538
0.1431982443
0.3106947977
0.2992571723
0.3258403719
0.3144932849
0.1463259404
0.2647791043
0.2530135403
0.09207490704
0.03357751461
0.0955725535
0.09057294092
0.01229269027
0.01745540901
0.07808621347
0.04609035808
0.01421357771
0.01263287244
0.0378930657
0.04221093553
0.03780812488
0.04889699951
0.04378551651
0.03967131298
0.03293937492
0.008855277825
0.008747577077
0.02841578669
0.1808726031
0.3406962058
0.3295527021
0.05940378689
0.0612895525
0.1331462999
0.01857506791
0.02026733158
0.05262534889
0.07612851126
0.101672198
0.09407018007
0.05227336192
0.08225782979
0.07663576209
0.09131175301
0.08445819445
0.05335494473
0.1154572379
0.2801836698
0.2686029271
0.2954507586
0.2840274599
0.117185492
0.09926053626
0.03691999992
0.03763411292
0.0214447478
0.02226483617
0.08277087537
0.1223488099
0.05534342509
0.05900801382
0.03793139091
0.03860037316
0.1082853795
0.1090608766
0.03998922802
0.05492215414
0.008436048849
0.01571580459
0.05088927971
0.03914745303
0.07456931792
0.0208387099
0.02130549983
0.0204488063
0.06370137107
0.01174251828
0.004385219034
0.1239020994
0.1079402646
0.08887284419
0.08483504275
0.02993285308
0.01597456902
0.02606980948
0.06493437528
0.01878428071
0.01199931004
0.01748670056
0.0200379357
0.002823301048
0.03134198642
0.02038622031
0.01202843631
0.006341889097
0.01159950759
0.009702656889
0.009512883518
0.0245682768
0.01879784578
0.007593059488
0.03831252737
0.03990629342
0.01486471302
0.01094898758
0.00707310886
0.01150631498
0.01618012975
0.01063426375
0.01233448994
0.03621665918
0.01068566312
0.01068947359
0.01227164023
0.01263598505
0.03022810999
0.01249890476
0.0123680123
0.01288879643
0.01236084394
0.01282016039
0.01605494365
0.01347961849
0.02132708318
0.01749397935
0.01289650875
0.01426274221
0.02169668121
0.01800029762
0.02603030132
0.02274112667
0.0175263509
0.01563956331
0.01235850977
0.01081951787
0.008452055327
0.03135490983
0.03756691139
0.0115532799
0.01093542208
0.01193129386
0.01238907612
0.04345645949
0.008860068956
0.008808566778
0.01050087064
0.008980210304
0.008778376416
0.03662553178
0.00868721199
0.01175155396
0.01184803006
0.01092550489
0.01794385053
0.04597307216
0.04137729265
0.01030581645
0.03349411835
0.0286397235
0.03972814008
0.03534206796
0.01052731163
0.01152601034
0.03188366228
0.02676509516
0.1036110405
0.09734781581
0.03739153121
0.04766938653
0.1104777881
0.1053121323
0.04469288219
0.04385567814
0.06680831685
0.07705219934
0.09342461899
0.05808995028
0.07233543797
0.06766790847
0.05944357061
0.1353398709
0.1246213685
0.1012556452
0.1335245855
0.05936381184
0.03842520863
0.04260294923
0.05307992647
0.03325981861
0.03720539412
0.02005157856
0.01898851224
0.0449197634
0.01369417979
0.01373874039
0.0107056333
0.02006090323
0.02383801687
0.01423665142
0.02024360834
0.03448368139
0.02771125057
0.02104367414
0.02935020296
0.09341290466
0.08205878986
0.09954478092
0.09577327052
0.03045966941
0.07396489108
0.07182954508
0.07881856769
0.07473569603
0.0362182062
0.1152045222
0.1109669175
0.1220406483
0.1167050564
0.03679379199
0.03263639006
0.1044516019
0.1008384507
0.1096074165
0.1057048263
0.03297350528
0.009139172957
0.008936901786
0.03273590117
0.02963579177
0.008941223636
0.009217773752
0.04320140618
0.04244741552
0.04533392046
0.043460969
0.04105804678
0.04003014476
0.04219701562
0.04132496648
0.06857881956
0.06668607362
0.07116545733
0.0692368022
0.06139005524
0.04798670457
0.06589706977
0.06387029972
0.02116834938
0.01803087501
0.02723559005
0.02285663797
0.006517996948
0.01162623936
0.01091809937
0.01684197043
0.0118912796
0.03597687278
0.03657107245
0.09796375455
0.02147124081
0.02125710692
0.02212417884
0.02165411251
0.02059678474
0.08502820664
0.02292492431
0.0338450014
0.04071509749
0.05352361507
0.1206352617
0.03729417843
0.02425069243
0.03989401938
0.03698171642
0.02289286817
0.02235739771
0.02381370752
0.02311258289
0.1096131621
0.03882667912
0.03970231724
0.007075563731
0.02430128424
0.01050652535
0.01047706049
0.01032612367
0.02266666323
0.008792332696
0.01737729918
0.01206945797
0.01241798287
0.05025599373
0.04395392175
0.02025152045
0.02073226647
0.07365808302
0.06582171844
0.01937881091
0.02019082492
0.01184510903
0.02885105612
0.08234647892
0.07429567832
0.0136416029
0.01294622405
0.01801123094
0.01239854789
0.01402130125
0.01487474375
0.03123414767
0.009241588784
0.0136963471
0.01226418905
0.01382204711
0.02121945408
0.05186516439
0.1099469559
0.1422976295
0.01134430443
0.01095221588
0.1886178935
0.2396699273
0.1964754771
0.007497996465
0.03195003339
0.0131937243
0.01583585736
0.1365099466
0.1423642005
0.1600804351
0.004726525038
0.007191622548
0.005322142027
0.004868408792
0.00565312876
0.004420920556
0.05521602135
0.03448235229
0.02189613864
0.0250802957
0.02310327579
0.02693538593
0.2097658968
0.3696662907
0.358717578
0.3488306843
0.362515004
0.213360736
0.03841203149
0.03358882122
0.01199879041
0.05852102825
0.06935182648
0.1316717414
0.1173322206
0.1121176493
0.048145073
0.02770346378
0.02872389121
0.03286872009
0.3552090906
0.3443446401
0.1842282236
0.1470986261
0.06675632358
0.0704167379
0.07336572364
0.08368888362
0.1601802609
0.05846563227
0.1251348312
0.119146071
0.0117205791
0.01163979409
0.01339619577
0.0201148925
0.02040914734
0.03298207905
0.01156214167
0.01209919016
0.01182463317
0.02354757371
0.04612432562
0.03979173717
0.01896220995
0.03159286228
0.01967156072
0.01984936412
0.01936850805
0.01467462101
0.009876228555
0.01128391144
0.01109600896
0.01167770655
0.02065785118
0.02560942042
0.0511743064
0.0401262726
0.03642607111
0.03323738509
0.02452377162
0.0379569083
0.01377867688
0.01871302672
0.01268490791
0.009174437803
0.009248655655
0.01292167005
0.0127296941
0.02248382194
0.01426557235
0.009897992872
0.01703878362
0.01912487388
0.01770455719
0.01332238685
0.0166763034
0.01488205928
0.01034757417
0.01075723495
0.006656343668
0.009892897245
0.01027971341
0.05226257429
0.04743652514
0.01950949735
0.009500731536
0.01217436193
0.01125204557
0.01141336088
0.01305415082
0.01200289182
0.04749615571
0.03689881407
0.04230772067
0.06555286258
0.091869579
0.09057594605
0.04131276807
0.06629773431
0.06278260826
0.08957449787
0.08792287915
0.06307647293
0.03203368406
0.03870521337
0.03479037189
0.02677680974
0.02747656411
0.02269120597
0.04634329039
0.04504266873
0.04924707155
0.02366680693
0.03391298958
0.03229736086
0.05188793177
0.05152239498
0.03088711581
0.02868514848
0.02828060361
0.0312652835
0.03057207705
0.03526463569
0.05774049546
0.05715031702
0.06121949506
0.06048432184
0.03804618131
0.03186823081
0.05307259441
0.05257194863
0.05654312903
0.05594389622
0.03381744083
0.06423556013
0.06607791634
0.1454613695
0.1345931573
0.06185636292
0.06364981571
0.09026553394
0.09329001242
0.1741698242
0.02670837509
0.02656393572
0.0280472726
0.02783142592
0.02042672928
0.02630001838
0.02619388471
0.1619645126
0.08581898419
0.08913690651
0.009249629755
0.009225089331
0.01097773346
0.0106023348
0.00941496928
0.009081922377
0.006546015443
0.05379747039
0.02107720243
0.02581347074
0.1328636187
0.1271317082
0.0616062579
0.07079774129
0.1396870862
0.1345680687
0.0322927486
0.03234992703
0.04913100643
0.047487527
0.03190302463
0.03185130254
0.01146065163
0.02304695056
0.0366243648
0.03600079433
0.008960565405
0.01469397949
0.01597679287
0.01417471042
0.01375978468
0.01875289914
0.01899353639
0.03083521052
0.01292508126
0.009427545783
0.01277264024
0.01323361725
0.0288623257
0.01825068542
0.01883783467
0.01336708568
0.02844291746
0.02356025703
0.01147095532
0.01144100735
0.01087804528
0.01102616642
0.01420797522
0.006424446306
0.004108611079
0.007496813406
0.01128065453
0.01106196731
0.0110231413
0.0108399594
0.01111305847
0.01080199512
0.009970430536
0.006559615227
0.005229137445
0.01078519906
0.0110905607
0.01041932468
0.01052185536
0.01219764992
0.01870367229
0.01895048494
0.0183284313
0.01852907169
0.0120772361
0.008714688894
0.0140180696
0.01401104191
0.01447265379
0.01411945532
0.008639837918
0.0134741764
0.02108134982
0.02344958689
0.01922971808
0.01984573097
0.01304857496
0.008843889229
0.01405276286
0.01406899633
0.0139864096
0.01403528453
0.008794904038
0.01008261499
0.01025452266
0.009737616963
0.01020008318
0.03708036738
0.05586905383
0.05541418059
0.02167897484
0.03594157261
0.03568949119
0.03725005676
0.03630381897
0.02188550297
0.01227623714
0.01180653406
0.01207414296
0.01235650149
0.02035900521
0.02016425788
0.02079502825
0.02057305889
0.01589522267
0.03505488279
0.02100381596
0.02192209549
0.02101145426
0.03519642732
0.03497680929
0.03553070527
0.03534702589
0.02113716264
0.02169715753
0.02109853943
0.03158959495
0.0226735586
0.01631372895
0.008241572641
0.01180653505
0.0114812157
0.008129505459
0.04286646429
0.02989399791
0.002976102831
0.02993468218
0.04562940376
0.04529614347
0.01875228232
0.01192345049
0.008771662509
0.003421096612
0.01364884347
0.01402948819
0.01943183134
0.01959967795
0.03152632368
0.01978821234
0.01082221922
0.01144865058
0.01472661787
0.004663864286
0.009126954579
0.006965143521
0.006966686163
0.007539582457
0.009749161805
0.006545489623
0.0112512223
0.01110620147
0.01117035245
0.0398739931
0.03098003953
0.0082772986
0.01031265948
0.01138876952
0.01860409115
0.02084490954
0.01217108057
0.01505144144
0.01460582768
0.01093277699
0.007208738391
0.01087609554
0.01247622666
0.008757934681
0.01237964895
0.01258497861
0.01246537121
0.01286821909
0.01261621455
0.01271446663
0.01262229971
0.01248594493
0.01299419924
0.01299969687
0.01279612457
0.01309912212
0.01327529483
0.01320136733
0.01766316521
0.01942160089
0.01781478502
0.02593681549
0.02176922062
0.01685456464
0.01583692989
0.01713124812
0.01037311948
0.01650769324
0.01746662468
0.0118888901
0.01644047575
0.01110035353
0.01134703589
0.01796172524
0.01813786668
0.01755003022
0.01780029741
0.01119106019
0.01210701886
0.02098736454
0.02061296658
0.008873805314
0.008838480667
0.009529550374
0.006838949621
0.00888442218
0.008837535067
0.008668295765
0.007725789142
0.009820850071
0.01736233107
0.01550378799
0.0200589675
0.01902473737
0.01105895006
0.009941983521
0.01030050253
0.01317920422
0.006770266838
0.01023003552
0.01016961472
0.01078828424
0.009943035789
0.01009833713
0.01558286073
0.01387057792
0.009780255616
0.04583468281
0.04288760897
0.08115072029
0.07293110372
0.04322961308
0.06281709711
0.08710800281
0.0837818727
0.03497118282
0.03225153091
0.03014606649
0.02284461582
0.02963659617
0.04274964591
0.04333539525
0.03803071599
0.01998164534
0.02879226284
0.02923302342
0.02614836703
0.02704868047
0.01882917911
0.01292367689
0.01388993521
0.02143791455
0.01511434244
0.01435554222
0.01619952713
0.01534540273
0.02174919734
0.01466695178
0.01531178064
0.0120180132
0.01568121452
0.04758902784
0.04777343129
0.03075023894
0.03044013556
0.05058036111
0.05056954041
0.02936222806
0.02897748812
0.03012028861
0.02970605255
0.05882200249
0.05825812279
0.03565800312
0.03740327291
0.05992146885
0.05937722012
0.05423169188
0.05369993684
0.03229510955
0.03335401723
0.05533431771
0.05477837272
0.009040110914
0.0141630518
0.01420315297
0.0141140306
0.0141545446
0.009005413985
0.009259188838
0.01323034638
0.01153311632
0.01414785566
0.01392312058
0.009256833566
0.04293820928
0.02543604453
0.02570111207
0.02501820716
0.02522127535
0.04269824215
0.04423983466
0.02662928976
0.02710861368
0.02596312494
0.0262685713
0.0437729644
0.04068572499
0.0238152252
0.02405064369
0.02345270682
0.02367927497
0.04045758815
0.04192449279
0.02462956046
0.02481726503
0.0242135039
0.024443576
0.04165656911
0.02713913447
0.02695688965
0.06795652392
0.04592469449
0.04623603833
0.04524727272
0.04551964971
0.06726562885
0.02757681355
0.02737414893
0.02506758603
0.02630410343
0.05938418263
0.04160747435
0.04131278313
0.02799938473
0.02939161008
0.05315980547
0.06542965722
0.04456763728
0.04476219675
0.04387113668
0.04382449017
0.06424360122
0.02587289055
0.02591584206
0.009259240443
0.009376254772
0.009238951888
0.01029026023
0.00965114221
0.01130343906
0.009108381544
0.009128618909
0.008976748506
0.00904451493
0.01124211299
0.01508284335
0.009546581625
0.01034795818
0.00921196341
0.00906871372
0.01308044539
0.03590051749
0.05339215427
0.0530915357
0.05474822085
0.0543968102
0.03647472468
0.02142612395
0.02118853077
0.02200017375
0.02172941016
0.02167571264
0.01698209758
0.02411812887
0.04403135451
0.03952517698
0.05098396104
0.04922957478
0.03412136696
0.02631415619
0.01833538463
0.02354162335
0.02502236307
0.03923374494
0.02310281966
0.02338757361
0.02242257461
0.02315476562
0.03929823209
0.0227282107
0.02250507157
0.02354761604
0.0233043103
0.01063659654
0.01096739303
0.01079513806
0.01288797574
0.01161120684
0.01067441567
0.01024232067
0.01037285922
0.01049827942
0.01046986035
0.006925067107
0.01246474736
0.01187585177
0.01205154711
0.01215264258
0.01200658543
0.01243292607
0.01970647455
0.01966174523
0.01995952617
0.01989437212
0.03022983955
0.03020481664
0.04552466725
0.01890044258
0.0199351285
0.0194281519
0.01949528682
0.02046346581
0.03439767005
0.03404123743
0.03481865161
0.03454187645
0.02054197946
0.01992343732
0.03336074453
0.03152409637
0.03392065421
0.03334036256
0.01990875332
0.01188901909
0.04372303663
0.04318327175
0.0286405253
0.01384481097
0.01128569774
0.01099718485
0.008382357786
0.01149152443
0.01314064894
0.01857604364
0.01310301815
0.01430006437
0.01398576386
0.03095167259
0.01910810942
0.0193097648
0.01267432194
0.01254163073
0.012617625
0.01346557389
0.01322605759
0.00894614279
0.009232046481
0.01365521589
0.01270422722
0.01324618716
0.01551593174
0.01912111346
0.02887775171
1.15550603
1.156201583
1.156021119
1.156492275
1.157616949
1.156729838
1.158000787
0.984858323
1.157685866
0.9505731757
0.8524565076
1.011250903
0.8357852381
0.7994255219
0.9463329054
0.7979095569
0.8154845717
0.9659457646
0.827083857
0.9043323015
1.076994252
0.9328665789
1.073955491
1.157430824
1.121401137
1.157195674
1.156553819
1.156862368
1.156010792
1.155942827
1.155860912
1.157342448
1.15636799
1.114609794
0.9030404036
1.136850035