/*--------------------------------*- C++ -*----------------------------------*\
| =========                 |                                                 |
| \\      /  F ield         | OpenFOAM: The Open Source CFD Toolbox           |
|  \\    /   O peration     | Version:  v1912                                 |
|   \\  /    A nd           | Website:  www.openfoam.com                      |
|    \\/     M anipulation  |                                                 |
\*---------------------------------------------------------------------------*/
FoamFile
{
    version     2.0;
    format      ascii;
    class       surfaceScalarField;
    location    "2.86";
    object      phi;
}
// * * * * * * * * * * * * * * * * * * * * * * * * * * * * * * * * * * * * * //

dimensions      [0 3 -1 0 0 0 0];
oriented        oriented;


internalField   nonuniform List<scalar> 
25162
(
0.0004796617118
0.9161703383
0.00063743615
0.9165422256
0.0008092043847
0.9164782318
0.0004008032249
0.9164649808
0.0005934203594
0.4583357084
0.000415094842
0.4582808625
0.0005337610507
-0.0005146235108
-0.0006695081312
0.4582455529
0.0007739552312
-0.000877205023
0.4581877982
0.001024406861
-0.001183061941
0.4581617448
0.001351317174
-0.001534463299
0.4581484194
0.001721043843
-0.001897101171
0.4581734221
0.002058679051
-0.002199531554
0.45823943
0.002291601565
-0.002339418007
0.4583372956
0.002335622434
-0.002279254535
0.458435424
0.002178830498
-0.002044995976
0.4584907379
0.001884258112
-0.001717540686
0.4585056459
0.001546894765
-0.001369744983
0.4584925813
0.001212163663
-0.001061996899
0.458484432
0.0008925648476
-0.0008249266158
0.458450055
0.0007248716554
-0.0005918024058
0.4584591735
0.0004826288986
-0.001818282336
0.9186040003
0.0002918156823
-0.0004275336271
-0.001138017785
0.9186697354
-3.132484267e-05
0.9157433071
0.9137686752
0.001324207675
0.9148461306
0.002181134646
0.9156852986
0.002666684265
0.9159926821
0.0009943032133
0.916631861
0.001505500851
0.457914159
0.001198519338
-0.4581183751
-0.4580693106
-0.001478787488
0.4577220534
0.001826044675
-0.4578782768
-0.002249376278
0.4573765131
0.001287531998
0.001463607916
-0.2288609581
-0.001542844524
0.228733349
0.00167045356
-0.002190284862
-0.2287920855
0.2286291999
0.002353170507
-0.00296323034
-0.2287616186
0.2285681937
0.003156655212
-0.003768485409
-0.2288132651
0.2286261574
0.003955593161
-0.004415801956
-0.2289550405
0.2288124571
0.004558310436
-0.004702592179
-0.2291635651
0.2291087978
0.004757484495
-0.004609937532
-0.2293361651
0.2294108946
0.004535208003
-0.004098200401
-0.2294361766
0.2296006202
0.003933756843
-0.003379234018
-0.2294693183
0.229673158
0.003175394369
-0.002619403505
-0.2294450746
0.2296403499
0.002424128127
-0.001949494856
-0.2293909857
0.2295524914
0.001787989125
-0.458852727
-0.002621256672
0.4602509932
0.0012229905
4.75165211e-05
0.4608803489
-0.001698339684
-0.4592295257
-0.002022017096
0.9179681852
0.0007559933189
0.001901838859
-0.001247028519
0.9178947469
0.0002301017267
0.9142661768
0.9139987769
0.001702758838
0.9131433718
0.004482006752
0.9129060507
0.007624871238
0.9128498177
0.003409989346
0.9139166937
0.006930049219
-0.457737634
0.4574015156
0.003746107775
-0.4573476166
-0.003931293578
0.457753596
0.003525314203
-0.4566866031
-0.003896599484
0.456116265
0.002155589703
0.002311347864
-0.2281095529
-0.002640117097
0.2278351272
0.002914542714
-0.227827832
-0.00387375366
0.2274672262
0.004234359479
-0.2276708615
-0.005438407621
0.2270996938
0.006002753863
-0.2276528225
-0.0080847744
0.2269012807
0.008806290478
-0.2281042948
-0.01078156392
0.2275676497
0.0112967925
-0.2290328061
-0.01222397888
0.2289907033
0.01227065132
-0.2300550606
-0.0116116703
0.2305677808
0.01112625208
-0.2305948025
-0.009163838711
0.23137718
0.008409087305
-0.230548943
-0.006300199596
0.2309919959
0.005858503824
-0.2304523062
-0.004742758602
0.2308112373
0.004383827569
-0.003132620313
-0.2302689213
0.2309361668
0.002465374883
-0.4628282221
0.0007546311761
0.4615893551
0.0004842357436
-0.4599227629
-0.0006959082415
0.4598427448
0.0007759262752
-0.0004593755346
0.9194646727
-0.0006407205842
-0.0003963914339
0.001221896044
0.9162134753
0.0005611539362
0.9149269189
0.9145599308
0.0007206469987
0.9124227248
0.00160088814
0.9120258095
0.003216873785
0.911233832
0.003886909595
0.9103667324
0.002879925464
-0.4564396507
0.4557900234
0.004536536865
-0.4590126147
-0.006012315238
0.4556443445
0.009380585484
-0.4571717758
-0.01102206426
0.4582688314
0.003270689537
0.006654319114
-0.2268134417
-0.003519328072
0.2264581793
0.003874590505
-0.2258718707
-0.005488450878
0.2245065973
0.006837021682
-0.2234036494
-0.01170589046
0.221561988
0.0134736896
-0.2231022598
-0.01875174974
0.2213667586
0.02041104365
-0.2249673103
-0.02473014833
0.2237933748
0.02586529716
-0.2286722676
-0.02802247239
0.2284672206
0.02824029558
-0.2329054536
-0.02721244424
0.2338928358
0.0262853747
-0.2354918109
-0.02199788489
0.2373984767
0.02017644387
-0.2349183862
-0.01416764892
0.2370065503
0.01214519686
-0.2344485742
-0.002041432128
0.2387045245
-0.002211725699
-0.00307860326
-0.2317712396
0.2317687925
0.003081050368
-0.461486312
-0.00450926515
0.4625748065
0.003420770577
-0.4604823188
-0.002325074893
0.4613634431
0.001443950609
0.002152375853
0.9190973702
-0.0009651498938
-0.0008199233643
0.001556246495
0.9168096047
0.000707798788
0.9157753666
0.9152677296
0.0002971721673
0.9121255526
0.0007184744355
0.9116045073
0.00144951882
0.9105027876
0.002029873131
0.9086475648
0.00113881333
-0.4552852857
0.4542744421
0.003040716743
-0.4538634017
-0.003758042806
0.452863588
0.004757856503
-0.4516524176
-0.006084077737
0.4503141321
0.003846825571
0.00357553771
-0.2265841414
-0.00603530965
0.2243897542
0.008228667898
-0.2193531866
-0.01596346216
0.2190672969
0.01615925551
-0.2146429174
-0.02012667003
0.2120910245
0.02254908265
-0.2152290011
-0.02952455947
0.2130244739
0.03162895869
-0.2195473703
-0.03714138498
0.2179570209
0.03869093119
-0.2273449418
-0.04213669697
0.2267433834
0.04275357818
-0.2370356001
-0.04239226491
0.2382020484
0.04129801598
-0.2443105095
-0.03477780176
0.2470458326
0.03216629703
-0.2517288341
-0.0170328655
0.2513864811
0.017503868
-0.2390503773
-0.01257175384
0.2417305705
0.009963135518
-0.004510338201
-0.2330685615
0.2335662729
0.004012626822
-0.4640842387
-0.00506985448
0.4654963187
0.003657774466
-0.4621657786
-0.0026895955
0.4629739526
0.001881421547
0.002735548863
0.9205347307
-0.00242454517
-0.001748364195
0.001430531504
0.918114622
0.0006320832384
0.9165738149
0.9158998128
-8.182022993e-05
0.9122073728
5.290693795e-06
0.9115173964
0.0004742657816
0.9100338125
0.0007637627367
0.9076972146
0.0006608532582
-0.4531745569
0.4526175366
0.001320783091
-0.4519794449
-0.002571467035
0.4508517278
0.003699184172
-0.448911347
-0.004710798689
0.4473248388
0.003153780752
0.003143526123
-0.218850227
-0.005178108187
0.2167556788
0.007225663352
-0.207478804
-0.01478307284
0.2045501575
0.01756663137
-0.2062032284
-0.02789409753
0.2019666075
0.03197392693
-0.2089003996
-0.03857585739
0.2082475502
0.03913959178
-0.2133415202
-0.04241112468
0.2131314618
0.04260120909
-0.2239452243
-0.04739976162
0.2227342073
0.04861374781
-0.2425958319
-0.04696023781
0.2427199812
0.04687684515
-0.2609410516
-0.03680453871
0.2590875433
0.03878138074
-0.2581753195
-0.03251391448
0.2618743668
0.02898073716
-0.2514109609
-0.01819573472
0.2550313894
0.01470836104
-0.005062106847
-0.2369149553
0.2385894527
0.00340578603
-0.4666710384
-0.004981731978
0.4678232595
0.003829510834
-0.4633738082
-0.003008075837
0.4637081467
0.002673737354
0.001971707321
0.9222774572
-0.001744303063
-0.001970130787
0.0009931731201
0.9190931562
0.0003629343822
0.9172040536
0.9162627472
-0.0006529260246
0.9128602989
-0.001116992207
0.9119814625
-0.001313806727
0.9102306271
8.469697268e-05
0.9071194773
-0.0008207664535
-0.4523182245
0.4518287013
0.0005742201165
-0.4494759829
-0.001026333701
0.4488255855
0.001676731168
-0.4464537917
-0.002983805369
0.4455281506
0.001902362038
0.002006639262
-0.2104902543
-0.005146053223
0.2083223456
0.007226570606
-0.1951051881
-0.01454763704
0.1940659795
0.01540481928
-0.1941690178
-0.02243291195
0.1921933522
0.02425159345
-0.2008055195
-0.02938293308
0.1987805962
0.03135501112
-0.2052541245
-0.04710345134
0.1039317136
0.0980602544
0.02301324023
0.02735236764
-0.03358168134
-0.1086977843
0.1081339359
0.03414552973
-0.0271170625
-0.251844183
0.05115331621
-0.02749263343
0.1272617469
0.1280388158
-0.04412231029
-0.2638662842
0.2668677856
0.04120146261
-0.2732786096
-0.03000446761
0.2756946064
0.02776280238
-0.2650800555
-0.02013051308
0.2686994311
0.01667878036
-0.007554862239
-0.2457701945
0.2482444672
0.00514488733
-0.4689332923
-0.00382512942
0.4694814177
0.003277004035
-0.4644782968
-0.002343953155
0.4652247534
0.001597496539
0.0005972495368
0.9233506644
-0.0007081902741
-0.0009622664327
8.551811505e-05
0.9196048876
-5.518084265e-05
0.9173447526
0.9162075664
-0.001289549852
0.9141498487
-0.002485589947
0.9131775026
-0.003412756713
0.9111577938
-0.001680785229
0.9078453642
-0.002457858387
-0.4517273859
0.4516498489
-0.001603248216
-0.4484569067
0.001568501027
0.4482433973
-0.00135499159
-0.4435438751
0.001056990588
0.4424075918
-3.618226078e-05
0.0001064532485
-0.2028379867
-0.002016739257
0.201516484
0.003229351586
-0.1869971668
-0.007781370734
0.1852618846
0.009325985068
-0.1875423455
-0.01396794618
0.1860479139
0.01531130941
-0.1961194945
-0.01796170353
0.195803069
0.01826027844
-0.08903149103
-0.01171327671
0.08875802593
0.01198674181
-0.03379331885
-0.1415656977
0.1445478441
0.03081117245
-0.03770319494
-0.2755663681
0.2786518503
0.03465972549
-0.2857854432
-0.02568930957
0.2889203135
0.02272033797
-0.2788528133
-0.01418648694
0.2816766911
0.01154958481
-0.007096801011
-0.2547539306
0.2569621981
0.004980765759
-0.4703901093
-0.00165221025
0.4710882692
0.0009540503201
-0.4657871915
-0.0004938869967
0.4662229807
5.809784332e-05
-0.001469636972
0.9235787582
0.0008845658058
0.0003569773096
-0.001180691235
0.9193159419
-0.000634513333
0.9167985747
0.9155730531
-0.001946791249
0.91609664
-0.003805512994
0.9150362244
-0.00571067275
0.9130629536
-0.003313687116
0.909557195
-0.004108816413
-0.451902818
0.4521495338
-0.003560402879
-0.4483072552
0.003861398888
0.4486066652
-0.004160808857
-0.4417816967
0.00446124323
0.4414657308
-0.001883413542
-0.002282063071
-0.1976334159
0.0005992905333
0.1964813371
0.000433681834
-0.1803390611
-0.004151958144
0.1788890402
0.00540751073
-0.1833445891
-0.008354710754
0.1826775574
0.008876120739
-0.1971410345
-0.008368623876
0.1980431792
0.007458671526
-0.09254451181
-0.001608077511
0.0932520182
0.0009005711133
-0.01495297327
-0.1577259636
0.1582170924
0.01446184447
-0.02096674373
-0.2848121606
0.2857046087
0.02009772198
-0.2957840756
-0.01643010637
0.2974604628
0.01491244848
-0.2888072169
-0.009673042916
0.2907218482
0.007951666106
-0.003060366855
-0.2617720015
0.263214503
0.00172255133
-0.4720336019
0.001223228774
0.4727773188
-0.001966945658
-0.4663586153
0.002216247373
0.4663686574
-0.002226289481
-0.003907339785
0.9225513485
0.002692002635
0.002242746917
-0.002696402594
0.9181050047
-0.001381076042
0.9154832481
0.914191977
-0.002571418639
0.9186680586
-0.005260813677
0.9177256194
-0.007910891359
0.9157130313
-0.004961055964
0.9123711379
-0.00576377832
-0.4527333437
0.4533193777
-0.005547089901
-0.4490916398
0.006242085179
0.4498992406
-0.007049685981
-0.4414072565
0.007879068855
0.4414793821
-0.003760077024
-0.004221322088
-0.1934004959
0.002702538834
0.1923807792
-0.00180793429
-0.1749847028
-0.001318693366
0.1738018221
0.002304941885
-0.1812654831
-0.0042312941
0.1810177554
0.004336494381
-0.2013034713
-0.00246725449
0.2025014363
0.001264914462
-0.0969941186
0.001310353654
0.09740811955
-0.0008421471391
-0.0008822074659
0.003674336246
-0.1551678741
0.154102613
-0.002609075151
-0.002216253909
-0.2862955552
0.2856895643
0.002847076167
-0.3013868117
-0.002843203262
0.3020423209
0.002346331353
-0.2951014272
-0.0001794264753
0.2960683167
-0.0005947230499
0.002337643119
-0.2651722956
0.2655671202
-0.002628455694
-0.472576023
0.005221287668
0.4719477596
-0.004593024306
-0.4660384286
0.00432347968
0.4662348103
-0.004519861388
-0.006551707875
0.9202419733
0.00472255625
0.004138526782
-0.004308347997
0.9158616448
-0.002173338931
0.9133482391
0.9120186381
-0.003262791149
0.9219308498
-0.006541750507
0.9210045788
-0.01002186835
0.9191931491
-0.006528986862
0.916172171
-0.007293914592
-0.4542147775
0.4551132674
-0.007427476719
-0.4508655841
0.008523925908
0.4519706186
-0.009628960348
-0.4418537496
0.01090738861
0.4423317684
-0.005569935879
-0.005859843688
-0.1894327923
0.004356828627
0.1884659736
-0.003522122196
-0.1705101063
0.0007151609485
0.1694822459
0.0001135495122
-0.1806710792
-0.001400072209
0.18067245
0.001259774126
-0.2061083386
0.001306922822
0.2072988604
-0.002499074737
-0.09985901736
0.002891078641
0.1001492829
-0.001575330477
-0.001606013681
0.01354642437
-0.1449756409
0.1435555363
-0.0121263198
0.01212059556
-0.2833865969
0.2828684335
-0.01156016745
-0.3039240883
0.01261071841
0.3014116549
-0.00993641377
-0.2976015518
0.00911919406
0.2974175997
-0.008746085985
0.007250085956
-0.2639123085
0.2633132105
-0.006559537911
-0.4710098032
0.008989554521
0.46980113
-0.007780881332
-0.4663160795
0.006684046641
0.4653087661
-0.005676733245
-0.008978801528
0.9168622671
0.006377310186
0.005981197581
-0.00586008813
0.9127429315
-0.00288923084
0.9103773818
0.9091294073
-0.003876246001
0.9258070958
-0.007812099364
0.9249404322
-0.01195512289
0.9233361727
-0.007908137181
0.9204826044
-0.008357419028
-0.4562551736
0.4573878898
-0.009040853376
-0.4533377296
0.01037277709
0.4547972558
-0.01183230331
-0.4425234225
0.0134472326
0.4436543746
-0.006650375234
-0.00798941048
-0.1855288704
0.005238798168
0.1844946607
-0.004344148476
-0.1665615935
0.001578078934
0.1656374381
-0.0008552123489
-0.1810186556
0.0001143749757
0.1812787401
-0.0005088215962
-0.2108665701
0.003957313919
0.2120687783
-0.005159665558
-0.102055739
0.004276783893
0.1023357037
-0.002257806531
-0.002298942111
0.01683654659
-0.1340117172
0.1326518445
-0.01547667392
0.02071813294
-0.2809895434
0.2809649041
-0.02062375232
-0.3010062111
0.01639959899
0.3050049059
-0.02022546504
-0.2958641102
0.02069388812
0.2950602941
-0.01971041122
0.0115704902
-0.2585010463
0.2564617663
-0.00946091024
-0.4683659117
0.01213641443
0.4667068397
-0.01047734238
-0.4642513782
0.009004764
0.4629677464
-0.007721132173
-0.01115160494
0.9142001455
0.007130776965
0.006682949627
-0.007214840561
0.9088061671
-0.00351521797
0.9066777592
0.9056141893
-0.00809711129
0.9339042071
-0.01640938907
0.93325271
-0.02490039979
0.9318271834
-0.00924967148
0.929554152
-0.02472227597
-0.4587965116
0.460179543
-0.01063270288
-0.4563262631
0.01218132185
0.458067367
-0.01392242569
-0.4415703717
0.01571093281
0.4386882115
-0.006079873838
-0.006849578456
-0.181960049
0.002699073912
0.1798915293
-0.0007781964164
-0.1629751049
0.0004158126768
0.1628299498
-0.000472448622
-0.1825018978
0.002370071406
0.1811649669
-0.001164137653
-0.2157405141
0.005524264867
0.2170092162
-0.003390090512
-0.003402876421
-0.0523944743
0.002782416301
0.0524866722
-0.002874614191
-0.05834710499
0.006282738235
0.05785317086
-0.01220583138
0.006417027275
0.01504244676
-0.1246456848
0.2456043557
-0.02600285481
0.01459902798
-0.1245972909
-0.2805159419
0.02652415734
0.2831315102
-0.02903922874
-0.3043900317
0.02670585819
0.3032971106
-0.02542613707
-0.2912264021
0.02056241534
0.2894010657
-0.01857158579
0.01188642859
-0.2473831138
0.245041372
-0.009506740341
-0.4647346411
0.01428457853
0.4627649948
-0.01231493224
-0.4616384186
0.01078734425
0.4602102322
-0.00935915785
-0.01288697872
0.9103493135
0.008595994988
0.008141815753
-0.008327876769
0.9042470652
-0.004105191285
0.9024550738
0.901508998
-0.004621315211
0.9385255223
-0.009381952084
0.9380133469
-0.01442937949
0.9368746108
-0.009856498969
0.9350664838
-0.01008521224
-0.4636203064
0.4650904982
-0.01132669068
-0.4615900177
0.01297110161
0.4633676728
-0.01474875667
-0.4377278664
0.01669310838
0.4426678202
-0.01031800566
-0.01143269012
-0.1759149262
0.01158369566
0.1760459898
-0.01187055138
-0.1598566497
0.01146913835
0.1591850937
-0.01100070676
-0.1855505777
0.008994247079
0.184625456
-0.008190747185
-0.2212813709
0.006057197383
0.2225416836
-0.003657862917
-0.00365964717
-0.05470964888
0.005942728077
0.1098323278
-0.05468020246
-0.003186360829
-0.003198843695
-0.1123084514
0.008235635071
0.112163186
-0.01608147178
0.007991102073
0.02510910567
-0.2389312876
0.2389454794
-0.02511894764
-0.2844257958
0.02705621164
0.2851730573
-0.0276738353
-0.2993543578
0.02674673123
0.3050644455
-0.0322704587
-0.2831453336
0.02814665384
0.2764335886
-0.02130060232
0.01122366906
-0.2347114253
0.2327007833
-0.00920740245
-0.4610411201
0.01517252674
0.4594942536
-0.01362566023
-0.4587663672
0.01210256362
0.4570785307
-0.01041472705
-0.01238445381
0.9056566815
0.008475368902
0.008601716911
-0.009046913748
0.9009095251
-0.004435883352
0.8978440434
0.8970731147
-0.004819983203
0.9433455055
-0.009773469928
0.9429668336
-0.01499725354
0.9420983944
-0.01025408203
0.9407168584
-0.01039354613
-0.4666531581
0.4682022031
-0.01180312708
-0.4651541203
0.01347955775
0.4669352939
-0.01526073133
-0.451105526
0.01717898973
0.4606791634
-0.01345954053
-0.01333752372
-0.1805758291
0.02063297368
0.183608581
-0.02379763428
-0.1589915028
0.03051369192
0.1598526456
-0.0315686166
-0.1789863377
0.03035647083
0.1768456378
-0.02835832588
-0.2188996577
0.01734058485
0.2136579381
-0.01212924453
-0.1129805985
0.01003743052
0.2259418854
-0.01009085863
-0.1129078588
-0.2266115087
0.01658003703
0.2271744867
-0.017143015
-0.2487697621
0.02766328197
0.253594326
-0.03243795618
-0.2908647411
0.0401226994
0.2915135252
-0.04061629493
-0.3014812906
0.03710699347
0.2991757168
-0.03461415197
-0.2655976684
0.0246388086
0.2658936721
-0.02483627243
0.01139195401
-0.230955096
0.2286491289
-0.009085986945
-0.4581168727
0.01696450727
0.4550616948
-0.01390932934
-0.4553588839
0.01248498286
0.4533809345
-0.01050703352
-0.01281813368
0.9010313518
0.008803770756
0.008639692644
-0.009131035022
0.8972224265
-0.004654725878
0.8933677343
0.8924183888
-0.004889502452
0.948235008
-0.009896805141
0.9479741363
-0.0151378739
0.9473394632
-0.01036333148
0.946330068
-0.01038775204
-0.4697434835
0.4712859283
-0.01190577631
-0.4686879421
0.01354587207
0.4704042957
-0.01526222574
-0.4673208387
0.01707677796
0.4693760367
-0.00965885582
-0.009473255725
-0.1976383436
0.02210210686
0.2039416298
-0.02848544582
-0.1667423155
0.04509581336
0.1707756749
-0.04928908272
-0.1730272726
0.05639569022
0.1732883853
-0.0568079677
-0.200973957
0.05283056959
0.1983900887
-0.050330643
-0.2177360942
0.04241603666
0.2132529421
-0.03795496609
-0.2379699373
0.04557230146
0.2409708597
-0.04855175947
-0.2656300136
0.05796091958
0.268021828
-0.06026523899
-0.2910364473
0.06143816785
0.2894476529
-0.0596978427
-0.2883472225
0.0486390377
0.2832452434
-0.0433892448
-0.2506732676
0.02510009849
0.2443297339
-0.01870373143
0.01095975833
-0.2267717488
0.2261830344
-0.01037104392
-0.4543729573
0.01743386703
0.4517260227
-0.01478693243
-0.450569827
0.01142782239
0.4490166526
-0.009874648038
-0.01207312247
0.894910131
0.009371805313
0.00882253801
-0.006765076626
0.8919143807
-0.004725449251
0.8913281069
0.8876929396
-0.004846209478
0.9530812175
-0.009790558342
0.9529184852
-0.01492508854
0.9524739934
-0.01022749415
0.9517684865
-0.01013601286
-0.4727773287
0.4742537528
-0.0117039182
-0.4720651587
0.01325526369
0.4736663089
-0.0148564139
-0.4712186059
0.0165224015
0.4729600458
-0.009188560911
-0.009075280546
-0.2269727521
0.0102394108
0.2340361411
-0.01731350422
-0.1885604145
0.04302527653
0.1962510429
-0.0508123539
-0.1802229107
0.0697244025
0.184659795
-0.07428200089
-0.1968014232
0.08298942031
0.1981071681
-0.08438379342
-0.2037027289
0.07927561376
0.2040102801
-0.07961479226
-0.2452391944
0.08642264689
0.2452710795
-0.08642460646
-0.268671438
0.08417820388
0.266748798
-0.08216737725
-0.2790005285
0.07103642091
0.2736250527
-0.06554397749
-0.2634054619
0.04461887431
0.2554706036
-0.03660198196
-0.2257169535
0.01272488249
0.2247938075
-0.01180125788
0.01026217881
-0.2245817892
0.2240869331
-0.009767322654
-0.4480729973
0.01663555097
0.4463609435
-0.0149234972
-0.447466542
0.01328920902
0.4458857402
-0.01170840723
-0.01132246948
0.8878740302
0.01008138304
0.008277187259
-0.00640918818
0.8870010994
-0.004378644562
0.8892975633
0.883314295
-0.004713277923
0.9577944954
-0.009502986283
0.9577081935
-0.01443401877
0.9574050259
-0.009884894683
0.9569266241
-0.009707261691
-0.4756639173
0.4770437169
-0.01126469425
-0.4751945632
0.01269693788
0.4766516206
-0.01415399526
-0.4745950593
0.0156455621
0.476124355
-0.00865925741
-0.008515600407
-0.2367494408
0.009450358755
0.2371498414
-0.009850759324
-0.2230309283
0.0155418521
0.2325882601
-0.02511647232
-0.2034889551
0.05173995082
0.2111369594
-0.05944727217
-0.2043139546
0.07689352343
0.2067215505
-0.07935648584
-0.2137932059
0.08548379481
0.2176418112
-0.0893526406
-0.2421609262
0.0893733379
0.240299994
-0.08748770456
-0.2556210152
0.07702254198
0.2505603138
-0.07190433811
-0.2529840745
0.05193637571
0.2450905399
-0.04398846533
-0.2293323363
0.01786108887
0.2238618239
-0.01238460344
-0.2233797761
0.01109656306
0.2229636176
-0.01068040458
0.009442068503
-0.2227539546
0.2223442472
-0.009032361184
-0.4447556632
0.01555367488
0.4432568991
-0.01405491074
-0.4444113253
0.01259588409
0.4429771524
-0.01116171111
-0.01421265896
0.8827431978
0.009570377116
0.009773114184
-0.00933777138
0.8821262118
-0.001814690169
0.8817744821
0.8814996049
-0.00451265206
0.9623071475
-0.009079801571
0.9622753431
-0.01374035005
0.9620655744
-0.009393132984
0.9617397528
-0.009160345775
-0.4783508111
0.4796200238
-0.0106623457
-0.4780295927
0.0119633557
0.479334159
-0.01326792198
-0.4775497653
0.0145815999
0.4788724878
-0.008024248322
-0.007880074109
-0.2382450258
0.008703006048
0.2385782549
-0.0090362351
-0.2371882205
0.01001925383
0.237508764
-0.01033979733
-0.235184355
0.01128388206
0.2362469372
-0.01234726429
-0.2164276583
0.02788568677
0.2206376679
-0.0321071865
-0.2260965503
0.04388536434
0.228065207
-0.04585935833
-0.2334525189
0.04433409855
0.2310580694
-0.04193114106
-0.2335558336
0.02945760784
0.2278738541
-0.02376530199
-0.2241780315
0.01222145876
0.2239362003
-0.01197962757
-0.2228135298
0.01115810089
0.2225139691
-0.01085854015
-0.2218550695
0.00990851443
0.2215268678
-0.009580312676
0.008580723686
-0.2212436611
0.2209045704
-0.008241632949
-0.4418603686
0.01432653579
0.4405627733
-0.01302894053
-0.4416522544
0.01174380825
0.4403702574
-0.01046181123
-0.0134224554
0.8780136274
0.008948703324
0.009203322506
-0.008856990743
0.8775607471
-0.004397257673
0.8773147491
0.8771023472
-0.004265502742
0.9665726503
-0.008565617267
0.9665754576
-0.0129166009
0.966416558
-0.008806265335
0.966176064
-0.0085466467
-0.4808137234
0.4819705342
-0.009963076115
-0.4805610273
0.01113295498
0.4817182024
-0.01229013007
-0.4800986042
0.01343815218
0.4812341393
-0.007348934703
-0.007224752536
-0.2394895303
0.007935497412
0.2397672919
-0.008213258984
-0.2383720211
0.009017220995
0.2386302253
-0.009275425188
-0.2369767821
0.01001053201
0.2371786727
-0.0102124226
-0.2232976277
0.01023375114
0.2232513618
-0.01018748522
-0.230534201
0.01132948797
0.2306273331
-0.01142262011
-0.2281220192
0.01143599482
0.2280913008
-0.0114052764
-0.2254594299
0.01117583585
0.2253425836
-0.01105898957
-0.2233058378
0.0106034983
0.2231225795
-0.01042023995
-0.2217241321
0.0097915229
0.2214920826
-0.009559473422
-0.220646814
0.008811996773
0.2203842239
-0.008549406715
0.007734599446
-0.2199940133
0.2197108018
-0.007451387925
-0.4393579604
0.01306155027
0.4382400358
-0.01194362567
-0.4391926084
0.01081936025
0.4380557033
-0.009682455141
-0.01251311273
0.8737021747
0.00827331429
0.008551251168
-0.00829067553
0.87333831
-0.004125785001
0.8731498585
0.8729765622
-0.003991139422
0.9705637897
-0.008000098807
0.970584417
-0.01202542255
0.9704418818
-0.008174912497
0.9702314055
-0.007905851631
-0.4830496885
0.4840969193
-0.009222143301
-0.4828033388
0.01026791107
0.4838253194
-0.0112898917
-0.4822853314
0.01229072412
0.4832576211
-0.006682743019
-0.006580270847
-0.2405282082
0.007191294986
0.2407609598
-0.007424046639
-0.2393288113
0.008087961917
0.23953919
-0.00829834056
-0.2376928676
0.008878243765
0.2378383252
-0.009023701358
-0.2231985491
0.008969391773
0.2232046352
-0.008975477864
-0.2308176063
0.009887408566
0.2308602609
-0.009930063088
-0.2280007462
0.009916953929
0.2279706378
-0.009886845525
-0.225031768
0.009697409697
0.2249391116
-0.009604753313
-0.2226372097
0.009247554844
0.2224937251
-0.009104070158
-0.2208728564
0.008609204545
0.2206887244
-0.008425072555
-0.219674704
0.007825216638
0.2194613126
-0.007611825266
0.006939914344
-0.2189532269
0.2187148455
-0.006701532939
-0.4372019193
0.01183081122
0.4362377881
-0.01086668003
-0.4370149224
0.009884893372
0.4360100271
-0.008879998012
-0.011552653
0.8698019841
0.007585981424
0.007866862075
-0.007681784781
0.8694674417
-0.003830684994
0.8692987588
0.8691458772
-0.003704682672
0.9742684724
-0.00741365821
0.9742933925
-0.01111262191
0.9741408455
-0.007531889624
0.9739178805
-0.007267207232
-0.48506692
0.4860104128
-0.008475382361
-0.4847826508
0.009407429475
0.4856840506
-0.01030882922
-0.4841600383
0.01118289296
0.4849986471
-0.006057970702
-0.005963530992
-0.2414002469
0.006492492148
0.2415964131
-0.006688658378
-0.2401127546
0.007243174164
0.2402868116
-0.007417231169
-0.2382110206
0.007882943261
0.2383166682
-0.007988590813
-0.2232835355
0.007898571959
0.223328153
-0.007943189441
-0.2309469167
0.008677492907
0.2309654456
-0.008696021764
-0.2278804327
0.008662396185
0.2278503923
-0.008632355841
-0.2246871188
0.008468915938
0.2246105375
-0.008392334551
-0.2221078262
0.008102163485
0.2219920581
-0.007986395383
-0.2201918878
0.007586797467
0.2200425685
-0.007437478176
-0.2188803756
0.006947286566
0.2187044051
-0.006771316072
0.006211230689
-0.2180794222
0.2178780601
-0.006009868574
-0.4353411198
0.01067072229
0.4345061641
-0.009835766599
-0.4350921007
0.008977599107
0.4342048724
-0.008090370847
-0.01058897431
0.866289688
0.006915288205
0.007185982284
-0.00706269065
0.8659411581
-0.003528379106
0.8657644472
0.8656174981
-0.003418930807
0.9776874032
-0.006831699458
0.9777061612
-0.01021527223
0.9775244183
-0.006904238218
0.9772579762
-0.006651129701
-0.4868799151
0.4877280871
-0.007752410222
-0.4865285752
0.008582674289
0.4873242277
-0.009378326801
-0.4857787545
0.01014273489
0.4865053319
-0.005478284265
-0.005391028081
-0.2421377686
0.005852020859
0.2423047705
-0.006019022723
-0.2407651747
0.006488357977
0.2409114687
-0.00663465192
-0.2385868338
0.007013347842
0.2386629513
-0.007089465306
-0.2235095542
0.006992478165
0.2235840503
-0.007066974256
-0.2309994827
0.007656349376
0.2310051932
-0.007662059908
-0.2277605054
0.007614910123
0.2277306739
-0.007585078579
-0.2243989087
0.007440185946
0.2243336694
-0.00737494669
-0.221676491
0.007132364181
0.2215806164
-0.007036489505
-0.2196355619
0.006706347577
0.2195120453
-0.006582831043
-0.2182218881
0.00617540164
0.2180746944
-0.006028207978
0.005555950765
-0.2173411911
0.217169804
-0.005384563649
-0.4337277262
0.00960329688
0.4330017577
-0.008877328308
-0.4333948611
0.008125088405
0.432610577
-0.007340804333
-0.009658324604
0.8631338983
0.00627987817
0.006534236068
-0.006458747645
0.8627415811
-0.003231822933
0.8625375225
0.8623856752
-0.003142417529
0.9808298207
-0.006270934085
0.9808346778
-0.009357077185
0.9806105613
-0.006307325379
0.9802793507
-0.006071126327
-0.488506801
0.4892688
-0.0070693244
-0.4880702872
0.007809464016
0.488774088
-0.008513264763
-0.487183072
0.009184048837
0.4878161105
-0.00494931124
-0.00486777613
-0.2427680095
0.00527333426
0.2429117585
-0.005417083265
-0.2413162164
0.005819703915
0.2414407701
-0.005944257594
-0.2388554703
0.006254210894
0.2389089155
-0.006307656081
-0.2238420396
0.006223142187
0.2239376577
-0.00631876027
-0.2310100021
0.006789620545
0.2310082581
-0.0067878765
-0.2276416985
0.006731821781
0.2276122461
-0.006702369394
-0.224151253
0.006571484291
0.2240943972
-0.00651462852
-0.2213163918
0.006307143782
0.2212352559
-0.006226007891
-0.2191724193
0.005947852675
0.2190684477
-0.005843881016
-0.2176684168
0.005500009305
0.2175436402
-0.005375232791
0.004972453501
-0.2167113909
0.2165641168
-0.004825179335
-0.4323234913
0.008634974387
0.4316893728
-0.008000855902
-0.4318945139
0.007339106816
0.431199788
-0.006644380941
-0.008782210634
0.8603004448
0.005690934825
0.005924729357
-0.00588569084
0.8598450613
-0.002949175106
0.8596010068
0.8594365001
-0.002881391308
0.983711212
-0.005743425631
0.9836967121
-0.008554689056
0.9834218248
-0.00575152689
0.9830122016
-0.005536013025
-0.4899665847
0.4906516312
-0.006436573332
-0.4894349406
0.007097611855
0.4900594498
-0.007722121069
-0.4884084004
0.008313466864
0.4889634036
-0.00447077593
-0.004397694172
-0.2433125172
0.004753887292
0.2434375815
-0.004878951598
-0.2417868738
0.005228277017
0.2418938139
-0.005335217195
-0.2390416758
0.005589321924
0.2390777609
-0.005625406972
-0.2242460202
0.00556496207
0.2243544247
-0.005673366614
-0.2309952769
0.006048180974
0.2309887648
-0.006041668921
-0.2275246461
0.005979924147
0.2274957178
-0.005950995833
-0.2239340264
0.005831182015
0.2238836191
-0.005780774755
-0.221009682
0.005600095395
0.2209398078
-0.005530221204
-0.2187804615
0.00529202374
0.2186916335
-0.005203195719
-0.2171972686
0.004909091093
0.2170902476
-0.004802070163
0.004455007206
-0.2161689543
0.2160412995
-0.004327352421
-0.4310953102
0.007767480871
0.4305383434
-0.007210514092
-0.4305650474
0.006625862316
0.4299478013
-0.00600861621
-0.007974478441
0.857754465
0.005155006268
0.005365451953
-0.005354036154
0.8572246191
-0.002685997455
0.8569329681
0.8567505026
-0.00263932312
0.9863505352
-0.005255639454
0.9863130284
-0.007816364272
0.9859825496
-0.005242561066
0.9854865571
-0.005048158781
-0.4912779999
0.491895001
-0.005859562249
-0.4906469751