/*--------------------------------*- C++ -*----------------------------------*\
| =========                 |                                                 |
| \\      /  F ield         | OpenFOAM: The Open Source CFD Toolbox           |
|  \\    /   O peration     | Version:  v1912                                 |
|   \\  /    A nd           | Website:  www.openfoam.com                      |
|    \\/     M anipulation  |                                                 |
\*---------------------------------------------------------------------------*/
FoamFile
{
    version     2.0;
    format      ascii;
    class       surfaceScalarField;
    location    "1.44";
    object      meshPhi;
}
// * * * * * * * * * * * * * * * * * * * * * * * * * * * * * * * * * * * * * //

dimensions      [0 3 -1 0 0 0 0];
oriented        oriented;


internalField   nonuniform List<scalar> 
25162
(
0
0
0
0
0
0
0
0
0
0
0
0
0
0
0
0
0
0
0
0
0
0
0
0
0
0
0
0
0
0
0
0
0
0
0
0
0
0
0
0
0
0
0
0
0
0
0
0
0
0
0
0
0
0
0
0
0
0
0
0
0
0
0
0
0
0
0
0
0
0
0
0
0
0
0
0
0
0
0
0
0
0
0
0
0
0
0
0
0
0
0
0
0
0
0
0
0
0
0
0
0
0
0
0
-5.89946638e-09
5.295792727e-08
-5.930733908e-07
0
1.256670222e-08
5.042243346e-07
0
0
0
0
0
0
0
0
0
0
0
0
0
0
0
0
0
0
0
0
0
0
0
0
0
0
0
0
0
0
0
0
0
0
0
0
0
0
0
0
0
0
0
0
0
0
0
0
0
0
0
0
0
0
0
0
0
0
0
0
0
0
0
0
0
0
2.780124665e-08
-7.495754757e-07
-2.454368628e-06
4.731961185e-06
9.322826184e-06
-4.205342298e-05
-2.103846913e-05
5.950901579e-05
1.242530878e-05
-0.0001107258859
-2.151412064e-05
0.0001242393814
-1.424578664e-06
-0.0001446267517
2.265509667e-06
0.0001434007378
-1.332946315e-05
-0.0001156981872
2.416783267e-05
9.982834531e-05
-6.402891166e-06
-4.456949641e-05
1.782991342e-05
2.772950683e-05
0
-8.101376565e-07
3.895497821e-07
0
0
0
0
0
0
0
0
0
0
0
0
0
0
0
0
0
0
0
0
0
0
0
0
0
0
0
0
0
0
0
0
0
0
0
0
0
0
0
0
0
0
0
0
0
0
0
0
0
0
0
1.323605721e-06
-1.348482051e-06
-6.459674216e-06
9.640106456e-06
4.177714564e-05
-8.326823365e-05
-6.276461324e-05
0.0001187172504
7.661616065e-05
-0.0002374180275
-9.94871695e-05
0.0002768397565
5.915158463e-05
-0.0003792580466
-7.380216833e-05
0.0004050555763
-4.925910946e-06
-0.0004477261181
5.634093846e-06
0.0004488611669
-7.102087056e-05
-0.0004100591446
8.94901421e-05
0.0003833804452
-8.337338794e-05
-0.0002701362757
0.0001133776688
0.0002252468545
-3.278215075e-05
-9.380241074e-05
5.602538417e-05
5.803688961e-05
0
-1.359421381e-06
1.039691913e-06
0
0
0
0
0
0
0
0
0
0
0
0
0
0
0
0
0
0
0
0
0
0
0
0
0
0
0
0
0
0
0
0
0
0
0
0
0
0
0
0
0
0
0
0
0
-4.423985442e-07
4.096627745e-07
4.639174398e-05
-4.907879023e-05
-6.414771232e-05
8.422327997e-05
0.0001358816131
-0.0002233653739
-0.0001610530238
0.000275352692
0.0001715462219
-0.0004302175037
-0.0001947706761
0.000477395969
0.0001176006771
-0.0005916461463
-0.0001306367984
0.0006186046563
-6.725846176e-06
-0.0006636483436
6.757602647e-06
0.0006668980299
-0.0001432217437
-0.0006394715665
0.0001582039552
0.0006164641212
-0.0002133274041
-0.0005008324276
0.0002460241858
0.0004483762487
-0.0001529348077
-0.0002713545527
0.0001921515442
0.0002151441036
-3.432301589e-05
-6.440517176e-05
5.519316048e-05
3.166135983e-05
0
0
0
0
0
0
0
0
0
0
0
0
0
0
0
0
0
0
0
0
0
0
0
0
0
0
0
0
0
0
0
0
0
0
0
0
0
0
0
0
0
0
1.255406794e-05
-4.697785933e-06
-1.987633682e-05
2.010034294e-05
0.0001272861419
-0.0001177021219
-0.0001461890437
0.0001623338587
0.0002337679854
-0.0003162400424
-0.00025688179
0.0003692520079
0.0002603913533
-0.0005108710428
-0.0002748878453
0.0005455510271
0.0001601017073
-0.0006229568153
-0.0001665878904
0.0006357193774
-6.30019409e-06
-0.000648124365
6.162163568e-06
0.0006488350636
-0.0001869987273
-0.000644882113
0.0001891333714
0.0006380044835
-0.0003247514848
-0.0005812422695
0.0003403227903
0.0005486040934
-0.0003143466826
-0.0003913033395
0.0003500209767
0.0003302123967
-0.000134550514
-0.0001489279842
0.0001628598467
9.841638144e-05
-6.393847998e-06
-3.225201594e-06
5.741656864e-06
9.406323399e-08
0
0
0
0
0
0
0
0
0
0
0
0
0
0
0
0
0
0
0
0
0
0
0
0
0
0
0
0
0
0
0
0
0
0
0
-3.900918287e-07
2.544575922e-09
8.7920281e-08
4.269724031e-05
-1.739172559e-05
-5.064972296e-05
3.865348445e-05
0.000187550772
-0.0001385133274
-0.0002033766092
0.0001862506306
0.0003112345121
-0.000319708085
-0.0003234237143
0.0003615362371
0.0003135629765
-0.0004620430959
-0.0003261406928
0.000485554803
0.0001691388846
-0.0005058865775
-7.212860167e-05
-9.045657272e-05
0.0002530936935
0.0002462391738
-0.0002527863793
2.207731758e-06
-2.173626027e-06
0.0002527522736
-0.0002561228436
-0.0001807322372
0.0005033929385
-0.0002490512664
9.856564932e-05
8.394775938e-05
-0.0004892715351
-0.0003797543928
0.0003826851578
0.0004741990121
-0.0004321256255
-0.0003749529682
0.0004469411231
0.0003317314175
-0.000240171879
-0.0001805094701
0.0002665422085
0.0001318691968
-2.549298147e-05
-2.748913705e-05
3.614589093e-05
7.945458216e-06
0
0
0
0
0
0
0
0
0
0
0
0
0
0
0
0
0
0
0
0
0
0
0
0
0
0
0
0
0
0
0
0
0
1.634339847e-06
0
-3.500711344e-06
6.146910685e-07
8.055822588e-07
6.649214743e-05
-1.984874869e-05
-6.835873416e-05
3.868512593e-05
0.0002287964228
-0.000121887302
-0.0002319230075
0.000155016115
0.0003501124899
-0.000252119323
-0.0003534836438
0.0002797751427
0.0003439078471
-0.0003337899415
-0.0003464754507
0.0003392995799
9.359577499e-05
-0.0001769221907
-9.343956712e-05
0.0001767659828
-0.0001756326379
-8.91609521e-05
8.943303239e-05
0.0001753605576
-0.0003386347996
-0.0003816104589
0.0003802315943
0.0003343492885
-0.0004941627828
-0.000280515009
0.0005003947527
0.0002511794371
-0.0003212328842
-0.0001466281172
0.0003296170929
0.0001117199805
-3.069060446e-05
-5.688624263e-05
6.614826924e-05
1.324493901e-05
0
0
0
0
0
0
0
0
0
0
0
0
0
0
0
0
0
0
0
0
0
0
0
0
0
0
0
0
0
0
0
0
0
4.549239171e-06
0
-5.734099737e-06
8.69285011e-07
7.585306315e-07
7.795102813e-05
-1.286408769e-05
-7.995118811e-05
2.355224196e-05
0.0002440135945
-6.889175998e-05
-0.0002464153829
8.655599325e-05
0.0003637725365
-0.0001380174074
-0.0003656925381
0.0001523134089
0.0003501745401
-0.0001776836262
-0.0003506888803
0.0001788754737
9.42643865e-05
-9.431575849e-05
-9.42495554e-05
9.430092738e-05
-9.489570783e-05
-9.000117606e-05
9.004337447e-05
9.485350943e-05
-0.0001797729835
-0.0003763474388
0.0003754005634
0.0001788402296
-0.000514870318
-0.0001553369491
0.0005172331632
0.0001412484767
-0.0003599077647
-8.727831657e-05
0.0003658587433
6.824111691e-05
-2.004356597e-05
-7.803400916e-05
8.193211411e-05
9.636341825e-06
0
0
0
0
0
0
0
0
0
0
0
0
0
0
0
0
0
0
0
0
0
0
0
0
0
0
0
0
0
0
0
0
0
6.875595177e-06
0
-8.434257487e-06
1.326055967e-07
-1.715805162e-07
8.488654169e-05
-1.347828248e-06
-8.686322571e-05
2.248809497e-06
0.0002521951571
-5.929153965e-06
-0.0002545077365
7.562800866e-06
0.0003701607038
-1.365911535e-05
-0.0003719938218
1.585300512e-05
0.0003516845015
-2.089740744e-05
-0.0003520315029
2.124654306e-05
9.409621452e-05
-1.538254619e-05
-9.406693503e-05
8.899300127e-06
6.453966567e-06
-1.513661967e-05
-8.991158428e-05
8.986546376e-05
1.51827402e-05
-2.102023189e-05
-0.0003754338233
0.0003758682386
1.989567165e-05
-0.0005139695262
-1.516450989e-05
0.0005117295543
1.336843989e-05
-0.0003612962116
-8.068171589e-06
0.0003585297476
6.403169145e-06
-2.10897471e-06
-7.926160883e-05
7.802760112e-05
1.064490287e-06
0
0
0
0
0
0
0
0
0
0
0
0
0
0
0
0
0
0
0
0
0
0
0
0
0
0
0
0
0
0
0
0
0
1.012355032e-05
0
-1.204685437e-05
-1.506053407e-06
-2.109363599e-06
9.298405469e-05
1.317519683e-05
-9.511754856e-05
-2.295743321e-05
0.0002615644048
6.257756321e-05
-0.0002639946285
-7.707839916e-05
0.0003776044748
0.0001151067916
-0.0003795496237
-0.0001241527866
0.000352896895
0.0001360423904
-0.0003531249154
-0.0001359626519
9.386363275e-05
6.320558382e-05
-9.383189393e-05
-3.038894923e-05
-3.284837341e-05
6.387555441e-05
-8.93865702e-05
8.926884973e-05
-6.375783393e-05
0.0001373182698
-0.000378329922
0.0003793494034
-0.000137205274
-0.0004962177173
0.0001223856741
0.0004835084331
-0.0001070165679
-0.0003290796654
6.266145516e-05
0.00031958454
-4.748637718e-05
1.183771856e-05
-6.097195261e-05
5.704527515e-05
-4.971259364e-06
0
0
0
0
0
0
0
0
0
0
0
0
0
0
0
0
0
0
0
0
0
0
0
0
0
0
0
0
0
0
0
0
0
1.434401427e-05
0
-1.519078807e-05
-4.586890061e-06
-5.250655484e-06
0.0001020116591
3.160480007e-05
-0.0001046781495
-5.314892831e-05
0.0002717614003
0.0001380839929
-0.0002747442186
-0.0001688199778
0.0003858189615
0.0002494316948
-0.0003882451304
-0.0002686285099
0.000353626933
0.0002932480478
-0.0003537514744
-0.0002931580654
9.358815475e-05
0.0001417518953
-9.35481146e-05
-6.964279915e-05
-7.214913636e-05
0.0001421981618
-8.850767422e-05
8.835978514e-05
-0.0001420502727
0.0002914286124
-0.0003804288825
0.0003802251211
-0.0002843767851
-0.0004556322089
0.0002256578188
0.0004518846042
-0.0002056497679
-0.0002771553222
0.0001149215939
0.0002570419816
-8.439536446e-05
1.630800079e-05
-3.733306348e-05
3.160981662e-05
-5.180641543e-06
0
0
0
0
0
0
0
0
0
0
0
0
0
0
0
0
0
0
0
0
0
0
0
0
0
0
0
0
0
0
0
0
0
2.094976991e-05
0
-2.677105672e-05
-1.080549966e-05
-1.323360874e-05
0.0001130682688
5.748535839e-05
-0.0001195916033
-9.29930146e-05
0.0002848561931
0.0002244313956
-0.0002900773576
-0.0002701576181
0.000396474493
0.0003861905954
-0.0003952083342
-0.0004183734632
0.0003538674652
0.0004507865943
-0.0003540729365
-0.0002203676075
-0.0002302135154
4.806696758e-05
0.0001088074807
-4.80961965e-05
-0.0001087782518
2.015197232e-06
5.434683645e-05
-2.175383183e-06
-0.0001091467026
5.496005206e-05
0.0002192499699
-8.748708279e-05
0.0001854672656
-0.0004478063241
0.0002289109655
-9.833479399e-05
-0.0003756273313
0.0004340969103
0.000373007738
-0.0004161365887
-0.0004125522439
0.000313779061
0.0003965264341
-0.000268875705
-0.0002065410354
0.0001296129168
0.0001921313151
-8.899798487e-05
9.726994087e-06
-1.230688976e-05
9.551520105e-06
-9.365649854e-07
0
0
0
0
0
0
0
0
0
0
0
0
0
0
0
0
0
0
0
0
0
0
0
0
0
0
0
0
0
0
0
0
0
3.040465853e-05
0
-2.5338284e-05
-1.862722873e-05
-1.798121067e-05
0.000129371543
8.316576937e-05
-0.0001260852819
-0.0001294965591
0.0003003855395
0.0003010143845
-0.0002959825533
-0.0003614321821
0.0004069473568
0.0005200743586
-0.000401926376
-0.0005585077366
0.0003497021216
0.0006089370849
-0.0003497021216
-0.0002996230461
-0.0003093140388
4.702242103e-05
0.0002996230461
-9.125876765e-05
4.423634663e-05
-0.0001485123143
-0.0001511107318
2.101860513e-06
0.0001485123079
-2.101850866e-06
-0.0002996230461
0.0001511107286
0.0006089370849
-0.0001854464124
0.0001861258827
-0.0006086485424
-0.0003587533702
0.0005466909356
0.0003517687146
-0.000508882628
-0.000341318815
0.0003486155838
0.0003295272917
-0.0002953525903
-0.0001379347549
0.0001203531068
0.0001183290509
-7.485175981e-05
1.723271182e-06
-1.769639625e-06
7.960187303e-07
0
0
0
0
0
0
0
0
0
0
0
0
0
0
0
0
0
0
0
0
0
0
0
0
0
0
0
0
0
0
0
0
0
0
1.613186386e-05
0
-6.054058375e-06
-1.043753296e-05
-6.845640877e-06
0.0001023155705
7.119481166e-05
-9.045084904e-05
-0.0001183591517
0.000264397456
0.0003018218949
-0.0002482347348
-0.0003696881728
0.0003666790548
0.0005642358686
-0.0003489844722
-0.0006197200892
0.000338444793
0.0007365446324
-0.0003266115456
-0.000756237133
9.125876767e-05
0.000766456994
-0.0001713764906
-0.000766456994
8.011772295e-05
-6.941215671e-06
0.000766456994
6.941215651e-06
-0.000766456994
-0.0001883126672
0.0007574609737
0.0001867738068
-0.0007411576815
-0.0003258454056
0.0006266712515
0.0003115858046
-0.0005671792888
-0.0002651691007
0.0003491117968
0.0002436806987
-0.0002731248006
-6.990027672e-05
8.212216223e-05
5.691211421e-05
-4.309153787e-05
0
0
0
0
0
0
0
0
0
0
0
0
0
0
0
0
0
0
0
0
0
0
0
0
0
0
0
0
0
0
0
0
0
0
0
0
0
1.496870622e-07
0
0
-6.848633921e-08
0
4.844432638e-05
2.882066752e-05
-3.434300323e-05
-6.356794904e-05
0.0001858083255
0.0002245484525
-0.0001613764155
-0.0002898611864
0.0002817443762
0.0004930738982
-0.0002554057224
-0.0005575058454
0.0002769079435
0.0007208849752
-0.0002559821315
-0.0007620173934
0.0001610203088
0.0008407862281
-0.0001522629744
-0.000853442687
-5.57958745e-06
0.0008590164484
5.339254769e-06
-0.0008505313813
-0.0001686490662
0.000784973849
0.000157743988
-0.0007464665337
-0.000249215316
0.0005754243468
0.0002226660359
-0.0005025786336
-0.0001644954298
0.0002672753371
0.0001358182802
-0.0001939191052
-2.220141768e-05
3.430935465e-05
1.290380734e-05
-9.222200383e-06
0
0
0
0
0
0
0
0
0
0
0
0
0
0
0
0
0
0
0
0
0
0
0
0
0
0
0
0
0
0
0
0
0
0
0
0
0
0
0
0
0
0
3.9824181e-06
7.758946848e-08
-6.743668055e-07
-5.756788397e-06
8.440883544e-05
9.453859705e-05
-6.023020342e-05
-0.0001420385251
0.0001684853186
0.000309671953
-0.0001383465488
-0.0003679563342
0.0001832624945
0.0005291368325
-0.0001568811152
-0.0005743367681
0.0001144857875
0.0006722654041
-9.936165303e-05
-0.0006905600553
-5.263869117e-06
0.0006979929557
5.161051727e-06
-0.0006839321161
-0.0001131237283
0.00059036921
9.576083776e-05
-0.0005426176104
-0.0001346064373
0.0003617470309
0.0001055872596
-0.0002948581473
-5.661154227e-05
0.0001103276081
3.583337234e-05
-6.37138953e-05
-1.717523717e-07
2.578763876e-07
0
0
0
0
0
0
0
0
0
0
0
0
0
0
0
0
0
0
0
0
0
0
0
0
0
0
0
0
0
0
0
0
0
0
0
0
0
0
0
0
0
0
0
0
0
0
0
0
7.749579912e-06
2.917963162e-06
-1.251955675e-06
-1.337110888e-05
5.484669453e-05
9.000341487e-05
-3.282438128e-05
-0.0001244775525
7.896843643e-05
0.0002317059453
-5.595098246e-05
-0.000264129961
5.308990905e-05
0.0003361240239
-3.909724711e-05
-0.0003490162256
-3.756321069e-06
0.0003475148055
2.960826469e-06
-0.0003331776068
-4.480330993e-05
0.0002531362628
3.045301937e-05
-0.0002170172856
-3.375295435e-05
0.0001009872526
1.77741996e-05
-6.632029192e-05
-1.618313049e-06
3.677440088e-06
4.434532963e-09
-3.928635805e-08
0
0
0
0
0
0
0
0
0
0
0
0
0
0
0
0
0
0
0
0
0
0
0
0
0
0
0
0
0
0
0
0
0
0
0
0
0
0
0
0
0
0
0
0
0
0
0
0
0
0
0
0
0
0
1.948721086e-07
0
0
-5.398636857e-07
7.76020678e-06
1.459570104e-05
-1.24452838e-06
-2.258915672e-05
8.118131843e-06
4.417588342e-05
-2.708448701e-06
-4.811159228e-05
-6.44799613e-07
4.517327587e-05
1.932732042e-07
-3.951251562e-05
-3.091411204e-06
1.572780064e-05
2.538757508e-07
-8.641833155e-06
0
0
0
0
0
0
0
0
0
0
0
0
0
0
0
0
0
0
0
0
0
0
0
0
0
0
0
0
0
0
0
0
0
0
0
0
0
0
0
0
0
0
0
0
0
0
0
0
0
0
0
0
0
0
0
0
0
0
0
0
0
0
0
0
0
0
0
0
0
0
0
0
0
0
0
0
0
0
0
0
0
0
0
0
0
0
0
0
0
0
0
0
0
0
0
0
0
0
0
0
0
0
0
0
0
0
0
0
0
0
0
0
0
0
0
0
0
0
0
0
0
0
0
0
0
0
0
0
0
0
0
0
0
0
0
0
0
0
0
0
0
0
0
0
0
0
0
0
0
0
0
0
0
0
0
0
0
0
0
0
0
0
0
0
0
0
0
0
0
0
0
0
0
0
0
0
0
0
0
0
0
0
0
0
0
0
0
0
0
0
0
0
0
0
0
0
0
0
0
0
0
0
0
0
0
0
0
0
0
0
0
0
0
0
0
0
0
0
0
0
0
0
0
0
0
0
0
0
0
0
0
0
0
0
0
0
0
0
0
0
0
0
0
0
0
0
0
0
0
0
0
0
0
0
0
0
0
0
0
0
0
0
0
0
0
0
0
0
0
0
0
0
0
0
0
0
0
0
0
0
0
0
0
0
0
0
0
0
0
0
0
0
0
0
0
0
0
0
0
0
0
0
0
0
0
0
0
0
0
0
0
0
0
0
0
0
0
0
0
0
0
0
0
0
0
0
0
0
0
0
0
0
0
0
0
0
0
0
0
0
0
0
0
0
0
0
0
0
0
0
0
0
0
0
0
0
0
0
0
0
0
0
0
0
0
0
0
0
0
0
0
0
0
0
0
0
0
0
0
0
0
0
0
0
0
0
0
0
0
0
0
0
0
0
0
0
0
0
0
0
0
0
0
0
0
0
0
0
0
0
0
0
0
0
0
0
0
0
0
0
0
0
0
0
0
0
0
0
0
0
0
0
0
0
0
0
0
0
0
0
0
0
0
0
0
0
0
0
0
0
0
0
0
0
0
0
0
0
0
0
0
0
0
0
0
0
0
0
0
0
0
0
0
0
0
0
0
0
0
0
0
0
0
0
0
0
0
0
0
0
0
0
0
0
0
0
0
0
0
0
0
0
0
0
0
0
0
0
0
0
0
0
0
0
0
0
0
0
0
0
0
0
0
0
0
0
0
0
0
0
0
0
0
0
0
0
0
0
0
0
0
0
0
0
0
0
0
0
0
0
0
0
0
0
0
0
0
0
0
0
0
0
0
0
0
0
0
0
0
0
0
0
0
0
0
0
0
0
0
0
0
0
0
0
0
0
0
0
0
0
0
0
0
0
0
0
0
0
0
0
0
0
0
0
0
0
0
0
0
0
0
0
0
0
0
0
0
0
0
0
0
0
0
0
0
0
0
0
0
0
0
0
0
0
0
0
0
0
0
0
0
0
0
0
0
0
0
0
0
0
0
0
0
0
0
0
0
0
0
0
0
0
0
0
0
0
0
0
0
0
0
0
0
0
0
0
0
0
0
0
0
0
0
0
0
0
0
0
0
0
0
0
0
0
0
0
0
0
0
0
0
0
0
0
0
0
0
0
0
0
0
0
0
0
0
0
0
0
0
0
0
0
0
0
0
0
0
0
0
0
0
0
0
0
0
0
0
0
0
0
0
0
0
0
0
0
0
0
0
0
0
0
0
0
0
0
0
0
0
0
0
0
0
0
0
0
0
0
0
0
0
0
0
0
0
0
0
0
0
0
0
0
0
0
0
0
0
0
0
0
0
0
0
0
0
0
0
0
0
0
0
0
0
0
0
0
0
0
0
0
0
0
0
0
0
0
0
0
0
0
0
0
0
0
0
0
0
0
0
0
0
0
0
0
0
0
0
0
0
0
0
0
0
0
0
0
0
0
0
0
0
0
0
0
0
0
0
0
0
0
0
0
0
0
0
0
0
0
0
0
0
0
0
0
0
0
0
0
0
0
0
0
0
0
0
0
0
0
0
0
0
0
0
0
0
0
0
0
0
0
0
0
0
0
0
0
0
0
0
0
0
0
0
0
0
0
0
0
0
0
0
0
0
0
0
0
0
0
0
0
0
0
0
0
0
0
0
0
0
0
0
0
0
0
0
0
0
0
0
0
0
0
0
0
0
0
0
0
0
0
0
0
0
0
0
0
0
0
0
0
0
0
0
0
0
0
0
0
0
0
0
0
0
0
0
0
0
0
0
0
0
0
0
0
0
0
0
0
0
0
0
0
0
0
0
0
0
0
0
0
0
0
0
0
0
0
0
0
0
0
0
0
0
0
0
0
0
0
0
0
0
0
0
0
0
0
0
0
0
0
0
0
0
0
0
0
0
0
0
0
0
0
0
0
0
0
0
0
0
0
0
0
0
0
0
0
0
0
0
0
0
0
0
0
0
0
0
0
0
0
0
0
0
0
0
0
0
0
0
0
0
0
0
0
0
0
0
0
0
0
0
0
0
0
0
0
0
0
0
0
0
0
0
0
0
0
0
0
0
0
0
0
0
0
0
0
0
0
0
0
0
0
0
0
0
0
0
0
0
0
0
0
0
0
0
0
0
0
0
0
0
0
0
0
0
0
0
0
0
0
0
0
0
0
0
0
0
0
0
0
0
0
0
0
0
0
0
0
0
0
0
0
0
0
0
0
0
0
0
0
0
0
0
0
0
0
0
0
0
0
0
0
0
0
0
0
0
0
0
0
0
0
0
0
0
0
0
0
0
0
0
0
0
0
0
0
0
0
0
0
0
0
0
0
0
0
0
0
0
0
0
0
0
0
0
0
0
0
0
0
0
0
0
0
0
0
0
0
0
0
0
0
0
0
0
0
0
0
0
0
0
0
0
0
0
0
0
0
0
0
0
0
0
0
0
0
0
0
0
0
0
0
0
0
0
0
0
0
0
0
0
0
0
0
0
0
0
0
0
0
0
0
0
0
0
0
0
0
0
0
0
0
0
0
0
0
0
0
0
0
0
0
0
0
0
0
0
0
0
0
0
0
0
0
0
0
0
0
0
0
0
0
0
0
0
0
0
0
0
0
0
0
0
0
0
0
0
0
0
0
0
0
0
0
0
0
0
0
0
0
0
0
0
0
0
0
0
0
0
0
0
0
0
0
0
0
0
0
0
0
0
0
0
0
0
0
0
0
0
0
0
0
0
0
0
0
0
0
0
-0.0001043506672
0.0001043433082
9.427174546e-05
7.887489466e-05
0.0001047155123
-7.880206807e-05
-5.122554461e-05
-5.356279432e-05
-7.721070995e-05
-0.0001763402887
7.79183608e-05
-2.519722309e-05
9.412909786e-05
1.381536945e-05
1.13489703e-05
7.892030956e-05
2.508901433e-05
-7.895888154e-05
-1.128279027e-05
-1.376765208e-05
7.90212029e-05
-4.627580445e-05
-4.876621163e-05
5.337825888e-05
9.389008839e-05
-2.548020387e-05
-2.792451066e-05
7.841893057e-05
-5.401822368e-05
-7.846017914e-05
2.82455917e-05
2.581388055e-05
7.88757364e-05
-6.292535443e-06
-8.799511069e-06
0.0001318953791
9.360359559e-05
-6.473591814e-05
-6.717490179e-05
7.744617539e-05
-0.0001323050352
-7.76158011e-05
0.0001324746609
6.399208789e-05
7.830239708e-05
0.000106450019
-0.0001064517815
4.806873011e-05
-5.382073319e-05
-1.972134992e-06
1.947999237e-06
5.384486895e-05
5.320959402e-05
-0.0001068490554
1.833925388e-06
7.618453978e-05
-0.0002098876249
-7.63176709e-05
0.000210020756
0.0001424351416
7.720919559e-05
0.0001461899421
-0.0001461899421
4.702242103e-05
-0.0001461899242
-5.230367359e-06
5.230465119e-06
0.0001461898265
5.441148718e-05
-2.036785726e-06
-0.0002897860357
0.0001328376351
8.771218097e-06
4.089118757e-06
0.0001340999031
-0.0005597984491
0.0002884642041
0.0002767957932
-6.460143962e-05
-7.496001163e-05
0.0002194142761
7.602023353e-05
-0.0001869946131
0.0001870293832
9.356100493e-05
1.344994562e-05
-0.000252829349
-1.340697594e-05
0.0001864039708
-7.729454333e-05
-0.0001863201374
-7.468620214e-05
-0.0002550750156
7.363837423e-05
9.929527224e-06
3.566743637e-05
-9.875709267e-06
-3.572125433e-05
9.054232299e-05
-1.752849263e-05
-9.084560319e-05
1.783177283e-05
0.0001046932695
-8.997893327e-05
0.0003235978571
0.000219210252
-0.0003235362845
-0.0002192829658
-0.0003252550193
-0.0003388294653
0.0003246788489
-6.010529709e-05
6.0529111e-05
0.0003513864051
-0.0001051218302
0.0001051476803
-2.522307317e-05
0.0001052858571
-9.432034536e-05
-0.0001052812702
1.096975325e-05
1.531697481e-05
-1.098821247e-05
-1.529851559e-05
-1.034842431e-05
2.453777622e-05
-2.437908976e-05
1.018973784e-05
2.512535047e-05
-8.994792043e-05
0.0003232140058
6.069624793e-05
-0.0003233183528
-6.061191158e-05
-0.0001796940659
0.0003235276294
9.675977769e-05
-9.666168413e-05
0.0003526525529
-0.0001048906107
0.0001049171548
5.335171473e-05
-1.54123456e-05
-0.0001050920308
-9.398685412e-05
1.408320958e-05
9.401927283e-05
-5.824915875e-06
-8.290712425e-06
-2.931137804e-05
-4.422091612e-06
2.922248439e-05
8.274015098e-06
-3.763029843e-06
2.924616195e-05
4.729156514e-06
-8.863203242e-06
-2.922407663e-05
4.111961408e-06
9.805454348e-06
-4.709529081e-06
-9.85736818e-06
4.761442913e-06
-1.00614307e-05
4.829368311e-06
-4.944923419e-06
1.017698581e-05
-5.392608257e-05
-8.947871132e-05
0.0003235716135
-9.748428765e-05
-0.000323279011
9.711712418e-05
-2.099809028e-05
0.0003231503972
0.0002539670398
-0.0002537935193
0.0003533688537
-0.00010463231
0.0001046624695
0.0001318652196
6.317096268e-05
-0.0001048559895
-9.369519902e-05
9.267876841e-05
9.375090034e-05
-4.51461379e-05
-4.758833182e-05
-1.431122909e-05
-2.420047469e-05
1.434647215e-05
2.416523163e-05
2.906725581e-05
-1.493697706e-05
3.04310254e-05
-2.90432687e-05
-1.551803544e-05
1.841937262e-05
-4.803998131e-05
-1.847852689e-05
4.809913558e-05
-1.871438865e-05
-3.089597275e-05
1.862749588e-05
1.582722867e-05
1.515563684e-05
0.0004113743555
0.0003538507096
-0.0002007766226
-0.0002105809774
-0.0001045185859
-0.0001040717792
0.0001044563409
0.0002105840432
0.0001417265463
-0.0001046069609
-4.810193652e-05
8.687809728e-05
-8.689629851e-05
4.812013776e-05
-1.485552369e-05
-4.359314913e-05
1.477945744e-05
4.366921538e-05
1.464838455e-05
-3.466707154e-05
3.458852015e-05
-1.456983316e-05
4.435757001e-05
-8.491850106e-07
-4.425608242e-05
7.476974213e-07
1.775790526e-05
-8.722807402e-05
-1.778334916e-05
8.725351792e-05
-1.814184313e-05
-7.01353199e-05
7.016025952e-05
1.811690352e-05
0.0005354252531
0.0003517090023
-0.0002476460981
-0.0002897860357
-0.000102407777
-0.0001435960936
0.000102407777
0.0002897860357
-0.0001114960527
0.0002203021801
-0.0001045172325
-4.806696809e-05
0.0001261938886
-0.000126183588
4.805666749e-05
-1.430386611e-05
-6.385997304e-05
1.442154108e-05
6.374229807e-05
1.491126826e-05
-5.435381218e-05
5.421070547e-05
-1.476816155e-05
0.0003684729813
-0.0003684729813
9.125876767e-05
-0.0003684729813
-1.324682791e-05
1.324682791e-05
0.0003684729813
0.0001485122565
-5.230315969e-06
2.653065968e-05
-6.849833171e-05
-2.649472849e-05
3.450886583e-05
3.39535347e-05
-2.669451206e-05
-5.090625992e-05
2.663009342e-05
2.586348457e-05
2.510719398e-05
-9.049366018e-05
2.48231709e-05
-2.472529897e-05
9.039578825e-05
-7.117716969e-05
7.123828543e-05
2.646954393e-05
2.525793706e-05
-1.045305427e-05
-2.51533071e-05
3.495195617e-05
-3.497240932e-05
9.949980372e-06
-7.852596862e-05
0.0001351362909
7.868625102e-05
-6.650207685e-05
-6.879449642e-05
-2.141289504e-05
-3.418346852e-05
2.153441743e-05
6.90139023e-05
1.083887334e-05
2.531121965e-05
-1.089215593e-05
5.325358895e-06
2.92663216e-05
-1.131104686e-05
5.965528321e-06
2.85220453e-05
2.921129192e-05
-2.853176661e-05
-2.920157061e-05
9.419391583e-05
-5.471120299e-05
-9.417154548e-05
5.468883263e-05
2.644402553e-05
-2.639898572e-05
1.453166886e-05
1.394533663e-05
-1.366785457e-05
5.318835265e-06
1.36743782e-05
-4.834436314e-05
-2.666821977e-05
2.450018024e-05
2.381789061e-05
-3.09987391e-05
2.646854851e-05
1.579550833e-05
1.517870779e-05
5.4499756e-06
-9.946307198e-06
-5.565099104e-06
1.461852894e-05
-1.458823944e-05
1.093946374e-05
-4.088581906e-05
2.875910672e-05
-2.875382041e-05
4.088053275e-05
-1.155202033e-05
1.152104087e-05
1.46495084e-05
1.066566481e-05
5.374116219e-06
-1.058980543e-05
1.07467148e-05
2.462993476e-05
1.531262254e-05
-1.154766806e-05
3.120457794e-05
-4.089196109e-05
-3.119843591e-05
-1.430778452e-05
2.910149325e-05
2.797531493e-05
-1.370176786e-05
-5.013788228e-06
1.076850995e-05
-2.933998912e-05
-5.726110638e-06
2.392754034e-05
-9.395460114e-05
-1.075090305e-05
-1.320889026e-05
1.382350461e-05
-1.384166334e-05
-4.995629489e-06
-1.344868599e-05
-1.434202207e-05
1.348292354e-05
-1.364798418e-05
4.709286128e-06
-4.326017901e-06
1.372743089e-05
-2.839213306e-05
-1.873645913e-05
1.451509599e-05
1.389910756e-05
-5.271203537e-06
5.287449882e-06
9.789208004e-06
-7.869446066e-05
-2.442814533e-05
7.861631757e-05
1.347632662e-05
1.10299618e-05
-2.159703058e-05
5.857077385e-06
2.15652938e-05
-1.109654414e-05
2.1408316e-05
-2.836622128e-05
-2.143422777e-05
1.073914322e-05
4.755889897e-06
4.062088811e-06
-8.646861449e-06
-1.054059481e-05
-1.118119222e-05
-1.458800897e-05
-7.87353773e-05
8.541725416e-06
6.087200187e-06
-3.402690573e-05
1.471830627e-05
3.395698401e-05
-2.481005677e-05
2.476546731e-05
-1.426663964e-05
0.0001024181318
-9.368941033e-05
-5.00132772e-05
-5.241064326e-05
1.373427514e-05
-1.367190287e-05
-2.487242903e-05
-1.421631485e-05
-3.41314329e-05
1.432084202e-05
-1.343090885e-05
-1.495475419e-05
-2.427184912e-05
1.380564957e-05
-6.770740648e-05
-1.818960973e-05
6.775517309e-05
-5.056500734e-05
5.058268791e-05
1.840169205e-05
-5.367603037e-05
1.500105065e-05
5.358624798e-05
-4.444570421e-05
4.442489995e-05
-1.483471942e-05
8.931301206e-05
-4.809582826e-05
-8.931912032e-05
1.732381085e-06
-4.471549162e-05
4.460699122e-05
-1.623880692e-06
1.434679156e-05
-1.426668912e-05
-4.452580665e-05
-1.400436935e-05
-5.384555262e-05
1.41738916e-05
-1.410420051e-05
-3.477918587e-05
-4.351462962e-05
1.426827205e-05
1.546395555e-06
4.454355553e-05
3.214987966e-05
-0.0002103495286
-3.228857899e-05
0.0001063942341
0.0001040939938
-8.958811355e-05
8.960207342e-05
1.774394539e-05
-8.535698796e-07
-4.471110675e-05
-0.0001473392608
-2.787546709e-05
0.0001467794536
1.474105899e-05
1.369421533e-05
-6.451943188e-05
6.439326657e-05
-1.41777008e-05
0.0001286190518
-4.809487815e-05
-0.0001285911418
6.125762952e-06
-0.0001277022961
0.0001278945922
-6.31805901e-06
1.203635766e-05
-1.203162324e-05
-6.452416629e-05
-2.468163573e-05
-0.0001471993894
1.294704653e-05
1.159471777e-05
-1.385791316e-05
-5.450026837e-05
1.209603104e-05
-6.391964643e-05
-0.0001253966596
5.87002981e-06
0.0001256523927
-0.0002168090685
0.0002185947388
0.0003493609329
0.0001052910616
-0.0001043558717
0.0001046972875
-0.0001766232953
-0.0001049961829
-9.415444426e-05
-0.0001448804774
0.0001448894892
9.414543244e-05
-2.923658821e-05
2.921933877e-05
-7.115992025e-05
2.866216597e-05
-9.068215733e-05
-2.847366882e-05
-1.80872701e-06
3.989471702e-05
-6.5556058e-06
-3.153038421e-05
4.716417415e-05
-3.281386511e-06
-4.788039825e-05
3.997610621e-06
-6.458341425e-05
6.456637324e-05
9.421095684e-05
2.922806969e-05
-3.101551687e-05
2.931563772e-05
-4.834345991e-05
-2.931654094e-05
9.920717607e-06
-1.97792775e-05
-5.788316278e-06
1.564687616e-05
-0.0001321880273
-8.862468206e-05
0.0003285831557
-0.0002535846241
-0.0003270496402
0.000254130543
0.0001364642664
0.0003244786731
8.624747105e-06
-3.928132789e-05
-2.06848721e-06
3.272506799e-05
7.116645146e-06
-7.761942788e-05
-7.205594041e-06
3.915839157e-05
3.854998522e-05
-4.004675741e-06
-3.48324834e-05
3.483411504e-05
4.003044104e-06
-3.143817418e-06
-0.0001252041979
2.951355719e-06
3.257331917e-05
-0.0002483094713
-3.220452928e-05
0.0002479406814
-0.0002198499546
3.201798305e-05
0.0001111594772
0.0001088223741
2.929555225e-05
-5.088617445e-05
-6.849930343e-05
-2.923561649e-05
-0.0001341343876
-9.423149451e-05
0.0001342114379
7.23904107e-06
-2.897261121e-05
-7.277499076e-06
2.901106922e-05
-4.712899833e-05
6.267025386e-06
-6.913609519e-06
4.777558246e-05
-4.105005503e-05
-7.579702608e-06
4.101478087e-05
7.614976763e-06
-1.983077917e-05
2.054309394e-05
8.983000822e-05
-3.621053385e-05
7.169085009e-05
-2.122577491e-05
0.0001450812114
-7.87017683e-05
-7.124802849e-05
-7.36573832e-05
-3.428213448e-05
-4.040206443e-06
3.431766518e-05
-4.458180878e-06
-3.001138217e-05
3.011871771e-05
4.350845335e-06
-7.801567531e-05
-0.0001029996686
0.0001031399849
7.787535898e-05
-2.118807579e-05
2.113288553e-05
-5.050981708e-05
2.088600614e-05
-6.765163779e-05
-2.094177484e-05
2.13702184e-05
-3.085787515e-05
-4.802542367e-05
-2.120263343e-05
-9.330801825e-05
-7.812754451e-05
9.341988746e-05
1.436271891e-06
-4.969377876e-05
4.984208573e-05
-1.584578858e-06
5.854445988e-05
-6.228502862e-06
-5.845803835e-05
6.14208133e-06
-5.3650698e-06
-0.0001162568853
5.24514288e-06
5.842529286e-05
5.795151933e-05
0.0001083197962
4.833797831e-06
-0.0001082913944
-4.86219963e-06
-0.0002249554516
4.44113129e-05
-1.832128508e-05
-2.356696419e-05
0.0001117258646
0.0001107065234
-9.232413301e-05
9.410721117e-05
2.304009274e-05
9.294203325e-05
-1.734589427e-05
-9.312463161e-05
0.0002211949371
-2.752304238e-05
-0.000109645886
-0.0001090608059
1.542828929e-05
9.606507922e-06
3.461525518e-06
-3.555599159e-06
0.0001084138698
5.232028307e-05
-5.412901008e-05
-1.840110774e-05
7.979693686e-05
1.865395248e-05
-3.966839931e-05
-4.038138229e-05
-3.95835327e-06
1.53403649e-05
4.093827145e-05
-4.422135753e-06
4.826549708e-06
4.675976019e-05
4.119396755e-05
-5.257603796e-06
8.209213648e-05
-1.858039653e-05
-4.069376499e-05
-4.12190827e-05
-9.337474503e-06
1.977615519e-05
-1.978257601e-05
9.343895319e-06
2.028234938e-05
-9.39627393e-06
-2.022354996e-05
-9.748697246e-06
-2.767829971e-07
2.309382877e-07
9.794541955e-06
2.620055438e-07
-9.788651859e-06
-2.220509291e-07
-2.431900537e-05
4.458176875e-06
-4.221813458e-06
2.408264195e-05
-2.089612816e-05
2.7146124e-05
3.670721765e-06
-1.857965453e-05
-4.066474093e-05
4.067652624e-05
1.856786922e-05
-5.388152521e-06
4.970282014e-06
-2.047825765e-05
5.151187852e-06
-2.439332553e-05
-5.076867691e-06
-4.801289694e-06
6.21648371e-06
-1.477348559e-05
1.335829157e-05
-1.961767191e-05
-5.549758111e-06
-3.823124074e-05
-1.860359275e-05
1.943378136e-05
1.882139761e-05
-3.961628262e-05
1.402004185e-05
3.954886041e-05
-1.395261964e-05
3.710701497e-05
7.947250205e-05
-3.709813941e-05
-7.948137761e-05
-3.707455291e-05
8.690992638e-05
-8.692818156e-05
3.709280809e-05
6.803315157e-06
-8.735212915e-05
-6.876475651e-06
8.742528965e-05
-8.004384674e-05
7.021158176e-06
4.038948298e-05
3.974985073e-05
5.039982474e-05
-1.302972052e-06
-4.047210558e-05
1.370859111e-05
-5.926990443e-05
5.912002247e-05
-1.355870916e-05
3.692378185e-05
0.000118727055
-3.694843263e-05
-0.0001187024042
-3.6954906e-05
0.00012617948
3.691112487e-05
-6.273641873e-05
-6.33992801e-05
3.702513942e-05
0.0001087868631
-3.702392756e-05
-0.000108788075
0.0001162659569
-0.0001162794599
3.693728486e-05
-5.872045736e-05
1.384831659e-05
5.858073188e-05
-3.658050622e-05
6.950575475e-06
-1.82207584e-05
4.785068914e-05
-2.942509133e-05
7.274157158e-06
2.938997525e-05
-2.648596803e-05
-6.094236636e-05
2.652768647e-05
3.071907853e-05
3.018156939e-05
-8.678712859e-06
8.841971359e-06
-2.958834983e-05
8.686000789e-06
-3.578838992e-05
-9.478117083e-06
-8.642284488e-06
1.08656509e-05
-2.548899468e-05
2.326562827e-05
-2.912015545e-05
-8.531168618e-06
-5.850979239e-05
-2.653631679e-05
2.962041091e-05
2.893973025e-05
-2.625403815e-05
-8.273116719e-05
8.282190304e-05
2.616330229e-05
-8.683497707e-06
8.717734922e-06
-4.108429224e-05
6.05759064e-06
-4.574823443e-05
-7.438354535e-06
3.630990454e-05