/*--------------------------------*- C++ -*----------------------------------*\
| =========                 |                                                 |
| \\      /  F ield         | OpenFOAM: The Open Source CFD Toolbox           |
|  \\    /   O peration     | Version:  v1912                                 |
|   \\  /    A nd           | Website:  www.openfoam.com                      |
|    \\/     M anipulation  |                                                 |
\*---------------------------------------------------------------------------*/
FoamFile
{
    version     2.0;
    format      ascii;
    class       pointVectorField;
    location    "1.44";
    object      pointDisplacement;
}
// * * * * * * * * * * * * * * * * * * * * * * * * * * * * * * * * * * * * * //

dimensions      [0 1 0 0 0 0 0];


internalField   nonuniform List<vector> 
26316
(
(0 0 0)
(0 0 0)
(0 0 0)
(0 0 0)
(0 0 0)
(0 0 0)
(0 0 0)
(0 0 0)
(0 0 0)
(0 0 0)
(0 0 0)
(0 0 0)
(0 0 0)
(0 0 0)
(0 0 0)
(0 0 0)
(0 0 0)
(0 0 0)
(0 0 0)
(0 0 0)
(0 0 0)
(0 0 0)
(0 0 0)
(0 0 0)
(0 0 0)
(0 0 0)
(0 0 0)
(0 0 0)
(0 0 0)
(0 0 0)
(0 0 0)
(0 0 0)
(0 0 0)
(0 0 0)
(0 0 0)
(0 0 0)
(0 0 0)
(0 0 0)
(0 0 0)
(0 0 0)
(0 0 0)
(0 0 0)
(0 0 0)
(0 0 0)
(0 0 0)
(0 0 0)
(0 0 0)
(0 0 0)
(0 0 0)
(0 0 0)
(0 0 0)
(0 0 0)
(0 0 0)
(0 0 0)
(0 0 0)
(0 0 0)
(0 0 0)
(0 0 0)
(0 0 0)
(0 0 0)
(0 0 0)
(0 0 0)
(0 0 0)
(0 0 0)
(0 0 0)
(0 0 0)
(0 0 0)
(0 0 0)
(0 0 0)
(0 0 0)
(0 0 0)
(0 0 0)
(0 0 0)
(0 0 0)
(0 0 0)
(0 0 0)
(0 0 0)
(0 0 0)
(0 0 0)
(0 0 0)
(0 0 0)
(0 0 0)
(0 0 0)
(0 0 0)
(0 0 0)
(0 0 0)
(0 0 0)
(0 0 0)
(0 0 0)
(0 0 0)
(0 0 0)
(0 0 0)
(0 0 0)
(0 0 0)
(0 0 0)
(0 0 0)
(0 0 0)
(0 0 0)
(0 0 0)
(0 0 0)
(0 0 0)
(0 0 0)
(0 0 0)
(0 0 0)
(0 0 0)
(0 0 0)
(0 0 0)
(0 0 0)
(0 0 0)
(0 0 0)
(0 0 0)
(0 0 0)
(0 0 0)
(0 0 0)
(0 0 0)
(0 0 0)
(0 0 0)
(0 0 0)
(0 0 0)
(-7.456971984e-07 -1.642585551e-06 2.775557562e-17)
(0 0 0)
(0 0 0)
(-4.111022958e-07 -1.840059383e-05 3.330669074e-16)
(1.899939117e-06 -1.564022806e-05 2.91433544e-16)
(0 0 0)
(0 0 0)
(0 0 0)
(0 0 0)
(0 0 0)
(0 0 0)
(0 0 0)
(0 0 0)
(0 0 0)
(0 0 0)
(0 0 0)
(0 0 0)
(0 0 0)
(0 0 0)
(0 0 0)
(0 0 0)
(0 0 0)
(0 0 0)
(0 0 0)
(0 0 0)
(0 0 0)
(0 0 0)
(0 0 0)
(0 0 0)
(0 0 0)
(0 0 0)
(0 0 0)
(0 0 0)
(0 0 0)
(0 0 0)
(0 0 0)
(0 0 0)
(0 0 0)
(0 0 0)
(0 0 0)
(0 0 0)
(0 0 0)
(0 0 0)
(0 0 0)
(0 0 0)
(0 0 0)
(0 0 0)
(0 0 0)
(0 0 0)
(0 0 0)
(0 0 0)
(0 0 0)
(0 0 0)
(0 0 0)
(0 0 0)
(0 0 0)
(0 0 0)
(0 0 0)
(0 0 0)
(0 0 0)
(0 0 0)
(0 0 0)
(0 0 0)
(0 0 0)
(0 0 0)
(0 0 0)
(-4.645550276e-05 -4.08473268e-05 4.996003611e-16)
(-0.0002672998371 -0.000256122619 3.080868893e-15)
(-3.496069328e-06 -3.056655625e-06 2.775557562e-17)
(-0.0005072080671 -0.0006072737253 8.021361353e-15)
(-0.001257968112 -0.001653568613 1.992850329e-14)
(-0.001491113538 -0.002238928208 2.700617507e-14)
(-0.0006965920556 -0.0009517344682 1.257327575e-14)
(-0.0008445632757 -0.002004818891 2.647881914e-14)
(-0.001474429451 -0.003867446993 4.664324482e-14)
(-0.001224762608 -0.004274247463 5.154210392e-14)
(-0.0007251865501 -0.002281664329 3.012867733e-14)
(-2.352779237e-05 -0.002670724309 3.524958103e-14)
(-1.991315722e-05 -0.004837919649 5.827283101e-14)
(0.0004267491718 -0.004777774067 5.752343046e-14)
(0.0002459829444 -0.002627751279 3.466671394e-14)
(0.0008048606185 -0.002015959805 2.657596365e-14)
(0.001430372948 -0.003890550636 4.67820227e-14)
(0.001563835978 -0.003399926489 4.087008509e-14)
(0.0008451464466 -0.001687688446 2.224609386e-14)
(0.0004958515129 -0.0006157122674 8.118505868e-15)
(0.001231747654 -0.001672230045 2.010891453e-14)
(0.0009259963679 -0.001116951639 1.34336986e-14)
(0.000289554707 -0.000319188755 4.218847494e-15)
(0 0 0)
(4.873684228e-05 -4.399412194e-05 5.273559367e-16)
(0 0 0)
(0 0 0)
(0 0 0)
(0 0 0)
(0 0 0)
(0 0 0)
(0 0 0)
(0 0 0)
(0 0 0)
(0 0 0)
(0 0 0)
(0 0 0)
(0 0 0)
(0 0 0)
(0 0 0)
(0 0 0)
(0 0 0)
(0 0 0)
(0 0 0)
(0 0 0)
(0 0 0)
(0 0 0)
(0 0 0)
(0 0 0)
(0 0 0)
(0 0 0)
(0 0 0)
(0 0 0)
(0 0 0)
(0 0 0)
(0 0 0)
(0 0 0)
(0 0 0)
(0 0 0)
(0 0 0)
(0 0 0)
(0 0 0)
(0 0 0)
(0 0 0)
(0 0 0)
(0 0 0)
(0 0 0)
(0 0 0)
(0 0 0)
(0 0 0)
(0 0 0)
(-0.0001297417586 -0.0001158699421 1.026956298e-15)
(-0.0007085540194 -0.0006745261464 6.009082121e-15)
(-0.0001678801458 -0.0001494589162 1.429412144e-15)
(-0.002391263463 -0.002657609055 2.539635169e-14)
(-0.003820822314 -0.004544536685 4.064804049e-14)
(-0.004867570679 -0.006320600463 5.659361868e-14)
(-0.003283803827 -0.003982347503 3.808064974e-14)
(-0.005076765707 -0.008502551709 8.146261443e-14)
(-0.006700089407 -0.01204179617 1.079969447e-13)
(-0.00671601232 -0.01385055626 1.242339565e-13)
(-0.005201294097 -0.009985032758 9.567346915e-14)
(-0.004002834533 -0.01367411406 1.30936928e-13)
(-0.004945473696 -0.01825380135 1.635636071e-13)
(-0.003854799743 -0.01926248412 1.724731469e-13)
(-0.003155587848 -0.0145327978 1.390693116e-13)
(0.0001154453448 -0.01570727797 1.499217417e-13)
(0.0002052909091 -0.02064044164 1.842553887e-13)
(0.001622837326 -0.0205197516 1.829786322e-13)
(0.001268104056 -0.01559802088 1.487421297e-13)
(0.0041467937 -0.01379297614 1.312006059e-13)
(0.005233853934 -0.01842981606 1.638689184e-13)
(0.006044135096 -0.01719093936 1.527528104e-13)
(0.004752935767 -0.01273962288 1.211114542e-13)
(0.00507903781 -0.008616769791 8.187894807e-14)
(0.006761855651 -0.01222146635 1.084965451e-13)
(0.006388846102 -0.0102970286 9.142686608e-14)
(0.004674593797 -0.007065890362 6.71546152e-14)
(0.002375949229 -0.002702272368 2.57294186e-14)
(0.003802670712 -0.004619894352 4.10921297e-14)
(0.002685753922 -0.003013375732 2.681188604e-14)
(0.001490343689 -0.001564776213 1.490474411e-14)
(0 0 0)
(0.0001288131267 -0.0001171857134 1.040834086e-15)
(0 0 0)
(0 0 0)
(0 0 0)
(0 0 0)
(0 0 0)
(0 0 0)
(0 0 0)
(0 0 0)
(0 0 0)
(0 0 0)
(0 0 0)
(0 0 0)
(0 0 0)
(0 0 0)
(0 0 0)
(0 0 0)
(0 0 0)
(0 0 0)
(0 0 0)
(0 0 0)
(0 0 0)
(0 0 0)
(0 0 0)
(0 0 0)
(0 0 0)
(0 0 0)
(0 0 0)
(0 0 0)
(0 0 0)
(0 0 0)
(0 0 0)
(0 0 0)
(0 0 0)
(0 0 0)
(0 0 0)
(0 0 0)
(0 0 0)
(0 0 0)
(0 0 0)
(-5.582157218e-05 -5.290963988e-05 3.60822483e-16)
(0 0 0)
(-0.002374116163 -0.002531712248 1.892930257e-14)
(-0.003527460063 -0.003961243295 2.808864252e-14)
(-0.005515137264 -0.006607879132 4.693467837e-14)
(-0.004051400702 -0.004607788898 3.44863027e-14)
(-0.009221016479 -0.01313724878 9.86849491e-14)
(-0.01118073893 -0.01680626745 1.198624533e-13)
(-0.01247496038 -0.02050381308 1.46369028e-13)
(-0.01050543526 -0.0163606447 1.230265889e-13)
(-0.01184671827 -0.02566696381 1.932481952e-13)
(-0.01348647399 -0.03086773058 2.205874372e-13)
(-0.01282829707 -0.03378201206 2.413486078e-13)
(-0.01138211096 -0.02836316356 2.135097654e-13)
(-0.007645277136 -0.03450560822 2.592231985e-13)
(-0.008421846058 -0.0402308692 2.867706073e-13)
(-0.006365969621 -0.0415811306 2.960409695e-13)
(-0.005812852806 -0.03583278199 2.688960166e-13)
(0.0005141169466 -0.03763104643 2.813027589e-13)
(0.0005920551656 -0.04339402526 3.076983113e-13)
(0.002966941843 -0.04328547182 3.064770659e-13)
(0.002683086822 -0.03750821212 2.79984369e-13)
(0.008481318188 -0.0349117362 2.596117765e-13)
(0.00941565327 -0.04071880521 2.871453075e-13)
(0.01112314128 -0.03904559476 2.750438766e-13)
(0.009962961539 -0.0332758489 2.471911564e-13)
(0.01222694504 -0.02615444742 1.939420846e-13)
(0.01398946913 -0.03146425415 2.211703043e-13)
(0.0140222748 -0.02818323161 1.980776654e-13)
(0.01212222802 -0.02316513952 1.717515019e-13)
(0.009214902835 -0.01329665182 9.869882689e-14)
(0.01149104281 -0.01742631305 1.224437218e-13)
(0.009893785856 -0.01387809839 9.749145935e-14)
(0.007838228513 -0.01044086175 7.749356712e-14)
(0.002711078571 -0.002941650714 2.187139359e-14)
(0.004052790796 -0.004634621141 3.265443471e-14)
(0.002285914841 -0.002460772766 1.734723476e-14)
(0.001306078324 -0.00133392075 9.922618283e-15)
(0 0 0)
(0 0 0)
(0 0 0)
(0 0 0)
(0 0 0)
(0 0 0)
(0 0 0)
(0 0 0)
(0 0 0)
(0 0 0)
(0 0 0)
(0 0 0)
(0 0 0)
(0 0 0)
(0 0 0)
(0 0 0)
(0 0 0)
(0 0 0)
(0 0 0)
(0 0 0)
(0 0 0)
(0 0 0)
(0 0 0)
(0 0 0)
(0 0 0)
(0 0 0)
(0 0 0)
(0 0 0)
(0 0 0)
(0 0 0)
(0 0 0)
(0 0 0)
(0 0 0)
(0 0 0)
(0 0 0)
(-0.0002579957729 -0.0002682759845 1.637578961e-15)
(-0.0005866950894 -0.0006371510736 3.719247132e-15)
(-0.00208336339 -0.002379271321 1.394717675e-14)
(-0.001400760799 -0.001531836226 9.36750677e-15)
(-0.008218940026 -0.0106464659 6.537825836e-14)
(-0.009721243176 -0.01314951971 7.734091145e-14)
(-0.01251960218 -0.01805730787 1.063593658e-13)
(-0.01085646603 -0.01499515984 9.22040222e-14)
(-0.01707053903 -0.02952236271 1.823541318e-13)
(-0.01884833048 -0.03403834944 2.012001676e-13)
(-0.01983087793 -0.03913054274 2.314953784e-13)
(-0.01812987203 -0.03427492242 2.11969331e-13)
(-0.01778170265 -0.04689578674 2.905453655e-13)
(-0.01888589996 -0.05184198278 3.073513666e-13)
(-0.01737683987 -0.0548846085 3.253231018e-13)
(-0.01641722264 -0.04981035052 3.084754674e-13)
(-0.01014270706 -0.05579406058 3.446132268e-13)
(-0.01050268981 -0.05990130457 3.541472671e-13)
(-0.007788805155 -0.06054261865 3.575195695e-13)
(-0.007563887892 -0.05676604148 3.501920975e-13)
(0.000623444167 -0.05790636284 3.557570905e-13)
(0.0005600600714 -0.06110839043 3.594347042e-13)
(0.003354338426 -0.0611859663 3.593791931e-13)
(0.003381252853 -0.05791126324 3.552713679e-13)
(0.01138123809 -0.05654173803 3.453487496e-13)
(0.01167298228 -0.06065056717 3.546329896e-13)
(0.01419322363 -0.05973790443 3.488043188e-13)
(0.01373458823 -0.05528771066 3.372024882e-13)
(0.01860561458 -0.04790916351 2.911837438e-13)
(0.01977627663 -0.05307764678 3.084199562e-13)
(0.02069151165 -0.04964460461 2.880473637e-13)
(0.01926325101 -0.0442719479 2.686462164e-13)
(0.0177074375 -0.03092531623 1.875305466e-13)
(0.01951554494 -0.03559821248 2.065431159e-13)
(0.01785460413 -0.03014854842 1.750544154e-13)
(0.01601309225 -0.02588799554 1.571104358e-13)
(0.008697668432 -0.01147478237 6.98885394e-14)
(0.01025330484 -0.01412966219 8.233691506e-14)
(0.00738753158 -0.009585696599 5.592748487e-14)
(0.006052030179 -0.007517704312 4.585221092e-14)
(0.0003991463711 -0.0004213763118 2.581268532e-15)
(0.0006857234283 -0.0007563179929 4.427014311e-15)
(1.74065445e-05 -1.828357174e-05 1.110223025e-16)
(0 0 0)
(0 0 0)
(0 0 0)
(0 0 0)
(0 0 0)
(0 0 0)
(0 0 0)
(0 0 0)
(0 0 0)
(0 0 0)
(0 0 0)
(0 0 0)
(0 0 0)
(0 0 0)
(0 0 0)
(0 0 0)
(0 0 0)
(0 0 0)
(0 0 0)
(0 0 0)
(0 0 0)
(0 0 0)
(0 0 0)
(0 0 0)
(0 0 0)
(0 0 0)
(0 0 0)
(0 0 0)
(0 0 0)
(-2.455711602e-05 -2.945162144e-05 1.387778781e-16)
(-6.70097159e-07 -7.753815245e-07 0)
(0 0 0)
(-0.001841686266 -0.002254914512 1.171285291e-14)
(-0.002324448973 -0.002953057236 1.476596623e-14)
(-0.004821080548 -0.006439426597 3.225197887e-14)
(-0.004113295885 -0.005295221193 2.751965322e-14)
(-0.01333633639 -0.02032395777 1.060679322e-13)
(-0.01451638854 -0.02294768772 1.154215612e-13)
(-0.01761901006 -0.02968804379 1.495331636e-13)
(-0.01669148262 -0.02711626533 1.417338469e-13)
(-0.02299426347 -0.04672107285 2.449568326e-13)
(-0.02395005041 -0.05044136681 2.548100619e-13)
(-0.02454927832 -0.05643947583 2.85216295e-13)
(-0.02368307275 -0.05254506901 2.755989881e-13)
(-0.02125068023 -0.06510417259 3.413103133e-13)
(-0.02171298243 -0.06881805079 3.474581733e-13)
(-0.01949475841 -0.07065362597 3.564787354e-13)
(-0.01920165342 -0.06734996194 3.529537773e-13)
(-0.01105682792 -0.06867676525 0)
(-0.01125073828 -0.07138334089 0)
(-0.009842292106 -0.0714020121 0)
(-0.008356321911 -0.07136176929 0)
(-0.008247869008 -0.07002233742 0)
(-0.008195110334 -0.068713767 0)
(0.0003192037735 -0.06892022974 0)
(0.0002794270131 -0.07022181825 0)
(0.001705401439 -0.07026425439 0)
(0.001737451742 -0.06896255227 0)
(0.01178232602 -0.06937731443 0)
(0.01178403034 -0.0707154097 0)
(0.01179521531 -0.07207452468 0)
(0.01321245466 -0.07215876559 0)
(0.01460988996 -0.07221661136 0)
(0.01463020546 -0.06953022999 0)
(0.02199472126 -0.06679705397 3.436834151e-13)
(0.02231556501 -0.07049517909 3.495259637e-13)
(0.02399471132 -0.06772498104 3.35509398e-13)
(0.02349249028 -0.0637752091 3.278766147e-13)
(0.02368847585 -0.04880776422 2.507855035e-13)
(0.02453243592 -0.05251364915 2.598754545e-13)
(0.02327638869 -0.0461020718 2.282063427e-13)
(0.02222625219 -0.0423803259 2.17853513e-13)
(0.01432012299 -0.02227893122 1.148248163e-13)
(0.01566070571 -0.02529471513 1.255662241e-13)
(0.01233497928 -0.01875577624 9.323097849e-14)
(0.01110961555 -0.01627305341 8.398837181e-14)
(0.00247187968 -0.003075952329 1.59317004e-14)
(0.003089813456 -0.003990464441 1.990074772e-14)
(0.001106831553 -0.001360898496 6.800116026e-15)
(0.0007530643472 -0.0008921990969 4.62130334e-15)
(0 0 0)
(0 0 0)
(0 0 0)
(0 0 0)
(0 0 0)
(0 0 0)
(0 0 0)
(0 0 0)
(0 0 0)
(0 0 0)
(0 0 0)
(0 0 0)
(0 0 0)
(0 0 0)
(0 0 0)
(0 0 0)
(0 0 0)
(0 0 0)
(0 0 0)
(0 0 0)
(0 0 0)
(0 0 0)
(0 0 0)
(0 0 0)
(0 0 0)
(0 0 0)
(0 0 0)
(0 0 0)
(-0.0002212715044 -0.0003027874832 1.276756478e-15)
(-0.0001260965245 -0.0001672122728 7.21644966e-16)
(-0.000103157952 -0.0001324361623 5.967448757e-16)
(-0.003339898111 -0.004706053739 2.121913756e-14)
(-0.0034638822 -0.005040669902 2.199629368e-14)
(-0.006412499039 -0.009808015409 4.285460875e-14)
(-0.00624286541 -0.009246248923 4.173050794e-14)
(-0.01677566654 -0.02937665915 1.331296184e-13)
(-0.01704650273 -0.03081683243 1.351974088e-13)
(-0.02028702781 -0.03906832657 1.71612724e-13)
(-0.01999671806 -0.03730678853 1.692951335e-13)
(-0.02590520381 -0.06028133781 2.741834537e-13)
(-0.02618579197 -0.06285324038 2.766953333e-13)
(-0.02651327605 -0.06937529161 3.054501096e-13)
(-0.02625651683 -0.06662813019 3.031186413e-13)
(-0.02247131458 -0.07825845561 3.55590557e-13)
(-0.02260690111 -0.08107341123 3.564648576e-13)
(-0.02001224761 -0.0818251178 0)
(-0.01992772088 -0.07917503693 3.594347042e-13)
(-0.01158906196 -0.07939890858 0)
(-0.01163780366 -0.08074171562 0)
(-0.01024879597 -0.08077600074 0)
(-0.0102002406 -0.07943530559 0)
(0.01164404296 -0.08006722372 0)
(0.01161141474 -0.08139748241 0)
(0.01299964411 -0.08144529801 0)
(0.01303367429 -0.08011705269 0)
(0.02265250631 -0.08006970696 3.576722252e-13)
(0.0226298367 -0.08289317698 3.585465258e-13)
(0.02487982986 -0.0812837778 3.512606872e-13)
(0.02481130519 -0.07825548284 3.49248408e-13)
(0.02687192716 -0.06407682244 2.857158954e-13)
(0.02717369518 -0.06704374317 2.894351425e-13)
(0.02622817808 -0.0598091034 2.582933867e-13)
(0.02587296775 -0.05703844656 2.544076061e-13)
(0.01837507786 -0.0329738268 1.474931288e-13)
(0.01878467945 -0.03484380591 1.50879309e-13)
(0.01525063224 -0.02661647357 1.153938056e-13)
(0.01486126034 -0.02509543823 1.123823257e-13)
(0.00448295082 -0.006424671406 2.887967643e-14)
(0.005062225329 -0.007497059224 3.261280135e-14)
(0.002414112288 -0.003402862435 1.482147738e-14)
(0.0019873386 -0.002711013982 1.219857548e-14)
(0 0 0)
(0 0 0)
(0 0 0)
(0 0 0)
(0 0 0)
(0 0 0)
(0 0 0)
(0 0 0)
(0 0 0)
(0 0 0)
(0 0 0)
(0 0 0)
(0 0 0)
(0 0 0)
(0 0 0)
(0 0 0)
(0 0 0)
(0 0 0)
(0 0 0)
(0 0 0)
(0 0 0)
(0 0 0)
(0 0 0)
(0 0 0)
(0 0 0)
(0 0 0)
(0 0 0)
(0 0 0)
(-0.0003632326777 -0.0005584078251 2.095545959e-15)
(-0.0003280709536 -0.0004905136879 1.90125693e-15)
(-0.0002878108814 -0.0004181680572 1.665334537e-15)
(-0.004116023082 -0.006560763087 2.613187444e-14)
(-0.004256271266 -0.006981230165 2.702005286e-14)
(-0.007422200422 -0.01279277471 4.957145805e-14)
(-0.007246438926 -0.01213842939 4.840572387e-14)
(-0.01812145826 -0.03584342492 1.434546926e-13)
(-0.01834434664 -0.0373202437 1.451339049e-13)
(-0.02156655998 -0.04670340581 1.818128981e-13)
(-0.02134559701 -0.04495055403 1.801059302e-13)
(-0.02699918977 -0.07069755451 2.838146385e-13)
(-0.02717870617 -0.07312655733 2.85216295e-13)
(-0.02736423159 -0.08015219912 3.126388037e-13)
(-0.02720593238 -0.07757991746 3.114730696e-13)
(-0.0229272108 -0.08925860479 3.578387586e-13)
(-0.02301715886 -0.09193114359 3.58074681e-13)
(-0.0203264871 -0.09236468466 0)
(-0.02024977187 -0.08973630041 0)
(-0.01192517467 -0.08998795246 0)
(-0.01196435204 -0.09130303419 0)
(-0.01057904535 -0.0913447183 0)
(-0.01053968523 -0.09002964214 0)
(0.01135204675 -0.0906791749 0)
(0.01131202436 -0.09200197438 0)
(0.01269704653 -0.09204499121 0)
(0.01273729216 -0.09072286923 0)
(0.0224426782 -0.09101329814 3.593930709e-13)
(0.02236172436 -0.09366323268 3.594347042e-13)
(0.02484967186 -0.09266275172 3.552991235e-13)
(0.02489354779 -0.08991646321 3.547578897e-13)
(0.02792887667 -0.07592329762 2.992328607e-13)
(0.02804083728 -0.07860214755 3.010647287e-13)
(0.02739180946 -0.07087698983 2.715327962e-13)
(0.02722449862 -0.06833804434 2.693956169e-13)
(0.02025376176 -0.04126698585 1.630640067e-13)
(0.02054090175 -0.04310789842 1.655203752e-13)
(0.0170496081 -0.03364165125 1.293132268e-13)
(0.01674815837 -0.03208967496 1.269401251e-13)
(0.005804074994 -0.009424322199 3.741451593e-14)
(0.006039712906 -0.01009555959 3.894107259e-14)
(0.003114625854 -0.004953699767 1.913746939e-14)
(0.002936340802 -0.004536992148 1.802724636e-14)
(0 0 0)
(0 0 0)
(0 0 0)
(0 0 0)
(0 0 0)
(0 0 0)
(0 0 0)
(0 0 0)
(0 0 0)
(0 0 0)
(0 0 0)
(0 0 0)
(0 0 0)
(0 0 0)
(0 0 0)
(0 0 0)
(0 0 0)
(0 0 0)
(0 0 0)
(0 0 0)
(0 0 0)
(0 0 0)
(0 0 0)
(0 0 0)
(0 0 0)
(0 0 0)
(0 0 0)
(0 0 0)
(-0.0005358272011 -0.0009140918828 3.094746681e-15)
(-0.0004830811653 -0.0008037366196 2.789435349e-15)
(-0.0004361192057 -0.0007072325127 2.525757381e-15)
(-0.004605613441 -0.008192318619 2.924049891e-14)
(-0.004747128051 -0.008662906325 3.012867733e-14)
(-0.008031705099 -0.0153968988 5.359601651e-14)
(-0.007857164815 -0.01468301453 5.244416013e-14)
(-0.01889659386 -0.04163079749 1.492139745e-13)
(-0.01911405124 -0.04317931661 1.508237979e-13)
(-0.02233261033 -0.05365848368 1.875999356e-13)
(-0.02211739328 -0.05183572535 1.859762344e-13)
(-0.02764225831 -0.08029753658 2.885608419e-13)
(-0.02781651031 -0.08277290399 2.898653539e-13)
(-0.02793375695 -0.09037077388 3.164968287e-13)
(-0.02778042568 -0.08776482841 3.154143613e-13)
(-0.02327265926 -0.09990063789 3.58532648e-13)
(-0.02335773252 -0.1025606305 3.586853037e-13)
(-0.02062865341 -0.1028562317 0)
(-0.02055355096 -0.1002347492 0)
(-0.01223436785 -0.1004859923 0)
(-0.01227259732 -0.1017959812 0)
(-0.01088916974 -0.1018373032 0)
(-0.01086993131 -0.1011822515 0)
(-0.0108507096 -0.1005277481 0)
(0.01101699151 -0.1012495324 0)
(0.01097310095 -0.1025672142 0)
(0.01235660616 -0.1026079898 0)
(0.01240066647 -0.10129074 0)
(0.0220990632 -0.1015680251 3.594069486e-13)
(0.02200603275 -0.1041785401 3.593375597e-13)
(0.02444991401 -0.1028375336 3.544664562e-13)
(0.02456903586 -0.1003793052 3.54938301e-13)
(0.02774169702 -0.08487385926 2.998434834e-13)
(0.02757913996 -0.08674838839 2.987471381e-13)
(0.02693083264 -0.07808484546 2.689654055e-13)
(0.02709649817 -0.07644512938 2.701172619e-13)
(0.02027665597 -0.04627971553 1.638689184e-13)
(0.02012943327 -0.04717666892 1.628419621e-13)
(0.01666822144 -0.03669932012 1.268013472e-13)
(0.01680202913 -0.03603432455 1.27731159e-13)
(0.005875305169 -0.0106620385 3.791411629e-14)
(0.005798164995 -0.01079823527 3.742839372e-14)
(0.002937636931 -0.005204285499 1.805500194e-14)
(0.002991968818 -0.005165285919 1.838806885e-14)
(0 0 0)
(0 0 0)
(0 0 0)
(0 0 0)
(0 0 0)
(0 0 0)
(0 0 0)
(0 0 0)
(0 0 0)
(0 0 0)
(0 0 0)
(0 0 0)
(0 0 0)
(0 0 0)
(0 0 0)
(0 0 0)
(0 0 0)
(0 0 0)
(0 0 0)
(0 0 0)
(0 0 0)
(0 0 0)
(0 0 0)
(0 0 0)
(0 0 0)
(0 0 0)
(0 0 0)
(0 0 0)
(-0.0007673739573 -0.001438582497 4.440892099e-15)
(-0.0007046478425 -0.001291276866 4.080069615e-15)
(-0.0006439806631 -0.001152939454 3.719247132e-15)
(-0.005189784595 -0.01018795342 3.291811268e-14)
(-0.005345802248 -0.01074015924 3.39173134e-14)
(-0.008762488929 -0.0184865939 5.842548667e-14)
(-0.008573222556 -0.01767485235 5.719036356e-14)
(-0.0197808767 -0.04799303445 1.557504126e-13)
(-0.02001119298 -0.04966199594 1.574435027e-13)
(-0.02321761747 -0.06123268854 1.943029071e-13)
(-0.02299093413 -0.05929190423 1.925820614e-13)
(-0.02834522608 -0.09031800153 2.937927679e-13)
(-0.02852520159 -0.09287715513 2.951250355e-13)
(-0.02855344363 -0.1009505746 3.207850652e-13)
(-0.0283968067 -0.09828039324 3.197025977e-13)
(-0.02360694578 -0.1105324847 3.590877595e-13)
(-0.02368786212 -0.1131846262 3.59184904e-13)
(-0.02092644677 -0.113348339 0)
(-0.0208524553 -0.1107252982 0)
(-0.01253837799 -0.1109760198 0)
(-0.01257585269 -0.1122872512 0)
(-0.01119480269 -0.1123285617 0)
(-0.01117591305 -0.1116729506 0)
(-0.0111569662 -0.1110174633 0)
(0.0106560328 -0.1117755658 0)
(0.01060842116 -0.113091305 0)
(0.01199062894 -0.1131306387 0)
(0.01203853401 -0.1118152743 0)
(0.02167970117 -0.1117995957 3.585048924e-13)
(0.02154349337 -0.1141881313 3.577693697e-13)
(0.02373794989 -0.1115017908 3.491651412e-13)
(0.02396284054 -0.1095857572 3.511912983e-13)
(0.02655123446 -0.09039885081 2.895184092e-13)
(0.02597978312 -0.09070066092 2.838840274e-13)
(0.02526579606 -0.08119013877 2.541578059e-13)
(0.02573615469 -0.08067498237 2.584321646e-13)
(0.01863537573 -0.04709207222 1.511568648e-13)
(0.0181611047 -0.04700437854 1.474376177e-13)
(0.01473601451 -0.03580163449 1.124100812e-13)
(0.01517693725 -0.03600784367 1.156852392e-13)
(0.004738663197 -0.009500598645 3.06143999e-14)
(0.004484144313 -0.009203360419 2.897682094e-14)
(0.00199405001 -0.003892684286 1.226796442e-14)
(0.002164724438 -0.004128192125 1.330879851e-14)
(0 0 0)
(0 0 0)
(0 0 0)
(0 0 0)
(0 0 0)
(0 0 0)
(0 0 0)
(0 0 0)
(0 0 0)
(0 0 0)
(0 0 0)
(0 0 0)
(0 0 0)
(0 0 0)
(0 0 0)
(0 0 0)
(0 0 0)
(0 0 0)
(0 0 0)
(0 0 0)
(0 0 0)
(0 0 0)
(0 0 0)
(0 0 0)
(0 0 0)
(0 0 0)
(0 0 0)
(0 0 0)
(-0.0009699134858 -0.001981797077 5.606626274e-15)
(-0.001003044395 -0.002007153109 5.800915304e-15)
(-0.0009156191171 -0.001793653961 5.301314943e-15)
(-0.005856014655 -0.01257177239 3.713696017e-14)
(-0.00605557091 -0.01327753822 3.839983886e-14)
(-0.009613723776 -0.02212578144 6.403211295e-14)
(-0.009375956444 -0.02113022697 6.247780071e-14)
(-0.02074659928 -0.05492043474 1.628419621e-13)
(-0.02102625326 -0.05681318585 1.648958747e-13)
(-0.02421083125 -0.0694606341 2.017691569e-13)
(-0.02393848229 -0.06730069791 1.997152443e-13)
(-0.02908771049 -0.1007232429 2.992744941e-13)
(-0.0292937993 -0.103434333 3.008149285e-13)
(-0.02921325214 -0.1118737564 3.253647352e-13)
(-0.02903846005 -0.109088156 3.24129612e-13)
(-0.0239238589 -0.1211158886 3.593930709e-13)
(-0.02400039505 -0.1237500112 3.594347042e-13)
(-0.02122030772 -0.1238374565 0)
(-0.02114688306 -0.1212150082 0)
(-0.0128341771 -0.1214647124 0)
(-0.01287049069 -0.1227758573 0)
(-0.01149205079 -0.1228167833 0)
(-0.01147376473 -0.1221609709 0)
(-0.01145543262 -0.1215056477 0)
(0.01026580579 -0.1222756472 0)
(0.0102144883 -0.1235869444 0)
(0.01159624218 -0.1236251667 0)
(0.01164798607 -0.1223138826 0)
(0.02104356792 -0.1207563418 3.540917559e-13)
(0.02082801782 -0.1226127214 3.520239655e-13)
(0.02266186142 -0.1178426254 3.381739333e-13)
(0.02298340107 -0.1166055028 3.417544026e-13)
(0.02437211574 -0.09142104181 2.678829381e-13)
(0.02394506989 -0.09191489627 2.637057239e-13)
(0.02273316913 -0.08016906135 2.300937219e-13)
(0.02346400326 -0.08091322777 2.371436381e-13)
(0.01603820947 -0.04443500151 1.304928388e-13)
(0.01503128424 -0.04254875829 1.223604551e-13)
(0.01166244788 -0.03097066716 8.913703109e-14)
(0.01267221777 -0.03294169175 9.681144775e-14)
(0.003181360231 -0.006981872438 2.056688153e-14)
(0.002778427058 -0.00622920968 1.797173521e-14)
(0.0009025663888 -0.00192488619 5.551115123e-15)
(0.001136019526 -0.002371476473 6.994405055e-15)
(0 0 0)
(0 0 0)
(0 0 0)
(0 0 0)
(0 0 0)
(0 0 0)
(0 0 0)
(0 0 0)
(0 0 0)
(0 0 0)
(0 0 0)
(0 0 0)
(0 0 0)
(0 0 0)
(0 0 0)
(0 0 0)
(0 0 0)
(0 0 0)
(0 0 0)
(0 0 0)
(0 0 0)
(0 0 0)
(0 0 0)
(0 0 0)
(0 0 0)
(0 0 0)
(0 0 0)
(0 0 0)
(-0.001724616573 -0.003813368555 9.964251646e-15)
(-0.001572265266 -0.003410304275 9.089951014e-15)
(-0.001345548015 -0.002862223049 7.771561172e-15)
(-0.006697202706 -0.01560209546 4.243827512e-14)
(-0.007196413613 -0.0170900786 4.558853295e-14)
(-0.01092036328 -0.02720718385 7.26224636e-14)
(-0.01030864003 -0.02519946529 6.859790513e-14)
(-0.02197114741 -0.06295100467 1.718347686e-13)
(-0.02238626472 -0.06534436384 1.749017597e-13)
(-0.02547143395 -0.07887727367 2.112615638e-13)
(-0.02512463328 -0.07638392245 2.086525397e-13)
(-0.02996532703 -0.1118602394 3.058941989e-13)
(-0.03008918821 -0.1143382144 3.065603327e-13)
(-0.02997072272 -0.1233662915 3.307493168e-13)
(-0.02977390501 -0.1204447018 3.293476603e-13)
(-0.02422655852 -0.1316193794 0)
(-0.02430356979 -0.1342414745 0)
(-0.02151930381 -0.134325015 0)
(-0.02148105576 -0.1330144169 0)
(-0.0214431695 -0.1317036859 0)
(-0.01312174327 -0.1319533511 0)
(-0.01313969132 -0.1326080763 0)
(-0.01245028119 -0.1326283012 0)
(-0.01243239963 -0.1319737569 0)
(-0.001165964721 -0.1324734405 0)
(-0.001183516226 -0.1327997185 0)
(-0.001198874177 -0.1331261243 0)
(-0.0005236760536 -0.133139026 0)
(-0.0004897397911 -0.1324868613 0)
(0.009825165209 -0.1327493759 0)
(0.009763902811 -0.1340548823 0)
(0.009702103311 -0.1353600065 0)
(0.01247374594 -0.1354376138 0)
(0.01259386195 -0.1328256129 0)
(0.01121002765 -0.132787632 0)
(0.02004975438 -0.1270857919 3.433642259e-13)
(0.01968253517 -0.1277358699 3.384792446e-13)
(0.02103711544 -0.1201243447 3.182176744e-13)
(0.02160990316 -0.1206474619 3.258504577e-13)
(0.02188300354 -0.08966822956 2.42181275e-13)
(0.02108941625 -0.08822500831 2.337297023e-13)
(0.0195875952 -0.07517230522 1.992295218e-13)
(0.02041714775 -0.07677380177 2.074312944e-13)
(0.01245563073 -0.03750722413 1.015298956e-13)
(0.01170556097 -0.03595349677 9.545142454e-14)
(0.008568810062 -0.02468054153 6.557254739e-14)
(0.009229572417 -0.02606449548 7.059630658e-14)
(0.001313948732 -0.003132106559 8.507083926e-15)
(0.001068139226 -0.002596910209 6.911138328e-15)
(8.469842097e-05 -0.0001959558296 5.273559367e-16)
(0.0001618202132 -0.0003670430847 9.992007222e-16)
(0 0 0)
(0 0 0)
(0 0 0)
(0 0 0)
(0 0 0)
(0 0 0)
(0 0 0)
(0 0 0)
(0 0 0)
(0 0 0)
(0 0 0)
(0 0 0)
(0 0 0)
(0 0 0)
(0 0 0)
(0 0 0)
(0 0 0)
(0 0 0)
(0 0 0)
(0 0 0)
(0 0 0)
(0 0 0)
(0 0 0)
(0 0 0)
(0 0 0)
(0 0 0)
(0 0 0)
(0 0 0)
(-0.001635573943 -0.003910350268 9.492406861e-15)
(-0.001848374459 -0.004340364438 1.072752998e-14)
(-0.001975108367 -0.004554111746 1.146305273e-14)
(-0.007972686375 -0.02012309032 5.070943665e-14)
(-0.007716663128 -0.01983478352 4.908573548e-14)
(-0.01151856497 -0.03105353476 7.691070003e-14)
(-0.01182499521 -0.03130635549 7.896461263e-14)
(-0.02341971953 -0.07258529903 1.83519866e-13)
(-0.0230475828 -0.07271174148 1.804945082e-13)
(-0.02610354391 -0.08732332083 2.169098234e-13)
(-0.02646441379 -0.08698981712 2.200878368e-13)
(-0.03074550954 -0.1239276288 3.138322935e-13)
(-0.03051720281 -0.1250821862 3.10987347e-13)
(-0.03017553505 -0.1339451159 3.329836407e-13)
(-0.03033151757 -0.1324516856 3.35384498e-13)
(-0.02422733526 -0.1421428575 0)
(-0.0243072835 -0.1447652899 0)
(-0.02151526112 -0.1448504083 0)
(-0.02147529629 -0.1435394967 0)
(-0.02143531289 -0.142227976 0)
(-0.0130593676 -0.1424833275 0)
(-0.01309935101 -0.1437948482 0)
(-0.01170340074 -0.1438374055 0)
(-0.01168339975 -0.1431813406 0)
(-0.01166341733 -0.1425258848 0)
(-0.01236139247 -0.1425046061 0)
(-0.001891462866 -0.1428237955 0)
(-0.001911444115 -0.1434792513 0)
(-0.001931444518 -0.1441353163 0)
(-0.0005354513553 -0.1441778749 0)
(-0.0004954679518 -0.1428663542 0)
(0.009276445878 -0.1431642636 0)
(0.009196497642 -0.1457866959 0)
(0.01194861955 -0.1453126409 3.580608032e-13)
(0.01206009497 -0.1431358254 3.591571485e-13)
(0.01861162431 -0.1293948401 3.241851232e-13)
(0.01813787902 -0.1289206321 3.172739849e-13)
(0.01909716511 -0.1189764111 2.927519338e-13)
(0.01966379931 -0.1199539006 3.004818616e-13)
(0.01835255537 -0.08145278321 2.040867475e-13)
(0.01760875549 -0.07966417796 1.960653861e-13)
(0.01572178179 -0.06512769699 1.603439603e-13)
(0.0167969963 -0.06832388372 1.712519015e-13)
(0.008835993338 -0.02871618848 7.210898545e-14)
(0.007701514911 -0.02548020725 6.283862319e-14)
(0.005236232211 -0.01624702461 4.009292898e-14)
(0.005966291878 -0.0181801252 4.567179968e-14)
(0.0002199319563 -0.0005660568423 1.415534356e-15)
(9.934288171e-05 -0.0002604383139 6.383782392e-16)
(0 0 0)
(0 0 0)
(0 0 0)
(0 0 0)
(0 0 0)
(0 0 0)
(0 0 0)
(0 0 0)
(0 0 0)
(0 0 0)
(0 0 0)
(0 0 0)
(0 0 0)
(0 0 0)
(0 0 0)
(0 0 0)
(0 0 0)
(0 0 0)
(0 0 0)
(0 0 0)
(0 0 0)
(0 0 0)
(0 0 0)
(0 0 0)
(0 0 0)
(0 0 0)
(0 0 0)
(0 0 0)
(0 0 0)
(0 0 0)
(-0.0003819699385 -0.0009786870291 2.220446049e-15)
(-0.0006931136213 -0.001746163453 4.024558464e-15)
(-0.001029785376 -0.002550150124 5.981326545e-15)
(-0.005912424271 -0.01603346245 3.762268275e-14)
(-0.005051012102 -0.0139394135 3.215483435e-14)
(-0.008232437813 -0.0238345484 5.501155087e-14)
(-0.009313555932 -0.02649300595 6.220024495e-14)
(-0.02019902448 -0.06721184117 1.581512699e-13)
(-0.01872414023 -0.06342551059 1.466882171e-13)
(-0.0217601004 -0.07812525522 1.80772064e-13)
(-0.02326062244 -0.08203860797 1.931510507e-13)
(-0.0283737994 -0.1223451678 2.883526751e-13)
(-0.02712673178 -0.1190110152 2.75668377e-13)
(-0.0274018072 -0.1300000388 3.011479954e-13)
(-0.02846707849 -0.1327802162 3.129302373e-13)
(-0.02426324649 -0.150993238 3.555628014e-13)
(-0.02391044505 -0.1510644452 3.496924972e-13)
(-0.02163469972 -0.1540318205 3.563954687e-13)
(-0.02174115469 -0.152628474 3.592265374e-13)
(-0.01337919769 -0.1529742751 0)
(-0.0134591645 -0.1555973166 0)
(-0.01066720304 -0.1556824331 0)
(-0.01058723623 -0.1530593916 0)
(-0.01198324742 -0.1530168324 0)
(-0.002211290949 -0.1533147431 0)
(-0.002291257756 -0.1559377846 0)
(0.0005007219749 -0.1560229017 0)
(0.0005806887819 -0.1533998602 0)
(0.008892639346 -0.1522829934 3.56242813e-13)
(0.008705217048 -0.1524696469 3.506916979e-13)
(0.01113226479 -0.1478657453 3.399502901e-13)
(0.01143248941 -0.1488719406 3.480826738e-13)
(0.01659480142 -0.1247700953 2.91433544e-13)
(0.01587855081 -0.121396441 2.788325126e-13)
(0.01628560569 -0.1088593112 2.500361029e-13)
(0.01712594781 -0.1126225963 2.630395901e-13)
(0.0145722433 -0.06941861936 1.622313395e-13)
(0.01354103461 -0.06554358091 1.506295089e-13)
(0.01150891508 -0.05100015836 1.172534292e-13)
(0.01252234151 -0.05461088442 1.276756478e-13)
(0.004930745492 -0.01717486856 4.021782907e-14)