/*--------------------------------*- C++ -*----------------------------------*\
| =========                 |                                                 |
| \\      /  F ield         | OpenFOAM: The Open Source CFD Toolbox           |
|  \\    /   O peration     | Version:  v1912                                 |
|   \\  /    A nd           | Website:  www.openfoam.com                      |
|    \\/     M anipulation  |                                                 |
\*---------------------------------------------------------------------------*/
FoamFile
{
    version     2.0;
    format      ascii;
    class       volScalarField;
    location    "2.6";
    object      omega;
}
// * * * * * * * * * * * * * * * * * * * * * * * * * * * * * * * * * * * * * //

dimensions      [0 0 -1 0 0 0 0];


internalField   nonuniform List<scalar> 
12556
(
31.93043963
31.93124961
31.93214474
31.9330067
31.96656591
31.96705107
31.96735953
31.96790608
31.96899041
31.97105525
31.97451232
31.97924776
31.98357569
31.98591789
31.9852202
31.98158515
31.97703958
31.97258246
31.97040409
31.96829041
31.93501782
31.93365032
31.93252345
31.93148004
31.79311356
31.795493
31.79812667
31.80060275
31.83486328
31.83654135
31.8381262
31.85639979
31.86131856
31.87075952
31.88665871
31.90842792
31.93050621
31.94318731
31.94109097
31.92508754
31.90362315
31.88424897
31.85505758
31.84460281
31.80685073
31.80315425
31.79988312
31.79681389
31.65718214
31.66150898
31.66614015
31.67012973
31.70489256
31.70785562
31.71131349
31.73252068
31.74453002
31.76711157
31.80649008
31.85880008
31.90344818
31.92913283
31.92295674
31.88771126
31.84178733
31.79857407
31.74985719
31.7274478
31.68345193
31.67620979
31.67045472
31.66552401
31.5230593
31.52874605
31.53495844
31.54033849
31.57594369
31.58072707
31.58783083
31.61529785
31.64058725
31.69390042
31.78613522
31.90248636
31.98568794
32.02011185
31.98313333
31.91509494
31.82896567
31.74463591
31.66476615
31.62232491
31.56536622
31.5532398
31.54438422
31.53713459
31.39070428
31.39823426
31.4062212
31.41303717
31.44921015
31.4562149
31.46832652
31.50561927
31.5612402
31.68156207
31.89631888
32.18926003
32.42124225
32.42870568
32.26316621
32.07999091
31.90806413
31.74585908
31.61085746
31.53424167
31.45545275
31.43471639
31.42123494
31.41133322
31.25995159
31.26887182
31.2783196
31.28660188
31.32477234
31.33566688
31.35615861
31.40990806
31.51719929
31.77189114
32.33783808
33.36505852
34.17415724
33.9059277
33.10261026
32.53300007
32.15699025
31.8380313
31.59714061
31.46690297
31.3543617
31.31934619
31.29977075
31.2868226
31.13127918
31.1418149
31.15314994
31.16327689
31.20266361
31.2187931
31.25223359
31.33153692
31.51492265
32.03347542
33.45439174
37.99456792
44.0507556
40.96793945
35.3660526
33.53231381
32.67058546
32.06640138
31.62562695
31.42225572
31.26184565
31.2077277
31.1795499
31.16274271
31.0044551
31.01641868
31.02938026
31.04147699
31.0838566
31.10672533
31.15661842
31.26724151
31.54528206
32.42373282
35.25029891
49.3338907
64.70974557
40.69820343
35.34208833
33.5262272
32.46074659
31.71839275
31.3977157
31.17758172
31.09912209
31.05992245
31.03854648
30.8803009
30.89407885
30.90945349
30.92438692
30.9692483
31.0003837
31.06935218
31.2142233
31.60051198
32.826593
36.67760178
57.73161101
117.8136558
48.7405662
37.89899316
34.66852126
32.98983444
31.86070438
31.39131076
31.10114202
30.99531445
30.94272386
30.91593367
30.75871685
30.77404505
30.79150159
30.80941039
30.85914061
30.89964255
30.98935757
31.1679372
31.65982335
33.15537943
37.55093063
64.75805071
147.1156388
55.90842358
40.6187712
35.97424966
33.58912065
32.02938091
31.39643245
31.03178895
30.89677285
30.82966599
30.79696696
30.64116902
30.65858091
30.67884038
30.70050677
30.75398261
30.80434044
30.91540023
31.1281293
31.72509357
33.44573951
38.34270521
73.14436592
147.9329831
60.2814287
43.07544482
37.23879476
34.16978123
32.19260055
31.4094663
30.96871134
30.80623967
30.72413167
30.68501174
30.52647564
30.54541661
30.56812518
30.59393027
30.6530524
30.71393146
30.84598375
31.09472538
31.79396998
33.72963213
39.32141397
84.12258183
137.5537981
62.30934796
44.96757931
38.27675394
34.63500868
32.32374495
31.42153899
30.91125478
30.72244204
30.62652242
30.5809879
30.41671812
30.43777781
30.46367692
30.49407406
30.55544455
30.62758533
30.78013073
31.06427952
31.86663971
34.02652047
40.65163073
94.67706033
602.7681435
119.1672789
63.03076973
46.20789401
39.08440434
34.95021855
32.40652723
31.42171526
30.85667679
30.64629464
30.53761021
30.48603608
30.30922127
30.33217914
30.361146
30.39584166
30.46334121
30.55071636
30.72805036
31.04760514
31.97386468
34.44543216
42.84532109
145.2187317
379.5005223
111.2382924
63.18508337
47.23897787
39.52202765
35.07825163
32.44151024
31.40613725
30.79964713
30.5734363
30.45403548
30.3971414
30.20582003
30.23072518
30.26264991
30.3011419
30.37211371
30.4711537
30.6640224
31.00154393
31.95260274
34.54253601
45.19951868
504.377967
271.7493743
104.8448229
63.44139635
47.76111835
39.71797057
35.05875907
32.42504838
31.37315032
30.74084417
30.50306666
30.37436513
30.31286142
30.1029754
30.1296943
30.16456029
30.20740743
30.28283084
30.39221419
30.59964577
30.94085757
31.85399766
34.33661024
45.52278675
622.6234706
252.8613317
106.3237735
65.32767553
48.39719864
39.63706353
34.9391491
32.36924408
31.32259618
30.67422839
30.42871723
30.29404647
30.22886147
30.00329317
30.03185612
30.06942567
30.11574135
30.19451133
30.31280458
30.53415557
30.8828015
31.72962328
33.94740039
42.99786477
317.6849321
309.8856882
116.0357888
68.56266873
48.95432019
39.35652658
34.77995241
32.28572003
31.25706282
30.60213166
30.35259681
30.21257798
30.14420246
29.9021598
29.93232458
29.97255765
30.02302323
30.10636551
30.23218911
30.46574232
30.83597223
31.6554553
33.63194631
40.72536297
169.0376601
437.3239257
129.3974253
71.00367673
48.63454328
38.9622267
34.59426845
32.1790856
31.17350831
30.5189415
30.26768723
30.12550066
30.05468365
29.80361779
29.83529559
29.87786487
29.93136899
30.01762923
30.14991649
30.39424801
30.78547757
31.65453287
33.62873365
40.34485383
136.0628854
489.284928
133.4644736
69.92493009
47.72141336
38.58753281
34.39757309
32.05925021
31.07808272
30.42899984
30.17825681
30.03470265
29.96251411
29.70184728
29.73467426
29.77950361
29.83696338
29.92785968
30.06581045
30.31992613
30.73113328
31.65128195
33.79817633
41.90523181
157.8756481
414.6895387
126.07229
67.98087644
46.93512525
38.23944702
34.19966988
31.93134115
30.97364569
30.33033721
30.08039641
29.93623187
29.86333374
29.60302638
29.63680911
29.68340159
29.74331287
29.83658169
29.979816
30.24317925
30.67380234
31.64522235
33.99084261
44.08934702
181.1771796
349.9697467
119.728382
66.41629959
46.27470806
37.91903093
34.00576796
31.79888275
30.86250623
30.22733353
29.97950396
29.83537657
29.76218189
29.49946196
29.53380534
29.58208337
29.645592
29.74365979
29.89190306
30.16435395
30.61431446
31.63895176
34.2175429
47.01496828
198.0867093
301.6715447
114.3434562
65.06648187
45.73771297
37.62801851
33.81857279
31.66435471
30.74652308
30.11706689
29.87055358
29.72674201
29.65375998
29.40028478
29.43499176
29.48434023
29.54939055
29.64891161
29.80211859
30.08373686
30.55337279
31.63498507
34.50083884
50.28486248
212.4212549
265.6772906
109.6762394
63.85991093
45.29974083
37.36937472
33.64010918
31.52963024
30.62720279
30.00547627
29.76146586
29.61836034
29.54579384
29.29468222
29.32943447
29.3799193
29.44816796
29.55263907
29.71065356
30.00168369
30.49177492
31.63679522
34.88685005
53.42657312
224.064462
238.6944218
105.5758987
62.76394175
44.92631802
37.14278664
33.47200719
31.39621658
30.50588711
29.88773405
29.64462008
29.50213451
29.43026491
29.19595264
29.23062238
29.28159547
29.35042687
29.45493745
29.61785814
29.9187245
30.43062748
31.64981144
35.4144696
56.34012699
232.3260014
217.9648095
101.9260211
61.75816655
44.59258905
36.94346455
33.3148563
31.26517206
30.38361737
29.7719637
29.53127844
29.38969654
29.31854875
29.08831271
29.1226921
29.17443785
29.24636453
29.35642476
29.52416619
29.83549389
30.37121764
31.68113323
36.07058009
59.05101944
237.563074
201.6680767
98.63694653
60.82652492
44.28461498
36.76496746
33.16799685
31.13701276
30.26124391
29.64990789
29.40920142
29.26816867
29.19785868
28.99129347
29.02533661
29.0771983
29.14888997
29.2571649
29.43003695
29.75264582
30.3148946
31.73827228
36.80758597
61.5785873
240.5346064
188.3354982
95.64463199
59.95676607
43.99496189
36.60171905
33.03009734
31.01185699
30.13925472
29.53350821
29.29509313
29.15491718
29.08536665
28.88138993
28.9149738
28.96742635
29.04246624
29.1579013
29.33587813
29.67076882
30.26302071
31.82678276
37.58189501
63.91567696
240.808072
176.9972876
92.90338942
59.14044242
43.71959193
36.44960146
32.89964661
30.88955847
30.01808936
29.4086832
29.16911597
29.02927438
28.96051621
28.7876481
28.82079709
28.87318736
28.94731458
29.05840942
29.24205121
29.59040688
30.21712473
31.94827947
38.36591202
66.0587305
238.9475821
167.1242325
90.38044319
58.37124399
43.45591327
36.30567211
32.77524491
30.76987354
29.89782105
29.29451108
29.05726686
28.91814218
28.85004928
28.67470262
28.70733422
28.76023664
28.8381815
28.95960164
29.14887472
29.51207638
30.178705
32.10061351
39.1437759
68.00803476
235.6806292
158.406356
88.04770737
57.64331338
43.20185965
36.16777105
32.6556702
30.65252563
29.7787437
29.1667758
28.92722013
28.78821152
28.72079994
28.58623715
28.61843755
28.67126084
28.74781861
28.86084715
29.05663563
29.43630174
30.14919873
32.27960071
39.90671069
69.77110364
231.4169764
150.6665686
85.88200124
56.95174792
42.95580226
36.03429193
32.53990292
30.53726594
29.66067987
29.05783019
28.82076372
28.68227525
28.61538714
28.46869203
28.50037804
28.55366217
28.63441105
28.76345769
28.96562798
29.36363848
30.12958019
32.48033236
40.64959209
71.36047935
225.9335661
143.7527117
83.86451279
56.29271702
42.71638805
35.9039851
32.42710895
30.42389426
29.54402574
28.92515594
28.68486127
28.54635298
28.48002836
28.38822185
28.41954385
28.47287084
28.5523255
28.66625767
28.87616741
29.29464688
30.12051976
32.69785478
41.36797763
72.79089883
219.6935823
137.5541665
81.97871541
55.66264716
42.48226529
35.77578093
32.31655192
30.31230171
29.4284316
28.8257805
28.58781413
28.44956059
28.38360835
28.26344764
28.29428317
28.34801949
28.43120343
28.57148268
28.78873002
29.22997558
30.12223986
32.92765122
42.05854239
74.07418605
213.0219134
132.010684
80.21362775
55.05818112
42.25200074
35.64873145
32.20764458
30.20261537
29.31482953
28.68326443
28.44226821
28.30397327
28.23848623
28.19461762
28.2252126
28.27918083
28.36281189
28.47749918
28.70408679
29.1705287
30.13456609
33.16622843
42.72058479
75.22502778
206.1552928
127.0482949
78.55966571
54.47534879
42.02389958
35.5219327
32.09986347
30.09551965
29.20321821
28.60094612
28.36027957
28.22194622
28.15667374
28.03587142
28.06598217
28.12062881
28.20832532
28.38901912
28.62380261
29.11804392
30.15695355
33.40967793
43.35020272
76.24814956
199.2634223
122.5837765
77.01345817
53.91366243
41.79759252
35.39512681
31.99304219
29.99302741
29.09693479
28.41747555
28.17370051
28.03512871
27.9702808
57.16399177
137.2204697
72.16456289
63.73726568
175.3490541
142.3888568
72.02746974
174.5141071
176.9213687
82.77599936
158.7909954
172.649749
93.57278321
736.7909319
630.0093941
143.4762886
156.4739193
123.9055256
467.8761871
722.3317749
395.5627365
139.8019195
141.9792731
47.54591124
43.11226541
66.66018643
40.86800365
371.9736385
137.9788004
111.8296605
52.44902368
43.71384887
37.36226704
54.81498262
51.04443623
1210.818037
849.0969717
145.4326774
63.06980561
55.44634007
38.16079006
61.02599385
55.52138138
67.83484698
198.7402959
173.9231967
727.0015395
971.2595532
148.8368668
69.02381156
65.07374066
39.11457929
68.3495411
61.83859121
76.85501439
306.1603156
236.409572
429.7467684
557.3169159
40.36436836
78.52476988
69.33363151
86.45078519
497.6296839
386.6811112
1619.949672
283.020426
329.0838444
42.46132443
100.2556931
80.10782029
103.5441615
1155.959162
738.4469801
154.2398957
358.9965697
460.8316935
132.1654861
161.1170814
85.86428466
127.4463694
825.143455
390.3858845
108.3960338
320.051953
589.494599
170.8533933
150.6536647
60.53747302
200.1652689
218.26083
166.6462889
196.7313498
980.7423028
1213.103093
161.2107663
864.051142
770.5262104
608.8698905
860.3292492
158.9672062
232.8005829
202.8253944
68.85905862
264.9200731
312.7907046
220.568307
261.4634391
580.4883035
712.4530947
177.7100305
553.2056358
443.2447283
763.5991932
571.3738793
178.1953544
381.9307983
309.8205246
78.19607586
385.6068716
496.1047909
315.9638782
381.1493545
338.7009295
415.1704956
726.397942
508.2265525
86.87718145
2410.351305
706.4279438
1107.245191
501.8834946
688.4221314
2817.187271
261.0777923
278.3406335
1431.091718
8533.651965
1167.927564
105.0470924
534.1622465
1839.763618
7678.331582
1117.419747
1805.22224
548.4859063
36.39775153
50.59136646
44.66265207
53.80074342
105.4228325
75.72249799
2034.60405
355.9072196
59.89663038
148.2054111
128.1858614
4667.430376
139.234762
70.99390334
69.87321565
5087.228149
616.336269
683.6987957
480.0910101
232.4872977
252.4545355
124.5935856
108.1088995
54.82281935
1230.10626
180.3494285
427.0569301
116.9614098
284.7828301
100.4167109
698.9531083
886.215982
164.7731093
343.3434418
293.1273821
429.5296471
352.6162621
167.0324566
1008.500598
3912.213586
638.89618
65.28612953
54.03342182
79.46907731
122.0842482
63.26060281
66.87085457
2709.382648
263.5955844
1930.225459
276.9825186
1428.361816
238.1831757
986.3100264
972.7721288
826.6427025
843.5827157
1654.504016
3831.196902
478.0727327
1974.373168
1099.668732
4336.292217
2337.927262
496.6764029
427.1121731
154.2903504
162.482423
518.6145894
587.8063321
4491.078627
805.3454786
210.4182919
225.3633889
192.8020726
204.8578731
801.6062693
1037.673282
1228.981443
142.8749217
746.2389464
572.6627286
1229.010233
749.4667804
146.3037401
106.2275994
299.3829453
147.1694791
495.0109642
325.7432557
112.9846801
450.8419339
729.2740535
585.2550054
556.2456624
203.4152437
1440.850532
204.1065753
179.6644005
1348.587125
1253.687074
1429.550439
1360.766785
183.7951614
1029.307026
1038.284908
808.3652361
291.3158103
283.6362234
293.7935148
292.6696851
803.6507964
724.7214241
258.9773402
237.9827426
279.9168931
265.1709706
739.1804014
286.6917582
289.7851137
237.9766093
240.5015253
613.3337455
4508.796389
624.1678217
419.3034743
426.6950315
347.4235218
351.9129028
1040.385874
769.941731
378.0662277
936.7860823
1536.714299
567.4389355
178.0298606
188.7158527
165.4353766
174.7312031
557.6366868
1102.243015
758.9565134
773.4171783
544.0367535
549.3089395
5330.266402
857.4765573
447.8875357
498.2805717
231.9065326
245.4675861
1463.60039
2961.845183
1188.816571
2062.11771
1162.323802
6095.539288
2337.219161
5177.761324
1158.454175
609.9299897
3500.723818
1495.151531
2413.593603
1566.218379
2123.556891
44.63092354
112.063982
103.6529798
165.7449867
4176.330284
7741.081396
283.584405
128.0173741
136.9805616
802.4206627
2480.609822
3626.844846
396.5388597
432.2306908
806.7953441
214.4507821
226.0558889
467.7648399
121.0527325
87.89271806
166.3215781
292.1609526
109.51243
125.4588551
1138.486848
2655.6592
2785.589596
910.5862201
770.8412706
2108.854287
1560.843193
3514.181264
3498.645909
931.8383869
277.7941978
121.9064603
126.9959018
115.6481616
120.2871214
271.8255737
144.759917
151.8715404
421.9263446
1059.834423
401.6005589
423.1852939
6397.949417
3000.651005
429.2498158
716.2107157
2392.297364
2640.807727
420.1713665
193.1370238
163.5962303
229.516879
203.1879756
438.0876254
1003.6422
3431.389304
3515.41799
1159.726799
219.1229933
109.922303
114.1845398
677.7997279
661.553054
302.5727463
1479.250909
1366.72791
674.9562203
503.1943494
267.7952909
276.8120459
691.4875349
289.4051437
293.3154967
279.9596648
287.2000325
680.1953858
341.5291456
136.3138235
142.5777826
128.7665804
134.3425321
336.7586858
399.0127127
1025.611337
1013.153694
1675.443014
1622.347953
472.8220863
328.1066384
719.7134622
680.5636523
1007.687491
998.1712424
368.4322254
366.6690106
742.9482143
601.0945312
5587.153161
1622.596475
733.0229517
926.1298674
519.3552378
1713.462126
1683.754488
1726.258965
597.2948444
4373.094679
8894.362683
317.368103
373.7205941
431.4353591
451.4343596
1181.637842
1363.111339
891.8591869
495.6803774
1864.184999
7692.359822
1283.812161
1126.103929
16163.19113
1131.096665
1713.79517
1209.241689
1440.437297
1087.319802
4619.614999
4698.508902
1075.527295
1396.111505
5301.071451
1306.521089
1240.278946
274.83111
988.308756
400.8342966
989.6168856
299.0226513
3552.195686
2350.473514
785.8727466
4286.838984
5044.78846
4088.789507
2694.283306
858.5242778
4267.469322
5446.23246
2654.814794
4029.773176
5806.438742
1507.076269
2293.086727
1068.190449
1345.180436
5203.983739
2768.29567
825.967192
521.3641527
1324.893461
905.9909797
472.9024364
304.4383988
812.074411
2938.907202
3732.952211
1084.211158
925.4937633
2818.732714
2944.363229
2300.455713
2187.714351
787.8593782
3889.252668
3799.172621
2761.634763
3789.748685
3757.082918
909.0993378
3635.810071
2365.012764
2461.334051
2807.2152
1493.128064
707.0921747
761.8385153
3158.113299
884.2792795
997.4861794
784.178064
851.8253518
2941.943728
3109.485796
843.7841465
993.0542981
371.1801837
394.1080896
959.2524219
769.3973921
348.9345588
365.4000913
1155.982269
1174.284412
724.6394286
244.8375429
268.2613654
218.800863
238.2343808
715.6867325
809.9637995
309.4771204
342.6494315
276.541652
300.9758523
814.8236867
430.7584983
196.0866664
213.2473284
635.9879156
669.266117
1729.909738
1808.883338
679.60985
2531.611548
2551.005029
3208.843325
1761.930721
1469.80855
2468.812144
1743.918944
474.8915683
1247.556688
1653.615011
1497.286006
462.2049377
528.757887
434.4778655
450.6331933
1453.130322
584.2262083
598.2954775
551.1245607
579.2443993
1313.833599
375.1151663
390.2650053
351.3559708
369.840275
1299.876755
1400.799977
414.7782144
429.0278982
395.2480396
409.8913359
1394.081237
3287.794263
3377.932437
1010.511045
1116.105257
3382.876649
3260.273792
943.6376683
951.539677
912.2477364
941.075059
969.1055926
985.4041957
954.2965717
965.6043439
620.4319762
633.8516566
602.7161278
615.80245
680.80074
865.2438508
640.215442
655.8022334
1294.477293
1506.33675
1037.356364
1206.228231
4753.89524
2365.334712
2574.293593
1605.937426
2263.269961
1042.766938
1032.920476
403.8669588
1701.045427
1707.305567
1661.630633
1689.429912
1758.948043
460.9005423
1582.422464
1102.240098
961.608625
742.3035079
332.5635803
1041.684263
1547.039775
986.7043209
1052.400182
1618.227251
1647.157726
1569.669227
1606.018834
364.295399
995.0626262
982.1854278
5116.081469
1108.665527
4957.7095
4214.779066
4938.591368
1185.062375
5828.458997
1442.211308
5510.074089
4651.95178
741.0313101
833.0483572
1753.154901
1719.427999
524.8094572
579.6391889
1827.337437
1756.6756
5279.586837
1228.977475
465.4874514
515.7696031
5589.323454
6394.708619
1951.121107
6969.271243
4890.716587
1550.667864
1133.370081
6084.650465
3258.268344
6729.887636
3734.181532
1649.922166
60.55918353
41.25641177
36.13312137
5156.658021
5132.23266
130.2836756
70.96937859
71.14446449
5380.185173
823.5753936
2361.997365
1568.402294
285.9769283
241.6681875
150.7628634
250.7300253
184.5807321
355.915519
1261.759157
250.1406424
272.7236798
51.00867808
59.13254131
107.1250368
325.8289545
600.9943398
868.3382996
187.3020116
99.70204358
103.3623705
95.12373212
98.52703813
183.8063223
726.2184436
806.0749689
2640.943502
574.2960456
506.5647506
307.3876697
329.2607558
344.0414737
763.4519637
941.6528283
1199.282033
449.5491411
104.6266003
108.565822
215.0268749
274.3870312
620.0799678
591.2476455
567.8884981
498.6736126
251.525077
639.7133587
309.3629487
324.4231043
4049.384033
3758.800377
2105.550701
1743.473735
1719.393661
1081.87632
3325.800462
5285.262291
4662.7424
1089.369075
641.7303301
707.7232516
1842.83279
1123.913687
1781.291868
1767.031436
1805.055024
2150.883171
4495.226296
3051.196932
3473.813007
5017.606571
1286.637609
1041.719882
623.6849497
1262.209535
153.037435
122.5777121
206.2998387
759.8811956
1996.447448
1419.792418
5618.894337
5978.003948
6094.039385
4954.037044
5782.280751
84.81534552
105.2631723
239.2912351
2221.01487
1460.608709
1133.755113
2874.931407
2275.545023
1809.515287
3406.820895
3086.575386
5007.045144
4713.459233
3290.729935
643.1752878
690.8800083
1376.555726
4495.685035
2258.380514
2528.373193
3850.071296
2159.630174
2564.609844
1084.674166
1462.135213
1208.692152
737.7348407
493.9709383
502.169247
1188.129469
712.7597743
755.0538158
507.7097007
519.6847456
766.3906926
172.202811
191.1871391
403.9605837
515.4184133
933.0111197
661.7535785
1126.033412
1173.963681
730.6090529
1820.900616
1297.830645
1353.978368
867.0263409
870.2310174
1446.991615
1476.229679
1492.377883
1389.105977
1413.809295
1334.901964
805.0798212
810.7449936
773.6454887
781.1236147
1271.055744
1420.925283
853.2351771
858.4356901
816.7706726
822.8169845
1372.213805
638.73128
625.145377
277.4679781
299.442803
657.0911748
643.1151977
465.141291
451.630099
230.3034246
1539.526605
1542.592053
1499.277284
1505.437107
1926.783885
1552.168875
1553.598783
248.6576974
486.7358081
470.5646346
4368.261854
4315.486198
2655.612584
2813.724225
4478.417913
4361.044929
4552.596712
662.5411679
1319.568052
1106.104046
291.8945779
304.6630127
609.570355
537.9252345
278.0052464
288.3106054
1109.652084
1109.299102
755.2916928
776.2995839
1118.878627
1123.33097
5278.188924
1544.518769
999.8815887
986.2230196
12539.56627
2435.706103
1404.948982
4322.068886
3426.502004
1858.213016
1834.330189
1145.623199
5873.144241
6403.571563
6104.74716
4727.223839
1222.047264
1908.132666
1846.363932
2383.261331
868.3470883
1003.400511
5060.397453
4974.632953
3758.673228
3464.61708
1906.254566
1015.044622
999.965045
1163.86557
2908.322687
5054.533894
4259.05046
5108.862394
4876.282125
3351.262479
167.1179414
224.8251306
669.2708175
2872.162548
2798.061954
2956.838563
2930.180823
2717.861875
1785.311265
1767.590804
1805.012813
1788.858693
2728.00268
3559.976968
2007.748862
2020.902695
1931.782028
1986.776208
3622.817639
2497.850421
1619.615095
1465.414932
1753.97715
1706.853043
2566.04846
3423.106887
2048.321491
2060.506083
2033.938132
2039.99301
3466.380406
3042.847342
2980.548767
3111.965966
2987.144595
1023.36372
697.5675549
701.6938366
1659.148515
1038.961239
1043.762644
1009.261668
1031.672234
1646.665504
5220.998414
5452.790638
4693.557604
5303.762668
1737.136967
1752.144837
1705.778996
1721.965322
2216.6125
1023.664673
1670.576036
1603.403795
1702.06085
1051.322024
1055.673594
1046.013209
1049.251277
1694.746931
1638.36101
1683.09332
1137.496274
1572.56275
2186.046983
5637.643217
5224.336399
3837.409488
5507.192669
867.3387978
1236.991904
12918.63303
1182.794806
803.2832716
807.5166707
1866.635341
7297.275553
7537.221271
9190.365119
5659.571978
5173.477845
1798.465817
1785.981586
1125.250034
1765.574344
1850.29902
2623.700208
1823.159485
2421.353622
1817.163899
714.3534676
2573.484368
1812.150882
4670.909092
4880.908009
5243.627805
3798.222154
4436.417668
1262.169964
1603.428881
822.2446108
425.6663515
589.5678849
942.770691
1054.626639
618.0045509
916.5979862
1215.611359
4894.234182
5185.044747
4809.257458
4912.777667
5750.87595
5690.311616
5504.553001
3134.789626
4810.92778
4328.080299
5480.630676
5690.196023
3574.098094
3933.989068
4403.14697
5737.213501
4577.108771
3078.285597
3442.894624
2090.079587
1511.592194
2123.985423
1130.284691
1627.96621
2167.396095
2378.889418
2194.860402
3064.37351
1945.844569
1841.816846
2643.846404
1922.753183
2873.722612
2861.566942
1825.510006
1808.597011
1850.879978
1825.597386
2880.484028
2264.531053
1368.411954
1389.439278
3841.081176
3828.424239
3244.600355
4265.558008
4103.852059
3927.368619
3811.157632
3993.536925
2980.36278
1622.94552
1806.558798
1423.692665
1491.729911
2536.536239
4756.272433
3949.341182
2064.782889
5103.599163
4863.211947
4846.259388
2967.500004
4731.279003
4572.065725
1719.820995
1932.444511
3744.445062
1126.853288
1198.905315
568.5631519
641.5134318
1140.171645
766.4481831
524.7363035
548.7434098
1047.645913
1008.988516
596.1541618
1009.896717
1339.873487
675.0393134
1110.543658
1091.001663
1732.023254
1201.297542
1180.983355
1320.818188
1278.125815
1828.797179
2673.438564
2515.026884
1648.621262
2414.564371
2527.267126
2271.797005
2389.157232
1618.469148
2415.753348
2382.635515
3030.537014
2267.120975
934.1407114
926.7046143
1416.195654
1460.655381
883.9763051
881.1782775
1453.188003
1467.179534
1428.216748
1442.3861
795.5059176
800.6403861
1327.99153
1285.311317
785.984879
790.6489122
840.5383985
845.9945862
1409.146696
1384.689078
829.2070063
834.894401
3341.304773
2088.523579
2099.137136
2066.140293
2075.757243
3338.187636
3257.801166
2298.966416
2646.060572
2122.54683
2173.034464
3263.578026
946.4324993
1541.433365
1529.765017
1557.815193
1550.144616
948.8474312
931.035688
1491.140015
1472.180235
1518.955971
1506.069339
937.5907755
975.0626101
1609.271256
1597.945238
1626.100625
1615.102624
978.0418376
957.5761266
1572.88767
1566.083373
1591.052855
1580.633553
960.8235812
1526.360399
1531.109792
624.7580405
920.882274
917.5350554
928.9103658
926.1509388
629.8755898
1513.510523
1519.022737
1602.406694
1514.581429
702.5986164
990.4542253
1000.241279
1434.902372
1378.975683
783.0292667
643.0128002
937.427603
935.8791637
946.3873382
949.9678129
653.8371325
1566.460337
1558.944013
4340.319429
4196.734978
4566.826286
3022.51372
3588.062348
2430.020499
4107.128847
4163.852907
4094.335779
4104.741029
2488.722139
1785.658087
3446.673534
2899.09608
4035.62981
4178.57494
2056.565664
1047.067382
723.6698942
725.7142157
708.8453996
711.7050724
1033.794091
1701.5689
1716.901796
1668.037606
1686.422072
1658.780789
2116.775723
1513.956455
864.1098855
956.611284
753.4206115
777.1540274
1090.787443
1447.124168
2020.995651
1587.013482
1508.642672
999.7680536
1642.009292
1627.083087
1681.202628
1634.01267
995.8991214
1626.57066
1639.600447
1583.238631
1596.239044
4757.625923
2970.054297
3184.269223
2173.243508
2632.962162
4854.070382
4859.008995
4689.270537
3498.182815
4065.659939
5205.164858
5304.64358
3815.656143
4063.657788
2901.539156
3381.876481
5497.905308
1786.161884
1787.233933
1768.003458
1771.600808
1167.718852
1180.146521
807.4911626
1852.199608
1750.048009
1806.308832
1796.407137
1737.084704
1066.246043
1074.916376
1057.971046
1064.147649
1732.920225
1777.092806
1089.81385
1150.10508
1076.803221
1092.742278
1780.479928
5063.866673
838.4259882
844.7459654
1233.507493
5411.031414
8458.775797
8834.432111
8176.90241
8244.148335
6044.719165
1898.930445
5993.848091
4154.55542
4553.518215
1142.838035
1824.683559
1807.125119
6047.255808
6629.081025
6366.727503
5143.597976
5629.28116
7021.582464
6649.793195
4149.537931
6317.829873
5396.222002
2265.429633
1817.192221
1210.379987
31.76300062
31.7697675
31.85958532
31.77271875
31.78585327
31.86753215
31.79117093
31.81379527
31.881501
31.82245365
31.85535554
31.90193801
31.8651583
31.895854
31.92488059
31.90266919
31.92304393
31.940841
31.92639668
31.92528962
31.94333346
31.92168196
31.90085996
31.93059231
31.89331608
31.86334104
31.90966931
31.85407202
31.82526207
31.88911376
31.64390636
31.65830169
31.74084486
31.66492914
31.69428168
31.76045192
31.70775124
31.76063227
31.79530239
31.78335405
31.85504731
31.84553138
31.87648575
31.93461603
31.89525683
31.95192805
31.97713245
31.92574987
31.97825892
31.96688154
31.92703961
31.95791661
31.91692632
31.89821783
31.90047004
31.84548106
31.85324443
31.82595298
31.77041577
31.807613
31.53254203
31.56284588
31.63248752
31.57812407
31.64562581
31.67708909
31.67772394
31.79760537
31.76045851
31.84888243
32.01515089
31.87318586
32.06100326
32.21734657
31.97310741
32.26114476
32.27772495
32.01996472
32.24908192
32.19427398
31.99628681
32.16498591
32.06640663
31.93402719
32.02833161
31.91310841
31.85170126
31.87538945
31.77011342
31.76251167
31.43219713
31.49287643
31.54235742
31.52400744
31.66474241
31.64434237
31.73474517
32.04484429
31.83198283
32.18011632
32.71813919
32.1019485
32.85166802
33.31549146
32.4032064
33.45537133
33.44474992
32.41763286
33.24392542
32.92991689
32.30470888
32.80235031
32.50668691
32.12428679
32.40794385
32.15145966
31.95063071
32.07351505
31.87209518
31.78288085
31.3495308
31.4563334
31.48122554
31.5125164
31.79975956
31.68540746
31.95213035
32.70403315
32.15684624
33.09272167
35.12845825
33.00342856
35.92694879
41.23901345
34.1008592
41.23044155
39.16518447
33.9635265
37.42837863
35.13205925
33.25669443
34.57025411
33.53284437
32.64324331
33.27615044
32.67699778
32.24074897
32.51497316
32.11666639
31.91446845
31.28306642
31.44675013
31.45161164
31.53910758
32.04497031
31.84875831
32.32948233
33.8713114
32.95147281
34.79415989
43.39021896
36.02465867
40.90443287
46.85182385
39.62949715
57.79132463
55.87674702
43.80675317
46.09416387
41.10235667
38.82555234
38.99317568
35.55867702
33.84874299
34.9215907
33.59242468
32.85022875
33.27635052
32.54739128
32.20090968
31.22677973
31.4526004
31.44561373
31.58615918
32.31803118
32.10536123
32.73270381
35.01642768
34.18657827
35.6866224
37.42569494
36.81279541
51.02295111
57.60073454
55.19113932
84.70823654
61.82316212
52.34213388
46.63444655
38.69262515
36.13597067
37.4150759
34.94868983
33.87135778
34.39627571
33.16130549
32.67983476
31.17887312
31.46961282
31.45632625
31.64410894
32.56825827
32.38471643
33.07798387
35.77701017
35.23564579
36.93038427
39.1395636
38.80697404
58.45363904
68.9307006
67.80983364
133.0066491
84.39802671
76.27857501
54.29430911
42.17413545
39.40070325
40.2303819
36.5022067
35.2489155
35.68114623
33.88284441
33.32982625
31.13712039
31.49404082
31.47534566
31.70678987
32.79242164
32.62657336
33.37383569
36.37352979
35.9271996
37.75774086
40.27972934
39.98387224
65.78893436
85.92924939
83.36496304
149.8872564
96.82189738
93.53282589
59.3294887
45.12051888
42.78291222
42.70487112
38.0382436
36.80622448
36.96258341
34.61476155
34.06719619
31.10018111
31.52467031
31.50256405
31.77391282
33.00952711
32.84841195
33.65723711
36.99838736
36.51140572
38.60512569
41.67812709
41.21854366
74.32311808
102.1446179
98.70845973
144.7950628
98.98714314
99.05579877