/*--------------------------------*- C++ -*----------------------------------*\
| =========                 |                                                 |
| \\      /  F ield         | OpenFOAM: The Open Source CFD Toolbox           |
|  \\    /   O peration     | Version:  v1912                                 |
|   \\  /    A nd           | Website:  www.openfoam.com                      |
|    \\/     M anipulation  |                                                 |
\*---------------------------------------------------------------------------*/
FoamFile
{
    version     2.0;
    format      ascii;
    class       volScalarField;
    location    "1.76";
    object      omega;
}
// * * * * * * * * * * * * * * * * * * * * * * * * * * * * * * * * * * * * * //

dimensions      [0 0 -1 0 0 0 0];


internalField   nonuniform List<scalar> 
12556
(
31.93082544
31.93165291
31.93254836
31.93336208
31.96669212
31.96722366
31.96765649
31.96850003
31.97019079
31.97316851
31.97768113
31.98309255
31.98713756
31.988127
31.98525961
31.98044408
31.97562431
31.97142824
31.96944958
31.9678699
31.93437104
31.93319345
31.93212115
31.93107932
31.79407397
31.79663928
31.79930783
31.80166004
31.83556173
31.83740582
31.83973117
31.85917602
31.86684677
31.88053318
31.90151281
31.92702778
31.947653
31.95343074
31.94249213
31.92043201
31.89706863
31.87860986
31.85053327
31.84228105
31.80526481
31.80169635
31.7984838
31.79557704
31.65908687
31.66352374
31.66805712
31.6717084
31.70618726
31.70975738
31.71506301
31.73915166
31.75744564
31.78950611
31.83816318
31.89509985
31.93845021
31.94964637
31.92715373
31.8788415
31.82834203
31.78619269
31.74017633
31.72210685
31.67969986
31.67339755
31.66782944
31.66287952
31.52548085
31.53143988
31.53752701
31.54259523
31.57807129
31.58438348
31.59530241
31.62893404
31.66681949
31.7350561
31.83736996
31.95706846
32.04381208
32.05615949
31.99371035
31.9005855
31.80370509
31.7215757
31.64633727
31.61179676
31.55903255
31.54834124
31.53989768
31.5329571
31.39405745
31.40164507
31.40934624
31.41590516
31.45253548
31.46260942
31.48179705
31.53088185
31.60753019
31.74733042
31.9848681
32.29773483
32.51988329
32.49628673
32.28653291
32.05716255
31.85815723
31.70314893
31.57849589
31.51491269
31.44415068
31.42700842
31.41478706
31.40522473
31.26376207
31.27272684
31.28193595
31.29040104
31.32981125
31.34606969
31.37959916
31.45240628
31.58750556
31.88076232
32.48191556
33.56973518
34.4887277
34.10620309
33.16881934
32.50300268
32.06088938
31.75242077
31.54023347
31.43486583
31.33680134
31.30830539
31.29103263
31.27867857
31.13559868
31.14618008
31.15730111
31.168097
31.21003625
31.23455161
31.28778996
31.39492059
31.62110881
32.20167229
33.71358545
38.63818783
44.88016971
41.79294848
35.61084265
33.49980752
32.49241147
31.9071797
31.54183924
31.37394703
31.23643241
31.19315366
31.16900074
31.15325839
31.00911246
31.02112719
31.03413828
31.04781116
31.09424028
31.12906312
31.20684609
31.35151042
31.70310661
32.67687057
35.72169809
51.27926495
67.08277771
41.34668714
35.32313861
33.21815638
32.18502706
31.58055536
31.32903447
31.14393248
31.08105193
31.04798999
31.02831006
30.88564439
30.899559
30.91520959
30.93255328
30.98343589
31.03032893
31.13526096
31.31934892
31.80996046
33.15734303
37.33879702
60.40598192
123.5476076
49.91385779
37.88188679
34.20011127
32.56752179
31.66094151
31.29857679
31.05916128
30.97387936
30.93005596
30.9058271
30.7648245
30.7803892
30.79857587
30.82006895
30.87801824
30.93782429
31.07013934
31.29435926
31.91367128
33.5375772
38.28022421
66.93050815
154.2183379
57.46231775
40.55178148
35.29390633
33.00523941
31.76658667
31.28060233
30.9819905
30.87225185
30.81626747
30.7869576
30.64870753
30.66644708
30.68781883
30.71462135
30.77718841
30.8508338
31.00926199
31.27414261
32.00943221
33.84716137
39.0523676
75.60051953
154.6811292
61.90671812
42.78074515
36.30800589
33.4347127
31.87635764
31.2712798
30.91237036
30.7785308
30.70984601
30.67494326
30.53565411
30.55511657
30.57928093
30.61144942
30.68050968
30.76818895
30.9506975
31.25692662
32.09629406
34.12787323
39.93846777
86.12012501
143.421168
63.65574045
44.30387016
37.10343054
33.79239847
31.97136946
31.26432249
30.84948677
30.69158216
30.61052574
30.56989486
30.42793975
30.44966078
30.47754584
30.51554294
30.58694406
30.68845161
30.89265192
31.23956672
32.17523741
34.40376982
41.13098292
96.1671354
631.1377856
123.8540822
63.82631786
45.14066213
37.65364175
34.0455546
32.03839902
31.25355067
30.79050196
30.61248009
30.51939329
30.47312017
30.32261746
30.3463195
30.37763515
30.42048038
30.49936485
30.618744
30.84895896
31.2341736
32.28172093
34.7821614
43.10438733
144.6467796
396.6110068
115.4461621
63.30885738
45.59301374
37.93870356
34.18013078
32.07496832
31.23434614
30.73080971
30.53702519
30.43326347
30.38191037
30.22133265
30.24705271
30.28154299
30.3283581
30.41137111
30.54264286
30.78879216
31.20085581
32.29252409
34.94861145
45.20136474
476.2040221
284.1085447
107.8865762
62.39049539
45.61746644
38.03551679
34.21622096
32.07073969
31.20367902
30.67115385
30.46470608
30.3511561
30.29517709
30.12020599
30.14778968
30.18527717
30.2363478
30.32421575
30.46479311
30.72443075
31.15276875
32.25055865
34.95669404
46.87141469
658.6124849
254.4615262
104.5128956
62.07580354
45.56683944
37.96199204
34.17165399
32.03940643
31.16049021
30.60555094
30.38936058
30.26896906
30.20907396
30.02168357
30.05115304
30.09125456
30.14537729
30.23651781
30.3840177
30.65467617
31.09739432
32.18152823
34.8596267
47.06675715
531.3421065
254.2275992
104.5625214
62.14052232
45.44634643
37.80557252
34.08999739
31.98370836
31.10523557
30.53590836
30.31313786
30.18625818
30.12289128
29.92090755
29.95199764
29.99456264
30.05216792
30.14738194
30.29960811
30.57837805
31.03810488
32.11792742
34.75949943
46.90845456
395.6050657
262.9439836
105.8772774
62.00853941
45.11625535
37.59876505
33.98217111
31.90776181
31.0346915
30.45668746
30.22926388
30.09883616
30.03270804
29.82189411
29.85451904
29.89917767
29.95893873
30.05609982
30.21131183
30.49561384
30.96843331
32.07390921
34.79718638
47.70459322
334.9483158
260.7760165
105.2982778
61.1750223
44.66497356
37.39449242
33.86046941
31.81935397
30.95350622
30.37160597
30.14160883
30.00846561
29.94062668
29.71873478
29.7524983
29.79913609
29.86186052
29.9623905
30.11926717
30.40705334
30.88952969
32.01803527
34.91141421
50.10168292
350.6034486
243.8113932
102.5831477
60.34229308
44.28615601
37.20380334
33.73428144
31.72301633
30.86398256
30.27857322
30.04633556
29.91125895
29.84233219
29.61771997
29.65241939
29.70054818
29.76465929
29.86597541
30.02375393
30.31355091
30.80320585
31.95255975
35.02945923
53.01160968
353.454196
229.2261662
100.31066
59.81303277
43.98645837
37.03170173
33.60951782
31.62194111
30.76821962
30.18171158
29.94856503
29.81220661
29.74257328
29.5111993
29.54638137
29.59586802
29.66246304
29.7669033
29.92507609
30.21597752
30.71114382
31.88088501
35.16007398
55.85222042
344.123962
217.7005313
98.43431724
59.46032011
43.77585238
36.88259614
33.49008623
31.51876351
30.66803508
30.07824691
29.84339254
29.70595273
29.63604669
29.40848171
29.44392708
29.49414448
29.56112167
29.66513788
29.82353979
30.11506516
30.61484759
31.80625312
35.33030774
58.14632395
328.7886076
208.2635629
96.85646912
59.20143596
43.65043728
36.76223224
33.37962432
31.41606086
30.56512327
29.97388328
29.73834814
29.60011848
29.5300913
29.29883817
29.33416505
29.38509077
29.45403493
29.56112082
29.71953796
30.0115284
30.51575152
31.73268363
35.58059647
59.84467976
310.9704809
200.2895814
95.51245848
59.0066004
43.59166294
36.67474817
33.28200557
31.31644984
30.46123004
29.8640297
29.62601133
29.48673846
29.41677725
29.19572644
29.23079401
29.28177212
29.35004166
29.45510044
29.61362774
29.90623961
30.41552272
31.66591344
35.91965995
61.06434576
292.559267
193.3919041
94.36530144
58.86786809
43.58319176
36.62113741
33.20038586
31.22210207
30.35779671
29.75648236
29.51720464
29.37705157
29.30712572
29.0834203
29.11797095
29.16920428
29.2392544
29.34787163
29.50646691
29.8002009
30.31604151
31.61278599
36.30947402
61.90016555
274.479634
187.3865669
93.40087334
58.78539484
43.61504946
36.60077721
33.1362178
31.13405522
30.25581005
29.64333108
29.40011451
29.25858518
29.18871334
28.98160094
29.0155965
29.0664543
29.13499058
29.23967535
29.39875419
29.69445242
30.21919128
31.5788557
36.70421841
62.42623043
257.1997535
182.1457441
92.61022844
58.76351881
43.68601208
36.60949262
33.08855282
31.05197547
30.1555237
29.53598076
29.29091157
29.14828073
29.07836814
28.86674549
28.9000306
28.95092742
29.02151708
29.13143714
29.29112925
29.58991205
30.12659586
31.5666482
37.07549627
62.70942753
241.0583881
177.4952686
91.9747802
58.80002462
43.79298391
36.64308816
33.0538417
30.97434855
30.05680705
29.42082563
29.17046364
29.02615138
28.95617929
28.76815921
28.800788
28.85113481
28.91961614
29.02308767
29.184158
29.48732979
30.03944617
31.57403161
37.41106311
62.80797453
226.2641841
173.2617591
91.45772124
58.89093974
43.92861517
36.69318882
33.02677776
30.89896781
29.95893074
29.31595593
29.0638469
28.91836433
28.84826618
28.65024565
28.68211535
28.73244179
28.80356272
28.91569487
29.07831097
29.38725169
29.95840883
31.59717245
37.70668395
62.76085204
212.777325
169.3543313
91.01289393
59.01749313
44.08050678
36.74978018
33.00154334
30.82354063
29.86132446
29.19801216
28.93984032
28.79261161
28.72238479
28.5572846
28.58853177
28.63834745
28.70704449
28.80872362
28.97394701
29.2900106
29.88363884
31.63070355
37.9619192
62.59737067
200.4362169
165.7574137
90.61131945
59.1619268
44.23522171
36.803383
32.97311989
30.74631898
29.76314133
29.09768135
28.83859737
28.69031225
28.6199309
28.43494087
28.46546268
28.51525968
28.58712365
28.70358918
28.87134217
29.19571386
29.81472453
31.66951941
38.17737269
62.33982904
189.1018859
162.4069232
90.24452699
59.31491411
44.38263082
36.84702881
32.93828779
30.66642914
29.66441285
28.97437045
28.70903758
28.55913043
28.48858992
28.35074871
28.38076555
28.43026765
28.5000036
28.59912812
28.77074388
29.10436551
29.75071014
31.70822679
38.35019044
61.99127571
178.6765648
159.4015119
89.9496141
59.47861059
44.51557375
36.87607816
32.89554717
30.58382983
29.56478828
28.8821309
28.61663039
28.46580428
28.39511365
28.22135525
28.25070615
28.30018469
28.37271776
28.49766545
28.67258444
29.01619683
29.69062859
31.74160275
38.47122812
61.50866656
168.6892895
157.0724563
89.78635538
59.64098247
44.61988112
36.88515251
32.84434548
30.49912246
29.46534433
28.74870842
28.47763195
28.32532381
28.25442928
28.15008679
28.17911073
28.22859828
28.30102573
28.3975317
28.5776784
28.93223396
29.63448912
31.76819487
38.53885928
60.86414986
158.9477881
155.3468798
89.67917363
59.72828486
44.66737523
36.87023932
32.78441858
30.4135008
29.3663462
28.67138756
28.39915839
28.24605254
28.17502056
27.98637524
28.01472623
28.06439944
28.13976337
28.30368816
28.48777552
28.85525302
29.58420628
31.79476583
38.58357266
60.19294592
150.3350607
153.2459733
89.33073331
59.68949042
44.64850443
36.82553677
32.7163008
30.32913845
29.27107444
28.49846102
28.22025685
28.06528566
27.99391905
59.84339281
144.3705278
75.05410996
65.93766413
184.304472
149.8224057
74.49090333
182.7341087
185.8142956
84.83334825
165.7080794
180.6886094
95.09514413
771.0157819
659.6535476
149.3491094
163.2227064
124.1767011
488.4322612
755.8842012
413.4172617
145.3211305
147.7552839
49.29130084
44.09168633
69.03799947
41.6399825
401.8730737
146.3959425
117.1589381
54.01670186
44.65317582
38.08482963
56.68354713
53.17055539
1322.99845
931.2655225
152.4580743
65.25811408
57.15487137
38.88272821
62.77710039
57.32087959
70.15619655
204.0033269
179.8384626
777.8473629
1050.02067
155.6856283
71.48576804
67.30294865
39.76078267
70.15500865
63.61893909
79.16882532
309.1786788
240.626377
453.7573641
591.7269732
40.88153221
80.07874634
71.11620689
88.24330481
496.0086079
387.7227743
1707.402076
297.0953601
346.1792016
42.77610547
101.0014743
81.61311303
104.7297364
1138.029137
731.1309218
150.2276344
374.7456427
481.1008006
140.4886255
169.4673071
90.43701418
135.4930714
905.282101
422.2840877
113.8252396
344.4821716
642.6239837
176.8596676
157.2398128
62.9993089
208.2013451
225.0560441
175.0583386
204.8830081
1060.947457
1325.07396
169.4745874
937.951764
828.4014028
664.0800901
934.5506366
167.1583666
237.1371484
207.9861962
71.24898436
270.5750413
317.1093678
227.3002521
267.1899321
616.9646282
761.8216318
186.3313968
589.304767
470.0158393
820.4431161
609.1400703
186.9448881
383.0986449
312.7407423
80.44655536
387.9987619
495.903497
320.189782
383.6683175
356.3979706
438.0857428
719.3859353
506.338922
88.63834668
2538.3383
701.3207952
1093.339276
501.5179032
683.7527617
2948.015307
273.3850276
292.1126199
1506.592749
8565.43288
1149.281889
106.1633554
557.8806719
1808.885837
7662.522243
1103.186742
1775.753512
572.8585334
37.02448094
52.69485559
46.1334667
56.2458974
111.808559
79.42695639
2268.317135
392.615178
62.45140384
154.8693504
134.6201344
4879.832326
145.2376814
73.39431279
72.26955851
5255.172304
649.0303882
720.5672279
502.068193
242.8618143
264.1659474
131.3498547
114.6371016
57.36544071
1267.555794
193.1538556
458.1791466
123.7493094
306.1652424
105.3431067
736.5217204
935.332995
172.1403982
362.5614318
308.7094101
455.2182539
372.469452
174.5825245
1058.191651
4038.960682
668.0986676
67.0952692
55.7516352
83.47895443
128.8453832
65.69781007
69.38685221
3043.320921
283.914274
2162.763781
301.6628338
1597.286413
256.3131191
1077.842759
1063.292034
888.6393412
907.5430747
1754.767657
4041.353401
505.8866516
2098.92176
1164.267686
4556.556913
2487.728085
526.0085393
427.0444299
156.3078772
164.2444911
545.7769966
618.9393315
4646.545288
795.6666538
210.626954
225.0110792
193.6115943
205.2635832
792.094801
1085.452147
1267.295143
151.6408075
776.6160262
603.2228983
1254.973688
779.2575767
155.0512967
112.6823853
322.6779851
157.6570856
523.7422725
350.2957516
120.052064
483.0301547
769.2700939
639.5817585
607.4055182
210.8401691
1447.047631
211.4453412
188.258658
1364.696974
1278.492355
1437.055151
1375.634346
192.2819889
1117.874396
1128.263582
873.0286632
310.2094566
302.1594688
312.3842806
311.4723411
867.3719469
789.6569342
276.054929
253.591152
298.3011088
282.6237745
805.0233153
291.7523523
294.7586698
244.2560573
246.7149224
653.0833809
4733.838294
664.8175142
420.7652591
427.9924237
350.8817424
355.2516084
1101.083617
813.0225383
398.3610993
989.2324488
1628.454467
563.9017245
179.3097614
189.6607566
167.1141237
176.1158901
554.3680602
1157.460906
752.2399225
766.2876567
542.4217295
547.540737
5491.279294
898.7691373
470.3941209
524.2228436
231.2741857
244.0346391
1433.852995
2906.40998
1272.160666
2206.696018
1145.979646
6218.051586
2485.540857
5295.516681
1142.077047
637.4945067
3632.725315
1609.538496
2722.263055
1650.932955
2243.619251
44.66026634
110.6185461
104.1343272
163.2030854
4205.070059
7801.603017
296.5194064
132.9077546
142.3338181
934.5707897
2617.259868
3793.335016
415.5754735
453.6383815
845.3494006
223.6279245
236.0133587
489.1207839
126.8812903
93.21145904
177.6321566
318.897422
115.5812366
133.8490275
1243.95893
2956.9541
3101.484674
997.4407428
826.5313815
2271.886023
1676.628581
3811.358865
3776.830681
1005.547294
281.4529607
124.9837764
129.8986871
118.9457697
123.4207612
275.5671172
147.0788512
153.965178
422.0015371
1044.578045
398.8008255
419.6193701
6415.661045
3094.619299
448.123916
785.3683707
2661.107667
2942.604317
454.5357846
205.4193722
173.652756
244.5245735
216.2334455
474.3534256
1087.567627
3741.290326
3815.396894
1264.363445
223.833711
113.4267845
117.5350208
678.9938344
663.4271954
307.1810049
1587.847355
1464.365396
720.5046939
534.9128436
283.0675857
293.0716545
739.7728078
307.1930209
311.7441709
296.5727925
304.6963933
727.1877642
343.6241482
138.9055337
144.9664668
131.6087759
136.9984985
338.9662401
401.0268436
1018.012048
1006.132185
1654.153229
1602.27283
473.2050454
332.0271255
719.765602
681.6364792
1000.947205
992.0159575
371.309581
386.1673566
784.2352371
634.557951
5725.713389
1707.642221
727.1691658
915.9219158
518.4667912
1691.362741
1662.312988
1702.890752
594.3931435
4526.736782
8863.638555
314.2931681
367.0806957
427.5197995
446.652086
1161.399041
1462.950138
940.338307
517.5795851
1831.263189
7857.565692
1374.194369
1201.975536
16138.01655
1116.099859
1686.969746
1353.982622
1628.205726
1217.44466
4831.523441
4907.251725
1131.24807
1470.762029
5469.937398
1338.073166
1272.144359
297.5911329
1087.905952
441.9291275
1087.596548
323.4141612
3722.402063
2485.661943
828.7664211
4464.0468
5241.334863
4227.422084
2833.305853
899.5459534
4402.368555
5578.704843
2796.898843
4162.54399
5927.20569
1596.24738
2420.895118
1125.487086
1421.919496
5321.185256
3102.336506
914.3024302
572.4273087
1473.467625
1004.16426
518.1890389
331.6112322
904.0773679
3266.211845
4137.181774
1184.154015
1013.370125
3138.857206
3272.596989
2484.509978
2358.288156
845.3188419
4155.65628
4071.151768
2960.656593
4045.262409
4032.289164
980.2006483
3919.369563
2555.319891
2619.854982
2969.740638
1583.861114
750.0019165
808.7330142
3351.089466
940.4170057
1061.984692
832.7417641
905.3860875
3129.450564
3257.069755
886.0548501
1043.718
369.327292
391.6105849
946.1401414
760.9988223
347.7639132
363.7299594
1201.424113
1218.183817
757.383748
259.2656583
282.1658231
233.2291907
252.7219168
748.7930338
836.9544616
324.0307768
357.3344055
290.4644573
315.5162255
842.3164876
458.6487714
210.0370771
227.6513061
676.2647556
709.9229207
1916.326117
2002.36837
744.9851244
2818.751421
2839.228423
3588.484152
1956.658549
1634.856853
2743.845276
1935.796266
516.226292
1382.078638
1831.626829
1499.327982
473.462798
539.3331196
446.4986934
462.0947987
1457.375226
593.2408385
606.4488505
561.3491936
588.5378145
1333.507887
389.1856332
403.8663321
365.967359
384.0615115
1320.88265
1411.348712
427.537246
441.2532054
408.682554
422.8361218
1405.541593
3613.697851
3692.526639
1095.675242
1215.542343
3761.704332
3589.159907
942.7969775
949.9917777
912.7323523
940.4710773
966.4202579
981.8914371
952.5356094
963.1129181
627.2945977
640.0155223
610.6010076
622.9265775
685.455669
866.7078994
646.0594373
660.9814228
1381.546471
1610.60337
1105.054873
1286.675391
4977.595124
2534.230984
2763.099264
1718.308577
2428.759343
1034.394562
1025.015888
405.7424678
1679.977456
1686.043321
1641.889892
1668.761272
1736.345016
461.5252025
1563.135266
1092.528726
956.9732723
741.9275749
336.3792626
1036.465627
1531.326513
983.0737442
1046.989905
1600.093809
1627.951506
1553.273128
1588.360403
367.2904612
989.1392427
976.999954
5313.790935
1171.948684
5159.918373
4403.725967
5139.336059
1253.486042
5958.8927
1516.892783
5650.986978
4791.421964
734.898658
824.5664468
1729.794929
1697.163857
523.7643449
577.1281417
1802.108474
1733.166982
5436.85856
1207.10018
460.118883
508.4472021
5739.115615
6549.854224
1914.921886
7126.574399
5034.533289
1686.923481
1118.231817
6196.742723
3387.929621
6886.602033
3861.23187
1624.137344
62.53716928
42.03568698
36.48149336
5335.06105
5310.310406
135.5714546
72.92184819
73.38568616
5563.35642
862.7419212
2487.578897
1657.346703
300.9996429
253.3083231
157.1254874
272.9741469
198.4282856
398.3475997
1434.817176
271.2293166
293.1781001
52.40414782
61.12462418
113.457153
351.6045633
660.9211357
960.6541529
192.8515482
103.5584455
107.0995916
99.09748633
102.4099383
189.4484467
761.952065
846.2264545
2770.029167
606.1038903
534.0818382
323.159971
328.6638361
343.0137267
755.2490272
1042.629318
1328.901341
488.0349166
108.3183257
112.118973
219.8549431
279.7941129
623.8670896
595.8553621
572.9278128
504.7573834
257.4679827
634.5845
309.2930802
323.9549256
4186.928383
3901.120872
2218.088154
1718.580292
1694.943428
1068.612501
3466.782718
5438.735131
4814.670302
1144.147273
673.2700755
742.7026494
1811.932616
1109.358745
1755.467856
1741.433217
1775.787224
2408.807474
4706.678963
3196.17494
3628.144709
5182.778967
1355.89473
1096.336248
657.2166901
1296.740525
162.3067336
129.6442856
221.3660287
801.2063325
2109.294476
1497.076351
5739.499663
6095.319925
6205.974553
5078.39731
5902.543266
89.04664305
110.9617056
258.8146764
2492.411013
1632.565114
1264.02447
3199.800968
2542.520843
1920.856872
3586.748525
3262.747183
5214.10824
4920.670512
3476.469365
681.6589506
732.7522137
1459.288809
4714.059531
2409.817062
2700.868152
4003.312935
2279.357438
2698.882461
1133.188407
1519.001685
1249.271427
768.9673935
517.0453372
525.3210137
1215.497257
735.6627658
777.7043433
530.5766636
542.244848
795.0881242
184.8580804
204.9456106
431.3674329
550.5752866
996.012519
709.5149868
1182.539127
1231.328587
771.7372854
1815.990299
1302.031249
1356.760728
879.9731724
882.8338726
1452.561597
1472.864166
1488.110342
1390.790502
1414.416756
1352.306307
823.6784652
828.7711765
795.8763813
802.6925349
1294.531108
1429.289678
867.3290956
872.073259
834.2180311
839.7094059
1385.908352
641.6310789
628.6872146
282.7917783
304.1398958
659.1467051
645.8083308
472.1846028
459.1894293
236.7806894
1531.754439
1534.57734
1494.441817
1500.151366
1909.261363
1543.471052
1544.773268
254.666777
493.062855
477.4088509
4607.951965
4553.401493
2830.024328
3003.076911
4702.080865
4600.085795
4796.971124
706.9263596
1413.010281
1182.750657
292.2766312
304.7094031
605.0344113
535.2216785
278.7574611
288.7857391
1096.520965
1096.241609
748.7000815
769.0598853
1105.36229
1109.784858
5439.320561
1514.095045
981.2651456
967.7573525
12699.58237
2387.486819
1517.485729
4465.764294
3577.418151
1830.00141
1806.826597
1129.896022
5992.448479
6531.630829
6234.154938
4845.393869
1204.196975
1878.523276
1818.483423
2520.086403
911.1069126
1055.154661
5236.080594
5148.166915
3921.732233
3619.452617
2012.236027
1128.771446
1082.870964
1293.552679
3056.187446
5240.616542
4426.246358
5295.764301
5058.377513
3512.865979
178.5196356
247.0113495
756.3707034
3172.754457
3095.213734
3259.590587
3236.483888
3028.151776
1974.779593
1955.519206
1995.175495
1978.212
3037.183704
3852.636549
2174.786717
2190.183079
2090.014201
2150.613208
3919.735677
2780.566943
1790.661438
1618.312256
1940.811491
1888.106302
2856.281173
3728.278109
2223.665644
2237.918599
2205.755557
2213.353849
3771.236494
3349.530178
3283.418606
3430.689976
3281.66506
1015.877505
695.8351939
699.8107131
1638.335158
1029.700814
1034.272552
1000.821118
1022.661768
1626.101757
5370.301183
5603.717033
4839.344917
5451.850748
1713.502906
1728.103867
1682.886186
1698.684452
2184.533873
1011.587861
1647.294945
1581.466988
1680.213256
1041.394913
1045.535158
1036.385068
1039.434178
1673.061132
1616.667475
1660.536407
1125.051401
1552.193266
2154.667697
5802.729953
5380.109782
3970.870143
5660.307042
855.1650099
1215.009878
12972.34479
1162.812879
791.2924575
795.1869499
1834.233355
7464.857081
7710.742597
9229.408654
5793.216889
5328.393282
1772.180364
1759.922087
1110.560398
1737.243047
2072.505231
2932.984581
2039.890425
2717.2974
2042.779088
804.3486062
2860.327329
2039.424263
4883.998637
5090.475633
5412.56798
3956.7987
4598.126283
1296.270056
1631.722023
921.1556043
471.3429705
648.6300749
1024.101061
1135.021156
677.3075085
996.7518607
1319.896917
5085.947819
5372.76133
5000.178729
5044.186943
5872.284743
5813.626244
5637.091552
3269.412505
4941.549499
4452.199629
5606.829061
5812.278292
3706.731976
4064.048691
4526.353397
5854.389978
4700.960189
3216.015334
3572.197183
2339.371048
1689.462508
2381.618376
1255.803954
1815.304875
2416.184451
2660.36547
2458.060508
3402.140205
2146.328007
2031.385345
2921.339024
2119.436915
3189.727119
3183.972047
2016.137682
1998.840746
2042.323741
2015.566301
3204.930313
2443.852136
1473.938955
1497.579474
4106.206272
4097.284467
3473.317832
4533.64638
4361.668423
4185.558741
4099.519962
4295.988643
3219.443834
1753.048068
1953.052806
1535.506538
1610.010648
2741.318376
4956.655664
4149.557753
2194.688511
5307.399541
5067.471091
5048.740472
3147.460879
4940.043512
4777.930856
1831.201591
2059.616729
3961.60364
1174.143116
1240.804308
590.7315651
664.1080177
1168.138683
794.6554451
547.0107448
570.8813704
1111.504229
1073.269589
634.8186264
1089.406602
1423.77913
715.4797546
1171.681627
1152.309948
1917.748859
1326.45312
1304.467647
1457.88609
1410.924596
2025.422385
2980.731411
2796.158959
1832.244031
2683.381784
2806.09681
2529.090633
2656.676671
1799.549328
2685.25691
2638.730673
3372.479118
2516.804249
944.3531816
936.8054315
1420.006976
1464.749953
895.6753938
892.6891921
1451.358012
1464.461719
1428.003583
1441.281398
815.2873733
819.8172626
1346.357365
1307.748435
806.9645797
811.0280972
855.7453676
860.7076302
1418.747568
1397.16562
845.5204811
850.6762059
3660.930409
2271.247373
2283.460664
2245.206206
2256.421046
3653.221924
3597.342773
2504.037745
2888.933246
2309.570331
2365.236785
3597.950889
945.3430858
1529.702317
1518.606959
1545.352075
1538.020384
947.5345223
931.0241743
1481.579188
1463.108141
1508.26049
1495.954617
937.252823
972.0627835
1594.265614
1583.460278
1610.254483
1599.73294
974.8777027
955.5681526
1559.717038
1553.22686
1576.954104
1567.056419
958.6147262
1519.538937
1523.955853
631.388927
924.3390314
921.2747663
931.739323
929.2160553
636.2289296
1507.649463
1512.768489
1591.481167
1505.69244
706.8587293
990.9048016
1000.579344
1426.761634
1372.053563
785.9792419
648.7066282
939.6462154
938.2760856
947.9978491
951.6060464
659.1530641
1556.824895
1549.486319
4570.230067
4429.143554
4788.034992
3218.470589
3810.700241
2607.611907
4356.369572
4415.44159
4347.057482
4355.933346
2668.399889
1912.315015
3669.627997
3092.783383
4276.194129
4419.131663
2204.699396
1038.645653
721.0390402
722.9875795
706.6900262
709.4371183
1025.807819
1680.480745
1695.351808
1648.061419
1665.81859
1638.188503
2087.397971
1496.338559
858.6725999
949.289807
750.0718027
773.3198485
1081.304337
1433.862888
1996.157981
1571.316744
1493.872365
995.6512803
1625.365276
1611.106823
1663.363884
1617.533854
991.8028975
1608.135526
1620.666622
1566.410913
1578.926785
4954.252827
3124.382673
3354.662333
2297.560404
2784.479957
5046.633251
5056.256242
4889.871334
3671.941753
4258.788041
5410.873084
5444.970091
3952.997587
4207.804165
3041.374623
3519.614088
5636.45243
1761.368704
1762.448563
1743.671253
1747.125809
1153.145802
1165.357839
799.5407201
1826.097135
1725.761979
1781.107526
1771.421941
1714.224917
1055.666175
1064.036244
1047.734803
1053.657597
1710.207326
1752.980517
1078.41036
1137.409454
1065.830062
1081.315514
1756.309917
5221.646208
824.8784019
830.7430726
1211.048883
5562.729972
8602.121964
8978.716557
8353.849736
8404.103379
6197.676303
1862.958938
6142.034052
4286.521271
4686.609946
1127.295945
1797.550688
1780.543824
6160.756745
6774.862915
6512.150275
5272.812473
5767.472923
7181.847478
6801.04012
4270.825466
6451.057314
5519.687079
2229.204368
1789.107065
1192.677082
31.76844134
31.77892368
31.86419715
31.78333741
31.80232014
31.87597446
31.80967966
31.83919315
31.89494477
31.84950299
31.88546042
31.91978457
31.89558755
31.92874184
31.94278001
31.93501515
31.94508673
31.95353631
31.94512142
31.9328384
31.94717874
31.92549335
31.89556968
31.92722563
31.8860114
31.8522243
31.90327172
31.84242465
31.8143114
31.88303747
31.65545897
31.67729895
31.75195844
31.68709172
31.72739887
31.78035143
31.74424112
31.80649059
31.82518224
31.82937799
31.90271202
31.88081205
31.92457332
31.98201939
31.93171217
31.99337012
32.0135521
31.95003746
32.00571806
31.98098213
31.93531479
31.96494812
31.9081937
31.89155284
31.8874521
31.8247283
31.84015832
31.80312728
31.74973921
31.79467055
31.55441573
31.59862826
31.6549906
31.61896093
31.701055
31.71519282
31.73602694
31.87161431
31.81010421
31.92584226
32.10892588
31.92504548
32.14922669
32.27873351
32.03073006
32.31101526
32.34754564
32.05344818
32.30328957
32.22833202
32.01098365
32.18246313
32.05144967
31.92466533
32.00558857
31.87336941
31.82780681
31.83334454
31.73141048
31.73936084
31.46990564
31.54966593
31.58335386
31.5867236
31.75283186
31.70510549
31.83198357
32.16459055
31.9162554
32.30804281
32.87812096
32.19919654
33.01039003
33.52295969
32.47622572
33.59068684
33.61497928
32.48812411
33.38992972
33.01862616
32.33379751
32.86054526
32.48220555
32.11345894
32.36853168
32.07506979
31.90441187
31.99223978
31.7906364
31.73682647
31.40763897
31.53991363
31.54359005
31.60803815
31.93722906
31.78469804
32.10355254
32.90057049
32.29338254
33.31125096
35.5223893
33.18148633
36.40138412
42.07540752
34.3414361
42.05555545
39.84865341
34.18237017
37.94160298
35.41023478
33.35366249
34.77130804
33.5101313
32.64528917
33.2118627
32.53348598
32.15595288
32.36034865
31.96266828
31.82017334
31.36171744
31.5689601
31.54341675
31.68197999
32.24871253
32.00287536
32.55512635
34.20168228
33.17832389
35.20473168
44.71528273
36.51179718
41.88801089
48.16010616
40.40869168
59.66253244
57.66937886
44.78154398
47.21335641
41.88748636
39.43639758
39.53832332
35.58213458
33.87974403
34.83735328
33.34410773
32.6936315
33.00617823
32.28071332
32.02631212
31.32655974
31.62131219
31.5784931
31.78291791
32.59907883
32.33297417
33.04583963
35.50160723
34.56200644
36.21568038
38.14601391
37.45702164
53.16285881
60.13289791
57.45059918
88.40102439
63.97879758
53.90538642
47.7109374
38.77476659
36.23844764
37.29143664
34.53044475
33.60223901
33.9474274
32.74094594
32.38216518
31.30010781
31.68221888
31.63654467
31.88817683
32.90562516
32.68178511
33.45095842
36.346105
35.74852347
37.61931258
40.06930385
39.70172572
61.11120479
72.20406607
71.08981115
139.5116501
87.82949621
79.27036083
55.82246044
42.27548154
39.58715906
40.02898604
35.88903355
34.83833919
35.03133542
33.2863493
32.87009224
31.27878522
31.74138292
31.69758846
31.98541771
33.15945065
32.97338235
33.77375883
36.9583902
36.50536795
38.49015714
41.23889906
40.94895395
67.95950222
89.5231646
86.9243329
156.9669298
100.8084601
97.40949194
61.0493441
45.14287054
42.98869486
42.36250811
37.17699245
36.19850558
36.07804417
33.83775185
33.42572345
31.25998497
31.79613624
31.75650515
32.07417628
33.38478522
33.21803789
34.0596773
37.55159802
37.09235718
39.29743394
42.51106189
42.09990324
76.74568678
105.0376003
101.7342301
151.2498598