/*--------------------------------*- C++ -*----------------------------------*\
| =========                 |                                                 |
| \\      /  F ield         | OpenFOAM: The Open Source CFD Toolbox           |
|  \\    /   O peration     | Version:  v1912                                 |
|   \\  /    A nd           | Website:  www.openfoam.com                      |
|    \\/     M anipulation  |                                                 |
\*---------------------------------------------------------------------------*/
FoamFile
{
    version     2.0;
    format      ascii;
    class       surfaceVectorField;
    location    "1.76";
    object      Uf;
}
// * * * * * * * * * * * * * * * * * * * * * * * * * * * * * * * * * * * * * //

dimensions      [0 1 -1 0 0 0 0];


internalField   nonuniform List<vector> 
25162
(
(99.99891533 0.004418629117 -1.897255236e-21)
(99.99586191 0.003893897203 5.621637813e-21)
(99.99826571 0.01097840964 -1.873603655e-21)
(99.9938596 0.01357255869 1.897245105e-21)
(99.99700084 0.0222649701 -3.737231544e-21)
(99.98943724 0.02975975084 1.127939486e-20)
(99.99855713 0.02605129519 1.158950087e-21)
(99.98151257 0.05682911076 -7.425957026e-21)
(99.99183862 0.05799822305 -1.242417653e-21)
(99.99752501 0.04764934113 1.801160906e-21)
(99.99921305 0.0286933464 8.921567026e-22)
(99.99041342 0.08101070253 1.79087487e-21)
(99.99779329 0.0462835789 8.762131621e-22)
(99.99836796 0.03603076109 -9.030990836e-22)
(99.99725127 0.05918379815 8.761773749e-22)
(99.98501058 0.1333098847 1.744348492e-21)
(99.99696971 0.07521335872 0)
(99.99677518 0.09297762616 -3.205138419e-21)
(99.98015771 0.2056622639 -3.205121738e-21)
(99.99630052 0.1142021173 -8.329887564e-22)
(99.99575411 0.1388522834 2.793475208e-21)
(99.97376105 0.3041127523 3.049497054e-21)
(99.99522813 0.1669445408 3.761642188e-22)
(99.9947798 0.198180263 -2.496569326e-21)
(99.96843395 0.4287392223 3.572778226e-22)
(99.99445891 0.2319609026 -2.554106901e-21)
(99.99434083 0.2673025989 2.648152739e-22)
(99.96701286 0.5692516155 -1.697744239e-21)
(99.99452162 0.3026021106 2.263636767e-21)
(99.99506426 0.3359238954 1.935165791e-21)
(99.97288335 0.7016934894 -8.525765819e-22)
(99.99596419 0.3650024125 0)
(99.9971905 0.3876009125 0)
(99.98695657 0.790921292 1.822161029e-22)
(99.99867571 0.401587307 0)
(100.0003468 0.4059835267 4.324939311e-22)
(100.0052797 0.8082758474 -6.965064079e-24)
(100.0019482 0.4003682641 9.660791569e-22)
(100.0032311 0.3857220955 -1.998081362e-22)
(100.0206807 0.7515143732 -6.025480948e-22)
(100.004215 0.3635968392 -1.073920469e-21)
(100.0049089 0.3360234199 8.838985313e-23)
(100.0290781 0.6420649841 1.750120578e-21)
(100.0052881 0.3049408253 4.482725111e-22)
(100.0053652 0.272251835 0)
(100.0304648 0.5121403639 0)
(100.0052157 0.2396798131 0)
(100.0050513 0.208371299 7.589000731e-22)
(100.0269841 0.3879562716 1.575135761e-21)
(100.0051909 0.1795256208 -3.844903297e-21)
(100.0050684 0.1514896482 -1.430680864e-21)
(100.0229576 0.2774996647 3.12269245e-21)
(100.0043929 0.1269539798 3.12245943e-21)
(100.0032929 0.1061811459 -8.830829023e-22)
(100.0139327 0.1924651924 -5.234988827e-23)
(100.0008695 0.09129757706 1.71830616e-21)
(100.0089275 0.08960079667 -7.698877499e-21)
(100.0506898 0.2198711228 4.932660779e-22)
(100.0179224 0.196352247 -2.747081053e-21)
(100.0029619 0.09104672403 -1.607538052e-21)
(100.0063516 0.05228429799 -9.698606453e-22)
(100.034899 0.1359105747 1.536985912e-20)
(100.0053224 0.02465198149 -7.794335961e-21)
(100.025963 0.07293615437 -1.638869456e-20)
(100.023232 0.02308590057 1.445883818e-21)
(99.99001014 0.01205430021 9.386677339e-21)
(99.98453338 0.006017004884 2.328906245e-22)
(99.98368852 0.03030244475 1.499531129e-20)
(99.97675703 0.02166563511 -1.312520125e-20)
(99.97187983 0.06162727283 7.792458311e-21)
(99.96012403 0.04923798332 -2.036964116e-20)
(99.96538958 0.1017911586 -1.323831879e-21)
(99.93197664 0.0964087802 3.918421298e-20)
(99.94111635 0.1274299814 -8.633229433e-21)
(99.94822258 0.1312246151 -1.851274145e-21)
(99.96033326 0.1313151888 3.647539772e-21)
(99.97585041 0.09289238053 1.81379396e-21)
(99.96130102 0.1579032579 1.772439093e-21)
(99.94875946 0.1717277287 1.802901034e-21)
(99.91385513 0.2270865147 -3.642031906e-21)
(99.93568755 0.2224488762 -1.865055339e-23)
(99.93969745 0.2590668871 1.744622245e-21)
(99.92014492 0.2852280661 -1.591812192e-23)
(99.86893202 0.3730759478 0)
(99.9118545 0.3365897087 0)
(99.88793984 0.3851977774 -2.173852631e-21)
(99.91636684 0.3917112245 -4.276072526e-21)
(99.90585439 0.4119033746 -5.132469231e-23)
(99.87890551 0.4763811516 -9.618276004e-21)
(99.89785171 0.4519050792 -3.306361885e-21)
(99.87126435 0.6169308916 2.883120464e-23)
(99.88819046 0.5834943229 -2.177509847e-21)
(99.83624546 0.7137091545 -1.191824667e-20)
(99.86397274 0.6724077291 -2.903397003e-21)
(99.84033311 0.8851767827 -5.45068039e-21)
(99.86419336 0.8300775294 -5.133582071e-21)
(99.79915838 1.021218268 5.114373375e-22)
(99.83573073 0.9546265261 -6.539668823e-21)
(99.82573195 1.200366633 -5.708545022e-23)
(99.85712451 1.114100319 -4.283495019e-21)
(99.78433507 1.379570719 7.43920855e-23)
(99.82804205 1.278088219 -3.218486581e-21)
(99.84571785 1.515874327 -3.781101123e-21)
(99.88126189 1.389298042 -5.395510361e-21)
(99.81364423 1.732438258 -1.383390964e-21)
(99.85881582 1.588007819 -2.912607944e-21)
(99.91109771 1.75203065 4.882728719e-23)
(99.94381991 1.582501787 -4.153044631e-22)
(99.89967278 1.98382517 5.635455834e-21)
(99.93420481 1.799109122 4.717831458e-23)
(100.00278 1.830941003 9.490348157e-23)
(100.0227568 1.629948148 -2.823439157e-22)
(100.0123521 2.050204778 1.934704712e-21)
(100.0248671 1.841850342 -6.636108984e-22)
(100.0895457 1.74631247 -2.395524506e-22)
(100.0767272 1.526470607 -2.206468364e-22)
(100.1129488 1.924632529 -8.587397258e-23)
(100.106474 1.707350268 1.965093395e-21)
(100.1452697 1.520729835 2.298909429e-21)
(100.10803 1.309199702 3.992009504e-21)
(100.1732476 1.652383803 3.998680098e-21)
(100.1515767 1.450810788 5.310073168e-22)
(100.1612143 1.22870893 -6.524562422e-21)
(100.1130712 1.045619694 -6.087100424e-21)
(100.1866871 1.318178431 -2.196415204e-21)
(100.1589303 1.149848768 -2.168172783e-21)
(100.1469056 0.9404887117 -5.21000523e-21)
(100.0968338 0.7938069776 4.786463322e-22)
(100.1635108 0.9963313543 -1.399596479e-21)
(100.1396245 0.8691051039 5.706268301e-21)
(100.0925776 0.5501120533 -1.329141272e-20)
(100.1472869 0.7487058605 -1.329038001e-20)
(100.2076184 0.8120853743 1.344885939e-20)
(100.1282062 0.6255900581 -2.724605006e-20)
(100.109116 0.519009299 1.180045329e-20)
(100.1518168 0.5552314072 -1.676594365e-20)
(100.0894684 0.4285049572 2.388105965e-20)
(100.0671445 0.3783025339 2.654003484e-20)
(100.0846461 0.2614497728 2.283400468e-20)
(100.1919735 0.411779648 -2.106259421e-22)
(100.1459517 0.4600012269 4.779279726e-20)
(100.0859811 0.3636867089 2.602302708e-21)
(100.061435 0.153178661 -7.150560435e-22)
(100.1364952 0.2531927093 3.27947734e-20)
(100.0496736 0.07055275011 -7.627149442e-21)
(100.1038617 0.1360136859 -1.73886056e-20)
(100.0897808 0.04292388633 7.791268425e-21)
(99.97361562 0.01454196207 -2.253027913e-20)
(99.97080821 0.004796333319 -1.126039943e-20)
(99.9562004 0.0384087304 -4.879693278e-20)
(99.95429179 0.01930067227 1.055882359e-20)
(99.92454657 0.0818166441 1.048011029e-20)
(99.91939989 0.04988013278 -4.130955623e-20)
(99.89008083 0.1488564667 2.49468374e-20)
(99.86259175 0.1052207388 4.492224037e-20)
(99.85308123 0.1632622269 -4.055951703e-20)
(99.90560683 0.1620296403 -7.402300357e-21)
(99.85426786 0.1814524039 -5.496954322e-20)
(99.86697539 0.2037812763 -3.710363449e-21)
(99.84976811 0.2848175359 -7.265172182e-21)
(99.83255618 0.2721682655 -3.621906343e-21)
(99.7708351 0.3276908274 2.538949738e-20)
(99.79194398 0.3567130065 7.157618426e-21)
(99.77277946 0.4732401487 -6.294253769e-21)
(99.74439565 0.4609133123 4.630273121e-21)
(99.65321154 0.5542840014 -3.581039506e-20)
(99.71483597 0.5687378576 2.520637196e-21)
(99.66874737 0.6088410856 -1.559559561e-20)
(99.69773396 0.7164480319 -6.464032618e-21)
(99.67500724 0.712588687 0)
(99.61924227 0.7858894373 6.678017736e-21)
(99.64681519 0.7964905267 -6.445438254e-21)
(99.59019902 1.093082307 3.158664154e-21)
(99.55582228 1.096506629 1.238810135e-20)
(99.48223109 1.207509415 6.141661898e-21)
(99.52521763 1.211941522 1.539611661e-20)
(99.4902615 1.592536327 3.810433738e-20)
(99.43981467 1.612044569 4.956198091e-20)
(99.35182074 1.774192273 3.817313482e-20)
(99.41608624 1.760792063 -8.850724475e-20)
(99.44340011 2.199758149 1.370650547e-19)
(99.37430279 2.253090622 1.268834562e-19)
(99.28951481 2.474985372 1.512807601e-19)
(99.37612957 2.422052828 1.401857336e-21)
(99.52017249 2.812648721 1.034385071e-19)
(99.44057568 2.921814225 -4.407972331e-19)
(99.38543063 3.193398755 -2.206942375e-19)
(99.48362477 3.072973539 2.250131331e-21)
(99.7485091 3.262494982 -1.594467268e-21)
(99.6764657 3.444580269 -1.598492256e-21)
(99.68901005 3.721323896 -1.1825966e-19)
(99.75558591 3.516456812 -2.7050873e-21)
(100.0480617 3.379194205 1.58947186e-21)
(100.0173618 3.614724643 -2.218691569e-23)
(100.0733859 3.854192197 -4.255921778e-20)
(100.1044889 3.595645508 -1.873440862e-22)
(100.318526 3.150210419 1.411563196e-19)
(100.3342476 3.408192016 7.604258169e-20)
(100.4197748 3.576775727 1.396075182e-19)
(100.3956746 3.304884499 6.330880712e-20)
(100.4747956 2.677367277 2.792853484e-21)
(100.5267538 2.921592317 4.296686501e-21)
(100.6128606 3.022688908 -4.135755425e-20)
(100.5521943 2.77411357 5.956717149e-21)
(100.5070351 2.110336611 -6.058143735e-21)
(100.5780789 2.318592315 -1.407280697e-20)
(100.6514019 2.370145814 -4.913692707e-21)
(100.5717025 2.164241995 5.494508385e-21)
(100.5245207 1.728645819 -1.738699088e-20)
(100.4535391 1.566675493 -1.173137983e-20)
(100.5800946 1.748049335 -1.174720007e-20)
(100.5054856 1.593160848 6.285554103e-21)
(100.3670611 1.058015506 -5.259150451e-20)
(100.4889975 1.291916533 -2.705790809e-20)
(100.5730202 1.282881016 -7.965384346e-20)
(100.4279569 1.07271345 -3.737288681e-20)
(100.272431 0.7186765301 -6.050160504e-20)
(100.3688044 0.8835041179 2.394659002e-20)
(100.4241096 0.8627554694 -2.871239126e-20)
(100.3127779 0.7220225892 -2.511834357e-20)
(100.2364082 0.3997910133 1.024313703e-20)
(100.4065384 0.5494120646 -2.600411567e-20)
(100.3785155 0.662086624 -1.707209082e-22)
(100.2822464 0.5947828053 -1.488481516e-20)
(100.1734859 0.2329016008 1.535989121e-20)
(100.2935126 0.3345879892 2.735482447e-20)
(100.1393934 0.106854829 -1.957775745e-21)
(100.2227812 0.1787012087 -3.955788696e-21)
(100.1905545 0.05602980474 0)
(99.95572537 0.0087574663 2.261946601e-20)
(99.96256388 -0.0009816460263 -3.772672821e-21)
(99.92284509 0.02896407165 1.901987716e-20)
(99.93527523 0.002559094525 2.641478777e-20)
(99.86384894 0.07296714529 -7.562778755e-21)
(99.87798945 0.02488068719 -3.746034867e-21)
(99.78739256 0.1606811179 0)
(99.78378973 0.07422459496 5.761588298e-21)
(99.74553483 0.1531341242 1.753711484e-20)
(99.79730643 0.1891060545 -5.131207689e-20)
(99.73471816 0.1828454161 1.318509435e-20)
(99.73685796 0.2273199261 0)
(99.67988364 0.3525529652 2.604408598e-22)
(99.66934897 0.312179948 -2.916722897e-20)
(99.57977378 0.3569085893 -2.914760736e-20)
(99.58868006 0.4193184165 5.914187593e-20)
(99.51480865 0.6104139372 -8.794994296e-20)
(99.49358578 0.5531527687 3.163043473e-20)
(99.36131837 0.6344353342 -5.879314451e-20)
(99.41352221 0.7135138818 -2.926092151e-20)
(99.35105604 0.7247597344 -4.807498593e-20)
(99.33425532 0.9488089036 6.951126813e-21)
(99.31155787 0.9136148768 1.382020286e-20)
(99.22458088 0.9852795579 3.491311941e-20)
(99.24890839 1.030881943 6.893739223e-21)
(99.08148826 1.49719907 -1.643661562e-21)
(99.04195284 1.456050842 2.039557053e-20)
(98.92293623 1.573106435 0)
(98.96828677 1.62702346 -2.031445168e-19)
(98.82111034 2.283803149 4.037777191e-19)
(98.75123276 2.245901528 -2.616795204e-20)
(98.60643152 2.43438124 1.688909263e-19)
(98.68960526 2.485092761 5.308768868e-19)
(98.68061684 3.308558584 -3.34508856e-19)
(98.56672954 3.301866708 -3.386487831e-19)
(98.41815706 3.590010263 -3.424606612e-19)
(98.55776031 3.600408365 -3.015209919e-19)
(98.83688849 4.434369656 2.006180948e-20)
(98.6818044 4.509959483 -2.774113889e-19)
(98.59541008 4.889485268 7.333373411e-23)
(98.78288221 4.793481934 3.862338496e-19)
(99.45943236 5.267571982 -1.507405925e-20)
(99.26134826 5.471359406 -1.745181001e-20)
(99.361716 5.860883698 -6.474555526e-20)
(99.47399284 5.608231115 -2.689774725e-19)
(100.2224055 5.429203889 0)
(100.1517314 5.732403532 -2.370980885e-20)
(100.3099042 6.019540042 0)
(100.3649655 5.67291681 -2.574576409e-21)
(100.8653125 4.929323212 -1.337794294e-21)
(100.8918763 5.25760442 0)
(101.0773484 5.40799956 1.770216975e-21)
(101.0210956 5.059419669 -1.704614228e-21)
(101.1753689 4.068029304 -1.509700357e-19)
(101.2667592 4.365699187 -1.460054608e-19)
(101.4234765 4.414930185 -4.703423449e-19)
(101.3056434 4.115900243 1.659577967e-20)
(101.2018152 3.112132111 1.29985919e-19)
(101.3200987 3.356709942 8.138274606e-20)
(101.4332352 3.342133823 -6.946239168e-21)
(101.2971794 3.108578941 2.948217157e-19)
(101.1794995 2.43292151 0)
(101.062027 2.251449309 4.672331945e-20)
(101.2547007 2.399805005 0)
(101.126793 2.228083511 0)
(100.8230124 1.47853346 2.919059012e-20)
(101.0274461 1.73351718 1.880788331e-20)
(101.1147619 1.636037584 -1.687898505e-20)
(100.8923448 1.422449882 3.662640791e-20)
(100.6075973 0.9824087176 -3.353748842e-20)
(100.7661265 1.157561389 -1.497835287e-20)
(100.8182032 1.073473136 -1.512536909e-20)
(100.6515945 0.9331014173 -7.285959648e-21)
(100.4502428 0.4808278494 -9.25064055e-21)
(100.6763539 0.6067602779 -1.961843741e-20)
(100.6992399 0.7849063307 -2.589998156e-21)
(100.5728757 0.7504720587 5.243533994e-21)
(100.3308829 0.2775152976 7.879800916e-21)
(100.4852024 0.3646668713 1.198988311e-20)
(100.2640119 0.1262309329 -1.997659473e-21)
(100.365463 0.1915444552 -3.530808146e-21)
(100.3096009 0.05943684055 -5.084630233e-22)
(99.94670578 -0.007463594299 0)
(99.9696198 -0.01192727037 0)
(99.89616353 -0.002604204624 3.806183817e-21)
(99.93075142 -0.03047007067 0)
(99.80534025 0.02723735657 9.620625537e-21)
(99.84994826 -0.0297333679 -3.249954682e-21)
(99.67777656 0.1151517557 1.656522944e-20)
(99.71521928 -0.001711977936 2.126203455e-20)
(99.63761441 0.08531352973 -6.397065889e-21)
(99.67461045 0.1615556689 2.270586318e-20)
(99.60892654 0.1244942876 1.841926122e-21)
(99.59232963 0.1852653181 -9.130948962e-21)
(99.4748351 0.3384385164 0)
(99.48246472 0.2734992076 -1.901436629e-20)
(99.3691862 0.2953404936 -1.559299842e-20)
(99.35110575 0.3863762505 3.876915985e-21)
(99.19554016 0.6229467326 0)
(99.19581152 0.5309231837 3.876500909e-21)
(99.02498556 0.5756967056 -3.993822362e-21)
(99.04303745 0.7208790477 1.940634987e-20)
(98.97428686 0.7049485872 5.000286534e-21)
(98.86395024 1.022541017 7.87054636e-20)
(98.85453335 0.9540635317 -1.437839086e-19)
(98.73499192 1.009983804 -9.85044288e-20)
(98.74313692 1.091254496 -2.005229815e-19)
(98.37873192 1.721230579 -1.353849925e-19)
(98.35208268 1.625705972 4.491740111e-22)
(98.18104055 1.732103554 -2.893749946e-20)
(98.20880188 1.849529782 1.335501927e-19)
(97.83064013 2.804259732 5.052541468e-20)
(97.76006377 2.687606337 -5.453894832e-20)
(97.52525496 2.889810055 -3.795612608e-19)
(97.60956552 3.035297021 1.118854902e-21)
(97.39994721 4.415383758 3.870000836e-19)
(97.23874408 4.305608136 -2.527155259e-20)
(96.96821636 4.667261372 0)
(97.17356254 4.800476152 0)
(97.60590213 6.408685064 5.911094377e-19)
(97.31750694 6.411228945 -3.986530002e-20)
(97.14950893 6.96804499 6.422872197e-19)
(97.51620997 6.943690401 -7.744571507e-21)
(98.94245087 7.975979757 1.608464948e-20)
(98.60913596 8.225089808 1.616367839e-20)
(98.74831617 8.834012378 -7.012620446e-22)
(99.09690075 8.488535465 -2.227924321e-20)
(100.7617387 8.074475519 9.624797781e-20)
(100.6332008 8.534549134 2.058960375e-21)
(101.0024977 8.88271771 -7.93329489e-20)
(101.0835805 8.343262541 -8.82848907e-20)
(101.9913507 6.932608072 -5.956380559e-19)
(102.0717924 7.385714961 -3.194047406e-19)
(102.4167778 7.461441554 -9.268426169e-19)
(102.2761175 6.995757397 -6.193049666e-19)
(102.4066398 5.39783246 3.435467265e-19)
(102.5850536 5.758414093 -4.201440883e-20)
(102.8330276 5.699027563 -8.539932324e-19)
(102.6071084 5.35240711 1.865634793e-20)
(102.2918352 3.959196464 1.081527958e-19)
(102.4919394 4.225360906 -3.456996242e-21)
(102.6327608 4.124862028 2.470487935e-19)
(102.4106053 3.878858161 1.395762185e-20)
(102.1020968 2.939604823 -1.47634641e-20)
(101.9223966 2.750035031 -3.852179554e-21)
(102.1788542 2.833519365 4.110525221e-20)
(101.9891644 2.666154808 2.259778223e-20)
(101.4430872 1.746667672 -9.483030975e-20)
(101.7395379 1.996505449 -6.009151424e-20)
(101.8018886 1.800120043 -3.36817245e-20)
(101.4985186 1.61436195 -1.727240878e-20)
(101.0508531 1.129870871 1.167349399e-20)
(101.276622 1.293428505 3.517339287e-20)
(101.3011534 1.14683806 -3.956026383e-21)
(101.0804397 1.02681456 -3.856079295e-21)
(100.6980325 0.4906985172 2.041540636e-21)
(100.9718984 0.5619348145 0)
(101.0721997 0.8017724111 -1.113096303e-22)
(100.9311514 0.8070490406 -1.052582728e-20)
(100.5080952 0.2761050819 4.499139089e-22)
(100.6875732 0.3307562721 2.041356583e-21)
(100.4008546 0.1234601688 -2.047552581e-21)
(100.5094418 0.1677662797 -2.049577481e-21)
(100.4260478 0.05115333577 -2.060370714e-21)
(99.95804809 -0.03476479064 0)
(100.0024326 -0.02799561704 1.864293221e-21)
(99.89001115 -0.05780667863 -7.628533706e-21)
(99.95256205 -0.07951047441 -1.877985133e-21)
(99.76710945 -0.05806206936 7.878907668e-21)
(99.85034027 -0.1140723252 -3.798411287e-21)
(99.58203775 0.007580040898 1.033951885e-20)
(99.67738922 -0.1238225269 2.853223765e-21)
(99.55217402 -0.04267532369 2.499898636e-24)
(99.55814943 0.07007287243 -7.679922218e-21)
(99.50023509 -1.774311133e-06 -7.742848326e-21)
(99.458149 0.06917846973 0)
(99.26803836 0.2264440534 -1.559261348e-20)
(99.30412945 0.1436139733 0)
(99.17606375 0.1319425519 -9.042376904e-23)
(99.11819584 0.2419385619 -6.092360515e-23)
(98.85463914 0.4917727405 8.027626247e-21)
(98.8947605 0.3712941333 1.205424462e-20)
(98.69568048 0.3708381249 1.622815901e-20)
(98.66027709 0.5647057592 1.834445948e-20)
(98.59558269 0.5174806755 -2.344815677e-20)
(98.34448509 0.893831894 -9.988521145e-23)
(98.36523331 0.7981705522 7.476924079e-20)
(98.2160548 0.8265331397 4.538846921e-20)
(98.18755941 0.9382679912 -8.678871908e-20)
(97.55216437 1.635280909 2.925306906e-19)
(97.56334023 1.490672284 -1.8415393e-19)
(97.33966328 1.557867671 2.375166873e-19)
(97.3187025 1.731421693 1.780787929e-19)
(96.4819596 2.934374753 0)
(96.45298677 2.708639261 0)
(96.09842909 2.867591675 -6.633933059e-20)
(96.13167476 3.142095467 3.563254617e-19)
(95.33512652 5.200404316 0)
(95.16446098 4.891375577 1.584729879e-19)
(94.67099991 5.24671569 2.767228831e-19)
(94.8926289 5.643830962 -1.270414951e-19)
(95.12547662 8.739824052 -2.635708646e-19)
(94.60763788 8.484122517 -6.210752479e-20)
(94.1239749 9.296741223 6.729885914e-20)
(94.84226347 9.588910713 -5.6242225e-20)
(97.89317844 12.18352399 2.157723998e-20)
(97.11043148 12.54566202 0)
(97.41030447 13.69658006 0)
(98.33003176 13.08688853 0)
(102.220871 11.84004654 2.171506807e-20)
(102.0128026 12.69643783 -4.738378983e-20)
(102.8787713 13.06050386 0)
(102.9238832 12.0633554 0)
(104.2368631 9.049692177 0)
(104.4850654 9.707264008 0)
(105.074537 9.557344053 -5.170938962e-19)
(104.7018828 8.922570712 0)
(104.4044845 6.438263996 -6.127104106e-19)
(104.7492758 6.841505234 -2.04887145e-20)
(105.0361715 6.601164841 -5.792567193e-19)
(104.6415784 6.242477633 -5.820918599e-19)
(103.8234556 4.447091855 3.726600186e-19)
(104.1405445 4.702275199 6.762997162e-19)
(104.2708189 4.478977287 2.245234996e-19)
(103.9385092 4.264076835 -2.195853717e-20)
(103.2968211 3.125432771 2.59881064e-20)
(103.0330936 2.955106682 7.593209647e-20)
(103.3461014 2.940910273 8.359340186e-20)
(103.080983 2.79761575 5.993365172e-20)
(102.1802599 1.785862946 2.753695444e-20)
(102.5659523 1.985382577 -2.570217076e-22)
(102.5641078 1.6952763 1.681948048e-20)
(102.1897802 1.576345272 1.252133156e-20)
(101.5566086 1.117888394 -1.647549013e-20)
(101.8477747 1.240025577 -8.412044689e-21)
(101.8152619 1.037974664 -8.413674404e-21)
(101.5467366 0.9650256602 1.284407877e-20)
(100.9464346 0.4083115625 0)
(101.2552791 0.4057835056 1.363713611e-21)
(101.4429493 0.672046589 -1.133839859e-20)
(101.3098075 0.7455194173 2.808810601e-20)
(100.6760702 0.2203378544 -5.167455425e-22)
(100.8648116 0.2239912216 -1.611354445e-21)
(100.524469 0.09525411988 -2.072164916e-21)
(100.6273933 0.1039924695 -2.349152853e-21)
(100.5158837 0.03035677555 2.640626499e-21)
(100.000768 -0.07219843745 -1.309809178e-23)
(100.0705497 -0.048498805 6.030781243e-23)
(99.91750777 -0.1347642856 1.949259796e-21)
(100.0116342 -0.1422345764 -7.295156359e-23)
(99.7667511 -0.1789395128 -1.021331051e-20)
(99.89214198 -0.2237988675 1.535930597e-21)
(99.52584184 -0.1557529666 -9.231957431e-21)
(99.68920831 -0.2862658478 -1.553085689e-20)
(99.51607602 -0.2265867577 -1.321695682e-20)
(99.47295438 -0.08746020471 -7.271871669e-21)
(99.43905866 -0.1882580409 -2.87935474e-21)
(99.36481858 -0.1196561802 3.332903783e-23)
(99.09863058 0.01295796407 1.174335255e-20)
(99.17080638 -0.07718465084 1.193072956e-20)
(99.04025881 -0.1286273985 5.89111867e-21)
(98.9361515 -0.01516604173 2.028342968e-20)
(98.55713179 0.2124701483 -2.46041777e-20)
(98.65088313 0.07265635827 -2.053316976e-20)
(98.44459333 0.01848744449 -2.461007081e-20)
(98.32895543 0.2299190792 1.510703083e-21)
(98.28114998 0.1574165155 -3.011500567e-20)
(97.86337395 0.5365199674 6.163420797e-20)
(97.92599594 0.4249775666 -4.902883359e-21)
(97.76325314 0.4115885693 1.571429153e-19)
(97.68862601 0.5365178355 7.318175915e-22)
(96.73483891 1.166249996 -3.849352667e-19)
(96.81700117 0.9858651853 -2.583376357e-19)
(96.5570814 0.9830914973 -2.601180842e-19)
(96.44685483 1.192433282 -6.429466036e-20)
(94.96223736 2.362452808 -2.915691423e-19)
(95.05271347 2.055873259 -1.53950976e-19)
(94.61820409 2.079082605 -2.164418632e-19)
(94.48497574 2.449070684 -1.286797159e-19)
(92.42402086 4.685910678 -3.392450168e-22)
(92.43634012 4.127279213 4.284065047e-20)
(91.68580298 4.20726168 4.229873641e-20)
(91.6315774 4.936145125 4.21170632e-20)
(89.52687738 10.06116776 0)
(88.97259058 8.910338789 9.252919814e-20)
(87.22833456 9.951804413 0)
(87.51217875 9.281724904 -2.867788325e-19)
(88.58571669 11.28527362 -3.287950248e-20)
(87.7148079 11.28411042 3.099249591e-19)
(92.51280022 20.64619343 -3.756551089e-20)
(93.76732128 20.43734996 1.616402499e-20)
(92.76759311 22.30671279 1.620864399e-20)
(94.35296088 21.74557912 -1.287927186e-21)
(106.3521746 19.08790334 8.521153918e-20)
(106.5711048 17.53243192 -6.631803299e-20)
(108.1108471 17.26002444 2.197913346e-19)
(107.0798644 19.94485672 -7.565939125e-21)
(109.0012255 18.85324513 1.452924761e-19)
(108.6031632 19.54645463 1.457465304e-19)
(109.0771195 11.56177544 4.845320726e-20)
(108.3650148 10.70621371 -9.696453665e-20)
(109.7406215 10.84547915 1.132805638e-20)
(108.8847418 10.17948861 -9.616107583e-20)
(107.2451012 6.692149243 4.053070438e-19)
(107.8485976 7.052115514 6.852034187e-20)
(108.0692244 6.539170377 3.995294236e-19)
(107.4400158 6.275106347 3.985439883e-19)
(105.7385085 4.274423986 -3.710317831e-19)
(106.1927938 4.450678432 1.045670106e-20)
(106.2383612 4.088803375 -3.802700336e-19)
(105.7874312 3.969718532 2.62319988e-19)
(104.6372479 2.789642293 1.61784514e-19)
(104.2928182 2.692562604 2.460294605e-19)
(104.6107022 2.53543949 3.732160664e-19)
(104.277422 2.463298319 2.47032932e-19)
(102.9401592 1.521051519 4.440463111e-21)
(103.4162088 1.616445035 -1.003335406e-20)
(103.290516 1.259444017 -2.599130318e-21)
(102.8680026 1.244380673 -4.654667621e-21)
(102.0601048 0.9014765361 4.62995113e-21)
(102.3976784 0.9506531291 -2.126759224e-23)
(102.2885323 0.7119910629 -7.492173781e-21)
(101.9883405 0.7083373046 9.374270712e-21)
(101.1525113 0.2282631748 -1.825418077e-22)
(101.4575697 0.1393939285 -3.034634085e-22)
(101.7673778 0.3892583718 8.486643118e-22)
(101.6549542 0.4965117337 6.824691186e-21)
(100.8027416 0.1074918883 -3.452301615e-21)
(100.9786151 0.04586335591 -2.491751041e-22)
(100.608585 0.04005996595 2.570674201e-21)
(100.6909424 0.002290373412 -2.32517274e-21)
(100.5536558 -0.002372552776 4.41780661e-22)
(100.0843181 -0.117730995 1.377497223e-23)
(100.1816094 -0.0721856361 -2.763684165e-21)
(99.98985249 -0.2291030829 -5.033445865e-22)
(100.116712 -0.2147442631 1.202198997e-21)
(99.81909137 -0.3291104903 -3.967191808e-21)
(99.98653666 -0.3513035142 -2.61276648e-21)
(99.5327518 -0.365317574 8.145140035e-21)
(99.76489809 -0.4765910005 -8.981962979e-22)
(99.54977104 -0.4532120828 8.51063131e-22)
(99.44654148 -0.302953196 3.97827867e-21)
(99.44964032 -0.4254959412 8.261086573e-21)
(99.34203504 -0.3685095037 5.826293354e-21)
(99.00590046 -0.2884846883 -1.985602759e-21)
(99.11810648 -0.3722310471 3.071234828e-21)
(98.99837054 -0.4630221577 2.02902966e-21)
(98.8468448 -0.3641115428 6.147532542e-21)
(98.36533909 -0.2049058731 2.153518183e-21)
(98.51700042 -0.3399000343 3.984263746e-24)
(98.32462535 -0.4502742739 -2.09270397e-21)
(98.12678809 -0.2473701709 -1.417354213e-21)
(98.10789092 -0.3443288746 -1.418578639e-21)
(97.54140376 -0.03932939818 -4.455765958e-20)
(97.64807489 -0.1457702824 -5.954365222e-20)
(97.49781134 -0.2078761806 6.785255407e-20)
(97.37420151 -0.0942104702 -1.921767227e-19)
(96.14705717 0.299908519 -1.851452961e-19)
(96.31389799 0.1259933987 -1.084684224e-19)
(96.0633186 0.04010300818 -5.025475791e-20)
(95.85559803 0.2284199743 -1.796827798e-20)
(93.83997796 0.9324214673 1.877289893e-20)
(94.09670043 0.6366677069 -2.045879703e-20)
(93.694431 0.4894585024 4.69365419e-23)
(93.36037399 0.8068922082 -4.229786147e-20)
(90.1209595 1.936486813 6.437095904e-21)
(90.53860965 1.393849564 1.049743378e-19)
(89.93865005 1.042405736 -1.05874833e-19)
(89.32530636 1.592685674 -1.074286269e-19)
(83.08018836 3.253433567 2.891198036e-19)
(83.69259474 2.566541663 2.890197055e-19)
(83.05870332 1.925781318 2.874607838e-19)
(82.17554707 2.605971497 -3.265225452e-19)
(121.7306579 23.40392195 -4.968197761e-20)
(120.0871262 22.27512082 -3.271854817e-19)
(122.5076784 21.61498176 0)
(120.8751903 20.86842072 0)
(116.0360701 10.31193044 1.943107023e-19)
(114.5345411 9.818419774 8.650858353e-20)
(116.1032178 8.864219274 -4.103361674e-20)
(114.6809121 8.697904838 -2.165302509e-21)
(110.5443573 5.379273534 1.208130006e-19)
(111.4022411 5.486728455 3.804515329e-20)
(111.3112075 4.745507149 3.434546504e-20)
(110.5078169 4.762543506 1.261688099e-19)
(107.6764078 3.158508242 0)
(108.2377822 3.169987201 1.147439449e-19)
(108.1074348 2.719918809 -2.339414218e-19)
(107.5887919 2.771530473 0)
(105.8777687 1.82407 9.208421277e-20)
(105.481196 1.835502045 -9.073400241e-20)
(105.7387621 1.529447944 4.330933527e-20)
(105.3729652 1.567103134 9.139444856e-20)
(103.5941929 0.9152110265 -5.073173213e-21)
(104.1235256 0.8705001761 -2.47101765e-21)
(103.8344901 0.4986209211 8.133000007e-21)
(103.4082032 0.6151703919 1.21072424e-21)
(102.4717302 0.472262923 -2.031177821e-21)
(102.8206279 0.4236945913 1.41705866e-20)
(102.6130853 0.1887991843 5.212043687e-21)
(102.3250462 0.2736110077 1.034955897e-20)
(101.2692505 -0.03844152936 -3.513773758e-22)
(101.5414114 -0.2182544663 -1.093324464e-21)
(101.9637484 -0.03055744317 -1.111161929e-21)
(101.9066185 0.1318875685 -1.278014804e-21)
(100.8555682 -0.05728815773 1.109251094e-21)
(100.9962853 -0.1888343806 1.362553704e-21)
(100.6271157 -0.03865731844 -4.407337363e-21)
(100.6733152 -0.1293198194 1.702274277e-21)
(100.517174 -0.04478402596 -2.181921197e-21)
(100.2155872 -0.1682633819 -1.575225149e-21)
(100.3403336 -0.09739589301 8.72511588e-22)
(100.1152733 -0.3340744636 -9.168104057e-22)
(100.2731447 -0.2919198094 -6.497817375e-22)
(99.93459882 -0.4966173698 4.689460792e-22)
(100.139899 -0.4870340381 -2.313918453e-22)
(99.61831647 -0.6047660918 5.258747391e-22)
(99.91298052 -0.6799881951 7.892315223e-22)
(99.66559838 -0.7023235135 4.669394882e-22)
(99.49906508 -0.5574472978 1.369261949e-21)
(99.54638586 -0.6915747431 -1.258051749e-23)
(99.40878862 -0.6548457222 -1.258230683e-23)
(99.02020922 -0.6480448282 -2.024827088e-21)
(99.16959129 -0.713220311 0)
(99.0724706 -0.8389564981 -9.94185486e-22)
(98.88028021 -0.7685000208 -1.050364945e-21)
(98.32615653 -0.7104226283 5.06069002e-22)
(98.53007225 -0.8194242063 -5.424817192e-22)
(98.37108979 -0.9776468633 1.580096642e-21)
(98.10315334 -0.8124994477 -1.047319329e-20)
(98.11846328 -0.9215451615 2.939399301e-21)
(97.45813339 -0.7467352826 -4.778824353e-20)
(97.59932545 -0.8293730255 -1.214923e-19)
(97.47646308 -0.9313941523 4.864958516e-20)
(97.31458197 -0.848901284 -1.613174743e-20)
(95.96714818 -0.7808913623 1.765863445e-20)
(96.19631727 -0.9081124583 1.356603175e-19)
(95.98824541 -1.055803008 0)
(95.71961391 -0.9306887045 -4.585570343e-21)
(93.5944874 -0.8565595845 2.547893533e-20)
(93.95067329 -1.043647083 3.977007432e-20)
(93.65741526 -1.279718167 6.256551198e-20)
(93.24353961 -1.113916626 4.231834517e-20)
(90.22913583 -1.334661872 1.088669266e-19)
(90.78377429 -1.550954691 0)
(90.485714 -1.957893214 0)
(89.87476622 -1.82201472 2.868818233e-20)
(86.40333126 -3.420343142 -2.420023861e-19)
(86.86569624 -3.361274412 2.401563987e-19)
(86.8707361 -3.710570271 1.177801449e-19)
(86.47432227 -3.852877515 -1.470445721e-19)
(135.6611612 8.533199851 -4.718652325e-19)
(133.9651935 9.309418394 0)
(134.5375892 7.115604164 3.009608541e-19)
(133.1206811 7.934053208 5.196088317e-19)
(121.2680899 3.8616809 9.420070204e-21)
(119.6475848 4.389528602 3.560286383e-19)
(120.2707813 2.567220878 1.455229032e-20)
(118.9745176 3.221556285 7.762102774e-21)
(113.0579522 2.182824106 6.889828843e-20)
(113.9274286 1.86583343 1.877757725e-20)
(113.3967778 1.174867424 1.483636541e-19)
(112.6599879 1.550729543 -6.744893846e-20)
(109.0715761 1.0749767 0)
(109.6181768 0.8607152964 -1.122353667e-19)