/*--------------------------------*- C++ -*----------------------------------*\
| =========                 |                                                 |
| \\      /  F ield         | OpenFOAM: The Open Source CFD Toolbox           |
|  \\    /   O peration     | Version:  v1912                                 |
|   \\  /    A nd           | Website:  www.openfoam.com                      |
|    \\/     M anipulation  |                                                 |
\*---------------------------------------------------------------------------*/
FoamFile
{
    version     2.0;
    format      ascii;
    class       volScalarField;
    location    "0.74";
    object      nut;
}
// * * * * * * * * * * * * * * * * * * * * * * * * * * * * * * * * * * * * * //

dimensions      [0 2 -1 0 0 0 0];


internalField   nonuniform List<scalar> 
12556
(
1.155903943
1.155875291
1.155844147
1.155814887
1.156031017
1.156022282
1.156027238
1.156047595
1.156091234
1.156174277
1.156307242
1.156463073
1.15662484
1.156695854
1.156611569
1.156460946
1.156314525
1.156202836
1.156103911
1.15606438
1.155816196
1.155823385
1.155843533
1.155870069
1.155186161
1.155103802
1.155013218
1.154935006
1.155125646
1.155113748
1.155157565
1.155355485
1.155565662
1.155956931
1.15658299
1.157393398
1.116669824
1.064614359
1.091291157
1.157593919
1.156798199
1.156146325
1.155610234
1.155338276
1.154985164
1.154967073
1.155013801
1.155089309
1.154443793
1.154297504
1.154144637
1.154025433
1.154221175
1.154240205
1.154363171
1.154712245
1.155248102
1.156216758
1.157793342
0.9502749626
0.8584386157
0.8268639764
0.867237109
0.9760088884
1.158078935
1.156614503
1.155431413
1.15479569
1.154212694
1.154142235
1.154194284
1.154313863
1.153677956
1.153479542
1.153276597
1.153138297
1.15333189
1.153427357
1.153705408
1.154353808
1.155497084
1.132263688
0.8289412006
0.6471553131
0.5683602008
0.5660724691
0.6151353289
0.7091758194
0.8678167314
1.129435569
1.155861451
1.154591736
1.153610915
1.153396019
1.153405444
1.153545347
1.152898285
1.152635797
1.152387201
1.15224853
1.152490709
1.152714358
1.153320571
1.154399821
1.156786037
0.8064737673
0.5432274317
0.3975095023
0.3341026145
0.3493345422
0.4094377493
0.4995189862
0.6334639569
0.8560652349
1.157351412
1.154874706
1.15322966
1.152723707
1.152641151
1.152774336
1.152114486
1.15180598
1.151529929
1.151411786
1.151716788
1.152142172
1.153205678
1.155065731
0.9659121568
0.5867347769
0.3534515534
0.2187964975
0.1687796302
0.1949385855
0.2647863919
0.3561773242
0.475785028
0.6608597265
0.9718566673
1.155767053
1.153069832
1.1521382
1.151892919
1.151992774
1.151323978
1.150970636
1.150678953
1.150610122
1.151033815
1.151740354
1.153447016
1.156410142
0.7973645433
0.461073899
0.2470324686
0.1101842189
0.06153244655
0.09662571434
0.1752727539
0.2661721453
0.3748833516
0.532151324
0.8186911118
1.157314498
1.153160595
1.151630654
1.151138917
1.151165777
1.150566257
1.150181526
1.149894597
1.149892575
1.150480973
1.151546792
1.154083838
1.158045339
0.7183712734
0.421939317
0.2300006515
0.09314988219
0.05451273697
0.1326793625
0.2188781672
0.3189486612
0.4576087387
0.7153802342
1.074479104
1.153513771
1.151241189
1.150406942
1.150322414
1.14985016
1.149436907
1.149166072
1.149291992
1.150075104
1.151583946
1.155049435
1.10615707
0.7031190382
0.4508503812
0.3038988505
0.2212238788
0.06523040699
0.1288961035
0.2053712156
0.2965277014
0.4222630123
0.6607793818
0.990718507
1.154129669
1.150987527
1.149741701
1.149513974
1.149216462
1.148789073
1.14855473
1.148846284
1.149766026
1.151851087
1.156250868
1.082849791
0.7221365356
0.5104763798
0.4144011653
0.4363544067
0.09084950949
0.1454594374
0.2143488384
0.3001743584
0.4182581847
0.6391688828
0.9399951554
1.154985566
1.150964346
1.1492473
1.148847528
1.14865879
1.148220872
1.148040642
1.14852499
1.149614093
1.152324409
1.157618295
1.07773228
0.7541961636
0.5697392794
0.5050240646
0.5413213181
0.1238377551
0.1750203449
0.2401773067
0.320841475
0.4321119195
0.6452570572
0.9175925527
1.156020671
1.151176349
1.148987335
1.148405465
1.148222992
1.147783943
1.147665051
1.14833431
1.149637113
1.15295445
1.159096665
1.089108444
0.7903368848
0.6137316654
0.5408069508
0.4719752076
0.1617905882
0.2166805647
0.2825178701
0.3611841845
0.4712845484
0.6767021789
0.9255221993
1.157277499
1.151684194
1.149038748
1.148268353
1.147859563
1.147419844
1.147398671
1.148291419
1.149797381
1.153668691
1.16048476
1.118440953
0.8333356744
0.6492599462
0.5350410748
0.4194559775
0.06246163508
0.2103623366
0.2784456415
0.3476291104
0.4263750358
0.5408758827
0.7296110377
0.9568871968
1.158598828
1.152412994
1.14936432
1.148436829
1.147629127
1.147194299
1.147261339
1.148337469
1.150181579
1.154721323
1.161985052
1.164277741
0.8970885903
0.7041784935
0.55841532
0.2752222947
0.1218396065
0.3137990518
0.3904521363
0.4543833512
0.5246604387
0.6331000272
0.8061709139
1.007007723
1.159937988
1.153343434
1.14994552
1.148876489
1.147444671
1.147010613
1.147161118
1.148434752
1.15056034
1.155598986
1.163201476
1.167377397
1.003129998
0.8180983571
0.6643895686
0.080025144
0.1701594072
0.4365442968
0.6057889962
0.6284331909
0.6757925035
0.7671046366
0.9213844544
1.092218821
1.161203618
1.154315627
1.150669484
1.149514821
1.147365606
1.146934341
1.147153786
1.148598058
1.150973068
1.156424748
1.164249372
1.167990706
1.154823743
1.019507573
0.839952876
0.05381319674
0.1813359599
0.4375997254
0.6828060338
0.888398227
0.8875271866
0.9441790118
1.073838946
1.168341794
1.162338071
1.155290503
1.151479752
1.150259905
1.147279934
1.146843585
1.147116534
1.148735583
1.151373885
1.157154259
1.165049306
1.16819082
1.154649628
1.093934623
0.8354333808
0.06976726379
0.1692552797
0.424131023
0.6736805141
0.8883760004
1.038211039
1.120681732
1.161441155
1.169381149
1.163256565
1.156165144
1.152255052
1.15100242
1.147268086
1.14682876
1.147137003
1.14888615
1.151727072
1.15775544
1.165572378
1.16792531
1.152914567
1.089599243
0.826768293
0.09302197115
0.154666194
0.4101261702
0.6696023738
0.8921329113
1.042062229
1.122763508
1.162455774
1.170016794
1.163939233
1.156906954
1.152996961
1.151732484
1.147204664
1.146756808
1.147085856
1.148961534
1.15201193
1.15821179
1.165817805
1.16723682
1.149547556
1.078592503
0.7901437229
0.09679333644
0.1544446012
0.4095186321
0.6750635594
0.8979767071
1.044542771
1.123842581
1.162845171
1.170267913
1.16435601
1.157452632
1.153589303
1.152330985
1.147199847
1.146750943
1.147089989
1.149041222
1.152219411
1.158522236
1.165803705
1.166178044
1.145459024
1.063018075
0.720334413
0.07507307205
0.1680104274
0.4188185468
0.6813088151
0.9022891584
1.04609688
1.124246787
1.162792925
1.17021142
1.164611215
1.157911183
1.154122071
1.152871666
1.147111351
1.146661431
1.147007126
1.149038506
1.152356898
1.15869794
1.165560075
1.164800115
1.140755368
1.045230391
0.6481522789
0.06207031106
0.1807671297
0.4271199291
0.6854888746
0.9050674367
1.046968214
1.124194215
1.162420762
1.169925103
1.164662237
1.158187461
1.154487077
1.153248373
1.147081439
1.146642576
1.146996874
1.149067604
1.152437022
1.158760573
1.165122649
1.16314976
1.135459459
1.024410791
0.5871983712
0.05454645372
0.1917274101
0.4344867344
0.6886345869
0.9062820418
1.047220707
1.123808071
1.161823563
1.169475651
1.164641982
1.158429672
1.154819896
1.153586029
1.146945777
1.146520358
1.146889836
1.149022616
1.152479336
1.15873568
1.164527245
1.161261021
1.12950508
0.9985492989
0.5381026062
0.05009987174
0.2013624363
0.4409799863
0.6911953504
0.9062806753
1.046835916
1.12313793
1.161063544
1.168914377
1.164477239
1.158512563
1.154990021
1.153760428
1.146881076
1.146481449
1.146874131
1.149037763
1.152494385
1.158644441
1.163800682
1.159139817
1.122641455
0.9674502324
0.4977577433
0.0482589228
0.209996796
0.4467705801
0.6933301888
0.9055496024
1.045860114
1.122201713
1.160177259
1.168276814
1.164311523
1.158615244
1.155173073
1.153939187
1.146695648
1.146322642
1.146746054
1.14897213
1.15249255
1.158498975
1.162956177
1.156756954
1.114457207
0.9340594551
0.4637568337
0.04806326257
0.2178192188
0.4520050666
0.6951150828
0.9044263346
1.044423253
1.121025441
1.159190018
1.167587225
1.164026467
1.158566034
1.15519657
1.153957725
1.146600141
1.146264453
1.146727033
1.148985342
1.152472124
1.158303393
1.161994202
1.154059583
1.104593415
0.9010418825
0.4347111861
0.04901586065
0.2249397183
0.4567737849
0.6966080306
0.9030935076
1.042671137
1.11965207
1.158124699
1.166862231
1.163789687
1.158584587
1.155281147
1.154030259
1.146373935
1.146073286
1.146578417
1.148899684
1.152437626
1.15805775
1.160908127
1.150982243
1.092972061
0.869542281
0.4095504209
0.05041391115
0.2314740065
0.4611836591
0.6978649501
0.9016507623
1.040723034
1.118130999
1.157003371
1.166114546
1.163433816
1.158444235
1.155200994
1.153939576
1.146255075
1.145999221
1.146555915
1.148911204
1.152383069
1.157760959
1.159687661
1.147459445
1.079813059
0.8398881149
0.3875713869
0.05195259923
0.2375439493
0.4652828261
0.6989390575
0.9001588806
1.038665401
1.116507765
1.155845533
1.165353786
1.163167352
1.158414928
1.155227633
1.153950693
1.146003961
1.145787016
1.146392325
1.148804136
1.152313526
1.157411062
1.158319371
1.143417157
1.06549526
0.8121656082
0.3684608251
0.05376243645
0.2432459671
0.4691149089
0.6998799334
0.898660283
1.03655934
1.114820659
1.154667387
1.164587447
1.162768783
1.15821279
1.155078229
1.153789267
1.145864713
1.145697353
1.146363246
1.148811323
1.152221273
1.157005924
1.156785584
1.138812446
1.050400006
0.7862678118
0.3517695028
0.05589934911
0.2486605283
0.4727271603
0.7007360828
0.8971886032
1.034448847
1.113100571
1.153481907
1.163821948
1.162494383
1.158154581
1.155070015
1.153765081
1.145612747
1.14548454
1.146199847
1.148688461
1.152112997
1.156542326
1.155067375
1.133629688
1.034838004
0.7620584017
0.3370033187
0.05839049562
0.2538512952
0.4761827471
0.7015534038
0.8957733884
1.032367489
1.111372826
1.152299672
1.163061027
1.162077881
1.157920192
1.154883384
1.153567289
1.145444364
1.145369508
1.146151789
1.148680695
1.15197959
1.156016445
1.153144443
1.127875441
1.019045173
0.7394149798
0.3238274529
0.06125441019
0.2588609303
0.4795324317
0.7023725353
0.8944407325
1.030341983
1.109658452
1.151129382
1.16231082
1.161795374
1.157829923
1.154840814
1.153509777
1.145229241
1.145190567
1.146018698
1.148562918
1.151828172
1.155422795
1.150993453
1.121576704
1.003179425
0.7181746074
0.3119816201
0.06450659319
0.2637299514
0.4828199543
0.7032297968
0.8932137332
1.028394117
1.107974362
1.149978233
1.161570126
1.161404771
1.157609274
1.154661977
1.153322385
1.145005354
1.145024069
1.14592386
1.14850859
1.151650965
1.154758453
1.148606154
1.114773494
0.9873476759
0.6981804331
0.3012559885
0.06814095486
0.2684988627
0.4860867554
0.7041574673
0.892114456
1.026543915
1.106337738
1.148855442
1.16085091
1.161067683
1.15745048
1.154553939
1.153201034
1.144869538
1.144919004
1.145856854
1.1484409
1.151457035
1.154025055
1.145993436
1.107511979
0.971628591
0.6793157698
0.2914912375
0.07215368275
0.2731974311
0.4893678593
0.7051855285
0.8911648553
1.0248103
1.104762494
1.147780958
1.160154953
1.160806639
1.157315799
1.154450518
1.153092652
1.144601552
1.144722412
1.145746022
1.148349839
1.151263692
1.153243444
1.14324798
1.09987997
0.9561753583
0.661638606
0.2826034537
0.07649779083
0.2778393737
0.4926748742
0.7063296206
0.890378401
1.023206917
1.103257498
1.146822356
1.159549002
1.160368895
1.157097125
1.154298292
1.152929119
0.1952502496
0.05803313392
0.04723967307
0.4159963622
0.08302623914
0.06094928776
0.5497336504
0.1168755235
0.08700212634
0.4796114758
0.1483269577
0.1218873123
0.4243490865
0.04650247645
0.05852905982
0.1849651344
0.1523384395
0.3224066394
0.09122795977
0.04781048478
0.1158591347
0.2531575245
0.1882417829
0.09019503488
0.06204573815
0.04885517109
0.09160780498
0.02961227517
0.02025636154
0.06275401644
0.1095537806
0.1130789934
0.3867198367
0.4002252061
0.2280456792
0.03547111773
0.05015902534
0.08741757896
0.124831337
0.1117688708
0.4867898345
0.5596829701
0.4204503611
0.4948135993
0.2114140185
0.2425335914
0.06037127136
0.04373453816
0.1196068554
0.1528765635
0.1308349119
0.5365112162
0.5765754158
0.5757625608
0.515706012
0.1324846134
0.1750962502
0.1084229065
0.0809169815
0.5353328959
0.5038758066
0.568622942
0.4585820859
0.07589200607
0.1015546612
0.01990243242
0.1394927587
0.1345581611
0.5475438724
0.398945027
0.4942730034
0.3840215465
0.02896287738
0.04813080648
0.2599396304
0.1244842427
0.09331955443
0.07367442637
0.1841582215
0.03482407043
0.06655156054
0.04885281524
0.0308562736
0.0501623347
0.03271532447
0.04727268554
0.2469096596
0.2794735579
0.3370507735
0.2154242327
0.1960157742
0.2174499889
0.219226562
0.04332551488
0.03527923372
0.07249808656
0.05140145309
0.05781643945
0.04852799229
0.05165195433
0.07100702194
0.1782172237
0.2069237631
0.5180467452
0.1595899704
0.1324601514
0.193897099
0.1618621413
0.07724689536
0.06177949489
0.1040833841
0.08305299384
0.1052480926
0.05834446551
0.08018191593
0.09960291635
0.1030295684
0.1307081939
0.5071610692
0.1041187711
0.07788085891
0.1309223362
0.1055506607
0.1335496186
0.1126583673
0.04909488669
0.07409906387
0.456448507
0.01405162855
0.05158585359
0.03073384583
0.07678980119
0.05314256036
0.01260413801
0.1458803339
0.1412021038
0.02255113372
0.004682584252
0.02864346024
0.3787185689
0.07442880984
0.01803786829
0.01042332777
0.03038907542
0.01837553467
0.07137790992
0.2789986784
0.2041582599
0.1087382445
0.118698626
0.07346593712
0.04111364455
0.01807304093
0.008681656598
0.3089434377
0.2838486919
0.2031845349
0.009151482108
0.15464103
0.190057435
0.1613870381
0.0103712274
0.06504003213
0.05674777018
0.08826905645
0.1625631791
0.1497226046
0.180875134
0.08185205195
0.1337979528
0.0418647456
0.01376006147
0.02402736159
0.02321882411
0.03100999253
0.04868424138
0.05503199094
0.03972708111
0.1367875693
0.127470118
0.1356696682
0.1088062169
0.1261984979
0.1335044806
0.03202833361
0.01178289401
0.05660272748
0.02450013843
0.04207012388
0.03387822575
0.02050016348
0.03192634768
0.02331563457
0.01850469856
0.02370245838
0.02169684551
0.010378999
0.01725931802
0.02242543348
0.04491886085
0.04563219957
0.05219336719
0.05102315583
0.02006425785
0.0101290271
0.09621235753
0.01695483791
0.03106590277
0.009410764538
0.01436778856
0.09217416031
0.09032444984
0.2597712137
0.2459173495
0.08204975712
0.06942046178
0.01031944444
0.04319726039
0.1863443925
0.1730378752
0.2047458303
0.1917345653
0.04355830187
0.0515969406
0.04220897428
0.1100884431
0.06785457021
0.06311140446
0.03997958807
0.06729541411
0.1246747378
0.04240233606
0.02512410361
0.01576342414
0.05659521813
0.0280246126
0.04705384989
0.02672946281
0.06607890662
0.03916017754
0.03853870587
0.2107423874
0.03054353608
0.2098942938
0.2390865005
0.03447448299
0.03889645194
0.03098611786
0.03394340958
0.2340993058
0.04159034441
0.04127937593
0.05514115231
0.06952823501
0.06488756616
0.07608550225
0.0711494991
0.05544656296
0.05869364311
0.05718127621
0.05206161783
0.06320545367
0.05859821785
0.06011151136
0.1462271623
0.1444745253
0.1790459841
0.1770464357
0.07318654645
0.009222754887
0.071791208
0.09430449746
0.09242796861
0.1176012351
0.11588897
0.03314990217
0.04891513914
0.1248026043
0.03699486381
0.02158195898
0.0650053379
0.2230669904
0.2094950069
0.2412660837
0.2275851607
0.06632374491
0.02917387578
0.04710797275
0.04611049822
0.06956243104
0.06869903883
0.006876540769
0.03843445764
0.09952835622
0.08649962802
0.167830107
0.1578603134
0.02281135337
0.01157578315
0.02332943017
0.01528290591
0.02892499123
0.01159070823
0.01442178005
0.01182891973
0.02895473239
0.06057984503
0.01208293335
0.01963481724
0.003508637515
0.02081799182
0.01555971039
0.6224923253
0.363662283
0.386661741
0.2434517839
0.008279010282
0.005315494751
0.1646285667
0.3659012489
0.2857345026
0.006131699024
0.01369984634
0.01076430592
0.1164901903
0.1041876785
0.04137732275
0.2027182708
0.1691177559
0.09169049285
0.01005015183
0.01720588505
0.01369541824
0.008963673212
0.01334048328
0.00936562971
0.03825558658
0.01661020377
0.01552254166
0.04882041827
0.05641488087
0.01679362947
0.02293135404
0.01082705846
0.0108534968
0.04564782833
0.147613702
0.332454142
0.318673675
0.3509343027
0.3370632896
0.1510741821
0.2778734384
0.2641638131
0.09165137184
0.0318779615
0.0932357324
0.08789456299
0.01114728868
0.0162222333
0.1012183495
0.04541481161
0.01887938429
0.01675353445
0.03814908505
0.0440711351
0.03984130847
0.05045894106
0.04556026863
0.03946662464
0.04243771598
0.01119905766
0.01088335965
0.03680084539
0.1903972241
0.3694196084
0.3555171877
0.05887726796
0.06089025891
0.1375739873
0.02432405062
0.0265637518
0.06570874621
0.09193893916
0.1042456127
0.09630463066
0.06504468124
0.08386492692
0.07801292942
0.09341696604
0.08617374806
0.0662407745
0.1169247885
0.2959802993
0.2823541674
0.314117243
0.3005256346
0.1188110392
0.09998894498
0.03577231606
0.03649995671
0.0207252039
0.02153289706
0.08236865193
0.1254294929
0.0546350885
0.05846496158
0.03680873149
0.03749480787
0.1098539059
0.1289577843
0.05142833018
0.06909865766
0.007352490991
0.01979669172
0.04927148391
0.03751238551
0.0736454558
0.02009212478
0.02058055005
0.01965881235
0.06231086543
0.01077045134
0.004374637765
0.1202534594
0.102004621
0.08605780798
0.08170440237
0.02824226295
0.0212772862
0.03443922309
0.0836969786
0.01779786022
0.01139507118
0.02089407499
0.02756744094
0.002853343637
0.02990025379
0.01939226028
0.01241305365
0.006387929975
0.01219345589
0.00924360666
0.009097817527
0.03046204484
0.02333946452
0.006750691261
0.03853266213
0.04032017917
0.01617439891
0.01130258133
0.007564262761
0.01178867911
0.01757885066
0.01080432333
0.01428581969
0.04660843082
0.01004040166
0.009548881831
0.01097675728
0.01302753309
0.0381997125
0.01112379591
0.01100648696
0.01323358759
0.0110054307
0.01157847501
0.02029866439
0.01450308336
0.02940007037
0.02290913526
0.0114016471
0.01830027046
0.02199545685
0.01876734357
0.03052940121
0.02342082288
0.01836872701
0.0165050968
0.01279692019
0.01422117251
0.01112048547
0.04044414669
0.04804123606
0.01523495263
0.01432157821
0.01571808119
0.0162702321
0.05506241921
0.009937326886
0.01012664878
0.01309569194
0.01012214727
0.01020281222
0.0469133826
0.01045500487
0.01540050652
0.0137266609
0.01237555567
0.02241169343
0.05823532496
0.0529503652
0.01136487324
0.04361590081
0.03739496703
0.05102581736
0.04581363205
0.01190220524
0.01178457545
0.04002699975
0.03321499773
0.101793815
0.09515927356
0.03551975985
0.0457129687
0.1091655523
0.1036169469
0.04597451838
0.04499784695
0.07052288719
0.08712897417
0.1090460692
0.06519345004
0.08151326247
0.07160858517
0.0614166308
0.14829225
0.1350158136
0.1200146827
0.1522418037
0.06132780578
0.04120796225
0.04780709417
0.05968220108
0.03558160698
0.0400538292
0.0263018621
0.02493294802
0.04403473492
0.01804106422
0.0181935874
0.01434655511
0.02620641728
0.03092988189
0.0189515076
0.02643199346
0.03484500529
0.03592588001
0.02758891862
0.02867132413
0.09700192529
0.08431496702
0.1040899217
0.09969495732
0.02982435992
0.0752671588
0.07285600636
0.08070955867
0.07614019974
0.03609420803
0.1231081974
0.1178441356
0.1317652911
0.1249977356
0.03672558072
0.03216637093
0.1099294064
0.1056253936
0.1161773236
0.1114412237
0.03253114455
0.01171094295
0.01133325486
0.04219473921
0.03832463079
0.01144083141
0.01185571214
0.04237069723
0.04157879543
0.04459002934
0.0426431227
0.04013895642
0.03907441793
0.04131896545
0.04041171518
0.06921905072
0.06712903418
0.07210969767
0.06995284123
0.06140225498
0.04733896774
0.06625263388
0.06405511507
0.02735319205
0.0231713355
0.03558942535
0.02965156193
0.007441670695
0.01477539245
0.01384086591
0.02164208444
0.01525654907
0.03480461799
0.03541471408
0.09857998778
0.0206530255
0.02045396102
0.02129441237
0.02083730431
0.01982074871
0.08476197319
0.02212820529
0.03274041665
0.03966194457
0.0527355521
0.1235284154
0.03628905774
0.02337811533
0.03893602929
0.03598320398
0.02205352247
0.02152808454
0.02295645027
0.02227317862
0.1113172976
0.03773061675
0.03863184552
0.006505042385
0.03041872842
0.009449803124
0.009959038915
0.009426718558
0.02825032308
0.007620417552
0.02224652287
0.01080907977
0.01101323856
0.04861975701
0.04224865412
0.0194884444
0.01998319698
0.07268463903
0.06449262991
0.01860684766
0.01942086382
0.01028552467
0.02716494218
0.07904916994
0.07061890173
0.01261545628
0.01211560827
0.01700196371
0.01172090546
0.01265750195
0.0185592039
0.0297865406
0.008110038226
0.01275453276
0.01154270646
0.01202865229
0.02020203354
0.05611003474
0.1189817634
0.1537906461
0.009983851734
0.009941280668
0.1919393424
0.2433699066
0.2015347389
0.006649892163
0.04019933091
0.01423196168
0.01980490417
0.140054731
0.1459443701
0.163460459
0.004997802471
0.007870211582
0.005820443205
0.004967030313
0.006026142087
0.004720531383
0.06009598176
0.03768620892
0.02359061433
0.02648949439
0.02354452669
0.02747004283
0.2248783144
0.4063513028
0.3925271641
0.4247049153
0.4109427566
0.2292814638
0.04898857471
0.04243721157
0.01311435686
0.07332201966
0.08598068435
0.137329481
0.1165615498
0.1109300496
0.0462002698
0.02908048101
0.03476860429
0.0334826969
0.387910789
0.3740248459
0.1943467199
0.1535584439
0.0667855608
0.07073161186
0.07390348811
0.08505421252
0.1687375238
0.05663123163
0.1249893542
0.1185162266
0.01072876867
0.01087274094
0.01557606738
0.01921684668
0.01950389017
0.03155568417
0.01153717824
0.0105696884
0.01047302406
0.02969360024
0.05895492916
0.0508543655
0.01799293018
0.03017417288
0.01879115708
0.01895592014
0.0183898383
0.01539309228
0.009411262736
0.01179932119
0.0110148258
0.01033800098
0.0255177658
0.03175177007
0.0647228386
0.04054013841
0.03851147359
0.03519173745
0.02591157581
0.04883217091
0.01659167251
0.02311992965
0.01125550786
0.007969240034
0.008102204702
0.01138851849
0.01136311277
0.0244666404
0.01543353217
0.01050728091
0.02163419341
0.02012422033
0.0184121923
0.01763041227
0.02137777617
0.01835342577
0.01086681974
0.01161636492
0.006679314952
0.009223881509
0.01107041437
0.06554834322
0.05996724829
0.02437017572
0.009193466816
0.01492476932
0.01344553958
0.01082155388
0.01522666646
0.0133892745
0.04931743738
0.03765872683
0.04317307395
0.06885217523
0.09885380092
0.09716914896
0.04162660923
0.06868317548
0.06473025592
0.09602111557
0.09380974902
0.06563351905
0.03602906186
0.04330150106
0.03750894299
0.0286528678
0.02949961227
0.02420542039
0.04845170563
0.04689046895
0.05447866111
0.0229459905
0.0332891891
0.03162633
0.05221954001
0.05182174683
0.03028088279
0.02790005593
0.02747791899
0.03058039567
0.02986164353
0.03504756615
0.05886909023
0.05818968433
0.06293865405
0.0620804058
0.0380919778
0.03133312333
0.05354895091
0.05299465338
0.05749312533
0.05680951491
0.0334545321
0.06405170619
0.06604628416
0.1516728287
0.1392158696
0.06149352795
0.06342077864
0.09235450456
0.09577463984
0.1853580681
0.02586514571
0.0257251946
0.02723558447
0.02701627569
0.01969045068
0.02545016184
0.02534999212
0.1708276027
0.08739025548
0.09108024489
0.00932067257
0.00936492806
0.01299818316
0.01237297533
0.009243302507
0.009274719232
0.008061044359
0.06707664265
0.02763905819
0.03398823623
0.1333930558
0.1271478287
0.05981195024
0.06929723903
0.1409000447
0.1352585502
0.0309221128
0.03098984465
0.04746675997
0.04578255539
0.03052702647
0.03049372871
0.0103455374
0.02166784603
0.03416473387
0.03383697824
0.008485290549
0.01381047872
0.02057940336
0.01275244912
0.01203114396
0.01789008579
0.01813367369
0.02937320591
0.01166489501
0.008476233848
0.01158503964
0.01156784317
0.027438014
0.01740064063
0.01797980769
0.01456401775
0.03740630321
0.03170041845
0.01013324095
0.01015549466
0.01064700724
0.01109086542
0.01716692626
0.00664254472
0.004303806763
0.007997097132
0.01217330288
0.009763233405
0.01033582874
0.009720659897
0.009941597536
0.01107599088
0.0105761758
0.006991099665
0.005421651259
0.01417373133
0.01461091355
0.0136845276
0.01382553319
0.01611285885
0.02457031895
0.02493642554
0.0240737567
0.0243990375
0.01595790427
0.01069579898
0.01859617494
0.01856735004
0.01919795231
0.01872743169
0.01050829828
0.017915335
0.02759271185
0.03063552695
0.02524749695
0.02607479288
0.01736782417
0.01115623429
0.01858596054
0.01857993907
0.01852811739
0.01857151573
0.01099664867
0.01316688091
0.01345222088
0.01265692666
0.01332700564
0.03593230387
0.05488606981
0.05441426942
0.02097340283
0.03454391738
0.0343039195
0.03581877397
0.03488868095
0.02118088409
0.0107981179
0.01056994585
0.01064512282
0.01085391784
0.01951907637
0.01932831253
0.01993862438
0.0197252204
0.01521238805
0.0335599972
0.02008755183
0.02098768404
0.02027298618
0.03384358924
0.0336295244
0.03415848846
0.03398286961
0.02040230079
0.02081460561
0.02023257343
0.03033902739
0.02175643189
0.01563711038
0.007141075026
0.01049744874
0.01087423067
0.007090993608
0.04042125243
0.02793993213
0.003026323494
0.02825363658
0.04316505775
0.04278852233
0.01776513941
0.01138589739
0.008353102102
0.003948131076
0.01242858954
0.01252372041
0.01856493089
0.01872169585
0.03009743198
0.01881236288
0.01006508295
0.009457148396
0.01531937084
0.004141631437
0.00929210825
0.007232778059
0.00551275177
0.006799392638
0.009237688742
0.006960396336
0.01015647287
0.0106424556
0.01024446544
0.04029594063
0.030802449
0.008629891429
0.01080205096
0.01202597981
0.01896676
0.02135031571
0.01278329333
0.01572920394
0.01497329313
0.009778022129
0.006540693522
0.009792076185
0.01090708287
0.007567121232
0.01097113896
0.01115775812
0.01206528412
0.01133387994
0.0110919655
0.01132955154
0.01120455839
0.0114929996
0.01147364119
0.01134179576
0.0114111719
0.01157429299
0.01250283089
0.01197196379
0.02270861734
0.02175185215
0.02256989826
0.02741829939
0.02811965924
0.02202098666
0.02051040327
0.02192071734
0.01354056171
0.02166101604
0.02301432113
0.01568867584
0.02173268107
0.01438768997
0.01491567139
0.02358060577
0.02389632585
0.02302974855
0.02345053293
0.01471006949
0.01588944905
0.02769321221
0.02722552512
0.01003277552
0.01008120703
0.01138877488
0.009287047257
0.009565939584
0.00981586094
0.0101120224
0.009743620334
0.01247250148
0.02293398285
0.02053294399
0.02648915931
0.02513398359
0.01445910934
0.009218677211
0.01009992641
0.01611131505
0.006531263112
0.009321096849
0.009299063585
0.01189041881
0.009240809116
0.009451912537
0.01959028747
0.01742133026
0.01013464115
0.04736065452
0.04382392639
0.08566334273
0.07620958785
0.04368102179
0.06533464838
0.09277740272
0.08875145122
0.03644119456
0.0332770762
0.03220125958
0.02355785454
0.03005934977
0.04648595199
0.04610543665
0.04004850278
0.02621881084
0.03733061289
0.03788859826
0.03398299066
0.03512708511
0.02471223278
0.0171527104
0.01841437441
0.02791957406
0.0200038241
0.01903648151
0.02123186752
0.02019260241
0.02834647899
0.01943122178
0.02014863645
0.01608379207
0.0208087969
0.04753906115
0.04774687123
0.03014965711
0.02979008216
0.05075822648
0.05074928187
0.02860789704
0.0282032703
0.02939919034
0.02896504528
0.06012767376
0.05947009513
0.03547417415
0.03739169734
0.06141717184
0.06077631741
0.0548576103
0.05426070635
0.03179950327
0.03294443782
0.05611403659
0.05548182385
0.01156499073
0.01864117698
0.01866352958
0.01862515502
0.01865139853
0.01151026642
0.01191607128
0.01730868523
0.01503290414
0.01856775826
0.01824109952
0.01190070399
0.04209361736
0.02458310176
0.02485147173
0.02417030738
0.024371134
0.04184229681
0.04346007256
0.02577640371
0.02624492905
0.02511136763
0.02541874582
0.04297124274
0.03975059968
0.02296715494
0.02320660531
0.02260475564
0.02283398327
0.03951884276
0.04103336702
0.02378539735
0.02397149964
0.02336697532
0.02360099639
0.04075801771
0.02630478616
0.02612432898
0.06853104394
0.04542723517
0.0457585697
0.0447015071
0.04498808363
0.0677629828
0.02675313824
0.02654919199
0.02423276425
0.02547816545
0.05927701508
0.04089230063
0.04057930113
0.02712449372
0.02851280719
0.05273903986
0.06575427377
0.04397598749
0.04417843939
0.04323479869
0.04318186803
0.06445099264
0.02501961465
0.02506926148
0.009271516367
0.009517802337
0.009102827381
0.01178107922
0.01038679423
0.01441741839
0.009593544665
0.009523170902
0.009599003624
0.009593027253
0.01424567799
0.01937425606
0.01073093095
0.01232459189
0.009703808841
0.009456158245
0.01677783035
0.03473450933
0.05230411904
0.05199596689
0.05371274192
0.05335169587
0.03531648222
0.02061238686
0.02037862566
0.02117629093
0.02090562709
0.02094570551
0.01651965008
0.02322619125
0.04269491431
0.03808964152
0.04983626622
0.04807514073
0.03279164528
0.0253967889
0.0176816642
0.02272547803
0.02412563649
0.03825533567
0.02226130374
0.02254475755
0.02160538744
0.02231725903
0.03832406127
0.02189378251
0.02167010314
0.02269999481
0.02245970598
0.00966625281
0.01192905221
0.01142467418
0.01529755989
0.01303925871
0.009631361048
0.009329393231
0.009534715621
0.01079566488
0.01009865867
0.006475677262
0.01101191031
0.01089317737
0.01088694706
0.01235527225
0.01147990504
0.01089296392
0.01888881265
0.01884375379
0.01913124569
0.01906966466
0.02892194851
0.02888932745
0.04383764105
0.01809463308
0.01910326535
0.01861891868
0.01868117535
0.01970528299
0.03307107458
0.03272529903
0.03348098621
0.03320965991
0.01978684595
0.01914583668
0.03204637921
0.0302803729
0.03260022137
0.03204430117
0.01913698138
0.01050441671
0.04120025818
0.04060127965
0.02697207716
0.01270799934
0.01060191415
0.01063245143
0.007939664122
0.01095513622
0.01223269354
0.01758282223
0.01213209931
0.0124648165
0.0123374278
0.02949572172
0.01824377727
0.01844862407
0.01135077139
0.01168470962
0.01161219801
0.01198321529
0.01204647553
0.008475657262
0.008470348763
0.01194006046
0.01168998307
0.01193796469
0.01477863581
0.0182356942
0.02749580618
1.154851035
1.155151132
1.155501145
1.155285473
1.155841654
1.155842163
1.156073186
1.156970512
1.156410813
1.157351684
1.076509158
1.157181846
1.036537939
0.9554067105
1.128562942
0.9494384842
0.8879955192
1.0668985
0.8906853456
0.9155572838
1.082084217
0.9291285199
1.012310223
1.15783022
1.042641681
1.158004648
1.156978557
1.157661596
1.156674159
1.156289768
1.15440917
1.155059842
1.155080246
1.15535996
1.156637677
1.155925757
1.157191181
0.9798812859
1.157371646
0.9135845353