/*--------------------------------*- C++ -*----------------------------------*\
| =========                 |                                                 |
| \\      /  F ield         | OpenFOAM: The Open Source CFD Toolbox           |
|  \\    /   O peration     | Version:  v1912                                 |
|   \\  /    A nd           | Website:  www.openfoam.com                      |
|    \\/     M anipulation  |                                                 |
\*---------------------------------------------------------------------------*/
FoamFile
{
    version     2.0;
    format      ascii;
    class       volScalarField;
    location    "0.74";
    object      p;
}
// * * * * * * * * * * * * * * * * * * * * * * * * * * * * * * * * * * * * * //

dimensions      [0 2 -2 0 0 0 0];


internalField   nonuniform List<scalar> 
12556
(
791.2194485
790.6789024
789.1927694
785.8231243
780.4812253
768.7761424
748.8353511
716.0150199
665.537752
591.1349813
487.1808426
351.3552854
188.0024017
8.66806718
-170.2126544
-332.5031251
-468.64084
-575.7625453
-655.7296202
-712.358312
-760.1780914
-781.953034
-794.5951607
-800.4847553
791.563632
791.3230209
790.437536
788.204393
782.9423141
773.2395622
755.8970807
729.5165241
684.8147576
616.8594734
518.6653947
385.5190739
219.48354
33.47729087
-155.3520242
-326.9974071
-468.9325891
-579.0369285
-668.3184188
-721.6900588
-768.692274
-787.8623086
-799.0523488
-804.2200604
792.3244177
792.7555766
793.2833569
793.3249812
790.3676842
784.969641
773.8346341
752.024131
716.1157283
657.1239463
561.0725828
414.4608066
228.0163583
20.08391472
-182.4280079
-364.2569707
-510.5405551
-616.3247816
-703.2216026
-748.1362753
-788.3329694
-802.013617
-809.9151398
-813.4360638
792.9674294
794.3481835
796.9418504
800.2113319
800.7065705
801.6971078
799.8228244
787.6517748
766.953436
720.1696438
624.6061293
460.6969941
221.3499268
-40.7763304
-271.237687
-451.1406455
-589.5943925
-686.1397654
-758.363827
-788.5447516
-816.9663612
-822.8205995
-825.7715362
-826.8932968
792.5477629
795.009536
799.9491109
807.1970676
811.4166511
820.9088926
830.6192621
833.1213034
833.4734144
812.1981961
736.2264908
546.2674977
212.7490368
-169.7562455
-450.894688
-623.3070398
-725.6779512
-787.4119982
-831.9168772
-840.9344865
-850.3946385
-846.7238467
-843.5957028
-841.819216
789.9947107
793.5301769
800.730324
811.8795442
821.3988117
839.2527724
862.0202283
881.4482185
914.0991544
946.922809
942.2161655
781.1385311
240.1907945
-430.0974613
-773.1307494
-890.5789514
-920.3442383
-922.2588054
-919.5747959
-899.2789088
-884.7778941
-870.2539929
-860.2573377
-855.3510781
784.2856371
788.7544939
797.9133389
812.4679441
827.098792
852.8122266
887.4464098
925.2204691
995.9409356
1104.549856
1258.362872
1391.982818
502.2904474
-1091.352701
-1295.915143
-1241.169115
-1156.82
-1075.66864
-1011.023274
-955.8536601
-915.5467945
-889.2223473
-872.5555315
-864.6845935
774.5425514
779.6848461
790.2528419
807.2175779
826.4787841
857.9007558
901.0969935
954.3858268
1055.400407
1222.800423
1505.864155
2052.714656
-2818.495868
-2006.049011
-1612.902494
-1382.579472
-1218.021873
-1087.284371
-1000.967051
-934.7813217
-899.082506
-877.270062
-866.9646399
760.1038439
765.570791
776.8035643
794.8958015
817.5886054
851.879982
899.0227579
960.9594633
1073.500539
1247.041584
1487.666165
1762.853342
-4209.590453
-2504.820431
-1861.844454
-1530.087057
-1308.429741
-1129.619003
-1022.908665
-937.3613049
-896.2020066
-871.4941881
-859.7512893
740.6116667
746.0187372
757.0986764
774.9029912
799.6152902
833.6860391
879.985301
943.2943712
1049.940791
1198.546757
1363.596755
1499.428432
-3875.594876
-2484.428968
-1876.452926
-1541.61191
-1318.642655
-1125.369528
-1014.724185
-920.3032677
-878.6510761
-853.6301646
-841.6880498
716.0623829
721.0517034
731.2146043
747.3398169
772.7740769
803.8254586
845.3384621
904.3852457
996.3746073
1114.131947
1231.67819
1326.994992
-2902.709453
-2093.644875
-1685.322706
-1435.388562
-1249.716526
-1073.717576
-975.5855352
-883.7504287
-846.312292
-823.5495036
-812.6077304
686.7811359
691.0489338
699.7358856
712.8132591
738.3733773
763.8578714
797.7694645
848.6070934
921.6634453
1010.429591
1099.69477
1195.72674
-1898.47215
-1566.573755
-1379.203048
-1240.230575
-1119.504991
-984.9808257
-910.7741752
-830.5681771
-801.0733719
-782.5311191
-773.5209545
653.3991986
656.736592
663.653288
673.4952058
696.2581206
715.7613853
740.2756226
780.8780884
832.5514518
891.6145546
951.537459
1044.427159
-762.8845742
-983.354502
-1057.546193
-1047.167556
-1012.617856
-960.0630876
-875.6922789
-828.864238
-766.2805501
-746.3113461
-732.9270053
-726.3788319
616.6983617
619.0158104
623.982116
630.755772
649.7935975
662.871205
677.7029419
706.4748377
735.662003
761.5911574
777.880168
824.2701126
243.1162167
-416.6410769
-658.2894821
-756.9203936
-796.8716625
-797.8905515
-761.3201274
-739.2467823
-697.0449742
-685.7705945
-677.5988188
-673.6496181
577.5795697
578.798803
581.5077289
584.9496917
600.3660023
606.3161662
611.7688758
626.8758025
633.6421568
627.5020021
594.1425062
501.4948592
206.155728
-175.7072926
-407.2830715
-539.2872883
-616.9295588
-653.8495324
-651.7899859
-650.660465
-626.2886848
-622.6673608
-619.3876764
-617.8596172
536.9661378
537.1516632
537.6552934
537.9239827
549.7460099
549.4361937
546.7003797
549.6409833
539.0825316
511.244339
451.1502494
331.5089872
156.942253
-77.47451668
-260.2011726
-391.0066828
-480.1728136
-534.6100731
-554.4024477
-567.6704542
-557.3528237
-559.913362
-560.7660822
-561.266887
495.7768414
495.078497
493.6828512
491.2256305
499.6368869
494.11722
484.8753356
478.8800102
456.1214948
417.0773401
351.9289255
254.7420668
125.3646532
-33.04934036
-174.9116404
-290.74543
-379.0237234
-439.188978
-470.463245
-492.483963
-492.6266192
-499.6970536
-503.7555651
-505.7117594
454.8494454
453.435596
450.5041434
445.8711492
451.2460121
441.7558273
427.7141018
415.8166881
386.504033
343.6472087
282.3595159
201.8215759
104.3250543
-14.02964235
-126.7635873
-225.4494218
-304.3483611
-362.7580526
-399.1804909
-425.9663499
-433.3055814
-443.3636062
-449.6223968
-452.5649306
414.8634115
412.9000668
408.7887223
402.5321624
405.4508197
393.1904299
376.0512874
360.4852351
328.4493756
285.3727249
229.7053385
162.7859498
84.68513802
-8.989065758
-99.93315755
-181.343766
-249.1336582
-302.7572543
-340.0570147
-368.2762913
-379.8226618
-391.578725
-399.1472873
-402.74067
376.3407526
373.9914064
369.0485773
361.6906684
362.7389902
348.7773549
329.9226338
312.5458542
280.1041819
238.769022
188.5270028
130.2065135
65.20845522
-9.328235911
-82.46451663
-149.3545164
-207.1673033
-254.9380543
-290.8829041
-318.5405444
-332.2064827
-344.6305007
-352.8074179
-356.6999377
339.6593493
337.075919
331.6244514
323.6222524
323.3458902
308.5490064
288.9804147
271.1887879
239.7655282
201.3196277
156.5316624
105.6755675
51.49738895
-9.645397987
-69.55299482
-125.1311845
-174.3891123
-216.3850772
-249.6281232
-275.7171402
-290.0856191
-302.442488
-310.7102736
-314.6579518
305.066552
302.3777873
296.6953845
288.4279011
287.2836964
272.3208744
252.8792532
235.4782509
205.8993968
170.8139182
131.191847
87.34314308
41.25198773
-9.670881109
-59.47854388
-106.098247
-148.1296897
-184.7746641
-214.809596
-238.7862373
-252.9207312
-264.7379599
-272.7481974
-276.5810132
272.6908294
269.998773
264.308903
256.0842966
254.408656
239.7898997
221.0658795
204.5458016
177.2422788
145.6362444
110.7316374
72.97590208
33.4447529
-9.442331864
-51.29166758
-90.68262184
-126.6167967
-158.4540894
-185.1874253
-206.8289077
-220.1536589
-231.1507808
-238.6836649
-242.2926486
242.5618454
239.9442282
234.4151213
226.4661377
224.5328987
210.6080281
193.0036738
177.6247865
152.7839193
124.5891716
93.93637395
61.39854742
27.37042988
-9.016831958
-44.43152285
-77.88405619
-108.6501272
-136.2276002
-159.7733931
-179.0553205
-191.2498696
-201.278837
-208.2064727
-211.5278002
214.6351206
212.1492344
206.9018156
199.3930559
197.4131841
184.4121429
168.1946745
154.0770809
131.732603
106.7773668
79.9459891
51.87524852
22.55604165
-8.449409863
-38.55001267
-67.04533666
-93.40116045
-117.2261234
-137.7932731
-154.8011676
-165.7103876
-174.7130984
-180.9731545
-183.9752141
188.813431
186.4996686
181.6173627
174.6589653
172.7896812
160.851659
146.1170567
133.3674216
113.4602959
91.52437293
68.13184747
43.91347414
18.67519449
-7.786533502
-33.41928895
-57.71671865
-80.2792762
-100.801857
-118.6339105
-133.5088827
-143.0821492
-151.0585459
-156.6336807
-159.3069846
164.9602383
162.8453763
158.3827298
152.0434919
150.4049415
139.604234
126.3887575
115.0371543
97.46496636
78.31762528
58.02654744
37.16041115
15.49976451
-7.065184437
-28.88389079
-49.58075781
-68.85385365
-86.46498745
-101.8091024
-114.71456
-122.9597103
-129.9442507
-134.8454559
-137.1945988
142.9113216
141.0115923
137.001269
131.3197719
130.0009453
120.3665998
108.6666331
98.6953486
83.33845332
66.76040023
49.27768635
31.36783063
12.86409292
-6.313557431
-24.83169019
-42.40333984
-58.79911209
-73.83338041
-86.92194351
-98.02393526
-104.9820628
-111.0274753
-115.2820082
-117.319695
122.4858743
120.8098799
117.268592
112.2615215
111.3310841
102.8618274
92.6771683
84.01426856
70.75010124
56.5408726
41.61231147
26.34038326
10.64593421
-5.552699425
-21.17877879
-36.00689254
-49.86304419
-62.60420717
-73.64695975
-83.1029749
-88.8287269
-93.99566486
-97.63879561
-99.38173259
103.4948347
102.0457193
98.97901413
94.64799196
94.15893332
86.83372806
78.13164864
70.72457098
59.42785156
47.40669773
34.81178688
21.92279099
8.751757463
-4.797750335
-17.85887575
-30.2508446
-41.84278087
-52.52778665
-61.71220446
-69.66395332
-74.21497273
-78.56477809
-81.63441901
-83.10076972
85.73806617
84.51655992
81.92374223
78.25777437
78.26977938
72.04872682
64.77559338
58.59663932
49.14428678
39.15145566
28.70587323
17.99176796
7.107883187
-4.05934943
-14.81779354
-25.02130189
-34.57212525
-43.38340041
-50.8888408
-57.45669202
-60.88079984
-64.47328493
-67.00606347
-68.2129305
69.0422806
68.04498044
65.92190755
62.90756971
63.44257545
58.29160846
52.32081088
47.43189031
39.70260463
31.60051633
23.15086969
14.44321957
5.654371299
-3.344675102
-12.00975604
-20.22411669
-27.91762213
-35.01671447
-40.95535581
-46.25641502
-48.61222546
-51.49790784
-53.52759868
-54.49228138
53.12575307
52.35876078
50.7081535
48.32130456
49.5233353
45.36393909
40.64068964
37.01502315
30.92351107
24.59958055
18.02077322
11.18713043
4.340856282
-2.657984022
-9.393720737
-15.77647723
-21.76265672
-27.31773052
-31.71962559
-35.86137801
-37.13511969
-39.37376587
-40.92493444
-41.65452703
38.12044834
37.55850069
36.36965688
34.65712682
36.07077238
33.07633873
29.57483576
27.17849087
22.65113434
18.01214215
13.20207392
8.143672447
3.124901683
-2.00085207
-6.931784666
-11.6025591
-15.99232442
-20.08450917
-23.06409662
-26.06415928
-26.51875935
-28.09886574
-29.19706543
-29.72054523
22.67482898
22.41027652
21.70459005
20.6737211
23.20020387
21.27111619
18.94697669
17.76907495
14.74853126
11.71351623
8.588698387
5.238623618
1.970997661
-1.371891239
-4.587613277
-7.632341226
-10.50344114
-13.20521163
-14.82586525
-16.79457902
-15.8152148
-16.7614863
-17.407186
-17.65597028
11.64434468
11.37230957
10.99887459
10.39236744
10.61430135
9.62620408
8.526228114
8.647609082
7.102903537
5.583705087
4.062933585
2.387837348
0.857102463
-0.7643909271
-2.324113832
-3.801028414
-5.201968749
-6.543857769
-6.77093112
-7.673293136
-7.991798292
-8.463376442
-8.771462499
-9.002085467
1809.151896
-4510.82604
-2989.722753
1525.359804
-4222.534743
-4563.01115
1345.123197
-3155.864417
-4111.099735
1212.312492
-2065.2281
-3014.24478
1056.036615
-815.3553461
-856.1665093
-1094.998778
-1936.016407
852.0036234
330.7322774
-768.3112981
193.8328037
-426.415367
-986.7217838
2017.465976
726.9549641
-2632.858909
-901.6851628
-6004.480615
-3854.02265
-4152.014614
-2679.308438
-2157.815374
1396.724037
1511.614127
1730.231596
-6002.233449
-6360.983281
-3969.581218
-2785.650566
-2770.900456
1264.335066
1335.196175
1486.54726
1427.212064
1456.058244
1549.721611
-4384.752261
-5221.892711
-3031.52171
-2379.757108
-2718.544218
1133.441232
1198.999847
1316.772504
1276.586022
1310.778664
1363.142513
-2883.479469
-3517.047671
991.1214582
1050.084646
1182.106797
1135.306992
1191.825001
1251.001011
-1607.407521
-1570.396352
-2127.437827
822.3405549
848.5708931
1028.54832
962.6645664
1021.425853
1107.523328
568.4068576
317.2499955
342.932615
2264.646333
1867.240094
2782.90038
2345.39005
-6373.37975
-6060.742919
-4120.958216
-5794.136047
-6208.654352
1562.268221
1654.01007
1612.325224
1656.547218
1565.277262
1832.039513
1672.04859
-5272.54959
-5966.974357
-4423.347841
-5836.546631
-5183.1014
-6198.986138
-5869.979724
-4457.789695
1371.897801
1443.654872
1405.021845
1449.971561
1373.064109
1558.733337
1456.85567
-3611.214766
-4325.510565
-3579.377803
-4222.067551
-3541.004815
-5133.415028
-4329.317117
-3718.544777
1255.164678
1307.813937
1260.600844
1310.856929
1259.103454
1368.380118
1313.577943
-2209.198914
-2796.460301
1112.937927
1187.653957
1125.47829
-1562.911769
1192.647249
1117.656313
1254.82565
1196.867904
-1603.502936
-1006.580684
-1493.401965
-1557.951178
1019.738759
1015.612771
949.0307171
-42.33461154
1021.423648
919.9185945
1112.281928
1026.374302
-117.3132712
1509.733158
1769.477295
1939.461627
2004.636415
2302.441439
2636.979935
-7555.287803
-4825.964559
1645.324627
1669.988034
1834.382551
-3442.218229
-2019.801813
-1779.851845
-2237.990783
-2007.598697
-1956.136784
-2248.774041
-172.927468
-490.271734
-866.0782083
1869.046943
2233.218113
1959.507551
1959.382881
3665.208719
3121.587252
-3663.931145
-5655.489396
-3900.548782
-2296.823605
-2612.846978
-2463.556719
-2753.837515
-2184.270201
-3450.385469
-2838.109647
-2599.306032
-1161.695273
-298.2749316
-456.9972572
1163.398038
1990.307686
2748.782003
-3379.397664
-1030.393253
858.8240783
-7668.267023
-5421.264656
-7407.922615
-4599.449508
-7250.544175
-5093.811009
-6174.791533
-6201.173664
-4780.440627
-4837.212402
-3042.602542
-3370.811391
-3148.978383
-3350.9889
-3015.74322
-3770.250051
-3401.336932
-3239.611008
1219.445686
1192.218237
1166.174833
-1598.998067
-1867.071851
-1928.825617
1064.166991
1031.215124
993.9798894
1076.14201
1042.827848
1069.274375
2286.632153
1993.845235
2057.769156
2004.279518
2309.815071
1815.362349
1972.34762
2001.859421
2682.089294
3062.22701
3510.653451
2373.050453
2963.016887
2603.13108
3002.228394
2361.218435
-6342.598382
-6329.15441
1612.595844
1663.061845
1606.198615
1748.468443
1720.127449
1803.130614
1666.676714
1711.85123
1726.481674
-5598.556512
-5641.771422
-5543.740696
-4956.015865
-5119.083844
-4684.100359
-4893.201408
-5501.158059
-6071.597904
-5290.0793
-5307.97756
-5163.932086
-5267.979468
-6046.534821
1410.606622
1405.042722
1511.852561
1504.327284
-3905.304493
-3810.569943
-3957.215503
1287.490661
1283.749668
1339.359795
1335.772272
-2965.178405
-2638.315469
-2540.717355
-2657.511261
-2986.369641
1145.220838
1117.698256
1086.679935
1156.993717
1127.903263
1151.433848
-1210.98724
1155.258686
1148.570161
1226.562862
1223.261897
-1936.097517
-1212.896777
-1246.867585
-1510.569841
980.2619555
937.8718251
919.5843065
938.5574126
476.5888216
183.247066
1074.937667
-286.4233971
140.4207755
-201.3397537
1070.480717
-366.5374763
-235.3201351
107.4236675
-6066.491213
-2156.367253
-2309.560977
637.5429842
595.7759926
814.9870453
707.2777055
729.2266861
960.1171774
218.8532892
-126.3202919
-313.6360354
4593.092947
-2342.886631
-2511.070239
-908.8677298
-1160.017637
-1165.040651
-141.2290925
-385.644802
-101.5253849
1837.239868
2713.303001
3625.808016
-4208.16999
-1216.566072
997.3727611
-6086.492697
-6878.139229
-6765.528235
-6302.813617
-4552.488751
-4743.314083
-4544.611827
-5485.295161
-5315.578896
-5063.076882
1333.760665
1316.627127
1293.800768
1349.983402
1324.616548
1337.670494
1225.081522
1200.53741
1223.018329
1039.681834
1025.486287
1005.638923
865.1648083
637.7193623
375.1852883
-6374.303963
-6891.008574
-6921.689454
-6148.169837
-5126.696765
-4842.626189
-5295.16617
-5188.30496
-6156.091361
-5418.696655
-5697.354952
-5543.649103
-5839.776098
1399.778132
1387.350355
1358.925101
1378.471204
1390.212786
1385.917391
-4482.470872
-4300.838635
-4164.082437
-3918.135149
-3676.014659
-3933.334172
-4765.946546
-4364.431671
-4607.727394
-4020.116514
-4279.689678
-4711.530288
1280.525577
1256.448175
1233.103997
1286.40741
1264.075518
1284.221444
1302.132919
1314.880381
1320.003052
1270.651071
1287.959745
1271.06082
1355.622983
1359.854596
1374.067184
1321.345653
1327.415983
1322.20524
-2457.186399
-2593.616342
-2291.015011
-1404.526777
-1411.569221
1179.004061
1123.694837
1241.636495
1248.669927
1266.941712
1226.325303
1208.277727
-1737.417509
796.4108191
924.7934579
889.3413766
998.554444
974.0481972
990.0190216
149.9329397
384.5843738
149.4914128
998.331296
439.9677182
693.0026259
512.8963541
580.0592825
1091.610598
1045.448049
-6913.88043
-5852.840208
-6557.106345
-3580.896121
-3644.409846
-1972.149226
-2109.809404
-2120.33518
1890.533671
1868.123921
3560.500405
4036.329698
4298.755246
3855.944375
3469.755657
-2685.350079
-2516.483585
-2474.309883
-2518.034339
-2703.154969
-1170.289244
-996.7029318
-1011.337296
-999.5327232
-1172.042406
-781.6224246
-951.7089603
-545.1354943
-571.9953892
-733.1072838
-364.4924007
-519.5135566
-445.8569696
-7678.217299
-6697.372785
-6250.730113
-7020.967938
-6803.217867
-6067.605662
-5361.433555
-6447.366099
-6551.127
-6452.987841
-6107.046186
-6279.51024
-6721.25267
-6592.469078
-4994.162175
-4807.541439
-4610.087494
-4864.14892
-5061.089543
-4603.987065
-4804.728588
-5121.112049
-5007.531492
-5260.237146
-5056.976614
-3181.676737
-3242.884571
-3212.4626
-3131.384423
-3270.145642
-3618.978804
-3512.787141
-3661.438796
-3316.547995
-3463.745912
-3564.14608
-1803.202167
-1782.128137
-1922.697255
1049.387612
1031.880328
1042.680278
1082.571232
1071.349079
1055.453335
2138.923343
2099.158894
2111.201256
2141.70519
2034.708786
2321.01397
2182.309272
2153.958022
1874.874335
1900.967143
1841.983017
2003.598114
1923.769232
1897.633661
2594.324321
2549.634436
2377.633043
2690.495076
2593.068966
-6951.371273
-6897.097207
-6369.989719
-7060.980838
-7157.758024
-7025.337975
-7119.527858
-7086.154843
-7197.560124
-7122.725851
-6249.879141
-6894.936357
-6969.052825
1634.131605
1635.416195
1619.566906
1662.183093
1642.041599
1642.440993
1597.553335
1583.622168
1615.720313
1601.951832
1750.462449
1768.911537
1735.27936
1825.547104
1781.724052
1761.412496
1687.086496
1691.430489
1668.887033
1725.438627
1699.552485
1695.551917
-5883.719957
-5746.392297
-5465.327062
-5788.186433
-6084.50005
-5921.869751
1430.53278
1415.074017
1455.226846
1434.94153
1391.186689
1380.538766
1409.132945
1394.561925
1548.019683
1524.108633
1578.007877
1555.947791
1484.079174
1461.268428
1516.125906
1492.243457
-3909.207873
-4071.327667
-3712.513635
-3861.022778
-3954.473137
-4349.705957
-4536.10942
-4123.690617
-4293.47824
1296.676456
1311.192812
1298.764912
1316.426896
1298.888447
1322.703831
1320.616452
1295.570025
1273.886858
1288.689316
1292.87138
1345.361889
1355.278962
1351.075124
1357.968168
1347.660036
1376.039092
1361.809153
1328.061792
1323.205479
1341.139203
1330.513105
1325.357667
1330.079086
1340.964945
-2709.582748
-2800.53697
-2864.499683
-2697.833532
-2915.415262
-2844.64772
-1182.107066
-1365.324117
-1391.902513
-1182.167929
1174.33515
1130.740516
1235.061095
1244.007111
1237.466763
1212.475947
1231.041343
1233.608211
-1820.542187
977.1232325
964.749329
939.3972711
626.6705374
537.4620303
987.5633389
264.6472144
417.3864878
313.9053287
1084.454499
-438.1011022
-9.496083988
210.1557821
-53.71892865
1041.714821
-2525.016336
-1929.996301
-1291.785725
-2294.930787
-2347.933331
-1115.984062
-1183.688837
-1624.995484
-2356.026109
-963.0694919
-949.9376861
-787.876065
-2104.836682
-1596.510003
-1558.772509
2180.414674
3381.193832
4367.774409
-4817.037774
-1422.686703
1209.117807
-1691.5326
-1328.990347
-3267.795297
-5742.266652
-6490.149867
-6730.706823
1495.976307
1477.210578
1441.265615
1527.522166
1489.61943
1509.662107
-1594.546317
-1734.575896
-1743.165256
-2202.385449
-1938.323369
-1884.528859
1093.221987
1077.307758
1088.874048
-6793.00369
-6878.569328
-6224.980654
1429.78655
1397.446428
1409.970741
1432.364047
1435.000785
1454.368573
1460.673129
1482.437735
1476.34978
1123.018714
1113.049637
1098.784285
-1575.42292
-1529.461571
-1519.148109
1122.14919
1128.477064
1122.164257
-1672.941128
-1684.010398
-1587.409138
-1410.886113
-1404.53132
-1547.024603
1015.363223
1107.010832
1113.180835
1117.23645
1028.88616
-7460.387377
-3478.496558
-1989.266525
-2057.336609
-2063.030468
-2292.029423
-2147.470281
-2114.440275
1930.047881
-4709.444916
-4190.893028
-5028.663845
-2430.030727
-2483.19607
-2335.195281
-781.3760837
-795.5584344
-619.1228523
-624.9424594
-724.4653153
-2111.328645
-1579.552875
-4085.998619
-7558.319273
-7167.515368
-7019.180309
-7537.126974
-7525.37243
-3089.158619
-3120.653091
-3071.800225
-3387.117008
-3381.071334
-3353.997729
-2944.744978
-3082.37611
-3157.54622
-3733.614843
-3681.616066
-3732.584914
-1922.822851
-1900.704765
-1932.693309
2228.70777
2293.514181
2028.58965
2037.67672
2050.536177
2017.00001
1828.505746
1841.86294
1825.172018
1985.609242
1956.980027
1943.97524
2809.19893
2615.790494
2681.335711
2890.155076
2895.400402
3041.963256
2353.935129
2417.47505
2430.274145
1622.144769
1621.381512
1623.266682
1662.036283
1656.018937
1657.443031
1599.069595
1596.154538
1621.177547
1615.72806
1731.041802
1735.705598
1725.708098
1810.202824
1795.747557
1789.306645
1670.643195
1672.911563
1667.287928
1716.893648
1709.761909
1706.808227
1414.079287
1429.764379
1426.228088
1390.847476
1394.157362
1408.627913
1521.076807
1544.055757
1532.305679
1538.072799
1529.529879
1592.036045
1584.392779
1468.380946
1521.073841
1512.701202
1483.798685
1490.192493
1513.351788
-4079.267469
-4144.103112
-3783.474985
-3843.108607
-3867.969206
-4206.164523
-4225.688734
-4108.936778
-4245.04726
-4081.318525
1133.890628
1118.481369
1128.117366
1168.975039
1154.831975
1139.647961
1158.788248
1166.979838
1162.214676
1142.380273
1145.476692
1151.543242
-1935.94095
928.4157333
936.8321215
924.5973985
686.4904932
937.0933184
355.2103631
484.1820839
603.2845057
1080.658988
1081.522239
1077.888714
-350.2088171
-193.9974455
-172.2317
-187.7976146
1064.041294
1070.346888
1076.930106
-88.50229439
-168.7103574
-313.0321295
-2191.29623
-2234.618744
-2333.989563
-2287.299895
-2266.066332
4634.94825
4917.582282
4462.463101
-2397.976047
-2423.044523
-2343.630793
-2529.104867
-2474.619828
-2462.978432
-2637.035188
-1854.83582
-4613.099463
-6339.775018
-6346.270796
-6268.183715
-6309.132865
-6838.507111
-6674.540471
-6706.749423
-6610.944215
-6643.445292
-6802.991335
-5432.823799
-5351.257305
-5405.532614
-5234.891826
-5295.650911
-5377.708414
-6938.909659
-6750.190259
-6731.463715
-6735.552102
-6749.948854
-6949.57796
-5643.501571
-5559.384825
-5609.285591
-5459.114854
-5509.609734
-5595.59222
-6198.636306
-6232.881268
-6095.847428
-6150.054088
1317.137167
1312.779503
1310.071263
1274.804721
1271.649629
1267.130432
1280.987833
1276.854878
1281.048112
-1532.016588
-1584.283786
-1399.614842
-1478.809874
1191.68184
1190.041594
1199.217119
1194.089646
1125.510956
1123.215044
1129.54524
1121.376108
1254.723658
1252.425252
1247.13572
1262.908314
1257.994811
1261.497968
1209.005778
1206.362843
1219.394195
1204.020523
1210.648046
-1744.036459
-1737.669645
-1727.491887
-1588.423781
929.3762661
971.8808379
1096.492242
1000.216639
993.0911045
983.0096924
1008.277133
384.5569148
369.8964706
1071.75285
953.1442317
728.2150533
1092.76779
1104.915114
1100.124686
1036.809429
-7237.806687
-7551.461579
-7223.140285
-6634.604214
-6304.967338
-5480.936572
-7078.276831
-6752.593464
-3523.592839
-3668.65817
-2118.428766
-2107.090196
-2114.827536
1909.216063
1841.307328
4177.405529
4013.408582
3885.95687
3347.598297
3204.5224
3719.868242
3515.08382
3643.097067
-2596.464578
-2530.885654
-2647.846876
-1014.889442
-1011.131148
-1000.568536
-1115.35844
-819.4107327
-798.0913088
-785.5107813
-941.0527832
-882.6076393
-881.7044297
-551.6414819
-606.6562186
-603.1652032
-426.9428827
-433.3246583
-480.025956
-7395.304526
-7286.746531
-7619.200624
-6951.939117
-7252.159322
-7304.302758
-7521.149779
-7497.828986
-6508.085687
-6397.415563
-6429.311355
-6357.703164
-6370.559694
-6470.783522
-6674.338171
-6536.461767
-6575.024952
-6463.954507
-6499.218801
-6632.605228
-4934.625599
-4860.755622
-4920.073416
-4927.072583
-4996.999963
-4656.654827
-4684.945306
-4649.740034
-4744.819409
-5187.237496
-5229.522233
-5187.681535
-5104.170719
-5170.477058
-4981.256421
-5043.579631
-5124.717761
-3219.556348
-3136.68432
-3126.284698
-3150.332146
-3085.328548
-3140.530125
-3306.108098
-3331.91019
-3270.733617
-3579.935588
-3624.492657
-3650.654305
2181.982686
2063.033346
1884.558608
1861.209212
1846.925194
1919.761586
1931.337102
1907.667136
2677.126463
2774.129083
2791.232038
3066.5434
2938.095714
2506.301753
2493.351064
2582.469528
-6927.517267
-6730.31668
-6740.12515
-6721.817885
-6723.319857
-6909.217363
-7093.86256
-7121.69564
-7132.872857
-7386.140598
-7341.145874
-7389.743348
-7412.895216
-7123.298701
-7200.236028
-7331.151287
-7338.154486
-7143.655927
1635.137331
1629.535074
1628.29699
1650.412079
1649.323168
1642.276852
1604.409407
1601.652107
1610.885428
1607.388296
1756.365952
1745.848137
1741.054655
1774.506143
1781.454024
1768.151297
1688.104975
1680.006034
1677.752546
1702.018663
1703.177142
1696.056956
-5842.622687
-5750.61092
-5792.886045
-5656.861063
-5704.117189
-5792.819386
-6028.803024
-5943.519522
-6026.395061
-5833.06455
-5880.440199
-5970.476431
1425.957156
1427.23518
1430.836067
1416.179187
1422.354828
1420.78825
1447.572582
1445.52335
1455.269329
1433.662599
1437.901301
1440.394751
1387.975607
1389.588886
1391.925282
1383.017354
1386.700129
1384.485475
1403.51915
1403.224759
1409.415689
1394.36071
1398.039267
1398.614221
1555.378824
1546.781939
1540.10539
1543.69525
1551.916256
1527.055129
1535.36324
1532.118866
1573.874648
1564.017135
1488.237942
1480.822277
1476.023145
1478.364313
1486.124794
1461.909615
1463.757882
1466.853898
1508.166172
1510.638224
1518.818693
1494.465318
1502.533536
1500.218893
1504.546263
1496.473981
-3994.610881
-4029.450357
-3931.928142
-3899.507194
-3930.611355
-4404.067736
-4435.862551
-4387.538835
-4574.858389
-4497.268762
-4465.281452
-4170.990724
-4204.77626
-4171.265527
-4336.207826
-4284.672628
-4232.46597
1300.922548
1297.895028
1293.681692
1306.602749
1302.376156
1306.109158
1309.653553
1303.298534
1322.451155
1321.930384
1293.698703
1284.955013
1280.63717
1281.263227
1281.604935
1289.591026
1286.144502
1290.581755
1346.497133
1350.197787
1360.442151
1350.278893
1371.195984
1372.937258
1378.222849
1364.017843
1368.258719
1366.528502
1325.867613
1324.21064
1336.115457
1333.013902
-2809.706728
-2792.628946
-2852.736333
-2689.234717
-2738.295748
-2772.412062
-2982.154517
-3025.678288
-2898.039653
-2906.478705
-2917.927127
-1328.118207
-1332.881187
-1387.051692
-1197.387903
-1259.969056
-1267.924906
1171.576634
1161.435819
1187.360074
1181.296769
1135.029512
1139.520488
1136.231109
1141.880031
1137.609851
1153.452311
1147.442815
1237.408632
1235.732949
1232.960308
1242.672975
1238.945173
1240.372459
1232.79093
1226.785787
1223.516533
1230.668484
1228.758744
1233.077681
-1878.991478
970.8165156
957.5171186
962.7651161
585.479831
601.8260028
661.7512708
542.6498676
550.0943723
532.8089181
975.5899738
359.9592138
308.3598506
241.9826251
1080.383908
1081.59258
1084.047323
-416.7211869
81.03370118
22.85378328
192.767267
181.4349188
193.7353689
4.830377354
-128.2831472
-108.9899081
-7.415355637
1052.696007
1064.643629
1058.049674
744.9874374
717.949632
698.5353372
706.268015
662.6998092
637.1918813
644.3432538
576.745059
547.2515452
548.4869328
446.9315466
422.8101491
406.6129738
273.078429
263.4309312
225.2823311
78.65024783
79.23662537
27.37046414
-122.5626978
-110.4468826
-171.5962761
-309.2602089
-287.1216323
-351.936271
-464.0623511
-436.3269935
-496.8871446
-580.0767692
-553.7956527
777.6667599
760.5068697
726.9765633
752.6206425
718.4648986
674.7278259
702.3420627
635.2860932
589.625207
605.6765133
492.3704806
456.0846494
445.4705349
283.2090857
276.2277
223.8887178
40.20215429
72.36145696
-20.20179076
-189.9411722
-133.1294606
-241.6638465
-380.9201518
-321.2402591
-422.3775883
-533.1602574
-477.7917454
-565.2188926
-644.6302553
-593.0930405
821.2433898
818.2048706
773.728121
815.3382941
796.6308325
735.5236977
785.5770503
729.9649869
654.3271696
701.4535741
574.3157065
509.5517312
517.033777
299.9163395
285.4934291
213.5743361
-47.64398302
23.56677324
-129.2591076
-338.6379248
-218.3458892
-395.5707718
-532.9130682
-410.5669781
-570.375394
-661.9405873
-558.1562147
-686.1437182
-744.1543046
-666.3150094
869.4809348
887.1799413
834.6954924
893.1492954
907.8354889
820.9197197
909.3743909
894.8086756
763.2024771
879.1801478
767.8244879
608.1395476
699.4448475
368.9216699
310.3367323
225.9658063
-218.6363294
-80.0038254
-344.5743702
-615.4806513
-392.7224614
-675.596641
-793.2544596
-587.2267057
-815.8397818
-858.1774777
-705.0719349
-866.7573943
-882.7395849
-775.0079544
915.2235546
958.9178894
905.3308264
976.6721238
1040.731967
939.7711866
1065.723254
1147.867864
950.7852038
1174.424346
1214.076396
848.7563434
1187.322582
649.5147664
413.2348941
465.8734627
-650.2624289
-287.5766405
-849.3407672
-1119.120121
-714.2993725
-1144.917549
-1153.463931
-873.8134665
-1146.523823
-1110.563577
-916.6702801
-1096.326811
-1052.110564
-923.0330781
949.0631326
1015.736513
975.0531095
1044.159694
1154.089833
1073.338487
1201.022686
1386.124687
1216.25229
1467.877359
1909.589591
1375.948708
1668.632195
1750.074198
1258.580756
643.9164151
-708.6865354
-225.6646148
-1507.739255
-1487.337069
-1207.875759
-1826.440495
-1586.81537
-1260.108864
-1524.893945
-1372.931386
-1178.218781
-1330.343044
-1218.523584
-1095.365948
961.5939097
1039.713891
1025.15756
1072.752334
1197.958688
1172.696947
1249.561593
1437.002074
1419.404391