/*--------------------------------*- C++ -*----------------------------------*\
| =========                 |                                                 |
| \\      /  F ield         | OpenFOAM: The Open Source CFD Toolbox           |
|  \\    /   O peration     | Version:  v1912                                 |
|   \\  /    A nd           | Website:  www.openfoam.com                      |
|    \\/     M anipulation  |                                                 |
\*---------------------------------------------------------------------------*/
FoamFile
{
    version     2.0;
    format      ascii;
    class       pointVectorField;
    location    "0.74";
    object      pointDisplacement;
}
// * * * * * * * * * * * * * * * * * * * * * * * * * * * * * * * * * * * * * //

dimensions      [0 1 0 0 0 0 0];


internalField   nonuniform List<vector> 
26316
(
(0 0 0)
(0 0 0)
(0 0 0)
(0 0 0)
(0 0 0)
(0 0 0)
(0 0 0)
(0 0 0)
(0 0 0)
(0 0 0)
(0 0 0)
(0 0 0)
(0 0 0)
(0 0 0)
(0 0 0)
(0 0 0)
(0 0 0)
(0 0 0)
(0 0 0)
(0 0 0)
(0 0 0)
(0 0 0)
(0 0 0)
(0 0 0)
(0 0 0)
(0 0 0)
(0 0 0)
(0 0 0)
(0 0 0)
(0 0 0)
(0 0 0)
(0 0 0)
(0 0 0)
(0 0 0)
(0 0 0)
(0 0 0)
(0 0 0)
(0 0 0)
(0 0 0)
(0 0 0)
(0 0 0)
(0 0 0)
(0 0 0)
(0 0 0)
(0 0 0)
(0 0 0)
(0 0 0)
(0 0 0)
(0 0 0)
(0 0 0)
(0 0 0)
(0 0 0)
(0 0 0)
(0 0 0)
(0 0 0)
(0 0 0)
(0 0 0)
(0 0 0)
(0 0 0)
(0 0 0)
(0 0 0)
(0 0 0)
(0 0 0)
(0 0 0)
(0 0 0)
(0 0 0)
(0 0 0)
(0 0 0)
(0 0 0)
(0 0 0)
(0 0 0)
(0 0 0)
(0 0 0)
(0 0 0)
(0 0 0)
(0 0 0)
(0 0 0)
(0 0 0)
(0 0 0)
(0 0 0)
(0 0 0)
(0 0 0)
(0 0 0)
(0 0 0)
(0 0 0)
(0 0 0)
(0 0 0)
(0 0 0)
(0 0 0)
(0 0 0)
(0 0 0)
(0 0 0)
(0 0 0)
(0 0 0)
(0 0 0)
(0 0 0)
(0 0 0)
(0 0 0)
(0 0 0)
(0 0 0)
(0 0 0)
(0 0 0)
(0 0 0)
(0 0 0)
(0 0 0)
(0 0 0)
(0 0 0)
(0 0 0)
(0 0 0)
(0 0 0)
(0 0 0)
(0 0 0)
(0 0 0)
(0 0 0)
(0 0 0)
(0 0 0)
(0 0 0)
(0 0 0)
(0 0 0)
(-4.501078059e-07 1.226967849e-05 2.775557562e-17)
(0 0 0)
(0 0 0)
(-2.48635097e-07 0.0001374395557 3.330669074e-16)
(1.146449546e-06 0.0001168322068 2.91433544e-16)
(0 0 0)
(0 0 0)
(0 0 0)
(0 0 0)
(0 0 0)
(0 0 0)
(0 0 0)
(0 0 0)
(0 0 0)
(0 0 0)
(0 0 0)
(0 0 0)
(0 0 0)
(0 0 0)
(0 0 0)
(0 0 0)
(0 0 0)
(0 0 0)
(0 0 0)
(0 0 0)
(0 0 0)
(0 0 0)
(0 0 0)
(0 0 0)
(0 0 0)
(0 0 0)
(0 0 0)
(0 0 0)
(0 0 0)
(0 0 0)
(0 0 0)
(0 0 0)
(0 0 0)
(0 0 0)
(0 0 0)
(0 0 0)
(0 0 0)
(0 0 0)
(0 0 0)
(0 0 0)
(0 0 0)
(0 0 0)
(0 0 0)
(0 0 0)
(0 0 0)
(0 0 0)
(0 0 0)
(0 0 0)
(0 0 0)
(0 0 0)
(0 0 0)
(0 0 0)
(0 0 0)
(0 0 0)
(0 0 0)
(0 0 0)
(0 0 0)
(0 0 0)
(0 0 0)
(0 0 0)
(0 0 0)
(-2.804149235e-05 0.0001898177184 4.996003611e-16)
(-0.0001613774073 0.001190654456 3.080868893e-15)
(-2.11023855e-06 1.574146244e-05 4.163336342e-17)
(-0.0003063964585 0.003130037164 8.007483565e-15)
(-0.0007607684813 0.007697545128 1.992850329e-14)
(-0.0009027119392 0.01042638665 2.69784195e-14)
(-0.0004210660711 0.004907177596 1.255939797e-14)
(-0.0005124533922 0.01034039428 2.646494135e-14)
(-0.0008979484358 0.01801324864 4.661548925e-14)
(-0.0007490119338 0.0199041273 5.151434834e-14)
(-0.0004411863737 0.01176760289 3.011479954e-14)
(-1.893693092e-05 0.01376289397 3.522182546e-14)
(-2.4465217e-05 0.0224999473 5.823119764e-14)
(0.0002454615083 0.02220980099 5.74817971e-14)
(0.000143894337 0.01353750861 3.463895837e-14)
(0.0004831234894 0.01037733194 2.656208586e-14)
(0.0008553581988 0.01806298818 4.675426712e-14)
(0.0009378136396 0.01578232471 4.085620731e-14)
(0.0005082455289 0.008686964661 2.223221607e-14)
(0.0002990455422 0.003169729322 8.10462808e-15)
(0.0007420037765 0.007763127257 2.009503675e-14)
(0.0005582716202 0.005186716146 1.341982081e-14)
(0.0001747081082 0.001643528992 4.204969706e-15)
(0 0 0)
(2.941659932e-05 0.0002044199453 5.273559367e-16)
(0 0 0)
(0 0 0)
(0 0 0)
(0 0 0)
(0 0 0)
(0 0 0)
(0 0 0)
(0 0 0)
(0 0 0)
(0 0 0)
(0 0 0)
(0 0 0)
(0 0 0)
(0 0 0)
(0 0 0)
(0 0 0)
(0 0 0)
(0 0 0)
(0 0 0)
(0 0 0)
(0 0 0)
(0 0 0)
(0 0 0)
(0 0 0)
(0 0 0)
(0 0 0)
(0 0 0)
(0 0 0)
(0 0 0)
(0 0 0)
(0 0 0)
(0 0 0)
(0 0 0)
(0 0 0)
(0 0 0)
(0 0 0)
(0 0 0)
(0 0 0)
(0 0 0)
(0 0 0)
(0 0 0)
(0 0 0)
(0 0 0)
(0 0 0)
(0 0 0)
(0 0 0)
(-7.831558873e-05 0.0003807311517 1.026956298e-15)
(-0.0004277955644 0.002217786956 6.009082121e-15)
(-0.0001013392348 0.0005314488949 1.429412144e-15)
(-0.001445450653 0.009472263038 2.536859611e-14)
(-0.002311346764 0.01498718729 4.06341627e-14)
(-0.002947949623 0.02086596415 5.655198532e-14)
(-0.001986791277 0.01420731981 3.805289417e-14)
(-0.003085790938 0.03039339787 8.140710328e-14)
(-0.004080207085 0.03983077063 1.079275558e-13)
(-0.004101470544 0.0458208509 1.241506897e-13)
(-0.00316910486 0.03570148048 9.5617958e-14)
(-0.002471512534 0.04885321244 1.308397835e-13)
(-0.003067654287 0.06031679067 1.634525848e-13)
(-0.002418505847 0.06359707864 1.723482468e-13)
(-0.001967185341 0.05188620996 1.389721671e-13)
(-2.782146862e-06 0.0559202963 1.498245972e-13)
(1.945233973e-05 0.06792036008 1.841304886e-13)
(0.0008766115056 0.06744294024 1.828537322e-13)
(0.0006941479444 0.05547460737 1.486311074e-13)
(0.002447643538 0.0489210242 1.311034614e-13)
(0.003076791474 0.06037961266 1.637578961e-13)
(0.003576716344 0.05627792136 1.526556659e-13)
(0.00282171566 0.04515741691 1.210281875e-13)
(0.0030441704 0.03052398115 8.182343691e-14)
(0.004045398375 0.03997036896 1.084271561e-13)
(0.003830700826 0.03368282917 9.137135493e-14)
(0.002807095416 0.02503646442 6.711298184e-14)
(0.001431997412 0.009590626986 2.570166302e-14)
(0.002290118012 0.01513847129 4.106437412e-14)
(0.001618916754 0.009882241573 2.679800826e-14)
(0.0008988585139 0.00555728201 1.489086632e-14)
(0 0 0)
(7.774843139e-05 0.0003849041734 1.040834086e-15)
(0 0 0)
(0 0 0)
(0 0 0)
(0 0 0)
(0 0 0)
(0 0 0)
(0 0 0)
(0 0 0)
(0 0 0)
(0 0 0)
(0 0 0)
(0 0 0)
(0 0 0)
(0 0 0)
(0 0 0)
(0 0 0)
(0 0 0)
(0 0 0)
(0 0 0)
(0 0 0)
(0 0 0)
(0 0 0)
(0 0 0)
(0 0 0)
(0 0 0)
(0 0 0)
(0 0 0)
(0 0 0)
(0 0 0)
(0 0 0)
(0 0 0)
(0 0 0)
(0 0 0)
(0 0 0)
(0 0 0)
(0 0 0)
(0 0 0)
(0 0 0)
(0 0 0)
(-3.369432479e-05 0.0001310087507 3.747002708e-16)
(0 0 0)
(-0.001433963991 0.006726948859 1.891542478e-14)
(-0.002131144243 0.009861634782 2.807476474e-14)
(-0.003334439472 0.01648194109 4.690692279e-14)
(-0.002448570419 0.01226037663 3.445854713e-14)
(-0.005591628737 0.03510347421 9.861556016e-14)
(-0.006784717141 0.0421161346 1.197791866e-13)
(-0.007583658655 0.05143789515 1.462718835e-13)
(-0.006381244371 0.04376505123 1.229433222e-13)
(-0.007249898625 0.06876186401 1.931094173e-13)
(-0.008262696709 0.07753474115 2.204347815e-13)
(-0.007889474286 0.08483201803 2.411820743e-13)
(-0.006991338911 0.07597264016 2.133709875e-13)
(-0.004792774464 0.09221423413 2.590427872e-13)
(-0.005289386925 0.1007633675 2.865624404e-13)
(-0.004061701295 0.1040092909 2.958466805e-13)
(-0.003700043538 0.09564467541 2.687156053e-13)
(0.0001017743554 0.09999980804 2.811084698e-13)
(0.0001217603789 0.1080392794 3.074762667e-13)
(0.001557507666 0.1075916523 3.062688991e-13)
(0.001413212529 0.09951693564 2.7979008e-13)
(0.004942731481 0.09222161209 2.594313653e-13)
(0.005479507304 0.1007396102 2.869371407e-13)
(0.006527232121 0.0964752311 2.748495875e-13)
(0.005853728482 0.08779679214 2.470107452e-13)
(0.007281952279 0.06886356491 1.938033067e-13)
(0.008323638118 0.07755369931 2.210176486e-13)
(0.00836729515 0.06945286146 1.979250097e-13)
(0.007239935869 0.06098742087 1.716404796e-13)
(0.005536640989 0.03505390939 9.864331574e-14)
(0.006899112794 0.04292516381 1.223604551e-13)
(0.005948516665 0.03417242737 9.742207041e-14)
(0.004715460744 0.02751534866 7.743805597e-14)
(0.001635158329 0.007763946872 2.18575158e-14)
(0.002443637376 0.01144914953 3.262667914e-14)
(0.001379036752 0.006085954774 1.734723476e-14)
(0.0007880925183 0.003523825514 9.908740495e-15)
(0 0 0)
(0 0 0)
(0 0 0)
(0 0 0)
(0 0 0)
(0 0 0)
(0 0 0)
(0 0 0)
(0 0 0)
(0 0 0)
(0 0 0)
(0 0 0)
(0 0 0)
(0 0 0)
(0 0 0)
(0 0 0)
(0 0 0)
(0 0 0)
(0 0 0)
(0 0 0)
(0 0 0)
(0 0 0)
(0 0 0)
(0 0 0)
(0 0 0)
(0 0 0)
(0 0 0)
(0 0 0)
(0 0 0)
(0 0 0)
(0 0 0)
(0 0 0)
(0 0 0)
(0 0 0)
(0 0 0)
(-0.0001557320768 0.000553615296 1.637578961e-15)
(-0.0003541561917 0.001242486177 3.719247132e-15)
(-0.001257887739 0.004644179985 1.393329896e-14)
(-0.0008456798154 0.003163469177 9.36750677e-15)
(-0.004969711356 0.02208199428 6.5336625e-14)
(-0.005879130991 0.0257874272 7.72854003e-14)
(-0.007578422273 0.03547306529 1.062899768e-13)
(-0.006570424503 0.03115457348 9.214851104e-14)
(-0.01037252891 0.06166240934 1.822153539e-13)
(-0.01145458756 0.06714716418 2.010613898e-13)
(-0.01207298498 0.07727427011 2.31328845e-13)
(-0.01103627862 0.07170078175 2.118166753e-13)
(-0.01090842255 0.09833646696 2.903510765e-13)
(-0.0115818726 0.102668684 3.071431998e-13)
(-0.01069287217 0.1086785035 3.25114935e-13)
(-0.01010697737 0.1043988866 3.082534228e-13)
(-0.00636755033 0.1165857936 3.443634267e-13)
(-0.006580194909 0.1182623264 3.539113447e-13)
(-0.004946145307 0.1193659046 3.572697693e-13)
(-0.004818440881 0.1184475252 3.499422974e-13)
(0.0001171868976 0.1202449162 3.555072903e-13)
(9.25299218e-05 0.1199155354 3.59184904e-13)
(0.00177989741 0.1198675489 3.591293929e-13)
(0.001783156988 0.120050072 3.550215677e-13)
(0.006628009317 0.1166033685 3.450989494e-13)
(0.006809535138 0.1181826347 3.543831895e-13)
(0.008339135925 0.1161997029 3.485545186e-13)
(0.008060316652 0.113825255 3.369804435e-13)
(0.01106000508 0.09821417894 2.90975577e-13)
(0.01176044824 0.102629391 3.082117894e-13)
(0.01233587871 0.0958105685 2.878391969e-13)
(0.01148268951 0.09057574203 2.684519274e-13)
(0.01061783647 0.06320640192 1.873917688e-13)
(0.01170065576 0.06869709157 2.064043381e-13)
(0.01072026414 0.05823109066 1.749295153e-13)
(0.009616044055 0.05296013736 1.569994135e-13)
(0.00524007162 0.02357265309 6.984690604e-14)
(0.006176256058 0.02740443903 8.226752612e-14)
(0.00445327019 0.01862033176 5.58858515e-14)
(0.003648763811 0.01546730053 4.581057755e-14)
(0.0002409118273 0.0008695570775 2.581268532e-15)
(0.0004138667996 0.001473540597 4.413136523e-15)
(1.050659317e-05 3.562767224e-05 1.110223025e-16)
(0 0 0)
(0 0 0)
(0 0 0)
(0 0 0)
(0 0 0)
(0 0 0)
(0 0 0)
(0 0 0)
(0 0 0)
(0 0 0)
(0 0 0)
(0 0 0)
(0 0 0)
(0 0 0)
(0 0 0)
(0 0 0)
(0 0 0)
(0 0 0)
(0 0 0)
(0 0 0)
(0 0 0)
(0 0 0)
(0 0 0)
(0 0 0)
(0 0 0)
(0 0 0)
(0 0 0)
(0 0 0)
(0 0 0)
(-1.482273273e-05 4.416270352e-05 1.387778781e-16)
(-4.044716054e-07 1.222407054e-06 0)
(0 0 0)
(-0.001111842021 0.003745216244 1.169897512e-14)
(-0.001403323277 0.004661798896 1.476596623e-14)
(-0.002911362659 0.01017920675 3.222422329e-14)
(-0.002483886388 0.008806043092 2.750577544e-14)
(-0.008066300928 0.03397479202 1.059985433e-13)
(-0.008779667754 0.03646507492 1.153521723e-13)
(-0.01066445743 0.04725700493 1.494221413e-13)
(-0.01010454673 0.0454184051 1.416505802e-13)
(-0.01396835864 0.07854622857 2.448041769e-13)
(-0.01454306004 0.08058793179 2.546296507e-13)
(-0.01492681587 0.09021073798 2.85022006e-13)
(-0.01440789589 0.08837872319 2.75404699e-13)
(-0.01299962529 0.1094467724 3.41074391e-13)
(-0.0132670421 0.1098811145 3.472083732e-13)
(-0.01193618878 0.112717692 3.562150575e-13)
(-0.0117746013 0.1131793952 3.527039771e-13)
(-0.006864453846 0.1152672644 0)
(-0.006961763314 0.1136321159 0)
(-0.00611146544 0.1136311169 0)
(-0.005214802408 0.1136662448 0)
(-0.005159106409 0.1144755393 0)
(-0.005136803319 0.115265799 0)
(4.084995974e-06 0.1152032665 0)
(-1.043291026e-05 0.1144173158 0)
(0.0008506186174 0.1144020997 0)
(0.0008604718759 0.1151880626 0)
(0.006926751006 0.1150109589 0)
(0.00693753801 0.1142032746 0)
(0.006954200973 0.1133829716 0)
(0.007810284729 0.1133424578 0)
(0.008654221942 0.1133177321 0)
(0.008646893912 0.114939425 0)
(0.01311022289 0.109757257 3.434336149e-13)
(0.01331634424 0.1100843983 3.492900413e-13)
(0.0143423384 0.1056477827 3.352873534e-13)
(0.01402949974 0.1046958636 3.276545701e-13)
(0.01421042985 0.08006492342 2.506050922e-13)
(0.01472360599 0.08179347975 2.596811655e-13)
(0.01398464997 0.07183134209 2.280398093e-13)
(0.01334933702 0.06955283425 2.177147351e-13)
(0.008625032855 0.03667745456 1.147554274e-13)
(0.009432942898 0.03954856925 1.254829574e-13)
(0.007434398222 0.02937416774 9.317546734e-14)
(0.006695783002 0.02683324637 8.393286066e-14)
(0.001491666316 0.00509480473 1.591782262e-14)
(0.001864506798 0.006279080651 1.990074772e-14)
(0.0006680256247 0.002143553624 6.786238238e-15)
(0.0004545199852 0.001479098814 4.62130334e-15)
(0 0 0)
(0 0 0)
(0 0 0)
(0 0 0)
(0 0 0)
(0 0 0)
(0 0 0)
(0 0 0)
(0 0 0)
(0 0 0)
(0 0 0)
(0 0 0)
(0 0 0)
(0 0 0)
(0 0 0)
(0 0 0)
(0 0 0)
(0 0 0)
(0 0 0)
(0 0 0)
(0 0 0)
(0 0 0)
(0 0 0)
(0 0 0)
(0 0 0)
(0 0 0)
(0 0 0)
(0 0 0)
(-0.0001335606852 0.0003751712057 1.276756478e-15)
(-7.611240875e-05 0.0002170341142 7.21644966e-16)
(-6.226658475e-05 0.0001801887128 5.967448757e-16)
(-0.00201634987 0.006413573838 2.120525977e-14)
(-0.002091143885 0.006553402366 2.198241589e-14)
(-0.003871892558 0.01276953662 4.282685317e-14)
(-0.003769692328 0.01261914111 4.170275236e-14)
(-0.01014132793 0.04030168192 1.330463517e-13)
(-0.01030258231 0.04032764336 1.351002643e-13)
(-0.01226686703 0.05120570391 1.714739462e-13)
(-0.01209530051 0.05126298844 1.691702334e-13)
(-0.01570350636 0.08308002755 2.740030425e-13)
(-0.01586276166 0.08261846679 2.765010443e-13)
(-0.01607295824 0.09120901017 3.05228065e-13)
(-0.01593054646 0.09185077581 3.028965967e-13)
(-0.0136759388 0.1077240913 3.553546346e-13)
(-0.01373936611 0.1064048742 3.562150575e-13)
(-0.01217420906 0.1072653899 0)
(-0.01214250397 0.1088638095 3.59184904e-13)
(-0.00710752653 0.1087913177 0)
(-0.00712715523 0.1079804214 0)
(-0.006288476883 0.1079698559 0)
(-0.006268945253 0.108779476 0)
(0.006921238667 0.1085573421 0)
(0.006911244822 0.1077541377 0)
(0.007749552029 0.1077353993 0)
(0.007760406805 0.1085373985 0)
(0.01357005029 0.1078654064 3.57422425e-13)
(0.01357499486 0.1065393153 3.582967256e-13)
(0.01493705527 0.1043455472 3.51010887e-13)
(0.01487843459 0.1052980034 3.490124856e-13)
(0.01615491045 0.08611654864 2.855216064e-13)
(0.01634785666 0.08595809822 2.892408535e-13)
(0.01578807798 0.07671336468 2.581129754e-13)
(0.01556529268 0.07669045575 2.542410726e-13)
(0.0110735694 0.04448931407 1.473821065e-13)
(0.01132338655 0.04484338448 1.507682867e-13)
(0.009196405109 0.03430806381 1.153105389e-13)
(0.008959946586 0.03391488805 1.123129367e-13)
(0.00270521775 0.008724354985 2.886579864e-14)
(0.003054836788 0.009706444129 3.259892356e-14)
(0.001457009919 0.004411151809 1.480759959e-14)
(0.001199435246 0.003685743747 1.21846977e-14)
(0 0 0)
(0 0 0)
(0 0 0)
(0 0 0)
(0 0 0)
(0 0 0)
(0 0 0)
(0 0 0)
(0 0 0)
(0 0 0)
(0 0 0)
(0 0 0)
(0 0 0)
(0 0 0)
(0 0 0)
(0 0 0)
(0 0 0)
(0 0 0)
(0 0 0)
(0 0 0)
(0 0 0)
(0 0 0)
(0 0 0)
(0 0 0)
(0 0 0)
(0 0 0)
(0 0 0)
(0 0 0)
(-0.0002192475496 0.0005787726697 2.095545959e-15)
(-0.000198024454 0.0005311147202 1.887379142e-15)
(-0.0001737237439 0.00047328434 1.665334537e-15)
(-0.002484612885 0.007438345266 2.611799665e-14)
(-0.002569170877 0.007572186374 2.700617507e-14)
(-0.004480332654 0.01389499953 4.954370247e-14)
(-0.0043745765 0.01378138667 4.83779683e-14)
(-0.01094395961 0.04089393875 1.433575481e-13)
(-0.01107551508 0.04073115562 1.450228826e-13)
(-0.01302226204 0.05104443315 1.81687998e-13)
(-0.01289360202 0.05135881922 1.799810301e-13)
(-0.0163208627 0.08098386541 2.836342272e-13)
(-0.01641740858 0.08012303159 2.85022006e-13)
(-0.01653190734 0.08782864828 3.124167591e-13)
(-0.01645062143 0.08887680822 3.11251025e-13)
(-0.01387629285 0.102063885 3.576028362e-13)
(-0.01391161488 0.1005456345 3.578248808e-13)
(-0.01228702804 0.1009012391 0)
(-0.0122598893 0.1024883354 0)
(-0.007233187732 0.1023971422 0)
(-0.007247245439 0.1016030512 0)
(-0.006410747122 0.1015879925 0)
(-0.006396579065 0.1023820815 0)
(0.006822373971 0.1021496611 0)
(0.006807862485 0.1013509053 0)
(0.007644198779 0.1013350401 0)
(0.007658849956 0.1021333886 0)
(0.01351940614 0.1020059981 3.591432707e-13)
(0.01348978054 0.1004244461 3.59184904e-13)
(0.01499227014 0.09924281098 3.550493233e-13)
(0.01500002835 0.1006636857 3.545080896e-13)
(0.01684010498 0.08487875417 2.990385717e-13)
(0.01692098444 0.08406435477 3.008565619e-13)
(0.01652998439 0.07582327819 2.71352385e-13)
(0.0164182244 0.07642150539 2.692152057e-13)
(0.01221954236 0.04628926514 1.629391067e-13)
(0.01239678043 0.04625323034 1.653954751e-13)
(0.01029000028 0.03615107065 1.292299601e-13)
(0.01010568015 0.0360507357 1.268568584e-13)
(0.003503012923 0.01063897141 3.738676035e-14)
(0.003645442705 0.01090075445 3.891331701e-14)
(0.001879957652 0.005355622382 1.910971381e-14)
(0.001772299964 0.005128238219 1.801336857e-14)
(0 0 0)
(0 0 0)
(0 0 0)
(0 0 0)
(0 0 0)
(0 0 0)
(0 0 0)
(0 0 0)
(0 0 0)
(0 0 0)
(0 0 0)
(0 0 0)
(0 0 0)
(0 0 0)
(0 0 0)
(0 0 0)
(0 0 0)
(0 0 0)
(0 0 0)
(0 0 0)
(0 0 0)
(0 0 0)
(0 0 0)
(0 0 0)
(0 0 0)
(0 0 0)
(0 0 0)
(0 0 0)
(-0.0003234199275 0.0007991895639 3.094746681e-15)
(-0.0002915846462 0.0007328129514 2.789435349e-15)
(-0.0002632399887 0.0006726885862 2.525757381e-15)
(-0.002779668563 0.007805815564 2.921274334e-14)
(-0.002864934986 0.007912416001 3.011479954e-14)
(-0.004846579004 0.01408211803 5.356826094e-14)
(-0.004741691074 0.0140093567 5.241640455e-14)
(-0.01139914144 0.0399050198 1.491029522e-13)
(-0.01152689033 0.03967339978 1.507127756e-13)
(-0.01346414632 0.04936741274 1.874750355e-13)
(-0.01333962412 0.04975416032 1.858374565e-13)
(-0.01666055374 0.07725217085 2.883665529e-13)
(-0.01675309461 0.07632648258 2.896710649e-13)
(-0.01681678055 0.08333665905 3.162747841e-13)
(-0.01673923495 0.08444128912 3.151923167e-13)
(-0.01400878889 0.09593719429 3.582828478e-13)
(-0.01404106941 0.09439997321 3.584355035e-13)
(-0.01239290964 0.09456616192 0)
(-0.01236669407 0.0961490804 0)
(-0.007343263521 0.09605809464 0)
(-0.007356786197 0.09526708458 0)
(-0.006521424783 0.09525223079 0)
(-0.006514589202 0.09564777125 0)
(-0.006507759711 0.09604298065 0)
(0.006697214796 0.09576677275 0)
(0.006680331095 0.09497107786 0)
(0.007515735382 0.09495655444 0)
(0.007532724697 0.09575198982 0)
(0.01338892374 0.0956401275 3.591571485e-13)
(0.01335191372 0.09403617273 3.590877595e-13)
(0.0148257376 0.09273491992 3.54216656e-13)
(0.01487913466 0.0944254289 3.546885008e-13)
(0.01678056733 0.07973815316 2.996214388e-13)
(0.01669541535 0.07813069543 2.985389713e-13)
(0.01629479538 0.07034819224 2.687711165e-13)
(0.01638431785 0.07183990052 2.699229729e-13)
(0.0122492883 0.0436172703 1.637578961e-13)
(0.01216422014 0.0426252435 1.62717062e-13)
(0.01006938814 0.03320631224 1.267180805e-13)
(0.01014786294 0.03401083078 1.276340145e-13)
(0.003546854066 0.01010951942 3.788636072e-14)
(0.003500486575 0.00981453417 3.740063814e-14)
(0.001773324332 0.004735793555 1.804112415e-14)
(0.001806075065 0.004903544635 1.837419106e-14)
(0 0 0)
(0 0 0)
(0 0 0)
(0 0 0)
(0 0 0)
(0 0 0)
(0 0 0)
(0 0 0)
(0 0 0)
(0 0 0)
(0 0 0)
(0 0 0)
(0 0 0)
(0 0 0)
(0 0 0)
(0 0 0)
(0 0 0)
(0 0 0)
(0 0 0)
(0 0 0)
(0 0 0)
(0 0 0)
(0 0 0)
(0 0 0)
(0 0 0)
(0 0 0)
(0 0 0)
(0 0 0)
(-0.0004631637915 0.001066429939 4.427014311e-15)
(-0.0004253084708 0.0009971920444 4.066191828e-15)
(-0.0003886946857 0.0009277276139 3.719247132e-15)
(-0.00313155687 0.008212716176 3.291811268e-14)
(-0.003225498239 0.008309287963 3.388955783e-14)
(-0.005285404897 0.0143217029 5.83977311e-14)
(-0.005171800866 0.01426726636 5.714873019e-14)
(-0.01191794695 0.03891343425 1.556393903e-13)
(-0.0120528269 0.03864419563 1.573324804e-13)
(-0.0139748783 0.04770790931 1.941502514e-13)
(-0.01384421909 0.04813607777 1.924571613e-13)
(-0.01703293533 0.07348010452 2.935984789e-13)
(-0.01712800084 0.07251292165 2.949168687e-13)
(-0.01712874938 0.07881653012 3.205630206e-13)
(-0.01705003154 0.07995932418 3.194805531e-13)
(-0.0141341066 0.08975600018 3.588379593e-13)
(-0.01416378384 0.08819865316 3.589351039e-13)
(-0.01249614757 0.08823077851 0)
(-0.01247061397 0.08981462944 0)
(-0.007450269169 0.08972392122 0)
(-0.007463327195 0.08893216669 0)
(-0.006629401012 0.08891730251 0)
(-0.006622780041 0.08931317808 0)
(-0.006616123639 0.08970897941 0)
(0.006556096615 0.08941045028 0)
(0.006536952642 0.08861590085 0)
(0.007371563259 0.08860223833 0)
(0.007390887089 0.08939656368 0)
(0.0132118152 0.08906700922 3.582550923e-13)
(0.0131480679 0.08730782229 3.575334473e-13)
(0.01446624847 0.08518469433 3.489292189e-13)
(0.01458533579 0.0872288324 3.509553759e-13)
(0.01610918605 0.07189011392 2.893241202e-13)
(0.01577293884 0.06924050385 2.836758606e-13)
(0.01532372812 0.06199992657 2.539912725e-13)
(0.01560026612 0.06417996623 2.582656311e-13)
(0.01127057021 0.03757355824 1.510597203e-13)
(0.01098642192 0.03600080427 1.473404732e-13)
(0.008908752903 0.02745809204 1.123268145e-13)
(0.009173756939 0.02876967772 1.156158502e-13)
(0.002861151353 0.007622754409 3.058664433e-14)
(0.002707554935 0.007087620826 2.894906537e-14)
(0.001203775344 0.003000765788 1.225408663e-14)
(0.001306797686 0.003315661881 1.329492072e-14)
(0 0 0)
(0 0 0)
(0 0 0)
(0 0 0)
(0 0 0)
(0 0 0)
(0 0 0)
(0 0 0)
(0 0 0)
(0 0 0)
(0 0 0)
(0 0 0)
(0 0 0)
(0 0 0)
(0 0 0)
(0 0 0)
(0 0 0)
(0 0 0)
(0 0 0)
(0 0 0)
(0 0 0)
(0 0 0)
(0 0 0)
(0 0 0)
(0 0 0)
(0 0 0)
(0 0 0)
(0 0 0)
(-0.0005853838718 0.001249114096 5.606626274e-15)
(-0.0006053827345 0.001317315908 5.800915304e-15)
(-0.0005526262369 0.001225826093 5.287437155e-15)
(-0.003532605938 0.008608154514 3.71092046e-14)
(-0.0036526963 0.008730972166 3.837208329e-14)
(-0.005796055302 0.01456908053 6.399047958e-14)
(-0.005653443365 0.01448785713 6.243616735e-14)
(-0.01248316328 0.03782013797 1.627309398e-13)
(-0.01264694618 0.03757198111 1.647848524e-13)
(-0.01454726162 0.04599133132 2.016165013e-13)
(-0.01439010364 0.04640199646 1.995764665e-13)
(-0.01742528111 0.0695808053 2.990663273e-13)
(-0.01753493794 0.06861591005 3.006206395e-13)
(-0.01746136718 0.07421122466 3.251288128e-13)
(-0.01737269136 0.07535713282 3.238936896e-13)
(-0.01424872792 0.08350089224 3.591432707e-13)
(-0.01427576534 0.0819254068 3.59184904e-13)
(-0.01259703364 0.08189722841 0)
(-0.01257183785 0.0834807176 0)
(-0.00755232824 0.08339061348 0)
(-0.007564686027 0.08259891966 0)
(-0.006732338149 0.0825842685 0)
(-0.006726082981 0.08298026119 0)
(-0.006719796445 0.08337595893 0)
(0.006397122337 0.08306957942 0)
(0.006375709056 0.08227768425 0)
(0.007210037587 0.08226468926 0)
(0.007231708352 0.08305657969 0)
(0.01289898741 0.08172857021 3.538558335e-13)
(0.01278488547 0.07970094636 3.517741654e-13)
(0.01387573877 0.07655079666 3.379518887e-13)
(0.01405678614 0.07886462825 3.41532358e-13)
(0.01482420453 0.0618103683 2.67688649e-13)
(0.01457319504 0.05968923992 2.635391905e-13)
(0.01381293103 0.05208749248 2.299271884e-13)
(0.01425148855 0.05472747239 2.369909824e-13)
(0.009707263841 0.03014296096 1.303818165e-13)
(0.009098463334 0.02772841233 1.222633106e-13)
(0.007052984103 0.02020966343 8.906764215e-14)
(0.007663541524 0.02237574407 9.67559366e-14)
(0.001920923807 0.00476005449 2.055300374e-14)
(0.001677606234 0.004078910663 1.795785742e-14)
(0.0005448422015 0.001261353388 5.551115123e-15)
(0.0006857778984 0.001618101082 6.980527267e-15)
(0 0 0)
(0 0 0)
(0 0 0)
(0 0 0)
(0 0 0)
(0 0 0)
(0 0 0)
(0 0 0)
(0 0 0)
(0 0 0)
(0 0 0)
(0 0 0)
(0 0 0)
(0 0 0)
(0 0 0)
(0 0 0)
(0 0 0)
(0 0 0)
(0 0 0)
(0 0 0)
(0 0 0)
(0 0 0)
(0 0 0)
(0 0 0)
(0 0 0)
(0 0 0)
(0 0 0)
(0 0 0)
(-0.001040741285 0.00204475583 9.950373858e-15)
(-0.000948834523 0.001904477985 9.076073226e-15)
(-0.0008120466153 0.001664225879 7.771561172e-15)
(-0.004038644248 0.009089996579 4.241051954e-14)
(-0.004339078762 0.009564042625 4.554689959e-14)
(-0.006579684828 0.0152469619 7.258083023e-14)
(-0.006212419981 0.01470140172 6.855627177e-14)
(-0.0132003962 0.03688561469 1.717098685e-13)
(-0.01344424427 0.03677511103 1.747768597e-13)
(-0.01527542397 0.04444166492 2.111227859e-13)
(-0.01507495433 0.04480873511 2.085137618e-13)
(-0.01789381827 0.06573529564 3.056721543e-13)
(-0.0179538413 0.06452832334 3.063382881e-13)
(-0.01784816969 0.06961898839 3.305133944e-13)
(-0.01774744616 0.07077368793 3.291256157e-13)
(-0.01435490625 0.07717800582 0)
(-0.01438226956 0.0755947037 0)
(-0.01270103072 0.07556458186 0)
(-0.01268750128 0.07635595976 0)
(-0.01267419119 0.07714741528 0)
(-0.007649418164 0.0770573983 0)
(-0.007655477232 0.07666206433 0)
(-0.007239190236 0.07665488385 0)
(-0.007233169981 0.07705010815 0)
(-0.0004289170822 0.07683065279 0)
(-0.0004371320381 0.07663357795 0)
(-0.0004440219956 0.07643644194 0)
(-3.636700702e-05 0.07643357821 0)
(-2.063851073e-05 0.07682748322 0)
(0.006207525402 0.0767442479 0)
(0.006180066977 0.07595577557 0)
(0.006152281561 0.07516753004 0)
(0.007825857453 0.07514089761 0)
(0.007879313117 0.07671842108 0)
(0.007043730566 0.07673125517 0)
(0.01235692986 0.07321498846 3.431144258e-13)
(0.01214494746 0.07068827545 3.382433222e-13)
(0.01293208847 0.06644531581 3.179956298e-13)
(0.01327360282 0.06946705571 3.256284131e-13)
(0.01333556707 0.0516311983 2.420147416e-13)
(0.01285584357 0.04880560427 2.335631688e-13)
(0.01191469963 0.04161026995 1.990768661e-13)
(0.01241682933 0.04423305571 2.072925165e-13)
(0.007540363911 0.02167585383 1.014605067e-13)
(0.007086387751 0.01996144617 9.539591339e-14)
(0.005181980806 0.01371905297 6.553091403e-14)
(0.005581654642 0.01508159669 7.055467321e-14)
(0.0007932549099 0.001817740049 8.493206138e-15)
(0.0006448389334 0.001447598385 6.911138328e-15)
(5.112470394e-05 0.0001092736084 5.273559367e-16)
(9.76770164e-05 0.0002131122077 9.992007222e-16)
(0 0 0)
(0 0 0)
(0 0 0)
(0 0 0)
(0 0 0)
(0 0 0)
(0 0 0)
(0 0 0)
(0 0 0)
(0 0 0)
(0 0 0)
(0 0 0)
(0 0 0)
(0 0 0)
(0 0 0)
(0 0 0)
(0 0 0)
(0 0 0)
(0 0 0)
(0 0 0)
(0 0 0)
(0 0 0)
(0 0 0)
(0 0 0)
(0 0 0)
(0 0 0)
(0 0 0)
(0 0 0)
(-0.000986963741 0.001780441775 9.492406861e-15)
(-0.001115352456 0.002059338265 1.071365219e-14)
(-0.001191822062 0.002251070467 1.144917494e-14)
(-0.004805382051 0.00996882296 5.068168107e-14)
(-0.00465092786 0.009431294411 4.904410211e-14)
(-0.006935819556 0.01478644665 7.685518888e-14)
(-0.007120796582 0.01553099448 7.890910148e-14)
(-0.0140461992 0.0361627834 1.834088437e-13)
(-0.01381967216 0.03476890652 1.803834859e-13)
(-0.01562370807 0.04180196765 2.167710456e-13)
(-0.01584482565 0.04338710445 2.199351812e-13)
(-0.01829622906 0.06190287435 3.136102489e-13)
(-0.01814877559 0.05996958154 3.107791802e-13)
(-0.01790268259 0.06420891804 3.327615961e-13)
(-0.01800905102 0.06614883505 3.351485756e-13)
(-0.01427863119 0.07082585244 0)
(-0.01430776484 0.06924232532 0)
(-0.01262183262 0.06921130763 0)
(-0.01260726918 0.07000288727 0)
(-0.01259269897 0.07079483475 0)
(-0.007534975868 0.07070178303 0)
(-0.007549546075 0.06990983555 0)
(-0.006706616747 0.06989432738 0)
(-0.00669932826 0.07029048504 0)
(-0.00669204654 0.07068627486 0)
(-0.007113511204 0.07069402895 0)
(-0.0007913585345 0.07057771432 0)
(-0.0007986395498 0.07018192448 0)
(-0.0008059276847 0.06978576682 0)
(3.702754393e-05 0.06977025818 0)
(5.159775126e-05 0.07056220566 0)
(0.005952261217 0.07045364557 0)
(0.00592312757 0.06887011844 0)
(0.007582119679 0.0685763672 3.578248808e-13)
(0.007632578028 0.07036704797 3.589073483e-13)
(0.01152303902 0.0634436433 3.239630786e-13)
(0.01123959964 0.0607046729 3.170519403e-13)
(0.0117754306 0.05600404224 2.925298892e-13)
(0.0121175503 0.05879505941 3.002736948e-13)
(0.01119214694 0.03994351558 2.039479696e-13)
(0.01073998125 0.03751624485 1.959266083e-13)
(0.009564054469 0.03069133488 1.60232938e-13)
(0.01021923537 0.03352534395 1.711408792e-13)
(0.005347617933 0.01413239158 7.20534743e-14)
(0.004660007571 0.01204351572 6.279698983e-14)
(0.00316521426 0.007686321634 4.00651734e-14)
(0.003606949585 0.008956741984 4.56440441e-14)
(0.0001327567435 0.0002794703374 1.415534356e-15)
(5.996468796e-05 0.0001234425519 6.383782392e-16)
(0 0 0)
(0 0 0)
(0 0 0)
(0 0 0)
(0 0 0)
(0 0 0)
(0 0 0)
(0 0 0)
(0 0 0)
(0 0 0)
(0 0 0)
(0 0 0)
(0 0 0)
(0 0 0)
(0 0 0)
(0 0 0)
(0 0 0)
(0 0 0)
(0 0 0)
(0 0 0)
(0 0 0)
(0 0 0)
(0 0 0)
(0 0 0)
(0 0 0)
(0 0 0)
(0 0 0)
(0 0 0)
(0 0 0)
(0 0 0)
(-0.0002305398706 0.000376824362 2.220446049e-15)
(-0.0004183084309 0.0007014498739 4.010680676e-15)
(-0.000621461802 0.001068433304 5.967448757e-15)
(-0.003564082882 0.006729698886 3.759492717e-14)
(-0.003045236347 0.00560867702 3.212707878e-14)
(-0.004958702727 0.009601423845 5.496991751e-14)
(-0.005608946368 0.0111338678 6.215861159e-14)
(-0.01211037525 0.0283593815 1.580541253e-13)
(-0.01122832293 0.02564905367 1.465771948e-13)
(-0.01302281463 0.03162849336 1.806610417e-13)
(-0.01391835672 0.03465383429 1.930261506e-13)
(-0.01685582169 0.05177256855 2.881445083e-13)
(-0.01611492205 0.04827222905 2.754879658e-13)
(-0.01623096352 0.05273302428 3.009398286e-13)
(-0.01686398831 0.05618837814 3.127220705e-13)
(-0.01423280028 0.06379150625 3.552991235e-13)
(-0.01401516229 0.06119310713 3.49442697e-13)
(-0.01262482072 0.06234147508 3.561456685e-13)
(-0.01270130279 0.06442150114 3.589767372e-13)
(-0.007651523992 0.06436693887 0)
(-0.007680664407 0.06278304391 0)
(-0.005994768967 0.06275202689 0)
(-0.005965628552 0.06433592185 0)
(-0.006808594664 0.0643514307 0)
(-0.0009079054492 0.06424287013 0)
(-0.0009370458638 0.06265897517 0)
(0.000748860611 0.06262795796 0)
(0.0007780010257 0.06421185292 0)
(0.005789454687 0.06354804288 3.559791351e-13)
(0.005681483384 0.06101572822 3.504557755e-13)
(0.007121187732 0.0591209132 3.397143677e-13)
(0.007303982688 0.06206682856 3.478328736e-13)
(0.01030015751 0.05192317879 2.912392549e-13)
(0.009855264144 0.04845651917 2.786521014e-13)
(0.0100478975 0.04344726635 2.498556917e-13)
(0.01056825552 0.04686048399 2.628730567e-13)
(0.008883554367 0.02891433658 1.621064394e-13)
(0.008252340545 0.026188715 1.505184866e-13)
(0.006994585948 0.02039360503 1.171701625e-13)
(0.007612778002 0.02276446581 1.275923811e-13)
(0.002981566633 0.00717978766 4.01761957e-14)
(0.002561577485 0.006015206719 3.451405828e-14)
(0.001310189055 0.00289119941 1.658395643e-14)
(0.001779849154 0.00402776185 2.25375274e-14)
(0 0 0)
(0 0 0)
(0 0 0)
(0 0 0)
(0 0 0)
(0 0 0)
(0 0 0)
(0 0 0)
(0 0 0)
(0 0 0)
(0 0 0)
(0 0 0)
(0 0 0)
(0 0 0)
(0 0 0)
(0 0 0)
(0 0 0)
(0 0 0)
(0 0 0)
(0 0 0)
(0 0 0)
(0 0 0)
(0 0 0)
(0 0 0)
(0 0 0)
(0 0 0)
(0 0 0)
(0 0 0)
(0 0 0)
(0 0 0)
(0 0 0)
(0 0 0)
(0 0 0)
(0 0 0)