/*--------------------------------*- C++ -*----------------------------------*\
| =========                 |                                                 |
| \\      /  F ield         | OpenFOAM: The Open Source CFD Toolbox           |
|  \\    /   O peration     | Version:  v1912                                 |
|   \\  /    A nd           | Website:  www.openfoam.com                      |
|    \\/     M anipulation  |                                                 |
\*---------------------------------------------------------------------------*/
FoamFile
{
    version     2.0;
    format      ascii;
    class       volScalarField;
    location    "2";
    object      k;
}
// * * * * * * * * * * * * * * * * * * * * * * * * * * * * * * * * * * * * * //

dimensions      [0 2 -2 0 0 0 0];


internalField   nonuniform List<scalar> 
12556
(
36.90870478
36.90876561
36.90887696
36.9090738
36.95442334
36.95508499
36.95628146
36.95900936
36.96437099
36.97351348
36.98602755
37.00085893
37.00610971
37.00564954
36.99892785
36.98497983
36.97337233
36.9646055
36.95956538
36.95660017
36.91045299
36.90927946
36.90872979
36.90842123
36.72745309
36.72765206
36.72789075
36.72840096
36.77434856
36.77786069
36.78512564
36.81824258
36.84358884
36.88682393
36.94897178
37.00983414
37.03495743
37.03504513
37.01196517
36.95547838
36.89602253
36.85220679
36.80352083
36.78659128
36.73331799
36.72993058
36.72826458
36.72741143
36.54742642
36.54797959
36.54881158
36.55053679
36.59762646
36.60671071
36.6244623
36.67529588
36.73777362
36.84200219
36.96542812
37.0635925
37.10797612
37.1080606
37.06349672
36.97279803
36.85537837
36.75452851
36.66540645
36.62726025
36.56326083
36.55489014
36.55103274
36.5494867
36.36871798
36.36934057
36.3707464
36.37437439
36.42485706
36.44412879
36.48430791
36.56839052
36.70030305
36.87814249
37.06447262
37.21144127
37.28662428
37.27605879
37.19517733
37.0549487
36.88386043
36.71766799
36.56131121
36.48726385
36.40025338
36.38519877
36.37772209
36.37481025
36.19198192
36.19305752
36.19600937
36.20374865
36.2595464
36.2949387
36.37192787
36.51230492
36.73263605
36.99875706
37.28644544
37.53292594
37.66943774
37.64140318
37.48267339
37.24226613
36.98396588
36.74469982
36.50879816
36.37326919
36.25032767
36.22088407
36.20749692
36.20229769
36.01680324
36.01844597
36.02347648
36.03660255
36.10374065
36.16453759
36.29924787
36.51640276
36.82408668
37.2182042
37.69912021
38.21520117
38.55150517
38.44466022
38.04126784
37.59922114
37.18331394
36.83106728
36.51287759
36.29096508
36.11302742
36.0615159
36.03930855
36.03059156
35.84448999
35.8474965
35.85649218
35.87863232
35.96021214
36.05555454
36.26741972
36.55802524
36.97906945
37.55955543
38.40598023
39.77407354
40.52402043
40.3724648
39.05994736
38.18325569
37.50061936
36.98184662
36.54649989
36.24471118
35.988165
35.90752081
35.87266713
35.85904247
35.67605442
35.68070824
35.6946186
35.72972678
35.82937508
35.97141135
36.2720219
36.63201935
37.18377979
37.99850305
39.40192009
42.48242801
43.39108415
40.70026012
39.01229452
37.93390459
37.19255049
36.61252526
36.22526374
35.87829787
35.76011647
35.70854574
35.68860459
35.51453064
35.52207185
35.54366551
35.59594411
35.71346265
35.91258069
36.2979673
36.73360256
37.4190226
38.46007058
40.35277851
45.0097073
48.45134992
42.70354672
40.0017635
38.44699989
37.4450098
36.70031381
36.22800671
35.78303465
35.62176102
35.55000245
35.5224555
35.36150874
35.37211627
35.40183434
35.47293539
35.61601024
35.87678923
36.33895941
36.852565
37.65882925
38.87876917
41.06632941
46.21311016
51.88651018
44.52132471
40.98626555
38.96877641
37.70732102
36.79967684
36.23931131
35.70359284
35.49610002
35.40160429
35.36526368
35.22021415
35.23532169
35.27615262
35.37107156
35.53691461
35.86008689
36.39191519
36.98181004
37.89198656
39.2499146
41.64395243
46.69598796
53.54913323
45.86994151
41.8108729
39.43162117
37.9537888
36.89793225
36.25510749
35.63873364
35.38575215
35.26776556
35.2218447
35.0904724
35.10965559
35.1606061
35.27846517
35.47391184
35.86083949
36.45357327
37.11469988
38.11498349
39.58920931
42.17698487
46.42941187
54.25187044
46.74477886
42.4173966
39.79531629
38.1605755
36.98496184
36.27202578
35.58893864
35.29144465
35.15077532
35.09506288
34.97366894
34.99826709
35.06357166
35.20805901
35.42318971
35.86572452
36.51724254
37.24759875
38.3242431
39.90567096
42.73707058
45.87869925
43.7890381
54.06046785
47.2289665
42.80160745
40.03495026
38.31392588
37.0533349
36.28557763
35.54665591
35.21215373
35.05004472
34.9852087
34.86723583
34.89692443
34.97528308
35.14246105
35.3963121
35.90136709
36.62265132
37.40110368
38.55195171
40.25698548
43.35543816
44.32625074
54.44473219
54.02047181
47.40466303
42.95294527
40.16587224
38.41581824
37.10182223
36.29265063
35.50564444
35.14328191
34.96233372
34.88947492
34.76981442
34.80448974
34.89516275
35.08413043
35.36499998
35.91827465
36.6986865
37.54869644
38.78747746
40.59678364
43.75263913
40.41927629
55.16801648
53.33263844
47.17837905
42.90226314
40.18977181
38.46922426
37.12481931
36.28839694
35.46341711
35.07964595
34.88306709
34.80362664
34.67746848
34.71694502
34.81889634
35.02863931
35.3353882
35.92810266
36.76055853
37.70978116
39.0882325
41.05946589
44.07860131
35.18261597
53.36551444
51.93043159
46.54436849
42.66862607
40.13322889
38.47059692
37.11911776
36.26383796
35.41222249
35.01389904
34.80662932
34.72199531
34.58866464
34.63257004
34.74431528
34.97268297
35.3027345
35.92547916
36.79986512
37.84038834
39.4282103
41.62555709
43.79968006
27.08124677
52.2575644
50.19476272
45.60215045
42.29922629
40.04460109
38.43559819
37.08594229
36.21676902
35.35124497
34.9447063
34.72895468
34.64021714
34.4990789
34.54703964
34.66741089
34.91267214
35.26370887
35.90971989
36.81379808
37.89813403
39.65507879
42.02170923
42.08492872
27.07451301
51.04201654
48.50001075
44.68902922
41.92364182
39.89681055
38.34771733
37.00921174
36.14185549
35.27369527
34.8640943
34.64533143
34.55377669
34.40907844
34.46061603
34.58821583
34.84769585
35.21600914
35.87866831
36.80527745
37.91655633
39.6989187
41.98293352
38.51180551
33.43840231
49.71911999
47.23004695
44.0542314
41.59873815
39.69300175
38.20948031
36.90049278
36.04450544
35.1821766
34.77377978
34.55415154
34.46133465
34.31448674
34.36921946
34.5032726
34.77548888
35.15872534
35.83303809
36.7745858
37.90491145
39.68361641
41.63495585
35.98212477
35.62917416
48.52760653
46.42019688
43.55275974
41.26419214
39.46137428
38.03956888
36.76803631
35.92818669
35.07675766
34.6721859
34.45332075
34.3599938
34.21834271
34.2758192
34.4152492
34.69753242
35.09187811
35.77436262
36.7260857
37.86908186
39.62265767
41.17456291
33.44983346
36.40592659
47.42749004
45.69094336
43.08471475
40.93402515
39.21783599
37.85094208
36.61822067
35.79666409
34.96031663
34.56191603
34.3450319
34.25179118
34.11573465
34.17570495
34.32028427
34.61201089
35.01627308
35.70453361
36.66334181
37.8141411
39.52127052
40.64411853
30.87865434
36.74308509
46.41549236
45.02139967
42.64779032
40.61497019
38.97134629
37.65223624
36.45610125
35.65355517
34.83321767
34.441527
34.22707404
34.13428949
34.0128509
34.07497279
34.22388617
34.52257724
34.93299631
35.62550526
36.58942924
37.74372726
39.38272914
40.05707363
28.44019723
36.67620887
45.48880342
44.40268215
42.23780445
40.30945907
38.72700794
37.44904522
36.28590141
35.50197303
34.69965885
34.31586432
34.10429512
34.01222585
33.90236551
33.9665756
34.12006819
34.42626923
34.84345528
35.53917479
36.50698606
37.6603941
39.20769733
39.42870525
26.16034892
36.35009529
44.6377271
43.82798224
41.85121075
40.01743265
38.4875673
37.24487607
36.11090389
35.34453644
34.55844703
34.18163139
33.97272601
33.88145345
33.79458606
33.86061924
34.01790992
34.32898855
34.74877956
35.44722876
36.41810686
37.5654627
38.9976
38.77139316
24.10768676
35.92161079
43.85149929
43.29150724
41.48525558
39.73791322
38.25433781
37.04197092
35.9335166
35.18325958
34.41518651
34.04637182
33.84033136
33.74992401
33.67745808
33.74541112
33.90710056
34.22483294
34.65023814
35.35107551
36.32424786
37.4590332
38.75799759
38.09601897
22.35088197
35.44488364
43.12032571
42.78800779
41.13756379
39.46977217
38.02775639
36.84167044
35.75542599
35.0197782
34.265577
33.90274309
33.6990044
33.60938971
33.56759653
33.63720751
33.80235158
34.12338243
34.54856478
35.25181996
36.22620159
37.34073178
38.49281125
37.41098328
20.86532194
34.94260913
42.43604479
42.31318402
40.8061587
39.21204699
37.80786864
36.64477267
35.57783174
34.85522389
34.11834891
33.76315371
33.56195556
33.47312452
33.44483574
33.5163377
33.68584422
34.01336854
34.4448306
35.15028013
36.12427301
37.21045801
38.20692987
36.72282667
19.67848631
34.43858912
41.79177477
41.86359227
40.48935712
38.96390051
37.59452317
36.45171227
35.40153845
34.69060002
33.96364651
33.61287023
33.41345832
33.32527846
33.33605917
33.40912415
33.58178281
33.91118604
34.33928635
35.04704668
36.01847507
37.06867551
37.90673574
36.03411678
18.70460409
33.9461374
41.18447903
41.43652716
40.18580207
38.72467288
37.38754427
36.26274742
35.22711145
34.52640382
33.81702252
33.47362496
33.27637925
33.18882011
33.20768709
33.28269218
33.45971141
33.79591042
34.23299221
34.94256955
35.90876071
36.91627996
37.59643669
35.34583581
17.90034819
33.47010432
40.61047152
41.02978955
39.89442011
38.49384656
37.1867417
36.07799793
35.05493087
34.3633562
33.65807094
33.31727404
33.12135348
33.03427882
33.10359501
33.18007436
33.35995797
33.69672725
34.12569616
34.83719965
35.79524166
36.75453899
37.27711258
34.66274705
17.24104192
33.01014924
40.0665288
40.64183064
39.61453166
38.27106513
36.9919293
35.89750303
34.88525734
34.20149233
33.51671628
33.18326447
32.98911821
32.90248977
32.96818573
33.04671451
33.23095951
33.57499118
34.01877315
34.73127339
35.67823359
36.58479627
36.95087159
33.99053485
16.70988538
32.57004493
39.55159447
40.27198188
39.34585597
38.05607596
36.80288836
35.72118686
34.7182509
34.04156531
33.35138885
33.01884143
32.82574562
32.73945666
32.87328484
32.95316147
33.14002106
33.48384134
33.9113414
34.62511529
35.55812996
36.40838723
36.62005402
33.3325222
16.29656773
32.1545623
39.06610808
39.92024691
39.08823621
37.84856355
36.61928591
35.54884001
34.55405925
33.88315612
33.22203839
32.89647837
32.70466556
32.61867007
32.72761948
32.80971817
33.00098733
33.35171661
33.8057724
34.51930652
35.43552597
36.226469
36.28629482
32.68986207
15.93532152
31.7665901
38.61073792
39.5866334
38.84141443
37.64810273
36.44072178
35.38027589
34.39307791
33.72774272
33.04327427
32.71848877
32.52774327
32.4419852
32.64717079
32.73047697
32.92409508
33.2761541
33.70068758
34.41480306
35.31181742
36.03998826
35.95093292
32.06468487
15.63155865
31.40826295
38.18531975
39.27064079
38.6048528
37.4541013
36.26669865
35.21514486
34.2366223
33.57534817
32.93800687
32.61682772
32.42673748
32.34111639
32.4620645
32.54826252
32.74744587
33.10709388
33.60156189
34.31382222
35.1909534
35.85070535
35.61785474
31.4616703
15.40249175
31.08248755
37.79250355
38.97382668
38.37874965
37.2663406
36.09697805
35.05327916
34.08914615
33.43204554
32.70758496
32.38828214
32.19938063
32.11395861
44.80515305
49.06409613
43.80892229
46.09715406
52.84888094
49.53308987
46.69362637
54.55500699
53.15740409
46.48443377
55.22177417
54.66646311
45.91623224
40.20281507
42.87006607
55.50260204
55.26099279
44.86796382
49.23299364
40.44467717
53.94847909
55.94675042
55.52317047
42.0518731
40.49264963
43.29677017
40.2584205
53.60152529
45.73410258
47.89478083
43.17867097
41.32424146
40.90597369
45.005956
43.96945446
56.84397275
59.61626162
51.57420524
45.43313441
43.78426278
41.50948276
45.80197138
45.12726146
46.5034268
48.85308112
49.88885294
54.97449048
54.55762794
53.41558695
47.06503106
45.89963135
42.05936693
46.0485394
45.86314163
46.64828402
44.90047247
47.06937342
56.65585757
55.63734771
42.61206053
45.95432901
46.05331493
46.19855279
39.73853975
42.36688846
40.43539462
57.75030716
57.45375238
43.24240381
45.44116141
45.92019427
45.55224963
32.94564835
36.15938645
43.21038837
51.71238061
49.64900929
49.67171417
51.8593943
44.77575644
49.1844622
59.57202825
53.96743495
46.80921828
52.79194793
58.1488143
50.01254955
50.71139338
45.66751807
51.52556092
50.12204234
52.04236455
51.67690868
54.67587472
56.57978441
51.39744707
57.85596464
56.49066197
58.33425905
57.99807605
51.14191044
47.27671274
48.67552159
46.57720182
48.29139513
46.28772226
50.03110795
48.41510936
55.4457453
55.06841643
54.09342036
56.99814605
57.25426333
56.41920694
56.95331351
53.90502566
42.51227386
44.76580103
46.6157846
43.70921974
40.97282825
46.1534039
43.86108519
57.39071248
56.7707684
36.32804311
39.5460552
46.16786069
43.14875854
37.40244578
33.76098056
40.8177568
37.63651762
44.99188142
57.95578229
57.78829794
40.01458818
40.17979411
32.87960209
45.50158192
45.75235339
32.01687048
83.75957131
33.6582061
32.04505743
45.05552121
40.13949259
43.77439329
41.75728107
43.67967992
47.98130379
44.28629982
67.57189993
49.58996956
45.53869847
50.7801052
50.41210829
56.4933033
54.21119923
48.09957194
47.37007535
66.84815685
47.6467911
45.92108965
49.47620935
58.23489736
58.04604953
50.22336581
48.36069308
44.00972296
58.67041661
47.39734931
56.42105575
45.2783009
51.70621379
46.13912715
45.43542047
41.90288612
55.02201279
57.5679758
57.70633588
57.28920478
57.53976226
54.95445519
39.3188638
58.62728306
41.95050227
42.34254665
41.84444451
44.20533861
45.09912588
42.29356867
42.34096071
73.38635381
50.2481397
67.23340624
48.31965758
62.87692936
49.29935583
58.83568611
59.01803422
54.66689589
54.64239767
41.50613153
51.02242532
56.25656909
42.22382738
41.4940015
53.89004528
42.8594636
56.11922318
41.17206419
45.72298456
45.34187245
51.07213631
48.63700957
58.87712786
35.09962214
43.34627722
42.80577925
44.03383554
43.54117036
35.24033828
63.69166317
59.21692174
50.78734992
59.68201504
60.78087794
54.58111984
59.28994552
51.08472695
46.81636576
53.74675363
46.65140416
59.84382888
54.63995711
47.51171349
57.27741878
63.52417941
57.73191057
57.32147974
50.86800106
46.37872436
50.77916998
52.11886721
50.21729937
53.94463859
46.82322142
49.73303184
52.04631621
55.74771673
55.91206432
57.21025655
55.80620567
55.20978487
56.36992134
55.96606282
57.10355541
58.83650361
53.81796922
52.71476027
54.97697921
54.13904193
58.79956086
47.38070796
47.25142472
49.33142351
49.22959353
55.66449772
54.81898221
55.58411073
42.62361944
42.43641412
45.07427931
44.91880776
41.64588865
44.58389542
57.0819121
41.47196273
41.28769766
38.30499706
44.65496436
44.1959336
45.20938476
44.79875237
38.47279443
39.36250209
36.42353694
36.26066199
39.72459978
39.5692983
68.30074938
39.40480114
53.54276025
51.78027292
42.59673143
42.08156512
32.29671609
32.73534421
41.57696181
45.53042777
33.16674678
83.26823905
46.97264433
74.07301295
33.08955279
42.70287979
54.23352209
41.97909412
67.44238152
40.42317831
41.87482391
43.66490785
44.84879313
45.3231084
43.73814467
36.39263172
41.88525555
55.64569896
55.22743031
55.84416179
57.36297131
42.94444882
49.736531
55.21051416
54.03610999
39.58666254
58.34571068
58.28937283
50.12728613
44.13727306
43.74541906
46.85061296
48.35242623
43.98665711
44.2667395
57.78848319
61.41659267
59.70841113
59.53227197
54.75520346
44.63780385
44.53505358
49.99099917
49.53588115
54.36816914
45.86739582
47.38887126
47.11672446
47.72218689
47.47558649
46.02570605
46.19380931
45.84307988
41.32428898
33.47343476
39.50486383
39.04102662
76.7044743
57.66939283
49.91838093
59.05085422
63.44197688
61.85862018
55.54969678
50.41461926
48.80587959
52.29780585
50.91800329
55.94437854
55.0870761
50.67320966
50.29123733
56.10502839
47.90672517
48.00150211
47.79796032
42.20284485
42.76983853
46.70860243
44.61668486
44.63326633
55.27008798
57.1158172
57.01572099
56.95788237
56.34788194
56.72637678
56.47282887
56.92983718
56.78608671
56.35617871
43.65144995
46.62508648
46.30506765
47.02218843
46.72754768
43.80274377
43.25457709
37.21911769
37.59827683
33.83168374
34.13381257
41.50314625
45.7031576
41.28811004
42.0467003
37.74747243
38.17148971
44.31453358
57.16249005
45.23779995
50.00159579
72.85644661
40.42878482
36.93258044
34.91522962
40.35454914
33.51733381
33.76075256
32.98463911
38.72058599
59.38596179
38.06335844
40.62447071
39.7288033
38.89029872
38.44970908
32.71584468
41.50353313
40.6162559
47.82159191
31.92527
97.73369001
44.04645123
41.40697348
45.01300683
33.4653945
32.18520853
59.93152193
59.33790569
58.63859753
56.21651086
55.93586282
39.82228748
40.19874173
67.39186295
56.35097546
56.22574469
51.03190426
63.52930287
50.87791961
63.99129003
52.18068538
48.95989411
42.66893633
43.21718863
55.12507029
62.87605649
56.67777021
45.09173666
39.32698418
59.44518479
72.90367174
45.43311407
56.04456547
79.80527385
40.59595105
43.61045337
39.51998541
40.16904493
71.88828558
73.81904926
58.74361524
54.45579142
63.19056369
59.65259449
53.62797888
50.08392533
56.62972405
56.86940673
56.28518931
58.14346508
59.4171262
59.24209807
57.5192798
46.1072871
44.95237616
54.69750142
50.76113155
50.0955927
46.14089175
50.16028337
49.78267615
54.41185992
49.45043975
46.58327182
43.18934831
44.29305358
41.5217333
50.03169311
48.86359909
46.60017035
46.48624015
45.00520779
48.40070208
47.05980148
45.21284736
46.47130196
40.11948184
39.82910362
40.15960467
39.64350701
34.0027747
35.63812906
40.73388921
40.30490136
62.03646901
61.36974409
60.94452764
54.43348709
55.11411135
53.24568592
54.16783008
61.28556082
57.45967377
55.54605784
55.38766583
55.28131804
55.53902566
57.7900285
58.0201846
51.78974887
52.93126451
61.63678402
62.15375652
63.57274428
62.76040907
58.75326122
64.61019409
65.89729505
65.30774695
65.14749259
64.31388851
66.3316149
64.92416207
55.92925809
62.55289656
63.70829257
44.77655402
51.0011317
49.99693929
51.94503032
51.27254854
45.45235313
48.60852066
47.92147658
49.64792958
48.84519453
51.70331895
54.5190568
53.90528018
55.24628339
54.71405978
52.23505885
47.98699287
52.83356127
52.17195056
53.69419707
53.05114586
48.40891855
51.36802721
50.74017896
55.24598625
56.10751379
52.91112428
51.68267634
41.62096568
41.07021952
42.57574985
41.81397148
40.19058853
39.65090975
40.89530696
40.35239346
46.82978747
46.18889618
47.70025284
47.04958544
44.91546049
43.07833214
45.95648008
45.31606321
43.32843196
43.22884499
44.60205272
43.56636681
54.61461313
44.05547446
45.35947506
43.23767418
43.64978811
36.71591089
37.06875156
43.10179423
34.47131061
34.22538016
34.83348415
34.57263428
34.0678487
41.73097616
34.32026979
36.27901195
39.11071394
41.00095181
45.55134563
38.67428459
35.96140811
39.54188297
38.70795842
35.26961967
34.94934978
35.76788255
35.39112506
44.46496611
38.32281094
38.83332011
62.83729044
41.0360076
61.48452364
54.10019773
61.01633113
41.00645528
75.90387483
39.98021261
72.50287368
63.45303468
36.79577825
35.60129989
33.21636087
33.45090322
40.20021842
38.99648484
32.98171857
33.16649511
68.32921654
32.63849464
38.24168548
37.49636053
83.66259148
89.07064876
31.8702575
92.96821755
76.1408092
42.89075552
33.39406331
82.85208824
54.36245787
91.854704
58.18353455
32.32671666
42.91670132
40.74837906
39.32357905
66.13557046
65.58122938
54.68475225
48.68016545
48.27842417
66.45641238
39.48269217
43.592146
40.57377163
57.71588763
57.81723887
55.39031415
46.84877955
45.9719426
50.28491911
57.20644498
46.58634453
46.83915408
41.71301539
42.09132832
44.76299619
52.064817
56.46290737
59.59499888
49.33596539
48.33373575
48.24995193
48.35004182
48.34801925
49.48248061
41.66560663
40.42625639
43.80169368
50.79953996
52.75630001
57.62004794
41.28001757
40.86883514
35.76441681
60.50852047
62.34845856
55.49062416
48.21041994
48.06078284
48.10638671
47.90306008
44.48222656
45.19499886
45.54395257
46.61691437
48.78522056
37.26152845
41.84707351
41.41537291
55.13166775
51.6020482
41.98219501
32.52734415
32.57603261
33.93486779
48.23185389
69.55568689
61.44257651
39.46769021
44.28974445
42.14100752
31.98535758
33.58935247
32.45110799
32.49265593
32.07738543
68.2927583
55.89292146
45.76065663
48.40634415
65.82217883
40.32552647
40.08366324
48.12763848
57.8162536
48.24630934
46.51264133
48.93306953
43.7824914
41.71688624
40.48593249
76.40757667
79.57471146
81.35577026
69.02880008
78.29477294
43.55023641
43.94071762
47.46156939
69.59747745
63.7425677
60.7235862
73.05235795
69.7304333
41.75948082
47.6829466
45.9651667
58.24535421
57.36746012
47.00628308
51.41744651
50.42207031
41.40517704
54.58716407
42.9792247
43.6092234
52.64701207
42.01070106
43.39704182
63.32742003
64.17177539
59.97187592
60.12838902
58.74791376
58.58163811
55.25179288
56.47849075
56.03050596
58.38633154
58.13218979
58.77838024
50.03027518
51.41268348
57.42424187
59.02171553
65.57566817
61.33093685
65.58191518
65.96649579
62.75147695
42.86082305
45.41710562
44.82369604
49.6248322
49.3532321
46.10661888
42.39853182
42.11884957
44.32029995
43.9168682
50.7052381
53.27366441
52.89147884
55.61544961
55.21845526
53.35019431
47.16330607
50.32652672
50.00596492
52.50740944
52.13273299
49.28038422
43.70863436
44.28373196
47.77729898
46.84138028
42.95195474
43.52102219
47.67523944
48.24486388
49.64202796
40.52467017
40.35386028
41.87843527
41.65878128
37.81644608
40.10621756
39.96584859
48.89619025
46.88167681
47.4781013
53.75200056
53.1589876
44.30291517
45.01372451
54.38289672
52.89805601
53.20268288
55.34803584
44.71587168
45.80843473
42.38621899
41.98533179
37.62959231
38.91867064
42.86812373
42.50618024
34.12962545
34.19549644
36.53876854
36.13099894
33.93685869
34.02453714
68.42405736
32.29137786
33.81352175
32.87860872
109.4935983
32.16990064
42.3535288
71.23429945
64.24211844
32.12936391
32.16818362
33.24536333
81.32708161
87.42282818
84.68139611
67.87603912
32.96421045
32.04486709
32.08295987
46.20212687
39.59320442
39.52821248
65.74306338
64.71800393
50.67018521
48.42401726
41.23291937
58.87538799
61.43973484
63.63669323
44.86084057
63.90715873
56.28454424
64.3237749
62.66295129
47.06059451
45.50428074
46.40329296
52.13652168
54.53857444
54.98486639
53.83628801
54.15344133
60.89579351
60.36503338
60.73645938
59.53422772
59.90721438
60.29090598
50.01083221
47.00532563
47.32610834
46.51961127
46.72538545
50.19467015
62.74901995
61.75278095
61.81591323
61.15556898
61.48098862
62.28463819
50.31518731
48.34919014
48.71885281
47.65645453
47.99683092
50.28004011
53.18210568
53.1922638
52.39122779
52.50360858
37.32378932
39.9053645
39.76221459
33.92261586
36.29471365
36.16543747
36.68960722
36.44719695
34.01120622
69.60945554
71.00565242
62.5370705
70.91436659
32.98175672
32.92231236
33.13360679
33.06670228
32.50062393
34.28102492
32.64133975
32.78912336
33.60686393
35.8437988
35.72837402
36.05759793
35.94711424
33.67719726
33.28336508
33.19570199
34.41740979
33.45204427
32.97390681
71.46381775
68.49690112
52.52461177
71.24020842
35.39208166
34.23946532
38.75169707
32.7774499
34.82269983
34.68665777
31.94718427
96.88113782
97.87881055
63.68865316
90.63294018
81.74891101
32.34094431
32.4061488
33.53397566
32.12561533
64.67416965
71.51629404
65.15149392
68.06614489
62.94878736
53.30085222
69.71566002
63.96465483
56.93660479
56.23749378
67.52998904
51.47181373
57.75953065
57.37866753
54.11669745
60.24682808
53.79192782
57.37384996
65.24539113
66.78241828
58.45396731
63.9192177
68.23726849
62.47462821
64.27158712
61.28649821
66.13550091
76.16687872
75.79989744
74.15447599
48.08427313
66.81777517
60.19195184
74.39310391
76.36449797
52.10788728
57.07077881
62.43967195
78.39943335
65.65219107
49.40213442
52.46617602
68.5305559
64.26081012
69.08130057
61.82580399
65.22918007
68.42359341
70.30467861
69.50502779
56.27423442
56.90195834
57.24219691
55.82234398
56.04129273
55.84990653
58.58889078
58.68980868
59.05464069
57.8260322
58.16865443
58.08881267
45.70602144
47.01117278
47.00976056
50.44916051
50.32775437
47.82570379
51.40250897
51.25952345
50.33396839
49.99284439
50.67613356
48.0114098
46.57672291
46.44574407
46.9456932
46.77625147
47.08242931
57.86445334
52.00244784
42.27285741
59.9394104
59.78014675
59.32959728
45.44879246
57.80752632
57.01898401
42.33566597
42.5673374
49.84717496
62.7390127
60.60970338
57.39287386
56.94952621
55.89758104
58.40750213
57.91671651
57.61354721
66.87814193
66.58501571
60.57416031
67.42199703
69.65956156
62.62834264
66.60420419
66.83779497
63.3425041
61.81048509
61.76800136
61.76686685
61.79860067
63.05209875
65.04085433
65.39188306
65.04620626
68.84047006
68.64410145
68.8990879
68.92893342
64.88263502
66.64877331
68.07274834
69.8813176
66.79228351
48.04906151
47.86593964
44.74944184
45.62873467
48.92083424
48.73019139
42.96467999
42.66913597
43.57931107
43.26073087
54.04394156
53.65517032
51.18344634
52.78687594
54.82714963
54.43505187
51.03893311
50.69748494
47.60906056
48.81936944
51.75767631
51.40074402
51.26564578
49.8707869
50.2741331
49.08579908
49.47680752
50.8619366
52.30309511
51.41717196
51.78202264
50.68277607
51.06830849
52.09551507
41.43133667
38.11911079
38.29577282
37.80037921
37.96258536
41.25165365
42.2589838
38.8811761
39.14263028
38.47120124
38.66760578
42.02263165
39.99784732
36.87139201
37.03782173
36.59385362
36.7578809
39.8561081
40.71291094
37.48584137
37.64883445
37.16917384
37.3399684
40.54116115
40.96160687
40.76633301
46.6176164
44.26108626
44.47604374
43.8200487
44.01592839
46.3944504
41.41394234
41.2009671
39.19125503
39.11741088
44.60964659
42.30796415
42.38414363
39.52854921
40.05441723
43.80843292
45.7640094
43.39544754
43.55713319
42.96511281
43.07985081
45.4991321
39.69413036
39.59189476
52.98283507
52.70673387
54.19377944
46.20086942
48.98658687
44.40488912
52.10143374
52.63704685
51.52204677
51.85757424
44.90059644
43.25762601
48.44739711
46.03751021
51.74002469
52.01155309
43.41230176
36.78446958
39.26250008
39.12276904
39.59419867
39.46231484
36.98447448
34.40798368
34.28394932
34.74941603
34.6382113
33.97911964
33.59873143
34.63995976
37.81453209
37.12127394
38.79717355
38.49066366
36.21138879
36.74062531
34.95037981
35.84927682
36.26830399
39.29029389
36.31924572
36.50398168
35.98674776
36.24210111
39.20861873
35.16563922
35.04578143
35.63200647
35.50287454
60.12698424
45.03883153
46.52995108
42.26899238
43.59955846
61.17898023
59.66056908
58.76163283
48.42310669
53.18323829
61.75058011
71.24931634
52.65539133
56.2454383
45.76060646
49.2499788
73.03338402
32.74142282
32.68485116
32.85596346
32.81103983
33.43608365
33.75423351
35.86024725
32.46576986
32.44054365
32.61044105
32.55245344
33.30310468
35.40847339
35.27549722
35.62534398
35.50325422
33.36181403
33.05104507
34.96187025
34.6880095
35.1960659
35.03295251
33.09039456
66.93648871
34.55015779
34.29985068
32.47693728
81.77241089
103.3849111
106.4257705
103.5693425
103.5173283
85.75607089
31.98529685
85.44538671
67.16435636
70.84076462
33.31451504
32.21122844
32.27670068
82.46016726
89.42212096
88.02658836
75.41966987
81.06828485
93.39807148
90.31961331
62.80773817
86.22111901
77.27948684
32.17772884
32.01515831
32.6928163
36.70835163
36.74407399
36.83543227
36.75911793
36.82040945
36.87354425
36.84374893
36.92858266
36.93113657
36.95445792
37.02512996
36.99400324
37.0429389
37.07891165
37.03094088
37.08292777
37.08689207
37.03717869
37.08364939
37.0582909
37.02142937
37.04530666
36.98673458
36.97400798
36.96358837
36.88324213
36.91026008
36.85774366
36.79096518
36.86202626
36.59096434
36.6672854
36.71901561
36.70063616
36.81994357
36.81180556
36.86190713
36.98972138
36.93599457
37.03018826
37.1355027
37.04360195
37.16276422
37.21945465
37.1027939
37.2289872
37.22936827
37.11179343
37.22134825
37.17343232
37.07863644
37.15071094
37.06131395
36.99865986
37.02629424
36.91087676
36.88482953
36.871316
36.75537416
36.77466954
36.52120373
36.6654008
36.6595977
36.71917926
36.8963718
36.83159549
36.95953842
37.15333696
37.01958355
37.2161754
37.38565822
37.18096175
37.43156306
37.5302954
37.27550526
37.55044216
37.54989345
37.2830186
37.52696532
37.42944352
37.22236824
37.38915256
37.23933802
37.09392683
37.182815
37.00801678
36.92795289
36.95045335
36.78571088
36.75739949
36.51127933
36.71685637
36.67270179
36.79454779
37.05581683
36.92858937
37.15215034
37.46526303
37.21525627
37.57351876
37.90199622
37.47875785
37.99999387
38.23154221
37.64475462
38.26086393
38.25159408
37.65183278
38.17074583
37.95027721
37.53479164
37.86614387
37.58638198
37.30698609
37.48980325
37.21076144
37.04767239
37.12266358
36.880267
36.80266077
36.54436052
36.82597132
36.73928457
36.93511666
37.31620369
37.1113899
37.46328626
37.98775471
37.57192266
38.1953767
38.95924599
38.08544391
39.25062536
40.15845749
38.49423663
40.18379325
39.95197279
38.46191493
39.57374262
38.96272868
38.15085955
38.75411766
38.18324792
37.71038551
38.01069611
37.5478587
37.2818288
37.40945275
37.04528179
36.91397879
36.61075557
36.9826973
36.86120551
37.12926138
37.66328369
37.39549695
37.88298516
38.74665989
38.15856519
39.1394274
41.39899188
39.34412935
40.56474047
41.12280243
40.0547208
41.78879054
41.80941573
40.52763903
41.2065157
40.49951447
40.00222579
40.23875786
39.08451124
38.38192277
38.78040262
38.02565466
37.65533035
37.81471484
37.28332891
37.09797636
36.70590368
37.17289888
37.02718153
37.35909112
38.05370125
37.7592145
38.34776299
39.55929243
38.95814983
39.6614349
40.27644546
39.96076982
42.90559736
43.61212477
43.07430486
45.35818969
43.88534444
42.47915307
42.20571634
40.22273777
39.35641003
39.74350514
38.61578665
38.16669913
38.31470765
37.5781781
37.352846
36.82169833
37.37778908
37.22365789
37.59925575
38.42722878
38.14934138
38.77906709
40.22401327
39.74062232
40.5508279
41.35056857
41.1178135
45.20380551
46.43088547
46.20838156
49.99201859
47.15319427
45.96151945
44.11214335
41.39143153
40.52474558
40.74137785
39.23473483
38.77219664
38.84165641
37.89478831
37.65689099
36.94935922
37.5839419
37.42945013
37.83497747
38.76741954
38.51533755
39.16099192
40.76064979
40.36680678
41.22054881
42.11694421
41.94226507
46.31999011
47.80697051
47.73324905
52.67703714
49.47677684
48.73859221
45.58725315
42.39406802
41.67055465
41.61440376
39.79654305
39.38623932
39.32338715
38.19223594
37.96977206
37.08320921
37.78534043
37.63441172
38.06103414
39.07917598
38.84728677
39.50713463
41.24088695
40.88220189
41.78589674
42.76122011
42.59663327
46.69025178
47.35426638
47.51480375
53.90564834
50.79272366