/*--------------------------------*- C++ -*----------------------------------*\
| =========                 |                                                 |
| \\      /  F ield         | OpenFOAM: The Open Source CFD Toolbox           |
|  \\    /   O peration     | Version:  v1912                                 |
|   \\  /    A nd           | Website:  www.openfoam.com                      |
|    \\/     M anipulation  |                                                 |
\*---------------------------------------------------------------------------*/
FoamFile
{
    version     2.0;
    format      ascii;
    class       surfaceScalarField;
    location    "2";
    object      meshPhi;
}
// * * * * * * * * * * * * * * * * * * * * * * * * * * * * * * * * * * * * * //

dimensions      [0 3 -1 0 0 0 0];
oriented        oriented;


internalField   nonuniform List<scalar> 
25162
(
0
0
0
0
0
0
0
0
0
0
0
0
0
0
0
0
0
0
0
0
0
0
0
0
0
0
0
0
0
0
0
0
0
0
0
0
0
0
0
0
0
0
0
0
0
0
0
0
0
0
0
0
0
0
0
0
0
0
0
0
0
0
0
0
0
0
0
0
0
0
0
0
0
0
0
0
0
0
0
0
0
0
0
0
0
0
0
0
0
0
0
0
0
0
0
0
0
0
0
0
0
0
0
0
3.680537165e-09
1.204642273e-07
-1.348977046e-06
0
-5.657419149e-09
1.146832431e-06
0
0
0
0
0
0
0
0
0
0
0
0
0
0
0
0
0
0
0
0
0
0
0
0
0
0
0
0
0
0
0
0
0
0
0
0
0
0
0
0
0
0
0
0
0
0
0
0
0
0
0
0
0
0
0
0
0
0
0
0
0
0
0
0
0
0
-1.695528806e-08
-2.010952458e-06
1.620891586e-06
1.268923189e-05
-6.358938261e-06
-0.0001114951535
1.483329272e-05
0.0001575662239
-6.943568785e-06
-0.0002925266662
1.045055235e-05
0.000328061358
3.186930863e-06
-0.000381500803
-7.918418258e-06
0.0003781862993
8.086886457e-06
-0.0003051404821
-1.563985719e-05
0.0002633646955
3.456368479e-06
-0.0001179115977
-9.082569327e-06
7.352348662e-05
0
-2.171768419e-06
-2.317611035e-07
0
0
0
0
0
0
0
0
0
0
0
0
0
0
0
0
0
0
0
0
0
0
0
0
0
0
0
0
0
0
0
0
0
0
0
0
0
0
0
0
0
0
0
0
0
0
0
0
0
0
0
-8.437827177e-07
-4.353592462e-06
4.581617625e-06
3.092481402e-05
-3.488780757e-05
-0.0002664322121
5.545240265e-05
0.0003799760087
-5.393060127e-05
-0.0007588998188
6.76624857e-05
0.0008837911556
-8.454147718e-06
-0.001204235267
2.198012001e-07
0.00128345211
4.73775825e-05
-0.001409830612
-7.068156483e-05
0.001410657192
6.07205756e-05
-0.001282402109
-8.462001938e-05
0.001197492687
3.910542948e-05
-0.0008422307609
-5.349093743e-05
0.0007023907179
1.414773938e-05
-0.0002936699768
-2.178854219e-05
0.0001822493316
0
-4.459772396e-06
-6.822485237e-07
0
0
0
0
0
0
0
0
0
0
0
0
0
0
0
0
0
0
0
0
0
0
0
0
0
0
0
0
0
0
0
0
0
0
0
0
0
0
0
0
0
0
0
0
0
2.764636263e-07
1.672381321e-06
-4.287061517e-05
-0.0002003308459
6.550829858e-05
0.000341183603
-0.00013369077
-0.0008957018739
0.0001611490074
0.001103432782
-9.460975742e-05
-0.001711104188
9.661801511e-05
0.001891385652
4.850559885e-05
-0.00231475621
-6.959514056e-05
0.002410675816
0.0001619355602
-0.002559408384
-0.0001933900202
0.002563876352
0.0001798871644
-0.002436263093
-0.000216194102
0.002342386307
0.0001114376852
-0.001895055982
-0.0001357215812
0.001695369804
6.810584041e-05
-0.001050244396
-8.010619814e-05
0.0008270446164
1.374289941e-05
-0.0002473542054
-1.926606149e-05
0.0001224744285
0
0
0
0
0
0
0
0
0
0
0
0
0
0
0
0
0
0
0
0
0
0
0
0
0
0
0
0
0
0
0
0
0
0
0
0
0
0
0
0
0
0
-9.55510787e-06
-2.397248227e-05
1.620340988e-05
0.0001028903679
-0.0001449084007
-0.0006147309323
0.0001724435069
0.0008515192367
-0.0002516636196
-0.001671500325
0.0002570025075
0.001952257329
-8.325790703e-05
-0.002632898229
9.836807529e-05
0.002780502378
0.0001252749801
-0.003096511144
-0.0001335898845
0.003141380755
0.0002590249096
-0.003185325889
-0.0002652370507
0.003186285804
0.0003284538232
-0.003160262038
-0.0003556803016
0.003113856082
0.000295859057
-0.002851458347
-0.0003229589888
0.002654588889
8.667125318e-05
-0.001860584421
-9.781494097e-05
0.001569867003
3.208951078e-05
-0.0007145907031
-3.516656309e-05
0.0004754441374
-3.210668548e-05
1.8263605e-06
-3.065122831e-06
4.883274051e-07
0
0
0
0
0
0
0
0
0
0
0
0
0
0
0
0
0
0
0
0
0
0
0
0
0
0
0
0
0
0
0
0
0
0
0
2.425637455e-07
1.802053551e-08
6.852214072e-07
-3.986959856e-05
-0.0001210689746
4.915931912e-05
0.000271539425
-0.0002522853632
-0.0009941303762
0.0002598931239
0.001318195015
-0.0002740578966
-0.002256826056
0.0002801157896
0.002536794007
-6.377698706e-05
-0.003171598077
2.502907383e-05
0.003306656317
9.596330519e-05
-0.003423633458
2.284628724e-05
-4.354017756e-05
0.001652245253
0.001696118791
-0.001643453432
0.0001296228094
-0.0001301951587
0.001644025781
-0.001693977871
0.000465128519
0.003406122509
-0.001727725446
-0.0002104292529
-0.0002391184582
-0.003235197337
0.0003446962243
-0.00037172176
0.0031155491
0.0001424922983
-0.002451685444
-0.0001612094349
0.002153250703
4.181315884e-05
-0.001156005988
-4.173781748e-05
0.0008487342282
-0.0001688390341
1.097820967e-05
-1.34031521e-05
5.343152033e-05
0
0
0
0
0
0
0
0
0
0
0
0
0
0
0
0
0
0
0
0
0
0
0
0
0
0
0
0
0
0
0
0
0
-1.016503581e-06
0
2.172195619e-06
6.3220711e-06
9.666095473e-06
-6.901424726e-05
-0.000205705722
7.147313786e-05
0.0004021453325
-0.0002998750739
-0.001272357515
0.0003048489075
0.001615716589
-0.000280422775
-0.002612295578
0.0002783671499
0.002890438249
1.651125075e-05
-0.003408537248
-2.516774387e-05
0.00344983037
6.512796952e-05
-0.001745403909
-6.231530015e-05
0.00174259124
-0.001729675741
0.0001933211555
-0.0001906328026
0.001726987388
-0.003423047017
0.0004253076635
-0.0004361863304
0.003357008411
0.0001832115418
-0.002771707344
-0.0001893745595
0.002474124721
4.408234513e-05
-0.00144199387
-4.612441567e-05
0.001101712126
-0.0003001572735
1.803932247e-05
-1.985333548e-05
0.0001313107055
0
0
0
0
0
0
0
0
0
0
0
0
0
0
0
0
0
0
0
0
0
0
0
0
0
0
0
0
0
0
0
0
0
-2.812119018e-06
0
3.558912236e-06
1.743380729e-05
1.968553516e-05
-8.385300374e-05
-0.0002596333033
8.652006308e-05
0.0004780783371
-0.0003206785195
-0.001406527865
0.000323917384
0.001764059198
-0.0002746657547
-0.002776551711
0.0002741807522
0.003047026163
3.619508458e-05
-0.003501906672
-3.759499283e-05
0.003517788592
7.186416417e-05
-0.001757155102
-7.185602313e-05
0.001757146961
-0.001767419926
0.0001851307882
-0.0001842092581
0.001766498395
-0.003531745573
0.0004494766457
-0.0004514697503
0.003490317995
0.0002130909494
-0.002961119904
-0.0002182478853
0.002671742858
4.822256463e-05
-0.001627386948
-4.943308359e-05
0.001269583146
-0.0003775990968
2.166685308e-05
-2.22432169e-05
0.0001834556515
0
0
0
0
0
0
0
0
0
0
0
0
0
0
0
0
0
0
0
0
0
0
0
0
0
0
0
0
0
0
0
0
0
-4.299622125e-06
0
5.325238199e-06
2.66622559e-05
2.974745354e-05
-9.317963492e-05
-0.0002971380714
9.58800525e-05
0.0005303687957
-0.0003321863399
-0.00149872049
0.0003353666141
0.001866120777
-0.0002735942
-0.002892137754
0.0002731499001
0.0031610583
4.039932735e-05
-0.003593837273
-4.118728145e-05
0.003602878173
7.196268768e-05
-0.001797511324
-7.136945457e-05
0.0008973477135
0.0008995703773
-0.00180799087
0.0001815632841
-0.0001809305093
0.001807358095
-0.00361179702
0.0004469437468
-0.0004436834761
0.00356196141
0.0002162801956
-0.003001515546
-0.0002148337474
0.002702592426
4.902732059e-05
-0.001636914462
-4.914981879e-05
0.001275683931
-0.0003781362781
2.177654884e-05
-2.160746784e-05
0.0001829765391
0
0
0
0
0
0
0
0
0
0
0
0
0
0
0
0
0
0
0
0
0
0
0
0
0
0
0
0
0
0
0
0
0
-6.449691915e-06
0
7.755224068e-06
4.013772735e-05
4.407984266e-05
-0.0001043501698
-0.0003433850254
0.0001073402205
0.0005934062917
-0.000344935967
-0.00160575487
0.0003482009961
0.001983669751
-0.000271516864
-0.003022880166
0.0002708513612
0.003289329618
4.371561533e-05
-0.003695571328
-4.438352773e-05
0.003699370871
7.155602253e-05
-0.001846397756
-7.137296339e-05
0.0009222829914
0.0009239317057
-0.00185250516
0.0001791185705
-0.0001785155083
0.001851902098
-0.003688163319
0.0004242902173
-0.0004148443535
0.003598484766
0.0001955321703
-0.00292020027
-0.0001985449285
0.002616848251
4.52519008e-05
-0.001522304797
-4.499227834e-05
0.001163687451
-0.0003051700229
1.862593911e-05
-1.793985549e-05
0.0001312595276
0
0
0
0
0
0
0
0
0
0
0
0
0
0
0
0
0
0
0
0
0
0
0
0
0
0
0
0
0
0
0
0
0
-9.36457316e-06
0
9.970632618e-06
5.851242282e-05
6.068877363e-05
-0.0001171282901
-0.00039745717
0.0001209611645
0.0006650866653
-0.000358382784
-0.001721062578
0.000362174214
0.00210855178
-0.0002683203798
-0.00315644774
0.0002671370321
0.003418668936
4.595522202e-05
-0.003792552812
-4.597535593e-05
0.003792858124
7.088329989e-05
-0.001893444933
-7.08789205e-05
0.0009456298179
0.0009478107353
-0.00189315575
0.0001765411205
-0.0001764126753
0.001893027305
-0.003711993701
0.0003861467799
-0.0003738574679
0.003565453718
0.0001737469968
-0.002781982732
-0.0001515619258
0.002427890846
4.074278074e-05
-0.001305013296
-3.750053613e-05
0.0009594406642
-0.00020171657
1.345165747e-05
-1.193507694e-05
6.590656373e-05
0
0
0
0
0
0
0
0
0
0
0
0
0
0
0
0
0
0
0
0
0
0
0
0
0
0
0
0
0
0
0
0
0
-1.431660901e-05
0
1.969886361e-05
9.089611393e-05
0.0001039917718
-0.0001319088883
-0.0004713701176
0.0001421463591
0.0007542715022
-0.000374542105
-0.001860141801
0.00037686593
0.002256316691
-0.000262305401
-0.00330788697
0.0002691706383
0.003559026554
4.648276432e-05
-0.003886723056
-4.534688937e-05
0.001939942149
0.001945645032
3.45913972e-05
-0.0009683123736
-3.432751233e-05
0.0009680484887
5.189560822e-05
-0.0004821859741
-5.103034421e-05
0.000964163122
-0.0004828424119
-0.001930863082
0.0001760948794
-0.0003600927893
0.003868794881
-0.001936101985
0.0001821680961
0.0003422517746
-0.003655482378
-0.0003174479235
0.003434998159
0.0001224911064
-0.002525836258
-0.0001159460469
0.002156401635
3.355386197e-05
-0.0010465921
-3.324961715e-05
0.0007251226627
-8.286896791e-05
5.639764402e-06
-4.567619609e-06
8.190572343e-06
0
0
0
0
0
0
0
0
0
0
0
0
0
0
0
0
0
0
0
0
0
0
0
0
0
0
0
0
0
0
0
0
0
-2.178496943e-05
0
1.763116115e-05
0.0001235035411
0.0001134400358
-0.0001576084183
-0.0005571036807
0.0001523179047
0.0008711177567
-0.000390513785
-0.002037545613
0.0003851145533
0.002445326566
-0.0002474396435
-0.003485503206
0.0002514389792
0.003722290678
5.054334817e-05
-0.003981887616
-5.054334817e-05
0.00198845783
0.001993429786
3.68643279e-05
-0.00198845783
-7.539957394e-05
3.853524605e-05
0.0009930296724
0.0009954281578
0.0001288746315
-0.0009930297773
-0.0001288744741
0.00198845783
-0.0009954282103
-0.003981887616
0.0003704923087
-0.0003671406895
0.003969915703
0.000276648415
-0.003495493399
-0.0002652664332
0.003227900364
9.931926671e-05
-0.002174215169
-8.19044156e-05
0.001790271802
2.845680247e-05
-0.0007271056582
-3.031746077e-05
0.0004666581978
-1.140123363e-05
1.010577797e-06
-4.673873711e-07
0
0
0
0
0
0
0
0
0
0
0
0
0
0
0
0
0
0
0
0
0
0
0
0
0
0
0
0
0
0
0
0
0
0
-1.064036656e-05
0
3.763729594e-06
5.723489546e-05
3.588592862e-05
-0.0001155884362
-0.0004040332447
9.847120636e-05
0.0006820553198
-0.0003406939837
-0.001789205399
0.0003164666456
0.002196097579
-0.0002681701217
-0.003294422724
0.0002706014303
0.0035726711
2.554580625e-05
-0.004038981285
-2.952258579e-06
0.004075839803
7.539957395e-05
-0.0040771986
-0.0001574865482
0.0040771986
8.208697428e-05
0.0002644323777
-0.0040771986
-0.0002644323777
0.0040771986
0.0003419824792
-0.004000289439
-0.0003256711179
0.00388373955
0.0002111363383
-0.00318936401
-0.0001930181868
0.002861338259
5.782716838e-05
-0.001737041838
-5.395327732e-05
0.001360393736
2.203802988e-05
-0.000418161109
-1.733446419e-05
0.000218523039
0
0
0
0
0
0
0
0
0
0
0
0
0
0
0
0
0
0
0
0
0
0
0
0
0
0
0
0
0
0
0
0
0
0
0
0
0
-8.985329846e-08
0
0
3.159724861e-07
0
-4.500783211e-05
-0.0001379180278
2.976401159e-05
0.0003112401181
-0.0002210901685
-0.001158441003
0.000184887241
0.001509662498
-0.0002506256542
-0.002572079755
0.0002331247951
0.00288594964
-5.795038511e-05
-0.003590581334
7.223991824e-05
0.00373918525
0.0001332062159
-0.003968602607
-0.0001141745602
0.003990464938
0.00024468616
-0.003930850943
-0.0002228377744
0.003863408482
0.0002503140848
-0.003461559022
-0.0002183115669
0.003252346779
0.0001313027292
-0.002422093782
-0.0001108583664
0.002097939835
4.067166627e-05
-0.001109378307
-3.582961556e-05
0.0008096914027
9.028888076e-06
-0.0001494431862
-5.836401752e-06
4.110105932e-05
0
0
0
0
0
0
0
0
0
0
0
0
0
0
0
0
0
0
0
0
0
0
0
0
0
0
0
0
0
0
0
0
0
0
0
0
0
0
0
0
0
0
-2.65279032e-06
-3.117519771e-07
4.120206551e-07
2.355624303e-05
-8.215546773e-05
-0.000411942344
5.460270844e-05
0.0006292061081
-0.0001549978647
-0.001408007545
0.0001248066151
0.00167432973
-8.739716591e-05
-0.002367123073
8.299701054e-05
0.00254273265
4.689553382e-05
-0.002865090624
-2.702459678e-05
0.002902892178
0.0001309578586
-0.00281284017
-9.949498945e-05
0.002717045062
0.0001200431671
-0.002249029561
-9.149263748e-05
0.002041285414
5.845835434e-05
-0.001325529912
-4.489109118e-05
0.001077152818
1.970130602e-05
-0.0004088087982
-1.3960264e-05
0.0002392175688
1.024179605e-07
-1.034413126e-06
0
0
0
0
0
0
0
0
0
0
0
0
0
0
0
0
0
0
0
0
0
0
0
0
0
0
0
0
0
0
0
0
0
0
0
0
0
0
0
0
0
0
0
0
0
0
0
0
-5.398077223e-06
-1.054834377e-05
7.841748813e-07
4.912777951e-05
-4.401332831e-05
-0.0003436155654
2.487996181e-05
0.000478676108
-5.013799455e-05
-0.0008937497262
3.646818365e-05
0.001014241134
-7.884233242e-06
-0.001258204924
1.072678503e-05
0.001291816984
2.918417259e-05
-0.001239390654
-1.612837785e-05
0.001173770685
3.093368983e-05
-0.0008645981376
-1.918693086e-05
0.0007361143945
1.518694332e-05
-0.0003409836999
-8.499852894e-06
0.0002250811431
9.038372888e-07
-1.301392343e-05
-2.659010302e-09
1.404295532e-07
0
0
0
0
0
0
0
0
0
0
0
0
0
0
0
0
0
0
0
0
0
0
0
0
0
0
0
0
0
0
0
0
0
0
0
0
0
0
0
0
0
0
0
0
0
0
0
0
0
0
0
0
0
0
-1.179560694e-07
0
0
1.748298641e-06
-4.992106968e-06
-4.797320069e-05
7.719265238e-07
7.434185436e-05
-4.421216207e-06
-0.0001446865882
1.589757085e-06
0.0001569785834
9.301715464e-07
-0.0001454386047
-1.67776582e-07
0.0001267371972
1.746379269e-06
-5.02982841e-05
-1.48689555e-07
2.772677034e-05
0
0
0
0
0
0
0
0
0
0
0
0
0
0
0
0
0
0
0
0
0
0
0
0
0
0
0
0
0
0
0
0
0
0
0
0
0
0
0
0
0
0
0
0
0
0
0
0
0
0
0
0
0
0
0
0
0
0
0
0
0
0
0
0
0
0
0
0
0
0
0
0
0
0
0
0
0
0
0
0
0
0
0
0
0
0
0
0
0
0
0
0
0
0
0
0
0
0
0
0
0
0
0
0
0
0
0
0
0
0
0
0
0
0
0
0
0
0
0
0
0
0
0
0
0
0
0
0
0
0
0
0
0
0
0
0
0
0
0
0
0
0
0
0
0
0
0
0
0
0
0
0
0
0
0
0
0
0
0
0
0
0
0
0
0
0
0
0
0
0
0
0
0
0
0
0
0
0
0
0
0
0
0
0
0
0
0
0
0
0
0
0
0
0
0
0
0
0
0
0
0
0
0
0
0
0
0
0
0
0
0
0
0
0
0
0
0
0
0
0
0
0
0
0
0
0
0
0
0
0
0
0
0
0
0
0
0
0
0
0
0
0
0
0
0
0
0
0
0
0
0
0
0
0
0
0
0
0
0
0
0
0
0
0
0
0
0
0
0
0
0
0
0
0
0
0
0
0
0
0
0
0
0
0
0
0
0
0
0
0
0
0
0
0
0
0
0
0
0
0
0
0
0
0
0
0
0
0
0
0
0
0
0
0
0
0
0
0
0
0
0
0
0
0
0
0
0
0
0
0
0
0
0
0
0
0
0
0
0
0
0
0
0
0
0
0
0
0
0
0
0
0
0
0
0
0
0
0
0
0
0
0
0
0
0
0
0
0
0
0
0
0
0
0
0
0
0
0
0
0
0
0
0
0
0
0
0
0
0
0
0
0
0
0
0
0
0
0
0
0
0
0
0
0
0
0
0
0
0
0
0
0
0
0
0
0
0
0
0
0
0
0
0
0
0
0
0
0
0
0
0
0
0
0
0
0
0
0
0
0
0
0
0
0
0
0
0
0
0
0
0
0
0
0
0
0
0
0
0
0
0
0
0
0
0
0
0
0
0
0
0
0
0
0
0
0
0
0
0
0
0
0
0
0
0
0
0
0
0
0
0
0
0
0
0
0
0
0
0
0
0
0
0
0
0
0
0
0
0
0
0
0
0
0
0
0
0
0
0
0
0
0
0
0
0
0
0
0
0
0
0
0
0
0
0
0
0
0
0
0
0
0
0
0
0
0
0
0
0
0
0
0
0
0
0
0
0
0
0
0
0
0
0
0
0
0
0
0
0
0
0
0
0
0
0
0
0
0
0
0
0
0
0
0
0
0
0
0
0
0
0
0
0
0
0
0
0
0
0
0
0
0
0
0
0
0
0
0
0
0
0
0
0
0
0
0
0
0
0
0
0
0
0
0
0
0
0
0
0
0
0
0
0
0
0
0
0
0
0
0
0
0
0
0
0
0
0
0
0
0
0
0
0
0
0
0
0
0
0
0
0
0
0
0
0
0
0
0
0
0
0
0
0
0
0
0
0
0
0
0
0
0
0
0
0
0
0
0
0
0
0
0
0
0
0
0
0
0
0
0
0
0
0
0
0
0
0
0
0
0
0
0
0
0
0
0
0
0
0
0
0
0
0
0
0
0
0
0
0
0
0
0
0
0
0
0
0
0
0
0
0
0
0
0
0
0
0
0
0
0
0
0
0
0
0
0
0
0
0
0
0
0
0
0
0
0
0
0
0
0
0
0
0
0
0
0
0
0
0
0
0
0
0
0
0
0
0
0
0
0
0
0
0
0
0
0
0
0
0
0
0
0
0
0
0
0
0
0
0
0
0
0
0
0
0
0
0
0
0
0
0
0
0
0
0
0
0
0
0
0
0
0
0
0
0
0
0
0
0
0
0
0
0
0
0
0
0
0
0
0
0
0
0
0
0
0
0
0
0
0
0
0
0
0
0
0
0
0
0
0
0
0
0
0
0
0
0
0
0
0
0
0
0
0
0
0
0
0
0
0
0
0
0
0
0
0
0
0
0
0
0
0
0
0
0
0
0
0
0
0
0
0
0
0
0
0
0
0
0
0
0
0
0
0
0
0
0
0
0
0
0
0
0
0
0
0
0
0
0
0
0
0
0
0
0
0
0
0
0
0
0
0
0
0
0
0
0
0
0
0
0
0
0
0
0
0
0
0
0
0
0
0
0
0
0
0
0
0
0
0
0
0
0
0
0
0
0
0
0
0
0
0
0
0
0
0
0
0
0
0
0
0
0
0
0
0
0
0
0
0
0
0
0
0
0
0
0
0
0
0
0
0
0
0
0
0
0
0
0
0
0
0
0
0
0
0
0
0
0
0
0
0
0
0
0
0
0
0
0
0
0
0
0
0
0
0
0
0
0
0
0
0
0
0
0
0
0
0
0
0
0
0
0
0
0
0
0
0
0
0
0
0
0
0
0
0
0
0
0
0
0
0
0
0
0
0
0
0
0
0
0
0
0
0
0
0
0
0
0
0
0
0
0
0
0
0
0
0
0
0
0
0
0
0
0
0
0
0
0
0
0
0
0
0
0
0
0
0
0
0
0
0
0
0
0
0
0
0
0
0
0
0
0
0
0
0
0
0
0
0
0
0
0
0
0
0
0
0
0
0
0
0
0
0
0
0
0
0
0
0
0
0
0
0
0
0
0
0
0
0
0
0
0
0
0
0
0
0
0
0
0
0
0
0
0
0
0
0
0
0
0
0
0
0
0
0
0
0
0
0
0
0
0
0
0
0
0
0
0
0
0
0
0
0
0
0
0
0
0
0
0
0
0
0
0
0
0
0
0
0
0
0
0
0
0
0
0
0
0
0
0
0
0
0
0
0
0
0
0
0
0
0
0
0
0
0
0
0
0
0
0
0
0
0
0
0
0
0
0
0
0
0
0
0
0
0
0
0
0
0
0
0
0
0
0
0
0
0
0
0
0
0
0
0
0
0
0
0
0
0
0
0
0
0
0
0
0
0
0
0
0
0
0
0
0
0
0
0
0
0
0
0
0
0
0
0
0
0
0
0
0
0
0
0
0
0
0
0
0
0
0
0
0
0
0
0
0
0
0
0
0
0
0
0
0
0
0
0
0
0
0
0
0
0
0
0
0
0
0
0
0
0
0
0
0
0
0
0
0
0
0
0
0
0
0
0
0
0
0
0
0
0
0
0
0
0
0
0
0
-0.001753880751
0.00175395214
7.17927753e-05
-0.0001807704852
0.001758696936
0.0001817633363
-0.0008821170074
-0.0008775727792
0.0001971664952
-0.001737132232
-0.0001897100044
-0.001791709088
7.238573692e-05
0.0008954074888
0.0008958785502
-0.0001740404151
0.001804229035
0.0001749263752
-0.0009031680975
-0.0009019468979
-0.0001777827197
-0.0008860709813
-0.0008843367099
-0.001840324544
7.182058283e-05
0.0009195070467
0.0009205529371
-0.0001723943706
0.001845055073
0.0001711759761
-0.0009222972938
-0.0009215393842
-0.0001734142469
-0.0009038869669
-0.0009047300715
-0.001887018168
7.123847746e-05
0.0009426812902
0.0009439817006
-0.0001682098448
0.001886466353
0.0001694139115
-0.00188767042
-0.001853348187
-0.0001715513439
-0.0009677443023
0.000967751038
3.458466152e-05
0.0004827990099
-2.562051954e-05
2.578277674e-05
-0.0004829612671
-0.0004824088628
0.0009640987126
5.30047683e-05
-0.0001677880695
0.001927385973
0.0001676487835
-0.001927246687
-0.001893563603
-0.0001678019919
-0.0009924769671
0.0009924769671
3.68643279e-05
0.0009924772589
-6.19313151e-05
6.193208969e-05
-0.0009924780335
-0.0004827814312
-2.502506236e-05
0.001982558189
-0.0009033771936
1.280986548e-05
2.936102949e-05
-0.0003073705514
0.003909555245
-0.001976326613
-0.001958809846
0.0001643858919
0.0001685658743
-0.001930692553
-0.0001679585982
-0.001738952901
0.001738178
6.590287054e-05
0.0001211202364
-0.001643818497
-0.0001207551711
0.001732211772
0.0001943864345
-0.001729431712
0.0002098218209
-0.001680771503
-0.0002230281888
-3.859567954e-05
0.0004396368513
3.878565808e-05
-0.0004398268299
0.0008773535849
8.915123511e-05
-0.0008798119993
-8.669282067e-05
0.001757992757
0.0001858349671
-0.0004554094139
0.003502084778
0.0004598306939
-0.003507460589
0.0004622951857
-0.003442398845
-0.0004562417078
-0.003569182879
0.003579637885
3.964012201e-05
-6.53570398e-05
6.544258357e-05
-0.001791794632
6.530526325e-05
-0.001756995686
-6.546467945e-05
-4.300794222e-05
0.000446176846
4.269375732e-05
-0.0004458626611
3.81174481e-05
0.0004421194793
-0.0004419900343
-3.824689307e-05
0.00180377583
0.0001820164898
-0.0004499598498
0.003595994375
0.0004514977678
-0.003597723983
-0.003533795429
-0.0004536920065
-0.003671097905
0.003676024179
4.299287436e-05
-6.516300905e-05
6.524813657e-05
-0.001840409672
-0.001797600178
-6.526818599e-05
-7.150600419e-05
-0.001817468433
7.160464432e-05
0.000907780296
0.0009095894973
-4.642579627e-05
0.0004550850632
4.626559353e-05
-0.0009096305907
0.0004547057303
4.647506604e-05
0.0004478000642
-0.0008969822098
-4.61068376e-05
0.0004488139172
-3.716399936e-05
0.0004575308651
3.73762818e-05
-0.0004577431476
3.992048537e-05
0.0004516468448
-0.0004506248641
-4.0942466e-05
0.001845206417
0.0001789672262
-0.0004389957194
0.003668448945
0.0004436253533
-0.003680131637
-0.003614160443
-0.0004482238954
-0.003767614978
0.003768751273
4.567561777e-05
-6.482855464e-05
6.491151386e-05
-0.001887101128
-0.001846399707
-6.516105827e-05
-7.186815439e-05
-0.001864197743
7.15270962e-05
0.0009316602385
0.0009328785629
-2.354209398e-05
0.0004664325501
2.369980137e-05
-0.0004665902575
4.561832815e-05
0.0004607979988
-0.0009222457614
-4.566561791e-05
0.0004614950524
-7.14748668e-05
0.0009336016338
7.182938528e-05
-0.0009339561522
7.321971668e-05
0.0009258281758
-7.123364143e-05
-0.0004645674702
-0.0004632467808
-0.003863512892
4.598189927e-05
0.001929055493
0.001934958264
-6.442676361e-05
0.000967085437
6.46479848e-05
-0.001935050961
-0.001893525098
-6.474838902e-05
-3.464875759e-05
-0.0009568463653
0.0009569356139
3.455950895e-05
-2.667442488e-05
0.0004798094845
2.600413295e-05
-0.0004791391926
2.516694358e-05
0.0004715602144
-0.0004718991852
-2.482797279e-05
-0.0004821329048
-2.912839345e-05
0.0004805849773
3.067632091e-05
-6.971126448e-05
0.0009556277148
6.944045098e-05
-0.0009553569013
7.083044341e-05
0.0009461037563
-0.0009460908884
-7.084331134e-05
-0.003909673351
5.374223862e-05
0.001923916271
0.001982558189
-6.871875413e-05
0.0009900812219
6.871875414e-05
-0.001982558189
0.0009716663374
-0.001939955185
-6.445028973e-05
-3.463114716e-05
-0.0009795615934
0.0009794714044
3.472133608e-05
-2.392467311e-05
0.000485393951
2.564244266e-05
-0.0004871117206
2.77611572e-05
0.0004807375333
-0.0004816566275
-2.684206299e-05
-0.002029749838
0.002029749838
7.539957395e-05
0.002029749838
-0.0001221903705
0.0001221903705
-0.002029749838
-0.0009930302056
-6.193088685e-05
4.813811354e-05
-0.0008698716296
-4.746510815e-05
0.0004339054515
0.0004352931727
-4.893819318e-05
-0.000877021465
4.873267951e-05
0.0004391019643
0.0004381250144
-0.0008773844274
3.197456312e-05
-3.015195334e-05
0.0008755618176
-0.0008708020321
0.0008714688016
4.747134403e-05
0.000441983233
3.794984034e-05
-0.0004418156253
0.0004387270851
-0.000439117404
-3.820536067e-05
0.0001848794791
0.001748492825
-0.0001829665701
-0.0008775553114
-0.0008728504224
8.216659569e-05
-0.0004379202411
-8.058023118e-05
0.0008750609617
-3.871504121e-05
0.0004420727031
3.862557118e-05
0.0004472460826
4.69171034e-05
-0.0008955141419
0.0004478260219
0.0008866871974
4.648913245e-05
-0.0008867824142
-4.639391562e-05
7.207328278e-05
-0.001776164296
-7.198565208e-05
0.001776076665
4.819356733e-05
-4.756151812e-05
0.0004429331906
0.0004431219575
-2.410168422e-05
0.0004472323914
2.411537543e-05
-0.0008773249915
-4.852368397e-05
0.0004382257056
0.0004386847767
-0.0008860975576
4.80931773e-05
0.0004431839193
0.0004430140283
0.0004504963944
3.8807938e-05
-0.0004493838471
0.0004479457187
-0.000447338927
-4.361473392e-05
8.910249932e-05
0.0008947769565
-0.0008949595067
-8.89199492e-05
4.263590273e-05
-4.278701702e-05
0.000448096833
-3.949824524e-05
0.0004511505086
3.884413111e-05
-3.874765983e-05
0.0004421520979
0.0004464808939
4.233185485e-05
0.0008920671786
8.911186155e-05
-0.0008920765409
0.0004601856494
4.604173319e-05
-0.0009202348363
0.0004596257819
0.000455925855
-0.0009118316309
-4.682418262e-05
0.0004563041623
-0.001824050233
-7.192268935e-05
0.0009116644061
0.0009128025125
2.466638917e-05
-2.479629601e-05
0.0004560557618
-2.323271799e-05
0.0004600290426
2.338932485e-05
-2.398302542e-05
0.0004476814053
0.0004554396468
2.43118056e-05
0.000923176489
7.30286198e-05
-0.0004616751408
-0.0004613102513
0.0004576780577
-0.0004575725899
-3.72694672e-05
0.0001711938904
0.001828054653
-0.0001714546768
-0.0009139107497
-0.0009138831171
7.564168319e-05
-0.0004567113388
-7.492330209e-05
0.0009136710154
-7.469173397e-05
0.0009230587659
7.480945708e-05
-4.014014206e-05
0.0004522887416
-0.0004564869156
0.0009130930645
3.783541134e-05
3.873098804e-05
0.001823067072
0.0001727635359
-0.0009128664985
-0.0009117702187
0.0004712415859
2.53901677e-05
-0.00047146481
0.000466714697
-0.0004667935771
-2.346321387e-05
-0.001868711677
-7.125515432e-05
0.000933744819
0.0009343538583
2.443941241e-05
-2.403171302e-05
0.0004663069976
-2.694938642e-05
0.0004707376462
2.745332614e-05
-2.319567931e-05
0.0004607609601
0.0004661994079
2.467255465e-05
0.0009452646488
7.090792697e-05
-0.0009453421323
0.0009357234091
-0.0009357118663
-7.148640965e-05
0.0004828556109
2.834489038e-05
-0.0004834393441
0.0004788418069
-0.0004790779885
-2.643824325e-05
-0.0009580546455
-3.465242095e-05
0.0009580583089
2.557788059e-05
0.000478820595
-0.0004770639825
-2.733449308e-05
2.844094833e-05
-2.798312128e-05
0.0004783839798
-2.735806097e-05
0.0004816525928
2.8561079e-05
-2.632680337e-05
0.0004709376314
0.000480312554
2.793787877e-05
2.850014793e-05
-0.0004850551722
-0.0001385523092
0.001926085927
0.0001380291779
-0.0009628961361
-0.0009626666598
0.0009562166071
-0.0009558912059
-7.003666574e-05
-2.911349787e-05
0.0004788056994
0.001000847089
-4.56937228e-05
-0.0009960603621
1.940509078e-05
2.150190462e-05
0.0004856713393
-0.0004867482056
-2.284780679e-05
-0.0009806572995
-3.445206452e-05
0.0009804782168
4.311026553e-05
0.0009671514999
-0.00096777388
-4.248788549e-05
1.940326157e-05
-1.884347944e-05
0.0004851115572
-5.010567602e-05
0.001001166952
2.178362778e-05
2.800218542e-05
-2.615824514e-05
0.0004795377175
2.062272418e-05
0.0004841744884
0.0009663852156
4.435846147e-05
-0.0009676334115
-0.003479007699
0.003498598198
3.361534796e-05
6.515115526e-05
-0.001753726643
5.912736051e-05
-0.001743020484
-6.151078576e-05
-6.982554257e-05
-0.001741410771
0.001741259591
6.997672253e-05
-4.613799676e-05
4.602175719e-05
-0.0008706857926
4.152807918e-05
-0.0008799082029
-3.900430364e-05
-8.121847509e-05
0.0004321917232
9.861825505e-06
-0.0003608350736
0.0004508405168
4.644913414e-05
-0.0004570681545
-4.022149642e-05
-0.001771246
0.001771401528
7.191775456e-05
4.651882043e-05
-0.0008861272455
4.660943562e-05
-0.0008773255332
-4.660889392e-05
-0.000157411482
0.0004693818923
7.185777853e-05
-0.0003838281889
0.001885943219
0.0001770642547
-0.0004165025316
0.003714220517
0.0004245484766
-0.003768103099
-0.003703784113
-0.0004363183755
-0.000155381858
0.0004773453487
6.706413788e-05
-0.0003890276286
-6.282004061e-05
0.0009502090921
6.34535798e-05
-0.0004755589294
-0.0004752837019
3.210800964e-05
0.0004729525552
-0.0004728672511
-3.219331377e-05
-4.866601736e-05
0.0009658601812
4.919105177e-05
-0.0001485828753
0.001942132509
0.0001442017315
-0.001937751365
0.001929916086
-0.0001392361855
-0.0009649246841
-0.0009643075259
4.657605278e-05
-0.0008769880822
-0.0008699187311
-4.60908953e-05
-0.001736689675
-7.093822055e-05
0.001737802353
2.303164856e-05
-0.0004352258064
-2.373505966e-05
0.0004359292175
-0.0004526177322
9.953462629e-06
-1.599313722e-05
0.0004586574068
-0.0004395687591
-2.163472987e-05
0.0004399340667
2.12694223e-05
9.610795952e-05
-8.879491504e-05
0.0008700405404
-0.0004377621218
0.0008755337585
8.403181028e-05
0.001741675208
0.0001816407983
-0.0008704180251
-0.000868018502
0.0004734359446
3.249091753e-05
-0.0004738188525
3.77480791e-05
0.0004713691172
-0.0004728419354
-3.627526095e-05
0.0001707072956
0.001870120375
-0.001870731311
-0.0001700963605
7.382963547e-05
-7.34916909e-05
0.0009353854646
-7.288154969e-05
0.0009450359223
7.311027619e-05
-7.408307806e-05
0.0009252195199
0.0009336264068
7.380486246e-05
0.001867024665
0.0001708811136
-0.001867198483
3.098221291e-05
0.0004821342429
-0.0004839405912
-2.917586458e-05
-0.0004812662307
-3.134399844e-05
0.0004813927409
3.121748826e-05
-4.60963757e-05
0.0009657571418
4.643382481e-05
-0.0004826992393
-0.0004833953517
0.0008333009753
5.909277163e-05
-0.0008333072241
-5.908652276e-05
-0.001786639557
5.914987284e-05
-4.014493686e-06
-2.514998849e-05
0.0008706988386
0.0008859553273
-0.0008682614946
0.0008857949946
1.444106313e-05
0.0008740110634
9.044632324e-05
-0.0008753061515
0.00175398018
0.0002122605444
-0.0008801516576
-0.0008443943516
-0.0001059023158
-0.0001357923991
7.806461557e-05
-7.936376569e-05
0.0008346001254
0.0005473073802
-0.0006285258553
8.2057803e-05
0.0008770080011
-8.027349208e-05
-0.0004392252098
-0.0004395671022
4.486842327e-05
5.908286794e-05
0.000443356089
4.177453428e-05
-3.867728018e-05
0.0004477432627
0.0004423537044
3.470644208e-05
0.000872585162
7.941358669e-05
-0.0004357755709
-0.0004341653748
3.756045828e-05
0.000444187587
-0.0004442438972
-3.750414802e-05
0.0004445505748
3.771103059e-05
-0.0004447011471
3.658207055e-05
0.0004559360299
-0.0004557353374
-3.678276304e-05
0.0004569832954
3.725092992e-05
-0.0004576521548
0.0004662543466
-3.782593804e-05
3.426151302e-05
-0.0004626899216
0.0004773034441
-0.0006089713309
-2.574359508e-05
7.235438488e-05
0.0009290496048
-0.0009290226013
-7.238138843e-05
4.258857234e-05
-3.561587985e-05
0.0004703307516
-3.793722258e-05
0.0004672452862
3.6946283e-05
3.811573661e-05
-7.08934523e-05
0.0004575221754
-0.0004247444598
0.0004665770464
4.539341823e-05
0.000928339994
7.244991351e-05
-0.0004642515457
-0.000464183977
0.0004753322521
2.212133055e-05
-0.0004756585902
-2.179499243e-05
4.065009312e-05
-0.0009514410652
-4.054869046e-05
0.0009513396626
-4.054012177e-05
-0.0009567530502
0.0009568366525
4.045651939e-05
-6.118339357e-05
0.0009550901867
6.147763313e-05
-0.0009553844262
0.000951299241
-6.214343006e-05
-0.0004763182419
-0.0004756576097
-0.000619247154
-2.236659352e-05
0.0004862318895
1.906861278e-05
0.0004855569973
-0.000486594654
-1.803095615e-05
3.982551126e-05
-0.0009747372059
-3.975510903e-05
0.0009746668037
-3.976258391e-05
-0.0009793735722
4.023729045e-05
0.0004892427269
0.0004896561388
4.023822269e-05
-0.0009678629163
-3.993580826e-05
0.0009675605019
-0.000973171499
0.0009730558357
3.994117449e-05
0.0004834505501
2.032581203e-05
-0.0004847077494
-0.0004489064071
1.944636954e-05
-0.000140599307
0.0005700593446
-0.0004329210662
2.352894863e-05
0.0004324237662
-4.767807053e-05
-0.0008733921475
4.805099218e-05
0.0004356834386
0.0004373357873
-2.58255564e-05
2.699428436e-05
-0.0004340897942
2.619458843e-05
-0.0004433271962
-3.177379934e-05
-3.118030181e-05
5.895783688e-05
-0.0004400013404
0.0004122238054
-0.0004361411358
-2.491022708e-05
-0.0008756298732
-4.861114833e-05
0.0004386049777
0.0004379579733
-4.54381112e-05
-0.0008815556164
0.0008821520602
4.484166743e-05
-2.478824858e-05
2.525768683e-05
-0.0004400381973
1.995757598e-07
-0.0004390303704
-1.378693759e-05
0.0004424677181
2.412684615e-05
-0.0004403999758
0.0004396612603
-0.0004395004325
-2.494907641e-05
-0.0008760054187
-4.602056891e-05
0.0008765878764
-2.452989411e-05
0.0004425564245
0.0004415934707
2.032061688e-05
3.932069833e-05
0.0004409087358
-0.0004399482259
-4.028120816e-05
0.0004394607711
3.942849011e-05
-0.0004395685629
-2.424707403e-05
-0.0004456862082
0.0004458448297
2.408845256e-05