/*--------------------------------*- C++ -*----------------------------------*\
| =========                 |                                                 |
| \\      /  F ield         | OpenFOAM: The Open Source CFD Toolbox           |
|  \\    /   O peration     | Version:  v1912                                 |
|   \\  /    A nd           | Website:  www.openfoam.com                      |
|    \\/     M anipulation  |                                                 |
\*---------------------------------------------------------------------------*/
FoamFile
{
    version     2.0;
    format      ascii;
    class       volScalarField;
    location    "2";
    object      nut;
}
// * * * * * * * * * * * * * * * * * * * * * * * * * * * * * * * * * * * * * //

dimensions      [0 2 -1 0 0 0 0];


internalField   nonuniform List<scalar> 
12556
(
1.155888079
1.155858918
1.155827922
1.155804911
1.156028534
1.156025181
1.15603929
1.156077676
1.156150895
1.156277776
1.156444637
1.156668747
1.079859486
1.089292193
1.156634218
1.156431734
1.156276014
1.15616874
1.156084424
1.156053828
1.155829685
1.155836928
1.1558581
1.155883794
1.155144575
1.155055844
1.154970021
1.154903718
1.15511922
1.155141895
1.155236351
1.155502546
1.155856712
1.156460383
1.157331897
1.092435271
0.9936080181
0.9905220181
1.072623714
1.157437518
1.156603088
1.155982569
1.15549628
1.155279473
1.154958992
1.154989886
1.155057874
1.155138243
1.154361861
1.154214657
1.154074546
1.153997223
1.154231377
1.154329496
1.15456788
1.155105964
1.155996095
1.157490521
0.9851624716
0.8358077354
0.7752451409
0.7798383318
0.8542719586
1.000663074
1.157653909
1.156222874
1.15515676
1.154642754
1.154188513
1.15416385
1.154250691
1.154379168
1.153564776
1.153363636
1.153192281
1.153116202
1.153388771
1.153636006
1.15422891
1.15521967
1.157127062
0.90355971
0.6925884202
0.5767128717
0.5203797616
0.5372163409
0.6065380205
0.7312960607
0.9324165564
1.157355735
1.155294211
1.154264617
1.153452687
1.153379008
1.153462816
1.153629839
1.152738518
1.152490875
1.152295309
1.15226938
1.152637127
1.153131408
1.154272461
1.156079151
0.9387352265
0.651345943
0.4682812132
0.3582254144
0.3141230617
0.3310579392
0.4020910207
0.5174882686
0.6913173719
0.9616586846
1.156149146
1.154248161
1.152941636
1.15264149
1.152674574
1.152858181
1.151919828
1.15163705
1.151446985
1.151485436
1.152014263
1.152889214
1.154878827
1.112313029
0.7392014016
0.4869408181
0.3135831071
0.2007322639
0.1563831839
0.1827670026
0.2569159438
0.3670269209
0.5234337652
0.7569317701
1.117161009
1.154673041
1.152568881
1.151959096
1.151896163
1.152076236
1.151078463
1.150774185
1.150615589
1.150786866
1.151579242
1.152966451
1.156070784
0.9560135453
0.6204269678
0.3899730044
0.2224062808
0.1014848476
0.05739526451
0.09063487969
0.1675299525
0.2715496954
0.4144298832
0.6175148782
0.9564344625
1.155617432
1.152369949
1.151335379
1.151111364
1.151256581
1.150301748
1.149986924
1.149887067
1.1502816
1.151280254
1.153411254
1.157749196
0.8632992693
0.5677263575
0.3597723344
0.2045014861
0.08414152711
0.05190313724
0.127002727
0.2213532709
0.35145717
0.5363039469
0.844887021
1.156901016
1.152384595
1.150802563
1.150348154
1.150436329
1.149563209
1.149256281
1.149253064
1.149906205
1.151181784
1.154219328
1.120889487
0.8168289526
0.5639993094
0.386607015
0.2646292484
0.1895618837
0.06333561278
0.1242351452
0.2069614782
0.3245522022
0.4936421678
0.7799297492
1.147616631
1.152611942
1.150391733
1.149656052
1.149658556
1.14896109
1.14867342
1.148786107
1.149733655
1.151385793
1.155357236
1.081627624
0.8099145316
0.5886370403
0.4404284749
0.356851903
0.3596441736
0.08903281552
0.1412642824
0.2161797579
0.3279700214
0.4881641041
0.749681582
1.085914558
1.153074829
1.15017333
1.14911035
1.149010976
1.14846767
1.14821721
1.148487759
1.149800308
1.151864072
1.156743267
1.063174048
0.8196602993
0.6244275844
0.4962388645
0.4364023384
0.4987894863
0.1214502704
0.1711661697
0.2438252693
0.3486808742
0.4979578337
0.7484008262
1.050837941
1.153748677
1.150171925
1.148777932
1.148565173
1.148158266
1.147952656
1.148378762
1.150050414
1.152566825
1.158389107
1.061085932
0.8426841568
0.6637230206
0.541639572
0.4754438058
0.4557397709
0.1589400878
0.2133508237
0.2884798709
0.3932297933
0.5360451809
0.7729499797
1.046238054
1.154654951
1.150423362
1.148706131
1.148377315
1.147969213
1.147821616
1.148469875
1.150564086
1.153423722
1.159977622
1.070041814
0.8826690947
0.709722411
0.5836381505
0.4906124091
0.4102452261
0.05410125385
0.2076932738
0.2764547619
0.3578799799
0.4605297289
0.6028774017
0.819488336
1.064305505
1.155659161
1.150895741
1.148884753
1.14845568
1.14796492
1.14787812
1.148726675
1.151176873
1.154621275
1.161780145
1.124144601
0.9326563919
0.7748885074
0.6432984464
0.5307540434
0.2782668124
0.1085309527
0.309508954
0.3885897131
0.4645243155
0.5591056286
0.6900288418
0.8844502235
1.103075882
1.156714931
1.151545442
1.149284555
1.148785966
1.148025657
1.147993925
1.149035474
1.151853877
1.155739335
1.163379006
1.168557574
1.017192219
0.8733031685
0.7498237308
0.6363444682
0.09218439205
0.1537361877
0.4150725991
0.5926673132
0.6271441824
0.6961869068
0.8121391801
0.9848520533
1.166614994
1.157739799
1.152280889
1.149839238
1.149271052
1.148218944
1.148241672
1.149454262
1.15259705
1.156855409
1.16479671
1.169562952
1.153323174
1.021661066
0.9310949705
0.7846473313
0.04749911932
0.1768182757
0.446632013
0.7350490056
0.8581543577
0.8807327218
0.9690123657
1.123491032
1.167826063
1.158674462
1.153032384
1.150479901
1.149887725
1.148393548
1.148455875
1.149816
1.153277771
1.157896788
1.16593351
1.170134012
1.160350269
1.120828353
1.012020132
0.6085861082
0.02795461739
0.226515533
0.4970880241
0.7772041463
0.9837742626
1.095823437
1.147448499
1.168846718
1.168745099
1.15945474
1.153729701
1.151116833
1.150494016
1.148645602
1.14874381
1.150222193
1.153934157
1.158810968
1.166813841
1.170192351
1.158626324
1.108348792
0.9438935382
0.3236041588
0.03393472122
0.2868097505
0.5562833322
0.8158541813
0.997479684
1.100177198
1.14986589
1.169898885
1.169320581
1.160051703
1.154336284
1.1517325
1.151108706
1.14881214
1.14893146
1.150501583
1.154446875
1.159562268
1.167392256
1.169843428
1.156154122
1.097956758
0.8701493582
0.1769116553
0.05812360024
0.3333560424
0.5967126838
0.8345709576
1.003723129
1.103207416
1.151372945
1.170450813
1.169592222
1.160435171
1.154784417
1.152219888
1.151601777
1.149030589
1.149173885
1.150812651
1.154909987
1.160135558
1.167685616
1.169009543
1.153046538
1.085894547
0.8039349743
0.1430337376
0.07876543906
0.3513708938
0.6073872526
0.8431777077
1.008533399
1.10533731
1.152235024
1.170615872
1.169610178
1.160690769
1.155163403
1.152653041
1.152038829
1.149122516
1.149283431
1.150975627
1.155211466
1.160539337
1.167721497
1.167834384
1.149362252
1.071744653
0.7292190569
0.1213152863
0.09711177498
0.363576228
0.6157478978
0.8493873409
1.012238059
1.106834812
1.152648926
1.170489449
1.169432763
1.160771194
1.155380428
1.152930899
1.152323407
1.149267006
1.149457451
1.151197011
1.155498624
1.160791369
1.167533104
1.166337557
1.14512145
1.054856836
0.6621369225
0.1046541441
0.1151761304
0.3741271101
0.6229271477
0.8536153734
1.014950661
1.107852014
1.152750083
1.170152769
1.169116129
1.160791949
1.15556663
1.153176108
1.152569825
1.149261399
1.149480617
1.15126579
1.155640579
1.160920352
1.167153211
1.164555562
1.140256428
1.033371024
0.6073700382
0.09245876829
0.1317017504
0.38350606
0.6292804637
0.856619778
1.016743193
1.108455188
1.152622041
1.169672604
1.16870736
1.160681829
1.155604205
1.153266327
1.152660567
1.149326506
1.149588634
1.151422828
1.155811376
1.160943521
1.166604024
1.162488479
1.134562156
1.006054316
0.5618551902
0.08311386204
0.1463703329
0.39210141
0.6350710272
0.8589631374
1.017774867
1.10868532
1.152314892
1.169098523
1.168241913
1.160573983
1.155658574
1.15336328
1.1527489
1.149228784
1.149531237
1.15141331
1.155834302
1.160877476
1.16589569
1.16009038
1.127700244
0.9747487394
0.5232597629
0.07606073708
0.1593096146
0.4000975653
0.6404021119
0.8609075803
1.018259262
1.108603629
1.151868312
1.168467918
1.167746478
1.160356997
1.155568698
1.153304701
1.152679349
1.149228056
1.149582727
1.151516104
1.1559117
1.160722633
1.165032837
1.157332285
1.119303207
0.9423840799
0.4902769866
0.07094993505
0.1706192495
0.4075477463
0.645303562
0.8625689516
1.018387608
1.108292001
1.151323939
1.167812069
1.167241125
1.16019107
1.155540795
1.1532965
1.152650979
1.149058968
1.149458442
1.151434961
1.155821908
1.160485835
1.164006662
1.154127296
1.109180025
0.910759098
0.4619333912
0.06765140429
0.1805492123
0.414502094
0.6498243483
0.8640255305
1.018307691
1.107839401
1.150729134
1.167159827
1.166741884
1.159916146
1.155361021
1.153126821
1.152460777
1.149009017
1.149463668
1.151486805
1.155808829
1.160160229
1.162811948
1.150439505
1.097424005
0.8806564829
0.4374095534
0.06567252022
0.1894760024
0.4210327953
0.6540362028
0.8653510338
1.018137549
1.107333896
1.150134304
1.166536514
1.166260347
1.159733557
1.155285102
1.153050694
1.152356433
1.148794645
1.149292367
1.15134652
1.155612919
1.159755188
1.161442087
1.146159867
1.084339598
0.8523063617
0.4158168539
0.06451117488
0.1977071339
0.4272295996
0.6580092223
0.8666256015
1.017985976
1.10685898
1.149584971
1.165959696
1.165803058
1.159427129
1.155044837
1.152805423
1.152085222
1.148702206
1.149254454
1.15134706
1.155514858
1.159268685
1.159900736
1.141305614
1.070327358
0.8257697313
0.3966581887
0.06397040257
0.2054179582
0.4331531361
0.6618328678
0.8679565766
1.017960646
1.106482865
1.14910965
1.16543437
1.16537111
1.159246613
1.154941362
1.152687965
1.151934845
1.148471927
1.14906274
1.151174137
1.155243962
1.158722793
1.158206952
1.135932738
1.055808192
0.8010788953
0.3797756084
0.06396022254
0.2127220474
0.4389087721
0.6656641582
0.8694827334
1.018148599
1.106237683
1.148708375
1.164950034
1.164957656
1.158924875
1.154672237
1.152406789
1.151626247
1.148328337
1.148973233
1.151117499
1.155073279
1.158125554
1.156390766
1.130138303
1.041135196
0.7782148391
0.3649497364
0.06444824638
0.2197982135
0.4446954808
0.6697083497
0.8713287007
1.018581591
1.106102934
1.148347394
1.164480878
1.164552725
1.158736571
1.154539931
1.152255433
1.151440514
1.148123132
1.14880251
1.150961818
1.154800098
1.157507705
1.154486069
1.124027381
1.026551332
0.7570451867
0.3518215093
0.06539039227
0.2268170776
0.4507099706
0.6741189615
0.8735373232
1.019214463
1.106006584
1.147965533
1.163990756
1.164135522
1.158421984
1.15428617
1.151991392
1.151152755
1.147908105
1.148644869
1.150838992
1.154562446
1.156885237
1.152528394
1.117693878
1.012187002
0.73736408
0.3400462237
0.06645062634
0.2338642709
0.457035716
0.678923852
0.8760435863
1.019934603
1.105845128
1.147491927
1.163444215
1.163697109
1.158164323
1.154082576
1.151773319
1.150901298
1.14777842
1.148548072
1.15076495
1.154404683
1.156286998
1.150545299
1.111233622
0.9980832342
0.7189793744
0.3294621625
0.06773730548
0.2409752847
0.4636489968
0.6840440725
0.8787138666
1.020605306
1.105517876
1.146864983
1.162823492
1.163222152
1.157928758
1.153910178
1.151598994
1.150711475
1.147539563
1.148390179
1.150669785
1.154173272
1.155749253
1.14857895
1.104847002
0.98431262
0.7018333223
0.3198158048
0.06941935627
0.248121263
0.4704593609
0.6893406645
0.881397766
1.021111918
1.104955075
1.146047019
1.162168961
1.162765146
1.157516363
1.153599756
1.151287503
1.150366471
0.1685600419
0.0564894627
0.04482293533
0.3420570778
0.08171819297
0.05947070175
0.4841907903
0.1148236628
0.08561204656
0.4624920222
0.1457308652
0.1197185878
0.4146296216
0.04054212794
0.05073167777
0.1827916819
0.1497131811
0.3227447318
0.07950973649
0.04164020965
0.1029930845
0.2503300531
0.1860358389
0.08174426566
0.05767696586
0.04628579966
0.08607545913
0.02877966026
0.01931604103
0.06079693566
0.1053424271
0.1075171148
0.3335517848
0.3320056025
0.1947766059
0.03012250552
0.04467719016
0.08560100901
0.1212660585
0.1077868056
0.4196916409
0.4635160375
0.3488609137
0.4102576408
0.2045567738
0.231913052
0.05248583842
0.03742277206
0.1172910447
0.1492946598
0.1273042635
0.4698851952
0.5036303128
0.4772381138
0.4945363455
0.1316280202
0.1716751265
0.09739910545
0.07154859636
0.4838935332
0.4546444522
0.5000950631
0.4445791612
0.07719132454
0.102145166
0.01737211449
0.1369191738
0.1314748594
0.5171661332
0.3957000734
0.4472209742
0.3785268394
0.03007052384
0.04960007554
0.2730627616
0.1102912472
0.08139015282
0.06709542024
0.1580043543
0.03203451006
0.06104468791
0.0458710309
0.03001505948
0.04834800961
0.03186033597
0.04807538982
0.2356765877
0.2631450929
0.2807877135
0.204489131
0.188592161
0.1807295586
0.2076343276
0.03705144775
0.02995898168
0.07105721335
0.04428655767
0.05014673766
0.04939493371
0.0445143377
0.06954344905
0.1745282028
0.2005351165
0.4290033629
0.1559148445
0.1309122444
0.1867310718
0.1579968112
0.06812522803
0.05377489581
0.1022660768
0.07368200701
0.09450273217
0.05064136765
0.07097088644
0.09788832657
0.1035603604
0.129953898
0.4869105989
0.1041725963
0.0788366796
0.1294781081
0.1055352557
0.1275181491
0.1014320395
0.05056518693
0.07543092964
0.4428831761
0.01305386813
0.0528781323
0.03174783954
0.07777883698
0.05443361394
0.0120922713
0.1436848512
0.1388263458
0.01965097374
0.004705016102
0.02976379648
0.3737832389
0.06443913023
0.01869379711
0.01103740845
0.03139845131
0.01902578954
0.06177790337
0.2441965984
0.1758324798
0.0978653134
0.1054108973
0.06623285713
0.03761527764
0.01733269442
0.008380263535
0.2586370477
0.2666378731
0.1736175793
0.009396519783
0.1519176783
0.1866068754
0.1577679338
0.01118829278
0.05665814145
0.04913750326
0.07717980607
0.1605558791
0.1475833759
0.1568931468
0.07386743269
0.1180775122
0.04149506072
0.01315694771
0.02285654957
0.02213866872
0.03017318296
0.04678534849
0.0476119582
0.0342815661
0.1343253417
0.1245142065
0.1334430688
0.09784366365
0.121092998
0.1311302
0.02810785648
0.01269983719
0.04891400746
0.02283887589
0.03887318175
0.0312211775
0.01949944967
0.0300054717
0.02171099067
0.01589275176
0.02295185408
0.02012688729
0.009977276614
0.01657120068
0.02172782653
0.03840771057
0.0390455307
0.04500641377
0.04394696286
0.01761746326
0.01000623737
0.08583632172
0.01482338914
0.02694007603
0.00940646809
0.01278363677
0.08203840495
0.09132245626
0.2557729582
0.2430045068
0.072215223
0.06065795068
0.01091877404
0.04470341266
0.1873815112
0.1748605719
0.204657623
0.1924502331
0.04505526268
0.05026127628
0.04184883655
0.09866988183
0.06595753457
0.05837166884
0.03994037504
0.06546880641
0.1112793978
0.03889338664
0.02374297927
0.0150006111
0.0534045037
0.0264908204
0.0429886036
0.02543711176
0.05979067575
0.03944659599
0.03866191512
0.2011634466
0.03101073555
0.2004661418
0.2239202081
0.03472928693
0.03890825037
0.03142772699
0.03423018517
0.2198428342
0.03549011195
0.03521354644
0.04767831973
0.06866111213
0.06398117516
0.07511571179
0.07033637055
0.04795780218
0.05316563217
0.05617415667
0.05100769728
0.06232463159
0.05761390568
0.05218399687
0.1436697126
0.1420526149
0.1735467951
0.1717557087
0.06435388078
0.009250290186
0.06307764732
0.09477861038
0.09296628901
0.1169463901
0.1153310221
0.0286439439
0.0420471744
0.1130063346
0.03198704064
0.01894699949
0.06649141178
0.2217867784
0.2091013937
0.2386939514
0.2259928858
0.06779390733
0.02551679292
0.0484282635
0.04742584839
0.07074649056
0.06989947779
0.007405246735
0.03377711951
0.08839192205
0.07631523369
0.1699659132
0.1608017346
0.02385484532
0.01199481524
0.01965233547
0.01389761042
0.02995510344
0.0123923102
0.0134817385
0.01278505888
0.02999053936
0.05233915514
0.01282199901
0.0165981482
0.003554703587
0.01834819441
0.01402551387
0.5980404378
0.3724355938
0.3852299291
0.2512210854
0.008628642235
0.005313969401
0.1482955563
0.3427832356
0.2818805962
0.005847140182
0.01262052248
0.01075873218
0.104453683
0.09276357154
0.03616439406
0.19976432
0.167101347
0.08035870037
0.009469694207
0.01605768014
0.01285713561
0.00855981173
0.01261660216
0.008899298225
0.03255100086
0.01381904027
0.01294361819
0.04179859598
0.04884924311
0.01410332758
0.01938795475
0.00936373815
0.009444880722
0.03913334858
0.1458727193
0.3213478937
0.3091173093
0.3375944598
0.3254161753
0.149143058
0.272336087
0.2598027824
0.09260716488
0.0330764458
0.09544417034
0.09025456484
0.01187228596
0.01684088019
0.08824181554
0.04600566559
0.01569937912
0.01393385687
0.03779264026
0.04280808018
0.03849235028
0.04936732175
0.04434557381
0.03936905007
0.0362540863
0.009609963767
0.009403952565
0.03128921186
0.1856364912
0.3536127348
0.3415900131
0.05951043135
0.06145277174
0.13566803
0.02057555991
0.02246095541
0.05741756499
0.08201534048
0.102474351
0.09477283144
0.05685562187
0.08273652122
0.07703396498
0.09197313046
0.08497872258
0.05798749459
0.1168882687
0.2887585881
0.2764129399
0.305051802
0.2928586051
0.1186880345
0.1002303184
0.03665582057
0.03737909443
0.02122518226
0.0220479227
0.08318812636
0.1243271585
0.0553558655
0.05910670513
0.03768157382
0.03835843732
0.1096235496
0.11694906
0.0443088589
0.06046797615
0.00799473572
0.01720791681
0.05057164021
0.03872799017
0.074728819
0.02061073129
0.02108565148
0.02021195538
0.06359006341
0.01132011082
0.004380494703
0.1236083113
0.1065647197
0.08848342912
0.08427588881
0.02940798964
0.01773111621
0.02950144879
0.07275924745
0.01845514193
0.01179960603
0.01834254153
0.02276210374
0.002832142616
0.03092637707
0.02006487601
0.01210877466
0.006316192257
0.01169785894
0.009414939086
0.009241432922
0.02687536238
0.02059710177
0.007252778036
0.03846013207
0.04012337561
0.01526623145
0.0111110409
0.007194699378
0.01168936574
0.0166300325
0.01059790921
0.0130282277
0.04009340663
0.01035646865
0.01023430077
0.01172334618
0.01267669108
0.03348305104
0.01193937933
0.01184344157
0.01292443845
0.01179991755
0.01239398744
0.01748220508
0.01375838328
0.02464610277
0.01933043968
0.01241146036
0.01561057642
0.02180802085
0.01821187575
0.02859106904
0.02308024143
0.01779477862
0.01595113845
0.01242745198
0.01187585296
0.009249439086
0.03446036669
0.04111816336
0.01270119704
0.01198546903
0.01323882439
0.01371487025
0.04762689109
0.009068610425
0.009113098951
0.01128904445
0.009218685552
0.009124755755
0.04026697084
0.009185552222
0.01300729528
0.01246793292
0.01138014157
0.01956764409
0.05063876008
0.04573806121
0.01057429389
0.0371874868
0.03175303676
0.04396029993
0.03919355664
0.01093373421
0.01148900657
0.03499096669
0.0292779627
0.1037721908
0.09729169552
0.03686658742
0.04720224303
0.1109126959
0.1055392939
0.04517549849
0.04429344871
0.06812625356
0.08020770126
0.09816548521
0.06030531673
0.07520336508
0.06906325091
0.06023962139
0.1400132599
0.1284767427
0.1068486235
0.1435537772
0.06015509527
0.03934032358
0.04431013748
0.05509671382
0.03384254051
0.03794748978
0.02210985487
0.02093923246
0.04458044568
0.01503834737
0.01514481118
0.01184953378
0.02211254064
0.0262167103
0.01575813942
0.02231014193
0.03447639208
0.0304593016
0.02321261279
0.02918904001
0.09504038452
0.08318072219
0.1014990991
0.09751958771
0.03031752659
0.07473013007
0.07249815276
0.07980059174
0.07554036381
0.03625623639
0.118253387
0.1136814015
0.125678665
0.1198803126
0.0368487653
0.03254874809
0.1067098853
0.1028716741
0.1122218564
0.1080471912
0.03289760261
0.009983512458
0.009720798098
0.03603183936
0.0326230013
0.009739647485
0.01008805413
0.04307454879
0.04230414479
0.04524617483
0.04333935436
0.04088876832
0.03984160494
0.04204926216
0.04115972114
0.06910676589
0.06714051293
0.07180444333
0.06979237257
0.06167161072
0.04794817877
0.06631945194
0.06422623318
0.02328282712
0.01977465778
0.03018247548
0.0251912039
0.006661861068
0.01264099064
0.01182663055
0.01846949589
0.01297342563
0.03569849047
0.03630176212
0.09888376524
0.02122627016
0.02101648335
0.02187728086
0.02141003854
0.0203621723
0.08551544448
0.02268872651
0.03355215439
0.04049939075
0.05349640012
0.1225356684
0.03707482604
0.02399993276
0.0397038298
0.03675751935
0.0226468639
0.02211169762
0.02356526478
0.02286783835
0.1110097253
0.03858849158
0.03947518199
0.006789332286
0.02654932767
0.01004291648
0.01023017163
0.01000124231
0.02472082661
0.008347122918
0.01927874235
0.01154420096
0.01183371107
0.04992595319
0.04355275141
0.02001879188
0.02050561682
0.07379155269
0.06575621911
0.01914052092
0.01995670526
0.01123233735
0.02831462317
0.08169707066
0.07341248615
0.01330161298
0.01266978837
0.01767126198
0.01219702064
0.01360499568
0.015931072
0.03081526465
0.008850629142
0.01317191668
0.01206725014
0.01305612054
0.02089576882
0.05329159597
0.1128254323
0.1457843469
0.01078083334
0.01051980355
0.1895939722
0.2405425316
0.197996067
0.007128169056
0.03527502078
0.01347626104
0.01713781582
0.1377151936
0.1436164877
0.16111894
0.004799418276
0.007389013966
0.005444074271
0.004883606942
0.005770671759
0.004514578677
0.05689982802
0.03550663702
0.02241166596
0.02560892527
0.02319082307
0.02724414237
0.2165118472
0.3847929549
0.3732289564
0.3785988507
0.3887100117
0.2203804196
0.04248379682
0.03696455159
0.01232742765
0.06434317305
0.07599292505
0.1351857788
0.1180551209
0.1126193391
0.04768719083
0.0284679087
0.03156689645
0.03297329483
0.3693551925
0.3575557283
0.1892116748
0.1504015937
0.06709670817
0.0708792089
0.07392562204
0.08460965887
0.1642621832
0.05814005822
0.1261891542
0.1199439665
0.01129305289
0.01123958394
0.01410776574
0.01983424349
0.02012771786
0.0325889217
0.01144485043
0.01151983002
0.01125393864
0.02610485696
0.05118148932
0.04406256035
0.01864279374
0.03118860861
0.0193949294
0.01956891858
0.01904711124
0.01543228647
0.00959405119
0.01141023805
0.01093304298
0.01113506108
0.02254816618
0.02797510479
0.05648664906
0.04034004386
0.03713504397
0.03391442965
0.02502127387
0.0420422074
0.01471542138
0.02041233035
0.01213526052
0.008710893725
0.008843073169
0.01238539543
0.01226505834
0.02309244267
0.01464470088
0.01006931338
0.01855599887
0.01966614698
0.01805460306
0.01478628598
0.01829088896
0.01610743497
0.01044512869
0.01100112674
0.00654178689
0.009530514396
0.01047284185
0.05734992113
0.05221511522
0.02126846058
0.009279741514
0.01302163769
0.01194750597
0.01106187562
0.01387128629
0.01244823445
0.04815654721
0.03716765945
0.04265893407
0.06676374077
0.09429192128
0.09287800683
0.04150576614
0.06725724505
0.06359248579
0.09184226128
0.09003483978
0.0640611339
0.03334937405
0.04016472498
0.0356369333
0.0273107723
0.02793186184
0.02303216856
0.04706494678
0.0456790827
0.0505943442
0.0234674952
0.03378983252
0.03215187068
0.05215931057
0.05178355559
0.03075651561
0.02848703496
0.02807391929
0.03111437863
0.03040875517
0.03526763278
0.0582772026
0.05765673652
0.06195189068
0.06117628362
0.03814524321
0.03175973259
0.05339178182
0.05287327185
0.05701918326
0.05639218177
0.03376965459
0.06449129975
0.06639561728
0.1486714854
0.1371916819
0.06203615194
0.06388669917
0.09146420985
0.09463391249
0.1791763588
0.02647808982
0.02633440113
0.0278358923
0.0276172977
0.020205273
0.0260653166
0.02596094678
0.1661565683
0.08682327057
0.09028254572
0.009172710202
0.009168465734
0.01156264038
0.01113240222
0.009240601639
0.009050014078
0.006866510402
0.05867102221
0.02337077567
0.02872929798
0.1342667518
0.1282710746
0.06132583843
0.07071804917
0.1414349019
0.1360531504
0.03191359843
0.03197487406
0.04878042626
0.0471110819
0.03151790702
0.0314752616
0.01105452936
0.02258448351
0.035860142
0.03533175149
0.008677499578
0.01439010035
0.01741619122
0.01372825204
0.01315176697
0.01847509396
0.01871823404
0.03040753361
0.01251574211
0.009132025246
0.01239274872
0.01266180481
0.02842732618
0.01797496465
0.01855931537
0.01355279025
0.03219906112
0.02696622054
0.01092676729
0.01090321108
0.01073341235
0.01097082084
0.01529065628
0.006431287222
0.004132196983
0.007681391665
0.01154586701
0.01051961175
0.01070712263
0.01045669097
0.01062145064
0.01082972672
0.01015157097
0.00670814552
0.005278139251
0.01184783164
0.01219555152
0.01147920686
0.01157132302
0.01342330872
0.02062242646
0.02090621311
0.02021023647
0.02044704777
0.01329732157
0.009298924384
0.01557949918
0.01556465478
0.01608550085
0.01569073456
0.009181499308
0.01488980349
0.02321845727
0.02582941539
0.021196642
0.02188534248
0.01442560322
0.00957709418
0.01559820194
0.01560486224
0.01553495792
0.01558254721
0.00948489062
0.0111049988
0.01129863606
0.01071869985
0.01125590326
0.03681728158
0.05580893577
0.05534503482
0.02146525262
0.03559824835
0.03534699138
0.03690792194
0.03595812128
0.02167002772
0.01173555156
0.01129214378
0.01148732358
0.01181414099
0.02011059968
0.01991517227
0.0205459186
0.02032465216
0.01567652639
0.03465359059
0.02072074548
0.02163558851
0.02078770862
0.03485869714
0.0346380935
0.0351907704
0.03500731141
0.02091277385
0.02144138367
0.0208479423
0.0312638854
0.02239406972
0.01609660447
0.007796556322
0.01130660026
0.0111576539
0.007700628194
0.04214343526
0.029260573
0.002992045705
0.02941070738
0.04494018912
0.04459386776
0.01842455973
0.01175959778
0.008638930913
0.003555439603
0.01325122604
0.0135061254
0.01915674038
0.01932294795
0.03111736211
0.01947257486
0.0108356469
0.01111089919
0.01502277746
0.004421122162
0.009145757701
0.007041992246
0.006413737564
0.007296281413
0.009442591298
0.006532822817
0.01087688239
0.01084464418
0.01073607943
0.04009054788
0.03097005339
0.008324054891
0.0103992027
0.01156304685
0.01881220907
0.02112481573
0.01227218394
0.01517461237
0.01503566936
0.010462289
0.006911120437
0.01041589661
0.01188449989
0.008295931417
0.01182785379
0.01208992032
0.01222399576
0.01226004106
0.01203886194
0.01222339592
0.01214215811
0.01201870446
0.01234477189
0.0123565324
0.01229873404
0.01255569579
0.01277184795
0.01255814423
0.01933131264
0.02050235707
0.01950369088
0.02678309395
0.02388454704
0.01858353112
0.01742518491
0.01873471366
0.01135675942
0.01820098921
0.01928695043
0.0130961599
0.01818054406
0.01221771297
0.01245719331
0.0198049222
0.02002078223
0.01935120189
0.01965467929
0.01227954121
0.0134035654
0.02330461252
0.02289344376
0.009114275232
0.009106846143
0.01004287822
0.007517818044
0.008996616341
0.009033251898
0.009031996158
0.008784855354
0.01066948831
0.01927858195
0.01722152254
0.02226344831
0.02111704427
0.0122214349
0.009569642911
0.0101393555
0.01418907409
0.006579428831
0.009802301515
0.009760179508
0.01110555303
0.00956788243
0.009753815298
0.01702176087
0.01512539861
0.009783090244
0.04639520975
0.04325909015
0.08283119643
0.07419732183
0.04347399851
0.06379144286
0.08915313691
0.08561000535
0.03550146793
0.03265690474
0.03071243559
0.02317018331
0.03010720371
0.04371198773
0.04443865322
0.038728158
0.02203904835
0.03164880984
0.03212290586
0.02876011386
0.02974770046
0.02075420029
0.01425093379
0.01533186761
0.02360647
0.01674848415
0.01588850721
0.01790697544
0.01695643041
0.02395541409
0.01620588368
0.01692022726
0.01331182893
0.01736753276
0.04772231617
0.04791613028
0.03062670542
0.03029276242
0.05080008526
0.05079119263
0.02917904174
0.0287851236
0.02995274529
0.02952975532
0.05941745386
0.05882252062
0.03567382415
0.03748065404
0.06058048195
0.0600038387
0.05460003302
0.05404668884
0.03220049784
0.03328860421
0.05575310218
0.0551725421
0.009876469754
0.0156813673
0.01571236942
0.01564954912
0.0156822431
0.009828786925
0.01012725777
0.01460000311
0.01270191055
0.01563937049
0.01537604089
0.01012316882
0.04280554292
0.02519651201
0.02546417433
0.02477811279
0.02498161697
0.04256066219
0.04413406545
0.02639614863
0.02687421284
0.02572683961
0.02603453712
0.04365783064
0.04050872224
0.0235689856
0.02380685543
0.0232047122
0.02343321938
0.04027756233
0.04177043097
0.02438864423
0.02457695896
0.02396978727
0.02420228396
0.04149830563
0.02691428967
0.02673152594
0.06845995919
0.04591610742
0.04623572054
0.04521971404
0.04549816594
0.06774089351
0.02735824008
0.027153806
0.02483209126
0.02607951795
0.05961091515
0.04150421603
0.04120138128
0.02776518918
0.02916163568
0.05323385622
0.0658399871
0.04452217619
0.04471999059
0.04380781774
0.04375803855
0.06460838876
0.02563480634
0.02568068583
0.009144857902
0.009310379318
0.009081422489
0.01068308909
0.009782271853
0.01229065974
0.009137616848
0.00912193293
0.009061200179
0.009099171704
0.012194469
0.016526265
0.009833294363
0.01089927064
0.009246589363
0.009068021026
0.01429095996
0.03562326434
0.05327731479
0.05297394148
0.05466207802
0.05430560035
0.03620416193
0.02118268755
0.02094544079
0.02175472283
0.02148324921
0.0214610107
0.01683835354
0.02384826084
0.04377765864
0.03919932484
0.05082814945
0.04905193983
0.03381559866
0.02605692203
0.01812582515
0.02330137373
0.02476671975
0.03903196427
0.02285530182
0.02314108639
0.02218160582
0.02290919023
0.03909857039
0.02248304982
0.02225829111
0.02330162623
0.02305862079
0.0102076103
0.01122382868
0.01095859032
0.01368501327
0.01209328115
0.0102088279
0.009806386538
0.009975506703
0.01050831993
0.01027244358
0.006667231058
0.01194930802
0.01140208401
0.01157223378
0.01212063844
0.01170075661
0.01190154529
0.01945834201
0.01941273279
0.01971081484
0.01964589513
0.02985303751
0.02983594274
0.04512985311
0.01864708607
0.01967968151
0.01918003029
0.01924550186
0.0202341785
0.03405997293
0.03370235588
0.03448136023
0.03420287723
0.02031148604
0.01968536573
0.03302192963
0.03118679653
0.03358234112
0.03300089503
0.0196720815
0.01135209915
0.04299153034
0.04243668041
0.02811416626
0.0134623891
0.01103389882
0.01079350848
0.008234621037
0.01129698423
0.01283460237
0.0182401205
0.01282360992
0.01375753475
0.0134717038
0.03052675187
0.0188320817
0.01903591448
0.01222585466
0.01228445648
0.01233051336
0.01300553305
0.01286482722
0.00882052409
0.009040163462
0.01301957488
0.0123978579
0.01279041133
0.01527055547
0.01883535302
0.0284576476
1.155165624
1.155671507
1.155751079
1.155889688
1.156750988
1.156289648
1.15708498
1.112641571
1.1570995
1.065602645
0.9296454451
1.112304485
0.9035664746
0.8438398947
0.9988951372
0.8443841389
0.8317627559
0.9866572328
0.8386612394
0.8926044116
1.056661667
0.9148724831
1.027968556
1.157705437
1.067707936
1.1576483
1.15678564
1.157265129
1.15633232
1.156113647
1.155129334
1.156220235
1.155723988
1.156695724
1.055442411
1.157035049
0.9819275761
0.8041993304
1.035293925
0.7598801283