/*--------------------------------*- C++ -*----------------------------------*\
| =========                 |                                                 |
| \\      /  F ield         | OpenFOAM: The Open Source CFD Toolbox           |
|  \\    /   O peration     | Version:  v1912                                 |
|   \\  /    A nd           | Website:  www.openfoam.com                      |
|    \\/     M anipulation  |                                                 |
\*---------------------------------------------------------------------------*/
FoamFile
{
    version     2.0;
    format      ascii;
    class       volScalarField;
    location    "2";
    object      omega;
}
// * * * * * * * * * * * * * * * * * * * * * * * * * * * * * * * * * * * * * //

dimensions      [0 0 -1 0 0 0 0];


internalField   nonuniform List<scalar> 
12556
(
31.9310368
31.93189502
31.93284767
31.93365373
31.96670519
31.96737027
31.96801507
31.96931325
31.9719261
31.97632459
31.98253195
31.98915769
31.99415709
31.99339861
31.98844307
31.98198279
31.97625123
31.97163547
31.9696076
31.96788875
31.9341625
31.93294708
31.93188661
31.93090985
31.79468085
31.79729555
31.799865
31.80213242
31.83597669
31.83839218
31.84207769
31.8634024
31.87556767
31.89631436
31.92599449
31.95800705
31.97921786
31.97943199
31.95843373
31.92870268
31.90033202
31.87955232
31.85083453
31.8421578
31.80486774
31.80108418
31.79776997
31.79481907
31.66028578
31.66480287
31.66936806
31.67298506
31.70735711
31.71253167
31.72135909
31.75059002
31.78018833
31.82920424
31.89667756
31.96668436
32.0098412
32.00984364
31.96391787
31.8993998
31.83626652
31.78844611
31.74063273
31.72172529
31.67875995
31.67218429
31.66645947
31.66159588
31.52724384
31.53328181
31.53918648
31.54441359
31.580728
31.59066517
31.60924804
31.65492372
31.71674423
31.81805076
31.95797413
32.10841212
32.20736874
32.18677911
32.0730044
31.9431662
31.81830181
31.72548153
31.64675357
31.61083109
31.55764756
31.54661089
31.53783683
31.53074672
31.39652346
31.4042031
31.4120947
31.4195181
31.45790254
31.47511068
31.51069535
31.58287638
31.70265903
31.91152041
32.22974597
32.62505732
32.89045947
32.81325241
32.47698291
32.15585863
31.88568951
31.70801832
31.57793117
31.51252081
31.4415982
31.42424109
31.41172515
31.4022126
31.26676212
31.27586593
31.28539738
31.29575192
31.33966463
31.36861474
31.43121774
31.54220989
31.75867287
32.18600192
32.98447141
34.4062599
35.61154655
35.02831411
33.6689444
32.73444959
32.11529684
31.75469252
31.53654586
31.42964614
31.33264138
31.30451073
31.2869421
31.27448551
31.1399189
31.15076525
31.16287708
31.1774781
31.22686729
31.27198932
31.37127954
31.53737281
31.91219011
32.73999609
34.79107461
41.51712994
48.54706015
45.17720038
36.93830046
34.00342939
32.59412058
31.90136996
31.52848552
31.363936
31.22969757
31.18771598
31.16350709
31.14774157
31.01451813
31.0270556
31.04184718
31.06172157
31.12133205
31.18697794
31.32977508
31.56973662
32.15385921
33.55449302
37.83094181
59.42457171
77.41389395
44.44940898
36.28314322
33.38323734
32.15869628
31.55339215
31.31232771
31.13396173
31.07406746
31.04151174
31.02179902
30.89393465
30.90874718
30.92762303
30.95551963
31.02330417
31.11417373
31.30537511
31.63671751
32.44822485
34.40670191
40.46890864
72.96280168
149.4897083
55.38858232
39.40582377
34.43171646
32.50434717
31.61187133
31.27290129
31.04517084
30.96489655
30.92229402
30.89826569
30.77694191
30.79388418
30.81673267
30.85317651
30.93316806
31.05255077
31.29581081
31.72541343
32.74571007
35.11687479
42.06957876
79.89419364
187.1726643
64.90779947
42.56923728
35.53272884
32.87835294
31.6890771
31.24344262
30.96381253
30.86152244
30.80783695
30.77887369
30.66713593
30.68698273
30.7153057
30.76279534
30.85165643
31.00090393
31.29937949
31.82700184
33.02724085
35.70089505
43.31408464
90.23596707
187.0779564
70.3849114
44.93700716
36.45949497
33.22631792
31.76716359
31.22111313
30.88951203
30.76561979
30.7002464
30.66595221
30.56240018
30.584585
30.61760393
30.67558147
30.7781823
30.95750751
31.31234809
31.93396446
33.29085179
36.2178944
44.59838878
101.8770246
172.9047081
72.2611699
46.26275244
37.08482781
33.49320235
31.83026973
31.20116646
30.8221418
30.67691931
30.60032012
30.56056787
30.46568545
30.49103328
30.53068471
30.60069355
30.7113414
30.91932452
31.32740638
32.040919
33.53060375
36.69701672
46.18793224
111.8323781
809.3904481
148.3740505
71.77440092
46.67468811
37.35934479
33.65347611
31.8671697
31.1774296
30.75877137
30.59543316
30.5078857
30.46282875
30.37308478
30.40124542
30.44700173
30.527421
30.65620985
30.90203188
31.37648195
32.17580753
33.81201069
37.29735251
48.58213756
159.2940616
501.6516561
138.5197017
70.26058146
46.34190818
37.36123158
33.71838886
31.87572563
31.14664574
30.69524175
30.51836308
30.42095499
30.37073566
30.2866179
30.31766021
30.36909089
30.45883783
30.59946038
30.8740956
31.40511629
32.30653809
34.11570166
37.92172608
51.01946831
438.4611689
358.8486049
128.4899041
67.30031968
45.51875401
37.15849099
33.70426306
31.85431499
31.10571794
30.63159541
30.44365855
30.33734277
30.28321872
30.20109421
30.23487638
30.29167623
30.3910541
30.54434283
30.84495547
31.4310217
32.46271989
34.56504702
39.02427225
56.17632222
740.700385
301.8099472
116.2711809
63.3214495
44.31449243
36.84404504
33.61865463
31.80310161
31.05243075
30.56270216
30.36679586
30.25400903
30.19598745
30.1191736
30.15576896
30.21728284
30.32459644
30.48867125
30.81263112
31.44927397
32.61117729
35.17774172
41.13115517
71.96956925
968.7575541
230.7019024
100.9776142
58.67461035
42.99688242
36.54293179
33.49657803
31.72866186
30.98773981
30.48954284
30.28846901
30.16979136
30.10899375
30.03457189
30.07375477
30.13975136
30.25534162
30.43094159
30.77587754
31.45961265
32.70953995
35.77851942
44.51954329
130.0506423
797.8410324
177.9647186
87.18580611
54.77575558
42.02956962
36.26398604
33.34973031
31.63453885
30.90842331
30.4070027
30.2027189
30.08105738
30.0178224
29.95187572
29.9936221
30.0635969
30.18562103
30.37008887
30.73402975
31.46171237
32.79541681
36.15708761
48.2479624
217.6894758
575.2981952
149.147199
79.15039889
52.78668158
41.44443519
35.97963646
33.18601543
31.52673513
30.81801056
30.31808885
30.11278924
29.98919902
29.92469735
29.86385834
29.90776235
29.9816591
30.11099503
30.30570446
30.68723087
31.45790042
32.87370474
36.54463182
51.78895953
251.5638994
452.3452745
138.1093522
76.42603081
51.6531205
40.91504769
35.70075299
33.01372385
31.40913872
30.71808656
30.22058812
30.01496222
29.89045231
29.82537821
29.77780197
29.8236434
29.90093657
30.03565446
30.23756023
30.63604011
31.44802567
32.9479081
36.97024059
56.4639151
275.726452
374.8868414
130.4471701
74.20397782
50.72446065
40.43912869
35.43242006
32.83822265
31.28453717
30.6102798
30.11818076
29.91388395
29.78932382
29.72411302
29.6847769
29.73203134
29.81269404
29.95417752
30.16586272
30.58117451
31.43458907
33.02194811
37.46600406
61.38325344
295.0542914
319.0164921
124.0634295
72.27394059
49.96136626
40.01669415
35.17739354
32.66296553
31.15499293
30.49616225
30.00814893
29.80488194
29.68069994
29.61581048
29.59540008
29.64379938
29.7271807
29.87310923
30.09077777
30.52341794
31.41922158
33.10108702
38.11092843
65.95167873
307.5987033
278.4792819
118.6129977
70.5610371
49.30752889
39.64566408
34.93782009
32.49030808
31.02227179
30.37712797
29.89592666
29.69517086
29.57191615
29.5075817
29.49759302
29.54672183
29.63296137
29.78536976
30.01304942
30.46378553
31.40417021
33.19376898
38.97175005
70.17592065
314.7531384
248.343326
113.8423019
69.01272513
48.72294156
39.31855066
34.71459992
32.32178662
30.88781927
30.25446703
29.77703062
29.57762107
29.45535601
29.39187664
29.40631713
29.45602359
29.5444821
29.70061409
29.93320164
30.40343065
31.3924738
33.3115674
40.00784861
74.09588108
316.9531047
225.4830061
109.6020148
67.60050667
48.18781543
39.02533934
34.50677664
32.15816474
30.75267712
30.12919348
29.65913644
29.46287129
29.3420562
29.27954251
29.30441692
29.35448691
29.4456156
29.60851848
29.85229817
30.34341555
31.3861873
33.46638601
41.12760224
77.70305359
315.02329
207.7425832
105.8043532
66.30679002
47.69191345
38.7571214
34.31203723
31.99939581
30.6174486
30.00217988
29.53442573
29.33928707
29.21972311
29.15834049
29.21311913
29.26352644
29.35671813
29.5230452
29.7707768
30.28489538
31.38839338
33.66516791
42.26453662
80.98783071
308.4240772
193.535096
102.3783604
65.11480238
47.2279548
38.50707144
34.12757173
31.84482916
30.48239917
29.87398017
29.41449605
29.22303341
29.10517296
29.04491431
29.10754856
29.15824017
29.25421643
29.42819581
29.68971848
30.22868849
31.40041075
33.90709318
43.38460071
83.95524602
299.6456698
181.7569966
99.26014132
64.00806574
46.78951725
38.26978047
33.95048531
31.69343975
30.34756137
29.74515948
29.28573233
29.09487033
28.97830814
28.91924539
29.01829261
29.06929959
29.16739853
29.34476197
29.60908191
30.17545779
31.42535009
34.18548543
44.4754814
86.65862493
289.943628
171.6991023
96.39893647
62.97256293
46.37043032
38.04047775
33.7780557
31.54420797
30.21297524
29.61598323
29.16700986
28.98036847
28.86556446
28.80760857
28.90887378
28.96024643
29.06136002
29.24749101
29.52981709
30.1254827
31.46287926
34.49064407
45.52895955
89.10905364
279.8223471
162.9366031
93.75546
61.99418546
45.96361291
37.81467066
33.60805925
31.39647982
30.07885453
29.48705
29.03443545
28.84758926
28.73401518
28.67721117
28.82403498
28.87577258
28.9790718
29.16849459
29.45113046
30.07856202
31.51176163
34.81175774
46.53363457
91.27165171
269.558817
155.179727
91.28668949
61.05455752
45.56103317
37.58887962
33.43940445
31.2503189
29.94571125
29.35857123
28.9205254
28.73825438
28.62627895
28.57045839
28.70972061
28.76195334
28.86843397
29.06741226
29.37399406
30.0342016
31.56979416
35.13933294
47.48158186
93.13757884
259.2760287
148.1815726
88.94085093
60.13361174
45.15615742
37.36183363
33.27257095
31.10660332
29.81435897
29.23145047
28.78254616
28.59913332
28.48825415
28.43347639
28.63219451
28.68479238
28.79332793
28.99535721
29.2968602
29.99180002
31.63457632
35.46669913
48.37234906
94.74270708
249.2196049
141.7642915
86.67682239
59.21840088
44.74707053
37.13503381
33.10946468
30.96681826
29.68585366
29.10585193
28.67870157
28.49941308
28.38967877
28.33565739
28.51066155
28.56384864
28.6755902
28.88688848
29.22137072
29.95093805
31.70414248
35.79029265
49.21082516
96.1335836
239.8069423
135.8334472
84.48078907
58.30791374
44.33730814
36.91227126
32.95282574
30.83270134
29.56143274
28.98326589
28.53073058
28.35021466
28.24144537
28.18832967
28.44379213
28.49726343
28.61061686
28.82538038
29.145608
29.91173236
31.77713194
36.10920114
50.00273193
97.32433197
230.7673525
130.3381091
82.35824949
57.40951844
43.93336019
36.69792923
32.80516711
30.70557162
29.4426648
28.86408939
28.44562469
28.26634893
28.15801129
28.10532187
28.28840551
28.34251208
28.45946447
28.68468252
29.07340134
29.87502271
31.85142679
36.42207224
50.74973445
98.37434495
221.8760383
125.271358
80.33106936
56.537832
43.54305301
36.49584334
32.66827663
30.58624873
29.33234951
28.75219097
28.25669339
28.07583997
27.96814919
27.9162853
72.19597128
176.9145337
87.70982562
78.89407207
226.1761772
183.7300786
88.89322031
222.481955
227.8233758
100.5086175
200.3859385
219.7476256
110.7403568
991.6306103
845.0354482
180.2052697
197.3049061
139.0199727
619.2071035
971.2889899
523.8068102
175.7007923
178.2513471
56.51335346
48.07611073
80.01503311
44.84035366
550.2277057
186.5348749
141.3064542
60.83893825
48.87515071
41.74256683
67.43321767
63.16146688
1887.093115
1334.378044
185.0268226
74.95223397
64.80196703
43.0486711
73.99887921
68.09464702
83.38491606
238.8240694
215.1187805
1047.415687
1457.872438
188.3681317
82.7400509
77.50669846
44.34754376
82.80011358
75.02519467
94.32731172
341.1163703
274.1770132
581.6876583
777.6162014
45.87481272
93.72734222
83.87448292
103.9152457
514.8057762
414.7713506
2327.603508
376.1211944
436.9942105
48.18062855
114.8373843
95.34403694
120.3408712
1095.612718
729.0187778
158.2434313
468.87112
610.012484
179.8895187
211.6489973
111.1747971
173.6728186
1298.685185
580.988536
138.3876173
465.5241989
905.8630152
212.2083913
192.7126697
75.98261288
251.9721252
265.7694894
217.7706727
248.8842248
1475.674448
1888.575019
207.6722985
1306.400129
1126.507219
936.6810647
1302.907761
204.9164821
270.8829403
242.7281687
84.72833547
309.7292966
353.5782498
267.9313489
306.4309272
813.8797755
1024.054358
227.5373728
773.5694013
605.8477043
1114.093271
802.4884057
228.583631
410.5072029
344.4744768
95.73787201
419.584625
519.7178327
356.4572002
415.605997
450.059171
559.6926639
718.4398065
524.2684319
104.2438801
3305.438519
707.3329589
1063.410331
524.7925834
691.4205193
3720.713859
345.2166806
369.763336
2036.264905
8539.778237
1104.684415
121.7325369
710.0088599
1712.700224
7588.699078
1071.970263
1684.295801
729.3145081
39.94222143
62.44852721
52.58496333
66.89291211
142.2237142
96.43481247
3316.720315
586.1666965
75.41094539
190.4459581
168.1392679
6012.151797
175.132756
85.11216216
83.73335584
5974.830851
840.9522423
934.5425917
641.0512266
305.6994773
333.3591088
165.1572642
145.8709206
68.5705728
1413.913261
257.1442753
599.5518749
155.7107624
411.6953122
127.6776204
954.285902
1222.315398
208.5658503
462.3406228
393.9812553
585.5177806
475.1700198
211.6887613
1398.856715
4616.380682
857.6378108
80.04466886
63.55866026
101.0898534
162.9642147
75.60605296
81.54082767
4617.598948
385.0606401
3262.166497
434.0096887
2389.171193
346.6886847
1531.871732
1511.518301
1214.646787
1243.371421
2355.965266
5099.062056
655.3935207
2848.459754
1540.233274
5729.041417
3352.681587
684.0603887
450.8427158
178.763951
186.5886071
707.221195
801.8241471
5392.283754
785.1665018
231.3263296
244.7994924
215.1585409
226.2463893
782.1580917
1267.211418
1415.019547
193.6135349
904.8551531
738.0673263
1366.565031
905.6212993
197.5739048
143.0262753
441.3911851
209.0760169
654.3564023
473.0064384
153.2721831
628.2743098
930.4882968
910.3515129
861.7723003
252.8690074
1495.569955
253.3054686
232.7564254
1445.964021
1386.457578
1489.869803
1452.899877
236.7432917
1570.795742
1587.799866
1199.921828
403.65964
393.4056177
405.5946074
405.2410314
1190.704178
1106.664234
358.4358228
328.1516646
388.2501954
367.3489768
1126.773808
329.7891192
332.6332623
284.2543043
286.6256609
864.9749953
5926.190542
881.2013938
449.7177081
456.4709915
385.4268548
389.4772364
1453.916011
1060.330356
505.1213481
1296.523901
2179.115362
576.0893932
201.3418685
211.3612579
189.4031436
198.2308081
567.4963422
1542.611653
752.1132148
764.5759269
561.5062947
566.0886111
6144.737057
1166.612242
605.7426856
678.5050693
250.6192603
261.6984526
1353.884951
2729.124505
1935.227969
2987.55349
1107.215231
6719.347539
3249.228241
5793.716998
1103.333034
815.8878315
4229.724403
2409.856767
4074.679447
2203.114782
2985.617803
50.23357509
120.4202656
117.6520955
174.102204
4217.654497
7882.103261
375.2351071
161.1147354
172.1610221
1229.485971
3402.747302
4622.898887
528.5645521
582.5143328
1094.630881
280.1821754
296.6982086
623.7941369
156.5574717
114.7538739
236.3670526
461.776888
144.3869771
170.1748121
1775.321239
4444.345733
4612.961402
1424.264872
1120.901778
3165.054743
2297.04753
5338.786537
5244.733375
1389.305314
314.4343647
147.4690583
152.4234426
141.3595084
145.8919073
308.6010618
169.6205957
176.4533831
446.2320926
1012.002165
413.9054663
432.5656735
6460.800771
3424.369283
565.69984
1126.726451
4041.050056
4439.44708
625.5982229
263.1531098
220.512068
315.8452718
277.7429793
655.1582327
1519.472195
5272.986547
5347.882923
1793.110949
258.0673921
135.7459655
139.9278623
709.1671811
695.9789985
344.2859931
2168.431142
1987.149055
962.5989537
696.4040734
361.9563246
376.4338051
991.0696619
397.2100294
404.3673937
381.493998
393.4938796
971.8677985
373.4459448
161.4673585
167.5213457
154.1449292
159.5566832
369.0577907
431.5518276
1015.367194
1005.863769
1593.940788
1548.164561
498.9070924
367.6039744
745.8669405
711.3693821
1001.748828
995.1262977
404.2428267
488.7810986
1020.965131
826.9103577
6192.955979
2349.429351
730.3022066
901.5502602
540.0132062
1626.207888
1601.124471
1631.937063
608.9093786
5246.05834
8689.283065
328.6548475
372.8138486
439.5207001
456.2361741
1112.481509
2204.520957
1338.797869
657.2579238
1729.884827
8282.792643
2004.73959
1819.118916
15893.62293
1082.098767
1604.057185
2028.320479
2467.074444
1835.678629
5970.990396
6052.726161
1481.739554
1951.669812
6184.381917
1465.178938
1401.321395
403.0197946
1498.958388
594.6496644
1485.796151
439.7892034
4619.769157
3275.114415
1077.912611
5322.767072
6143.659238
4834.606889
3557.058887
1174.534069
4978.917508
6068.858774
3515.287279
4749.572634
6439.031364
2322.129895
3169.73677
1603.498362
2078.020241
5792.089204
4728.784338
1351.95507
825.9745617
2210.150435
1489.770526
742.8495095
465.663275
1354.751935
4788.658713
6085.254336
1687.256134
1445.033566
4664.292497
4799.084597
3482.732737
3277.637727
1148.458364
5597.454204
5497.097417
4087.227396
5441.153523
5455.781775
1351.277704
5383.502107
3581.318854
3464.034382
3892.135553
2121.958735
988.0118122
1068.3356
4406.929754
1250.050599
1417.351296
1101.009369
1200.702501
4135.169786
4044.849453
1146.566832
1360.378249
386.9977528
407.470615
922.3195604
755.0092279
367.2608341
381.8947414
1373.232639
1385.526435
894.5821097
330.5498545
352.3908933
303.7655994
324.1071299
887.3830874
953.8518411
396.7199813
431.1104458
360.3222204
386.8865504
960.6838497
589.5292434
277.1506407
297.7563257
845.5798903
878.7716116
2875.3126
2997.264068
1067.960606
4296.362657
4351.146691
5511.419113
2946.178534
2453.163946
4209.355759
2910.073915
722.5828134
2053.654984
2744.555003
1534.019413
536.6258981
601.0640203
511.77824
525.7666664
1499.210465
650.4541155
661.0027256
622.1498925
646.610528
1426.053118
461.0359009
474.1785328
439.5836269
456.405715
1417.552486
1474.311477
495.1140294
507.1556481
478.4647017
490.9997685
1471.502928
5145.286033
5219.754433
1533.254678
1719.875902
5432.55024
5123.156128
966.2542465
970.8320479
940.980094
964.803747
982.9249005
995.2136672
972.5570644
980.385492
677.644032
687.943749
664.3078147
674.1364952
728.3004281
898.4352115
692.9562705
705.5693751
1860.960945
2186.072976
1477.746673
1729.427739
6162.379023
3485.128319
3835.367551
2341.031636
3364.553769
1028.500376
1021.12816
435.8834246
1623.992833
1628.501762
1592.22183
1614.786177
1673.095002
487.9934427
1512.657389
1081.272205
965.7111678
766.4245018
371.7394799
1043.141364
1498.396203
995.9211283
1053.062315
1557.373234
1580.581934
1517.822222
1547.637539
400.5501858
993.1150293
983.740116
6211.319522
1545.65148
6122.178132
5288.298152
6100.875196
1658.78172
6402.30831
2073.797755
6137.461655
5362.057119
737.0070254
817.42941
1659.259013
1631.304413
544.7807636
593.0463364
1723.135891
1661.92238
6083.258935
1152.70807
468.0912691
510.7627122
6221.183762
7030.160741
1803.507725
7622.207119
5596.533138
2481.759165
1083.685754
6699.811989
4029.966706
7407.807281
4456.418305
1547.046052
71.44870548
45.45118421
38.13505256
6134.550862
6109.050598
163.209195
84.30133798
85.09460235
6373.904148
1119.281897
3234.735947
2367.499573
384.1694187
320.2790995
189.7215758
381.5665546
258.6407791
609.5951278
2201.491784
371.0716603
410.8060094
58.35583997
69.46668275
141.1336809
479.8189614
960.1185806
1420.624677
227.8672785
125.6097211
129.2770861
120.5625163
124.3806895
224.53211
980.7411236
1093.649311
3553.190082
789.5094001
694.2264688
408.9198432
349.6673185
362.8935801
749.9795267
1545.175937
1975.121585
679.4250887
130.5259027
134.4148032
254.2463977
318.5010139
662.9569136
637.6340759
616.0780432
550.9644524
296.996056
640.8925203
331.6217925
345.289339
4881.909992
4591.099501
2975.82167
1639.958901
1618.466278
1041.300725
4214.284335
6037.909135
5459.650927
1511.890691
865.3469258
956.39035
1715.695514
1076.975023
1673.174845
1660.421642
1684.107634
3562.048295
5825.789372
4010.490965
4427.527108
5911.254404
1788.417122
1432.833355
852.017942
1433.222378
205.4488392
162.0224997
294.3467153
1041.393735
2834.909388
1983.405706
6218.307564
6547.458224
6684.737688
5573.403005
6383.563028
105.7729635
137.1749152
362.1491071
3750.67265
2454.497355
1892.627276
4940.548156
3812.304228
2592.55933
4565.089435
4178.22354
6340.470681
6019.345624
4488.398063
896.5565339
965.6604242
1946.787681
5882.401356
3300.600563
3650.069185
4759.32056
3028.608896
3486.200553
1315.032403
1726.548735
1405.845627
900.6144402
623.0429179
630.7374599
1331.183544
839.7383912
881.0868968
635.7240199
645.663278
917.5357454
245.6242899
271.0404507
562.6534295
705.8351084
1243.656858
914.1048934
1393.434385
1444.12917
936.2590503
1826.391044
1344.105674
1394.124046
951.4088983
953.067659
1499.084599
1488.344852
1500.283916
1424.431465
1444.217889
1437.72729
914.1424439
917.3512417
897.7199726
902.6121234
1398.606742
1485.003249
942.5893838
945.7702006
920.8727035
924.4673882
1459.309691
677.7446652
666.9676972
321.3615499
341.4301774
692.3697457
681.2219562
521.2447526
509.8052338
277.0567964
1530.498251
1532.362938
1504.476121
1508.430757
1871.612726
1538.68139
1539.460364
294.2778052
539.9667221
525.8835019
5859.991146
5798.024353
3831.556957
4043.487078
5885.211683
5845.079969
6050.752103
943.3623918
1913.324244
1594.485002
315.6866344
327.3172219
613.6009434
550.3357501
303.0943788
312.4233443
1069.438331
1069.44898
749.0457
766.9320567
1076.748487
1080.992989
6102.207359
1429.80369
942.9277148
930.5683228
12131.99043
2235.557769
2296.046518
5068.273795
4268.950713
1739.063627
1718.547997
1093.326534
6492.239467
7058.663154
6752.896642
5360.692265
1159.595884
1782.749936
1728.671517
3272.232819
1229.638475
1465.841771
6016.698408
5935.682936
4720.789955
4413.891901
2696.608872
1457.371123
2081.776817
1644.653076
3885.445808
6075.049177
5256.738546
6151.446486
5899.66036
4345.501576
235.6599003
338.547869
1161.583192
4603.253667
4508.600232
4689.896147
4679.969719
4536.571033
2927.154741
2905.187041
2945.746221
2929.871102
4534.063922
5378.130862
3017.126873
3040.614071
2892.021313
2977.896623
5466.936114
4214.227542
2659.641863
2393.237024
2885.153647
2809.231278
4317.645315
5253.700796
3099.664329
3122.030304
3067.691253
3080.165923
5301.066941
4789.023991
4707.848233
4887.834207
4664.539788
1013.757337
715.0353962
718.4423087
1580.350181
1019.564595
1023.154618
994.0848818
1013.601258
1569.504509
5931.502679
6134.447122
5444.007047
6002.498755
1640.018559
1653.12717
1612.661251
1626.925864
2073.203152
989.2488581
1575.297557
1515.517978
1616.669953
1028.259853
1031.476343
1024.632241
1026.845901
1610.364914
1552.295579
1592.277142
1100.867962
1493.790307
2048.50078
6361.192836
5986.820586
4707.496061
6172.748479
839.8005867
1170.157034
12951.57257
1114.473361
774.8676744
777.8347003
1733.9456
7945.590819
8223.606312
9456.307621
6166.217227
5855.180057
1688.227938
1677.080996
1077.66126
1649.787744
2979.330198
4320.851621
3025.81657
3981.079549
2999.529336
1232.509943
4059.453515
3053.986293
6029.764817
6246.905288
6132.729438
4746.288848
5379.946286
1431.226824
1747.387929
1365.505929
683.3857838
890.5058808
1337.677019
1427.518271
919.047953
1311.459998
1704.025709
5971.411058
6232.429644
5883.9388
5564.853511
6316.129367
6268.798935
6133.578555
3933.597008
5450.044976
4999.804146
6086.124054
6289.203061
4335.566071
4623.072773
5053.171061
6343.896157
5228.877168
3868.049059
4177.860602
3545.054451
2537.545787
3541.96039
1873.774121
2731.020185
3681.947902
4034.65897
3709.95944
4955.131331
3126.311305
2967.92368
4262.497129
3082.48711
4571.22431
4703.217596
2963.395064
2949.667002
2988.239827
2959.532108
4730.536076
3409.98981
2017.247561
2053.415863
5535.180717
5526.364845
4762.151122
5893.460722
5697.644704
5572.076253
5535.082557
5768.579165
4499.879319
2415.982826
2696.959225
2108.644292
2215.094635
3852.446926
6046.667977
5128.772517
2979.254118
6368.773994
6098.582732
6078.740379
4092.438471
6041.830755
5845.813384
2487.149613
2814.295246
5095.238184
1352.273501
1401.085949
692.8895916
767.5415339
1285.770413
915.6008942
649.6318416
672.9767972
1353.262498
1320.673439
799.8116718
1379.8685
1718.022456
881.4853616
1396.605599
1384.663596
2874.103414
1953.011358
1922.864688
2147.657243
2077.424464
3038.040391
4563.971405
4265.09573
2755.43977
4110.25078
4320.361915
3847.611682
4065.061557
2708.474785
4112.628143
4023.15804
5249.56548
3845.813013
1006.846804
998.9525315
1461.124898
1506.258625
963.0069317
959.4220744
1472.449999
1482.332908
1454.935454
1464.987786
909.5634035
912.1535384
1434.761973
1408.376596
905.0299349
907.1928238
934.7784292
938.0312843
1478.519394
1466.549007
928.3371559
931.6363188
5190.68524
3180.257559
3199.653202
3136.563149
3154.95731
5174.79288
5164.586139
3521.723357
4076.711329
3240.717144
3321.291147
5146.166777
967.8965349
1512.872527
1503.907895
1525.555216
1519.620824
969.243699
957.5139605
1472.986709
1456.512625
1495.372219
1485.242684
962.5451157
987.3885203
1564.40301
1555.76287
1577.000969
1568.622745
989.5362528
974.6825683
1537.020304
1531.875221
1550.667655
1542.828291
976.9353361
1521.927845
1525.02828
680.9471836
963.955543
961.9411835
969.0474526
967.4220373
684.8809928
1513.764856
1517.318313
1578.250282
1499.928448
748.3469508
1019.365457
1028.706861
1423.672965
1373.531227
822.9430672
695.0792583
974.6928665
973.996922
980.7635949
984.5014136
704.2294813
1548.446664
1541.699276
5793.729727
5661.072667
5967.543026
4324.67323
5007.690197
3612.897115
5701.862378
5770.383016
5686.006904
5699.153278
3682.046051
2617.507708
4926.873469
4223.907425
5595.579371
5735.711567
3037.745672
1032.596823
736.9459259
738.5285661
724.3449225
726.6711827
1021.553117
1624.344578
1636.821572
1597.327454
1612.335777
1583.295406
1995.369164
1452.515133
863.7860787
946.9875844
763.3009262
784.6919774
1070.848668
1410.014017
1928.209035
1538.504864
1464.396753
1006.618412
1589.094994
1577.453239
1622.368915
1581.989618
1002.814638
1564.095596
1574.504586
1529.163936
1539.679015
5890.407495
4012.786795
4245.979614
3088.706714
3605.271219
5992.75263
6083.848404
5890.591283
4608.07313
5177.272368
6400.671723
5962.631162
4618.049761
4860.378678
3775.428719
4209.127704
6136.462301
1682.641964
1683.681092
1666.900314
1670.121906
1120.022833
1131.327869
794.6014619
1741.063979
1648.428286
1700.228861
1691.431779
1645.883705
1039.591942
1046.677489
1033.176874
1038.01952
1642.509759
1678.965254
1058.74704
1112.265874
1048.052778
1061.575829
1682.099302
5896.397473
803.6503358
808.2595138
1155.180523
6074.138125
8827.755537
9149.924275
8779.082648
8724.183652
6681.630519
1753.568287
6663.130524
4882.005212
5258.48591
1091.321972
1710.444387
1695.568695
6657.199282
7279.289978
7040.996787
5799.044882
6301.544785
7714.641883
7346.967133
4824.100538
6954.517442
6041.986048
2107.174745
1699.73763
1148.82357
31.7775658
31.79456598
31.87142366
31.8015796
31.83088654
31.88953936
31.84186948
31.88293374
31.91699295
31.89639289
31.94388079
31.9493254
31.95659799
31.98845529
31.97510414
31.99241145
31.9975466
31.98161863
31.99317689
31.96796455
31.96581287
31.95726283
31.91470854
31.9373191
31.90121297
31.86049004
31.90760571
31.84900569
31.8169479
31.8844314
31.67694151
31.7130632
31.77144024
31.72885955
31.78851718
31.81563565
31.81395714
31.89819241
31.87863039
31.92887523
32.02425068
31.95047556
32.04570356
32.10997526
32.00525968
32.12047831
32.1298255
32.01214049
32.11118773
32.059254
31.97681882
32.03415071
31.94708352
31.91587054
31.91942591
31.84124321
31.85022744
31.81660507
31.75491021
31.79788101
31.59866108
31.669366
31.69808045
31.70071372
31.82214533
31.78928744
31.87354143
32.06073647
31.92050065
32.13087351
32.36343475
32.06617438
32.40360113
32.56535945
32.19236373
32.59397356
32.6206752
32.18826069
32.54941926
32.41453861
32.10376948
32.3472954
32.13686394
31.97653874
32.07199079
31.90339373
31.84667371
31.85560752
31.73890831
31.74507605
31.54936225
31.67580064
31.66444116
31.73544673
31.98348601
31.84864093
32.09421346
32.53879195
32.14078695
32.72640033
33.46851194
32.49501946
33.62698305
34.3150627
32.82949084
34.37183387
34.372782
32.81601428
34.05471266
33.50292634
32.55783152
33.27591814
32.68958319
32.23513713
32.52393528
32.13740751
31.94454532
32.03544449
31.79868682
31.74466787
31.53527369
31.75710759
31.68910018
31.86498094
32.34272792
32.05226356
32.57274723
33.64643336
32.73818313
34.19806431
37.1946762
33.8895041
38.38601822
45.46800596
35.37922552
45.47288647
42.66513272
35.14100909
40.18386286
36.73171571
33.94749482
35.8403465
34.00327903
32.9377392
33.57268141
32.66111478
32.2417727
32.44244249
31.9681678
31.82855172
31.55813093
31.91261391
31.78934027
32.08743768
32.90796303
32.46615508
33.33639912
35.62524218
34.06628629
37.02945166
50.48403725
38.58463569
46.26222077
53.48680687
43.65508392
67.89595317
65.46559779
48.4468871
51.91603203
45.25650253
42.14817302
42.11853925
36.6250538
34.53685352
35.57793731
33.58010627
32.86093789
33.15025197
32.27657849
32.03169827
31.61710953
32.1226822
31.96027152
32.3731929
33.56931804
33.07069081
34.20566609
37.72094127
36.1947844
38.61619098
41.39753352
40.34327324
62.23509619
71.52931695
67.57461696
105.0934921
73.09834053
60.4309128
52.60788894
40.59192354
37.54060997
38.54730881
34.88660267
33.88935572
34.15021234
32.71337396
32.37570402
31.70212303
32.35441521
32.18001484
32.67290013
34.16909865
33.72600967
34.95444244
39.16853957
38.13628249
40.94910499
44.50715053
43.88913454
73.86445087
88.174195
86.78030174
169.2965081
102.7675308
92.1305578
62.8828764
44.84468822
41.70909951
41.7760914
36.32988752
35.26095961
35.26209897
33.21193635
32.83547431
31.8021865
32.58533278
32.41218877
32.96010102
34.68046502
34.30362434
35.56550436
40.21687532
39.44562073
42.41915594
46.41922292
45.95481798
80.97141703
108.1447367
104.7737299
190.217127
118.7753464
114.5845008
69.39595775
48.16663665
45.83181566
44.39720696
37.5884573
36.69511697
36.24511116
33.67332843
33.32680957
31.91028328
32.80689695
32.64027765
33.22836031
35.12974243
34.79509625
36.09690066
41.16910905
40.44170955
43.68065101
48.22556218
47.66631724
91.58091967
124.9117756
121.5106263
182.6809801
121.4823816
121.5851043