/*--------------------------------*- C++ -*----------------------------------*\
| =========                 |                                                 |
| \\      /  F ield         | OpenFOAM: The Open Source CFD Toolbox           |
|  \\    /   O peration     | Version:  v1912                                 |
|   \\  /    A nd           | Website:  www.openfoam.com                      |
|    \\/     M anipulation  |                                                 |
\*---------------------------------------------------------------------------*/
FoamFile
{
    version     2.0;
    format      ascii;
    class       volScalarField;
    location    "2";
    object      p;
}
// * * * * * * * * * * * * * * * * * * * * * * * * * * * * * * * * * * * * * //

dimensions      [0 2 -2 0 0 0 0];


internalField   nonuniform List<scalar> 
12556
(
921.1261756
920.0289229
917.3216209
911.6745613
903.521376
886.1622545
857.68794
812.2599316
744.3106038
647.2288116
516.5319437
352.8764025
164.5600264
-31.53329187
-216.8886886
-377.1373519
-506.4936331
-605.1856644
-677.1101878
-727.0355887
-768.4615432
-787.0406766
-797.7389863
-802.6486934
921.8164715
921.1268968
919.2341826
915.0752178
906.9705178
892.2138541
867.0047534
830.1629014
768.9500102
678.6238867
552.6056249
388.6273948
194.6227013
-10.22396498
-206.2990058
-375.1347494
-508.8548853
-609.3357482
-688.9202164
-735.5040541
-775.9984329
-792.140024
-801.5168571
-805.8043185
923.4198714
923.6335109
923.6497511
922.6388536
917.1521734
908.2292706
890.9197384
859.1929688
807.7450772
725.4461986
597.7308071
418.1039099
198.4408121
-32.68609667
-243.8614771
-419.1811672
-552.3589105
-645.7920967
-721.2834021
-759.3593092
-793.303687
-804.2964892
-810.7179323
-813.5347616
925.2195297
926.7108579
929.479804
932.8103782
932.0014623
931.4614178
926.298036
906.3732326
872.9524507
803.3200874
675.2674581
471.1150422
196.8161373
-94.34451517
-337.2608721
-511.4255551
-632.2463691
-712.0954302
-771.3753272
-795.3674357
-817.8960405
-822.0998631
-824.0523409
-824.7206674
925.9049276
928.8580366
934.7919996
943.3487925
947.9734721
958.5603319
968.9775733
968.4382816
960.6168344
919.5950541
812.792862
584.8883699
204.9489679
-215.9329106
-513.3997972
-678.1653132
-760.703296
-804.74872
-836.5070402
-840.9024973
-846.4646294
-842.2359111
-838.7852768
-836.9105081
924.0293326
928.4366175
937.4867515
951.4127904
962.6757329
985.1161296
1013.398301
1035.849239
1066.450959
1084.297135
1053.896169
853.163796
246.6965532
-479.9088939
-835.2427093
-933.1777482
-937.0466509
-921.840915
-911.5744534
-890.5386149
-875.2161979
-861.5466207
-852.1463493
-847.5750069
918.2092635
923.8809043
935.5755815
954.2058098
972.4933763
1005.659738
1050.676371
1097.379951
1171.520906
1271.949076
1411.874474
1516.579053
461.851153
-1219.477167
-1382.53516
-1273.326983
-1146.94972
-1050.07854
-987.0961752
-937.398172
-900.1049664
-876.4320416
-861.3682462
-854.2736594
907.2547929
913.8296212
927.3941005
949.2709062
973.7682691
1014.777197
1071.661211
1138.686521
1246.977054
1412.935006
1704.220863
2294.542874
-3087.811087
-2129.506843
-1638.200701
-1346.289964
-1165.851982
-1048.129428
-973.2543382
-914.6019822
-883.1323721
-863.732195
-854.5583965
890.2762419
897.2669176
911.6691124
934.9722609
963.9702234
1008.703825
1070.917869
1149.095474
1270.412372
1444.435721
1702.377553
2032.522182
-4466.824306
-2629.671116
-1877.594141
-1474.698384
-1238.071368
-1080.551523
-989.1343304
-914.8060954
-878.7116876
-856.8345177
-846.4238402
866.809437
873.6810018
887.7901869
910.5443822
942.0080625
986.0390124
1046.553693
1125.419328
1238.409384
1386.68474
1564.954993
1730.691889
-4032.772468
-2575.513329
-1879.023875
-1478.729501
-1243.983547
-1075.011583
-979.9512225
-898.2817144
-861.5259017
-839.3168902
-828.6968107
836.8808085
843.1420217
855.9130388
876.2205668
908.2908069
947.7048691
1001.025005
1073.290954
1168.884711
1284.467091
1408.986883
1519.814572
-2979.828682
-2144.180176
-1678.217212
-1380.649208
-1185.801955
-1031.016058
-945.2094025
-864.9192517
-831.4610835
-811.0395348
-801.2002027
800.9678748
806.2156839
816.9014123
832.9990638
864.7042455
896.1549518
938.466287
999.5630541
1074.065419
1159.227518
1248.681858
1350.962928
-1919.043509
-1584.180684
-1371.245103
-1205.477683
-1077.335064
-955.9608826
-888.7387128
-816.8863627
-790.0130351
-773.0085198
-764.7394655
759.9517551
763.9205587
772.1404357
783.7872332
811.4458921
834.4240471
863.3855774
911.3465579
963.0752143
1017.820213
1070.565457
1156.79712
-720.2447825
-969.581987
-1057.882237
-1050.96924
-1004.206996
-943.350884
-861.963987
-816.7950358
-758.8224772
-739.8826843
-727.1197831
-720.9067281
714.9099475
717.505052
723.0678932
730.5535627
752.99968
767.1904482
782.6634724
815.739737
844.5272557
867.2445722
873.2737571
891.8302876
292.3334985
-386.3156468
-659.8888579
-778.0715711
-813.9290238
-803.5491005
-761.4507792
-736.8706791
-695.6539104
-684.0638961
-675.730682
-671.750619
667.0588274
668.2105141
670.7867882
673.8868801
691.3889801
696.1967351
699.1612274
715.0980477
721.5254915
715.1425357
676.0657995
562.8748566
262.666161
-143.584668
-417.4050151
-575.5505005
-651.6055389
-674.3559968
-662.4224352
-656.1697814
-630.2401722
-625.2819917
-621.2651546
-619.4176144
617.6185219
617.4448936
617.1827301
616.1995543
629.0135677
625.8006291
618.5084115
618.1997615
604.5602764
576.1046425
514.6269803
402.8718346
197.1775749
-68.84886818
-288.1167877
-437.8105501
-522.9670156
-562.4652008
-571.5325325
-578.844395
-565.4549333
-566.1179511
-565.9070547
-565.8882983
567.7751557
566.5012942
563.8757702
559.5112568
567.9130003
558.3195479
543.0774588
530.53782
499.5816562
455.2974318
386.8432887
286.3369669
129.1035421
-53.72421896
-219.9103252
-343.8176166
-422.4074942
-469.4004593
-490.9494051
-507.3130551
-503.6344771
-508.6801308
-511.4676355
-512.8359503
518.5816915
516.4473322
511.9747137
505.0162795
509.6676256
495.4388145
474.7442496
455.5983407
413.9248509
359.7465181
289.0977086
201.7153858
78.62099016
-55.22131869
-177.668352
-273.7206272
-342.8167618
-392.0697566
-420.895812
-442.7002515
-446.158041
-454.2622866
-459.2352883
-461.587547
470.8657742
468.0992996
462.2696865
453.4690726
455.2349268
438.0120675
414.1542481
391.6543133
348.470089
292.6202159
223.1174475
148.6441796
49.14704498
-51.33612295
-142.5524098
-219.9813325
-282.0502293
-329.678488
-361.1728643
-385.5121293
-393.6201358
-403.6181623
-410.013645
-413.0622941
425.2384705
422.0575691
415.3365577
405.3741839
405.0787808
386.2389275
360.8486831
337.3844345
295.4082577
243.8966852
182.7050363
118.5084294
38.6045429
-40.82910342
-114.9570671
-180.2316961
-234.8970796
-279.0008129
-310.5782888
-335.4063472
-346.2032193
-357.164022
-364.3497019
-367.7758037
382.11879
378.7171476
371.5222503
360.9767375
359.3204433
339.9269325
314.3682699
291.2691646
251.8511387
205.4482052
152.3981151
96.92662166
31.74041616
-33.30878718
-94.66925994
-149.9075186
-197.5880554
-237.3812281
-267.6640476
-291.6921619
-303.7672427
-314.9825997
-322.4572851
-326.0273309
341.7573723
338.2917704
330.9654063
320.3130108
317.7993974
298.6614303
273.9047746
251.901814
215.7088068
174.4096333
128.2438342
80.75307123
26.293391
-27.79503989
-79.15644059
-126.1032659
-167.5043854
-202.9286344
-231.0341807
-253.594782
-265.9686339
-276.9363617
-284.3378319
-287.8789934
304.2570947
300.846505
293.6455918
283.2449392
280.2824973
261.9431999
238.6941163
218.1022575
185.3734975
148.8584289
108.73154
67.90035209
21.94291855
-23.53671161
-66.89490152
-106.9464494
-142.8174007
-174.0825156
-199.6099335
-220.3468704
-232.3685837
-242.7623684
-249.8480281
-253.2424809
269.6035261
266.3349247
259.4424175
249.5443835
246.4425473
229.2532396
207.7988671
188.9139382
159.6354788
127.4953245
92.67147051
57.44218893
18.4181163
-20.10994654
-56.93018739
-91.19381376
-122.2287097
-149.6540416
-172.5022009
-191.2559199
-202.5135194
-212.1384087
-218.7547525
-221.9268999
237.6992043
234.6336843
228.1752019
218.9455729
215.9345174
200.1039973
180.5908501
163.5330782
137.5703265
109.398
79.22249839
48.78036088
15.52178018
-17.26446645
-48.64550727
-78.00041569
-104.8095934
-128.7460985
-148.9638642
-165.7123986
-175.9658919
-184.7190595
-190.7766795
-193.6819206
208.3907042
205.5683343
199.6251411
191.1657062
188.4068531
174.0385686
156.5078583
141.3039932
118.4595607
93.87667303
67.79668883
41.49940134
13.11083482
-14.84362469
-41.62628138
-66.77380864
-89.88090776
-110.6726991
-128.3878731
-143.1882766
-152.3148259
-160.1563729
-165.6120364
-168.2284026
181.4845454
178.9289275
173.5482682
165.9137083
163.5231077
150.6505679
135.0783793
121.6952815
101.7470535
80.41271498
57.96773146
35.2968761
11.07955789
-12.74512372
-35.58516334
-57.08925894
-76.93856296
-94.90457434
-110.2804076
-123.2325483
-131.1803973
-138.1114792
-142.9536837
-145.2749155
156.7608751
154.4835564
149.6878538
142.8998472
140.9588993
129.5710865
115.8951021
104.2666986
86.99273657
68.60757493
49.40111716
29.94563448
9.346988254
-10.89874787
-30.31467675
-48.6314806
-65.59686094
-81.02267177
-94.23106333
-105.4535103
-112.2158537
-118.2624192
-122.4998707
-124.5297299
133.9864947
131.9909166
127.7857414
121.8437512
120.4120089
110.4715865
98.61375635
88.64984921
73.84513857
58.1493976
41.84713054
25.26945762
7.850011339
-9.254595606
-25.6610225
-41.16137844
-55.55555604
-68.69125961
-79.89897663
-89.51389178
-95.10783594
-100.309463
-103.9625377
-105.7105557
112.9237189
111.2079732
107.5880269
102.4777735
101.5986968
93.05423565
82.96814819
74.53142841
62.01785098
48.78843806
35.10467323
21.12883176
6.538251695
-7.775661163
-21.50587565
-34.49123922
-46.57277909
-57.62920749
-66.99732176
-75.11929093
-79.57350788
-83.97536328
-87.07033429
-88.54906611
93.32795152
91.88811296
88.84262348
84.53896772
84.26227783
77.045933
68.66776371
61.66376489
51.27498265
40.31732466
29.01202253
17.412903
5.370660732
-6.433854108
-17.75585922
-28.47080193
-38.45242788
-47.59369767
-55.27751452
-62.01059756
-65.35147892
-69.00119961
-71.56592652
-72.78826266
74.98452615
73.81320198
71.32900237
67.80692781
68.14401813
62.19957022
55.39934032
49.83839989
41.41354408
32.55947818
23.43403691
14.03046563
4.312678597
-5.206950292
-14.3346666
-22.97661201
-31.03647019
-38.4253285
-44.49740468
-49.95297799
-52.22208691
-55.16220595
-57.22409734
-58.20418586
57.57511157
56.67527286
54.74790553
51.97027114
53.07292939
48.29122654
42.92292909
38.83243662
32.2462939
25.35878239
18.25393502
10.90209475
3.333981983
-4.075847445
-11.17619932
-17.90060242
-24.18254009
-29.97160753
-34.46991421
-38.73530812
-39.91020983
-42.19355558
-43.77267028
-44.51579791
41.19161482
40.53572091
39.14982974
37.16234374
38.55902843
35.11134514
31.14374725
28.4490363
23.60475443
18.57513874
13.36781086
7.956671305
2.407566143
-3.02343312
-8.221674808
-13.14556974
-17.75569107
-22.0229465
-25.0528164
-28.143547
-28.46461904
-30.07723816
-31.19612856
-31.72903002
24.46637507
24.1458711
23.32243684
22.1243572
24.73002491
22.48493964
19.85524875
18.52348375
15.33540216
12.07131848
8.673110687
5.128600496
1.508902462
-2.033469965
-5.416949568
-8.622839791
-11.63539303
-14.44926385
-16.06717256
-18.09021871
-16.97162918
-17.9383223
-18.59644521
-18.85390643
12.16298269
11.86669063
11.43941836
10.78185611
11.24517274
10.08616707
8.820720239
8.912027352
7.294477418
5.698514448
4.056202247
2.362815067
0.6169927438
-1.087606347
-2.70980695
-4.250792449
-5.710639945
-7.10042307
-7.278339949
-8.200000402
-8.212419104
-8.67746575
-8.986545211
-9.213914565
2082.400549
-4806.501942
-3292.574612
1761.676678
-4401.254259
-4844.422522
1542.570723
-3244.250163
-4276.64518
1372.405723
-2091.3182
-3093.434056
1171.756768
-770.873567
-815.1550974
-1081.730225
-1955.886129
920.7445865
378.7616185
-722.8458776
240.6868057
-394.4942095
-969.8185095
2243.650443
713.00743
-2916.581614
-1021.879424
-6557.509984
-4383.56189
-4420.534725
-2833.559106
-2306.790197
1602.891263
1743.747954
1991.164973
-6292.475857
-6758.762173
-4138.673721
-2903.467278
-2919.273925
1448.128417
1531.797791
1714.169107
1644.079664
1678.148772
1790.831018
-4528.647755
-5424.896825
-3117.249799
-2449.693064
-2824.619687
1289.776227
1358.798423
1508.904785
1455.509175
1493.319736
1562.961675
-2938.478794
-3607.271258
1117.178544
1167.713646
1337.131393
1273.845895
1333.30263
1412.618003
-1586.958766
-1562.811534
-2144.278675
923.2573335
922.8576463
1140.114876
1052.470172
1096.150128
1221.036606
632.4774677
378.0191149
392.366579
2607.974656
2179.219858
3059.227442
2689.208054
-6780.822655
-6605.735939
-4447.490986
-6304.684861
-6606.121066
1806.408351
1921.965061
1863.446603
1926.779312
1809.881879
2138.666017
1946.175256
-5479.966901
-6251.878989
-4643.917507
-6117.810474
-5388.453325
-6587.694267
-6156.968882
-4686.205611
1574.141823
1663.216998
1617.089849
1671.086876
1575.556855
1801.698143
1679.319525
-3707.071753
-4466.185381
-3697.822029
-4359.211547
-3635.530697
-5334.479917
-4473.207804
-3847.997629
1418.032368
1489.148474
1434.845375
1492.590019
1422.367398
1569.580612
1496.535583
-2229.903077
-2846.921975
1228.33009
1327.676187
1261.311425
-1539.28718
1333.021866
1233.529189
1416.825019
1338.707515
-1581.03905
-981.4584739
-1483.448289
-1535.654285
1044.851125
1086.580678
1035.085459
3.605064646
1092.103329
954.8693731
1226.256958
1100.914913
-70.65326485
1724.058751
2032.849237
2172.705877
2276.452374
2634.077381
2907.233645
-8556.723197
-5674.527474
1901.378284
1941.802125
2137.159576
-3517.131853
-2046.534495
-1808.587029
-2296.610472
-2002.604994
-1957.946335
-2263.833305
-128.0384373
-455.1186712
-837.6006466
2176.306902
2564.403907
2234.968843
2315.944348
3940.054602
3525.209168
-4145.832408
-6177.12537
-4229.728941
-2314.228588
-2645.04682
-2510.37017
-2803.652417
-2205.080123
-3539.486317
-2892.456761
-2653.605227
-1124.90797
-238.5719192
-408.4333339
1088.315595
2114.484189
3002.357937
-3875.320875
-1283.532251
733.5869431
-8641.808424
-6011.44376
-8271.177352
-5378.088406
-8124.9911
-5679.18074
-6509.672031
-6543.266845
-4950.396438
-5011.255719
-3097.808504
-3438.102823
-3218.274203
-3420.347218
-3070.173278
-3862.955053
-3473.339512
-3314.032486
1370.626131
1340.515522
1306.286702
-1586.630019
-1865.129447
-1918.493286
1160.063529
1126.388756
1074.430749
1187.566699
1142.363624
1167.633819
2677.421616
2354.325965
2389.081295
2361.653244
2696.061655
2141.470435
2325.632333
2328.661402
3008.117925
3453.70013
3789.369813
2762.437627
3359.086095
2938.487339
3410.820949
2757.136967
-6814.902961
-6810.638978
1870.589858
1940.804712
1862.344865
2040.169311
2021.949196
2126.330796
1947.049628
2010.690492
2013.421673
-5839.141875
-5887.741027
-5786.671568
-5180.502855
-5370.586092
-4875.785967
-5109.271542
-5739.040337
-6407.841872
-5591.655043
-5642.392504
-5424.849528
-5558.992252
-6376.006588
1622.980433
1616.101117
1744.815953
1735.846593
-4019.996625
-3906.764124
-4074.845294
1460.674837
1455.720785
1532.04378
1527.259795
-3016.616515
-2672.926905
-2577.886316
-2691.625706
-3037.479937
1272.969471
1242.877843
1201.741949
1294.252838
1256.235302
1280.806361
-1175.390815
1284.968638
1276.645974
1379.425181
1374.787859
-1924.881787
-1179.097213
-1222.884627
-1495.029972
1055.407111
997.0054196
946.4134557
967.8317111
516.4743564
231.1718635
1173.507852
-225.8525053
190.108119
-140.1809888
1166.595094
-318.1503812
-175.6218355
157.4354204
-7277.31216
-2161.324162
-2322.410778
722.385753
668.0772623
887.9607279
776.6005812
802.0592168
995.8794072
274.4721269
-85.28643697
-278.7912344
4784.173632
-2355.119801
-2533.369666
-876.4662574
-1133.657035
-1129.998085
-100.4020234
-349.0150619
-56.92193215
1643.419741
2793.483201
3870.306488
-5004.28295
-1661.768209
685.7721011
-6395.869685
-7306.488696
-7162.494146
-6675.281407
-4706.852505
-4900.788072
-4693.018948
-5696.119646
-5513.204199
-5253.224195
1524.799536
1504.161237
1474.231951
1546.89032
1514.502158
1529.90371
1383.694605
1351.465933
1375.517853
1124.524319
1110.669294
1081.88444
903.3988595
697.1424565
432.942322
-6807.135186
-7354.792116
-7361.869144
-6615.403457
-5514.079202
-5253.463812
-5640.661129
-5565.858959
-6614.487951
-5639.871729
-5926.948142
-5759.129172
-6108.28733
1609.37471
1593.718516
1558.175318
1582.214782
1597.737056
1592.019193
-4628.121239
-4432.79691
-4294.365781
-4035.949142
-3787.774186
-4062.739002
-4938.516576
-4526.620254
-4791.730675
-4155.727458
-4434.976651
-4880.228067
1452.117984
1424.912979
1394.212217
1464.460715
1434.954481
1457.02048
1480.194286
1494.031299
1502.922148
1435.092484
1455.799238
1438.06505
1553.266425
1558.756189
1576.567964
1505.514838
1515.332745
1508.833786
-2490.111422
-2626.074461
-2309.561589
-1368.5152
-1381.923944
1314.978919
1245.145879
1399.777491
1407.949424
1430.079764
1373.413131
1354.425002
-1718.174721
801.4961989
979.8134011
939.9441885
1071.568909
1036.584645
1047.697032
198.6009289
426.9577047
194.1082584
1055.348578
470.9514538
738.9551466
553.9007598
590.4562524
1199.384878
1129.569139
-7865.251268
-7020.294335
-7496.122463
-3665.15763
-3732.875212
-1969.997835
-2112.731447
-2118.590525
2233.411886
2207.914
3912.951325
4433.285191
4535.320301
4274.251571
3841.002819
-2718.736714
-2538.036516
-2499.694204
-2537.968568
-2736.000477
-1128.939811
-950.879855
-970.9059922
-953.008244
-1128.65728
-729.2402277
-903.9356385
-485.131905
-517.9230021
-680.5810197
-310.4787487
-465.2134261
-384.644832
-8527.406989
-7399.670691
-6965.973666
-7677.574436
-7497.222556
-6783.652955
-6061.448066
-7313.406304
-6902.386908
-6784.516692
-6422.709614
-6643.964772
-7108.256288
-6952.411181
-5169.044551
-4969.452559
-4768.146229
-5028.047308
-5235.385048
-4755.935367
-4965.297748
-5303.566871
-5193.567335
-5454.989874
-5239.019339
-3240.714416
-3306.56849
-3276.209542
-3195.377396
-3341.1824
-3706.992117
-3597.296909
-3753.952817
-3389.886912
-3545.722562
-3649.664728
-1789.785728
-1772.257251
-1918.256391
1145.111478
1119.986035
1130.664133
1187.792322
1176.08228
1153.454512
2517.82236
2472.569777
2481.808115
2496.626842
2380.065779
2686.687965
2540.226201
2528.875439
2212.117178
2229.54054
2161.40495
2345.570383
2255.560263
2238.785809
2991.321784
2918.636016
2744.685339
3103.174324
3004.727515
-7465.544842
-7369.403482
-6812.175468
-7555.052772
-7701.808541
-7507.273473
-7717.71312
-7737.357408
-7760.945922
-7701.947684
-6760.413434
-7460.165023
-7501.350399
1903.716292
1902.683533
1881.082034
1937.671373
1911.263495
1914.026132
1849.738857
1830.651237
1875.276525
1855.928349
2060.909385
2074.036407
2032.314783
2142.114946
2089.624979
2074.90225
1974.926851
1976.061607
1946.606198
2019.884818
1986.551627
1985.824188
-6132.798428
-5980.853702
-5691.25393
-6051.186142
-6358.577936
-6176.225109
1648.756091
1629.455731
1678.657122
1654.504985
1599.135512
1584.691476
1622.252495
1603.78591
1787.399005
1759.22479
1823.41101
1796.782599
1712.464351
1686.02114
1749.857197
1721.927591
-4015.658871
-4190.641012
-3808.615314
-3965.212955
-4056.130053
-4482.880904
-4683.985603
-4245.348084
-4422.898347
1470.865449
1489.116652
1475.606202
1494.653229
1473.434404
1505.969481
1500.081249
1468.858207
1442.163586
1457.641011
1465.859569
1539.442784
1552.982729
1547.436495
1555.942981
1541.879844
1578.938698
1561.030587
1516.356856
1507.733861
1534.400296
1520.072811
1513.209869
1519.252646
1533.872425
-2737.873197
-2842.756615
-2906.764392
-2726.258483
-2960.151172
-2888.703989
-1138.218983
-1334.56326
-1356.759569
-1139.418611
1308.786448
1253.795638
1388.96033
1401.951237
1394.303842
1359.965849
1379.440457
1386.177412
-1806.046096
1029.563741
1023.577723
984.4151798
647.3292332
564.4868465
1039.157895
307.3025873
452.5397631
356.5692479
1189.95447
-376.4192246
45.70416766
255.5925635
3.058282161
1129.53013
-2778.67873
-2069.649098
-1389.293479
-2304.970148
-2360.457104
-1105.501972
-1184.705565
-1645.359156
-2365.165398
-921.2193671
-903.1903572
-737.8684947
-2121.820313
-1593.643926
-1562.198315
1803.446728
3355.446461
4475.618114
-5980.490244
-2143.090253
685.3536468
-1899.624461
-1576.843511
-3721.303615
-6316.42326
-7148.893134
-7360.184694
1725.847913
1703.091304
1659.50998
1764.71454
1718.251657
1742.233572
-1577.34903
-1722.746829
-1726.78024
-2217.063623
-1941.452454
-1890.434022
1205.992729
1184.140811
1196.289879
-7410.797039
-7459.356304
-6745.801202
1645.633457
1606.201663
1622.03928
1649.74742
1653.976577
1677.210475
1684.850018
1710.329539
1702.579803
1244.149484
1233.14417
1213.409291
-1550.827893
-1503.790834
-1494.26397
1238.295887
1246.130988
1239.869667
-1653.695863
-1663.358123
-1562.131936
-1383.203796
-1380.703531
-1528.467189
1081.851231
1218.955097
1225.551047
1231.603338
1107.0272
-8463.974932
-3554.514524
-1984.966705
-2056.67527
-2061.15882
-2305.213894
-2153.639806
-2123.137271
2282.24337
-5124.724515
-4607.334463
-5564.409724
-2453.437706
-2505.336512
-2349.600297
-725.5768273
-739.7117256
-559.7232712
-566.3555653
-668.1733858
-2490.20033
-2013.218293
-4823.609949
-8434.3631
-7973.632527
-7821.348578
-8260.731644
-8274.972274
-3146.08333
-3179.198155
-3128.256468
-3453.679345
-3453.143081
-3425.999893
-2998.976058
-3143.617012
-3217.419833
-3825.421497
-3770.060929
-3824.704366
-1914.327442
-1892.875092
-1925.140281
2616.303231
2692.023568
2392.800945
2399.389666
2407.163422
2369.63224
2157.353217
2170.741587
2151.046979
2334.436625
2302.042305
2292.953225
3170.848587
2984.114323
3080.761058
3301.70027
3316.797304
3462.986141
2756.083358
2824.24028
2830.712103
1888.038037
1885.892686
1885.555241
1939.418927
1931.239021
1933.039682
1848.735559
1844.046429
1881.712527
1874.598531
2035.578485
2039.079864
2026.127519
2132.708073
2114.722759
2109.400688
1953.748621
1954.972965
1946.954861
2014.438966
2004.556203
2002.578577
1627.934817
1647.467949
1642.28258
1598.256239
1602.94339
1621.212281
1755.672845
1782.902982
1769.37237
1775.503744
1765.559158
1838.2404
1829.055672
1695.436124
1755.716307
1745.96994
1711.409965
1719.385912
1746.570272
-4193.663717
-4264.908572
-3880.398892
-3946.052173
-3969.816669
-4332.379147
-4346.570803
-4236.004532
-4373.518801
-4201.65478
1260.73147
1240.336625
1250.895498
1303.066346
1287.932177
1268.075176
1288.850395
1298.684752
1293.540379
1268.79772
1272.171853
1279.936994
-1925.97294
967.216901
979.1342174
955.3491938
694.3609901
975.4085811
396.9284598
516.8660363
629.2806789
1179.459647
1182.854469
1178.829219
-289.834668
-132.6887935
-112.3805081
-128.1290151
1157.574053
1164.199695
1173.354773
-32.72292274
-116.4725906
-259.4393666
-2195.391147
-2241.011418
-2346.787795
-2298.302918
-2277.777701
4903.229125
5045.694003
4807.39178
-2414.080427
-2439.215259
-2353.916867
-2550.53078
-2494.020674
-2483.838504
-3276.852026
-2546.96032
-5661.345058
-6656.195866
-6667.821975
-6571.113896
-6617.828167
-7255.886785
-7076.52269
-7118.955696
-6994.455085
-7036.091503
-7209.94557
-5639.209307
-5553.959092
-5612.627746
-5428.25992
-5494.015402
-5579.663116
-7403.00776
-7195.304287
-7183.836974
-7160.285195
-7188.533024
-7401.186676
-5868.089555
-5780.704192
-5835.435724
-5671.125269
-5726.292544
-5815.722785
-6489.271356
-6529.957051
-6374.808894
-6434.076486
1497.539324
1492.824852
1488.87909
1440.523397
1436.998649
1431.200156
1448.838473
1443.450548
1447.920806
-1503.348538
-1557.990729
-1364.548525
-1448.050634
1329.953902
1326.800738
1340.346251
1333.84619
1248.099067
1242.820997
1248.842707
1243.055146
1415.296706
1412.634713
1406.040522
1425.681402
1419.492408
1423.343027
1352.610379
1348.672888
1366.107819
1349.586654
1356.980069
-1723.570258
-1718.285405
-1709.672988
-1562.298895
970.6136031
1000.134635
1093.866551
1062.676093
1056.462256
1041.964132
1070.251969
419.4785219
407.5259048
1064.357522
955.8785703
743.4330212
1200.859026
1215.13484
1210.032835
1118.034932
-8345.409477
-8645.642715
-8193.359222
-7853.563668
-7429.689821
-6556.78946
-8236.087789
-7908.567919
-3602.733175
-3752.270083
-2118.261934
-2108.403615
-2114.237694
2256.384165
2179.16023
4532.94369
4342.726792
4260.023358
3781.171819
3641.687656
4116.632257
3932.67685
4071.982897
-2622.591416
-2549.959613
-2677.683582
-967.2493997
-962.7965113
-951.791645
-1070.416482
-766.9881069
-742.9898056
-731.2390926
-891.6500537
-830.5866649
-831.122821
-493.4752376
-548.8108028
-543.6129137
-367.1985059
-374.8288532
-421.093701
-8178.390189
-8087.094415
-8492.145692
-7621.931217
-7958.35772
-7991.290198
-8305.181994
-8287.266082
-6850.657059
-6733.3202
-6772.297279
-6683.231453
-6698.257762
-6804.31564
-7051.844559
-6902.900865
-6949.77158
-6814.566952
-6857.6265
-7001.265258
-5103.648989
-5028.86398
-5093.36444
-5093.854869
-5167.13837
-4804.40971
-4834.185578
-4804.304075
-4903.013798
-5377.911159
-5416.738954
-5371.658051
-5287.933693
-5358.759549
-5160.271102
-5226.299428
-5311.853394
-3279.813594
-3189.693606
-3183.199992
-3203.937608
-3140.482419
-3198.922899
-3375.634757
-3399.929238
-3333.382788
-3665.973668
-3710.021687
-3734.089973
2565.827365
2431.152425
2219.10012
2192.882325
2179.332978
2264.671424
2272.729948
2245.582405
3098.479806
3197.764135
3203.936081
3502.889084
3371.369379
2911.707304
2904.385444
2998.404033
-7425.579907
-7218.215192
-7238.790363
-7189.368641
-7200.28576
-7393.491432
-7602.465469
-7646.968352
-7749.181865
-8043.718413
-7980.49511
-8087.408509
-8098.505793
-7762.065367
-7773.874186
-7942.85544
-7932.8237
-7708.234108
1903.894443
1896.045213
1895.992905
1924.028481
1922.360905
1913.124081
1857.714236
1853.117076
1867.958791
1862.573218
2065.744593
2052.211075
2048.465814
2091.435092
2097.050738
2080.552868
1975.16774
1964.538929
1963.325552
1994.828213
1995.32884
1985.55435
-6086.708915
-5991.475682
-6038.047454
-5887.925888
-5940.197158
-6031.898175
-6300.9066
-6209.132605
-6295.114405
-6084.085867
-6139.009623
-6233.333938
1642.87821
1644.509254
1649.459459
1630.980685
1638.381116
1636.435975
1669.705151
1668.191063
1678.991221
1653.73515
1659.370918
1661.248314
1594.657468
1596.640679
1600.284918
1587.526031
1592.468335
1589.898898
1615.402412
1615.481878
1622.965491
1604.046358
1609.029367
1609.170784
1795.718749
1785.639651
1778.045548
1782.075372
1791.728969
1762.632422
1772.333229
1768.637144
1817.162211
1805.866909
1717.459991
1708.754841
1703.199269
1705.882873
1714.956737
1686.844729
1690.180402
1693.090525
1740.529451
1743.464384
1753.014862
1724.595837
1734.004962
1731.232571
1736.449057
1727.021031
-4104.472365
-4140.312566
-4037.845121
-4005.212249
-4031.738149
-4540.671272
-4571.648081
-4521.916924
-4722.454754
-4637.090573
-4606.437615
-4292.334366
-4324.959325
-4296.108065
-4468.182367
-4414.790418
-4357.437447
1476.363355
1473.011883
1467.578835
1484.17793
1478.718522
1482.794858
1486.687324
1479.112654
1504.448186
1502.66387
1465.755666
1456.381036
1451.326937
1451.695038
1450.713424
1462.300607
1457.640575
1462.280516
1543.451322
1547.862487
1558.757393
1545.580445
1572.844725
1574.969403
1581.494043
1563.519417
1569.03725
1566.911729
1512.905017
1509.994052
1528.21356
1523.854983
-2847.446911
-2831.513554
-2896.538503
-2721.593753
-2772.845254
-2807.431242
-3030.019658
-3075.975675
-2943.375819
-2947.770312
-2959.178964
-1291.589322
-1298.256236
-1353.06375
-1157.438339
-1222.3538
-1228.580286
1303.650218
1291.913199
1322.591328
1314.940821
1258.289456
1264.548283
1260.991846
1267.212475
1261.280096
1282.248182
1274.498092
1392.644457
1390.631642
1386.521402
1400.254949
1395.186301
1396.960027
1382.502727
1376.243897
1371.647141
1382.890874
1379.62179
1384.30577
-1867.407351
1024.992366
1006.176613
1009.083622
609.4243326
620.4132254
673.1242346
567.3068089
572.7581047
558.8539415
1021.297374
399.9141424
351.5056503
287.2843875
1183.588128
1185.206533
1189.934703
-355.8430566
132.6784723
76.97493642
239.9802053
230.7831123
241.3354628
60.52976451
-70.42511597
-51.13444626
49.12376346
1141.745633
1155.831764
1148.754571
849.9986344
811.6991436
787.372752
795.3721645
735.2488845
705.0586259
710.312929
620.3859486
588.1414415
583.7740759
457.3433244
432.8558846
409.0733769
252.4287766
243.7527339
197.1202898
31.47076468
39.10725234
-23.94730544
-180.8246877
-160.1736284
-230.3380705
-364.3710413
-336.2672936
-404.759898
-508.3432754
-478.284135
-538.1544114
-612.6702849
-586.3704528
893.0360981
866.3852644
823.1638987
854.3356133
803.7804899
749.7071933
780.8160096
690.0868168
634.7968339
651.6613103
510.1321984
467.7864783
454.2962248
265.805916
255.188923
197.1721005
-8.520786386
24.42509743
-74.53670264
-254.567395
-193.9224732
-307.4563412
-443.7015405
-378.8650219
-482.2758521
-580.5946241
-523.0335712
-608.1216125
-675.2623378
-625.4594509
951.9262368
942.820202
883.7132085
936.6293595
903.5480055
825.401636
886.2422185
807.8422356
713.9326614
770.5862133
615.2214641
529.6567241
547.0186696
295.2550032
271.0714708
201.0412107
-88.59570385
-24.03811901
-177.485947
-400.6361678
-283.0313716
-459.2793323
-593.6616487
-473.7567517
-627.7193885
-705.0778421
-605.7383603
-724.1444634
-768.0397294
-695.868245
1019.115754
1035.310657
964.9310444
1039.181974
1042.64481
934.3768931
1038.984814
1004.868241
848.3462086
981.3698345
842.2152194
656.575341
762.4291841
390.8877024
310.0953351
230.1821455
-254.5919806
-118.316109
-390.1692278
-675.5732124
-453.5191323
-736.0902338
-844.1657573
-645.8906214
-861.4245331
-886.0966887
-745.2336936
-888.8317959
-891.0080624
-795.978517
1083.35586
1129.589582
1059.398979
1146.73437
1204.486138
1082.147256
1226.152061
1295.392119
1070.207107
1316.690685
1331.616929
932.9379498
1291.506719
642.7359464
437.0408435
437.3974958
-744.7900434
-327.8061392
-947.1600263
-1204.199838
-777.2159264
-1222.226518
-1200.878506
-922.7593686
-1181.515918
-1114.970146
-939.8208351
-1093.142983
-1034.959128
-925.6491314
1131.045826
1203.579618
1150.968781
1232.600579
1340.987527
1243.618122
1386.802537
1571.32497
1373.440309
1656.147766
2130.20792
1511.101462
1826.81193
1873.159657
1339.630336
534.9640015
-908.2220289
-323.0253032
-1684.038615
-1626.635413
-1324.541409
-1942.05813
-1634.248216
-1306.064188
-1552.210947
-1353.512514
-1176.450438
-1300.610631
-1173.491467
-1071.3142
1149.880737
1235.525682
1215.920346
1269.666849
1395.77107
1363.529999
1447.735973