/*--------------------------------*- C++ -*----------------------------------*\
| =========                 |                                                 |
| \\      /  F ield         | OpenFOAM: The Open Source CFD Toolbox           |
|  \\    /   O peration     | Version:  v1912                                 |
|   \\  /    A nd           | Website:  www.openfoam.com                      |
|    \\/     M anipulation  |                                                 |
\*---------------------------------------------------------------------------*/
FoamFile
{
    version     2.0;
    format      ascii;
    class       surfaceScalarField;
    location    "2";
    object      phi;
}
// * * * * * * * * * * * * * * * * * * * * * * * * * * * * * * * * * * * * * //

dimensions      [0 3 -1 0 0 0 0];
oriented        oriented;


internalField   nonuniform List<scalar> 
25162
(
0.0004478345279
0.9162021655
0.0005693522995
0.9165784822
0.0006928656613
0.9165264866
0.000342488841
0.9165325729
0.0004678039297
0.4583361027
0.0003563861757
0.4582942076
0.0004521171924
-0.0004463247639
-0.000572067632
0.458263527
0.0006585406116
-0.0007436797755
0.4582071666
0.0008715132233
-0.00101103528
0.4581792919
0.001161743368
-0.001330881776
0.4581565056
0.001509376175
-0.001685948887
0.4581649058
0.001856043115
-0.002015382016
0.4582097136
0.002137168448
-0.002222556373
0.4582955953
0.002260461066
-0.002247872862
0.4583940129
0.002188859928
-0.002089541726
0.4584652658
0.001954275959
-0.001805302811
0.4584953057
0.00164499712
-0.001471766367
0.4584935626
0.001313203765
-0.001158562807
0.4584910938
0.0009824690501
-0.0009065848862
0.4584588434
0.0007977415259
-0.0006563246389
0.4584652755
0.0005410491605
-0.001688658073
0.9186650282
0.0001627971084
-0.0004891671842
-0.001056617111
0.918717959
8.951622873e-06
0.9157844313
0.9138089516
0.001232834388
0.9149693311
0.00198419397
0.9158271226
0.002331829053
0.9161788516
0.0007633565662
0.9168977996
0.001203245776
0.4579976395
0.0009246591295
-0.4581589421
-0.4581239555
-0.001147434279
0.4578449242
0.001426465552
-0.4579507205
-0.001770843257
0.4575375275
0.001024227077
0.001159809159
-0.2289019359
-0.001242087763
0.2287943241
0.001349699615
-0.001802392285
-0.2288297455
0.2286882706
0.00194386712
-0.002501463444
-0.228778212
0.2286007821
0.002678893345
-0.003289433591
-0.2287886668
0.2286004578
0.003477642527
-0.004009059427
-0.2288848207
0.2287599163
0.004133839636
-0.004086850959
-0.2290726604
0.2289280305
0.004231688681
-0.004538185282
-0.2292662016
0.2292821006
0.004522286295
-0.004197833779
-0.2293899254
0.229513553
0.004074206148
-0.003581668352
-0.229451263
0.2296356574
0.003397273947
-0.002852868785
-0.2294476777
0.2296405834
0.002659963143
-0.002169719229
-0.2294025637
0.2295704341
0.002001848826
-0.4588885599
-0.003028889979
0.4603333452
0.001584104693
-0.0002680082747
0.4609535509
-0.001422591995
-0.4592629507
-0.001640991211
0.9182059316
0.0004464093565
0.001653678404
-0.001008444878
0.9180854127
0.0003441256165
0.9144318608
0.9141530772
0.001564701274
0.9134046298
0.004183631138
0.9132081928
0.007121423122
0.9132410596
0.003035484131
0.914458744
0.006524994548
-0.4578902763
0.4576347336
0.003291026798
-0.4575650559
-0.003372660048
0.4580918016
0.002845914349
-0.4569721113
-0.0030768166
0.4565619256
0.001685138358
0.001801863998
-0.2282692349
-0.002089195293
0.2280397862
0.002318643976
-0.227986147
-0.003135348031
0.2276724107
0.003449084354
-0.2277996596
-0.004025598928
0.2299164211
0.001896555221
-0.2323649178
0.005365876637
0.2342273122
-0.007282816475
-0.2317261891
0.01127445775
0.2324395475
-0.01202685785
-0.2281458401
0.01266294998
0.2278535587
-0.01236262259
-0.2251523879
0.00996344003
0.2239199992
-0.008681722573
-0.2262356318
0.003327586096
0.2240312365
-0.001073176456
-0.2304565107
-0.006182350178
0.2303210762
0.006320188217
-0.2304618929
-0.005221684261
0.2308260624
0.004857514732
-0.003562571058
-0.2303270699
0.2310142495
0.002875391453
-0.4629757107
1.499308635e-05
0.4618296039
0.001131113696
-0.4600587008
-0.001254688628
0.4600600812
0.001253308261
0.0001478699899
0.9199806655
-0.001116476883
-0.0008061270352
0.001597363361
0.9166359193
0.0007408833916
0.9152883407
0.9148939606
0.000556882173
0.9128477476
0.001244774034
0.9125203009
0.002605045793
0.9118807878
0.00342754475
0.911244519
0.00239172606
-0.4567919744
0.4562634839
0.003956035195
-0.4594940981
-0.005291449276
0.4562927141
0.008492833321
-0.4578230246
-0.009942474346
0.4591441793
0.002624558865
0.005996760748
-0.2271924435
-0.0027477848
0.2269090053
0.003031223067
-0.2277292468
-0.003355726807
0.2301176609
0.000937003689
-0.236791252
0.005485506343
0.2383232215
-0.007151584274
-0.237818946
0.01035863603
0.2381493723
-0.01082768552
-0.2331108847
0.01082064276
0.2327311021
-0.01051184264
-0.226946332
0.009314920003
0.226648879
-0.008994989557
-0.2216087692
0.008176300096
0.2214376965
-0.007896418528
-0.2193771724
0.006417384305
0.2186874482
-0.005573434482
-0.2232330785
0.001649185627
0.2215953194
0.0001076348853
-0.2345055639
-0.001703089534
0.2376688219
-0.001455026392
-0.003736329764
-0.2319314717
0.2319645386
0.003703262957
-0.4618480516
-0.00556902661
0.4630875295
0.004329548732
-0.4608000939
-0.003099365944
0.4618025552
0.002096904601
0.002927508182
0.9199796368
-0.001554059271
-0.001372420207
0.002036512829
0.9175269147
0.0009370330186
0.9163878206
0.9158309937
0.0001337829293
0.9127139647
0.0003600681655
0.9122940157
0.0008264912666
0.9114143647
0.001494668764
0.9099294614
0.000646880101
-0.4558915799
0.454984152
0.002402096682
-0.454695227
-0.002966280287
0.4538875566
0.003773950672
-0.4527894215
-0.00486505412
0.4517315402
0.003104676649
0.00281825877
-0.2272726324
-0.005122671466
0.225548597
0.006844758033
-0.236056082
-0.005219471648
0.2391860067
0.00192605652
-0.2400175357
0.003338934009
0.2396571087
-0.003213696102
-0.236085595
0.0004865888823
0.2343606265
0.001056089961
-0.2293607387
-0.006674303712
0.2274193138
0.008540898559
-0.2256170182
-0.01243974557
0.2251618274
0.01292192276
-0.2230816096
-0.01138850236
0.2245643414
0.01003595436
-0.2197748324
-0.004710095979
0.2213713581
0.003337540278
-0.2286510064
0.008242214402
0.2241640363
-0.00352004409
-0.2264247177
-0.001891191604
0.2255004892
0.002945822971
-0.005381059637
-0.2333993491
0.2339625718
0.004817836968
-0.4647713294
-0.006384719642
0.4663775549
0.004778494222
-0.4627457849
-0.003628532485
0.463712594
0.002661723327
0.003624533644
0.9218535754
-0.003103815143
-0.002394657063
0.001973488314
0.91917796
0.0008897722478
0.9174715366
0.9167207659
-0.0002139030182
0.9129278677
-0.0002905087477
0.9123706214
-4.65580113e-05
0.911170414
0.0003271355337
0.9093031612
0.0002526066864
-0.454013331
0.4535942333
0.0007462332559
-0.4531992681
-0.001839537179
0.4522621586
0.002776646674
-0.45061079
-0.003552558087
0.4492981624
0.002420263326
0.002444922316
-0.2278259849
-0.002142752579
0.2283464961
0.001536675125
-0.2358012841
-0.001167850702
0.2351025462
0.001602265136
-0.2367574635
-0.006880658305
0.2331059284
0.01024609743
-0.2272729093
-0.01952329612
0.2266154958
0.02001799533
-0.2192665595
-0.03037791357
0.2169543382
0.03265358016
-0.2234322317
-0.04085526
0.2227163667
0.04157637725
-0.2331988061
-0.03440424468
0.2357662349
0.03191044832
-0.2353346768
-0.01625579609
0.2356539337
0.01616050858
-0.2245205035
-0.01146358642
0.226804074
0.009481877019
-0.2256777537
-0.005436135748
0.2266753637
0.004680749346
-0.004093973849
-0.2347729091
0.2346517459
0.004247994145
-0.4677680064
-0.00642629812
0.46914958
0.005044724527
-0.4642793934
-0.004023006206
0.4647904611
0.003511938521
0.002879132275
0.9240647014
-0.002429329008
-0.002660929271
0.001543938996
0.9205131533
0.0006240130216
0.9183914626
0.9173447789
-0.0007267337066
0.9136546014
-0.001288707647
0.9129325954
-0.001629672826
0.9115113792
-0.0002238845142
0.9089601992
-0.001062826346
-0.4534005236
0.4530192244
0.0001574147062
-0.4510605649
-0.000484944582
0.4505617846
0.0009837249173
-0.4486504597
-0.002130886082
0.4480556943
0.001359449234
0.001365256436
-0.2279940378
-0.001280512806
0.2275680975
0.001546692871
-0.2323011479
-0.003817941194
0.2296731867
0.006114229958
-0.225426399
-0.0108276101
0.2231294752
0.01283850804
-0.2128478564
-0.02125011157
0.2083347146
0.02566694309
-0.2062477545
-0.04420790706
0.1045424535
0.09870709208
0.02143197579
0.02577414017
-0.03165645918
-0.1087182213
0.108145731
0.03222894944
-0.02561438985
-0.2509405761
0.04843106079
-0.02599873507
0.1266616047
0.1274610355
-0.03532957483
-0.2447167561
0.2494722087
0.03072079596
-0.2358803754
-0.01921053739
0.2395046101
0.01590345461
-0.2316808342
-0.008773812634
0.2335712862
0.007190557063
-0.004156383417
-0.2344641533
0.2350265193
0.003711849855
-0.4705067033
-0.005219821653
0.4713075119
0.004419013046
-0.4657339163
-0.003298174948
0.466648671
0.002383420261
0.001415405435
0.9255498027
-0.001310443355
-0.001590063343
0.0005847126545
0.9213438461
0.0001811463077
0.9187950289
0.9175259252
-0.00128304107
0.9149376425
-0.0024872853
0.9141368396
-0.003448579598
0.9124726735
-0.001782492143
0.9097682403
-0.002474128507
-0.4529799323
0.4529658476
-0.001768407431
-0.4503048488
0.001797998214
0.4501599155
-0.001653064936
-0.4466765707
0.00141604898
0.4463328778
-0.00043200195
-0.0006574979388
-0.2252773498
-0.0007853652223
0.2243285989
0.001535217663
-0.2245620311
-0.004720048683
0.2230687192
0.005865027715
-0.2168390823
-0.009953776982
0.2151395087
0.01137726357
-0.2009954209
-0.01522647432
0.1999319075
0.01625735115
-0.09022334987
-0.01046817517
0.09001031104
0.010681214
-0.0324750712
-0.1404321024
0.1433390785
0.02956809509
-0.0347511963
-0.2640038382
0.2682938993
0.03053805248
-0.2492090684
-0.02052332224
0.2523008033
0.01773533295
-0.2404253262
-0.01060663262
0.2427622531
0.008612029543
-0.003675043378
-0.2378007405
0.2388278833
0.002818561118
-0.4724526459
-0.002747670814
0.4733548391
0.001845477627
-0.4673512514
-0.001237548854
0.467909971
0.0006788292065
-0.0008492294603
0.9260953844
0.0004508313598
-0.0001471836132
-0.0007978519756
0.9212924686
-0.0004526884179
0.9184498654
0.9170732368
-0.001847975103
0.9167856176
-0.003611233381
0.9159000979
-0.005423532633
0.9142849727
-0.003173810766
0.9113910689
-0.003872550443
-0.4532264935
0.4534777266
-0.003425043931
-0.4502430253
0.003716372592
0.4505130617
-0.003986409012
-0.4461355649
0.004244863388
0.4462392417
-0.002043414539
-0.002342991803
-0.2219007724
0.001549388946
0.2210289432
-0.0008986717684
-0.2183114274
-0.001910365067
0.2168776596
0.002983362629
-0.2112658419
-0.005842023466
0.2103508762
0.006486999703
-0.200017184
-0.006729429927
0.2006749044
0.006057227544
-0.0937575362
-0.00102400305
0.09442225585
0.0003592833989
-0.0144126263
-0.156462942
0.1569939174
0.01388165094
-0.01955527429
-0.2775293553
0.2790706422
0.01805740803
-0.2602453673
-0.01324237397
0.2622024727
0.01157980258
-0.249031466
-0.006619340638
0.2508201205
0.00518970045
-0.001656067942
-0.241994334
0.2429819764
0.0008631454152
-0.4744643615
0.0006274747603
0.4753096243
-0.001472737583
-0.4681316771
0.001796034098
0.4681968417
-0.001861198718
-0.003542432735
0.9252244187
0.002472126465
0.001941271913
-0.002463893539
0.9202139294
-0.001269040675
0.9172550125
0.9158041961
-0.002378906524
0.9191645242
-0.004868382043
0.9183895734
-0.007298559287
0.91671515
-0.004574148416
0.9139503771
-0.005283719052
-0.4540106553
0.454541204
-0.005104697178
-0.4509224985
0.005716693879
0.4516152523
-0.006409447643
-0.446530689
0.007108632153
0.4470640489
-0.00363236721
-0.004067060107
-0.2185879837
0.003298057488
0.217810825
-0.002756829907
-0.2130018368
0.0005032393789
0.2118313839
0.0002966328819
-0.2083349297
-0.002093110938
0.2078523708
0.00230719359
-0.2032881905
-0.001220782963
0.2042493945
0.000251325978
-0.09785733786
0.001637908653
0.0982298917
-0.0009869682119
-0.001023494278
0.003920181847
-0.154261509
0.1532395463
-0.002898219092
-0.001323632095
-0.2794078836
0.278384299
0.002393792001
-0.2659664973
-0.003040859387
0.2666470489
0.002657784458
-0.2553169378
-0.0006823844416
0.256437404
-7.672877399e-05
0.001932673582
-0.2452990899
0.245883801
-0.002322394057
-0.4751431146
0.005209829581
0.4744841035
-0.004550818502
-0.4678821127
0.004264389502
0.4680659915
-0.004448268275
-0.006472606229
0.9228980207
0.004733544382
0.004065459873
-0.004244085316
0.9179854085
-0.002139318548
0.9151502458
0.9136648776
-0.002985309482
0.9221498336
-0.005970659495
0.9213749234
-0.009120778063
0.9198652685
-0.005920368728
0.9173457154
-0.006595747631
-0.4553327119
0.4561229618
-0.006710618623
-0.4524327058
0.007665640244
0.4533618942
-0.008594828733
-0.4479121252
0.009677416529
0.4489252305
-0.005261103065
-0.005514941877
-0.2155821201
0.004773679185
0.2148582597
-0.004302830058
-0.2085825962
0.002409177694
0.2075715507
-0.001779312125
-0.2067900662
0.0006394956325
0.2065450781
-0.0006602915527
-0.2071950674
0.002345307981
0.2081872004
-0.003340572541
-0.1004219876
0.003131170138
0.1006778176
-0.00167805027
-0.001708949856
0.01374695707
-0.1443827303
0.1429969506
-0.01236117737
0.01206313837
-0.2734489305
0.2714994022
-0.01003337741
-0.2675089988
0.007173290932
0.2668393848
-0.006197312138
-0.2588199698
0.00594136946
0.2591996104
-0.005962652321
0.005958082176
-0.2465146612
0.2465470922
-0.005817288792
-0.473457502
0.009502055204
0.4721109802
-0.008155533446
-0.4680969763
0.006958427042
0.4670073601
-0.005868810803
-0.00916397125
0.9193570842
0.006585755332
0.006119152422
-0.005954007883
0.9147754451
-0.002928986813
0.9121252247
0.9107358908
-0.003530370435
0.9256802041
-0.007098312672
0.9249428657
-0.01083011332
0.9235970692
-0.007122236285
0.9211694044
-0.007531566058
-0.4571294186
0.4581189665
-0.008111784244
-0.4545336713
0.009262592179
0.4557835154
-0.01051243636
-0.4497790628
0.01189189554
0.4509910102
-0.006322631487
-0.006901018688
-0.2126894967
0.005777569676
0.2119487563
-0.005308291622
-0.2047073811
0.00356699906
0.203801614
-0.003052512567
-0.2061018489
0.00238186161
0.2060573637
-0.002598414304
-0.2112366593
0.004910450756
0.2122953661
-0.005969442744
-0.1023474753
0.004492697364
0.1025927543
-0.002348548626
-0.002389427783
0.01710332906
-0.1336604643
0.132325715
-0.01576857978
0.01916873097
-0.2657628999
0.2641878903
-0.01745947069
-0.2659333314
0.01301397875
0.2668320217
-0.01358076228
-0.2594477557
0.01285431897
0.2592434311
-0.01230766401
0.009474080057
-0.2450890939
0.2442833952
-0.008534087937
-0.4705011865
0.01300613964
0.4686440706
-0.01114902375
-0.4658425011
0.009524107133
0.4644348459
-0.008116451933
-0.01154215739
0.9164096104
0.007511699239
0.006977931977
-0.007434851377
0.9106681391
-0.003614708308
0.9083050816
0.9071211825
-0.0077021057
0.9333823098
-0.01559720786
0.9328379678
-0.0236260892
0.9316259505
-0.008342105217
0.929693034
-0.02380761354
-0.4593482606
0.4605661044
-0.00955994901
-0.457092183
0.01090727328
0.4586047276
-0.01241981784
-0.450929892
0.01395658862
0.4501261134
-0.006508691663
-0.006844388567
-0.2098956751
0.00517162514
0.2087260291
-0.004295118062
-0.2011748913
0.003515302847
0.2005997411
-0.003338651415
-0.2062314071
0.003875063975
0.205661482
-0.003563143629
-0.2156385943
0.006552909224
0.2168059556
-0.003850937789
-0.003869332685
-0.05238658933
0.002906586373
0.05246922553
-0.002989222569
-0.05829125883
0.006360396303
0.05779714982
-0.01236498718
0.006498699884
0.01542751748
-0.1244434717
0.24525442
-0.02684255051
0.01500232564
-0.1243982409
-0.2602134228
0.02207929103
0.259940164
-0.02161035188
-0.2656835664
0.01870951811
0.2650964641
-0.01775952623
-0.2581961709
0.01518962755
0.2575786318
-0.01425092328
0.01098840769
-0.2403895587
0.239189563
-0.009714805709
-0.466463574
0.01530643825
0.4642874734
-0.01313033763
-0.4629767533
0.01143568399
0.4614085973
-0.009867527974
-0.01339635748
0.9122664828
0.008999377333
0.00854010782
-0.008629510339
0.905901292
-0.004244384787
0.9039199561
0.9028767977
-0.004201926364
0.9375842362
-0.008519255299
0.9371552968
-0.01307397794
0.9361806732
-0.008895806467
0.9346264569
-0.009111594415
-0.4638297778
0.4651256832
-0.01019171182
-0.4619084039
0.0116361532
0.4634649957
-0.01319274502
-0.4505216268
0.01488409674
0.4531494939
-0.008588311353
-0.009156442215
-0.205984085
0.009083553471
0.2056792801
-0.00908747212
-0.1979446162
0.00838239098
0.1971838426
-0.008023999098
-0.2074157329
0.007085657938
0.2070054272
-0.006916139026
-0.2208287928
0.007325607672
0.2220311827
-0.004255720263
-0.004272277301
-0.05455378671
0.006470807919
0.1095118708
-0.05451512969
-0.003449278435
-0.003464483877
-0.1122211076
0.008445003588
0.1120972996
-0.0165220432
0.008200847678
0.02613024912
-0.2383782005
0.2372416465
-0.02498507488
-0.2580556656
0.02069422907
0.2581024691
-0.02048482154
-0.2636029038
0.01938179743
0.2663569914
-0.02176935649
-0.2552894439
0.01930755012
0.2525777193
-0.01633351741
0.01114831868
-0.2339973333
0.23275216
-0.009892287311
-0.4623644728
0.01618121057
0.4606336516
-0.01445038934
-0.4598247026
0.01277162099
0.4580035414
-0.01095045976
-0.01294272336
0.9072712103
0.008905270116
0.009032725799
-0.009383616565
0.9023421852
-0.004593223106
0.8991295627
0.8982835746
-0.004396545677
0.9419807819
-0.008905733983
0.9416644851
-0.01364295325
0.9409178925
-0.009295395326
0.9397157675
-0.009436868546
-0.4665171951
0.4678945133
-0.01067271352
-0.4650419177
0.01216327871
0.4666262418
-0.01374760276
-0.4576157286
0.01544575079
0.4629302133
-0.01040709653
-0.01043938323
-0.2068395432
0.01395346066
0.2080530316
-0.01542785382
-0.1957693562
0.01830701473
0.1957727554
-0.01869307877
-0.2042537945
0.01797847862
0.2031115963
-0.01711696009
-0.2220849995
0.0126861747
0.2200114352
-0.01067206254
-0.1126539233
0.01150845409
0.2250715044
-0.01142645042
-0.1124995848
-0.2265832393
0.01778801943
0.2271597792
-0.01836455928
-0.2398940751
0.02302255014
0.2419738111
-0.02500204762
-0.2601126669
0.02784573821
0.2604649969
-0.02788816053
-0.2645509459
0.02586886061
0.2636573601
-0.02460250045
-0.2472855882
0.01951400098
0.247310093
-0.01934357126
0.01202539415
-0.2315205123
0.2291590152
-0.009663897011
-0.4590938608
0.01784958573
0.4558918699
-0.0146475948
-0.4561630793
0.01309543175
0.4540799639
-0.01101231642
-0.0133640342
0.9023709443
0.009210715259
0.009053584972
-0.009464278261
0.8984424293
-0.004812508007
0.8944777924
0.8934710666
-0.004480619258
0.9464614011
-0.009062367846
0.9462462337
-0.01384470848
0.9457002331
-0.009446189983
0.9448116063
-0.009494357224
-0.4692806137
0.4706673386
-0.01083291482
-0.4681964772
0.01230801832
0.4697443407
-0.01385588184
-0.4670188874
0.01549612718
0.4688165072
-0.008695331251
-0.008598641786
-0.214620986
0.01543153662
0.2178310853
-0.01879971419
-0.1981264647
0.02734038268
0.1999157374
-0.02944467397
-0.2006955986
0.03297152764
0.2006203265
-0.03319262457
-0.2144101597
0.031438136
0.2131412375
-0.03033210725
-0.2204490709
0.02705158806
0.2178610699
-0.02450448098
-0.2332963338
0.02999735942
0.2350766632
-0.03173209483
-0.2479515542
0.03685202068
0.2493194882
-0.03804274503
-0.2607316964
0.0386572793
0.2601590238
-0.03778089706
-0.258932649
0.03213940955
0.2565133132
-0.0294252289
-0.2395776444
0.01977532192
0.2362146661
-0.01630719398
0.01143424198
-0.227169365
0.226552401
-0.01081727796
-0.4550852985
0.01813404379
0.4523346317
-0.01538337707
-0.4511832141
0.01193503842
0.4495591545
-0.0103109788
-0.01255690263
0.896022009
0.009716006976
0.009189830915
-0.007063671069
0.8929491978
-0.004869923211
0.8922840446
0.8886011434
-0.004466071037
0.9509274722
-0.00901784863
0.9507980113
-0.01373523241
0.9504176169
-0.009382321765
0.9497885609
-0.009329865304
-0.4720191385
0.4733624975
-0.01072568071
-0.4712518556
0.01213818776
0.4727148534
-0.0136011856
-0.4704877633
0.01512912076
0.4720822494
-0.008403818583
-0.008319788238
-0.2303186259
0.009315063848
0.2343604465
-0.01337788822
-0.20881313
0.02782090316
0.2129423407
-0.03213982492
-0.2037230252
0.04255272689
0.2059873338
-0.04505316648
-0.2121992531
0.04982069299
0.2129340995
-0.0507267488
-0.2105710731
0.04875973973
0.2092752469
-0.04752158604
-0.2379842925
0.05283719158
0.238181183
-0.05296974983
-0.250324227
0.05203154543
0.249476809
-0.05100493376
-0.2553475781
0.04511596907
0.2526235456
-0.04215712671
-0.2464283861
0.03074837399
0.2421680832
-0.02632422087
-0.2258337343
0.01290229834
0.2250883891
-0.01215602113
0.01058787233
-0.2248901796
0.2243809298
-0.01007862251
-0.4485995687
0.01713987145
0.4468321446
-0.01537244733
-0.4479526422
0.01368833504
0.446324558
-0.01206025078
-0.01171887103
0.8888119412
0.01035238358
0.008576555238
-0.006658432448
0.8878887592
-0.004500234365
0.8901258465
0.884100909
-0.004371297384
0.9552987696
-0.008810689846
0.9552374038
-0.01337556557
0.9549824926
-0.009134630172
0.9545508645
-0.009003238914
-0.4746543423
0.4759239084
-0.01040419621
-0.4741208312
0.01172485181
0.4754705781
-0.01307459872
-0.4735924793
0.01446238823
0.4750156254
-0.007999988416
-0.007885545918
-0.2363520653
0.008737135837
0.2367259646
-0.009111035118
-0.2281063719
0.01284436474
0.2337539482
-0.01852590659
-0.2162720711
0.0342029798
0.2206520219
-0.03869885777
-0.2177971877
0.04943604447
0.2200224277
-0.05176810607
-0.2112433234
0.05249408073
0.21341992
-0.05470713198
-0.236821009
0.05685413717
0.2358449993
-0.05582556325
-0.2437361453
0.04995389463
0.2409438271
-0.04704483951
-0.2414520995
0.03559505292
0.2369709347
-0.03100467269
-0.227442135
0.01579217527
0.2241812249
-0.01251929283
-0.2236796339
0.01129137471
0.2232686493
-0.01088039016
0.00964220158
-0.2230234747
0.2226100337
-0.009228760563
-0.4451879807
0.01588998175
0.443663826
-0.01436582705
-0.4448151834
0.01288164664
0.4433540507
-0.01142051394
-0.0145157949
0.8835617784
0.009765150576
0.01000080717
-0.009532417196
0.8829053815
-0.001906983958
0.8825004133
0.8821939251
-0.004214197564
0.9595129671
-0.008478116619
0.9595013229
-0.01282709579
0.9593314718
-0.008748311529
0.9590352019
-0.008563121681
-0.4771349309
0.4783156353
-0.009929015946
-0.4767557816
0.01114362052
0.4779805453
-0.01236838422
-0.4763528284
0.01360876823
0.4776054778
-0.007495185595
-0.007366231986
-0.2377584475
0.008131939883
0.238075115
-0.008448607387
-0.2368426195
0.009389099538
0.2371506751
-0.009697155168
-0.2350370152
0.01059865034
0.2357971723
-0.01136043781
-0.2276095117
0.02159716686
0.2303798982
-0.0243897018
-0.2207358153
0.02972075253
0.2228111705
-0.03180556826
-0.232012043
0.03157081166
0.2306106214
-0.03015145106
-0.2310794891
0.02265970918
0.2276582924
-0.01921753868
-0.224622439
0.01214980354
0.2244101531
-0.0119375177
-0.2231963593
0.01118639469
0.2229145348
-0.01090457022
-0.2221810844
0.009992388706
0.2218609279
-0.009672232215
0.008685486783
-0.2215074859
0.2211686438
-0.008346644723
-0.4422538793
0.01452060114
0.4409520052
-0.0132187271
-0.442011862
0.01192626926
0.4407187145
-0.01063312179
-0.01362920286
0.8787589425
0.009073538235
0.009358500443
-0.008992297357
0.878268476
-0.004463904061
0.87797202
0.877730021
-0.004012494432
0.9635254616
-0.008057529437
0.9635463579
-0.01215083063
0.963424773
-0.008269970494
0.963207823
-0.008053481196
-0.4794344001
0.4805203722
-0.009355942545
-0.479139622
0.01046059188
0.480239268
-0.01156023783
-0.4787746653
0.01265760393
0.4798647703
-0.006931927281
-0.006815781623
-0.2389475268
0.007487668269
0.2392151065
-0.007755247958
-0.2379824059
0.008532881762
0.23823204
-0.008782515831
-0.2365790029
0.009502037235
0.2368072683
-0.009730302631
-0.2319842127
0.01016122261
0.2318682892
-0.01004529909
-0.2260856292
0.01045902603
0.2265879097
-0.01096130645
-0.2288879863
0.01113248002
0.2288831776
-0.01112767128
-0.226129776
0.01097440171
0.2260369147
-0.01088154041
-0.2238540453
0.01049365841
0.223691111
-0.01033072413
-0.2221728849
0.009754137739
0.2219550838
-0.009536336634
-0.2210059674
0.008822435995
0.2207517053
-0.008568173881
0.007770816836
-0.2202673288
0.2199867242
-0.007490212249
-0.4397495096
0.01314611743
0.4386389025
-0.01203551036
-0.4395367816
0.01091521388
0.4383993683
-0.009777800568
-0.01263248505
0.8744133513
0.008338350308
0.00863972593
-0.00837086988
0.8740068608
-0.004165745402
0.8737668955
0.8735642756
-0.003782780106
0.9673082417
-0.007583187909
0.9673467657
-0.01140077159
0.9672423567
-0.007739168174
0.96705618
-0.007509960498
-0.4815430479
0.4825361627
-0.008732283013
-0.4812763481
0.009730455743
0.4822582384
-0.01071234601
-0.4808805353
0.01167979566
0.4818268719
-0.006361969139
-0.006264163149
-0.2399523442
0.006847564361
0.2401788878
-0.007074107925
-0.2389096172
0.007721242529
0.2391142778
-0.007925903134
-0.2374100816
0.008506558441
0.2375871129
-0.008683589797
-0.2314766109
0.008938624244
0.2313351754
-0.008797188754
-0.227806011
0.009285473058
0.228132538
-0.009612000064
-0.2288509681
0.00968017494
0.2288348324
-0.0096640392
-0.2257817672
0.00951814173
0.2257031279
-0.009439502345
-0.2232553762
0.009123699253
0.2231251192
-0.008993442319
-0.2213730873
0.008534792489
0.2211996001
-0.008361305269
-0.2200661125
0.007788651926
0.219860225
-0.007582764506
0.006929176647
-0.2192429065
0.2190090325
-0.006695302708
-0.4376116774
0.01183549164
0.4366600033
-0.01088381755
-0.4373629469
0.009912485655
0.4363646521
-0.008914190904
-0.01159793269
0.8705072577
0.007601938653
0.007902087657
-0.007713883631
0.8701228117
-0.003847059684
0.8699000716
0.8697172159
-0.003538373452
0.9708466152
-0.007082034893
0.9708904271
-0.01061846605
0.9707787878
-0.007188166564
0.9705850965
-0.006959215918
-0.4834646371
0.4843679465
-0.008091475941
-0.4831826378
0.008989797504
0.4840571292
-0.00986428891
-0.4827083998
0.01071641387
0.4835292528
-0.005809490465
-0.005727776419
-0.2408043619
0.00623449898
0.2409971438
-0.006427280878
-0.2396736796
0.006970900971
0.239843828
-0.007141049324
-0.2380573566
0.007616801788
0.2381959338
-0.007755379011
-0.2308956991
0.007887925368
0.2307475355
-0.007739761799
-0.2289219515
0.008257290976
0.2291314553
-0.008466794749
-0.2287740418
0.008476912705
0.2287503668
-0.008453237724
-0.225482522
0.008311943358
0.2254134097
-0.008242831101
-0.2227706594
0.007976236617
0.2226629829
-0.007868560176
-0.2207298493
0.007492766456
0.2205880663
-0.007350983553
-0.2193000267
0.006881574331
0.2191303153
-0.006711862949
0.006168700714
-0.2183898696
0.2181935551
-0.005972386238
-0.4357772269
0.01061660049
0.4349579602
-0.009797333813
-0.4354562238
0.008953120938
0.4345797898
-0.008076686948
-0.01057381166
0.8670097937
0.006892567402
0.007178708237
-0.007054820759
0.8666038208
-0.003524939368
0.8663701902
0.8661922766
-0.003291035236
0.9741376504
-0.006577544959
0.9741769368
-0.009838561153
0.974039804
-0.006642430341
0.9738097907
-0.006420825027
-0.4852080375
0.4860275316
-0.007461924448
-0.4848803256
0.008269480085
0.4856593329
-0.009048487357
-0.4842966747
0.009800978729
0.4850143049
-0.005297748234
-0.005220860667
-0.2415307588
0.00566526728
0.241695747
-0.005830255539
-0.2403122537
0.006291713432
0.240455734
-0.006435193789
-0.2385647245
0.006830030639
0.2386735163
-0.00693882236
-0.2303092918
0.00698581113
0.2301673633
-0.006843882563
-0.2296335263
0.007361099157
0.2297655374
-0.007493110258
-0.228671646
0.007468609504
0.2286433361
-0.007440299641
-0.2252171268
0.00730347142
0.225155016
-0.007241360643
-0.2223658371
0.007010235777
0.2222744136
-0.006918812268
-0.2201997286
0.006603171632
0.2200812419
-0.006484684861
-0.2186645451
0.006092307927
0.2185222685
-0.005950031343
0.005492146786
-0.2176715675
0.2175048126
-0.005325391818
-0.4341961724
0.009507207357
0.4334872384
-0.008798273381
-0.4337823265
0.008061674648
0.4330113345
-0.007290682637
-0.009595538435
0.8638836197
0.006227696639
0.006494015803
-0.006418889801
0.8634271722
-0.003212371711
0.8631636721
0.8629799049
-0.003048859917
0.9771865103
-0.006085670458
0.9772137474
-0.009083961926
0.9770380955
-0.006117132511
0.9767511591
-0.005908197795
-0.4867865984
0.4875292452
-0.006859779285
-0.4863929407
0.007585880363
0.4870877549
-0.008280694553
-0.485686122
0.008946276087
0.4863157425
-0.004824407251
-0.004751489295
-0.2421542925
0.005144637179
0.2422967463
-0.005287091004
-0.2408533988
0.005683356943
0.2409760599
-0.005806018039
-0.2389633424
0.006137174572
0.2390489707
-0.006222802894
-0.2297602485
0.006211058956
0.229631948
-0.006082758513
-0.2300794333
0.006580334724
0.2301612614
-0.006662162851
-0.2285538105
0.006615723739
0.228522745
-0.006584658189
-0.2249772866
0.006452530902
0.2249206686
-0.006395912955
-0.2220194138
0.006191630316
0.2219401625
-0.006112379096
-0.2197536084
0.005841853978
0.2196527062
-0.005740951848
-0.2181288615
0.00540735782
0.2180077823
-0.005286278616
0.004895220597
-0.2170595691
0.2169163604
-0.004752011866
-0.4328260272
0.008510741431
0.4322087469
-0.007893461142
-0.4323094331
0.007247781257
0.4316292016
-0.006567549773
-0.008683195307
0.8610897855
0.005617129646
0.005859899833
-0.005821093476
0.8605650704
-0.002917218969
0.8602597976
0.8600626859
-0.002817987202
0.9800044975
-0.005618378423
0.9800141386
-0.008371475815
0.9797911929
-0.005622937252
0.9794334042
-0.005430783711
-0.4882151637
0.4888883817
-0.00629615522
-0.4877427535
0.006949902691
0.4883640028
-0.007571151944
-0.4869066046
0.008161932432
0.4874617648
-0.004391553903
-0.004325538697
-0.2426942683
0.004672345801
0.2428183739
-0.004796451348
-0.2413180712
0.005140685356
0.2414242326
-0.005246846736
-0.2392772794
0.005527230786
0.2393447775
-0.005594728834
-0.2292734216
0.005542897219
0.2291634537
-0.005432929319
-0.2303538337
0.005899131347
0.2304033581
-0.005948655784
-0.2284269035
0.005887558583
0.228394253
-0.005854908087
-0.2247578602
0.00572758883
0.2247057476
-0.005675476246
-0.2217173306
0.005492349714
0.2216475326
-0.005422551706
-0.219371546
0.005186955182
0.2192842874
-0.005099696528
-0.2176708845
0.004812041184
0.2175665238
-0.004707680481
0.004369912321
-0.2165325219
0.21640836
-0.004245750387
-0.4316311375
0.00762513179
0.4310901352
-0.007084129497
-0.4310092398
0.00651527373
0.4304068731
-0.005912907078
-0.007848884569
0.8585898584
0.00506588485
0.005282926785
-0.005270971842
0.8579871576
-0.002644612476
0.8576334382
0.8574180734
-0.002602039129
0.9826065367
-0.005182559976
0.9825946595
-0.007710303907
0.9823189368