/*--------------------------------*- C++ -*----------------------------------*\
| =========                 |                                                 |
| \\      /  F ield         | OpenFOAM: The Open Source CFD Toolbox           |
|  \\    /   O peration     | Version:  v1912                                 |
|   \\  /    A nd           | Website:  www.openfoam.com                      |
|    \\/     M anipulation  |                                                 |
\*---------------------------------------------------------------------------*/
FoamFile
{
    version     2.0;
    format      ascii;
    class       pointVectorField;
    location    "2";
    object      pointDisplacement;
}
// * * * * * * * * * * * * * * * * * * * * * * * * * * * * * * * * * * * * * //

dimensions      [0 1 0 0 0 0 0];


internalField   nonuniform List<vector> 
26316
(
(0 0 0)
(0 0 0)
(0 0 0)
(0 0 0)
(0 0 0)
(0 0 0)
(0 0 0)
(0 0 0)
(0 0 0)
(0 0 0)
(0 0 0)
(0 0 0)
(0 0 0)
(0 0 0)
(0 0 0)
(0 0 0)
(0 0 0)
(0 0 0)
(0 0 0)
(0 0 0)
(0 0 0)
(0 0 0)
(0 0 0)
(0 0 0)
(0 0 0)
(0 0 0)
(0 0 0)
(0 0 0)
(0 0 0)
(0 0 0)
(0 0 0)
(0 0 0)
(0 0 0)
(0 0 0)
(0 0 0)
(0 0 0)
(0 0 0)
(0 0 0)
(0 0 0)
(0 0 0)
(0 0 0)
(0 0 0)
(0 0 0)
(0 0 0)
(0 0 0)
(0 0 0)
(0 0 0)
(0 0 0)
(0 0 0)
(0 0 0)
(0 0 0)
(0 0 0)
(0 0 0)
(0 0 0)
(0 0 0)
(0 0 0)
(0 0 0)
(0 0 0)
(0 0 0)
(0 0 0)
(0 0 0)
(0 0 0)
(0 0 0)
(0 0 0)
(0 0 0)
(0 0 0)
(0 0 0)
(0 0 0)
(0 0 0)
(0 0 0)
(0 0 0)
(0 0 0)
(0 0 0)
(0 0 0)
(0 0 0)
(0 0 0)
(0 0 0)
(0 0 0)
(0 0 0)
(0 0 0)
(0 0 0)
(0 0 0)
(0 0 0)
(0 0 0)
(0 0 0)
(0 0 0)
(0 0 0)
(0 0 0)
(0 0 0)
(0 0 0)
(0 0 0)
(0 0 0)
(0 0 0)
(0 0 0)
(0 0 0)
(0 0 0)
(0 0 0)
(0 0 0)
(0 0 0)
(0 0 0)
(0 0 0)
(0 0 0)
(0 0 0)
(0 0 0)
(0 0 0)
(0 0 0)
(0 0 0)
(0 0 0)
(0 0 0)
(0 0 0)
(0 0 0)
(0 0 0)
(0 0 0)
(0 0 0)
(0 0 0)
(0 0 0)
(0 0 0)
(0 0 0)
(0 0 0)
(-8.274234551e-07 6.905104302e-06 2.775557562e-17)
(0 0 0)
(0 0 0)
(-4.559083533e-07 7.734718339e-05 3.469446952e-16)
(2.108353174e-06 6.575093693e-05 2.91433544e-16)
(0 0 0)
(0 0 0)
(0 0 0)
(0 0 0)
(0 0 0)
(0 0 0)
(0 0 0)
(0 0 0)
(0 0 0)
(0 0 0)
(0 0 0)
(0 0 0)
(0 0 0)
(0 0 0)
(0 0 0)
(0 0 0)
(0 0 0)
(0 0 0)
(0 0 0)
(0 0 0)
(0 0 0)
(0 0 0)
(0 0 0)
(0 0 0)
(0 0 0)
(0 0 0)
(0 0 0)
(0 0 0)
(0 0 0)
(0 0 0)
(0 0 0)
(0 0 0)
(0 0 0)
(0 0 0)
(0 0 0)
(0 0 0)
(0 0 0)
(0 0 0)
(0 0 0)
(0 0 0)
(0 0 0)
(0 0 0)
(0 0 0)
(0 0 0)
(0 0 0)
(0 0 0)
(0 0 0)
(0 0 0)
(0 0 0)
(0 0 0)
(0 0 0)
(0 0 0)
(0 0 0)
(0 0 0)
(0 0 0)
(0 0 0)
(0 0 0)
(0 0 0)
(0 0 0)
(0 0 0)
(0 0 0)
(-5.154656583e-05 9.583018366e-05 4.857225733e-16)
(-0.0002965781283 0.0006011916627 3.080868893e-15)
(-3.879234635e-06 8.182728959e-06 4.163336342e-17)
(-0.0005626734496 0.001627516958 8.007483565e-15)
(-0.001395100372 0.003888759982 1.992850329e-14)
(-0.001653179979 0.005268105881 2.699229729e-14)
(-0.000772632321 0.0025518638 1.257327575e-14)
(-0.0009357680405 0.00537785365 2.646494135e-14)
(-0.001631969298 0.009101940347 4.662936703e-14)
(-0.001354043059 0.01005648849 5.152822613e-14)
(-0.0008029066379 0.006119937442 3.011479954e-14)
(-2.369950741e-05 0.007155478734 3.523570324e-14)
(-1.57699155e-05 0.0113619067 5.825895322e-14)
(0.0004796830641 0.01121318586 5.750955268e-14)
(0.0002752710735 0.007037533521 3.466671394e-14)
(0.0008944410142 0.005393192335 2.656208586e-14)
(0.001591215341 0.009115007099 4.676814491e-14)
(0.001738341876 0.0079635736 4.087008509e-14)
(0.0009387328162 0.004514594812 2.223221607e-14)
(0.0005503243639 0.001647437428 8.118505868e-15)
(0.001367499452 0.003917449442 2.009503675e-14)
(0.001027821334 0.002617646782 1.34336986e-14)
(0.000321324158 0.0008542742445 4.204969706e-15)
(0 0 0)
(5.407891187e-05 0.0001031977691 5.273559367e-16)
(0 0 0)
(0 0 0)
(0 0 0)
(0 0 0)
(0 0 0)
(0 0 0)
(0 0 0)
(0 0 0)
(0 0 0)
(0 0 0)
(0 0 0)
(0 0 0)
(0 0 0)
(0 0 0)
(0 0 0)
(0 0 0)
(0 0 0)
(0 0 0)
(0 0 0)
(0 0 0)
(0 0 0)
(0 0 0)
(0 0 0)
(0 0 0)
(0 0 0)
(0 0 0)
(0 0 0)
(0 0 0)
(0 0 0)
(0 0 0)
(0 0 0)
(0 0 0)
(0 0 0)
(0 0 0)
(0 0 0)
(0 0 0)
(0 0 0)
(0 0 0)
(0 0 0)
(0 0 0)
(0 0 0)
(0 0 0)
(0 0 0)
(0 0 0)
(0 0 0)
(0 0 0)
(-0.0001439597601 0.0001680390197 1.026956298e-15)
(-0.0007861547791 0.0009792246444 6.022959909e-15)
(-0.0001862764483 0.0002433082644 1.429412144e-15)
(-0.002652287435 0.004342396757 2.53824739e-14)
(-0.004236993129 0.006630092776 4.06341627e-14)
(-0.005396030568 0.009236828824 5.65658631e-14)
(-0.003641326566 0.006516586115 3.808064974e-14)
(-0.005622266906 0.01395617406 8.143485886e-14)
(-0.007416085176 0.01765343613 1.079691891e-13)
(-0.007427823313 0.02030987734 1.241923231e-13)
(-0.005756297943 0.0163955764 9.564571357e-14)
(-0.004413368454 0.02242391824 1.308952946e-13)
(-0.005445496108 0.0267128712 1.63508096e-13)
(-0.004230622064 0.02814977856 1.724037579e-13)
(-0.003469671537 0.02380633457 1.390276783e-13)
(0.0001649284318 0.02561386103 1.498662305e-13)
(0.0002808817112 0.02999683058 1.841859998e-13)
(0.001853001289 0.02976247046 1.829231211e-13)
(0.001443309181 0.02539431491 1.486866186e-13)
(0.004629401252 0.02235860031 1.311589726e-13)
(0.005849306971 0.02658939717 1.638134073e-13)
(0.006742886241 0.02477091211 1.526972992e-13)
(0.005297807168 0.02063124837 1.210698208e-13)
(0.005646639295 0.01394112754 8.185119249e-14)
(0.007521261767 0.01758283961 1.084687895e-13)
(0.007102066074 0.01481918003 9.13991105e-14)
(0.005194289888 0.01143675152 6.712685963e-14)
(0.002637434339 0.004385598307 2.571554081e-14)
(0.00422207323 0.006668605753 4.107825191e-14)
(0.002981233711 0.004355650907 2.681188604e-14)
(0.00165404837 0.00254229517 1.490474411e-14)
(0 0 0)
(0.0001429327221 0.0001698418226 1.040834086e-15)
(0 0 0)
(0 0 0)
(0 0 0)
(0 0 0)
(0 0 0)
(0 0 0)
(0 0 0)
(0 0 0)
(0 0 0)
(0 0 0)
(0 0 0)
(0 0 0)
(0 0 0)
(0 0 0)
(0 0 0)
(0 0 0)
(0 0 0)
(0 0 0)
(0 0 0)
(0 0 0)
(0 0 0)
(0 0 0)
(0 0 0)
(0 0 0)
(0 0 0)
(0 0 0)
(0 0 0)
(0 0 0)
(0 0 0)
(0 0 0)
(0 0 0)
(0 0 0)
(0 0 0)
(0 0 0)
(0 0 0)
(0 0 0)
(0 0 0)
(0 0 0)
(0 0 0)
(-6.193942904e-05 4.85329661e-05 3.747002708e-16)
(0 0 0)
(-0.002633838661 0.002624899232 1.891542478e-14)
(-0.003913069674 0.003670930038 2.808864252e-14)
(-0.006116798682 0.006146491748 4.692080058e-14)
(-0.004493836345 0.004790039858 3.447242491e-14)
(-0.010218493 0.01376630391 9.865719353e-14)
(-0.01238779692 0.01577816563 1.198208199e-13)
(-0.01381481304 0.01929070164 1.463273946e-13)
(-0.01163637565 0.01717968085 1.229849556e-13)
(-0.01309456548 0.0270251155 1.931788063e-13)
(-0.01490226588 0.02911023404 2.205180483e-13)
(-0.01415970124 0.03183959629 2.412792188e-13)
(-0.01256789568 0.02985339861 2.134403765e-13)
(-0.00839254188 0.03615609284 2.591260539e-13)
(-0.009240004353 0.03771425556 2.86659585e-13)
(-0.006952113344 0.03887600594 2.959577028e-13)
(-0.006352540952 0.03745838327 2.688127498e-13)
(0.0006764429851 0.03900313048 2.811917366e-13)
(0.0007766686705 0.04018783418 3.07587289e-13)
(0.003410627042 0.03995337296 3.063799214e-13)
(0.003081940584 0.03875849649 2.798872245e-13)
(0.009500457444 0.03577265158 2.595285098e-13)
(0.01055095282 0.03722992409 2.87048163e-13)
(0.01243688056 0.03560699699 2.74946732e-13)
(0.01113600319 0.03401976775 2.471078897e-13)
(0.01361681525 0.02663450893 1.938726957e-13)
(0.0155837159 0.02855417364 2.210870376e-13)
(0.01560803256 0.02556754244 1.980082764e-13)
(0.01348988136 0.02358727142 1.716959908e-13)
(0.01023778204 0.01357707544 9.867107131e-14)
(0.0127691611 0.015803924 1.224020885e-13)
(0.01099000142 0.01258144953 9.746370377e-14)
(0.00870526513 0.01065711726 7.746581154e-14)
(0.003008848432 0.003012907635 2.18575158e-14)
(0.00449831272 0.004230586262 3.264055692e-14)
(0.002536828904 0.002251565614 1.734723476e-14)
(0.001449355424 0.001368659783 9.922618283e-15)
(0 0 0)
(0 0 0)
(0 0 0)
(0 0 0)
(0 0 0)
(0 0 0)
(0 0 0)
(0 0 0)
(0 0 0)
(0 0 0)
(0 0 0)
(0 0 0)
(0 0 0)
(0 0 0)
(0 0 0)
(0 0 0)
(0 0 0)
(0 0 0)
(0 0 0)
(0 0 0)
(0 0 0)
(0 0 0)
(0 0 0)
(0 0 0)
(0 0 0)
(0 0 0)
(0 0 0)
(0 0 0)
(0 0 0)
(0 0 0)
(0 0 0)
(0 0 0)
(0 0 0)
(0 0 0)
(0 0 0)
(-0.0002862692764 0.0001732625861 1.637578961e-15)
(-0.0006509834213 0.0003639130958 3.73312492e-15)
(-0.002311513087 0.001362356315 1.393329896e-14)
(-0.001554193056 0.0009911275242 9.381384558e-15)
(-0.009115277618 0.006961839623 6.535050279e-14)
(-0.0107808907 0.007622574701 7.732703367e-14)
(-0.01388074145 0.0105147532 1.063316102e-13)
(-0.01203743778 0.009846069452 9.217626662e-14)
(-0.01890636798 0.01962592089 1.822847429e-13)
(-0.02087438285 0.0200347443 2.011307787e-13)
(-0.02195165527 0.0230911431 2.314121117e-13)
(-0.02006936299 0.02286426146 2.118860642e-13)
(-0.01964100623 0.03143457578 2.90448221e-13)
(-0.02086260592 0.03077738853 3.072542221e-13)
(-0.01917702281 0.0325615016 3.252259573e-13)
(-0.01811570158 0.03334570492 3.083644451e-13)
(-0.01112927485 0.03706632582 3.445022045e-13)
(-0.01153103799 0.03524924148 3.540362448e-13)
(-0.008517746484 0.03549654525 3.574085472e-13)
(-0.008264103687 0.03757910653 3.500810752e-13)
(0.0008234410022 0.03788173566 3.556321904e-13)
(0.0007461990765 0.03538457896 3.593098041e-13)
(0.003846248683 0.03527397902 3.59254293e-13)
(0.003882714813 0.03772684456 3.551464678e-13)
(0.01275106617 0.03636958649 3.452238495e-13)
(0.0130719932 0.03447710751 3.545219673e-13)
(0.015864118 0.03380309198 3.486794187e-13)
(0.01535627518 0.03541803217 3.370914659e-13)
(0.02073090818 0.03038178939 2.910727215e-13)
(0.02203292001 0.02958964711 3.083089339e-13)
(0.02303682807 0.02755091755 2.879502192e-13)
(0.02144759853 0.0279515331 2.685629497e-13)
(0.01968376511 0.01949045108 1.874611577e-13)
(0.02169432766 0.01975851966 2.06473727e-13)
(0.01984017249 0.01677400174 1.749989043e-13)
(0.01779315627 0.01635442343 1.570410468e-13)
(0.009655926601 0.007325757342 6.986078382e-14)
(0.01138347553 0.007950827828 8.230915949e-14)
(0.008200172178 0.005416720707 5.591360708e-14)
(0.00671748784 0.004817915494 4.582445534e-14)
(0.0004428995807 0.0002721026269 2.581268532e-15)
(0.0007608972831 0.0004309682484 4.427014311e-15)
(1.931430901e-05 1.04238228e-05 9.714451465e-17)
(0 0 0)
(0 0 0)
(0 0 0)
(0 0 0)
(0 0 0)
(0 0 0)
(0 0 0)
(0 0 0)
(0 0 0)
(0 0 0)
(0 0 0)
(0 0 0)
(0 0 0)
(0 0 0)
(0 0 0)
(0 0 0)
(0 0 0)
(0 0 0)
(0 0 0)
(0 0 0)
(0 0 0)
(0 0 0)
(0 0 0)
(0 0 0)
(0 0 0)
(0 0 0)
(0 0 0)
(0 0 0)
(0 0 0)
(-2.724855902e-05 8.085714299e-06 1.526556659e-16)
(-7.435396551e-07 2.521787796e-07 0)
(0 0 0)
(-0.002043434178 0.0008591184433 1.169897512e-14)
(-0.002579064292 0.0009653443409 1.476596623e-14)
(-0.00534878146 0.002115952264 3.223810108e-14)
(-0.004563554657 0.002026283361 2.750577544e-14)
(-0.01478958089 0.007916015832 1.060262989e-13)
(-0.01609840191 0.007692144352 1.153799278e-13)
(-0.01953489005 0.01001595583 1.494776525e-13)
(-0.01850575042 0.01063153594 1.416922135e-13)
(-0.02546879492 0.01854590206 2.448735659e-13)
(-0.02653040912 0.0172506185 2.547267952e-13)
(-0.02718397042 0.01933215529 2.851191505e-13)
(-0.0262208933 0.02088935511 2.755018436e-13)
(-0.02349125859 0.02582530075 3.41199291e-13)
(-0.0240100966 0.02347255606 3.473332733e-13)
(-0.02154469746 0.02401769271 3.563538353e-13)
(-0.02121170168 0.02667073004 3.528288772e-13)
(-0.01217139933 0.02703330199 0)
(-0.01239658446 0.02403092916 0)
(-0.01083390674 0.02400499245 0)
(-0.009184993594 0.0240441367 0)
(-0.00905969504 0.02552990658 0)
(-0.008996306614 0.02698164044 0)
(0.0004500184395 0.02672100308 0)
(0.0004010600227 0.02527696792 0)
(0.001983098201 0.02522459778 0)
(0.002023484118 0.02666878763 0)
(0.01316727614 0.02617135827 0)
(0.01316420793 0.02468666316 0)
(0.01317158108 0.02317861041 0)
(0.01474377229 0.02307988799 0)
(0.01629408766 0.02301052581 0)
(0.01632658509 0.02599113538 0)
(0.02448884528 0.02447325622 3.43558515e-13)
(0.02483848309 0.02204859349 3.494149414e-13)
(0.02669533961 0.02109621041 3.353983757e-13)
(0.02614305572 0.02329149548 3.277655924e-13)
(0.02632899702 0.01778509428 2.507022367e-13)
(0.02726349428 0.01627259306 2.5977831e-13)
(0.02586015999 0.01430865605 2.28123076e-13)
(0.02469571177 0.01547136198 2.177841241e-13)
(0.01589901029 0.008229744399 1.14783183e-13)
(0.01738714769 0.007963438547 1.255245907e-13)
(0.01369245608 0.005944565167 9.320322292e-14)
(0.01233228484 0.006045970949 8.396061624e-14)
(0.002742981854 0.001161035369 1.59317004e-14)
(0.003428714672 0.001288485488 1.990074772e-14)
(0.001228170259 0.0004411561981 6.800116026e-15)
(0.0008356156448 0.000337821578 4.62130334e-15)
(0 0 0)
(0 0 0)
(0 0 0)
(0 0 0)
(0 0 0)
(0 0 0)
(0 0 0)
(0 0 0)
(0 0 0)
(0 0 0)
(0 0 0)
(0 0 0)
(0 0 0)
(0 0 0)
(0 0 0)
(0 0 0)
(0 0 0)
(0 0 0)
(0 0 0)
(0 0 0)
(0 0 0)
(0 0 0)
(0 0 0)
(0 0 0)
(0 0 0)
(0 0 0)
(0 0 0)
(0 0 0)
(-0.0002455223595 3.123365253e-05 1.276756478e-15)
(-0.0001399164889 2.372871232e-05 7.21644966e-16)
(-0.0001144638891 2.425105464e-05 5.967448757e-16)
(-0.003705755286 0.0008703878789 2.120525977e-14)
(-0.003843349786 0.0007241794666 2.199629368e-14)
(-0.007114643788 0.001423985194 4.284073096e-14)
(-0.006926321604 0.001724836765 4.171663015e-14)
(-0.01860630415 0.005650737513 1.330879851e-13)
(-0.01890794946 0.004643612659 1.351418977e-13)
(-0.02249933304 0.005952819912 1.715433351e-13)
(-0.02217534987 0.00724305858 1.692257445e-13)
(-0.02870973721 0.0119050694 2.740863092e-13)
(-0.02902619822 0.009772646995 2.765981888e-13)
(-0.02938307017 0.01080056805 3.053390873e-13)
(-0.02909180058 0.01317648022 3.03007619e-13)
(-0.02487629519 0.01533901578 3.554656569e-13)
(-0.02503609048 0.01246731262 3.563538353e-13)
(-0.02215665052 0.01247768707 0)
(-0.0220530466 0.01541657495 3.593098041e-13)
(-0.01280168017 0.01513847884 0)
(-0.01286073843 0.01364874272 0)
(-0.01131968663 0.01360555358 0)
(-0.01126084293 0.01509294713 0)
(0.01297422461 0.01431084045 0)
(0.01293309163 0.01283496769 0)
(0.0144732297 0.01277676865 0)
(0.01451591077 0.01425040226 0)
(0.02518672481 0.013761024 3.575612029e-13)
(0.02515210033 0.01087685348 3.584216257e-13)
(0.02764663185 0.01056473088 3.511357871e-13)
(0.02757938105 0.01335039173 3.491373857e-13)
(0.02984948429 0.01085007104 2.856187509e-13)
(0.03017881328 0.008627939451 2.893518758e-13)
(0.02912426498 0.007723055392 2.5821012e-13)
(0.02873440485 0.009686142985 2.543243394e-13)
(0.02039783711 0.005727380625 1.474376177e-13)
(0.02085101085 0.004625409294 1.508237979e-13)
(0.01692656089 0.003577816526 1.153521723e-13)
(0.01649524684 0.004404667977 1.123545701e-13)
(0.004974634772 0.001162221275 2.887967643e-14)
(0.005617413356 0.001043822711 3.261280135e-14)
(0.002678775404 0.0004783076493 1.482147738e-14)
(0.002205213998 0.0004939933729 1.219857548e-14)
(0 0 0)
(0 0 0)
(0 0 0)
(0 0 0)
(0 0 0)
(0 0 0)
(0 0 0)
(0 0 0)
(0 0 0)
(0 0 0)
(0 0 0)
(0 0 0)
(0 0 0)
(0 0 0)
(0 0 0)
(0 0 0)
(0 0 0)
(0 0 0)
(0 0 0)
(0 0 0)
(0 0 0)
(0 0 0)
(0 0 0)
(0 0 0)
(0 0 0)
(0 0 0)
(0 0 0)
(0 0 0)
(-0.0004030430055 -1.684604294e-05 2.095545959e-15)
(-0.0003640272741 1.48942652e-07 1.90125693e-15)
(-0.000319354541 1.361995413e-05 1.665334537e-15)
(-0.004567048269 0.0002245098597 2.613187444e-14)
(-0.004722716335 1.32552693e-05 2.700617507e-14)
(-0.00823552327 4.072715985e-05 4.955758026e-14)
(-0.008040329098 0.0004316664252 4.839184609e-14)
(-0.02010449717 0.001442655061 1.434130592e-13)
(-0.02035332485 0.0002850091155 1.450922715e-13)
(-0.02392767359 0.0004183452834 1.817573869e-13)
(-0.02368010349 0.001872058535 1.800365412e-13)
(-0.0299453983 0.003119063994 2.837174939e-13)
(-0.03015058153 0.0008243987555 2.851191505e-13)
(-0.03035502544 0.0009100984655 3.125277814e-13)
(-0.03017213785 0.00343027416 3.113620473e-13)
(-0.02542015704 0.003783529029 3.577277363e-13)
(-0.02552960009 0.0008815628896 3.579497809e-13)
(-0.02254437799 0.0007846344051 0)
(-0.02244951698 0.003700684028 0)
(-0.01321386052 0.003390609823 0)
(-0.0132622039 0.001931600993 0)
(-0.01172528598 0.001880215992 0)
(-0.01167673985 0.003339217962 0)
(0.01261090898 0.002537391059 0)
(0.01256159942 0.001069822095 0)
(0.01409819671 0.00101695942 0)
(0.01414775146 0.00248377583 0)
(0.02491527092 0.002110542236 3.592681708e-13)
(0.02481567032 -0.0008171957247 3.593098041e-13)
(0.02757583644 -0.0009009189093 3.551881012e-13)
(0.02763403884 0.001990330683 3.546329896e-13)
(0.03099818666 0.00158085599 2.991357162e-13)
(0.03111564665 -0.000865324292 3.009675842e-13)
(0.03039525629 -0.0007623741871 2.714495295e-13)
(0.03021509533 0.001442337753 2.693123502e-13)
(0.02247628598 0.0009904340675 1.630084956e-13)
(0.02279289694 -0.000346935808 1.65464864e-13)
(0.01891875062 -0.0002240805972 1.292715934e-13)
(0.01858546843 0.0008172832179 1.268984917e-13)
(0.006440368197 0.0002834512731 3.740063814e-14)
(0.006701730826 -2.283737336e-05 3.894107259e-14)
(0.003456005581 -5.390123443e-06 1.91235916e-14)
(0.003258203239 0.000141955086 1.802724636e-14)
(0 0 0)
(0 0 0)
(0 0 0)
(0 0 0)
(0 0 0)
(0 0 0)
(0 0 0)
(0 0 0)
(0 0 0)
(0 0 0)
(0 0 0)
(0 0 0)
(0 0 0)
(0 0 0)
(0 0 0)
(0 0 0)
(0 0 0)
(0 0 0)
(0 0 0)
(0 0 0)
(0 0 0)
(0 0 0)
(0 0 0)
(0 0 0)
(0 0 0)
(0 0 0)
(0 0 0)
(0 0 0)
(-0.0005945568592 -0.0001251287491 3.094746681e-15)
(-0.0005360287005 -9.021038344e-05 2.789435349e-15)
(-0.0004839188831 -6.104249736e-05 2.525757381e-15)
(-0.005110531989 -0.0006952308901 2.922662112e-14)
(-0.005267633713 -0.0009600945306 3.011479954e-14)
(-0.008912667521 -0.001689671733 5.359601651e-14)
(-0.008718761832 -0.001229464355 5.243028234e-14)
(-0.02097102376 -0.003325553467 1.491584634e-13)
(-0.02121409359 -0.004579561531 1.507682867e-13)
(-0.02478808298 -0.005633344508 1.875444244e-13)
(-0.02454654843 -0.004082213344 1.859068455e-13)
(-0.03068354164 -0.006167695512 2.884636974e-13)
(-0.03088330411 -0.008538114522 2.897682094e-13)
(-0.03101686523 -0.009318253176 3.163858064e-13)
(-0.03083911289 -0.006736877927 3.15303339e-13)
(-0.02584208302 -0.007825609833 3.584077479e-13)
(-0.02594616781 -0.01073119465 3.585742814e-13)
(-0.02291853165 -0.01085518248 0)
(-0.02282548568 -0.007946784692 0)
(-0.01359583494 -0.008256385085 0)
(-0.01364310769 -0.009709746692 0)
(-0.0121082734 -0.009760722904 0)
(-0.01208449957 -0.00903397909 0)
(-0.01206074632 -0.00830784352 0)
(0.01219997119 -0.009189748369 0)
(0.01214638865 -0.01065162466 0)
(0.0136813111 -0.01070199491 0)
(0.01373508039 -0.00924059856 0)
(0.02449491502 -0.009594200745 3.592820486e-13)
(0.02438196343 -0.0125084454 3.592126596e-13)
(0.02709428933 -0.01242757481 3.543554339e-13)
(0.02723586461 -0.009565287665 3.548272787e-13)
(0.03076333219 -0.008176999455 2.997324611e-13)
(0.03057637794 -0.01056830005 2.986499936e-13)
(0.02986189427 -0.009495386837 2.68868261e-13)
(0.03005103125 -0.007347437997 2.700201174e-13)
(0.02249359262 -0.004339328914 1.637995295e-13)
(0.02232830833 -0.005630088166 1.62786451e-13)
(0.01849069316 -0.004338077634 1.267597138e-13)
(0.01864032914 -0.003335658766 1.276756478e-13)
(0.006518974836 -0.0009468152537 3.79002385e-14)
(0.00643328139 -0.00123784018 3.741451593e-14)
(0.003259518409 -0.0005916739859 1.804112415e-14)
(0.003319827443 -0.0004535354563 1.837419106e-14)
(0 0 0)
(0 0 0)
(0 0 0)
(0 0 0)
(0 0 0)
(0 0 0)
(0 0 0)
(0 0 0)
(0 0 0)
(0 0 0)
(0 0 0)
(0 0 0)
(0 0 0)
(0 0 0)
(0 0 0)
(0 0 0)
(0 0 0)
(0 0 0)
(0 0 0)
(0 0 0)
(0 0 0)
(0 0 0)
(0 0 0)
(0 0 0)
(0 0 0)
(0 0 0)
(0 0 0)
(0 0 0)
(-0.0008514902789 -0.0003228233063 4.440892099e-15)
(-0.0007818862194 -0.0002634719627 4.066191828e-15)
(-0.0007145673847 -0.000210656734 3.719247132e-15)
(-0.005759092727 -0.001848153214 3.291811268e-14)
(-0.005932327191 -0.00217770949 3.390343561e-14)
(-0.009724700031 -0.003730986712 5.841160888e-14)
(-0.009514366681 -0.003189090125 5.716260798e-14)
(-0.02195980423 -0.008504025852 1.557087792e-13)
(-0.02221746216 -0.009868432016 1.574018693e-13)
(-0.02578198339 -0.01211327075 1.942335182e-13)
(-0.02552732813 -0.01045096653 1.925126725e-13)
(-0.03148990457 -0.01577963213 2.936956234e-13)
(-0.03169648982 -0.01823693885 2.95027891e-13)
(-0.031735976 -0.01982163016 3.206740429e-13)
(-0.03155413787 -0.01716944535 3.195915754e-13)
(-0.02625184881 -0.01946351981 3.589628594e-13)
(-0.02635136935 -0.02237682159 3.59060004e-13)
(-0.02328783537 -0.02249563705 0)
(-0.02319601631 -0.01958550626 0)
(-0.01397202879 -0.01989450911 0)
(-0.0140184687 -0.02134925209 0)
(-0.01248627242 -0.02140020672 0)
(-0.01246288351 -0.02067284094 0)
(-0.01243943159 -0.01994561262 0)
(0.01176045639 -0.02086761179 0)
(0.01170275231 -0.02232731885 0)
(0.01323624053 -0.0223760844 0)
(0.0132942688 -0.02091679427 0)
(0.02399097731 -0.02120403636 3.583799923e-13)
(0.02383046396 -0.0240616267 3.576583474e-13)
(0.02626864261 -0.02355916313 3.490541189e-13)
(0.02652662851 -0.0208520821 3.51080276e-13)
(0.02941849405 -0.01726260723 2.894212647e-13)
(0.02878003826 -0.01921399315 2.837868829e-13)
(0.02799720777 -0.01718214908 2.540745392e-13)
(0.0285228384 -0.01538587072 2.583488978e-13)
(0.02066638412 -0.008883623537 1.511013537e-13)
(0.02013906352 -0.009852950672 1.473821065e-13)
(0.01634387043 -0.007470932005 1.123684479e-13)
(0.01683369139 -0.006756969596 1.156574836e-13)
(0.00525756723 -0.001754275508 3.06143999e-14)
(0.0049751373 -0.001894375305 2.896294315e-14)
(0.002212514044 -0.000798580479 1.225408663e-14)
(0.002401892794 -0.0007592000129 1.330879851e-14)
(0 0 0)
(0 0 0)
(0 0 0)
(0 0 0)
(0 0 0)
(0 0 0)
(0 0 0)
(0 0 0)
(0 0 0)
(0 0 0)
(0 0 0)
(0 0 0)
(0 0 0)
(0 0 0)
(0 0 0)
(0 0 0)
(0 0 0)
(0 0 0)
(0 0 0)
(0 0 0)
(0 0 0)
(0 0 0)
(0 0 0)
(0 0 0)
(0 0 0)
(0 0 0)
(0 0 0)
(0 0 0)
(-0.001076244897 -0.0005894989183 5.606626274e-15)
(-0.001113006438 -0.0005626657318 5.800915304e-15)
(-0.001015992497 -0.0004708170421 5.287437155e-15)
(-0.006498893903 -0.003284895574 3.712308239e-14)
(-0.00672050526 -0.003706456339 3.838596108e-14)
(-0.0106708314 -0.006158074474 6.403211295e-14)
(-0.01040654579 -0.005503062375 6.245004514e-14)
(-0.02304034275 -0.01415115823 1.62786451e-13)
(-0.02335319012 -0.01566065212 1.648403636e-13)
(-0.02689780571 -0.01909518552 2.01699768e-13)
(-0.02659194068 -0.01728878776 1.996458554e-13)
(-0.03234208704 -0.02574874184 2.991773496e-13)
(-0.03257824025 -0.02831238038 3.00717784e-13)
(-0.03250141529 -0.03062500488 3.252537129e-13)
(-0.03229892554 -0.02788884127 3.240185897e-13)
(-0.02664244547 -0.03111583847 3.592681708e-13)
(-0.02673710417 -0.03402831604 3.592959263e-13)
(-0.02365276477 -0.03413278895 0)
(-0.02356157682 -0.03122331341 0)
(-0.01433910713 -0.03153118235 0)
(-0.01438425839 -0.0329858336 0)
(-0.01285495673 -0.03303635201 0)
(-0.01283223679 -0.03230876062 0)
(-0.01280946756 -0.03158171218 0)
(0.01128856301 -0.03251657158 0)
(0.01122676355 -0.03397133623 0)
(0.01275975226 -0.034018867 0)
(0.0128220248 -0.03256411836 0)
(0.02324901151 -0.03240593732 3.539668558e-13)
(0.02300172033 -0.03505984321 3.518990654e-13)
(0.02504470933 -0.03374317224 3.38062911e-13)
(0.02540808683 -0.03134368765 3.416433803e-13)
(0.02698526581 -0.02459711786 2.677857935e-13)
(0.02650800675 -0.0263398184 2.636224572e-13)
(0.02517803389 -0.02295034189 2.300104551e-13)
(0.02599024189 -0.02175086497 2.370603713e-13)
(0.01778240467 -0.01186412262 1.304373276e-13)
(0.01666565272 -0.01210358897 1.223188217e-13)
(0.01293375356 -0.008785525113 8.909539773e-14)
(0.01405364813 -0.008768414349 9.678369217e-14)
(0.003529705709 -0.001842254105 2.055300374e-14)
(0.003082665432 -0.001754021238 1.795785742e-14)
(0.001001461105 -0.0005411508717 5.551115123e-15)
(0.00126048893 -0.0006245555883 6.994405055e-15)
(0 0 0)
(0 0 0)
(0 0 0)
(0 0 0)
(0 0 0)
(0 0 0)
(0 0 0)
(0 0 0)
(0 0 0)
(0 0 0)
(0 0 0)
(0 0 0)
(0 0 0)
(0 0 0)
(0 0 0)
(0 0 0)
(0 0 0)
(0 0 0)
(0 0 0)
(0 0 0)
(0 0 0)
(0 0 0)
(0 0 0)
(0 0 0)
(0 0 0)
(0 0 0)
(0 0 0)
(0 0 0)
(-0.001913755964 -0.001370285299 9.964251646e-15)
(-0.001744680212 -0.001175556122 9.076073226e-15)
(-0.001493084854 -0.0009433439818 7.771561172e-15)
(-0.007433140888 -0.00512482762 4.242439733e-14)
(-0.007987516654 -0.005871755981 4.557465516e-14)
(-0.01212324473 -0.009327430916 7.260858581e-14)
(-0.01144347704 -0.008258338977 6.858402735e-14)
(-0.02441020586 -0.0204772587 1.717792575e-13)
(-0.0248742234 -0.02225154109 1.748323708e-13)
(-0.02831316516 -0.02681106978 2.111921749e-13)
(-0.027923865 -0.02479669435 2.085831508e-13)
(-0.03334693156 -0.03620168408 3.057831766e-13)
(-0.03349185199 -0.03875974556 3.064493104e-13)
(-0.03337763199 -0.04182381568 3.306382945e-13)
(-0.03315007111 -0.03898534328 3.29236638e-13)
(-0.02701720344 -0.04275610999 0)
(-0.02711236962 -0.0456651803 0)
(-0.02402338612 -0.04576819211 0)
(-0.02397609051 -0.04431415468 0)
(-0.02392919581 -0.04285996836 0)
(-0.01469705037 -0.04316782633 0)
(-0.01471939124 -0.04389421266 0)
(-0.01395452852 -0.04391920839 0)
(-0.01393226209 -0.04319302252 0)
(-0.001433397457 -0.04378920412 0)
(-0.001454081052 -0.04415116204 0)
(-0.001472331254 -0.04451326995 0)
(-0.0007232103725 -0.04453008755 0)
(-0.0006831392026 -0.04380660148 0)
(0.01076083072 -0.04413610471 0)
(0.01068801831 -0.04558440739 0)
(0.01061461137 -0.047032284 0)
(0.01368961058 -0.04712866566 0)
(0.01383256639 -0.0442309551 0)
(0.01229726843 -0.04418368451 0)
(0.02211697669 -0.04250403237 3.432393259e-13)
(0.02170462675 -0.04462474638 3.383682223e-13)
(0.02322319746 -0.0419962742 3.181066521e-13)
(0.02386085993 -0.04038838884 3.257394354e-13)
(0.02421647328 -0.03001875274 2.420980083e-13)
(0.02333630997 -0.03084158212 2.336464355e-13)
(0.02168760651 -0.02625505335 1.99146255e-13)
(0.02260733121 -0.02567756142 2.073619054e-13)
(0.01380948061 -0.01248214727 1.014882622e-13)
(0.01297783646 -0.01250020314 9.542366897e-14)
(0.009502940138 -0.008565242428 6.554479182e-14)
(0.01023569391 -0.008656469469 7.058242879e-14)
(0.001457879131 -0.001035071729 8.507083926e-15)
(0.001185151847 -0.0008973437943 6.911138328e-15)
(9.398103572e-05 -6.767153021e-05 5.273559367e-16)
(0.0001795546024 -0.0001212068033 9.992007222e-16)
(0 0 0)
(0 0 0)
(0 0 0)
(0 0 0)
(0 0 0)
(0 0 0)
(0 0 0)
(0 0 0)
(0 0 0)
(0 0 0)
(0 0 0)
(0 0 0)
(0 0 0)
(0 0 0)
(0 0 0)
(0 0 0)
(0 0 0)
(0 0 0)
(0 0 0)
(0 0 0)
(0 0 0)
(0 0 0)
(0 0 0)
(0 0 0)
(0 0 0)
(0 0 0)
(0 0 0)
(0 0 0)
(-0.001814970191 -0.001613365101 9.492406861e-15)
(-0.002051123046 -0.001736027972 1.072752998e-14)
(-0.002191760754 -0.001762036102 1.146305273e-14)
(-0.008850013779 -0.00776409407 5.069555886e-14)
(-0.008565889429 -0.007913096074 4.907185769e-14)
(-0.01278951726 -0.01236824032 7.688294446e-14)
(-0.01312952276 -0.01205718312 7.893685705e-14)
(-0.02603201404 -0.02780341907 1.834643548e-13)
(-0.02562007054 -0.02881412394 1.804389971e-13)
(-0.02903143069 -0.03455804402 2.168404345e-13)
(-0.02943016071 -0.03327339226 2.200184479e-13)
(-0.03424737315 -0.0473081853 3.137212712e-13)
(-0.03399896983 -0.04940670841 3.108763247e-13)
(-0.03363999588 -0.05291646833 3.328726184e-13)
(-0.03380684547 -0.05057302044 3.352595979e-13)
(-0.02705706747 -0.05443247307 0)
(-0.02715549363 -0.05734190672 0)
(-0.02405790984 -0.057446698 0)
(-0.0240087082 -0.05599231909 0)
(-0.02395948369 -0.05453726435 0)
(-0.01466686749 -0.0548516336 0)
(-0.014716092 -0.05630668834 0)
(-0.01316736769 -0.05635908169 0)
(-0.013142744 -0.05563121641 0)
(-0.01311814318 -0.05490402695 0)
(-0.01389250533 -0.05487783028 0)
(-0.002276737308 -0.05527079177 0)
(-0.002301336836 -0.05599798127 0)
(-0.002325959875 -0.05672584658 0)
(-0.0007771879766 -0.05677824154 0)
(-0.0007279634672 -0.0553231868 0)
(0.01011339732 -0.05568995009 0)
(0.01001497116 -0.05859938374 0)
(0.01306973777 -0.05847807169 3.579359031e-13)
(0.01320197638 -0.05575028355 3.590322484e-13)
(0.02050398248 -0.05055954343 3.240879787e-13)
(0.01997707504 -0.05201779545 3.171629626e-13)
(0.02106350585 -0.04802430823 2.926409115e-13)
(0.02169215255 -0.04689121532 3.003708393e-13)
(0.02030556182 -0.0318220637 2.040312364e-13)
(0.01948189727 -0.03213854624 1.959959972e-13)
(0.01740696996 -0.02625349451 1.60302327e-13)
(0.01859686082 -0.02667347335 1.711963904e-13)
(0.009797185419 -0.01116974875 7.208122987e-14)
(0.008539815222 -0.01023577628 6.282474541e-14)
(0.005807772916 -0.006519749205 4.007905119e-14)
(0.006617301789 -0.007062144945 4.565792189e-14)
(0.0002440336534 -0.0002193036582 1.415534356e-15)
(0.0001102302381 -0.0001042805555 6.383782392e-16)
(0 0 0)
(0 0 0)
(0 0 0)
(0 0 0)
(0 0 0)
(0 0 0)
(0 0 0)
(0 0 0)
(0 0 0)
(0 0 0)
(0 0 0)
(0 0 0)
(0 0 0)
(0 0 0)
(0 0 0)
(0 0 0)
(0 0 0)
(0 0 0)
(0 0 0)
(0 0 0)
(0 0 0)
(0 0 0)
(0 0 0)
(0 0 0)
(0 0 0)
(0 0 0)
(0 0 0)
(0 0 0)
(0 0 0)
(0 0 0)
(-0.0004238427688 -0.0004491382212 2.206568261e-15)
(-0.000769107148 -0.0007821501012 4.024558464e-15)
(-0.001142709648 -0.001113258603 5.981326545e-15)
(-0.006562793171 -0.006986982112 3.760880496e-14)
(-0.00560641069 -0.006234511652 3.214095656e-14)
(-0.009139994101 -0.0106485779 5.498379529e-14)
(-0.01034077882 -0.01153075131 6.218636717e-14)
(-0.02245425178 -0.02913760558 1.581096365e-13)
(-0.02081358827 -0.02823486378 1.46632706e-13)
(-0.02420152061 -0.03474252548 1.807165528e-13)
(-0.02587162465 -0.03552577345 1.930955396e-13)
(-0.03162041581 -0.05288291801 2.882416528e-13)
(-0.03023074495 -0.05282835937 2.755712325e-13)
(-0.03056125065 -0.05770172038 3.010369731e-13)
(-0.03174825441 -0.05739236644 3.128330928e-13)
(-0.02713124145 -0.06536802999 3.554379013e-13)
(-0.02674219793 -0.0671351765 3.495675971e-13)
(-0.02422556877 -0.06850839091 3.562705686e-13)
(-0.02433746056 -0.06613748564 3.591016373e-13)
(-0.01506061784 -0.06649071987 0)
(-0.01515906686 -0.06940082935 0)
(-0.01206155065 -0.06950561834 0)
(-0.01196310163 -0.06659550886 0)
(-0.01351189353 -0.06654311322 0)
(-0.002670485435 -0.06690987811 0)
(-0.002768934454 -0.06981998759 0)
(0.000328602026 -0.06992477727 0)
(0.0004270510448 -0.06701466779 0)
(0.009652550574 -0.06672605385 3.561179129e-13)
(0.009441982285 -0.06852292764 3.505806756e-13)
(0.01214780905 -0.06650801341 3.398392678e-13)
(0.01248010766 -0.06529047538 3.479716515e-13)
(0.01826908256 -0.05481913515 2.913363994e-13)
(0.01748076692 -0.05468796401 2.787492459e-13)
(0.0179594671 -0.04904604123 2.499528362e-13)
(0.01888519064 -0.0494905254 2.629424456e-13)
(0.01612465662 -0.03047586004 1.621758283e-13)
(0.0149849099 -0.0295017202 1.505739977e-13)
(0.01274595385 -0.02293960154 1.172117958e-13)
(0.01386714131 -0.02395718998 1.276340145e-13)
(0.005468426598 -0.007513788806 4.020395128e-14)
(0.004699250886 -0.006730912636 3.452793607e-14)