/*--------------------------------*- C++ -*----------------------------------*\
| =========                 |                                                 |
| \\      /  F ield         | OpenFOAM: The Open Source CFD Toolbox           |
|  \\    /   O peration     | Version:  v1912                                 |
|   \\  /    A nd           | Website:  www.openfoam.com                      |
|    \\/     M anipulation  |                                                 |
\*---------------------------------------------------------------------------*/
FoamFile
{
    version     2.0;
    format      ascii;
    class       volVectorField;
    location    "2";
    object      U;
}
// * * * * * * * * * * * * * * * * * * * * * * * * * * * * * * * * * * * * * //

dimensions      [0 1 -1 0 0 0 0];


internalField   nonuniform List<vector> 
12556
(
(99.99888387 0.002743144003 -4.341178943e-21)
(99.99842108 0.009442202712 2.470839283e-28)
(99.99722937 0.02054496599 -4.336089678e-21)
(99.99516959 0.03911202977 -4.313129476e-21)
(99.99969079 0.03127759822 4.170322393e-21)
(99.99752756 0.05232102198 0)
(99.99618984 0.08531310141 0)
(99.99575855 0.1309400948 -7.391274417e-21)
(99.99453469 0.1914956758 8.6574048e-22)
(99.99367401 0.2654923317 -5.72438229e-21)
(99.99380223 0.3445807963 6.856278676e-22)
(99.99512103 0.4132104397 0)
(99.99824044 0.4517970912 0)
(100.0030299 0.4480149285 7.350947505e-22)
(100.0051308 0.4052259582 -1.341023245e-21)
(100.0060292 0.3383853215 8.801240481e-22)
(100.0058801 0.2653338135 0)
(100.0053123 0.1981170507 1.48909603e-21)
(100.0049356 0.1406650643 6.123690232e-21)
(100.0026374 0.09894031595 -1.7264734e-21)
(100.0105982 0.1129259916 -1.500609549e-20)
(100.0072754 0.06966717184 0)
(100.00538 0.03719140028 -1.88654953e-21)
(100.0051892 0.01171878371 -1.328718073e-20)
(99.9898693 0.007160287485 1.738034457e-20)
(99.98477812 0.02514491474 4.343726489e-21)
(99.9735537 0.05555255892 3.036091302e-20)
(99.9544438 0.1072897711 -1.30042942e-20)
(99.95653979 0.1482246526 4.200070725e-21)
(99.92681813 0.2509433924 -4.509210768e-23)
(99.88797286 0.4094869894 0)
(99.86719758 0.5540527355 -7.425362978e-21)
(99.82367115 0.8196702237 -6.911571565e-21)
(99.78900295 1.153085689 -1.213260802e-20)
(99.78182464 1.521373849 -5.069167139e-21)
(99.82137609 1.849300375 -1.021855279e-20)
(99.90874956 2.04727225 -2.320025514e-21)
(100.0118131 2.048979381 -1.2898161e-22)
(100.1007794 1.864899494 -4.654537569e-22)
(100.1494631 1.564488478 4.541001274e-21)
(100.1565977 1.224978832 -9.02111354e-21)
(100.1359871 0.9162094586 0)
(100.1426513 0.687253416 -2.604336218e-20)
(100.101408 0.4684698168 5.024125951e-20)
(100.0994849 0.3214887333 1.452981017e-20)
(100.0694087 0.1975878184 2.997516674e-20)
(100.052206 0.1058769688 -3.006392255e-20)
(100.0456849 0.0334175745 1.517409315e-20)
(99.97327108 0.008455658015 -1.734161541e-20)
(99.95891675 0.03112287735 -3.480875993e-20)
(99.92797911 0.07263572655 -7.814719672e-20)
(99.87674868 0.14462187 1.040095374e-19)
(99.8482828 0.2310666133 -8.601501819e-21)
(99.76014548 0.4057399826 -8.391673802e-21)
(99.64011445 0.6771250723 -1.45748569e-20)
(99.57161115 0.9758341809 0)
(99.43134695 1.481148089 2.860113394e-20)
(99.31775641 2.134642944 -6.457573584e-20)
(99.309368 2.876711233 0)
(99.46043653 3.590937439 1.473756838e-20)
(99.79091937 4.032133979 2.603637176e-19)
(100.1969114 4.042087052 5.102289836e-22)
(100.4997384 3.627907259 -1.539577005e-19)
(100.6346939 2.982255231 3.663174196e-21)
(100.6348244 2.298351187 -9.751272713e-21)
(100.5447507 1.675836502 -2.314086844e-20)
(100.4718343 1.170322841 -1.564005545e-19)
(100.3442479 0.7861680061 -3.479699623e-20)
(100.2741893 0.4854807353 -1.491782638e-20)
(100.1947242 0.2959936473 3.391322417e-20)
(100.1470064 0.1587983728 -3.812554154e-21)
(100.1261365 0.04983691469 0)
(99.95600609 0.004604657785 -8.733439021e-21)
(99.92846555 0.02092691391 6.116127126e-20)
(99.8698043 0.061166049 -1.749761757e-20)
(99.77367951 0.1364913725 0)
(99.69684117 0.2568949532 0)
(99.52133722 0.4802734015 -6.774936057e-20)
(99.27776289 0.8399520015 -1.356603244e-19)
(99.08107561 1.281466715 3.206016356e-20)
(98.7568464 2.016562848 0)
(98.49203272 3.018192144 -4.586661164e-19)
(98.41378052 4.297799894 4.701005577e-20)
(98.74899893 5.617956606 6.364510203e-19)
(99.59800563 6.476141403 -2.994205183e-19)
(100.6264651 6.414939714 1.805721037e-19)
(101.3111817 5.570034816 -4.291642761e-19)
(101.5211353 4.403791287 -1.444432704e-19)
(101.4301446 3.263538301 0)
(101.211849 2.319719245 0)
(100.9779856 1.539343916 5.708045209e-20)
(100.7096972 1.009566501 -4.416471089e-20)
(100.5176279 0.5787618087 -3.822928245e-20)
(100.3698165 0.348865909 1.936450287e-20)
(100.2779189 0.1849150724 -3.887263594e-21)
(100.2359524 0.0575165976 0)
(99.95034737 -0.005697014056 0)
(99.90739076 -0.009662926874 0)
(99.81686121 0.01294865134 8.809961282e-21)
(99.66715074 0.073390916 1.33341891e-20)
(99.52832266 0.2090459718 2.209195695e-20)
(99.23974603 0.4454586602 0)
(98.83581675 0.8332399745 0)
(98.44375276 1.383082573 0)
(97.86295215 2.301946696 -5.247552557e-19)
(97.26268195 3.721338044 -1.353887993e-20)
(96.91107146 5.745621963 -2.346759727e-19)
(97.42429024 8.133210674 3.585066047e-19)
(99.30708837 9.80561765 0)
(101.6350442 9.497328499 0)
(102.9041252 7.729166662 0)
(103.0565657 5.701396115 3.326210327e-20)
(102.6525234 4.019353916 -2.223118532e-19)
(102.1193489 2.73177203 -5.148445563e-22)
(101.6305785 1.725525875 -9.479426637e-20)
(101.1668058 1.100324255 7.888033945e-21)
(100.7991836 0.5765260166 0)
(100.5661538 0.3420706657 3.968477339e-21)
(100.4206166 0.1766490812 -2.98020944e-21)
(100.3530478 0.05414492652 -9.88509321e-22)
(99.97026703 -0.02291847875 0)
(99.91149398 -0.06201775094 0)
(99.789192 -0.07535011645 -1.766469795e-20)
(99.58390563 -0.05153844252 3.594157336e-20)
(99.36984249 0.07485052201 0)
(98.96036972 0.2789864158 0)
(98.36992096 0.6370946336 2.820985538e-20)
(97.75508768 1.209823243 -3.069957828e-19)
(96.79915421 2.206220186 1.331509485e-18)
(95.5900326 3.92266072 0)
(94.42240111 6.799165783 -5.934442881e-19)
(94.51588934 11.19315914 -1.051457814e-18)
(98.50448973 15.14664399 3.001123193e-19)
(103.971161 13.85998085 0)
(105.8914065 9.876782986 0)
(105.4556891 6.590927882 0)
(104.3293062 4.339595403 1.129660783e-18)
(103.2436206 2.813342446 -1.998502665e-19)
(102.3629852 1.656030547 2.441584436e-20)
(101.6615255 1.017282599 -1.635043177e-20)
(101.0820971 0.4648274486 0)
(100.7516937 0.2659825904 0)
(100.5481896 0.129178202 -1.0036729e-21)
(100.4531193 0.03842289321 -3.013637711e-21)
(100.0293388 -0.04666376808 4.308340685e-21)
(99.95622427 -0.1346211276 -4.340303373e-21)
(99.80602787 -0.2014940267 8.85835821e-21)
(99.55110062 -0.2365792705 -3.244259318e-20)
(99.25901792 -0.1475188586 8.426170105e-23)
(98.73703569 -0.02210550432 2.775806956e-20)
(97.97569609 0.2375454592 -5.759426794e-20)
(97.14153319 0.7208726322 -1.243876283e-18)
(95.74068174 1.611444729 2.622835016e-18)
(93.70046353 3.234233466 -3.537353822e-19)
(90.80245502 6.235668214 1.573932265e-18)
(87.36611192 13.14892816 1.131501474e-19)
(94.77685209 25.46887873 6.408166253e-19)
(110.4844648 19.91259221 -6.955793604e-19)
(111.0119548 11.14039497 -7.543776544e-19)
(108.6905863 6.457615842 0)
(106.3242737 3.913142227 0)
(104.4612246 2.403781766 7.656708163e-20)
(103.0679756 1.27272973 0)
(102.1244252 0.7248244038 8.958830664e-21)
(101.3171211 0.2435501523 2.642179087e-21)
(100.8906431 0.1156362482 -3.124300268e-21)
(100.6332196 0.04222730219 -3.555770386e-21)
(100.5117056 0.01044905473 8.556676012e-21)
(100.1393133 -0.07568092229 -4.30879094e-21)
(100.0550795 -0.2234859546 4.341858111e-21)
(99.88410944 -0.3575806871 -5.50957539e-21)
(99.59250449 -0.4692576886 -3.705208513e-21)
(99.23213661 -0.4436542593 1.580169344e-20)
(98.62376147 -0.4357301937 9.410918094e-21)
(97.74824277 -0.3479751202 7.713780056e-20)
(96.72775305 -0.04822224759 -7.48724202e-21)
(94.98032945 0.4970208485 1.053890761e-18)
(92.28775477 1.445194134 5.876545757e-19)
(87.86058981 2.85573726 -1.946008694e-18)
(79.40824486 5.358008507 0)
(126.1979673 22.10989349 3.037395665e-18)
(117.874244 8.872607984 1.388065747e-18)
(112.1304573 4.507423857 -9.883121537e-19)
(108.2054492 2.51184534 1.662127644e-20)
(105.5409077 1.42083135 -1.363725747e-18)
(103.6153753 0.5698070328 -4.77472001e-21)
(102.461584 0.2376044055 2.024743043e-20)
(101.4504132 -0.08012361413 -3.226074273e-21)
(100.9477738 -0.09814021908 2.63861649e-21)
(100.6488148 -0.07845206197 -5.051030615e-22)
(100.5054251 -0.02839644186 -8.048207903e-21)
(100.308858 -0.1079987668 -2.073683971e-21)
(100.2180428 -0.3224738651 -1.55789732e-21)
(100.0358418 -0.5319484696 -5.342486676e-22)
(99.72460144 -0.7305960182 1.616217561e-21)
(99.31397813 -0.7872668503 -3.124217573e-23)
(98.65953931 -0.9197126095 0)
(97.74361028 -1.038292202 4.977054841e-21)
(96.61649106 -0.9860720119 1.272699823e-18)
(94.73820101 -0.8924127941 -7.331199515e-19)
(91.96877266 -0.7953414762 -4.261044916e-22)
(87.90017831 -1.198613387 2.0026153e-18)
(82.65888238 -3.242137089 0)
(138.4498908 5.324257872 4.786786618e-18)
(122.3542115 1.886493846 2.892605492e-18)
(114.3247554 0.6885109539 8.580502899e-20)
(109.3731801 0.2123490404 2.112006334e-18)
(106.1785768 -0.02960933597 8.68804038e-20)
(103.8738975 -0.3675826341 -4.886414093e-21)
(102.5874257 -0.3976624053 1.140314102e-20)
(101.4421126 -0.4729562652 1.110255061e-21)
(100.8953861 -0.3553916667 0)
(100.5726674 -0.2221858556 4.062848979e-21)
(100.4155337 -0.07485295778 4.014354613e-21)
(100.5423515 -0.1412126019 4.084444349e-21)
(100.450066 -0.4241597663 6.393949299e-23)
(100.2671569 -0.7107483013 0)
(99.95504773 -0.999143714 2.085469874e-22)
(99.51605834 -1.147490229 -2.164068245e-21)
(98.86028651 -1.424379019 2.304806566e-21)
(97.97242662 -1.747795339 7.596444916e-20)
(96.83534517 -1.939611794 1.313929481e-18)
(95.03424242 -2.246529617 -7.436482529e-19)
(92.54047113 -2.743567708 -7.54381996e-20)
(89.32799145 -3.845380945 -1.82979037e-18)
(86.08527936 -5.754671526 -2.349115976e-18)
(134.8238727 -10.99496039 4.698607977e-18)
(121.7373983 -6.03006239 -1.924930545e-19)
(114.2382116 -3.749109722 -5.383078464e-19)
(109.348799 -2.421286694 -8.404349584e-19)
(106.1624221 -1.676247656 -1.419744643e-18)
(103.7582918 -1.404355932 4.139317988e-20)
(102.4574444 -1.098581443 0)
(101.2690932 -0.8912679976 -1.087385012e-21)
(100.7177062 -0.6292330825 -4.500464019e-21)
(100.3919696 -0.3749703821 5.0221834e-22)
(100.2310895 -0.1243905574 0)
(100.8393981 -0.1729809729 -2.01058366e-21)
(100.7504696 -0.5211792167 2.02783556e-21)
(100.5764224 -0.8802536133 1.975774425e-21)
(100.2824269 -1.254434664 -1.849179003e-21)
(99.83480769 -1.493817678 -2.131368816e-21)
(99.21851195 -1.901907044 0)
(98.40947986 -2.403653727 1.446040881e-19)
(97.33307058 -2.804399893 0)
(95.70567593 -3.403161563 -1.055083678e-18)
(93.55533677 -4.238704223 -7.860430983e-19)
(90.92082692 -5.552629156 -8.287042635e-19)
(88.35089435 -7.14852511 8.110120133e-19)
(125.4737139 -19.60265448 -3.297102991e-18)
(117.6177331 -11.65737381 -3.742868396e-18)
(112.2093896 -7.334891327 4.810125376e-19)
(108.2771542 -4.740267727 3.771082751e-19)
(105.5031744 -3.217352894 -2.680981586e-18)
(103.2670656 -2.381274968 0)
(102.0735233 -1.771546593 -2.705777245e-20)
(100.930363 -1.289614746 -1.360756889e-20)
(100.4139037 -0.8908033786 1.025413871e-21)
(100.105292 -0.5218381831 -3.248285088e-21)
(99.95050839 -0.1722208161 4.75710149e-22)
(101.1950111 -0.2012330187 7.364821256e-21)
(101.1137291 -0.6069499432 0)
(100.9559367 -1.026939722 -1.971900635e-21)
(100.6931094 -1.483618005 0)
(100.251868 -1.800951609 0)
(99.71061788 -2.314017091 -6.324932977e-21)
(99.01381338 -2.95480466 1.40249189e-19)
(98.04335109 -3.516324785 2.476017336e-20)
(96.63004068 -4.311774278 -1.354584836e-18)
(94.79868082 -5.353165979 -7.098362169e-19)
(92.52583656 -6.814907164 1.424226397e-18)
(90.13608078 -8.397413784 0)
(115.8926736 -22.40377466 2.021447082e-18)
(112.2986052 -14.32248208 0)
(109.1630849 -9.461615744 0)
(106.4654251 -6.340593533 -1.306108857e-18)
(104.3488637 -4.40033995 0)
(102.4744245 -3.17170998 2.162472394e-21)
(101.4759755 -2.338473504 -3.293824634e-20)
(100.4496365 -1.634084973 8.053025135e-21)
(99.99806105 -1.114621085 0)
(99.72198505 -0.6498908998 3.741517082e-21)
(99.58136658 -0.214173348 0)
(101.6008079 -0.2252373704 7.355381025e-21)
(101.5297377 -0.6803449407 1.16007858e-19)
(101.3916844 -1.150680933 -2.336462219e-19)
(101.1636366 -1.670184871 -4.101621883e-22)
(100.7694521 -2.045936626 -1.848839189e-21)
(100.3076609 -2.635892844 0)
(99.7420303 -3.371776977 -2.507163924e-22)
(98.89766585 -4.040093977 2.561928434e-19)
(97.71954746 -4.954182279 -8.702191357e-21)
(96.20664528 -6.129623782 -5.434062854e-19)
(94.29451434 -7.795014366 -1.519299736e-18)
(92.15770979 -9.648940187 1.031286186e-18)
(103.0041527 -30.9183552 -3.899551748e-19)
(107.3758747 -20.46345539 1.954328497e-20)
(107.316865 -14.48466067 5.885427973e-19)
(105.9919566 -10.15375285 8.676236273e-19)
(104.4010517 -7.135178016 0)
(102.9452468 -5.128453004 -1.950987696e-19)
(101.5000313 -3.705289442 -6.583052341e-20)
(100.728847 -2.748794028 0)
(99.8691332 -1.896629495 0)
(99.49464411 -1.285405011 1.171481769e-20)
(99.25966399 -0.7506980047 2.159438191e-21)
(99.13856931 -0.2473595153 -7.000178692e-21)
(102.0455357 -0.2427221219 0)
(101.9863019 -0.7344562063 0)
(101.8717141 -1.240814274 0)
(101.6812859 -1.796976875 0)
(101.3330255 -2.230420041 0)
(100.9541186 -2.877094553 0)
(100.5113374 -3.670564404 2.338229004e-19)
(99.81524185 -4.387699375 0)
(98.87151289 -5.350556654 2.725803227e-19)
(97.69025894 -6.579608552 -5.341296213e-19)
(96.2513712 -8.353898831 -5.019563176e-19)
(94.80489583 -10.7931329 -1.446786694e-18)
(96.58943392 -20.16452382 -6.291094374e-19)
(102.3613063 -16.75558835 0)
(103.5667062 -13.07036671 -1.900367824e-19)
(103.2697969 -9.799387783 0)
(102.4402266 -7.262881271 -9.123270406e-19)
(101.4930265 -5.427539806 -5.711559198e-20)
(100.460965 -3.985839599 -9.14787818e-20)
(99.90561048 -2.996954027 -3.441132649e-20)
(99.22931638 -2.059691891 -1.906897608e-20)
(98.93137539 -1.400671427 1.878602882e-20)
(98.74064987 -0.8204998728 0)
(98.64140853 -0.2703053045 1.876309006e-20)
(102.5176414 -0.2536355163 0)
(102.4711522 -0.7684336703 0)
(102.3824649 -1.297027128 0)
(102.2318243 -1.867850286 0)
(101.9302074 -2.333963923 0)
(101.6435088 -3.003252405 0)
(101.3172046 -3.794053016 1.282989952e-20)
(100.7782545 -4.541841053 -8.850030312e-19)
(100.0567025 -5.488888348 2.2831452e-19)
(99.1871933 -6.645328469 2.657681988e-20)
(98.28008219 -8.206492051 -7.771155054e-19)
(97.73766223 -10.55453496 -3.535219927e-19)
(98.23639043 -13.30816786 0)
(100.4033863 -12.93592994 -9.258582129e-20)
(101.2271301 -11.08218846 1.267294609e-20)
(101.2052962 -8.890082488 2.850051293e-19)
(100.756038 -6.941553843 0)
(100.154236 -5.412224803 -2.447659273e-20)
(99.43859464 -4.05606106 0)
(99.0756972 -3.102810831 0)
(98.56298449 -2.132541824 -3.545636999e-20)
(98.335619 -1.461369243 1.749562881e-20)
(98.18820524 -0.8586522058 7.325167267e-22)
(98.11041007 -0.2828789338 -1.29210291e-20)
(103.0048783 -0.2582740819 0)
(102.9704198 -0.7826422189 0)
(102.9061693 -1.319911091 0)
(102.793121 -1.889516458 0)
(102.5357849 -2.370099751 0)
(102.329634 -3.033407457 0)
(102.0969526 -3.789694461 0)
(101.6949901 -4.536010927 1.801506408e-19)
(101.1437814 -5.428295388 7.599080986e-19)
(100.4980813 -6.435019727 1.80693376e-19)
(99.88364744 -7.622160399 6.104734382e-19)
(96.69349749 -8.574709444 1.227036435e-19)
(99.26093769 -10.2645086 0)
(99.78424367 -10.22532398 -3.341016517e-20)
(99.89189576 -9.235400915 5.932279158e-19)
(99.726902 -7.817507333 -4.532207327e-19)
(99.39803805 -6.392526236 -1.399174176e-19)
(98.99176132 -5.168903759 0)
(98.49893707 -3.963836934 -2.995763577e-20)
(98.28443629 -3.090990295 4.553645013e-20)
(97.89971429 -2.13170887 1.102472384e-20)
(97.73323926 -1.47409501 1.880097881e-20)
(97.62375392 -0.86835676 -2.135561866e-20)
(97.56482656 -0.2860906647 0)
(103.4957208 -0.2574424162 0)
(103.4716397 -0.7795884296 0)
(103.4278807 -1.313549769 0)
(103.3468039 -1.868973675 0)
(103.1298087 -2.349042509 0)
(102.9882055 -2.984996624 0)
(102.8261901 -3.683953776 0)
(102.5111735 -4.394025066 7.636778152e-20)
(102.0737596 -5.203159765 5.944529331e-19)
(101.5240164 -6.038071673 1.316921144e-19)
(101.0620553 -6.921715028 -8.309406899e-19)
(93.57079807 -6.627287255 1.746261453e-19)
(99.82228127 -8.352983657 -3.059364589e-19)
(99.45111706 -8.332237933 -6.662036225e-20)
(99.04322355 -7.724654884 -2.97748348e-20)
(98.67338757 -6.7862724 4.434298855e-19)
(98.33209178 -5.771462191 0)
(98.02068233 -4.803205245 0)
(97.67321074 -3.771658635 0)
(97.55005315 -2.989375732 0)
(97.2627751 -2.074058385 3.810855496e-20)
(97.14466608 -1.447524481 -3.564908138e-20)
(97.06518899 -0.8542375928 -2.408385482e-21)
(97.02132608 -0.2818268705 2.416503768e-21)
(103.9801438 -0.2521271449 0)
(103.9644919 -0.7624763769 0)
(103.9366835 -1.283369044 0)
(103.8807051 -1.814546119 0)
(103.6974778 -2.281632983 0)
(103.6025621 -2.876730807 0)
(103.4856007 -3.508851335 0)
(103.2171919 -4.145292331 0)
(102.8193407 -4.848862014 -1.71762575e-19)
(102.2625956 -5.535447845 0)
(101.7494548 -6.219968699 0)
(94.41619059 -6.08282679 -4.979608284e-19)
(99.941929 -7.043327486 1.620127673e-19)
(99.12657235 -6.962664429 8.44133396e-20)
(98.41797321 -6.532096498 1.786631122e-19)
(97.90074313 -5.89131348 1.984059329e-20)
(97.51153362 -5.150533197 0)
(97.22754996 -4.386579103 0)
(96.95550886 -3.514008643 0)
(96.88321654 -2.823877656 0)
(96.66549904 -1.973535593 0)
(96.58277623 -1.389116765 0)
(96.52600796 -0.8224459977 0)
(96.49340882 -0.2724116497 0)
(104.4502716 -0.243317215 0)
(104.4410503 -0.7345108956 0)
(104.4247127 -1.234945732 0)
(104.3868293 -1.735379302 0)
(104.2294323 -2.180529025 0)
(104.1640918 -2.728082751 0)
(104.0690324 -3.292320236 0)
(103.818209 -3.850448886 0)
(103.4193335 -4.432892486 0)
(102.8319041 -4.991526118 -1.01022928e-20)
(101.4057124 -5.423993194 -1.395801843e-19)
(97.48511249 -5.697602202 2.652348213e-20)
(99.88865495 -6.009462391 2.689230749e-21)
(98.83631551 -5.905054967 0)
(97.96986745 -5.596409783 0)
(97.33176411 -5.131833285 0)
(96.87829751 -4.567463211 0)
(96.58282534 -3.958473657 0)
(96.3402653 -3.223930977 0)
(96.28998952 -2.6232714 0)
(96.11574379 -1.84698363 0)
(96.05616237 -1.3099926 0)
(96.01449185 -0.7776046864 0)
(95.99063842 -0.2581661736 0)
(104.9003141 -0.2319855833 0)
(104.8955612 -0.6988124296 0)
(104.8864496 -1.173661671 0)
(104.8600982 -1.640052836 0)
(104.7209842 -2.057722848 0)
(104.6705367 -2.555652353 0)
(104.5793989 -3.057866688 0)
(104.3261326 -3.540111569 0)
(103.9035309 -4.021836663 0)
(103.2867488 -4.467301063 0)
(101.2047952 -4.71802349 0)
(98.77048426 -5.025867318 0)
(99.87792882 -5.173138997 0)
(98.6525481 -5.078058407 0)
(97.64577922 -4.838024941 0)
(96.89984398 -4.481251804 0)
(96.38050068 -4.039474848 0)
(96.05474396 -3.546480765 0)
(95.81563329 -2.926949161 0)
(95.76733874 -2.407611857 0)
(95.61642367 -1.707321387 0)
(95.56988852 -1.218970347 0)
(95.53694466 -0.7251817147 0)
(95.51861049 -0.2412249375 0)
(105.3263702 -0.2190380383 0)
(105.3242943 -0.6582690768 0)
(105.3186369 -1.10439307 0)
(105.2980499 -1.535773165 0)
(105.1708972 -1.923180543 0)
(105.1236818 -2.372872022 0)
(105.0226163 -2.819359987 0)
(104.7554218 -3.233476192 0)
(104.2979861 -3.634469247 0)
(103.6377508 -3.993583406 0)
(100.9761857 -4.136680993 0)
(99.48220238 -4.433422525 0)
(99.8590813 -4.494312175 -4.102926287e-35)
(98.50402918 -4.404312377 0)
(97.39204416 -4.208845887 0)
(96.56095794 -3.924973853 0)
(95.98135644 -3.570542012 0)
(95.61817501 -3.165808432 0)
(95.36742373 -2.639965383 0)
(95.30868034 -2.191063205 0)
(95.16675378 -1.563874396 0)
(95.12541082 -1.122860281 0)
(95.09616753 -0.6692737637 0)
(95.08092197 -0.2230604917 0)
(105.7261667 -0.2052483694 0)
(105.7252552 -0.6153435131 0)
(105.7199717 -1.031300959 0)
(105.7003779 -1.428138756 0)
(105.5802825 -1.784610354 0)
(105.5276091 -2.18937635 0)
(105.4072182 -2.585609668 0)
(105.1196497 -2.941685345 0)
(104.6236119 -3.27869734 0)
(103.9115175 -3.572660056 0)
(100.720716 -3.642044316 0)
(99.94228423 -3.920135455 0)
(99.82375109 -3.933931482 0)
(98.37563134 -3.846719332 0)
(97.18568706 -3.681644833 0)
(96.28748074 -3.448951408 0)
(95.6552547 -3.158307718 0)
(95.25438493 -2.821774418 0)
(94.9823509 -2.372339866 0)
(94.90643363 -1.982678281 0)
(94.76380307 -1.423146135 0)
(94.72195068 -1.026697176 0)
(94.6927323 -0.6129344577 0)
(94.67868655 -0.20468728 0)
(106.0988151 -0.1912318906 0)
(106.0978577 -0.5719670914 0)
(106.0906179 -0.957660932 0)
(106.0683453 -1.321412432 0)
(105.9513589 -1.647652563 0)
(105.8872977 -2.011599186 0)
(105.7418926 -2.361944585 0)
(105.4304007 -2.670825795 0)
(104.8962573 -2.956925653 0)
(104.126205 -3.200549028 0)
(100.4659163 -3.219029133 0)
(100.2349667 -3.476265923 0)
(99.77798996 -3.464122715 -5.686090396e-35)
(98.26140848 -3.37952054 0)
(97.01272722 -3.23639047 0)
(96.06143256 -3.040912157 0)
(95.38415083 -2.797930144 0)
(94.94757152 -2.514186265 0)
(94.6500179 -2.127517082 0)
(94.55315526 -1.787718226 0)
(94.40358155 -1.289438473 0)
(94.35736161 -0.9339422511 0)
(94.32565947 -0.5582932447 0)
(94.31142906 -0.1868055821 0)
(106.4445186 -0.1774572062 0)
(106.4425782 -0.5295729415 0)
(106.4317069 -0.8858789084 0)
(106.4040985 -1.218661342 0)
(106.2872038 -1.516209462 0)
(106.2078579 -1.843423228 0)
(106.035034 -2.153403355 0)
(105.6974378 -2.423139595 0)
(105.1277114 -2.66878753 0)
(104.2949298 -2.872785235 0)
(100.2291494 -2.856910664 0)
(100.4179863 -3.093248302 0)
(99.72592756 -3.066345522 0)
(98.15798643 -2.984556452 0)
(96.8643106 -2.858066125 0)
(95.8707317 -2.690546386 0)
(95.15517526 -2.483988855 0)
(94.68578968 -2.241676866 0)
(94.36158321 -1.906739203 0)
(94.24208654 -1.608966482 0)
(94.08177157 -1.16536259 0)
(94.02874741 -0.8468132277 0)
(93.99294739 -0.5067484839 0)
(93.97755911 -0.1698800427 0)
(106.7642465 -0.1642693607 0)
(106.7606198 -0.4891879729 0)
(106.7449617 -0.8176474616 0)
(106.7101875 -1.121986458 0)
(106.5911173 -1.392856224 0)
(106.4940711 -1.68737135 0)
(106.2928275 -1.962535755 0)
(105.9289507 -2.199477074 0)
(105.3267735 -2.412863012 0)
(104.4278438 -2.585357217 0)
(100.0206049 -2.546774326 0)
(100.5302857 -2.763467669 0)
(99.67017812 -2.727598244 2.018580984e-35)
(98.06324572 -2.64872953 0)
(96.73461939 -2.535330224 0)
(95.70708398 -2.38942576 0)
(94.95909045 -2.211294616 0)
(94.46006371 -2.001977851 0)
(94.10961367 -1.709874943 0)
(93.96724315 -1.447561199 0)
(93.79409232 -1.052302056 0)
(93.73285897 -0.7666219791 0)
(93.69200318 -0.4591582937 0)
(93.67480238 -0.1542016755 0)
(107.0594835 -0.1519115887 0)
(107.0536631 -0.4515177758 0)
(107.0324669 -0.7541025566 0)
(106.9893355 -1.032719651 0)
(106.8664616 -1.279155389 0)
(106.7503959 -1.544842382 0)
(106.5207841 -1.790192375 0)
(106.1316121 -1.999598633 0)
(105.5000285 -2.18709453 0)
(104.5325424 -2.334204703 0)
(99.84663733 -2.28137363 0)
(100.5969965 -2.479893907 0)
(99.6123609 -2.438187968 0)
(97.97569661 -2.362227615 0)
(96.61963663 -2.259417879 0)
(95.56461237 -2.130633801 0)
(94.78910031 -1.975100932 0)
(94.26353268 -1.792407431 0)
(93.88803345 -1.535967989 0)
(93.72339996 -1.303600556 0)
(93.53646141 -0.9508009978 0)
(93.46633465 -0.6940352116 0)
(93.4199364 -0.4159866186 0)
(93.40051015 -0.1399336386 0)
(107.332069 -0.1405436754 0)
(107.3237059 -0.4170124368 0)
(107.2965282 -0.6959529398 0)
(107.2443246 -0.9516283281 0)
(107.1164557 -1.175969977 0)
(106.9808145 -1.416430416 0)
(106.7235933 -1.636365295 0)
(106.3108012 -1.822647523 0)
(105.6523747 -1.98916727 0)
(104.6146175 -2.11554709 0)
(99.70922729 -2.054657337 0)
(100.6338398 -2.23639415 0)
(99.55357495 -2.190701815 0)
(97.89424587 -2.117586358 0)
(96.5164948 -2.02352289 0)
(95.43905627 -1.908556707 0)
(94.64012652 -1.771257126 0)
(94.0908876 -1.610269879 0)
(93.69188845 -1.383672386 0)
(93.50606339 -1.176595727 0)
(93.30506288 -0.860865373 0)
(93.22583991 -0.6292738991 0)
(93.17373529 -0.3774159875 0)
(93.15184642 -0.1271464952 0)
(107.5840822 -0.1302609528 0)
(107.5729473 -0.385927555 0)
(107.5395671 -0.6435870398 0)
(107.4779169 -0.8790703296 0)
(107.3441951 -1.083638094 0)
(107.1889349 -1.30217566 0)
(106.9053018 -1.500518239 0)
(106.4708669 -1.667391109 0)
(105.7875805 -1.816758125 0)
(104.6785171 -1.926101653 0)
(99.60728687 -1.861468138 0)
(100.6504733 -2.027874284 0)
(99.49458525 -1.979356046 0)
(97.81803795 -1.908976624 0)
(96.42304263 -1.822240046 0)
(95.32720317 -1.718580773 0)
(94.50825068 -1.596155317 0)
(93.93790321 -1.452996497 0)
(93.51704068 -1.251450249 0)
(93.31129808 -1.065705836 0)
(93.09636836 -0.7821661185 0)
(93.00814911 -0.5722651097 0)
(92.95037927 -0.3434399361 0)
(92.92591086 -0.1158478272 0)
(107.8176891 -0.1211139223 0)
(107.8036419 -0.3583843499 0)
(107.7639902 -0.5971754205 0)
(107.6927522 -0.8151489665 0)
(107.5525562 -1.002184047 0)
(107.3779624 -1.201817776 0)
(107.0693054 -1.381833074 0)
(106.6152998 -1.532496055 0)
(105.9085898 -1.667740022 0)
(104.7279259 -1.763033591 0)
(99.53828597 -1.69767697 0)
(100.653006 -1.850139853 0)
(99.43591197 -1.799630684 0)
(97.74637861 -1.731823841 0)
(96.3376243 -1.651274709 0)
(95.22657988 -1.556953223 0)
(94.39039907 -1.446743633 0)
(93.8011759 -1.318273067 0)
(93.36003238 -1.137770673 0)
(93.13568517 -0.9699549555 0)
(92.90717143 -0.7142090586 0)
(92.81023004 -0.5227668105 0)
(92.74695572 -0.3139404318 0)
(92.71987022 -0.1060076001 0)
(108.0351797 -0.1131205363 0)
(108.0181324 -0.33441034 0)
(107.9722312 -0.5567403697 0)
(107.8914194 -0.7597823604 0)
(107.7442197 -0.9314420323 0)
(107.5507937 -1.114951888 0)
(107.2184398 -1.279102144 0)
(106.7469232 -1.416756408 0)
(106.0178005 -1.540302299 0)
(104.7658483 -1.624055847 0)
(99.4992961 -1.560236442 0)
(100.6454611 -1.699863622 0)
(99.37785112 -1.647928301 0)
(97.6786614 -1.582470386 0)
(96.25891101 -1.507165833 0)
(95.13521091 -1.420596248 0)
(94.28407514 -1.320446811 0)
(93.67784409 -1.204043867 0)
(93.21792718 -1.041201657 0)
(92.97621318 -0.8883483442 0)
(92.73449304 -0.6564117457 0)
(92.62919332 -0.4804457892 0)
(92.5606311 -0.2887353492 0)
(92.53093359 -0.09757285883 0)
(108.2385552 -0.1062867764 0)
(108.2184751 -0.3139903561 0)
(108.1664062 -0.5222154674 0)
(108.0761363 -0.7128740629 0)
(107.9216564 -0.8711255999 0)
(107.7100642 -1.041012047 0)
(107.3555858 -1.191482023 0)
(106.8679715 -1.318959636 0)
(106.1172579 -1.432894047 0)
(104.7946485 -1.507207829 0)
(99.48756151 -1.446872895 0)
(100.6305002 -1.574334098 0)
(99.32051424 -1.521355852 -3.523224794e-36)
(97.61434908 -1.457996995 0)
(96.18581302 -1.387139592 0)
(95.05148294 -1.307005736 0)
(94.18722971 -1.215133285 0)
(93.56553184 -1.108816916 0)
(93.08811878 -0.9605999362 0)
(92.83019694 -0.8199221266 0)
(92.57578183 -0.6082359797 0)
(92.46251629 -0.4449358576 0)
(92.38890692 -0.2676265266 0)
(92.35664147 -0.09048670659 0)
(108.4308355 -0.1005867704 0)
(108.4076413 -0.2970476309 0)
(108.3494454 -0.4934756847 0)
(108.2498404 -0.6740461776 0)
(108.0872037 -0.8209210749 0)
(107.8581273 -0.9793703559 0)
(107.4834867 -1.11896705 0)
(106.9803881 -1.237849282 0)
(106.2087342 -1.344070973 0)
(104.8161629 -1.410690786 0)
(99.5002113 -1.355355295 0)
(100.6099139 -1.471232163 0)
(99.26394715 -1.417557189 0)
(97.55297672 -1.356077853 0)
(96.11741458 -1.288981096 0)
(94.97403835 -1.214147011 0)
(94.0981544 -1.129001297 0)
(93.46246828 -1.031069939 0)
(92.96817746 -0.8948852837 0)
(92.69522347 -0.7638272613 0)
(92.42804743 -0.5690054506 0)
(92.3072008 -0.4158714026 0)
(92.22873643 -0.2503885295 0)
(92.19390061 -0.0846739955 0)
(108.6110809 -0.09607134619 0)
(108.5849041 -0.2836448891 0)
(108.5207355 -0.4704605159 0)
(108.4120494 -0.6438064459 0)
(108.2429854 -0.780384775 0)
(107.997098 -0.9295233015 0)
(107.6038069 -1.061565493 0)
(107.0861543 -1.172330353 0)
(106.2937874 -1.272540384 0)
(104.831977 -1.332991751 0)
(99.53420648 -1.283679757 0)
(100.5850301 -1.388660948 0)
(99.20818761 -1.334634415 0)
(97.49413617 -1.274848096 0)
(96.052908 -1.210907995 0)
(94.90166705 -1.140359064 0)
(94.01527469 -1.060518187 0)
(93.36667799 -0.9688007285 0)
(92.85624269 -0.8426113316 0)
(92.56900434 -0.7190205273 0)
(92.2910121 -0.5387681309 0)
(92.16299125 -0.3929347555 0)
(92.0799168 -0.2369194123 0)
(92.04267367 -0.08012749674 0)
(108.7929914 -0.09253358858 0)
(108.7632786 -0.2734131297 0)
(108.6927869 -0.4528879478 0)
(108.5738221 -0.618966285 0)
(108.3919796 -0.7494681838 0)
(108.1288345 -0.8915434819 0)
(107.7178707 -1.017916673 0)
(107.1867805 -1.121773844 0)
(106.3737497 -1.217293069 0)
(104.8435398 -1.272974309 0)
(99.58636721 -1.23042816 0)
(100.5569485 -1.325222714 0)
(99.1532581 -1.271154613 0)
(97.4374694 -1.212873288 0)
(95.9915736 -1.151535309 0)
(94.83328229 -1.084346266 0)
(93.93715411 -1.008540959 0)
(93.27623235 -0.9214582141 0)
(92.75065832 -0.8030382264 0)
(92.44970874 -0.6857556766 0)
(92.15555692 -0.5147763137 0)
(92.01973531 -0.3757346529 0)
(91.93190768 -0.2268074941 0)
(91.89183602 -0.07663764305 0)
(108.9338829 -0.09064425607 0)
(108.9020017 -0.2675155457 0)
(108.8266922 -0.4422253765 0)
(108.7015617 -0.6075533557 0)
(108.5324109 -0.7273778867 0)
(108.2547374 -0.8645933667 0)
(107.8271559 -0.9873056163 0)
(107.2835143 -1.085391029 0)
(106.4498531 -1.177470574 0)
(104.8521906 -1.229760614 0)
(99.6538135 -1.194633225 0)
(100.5265605 -1.279976306 0)
(99.09912782 -1.226099157 0)
(97.38262323 -1.16911051 0)
(95.93272989 -1.109830778 0)
(94.76788149 -1.045125291 0)
(93.8625293 -0.9721889779 0)
(93.18981368 -0.8883223851 0)
(92.64980755 -0.7756569457 0)
(92.33593623 -0.6629733223 0)
(92.04802616 -0.5029530073 0)
(91.90747408 -0.3651751231 0)
(91.81606156 -0.2209014643 0)
(91.77435514 -0.07474026584 0)
(109.2037642 -0.0883129476 0)
(109.1669341 -0.2618553468 0)
(109.082009 -0.4326436635 0)
(108.9382528 -0.5898348441 0)
(108.6633076 -0.7153778771 0)
(108.3703259 -0.8491488151 0)
(107.9282408 -0.9697263563 0)
(107.3773274 -1.062569702 0)
(106.5231831 -1.152184876 0)
(104.8593563 -1.20264881 0)
(99.73407784 -1.175542134 0)
(100.494599 -1.252406594 0)