/*--------------------------------*- C++ -*----------------------------------*\
| =========                 |                                                 |
| \\      /  F ield         | OpenFOAM: The Open Source CFD Toolbox           |
|  \\    /   O peration     | Version:  v1912                                 |
|   \\  /    A nd           | Website:  www.openfoam.com                      |
|    \\/     M anipulation  |                                                 |
\*---------------------------------------------------------------------------*/
FoamFile
{
    version     2.0;
    format      ascii;
    class       surfaceVectorField;
    location    "2";
    object      Uf;
}
// * * * * * * * * * * * * * * * * * * * * * * * * * * * * * * * * * * * * * //

dimensions      [0 1 -1 0 0 0 0];


internalField   nonuniform List<vector> 
25162
(
(99.99865225 0.005575748119 -2.196263684e-21)
(99.99477823 0.004948955255 6.505583077e-21)
(99.99782462 0.01391572005 -2.168179598e-21)
(99.9921932 0.01728843388 2.197615281e-21)
(99.99619866 0.02832452097 -4.324609254e-21)
(99.98651519 0.03804295135 1.305807425e-20)
(99.99818347 0.03324602754 1.342592851e-21)
(99.97626288 0.07318910733 -8.590222358e-21)
(99.9896532 0.07414427853 -1.437631506e-21)
(99.99695468 0.0608673816 2.085324669e-21)
(99.99901991 0.0364966478 1.031750524e-21)
(99.98781626 0.1034584732 2.07262088e-21)
(99.99721486 0.05885905513 1.013509836e-21)
(99.99793767 0.04582864607 -1.04575124e-21)
(99.99654582 0.07520753473 1.013468442e-21)
(99.98109677 0.1699636277 2.016796532e-21)
(99.99621856 0.09542218036 0)
(99.9960026 0.1176706855 -3.695750865e-21)
(99.97532415 0.2609027765 -3.69573163e-21)
(99.99544897 0.1440646871 -9.593346705e-22)
(99.99483704 0.1743716167 3.22073804e-21)
(99.96816687 0.3822326791 3.508757618e-21)
(99.99427964 0.2084522703 4.32858764e-22)
(99.99384944 0.2457093751 -2.862302681e-21)
(99.96312105 0.5310394206 4.0779255e-22)
(99.99361743 0.2851718158 -2.909862982e-21)
(99.99368197 0.3253344697 3.25697472e-22)
(99.96382847 0.6907590622 -1.944114896e-21)
(99.99414297 0.3640333808 2.608713885e-21)
(99.99480287 0.3990168757 2.217252057e-21)
(99.97321018 0.828475076 -9.804992245e-22)
(99.99565601 0.4277449395 0)
(99.99721604 0.4474767208 0)
(99.99161001 0.9057963935 2.153561651e-22)
(99.99944851 0.4564723381 0)
(100.0018432 0.4545782031 3.675422816e-22)
(100.0118824 0.898113016 -9.06595494e-24)
(100.0037219 0.4418876505 9.329608901e-22)
(100.0047718 0.419723459 -1.432245579e-22)
(100.0274189 0.811866275 -5.928042532e-22)
(100.0053837 0.3903790027 -1.021747411e-21)
(100.0058327 0.3566253168 8.880561051e-23)
(100.0340322 0.6774643442 1.702119252e-21)
(100.0060616 0.3202385344 4.400748754e-22)
(100.0059868 0.283218605 0)
(100.0336197 0.5300232294 0)
(100.0056976 0.2472693625 0)
(100.0054136 0.2134212226 7.445210562e-22)
(100.0286869 0.3956193286 1.552940807e-21)
(100.0054791 0.1827532622 -3.774231283e-21)
(100.0052903 0.1533150404 -1.397631472e-21)
(100.0238078 0.2796807182 3.062079415e-21)
(100.0045371 0.1278697754 3.061850919e-21)
(100.003388 0.1065167747 -8.631644203e-22)
(100.0142818 0.1923477421 -5.192222992e-23)
(100.0009183 0.09125969265 1.679955877e-21)
(100.0089455 0.08871350583 -7.508945043e-21)
(100.0509174 0.2170296657 4.82490906e-22)
(100.0181542 0.1953083226 -2.674917863e-21)
(100.0029932 0.09080951837 -1.558623979e-21)
(100.0063295 0.05163924445 -9.445264452e-22)
(100.0346719 0.1335573173 1.497081421e-20)
(100.0052845 0.02430358129 -7.59000964e-21)
(100.0256836 0.07150783199 -1.596304109e-20)
(100.0229033 0.02256698812 1.405341151e-21)
(99.98732306 0.01546387187 1.086263435e-20)
(99.98024521 0.007804748485 2.94713886e-22)
(99.97916313 0.03897451841 1.735263154e-20)
(99.97015789 0.02812396204 -1.518956169e-20)
(99.96399777 0.0795272218 9.056798246e-21)
(99.9485661 0.06407265858 -2.355617769e-20)
(99.95584015 0.1314295112 -1.530654871e-21)
(99.91247601 0.1259062956 4.535618176e-20)
(99.92436729 0.1640741852 -9.995559319e-21)
(99.93394231 0.1697447149 -2.145088122e-21)
(99.94935432 0.1690876562 4.226520229e-21)
(99.96918244 0.1193404313 2.099950385e-21)
(99.95061664 0.2027694365 2.050488997e-21)
(99.93449416 0.2210889873 2.088107721e-21)
(99.88964237 0.2935015807 -4.217788265e-21)
(99.91795144 0.2862713163 -2.096301345e-23)
(99.92367934 0.3320503258 2.017113043e-21)
(99.89852973 0.3667112958 -1.909020783e-23)
(99.83333621 0.4813073465 0)
(99.88855861 0.4316817367 0)
(99.85828896 0.4949341005 -2.517484965e-21)
(99.89556028 0.4996371333 -4.949088201e-21)
(99.88208176 0.5265307558 -6.631895506e-23)
(99.84849027 0.6095840028 -1.11327947e-20)
(99.87269949 0.5767882717 -3.826656899e-21)
(99.84233925 0.7816422851 3.137878992e-23)
(99.86379592 0.7373986625 -2.518241489e-21)
(99.79969371 0.904992964 -1.37532601e-20)
(99.83458876 0.8500941111 -3.351358616e-21)
(99.81120346 1.106486042 -6.263505768e-21)
(99.84098218 1.034180353 -5.905069617e-21)
(99.76328447 1.276838813 6.288933927e-22)
(99.8079953 1.189439936 -7.513716975e-21)
(99.80535283 1.471108848 -4.769848674e-23)
(99.84301085 1.359824493 -4.903858586e-21)
(99.76062659 1.689371859 -2.534718895e-21)
(99.81184828 1.559039829 -3.684082538e-21)
(99.84470024 1.805854839 -6.079522218e-21)
(99.88465923 1.647321847 -8.628972809e-21)
(99.81512098 2.058554358 2.681294747e-20)
(99.86406731 1.879971168 -4.34367959e-21)
(99.93202912 2.021338124 9.938117331e-22)
(99.96540175 1.817991632 -2.164970061e-21)
(99.92564745 2.28367851 -1.684985797e-21)
(99.95884812 2.063684198 -2.119117712e-21)
(100.0357655 2.05097087 2.070830335e-22)
(100.0473386 1.815278566 -3.371358947e-22)
(100.0524336 2.286777194 -1.459922975e-21)
(100.0601682 2.045232624 -6.338870184e-22)
(100.125248 1.895888927 -2.32745217e-22)
(100.1017984 1.649337124 -2.278588664e-22)
(100.1539645 2.079970696 -9.238597668e-23)
(100.1400623 1.83982699 1.91464205e-21)
(100.1735435 1.611273788 2.270602356e-21)
(100.1267988 1.381731506 3.952032516e-21)
(100.2053032 1.742811008 3.954330842e-21)
(100.1774952 1.527119547 5.069562227e-22)
(100.1800254 1.274689232 -6.430978162e-21)
(100.1252998 1.081504005 -6.012909312e-21)
(100.2075288 1.362235703 -2.167845384e-21)
(100.1752692 1.186606312 -2.129626124e-21)
(100.1572785 0.9597058849 -5.136332921e-21)
(100.1034885 0.8084735022 4.70092661e-22)
(100.1747766 1.013558635 -1.379231915e-21)
(100.1482127 0.8833874063 5.618327984e-21)
(100.0959027 0.5529456106 -1.301787803e-20)
(100.1534606 0.7538071827 -1.301686657e-20)
(100.2146398 0.8132878408 1.318502776e-20)
(100.1321177 0.6267273399 -2.664910423e-20)
(100.1115059 0.5177181793 1.157105288e-20)
(100.1543542 0.5513550898 -1.63619947e-20)
(100.0907711 0.4257785376 2.336815116e-20)
(100.0683527 0.3770153445 2.59675658e-20)
(100.0844622 0.2570333784 2.225034612e-20)
(100.1919031 0.4035045884 -1.982498203e-22)
(100.146948 0.4542403813 4.66953573e-20)
(100.0866159 0.3600030918 2.533432737e-21)
(100.0607975 0.1501356801 -6.919668549e-22)
(100.1349741 0.2467974353 3.194457111e-20)
(100.0489437 0.06898309526 -7.431770637e-21)
(100.102191 0.1323381267 -1.693626257e-20)
(100.0879712 0.04162580178 7.586340472e-21)
(99.96609426 0.01912998639 -2.607347351e-20)
(99.96218875 0.006522021401 -1.303123412e-20)
(99.94344409 0.05047602875 -5.647483906e-20)
(99.94064944 0.02601337952 1.210143109e-20)
(99.90238683 0.1075832431 1.203542527e-20)
(99.89498277 0.06689156622 -4.78111081e-20)
(99.8577184 0.195299098 2.88677106e-20)
(99.8207626 0.1405534198 5.199638822e-20)
(99.80929733 0.2161034464 -4.77584905e-20)
(99.87776446 0.2111553417 -8.59630312e-21)
(99.81104907 0.2385904472 -6.369624856e-20)
(99.82801472 0.2666708167 -4.300378791e-21)
(99.80668323 0.370885979 -8.413982896e-21)
(99.78396786 0.3557852324 -4.193966223e-21)
(99.70373495 0.430414697 2.941908692e-20)
(99.73222477 0.466044813 8.274361459e-21)
(99.70975445 0.6151223353 -7.286075651e-21)
(99.67222117 0.6015854726 5.374760576e-21)
(99.55480357 0.7265488294 -4.147158714e-20)
(99.63646817 0.7400933064 2.933105176e-21)
(99.57704864 0.794495916 -1.808543245e-20)
(99.61889342 0.9268646052 -7.483588292e-21)
(99.588938 0.9242914655 0)
(99.51858093 1.021013484 7.738775147e-21)
(99.55519615 1.031509939 -7.458450067e-21)
(99.49472839 1.402270779 3.646842903e-21)
(99.44984084 1.41121162 1.430132112e-20)
(99.35961973 1.556065316 7.088103186e-21)
(99.41611921 1.555647182 1.776959382e-20)
(99.39472825 2.014382692 -2.441945509e-20)
(99.33051713 2.047114623 -4.566478257e-20)
(99.23036511 2.251292584 4.741534328e-20)
(99.31201061 2.223830761 -8.221605076e-20)
(99.38812672 2.705761537 0)
(99.30588595 2.782784876 -2.300406682e-19)
(99.2197274 3.0507339 0)
(99.32252012 2.970327294 1.001683208e-20)
(99.52310819 3.363474798 1.233878236e-19)
(99.43569542 3.509874877 1.019779641e-21)
(99.39037115 3.827561973 7.362950525e-21)
(99.49769764 3.664539306 -5.613929542e-21)
(99.83650565 3.769358192 1.301556528e-19)
(99.7481596 3.997161213 1.444012468e-20)
(99.79527146 4.308920234 -9.971756059e-22)
(99.84610706 4.055581757 1.248067424e-19)
(100.1676296 3.779592808 1.460476637e-20)
(100.1516545 4.064644423 -3.033892528e-20)
(100.2331337 4.315494549 2.55432219e-22)
(100.2457735 4.006172707 6.587509879e-20)
(100.4362332 3.400228113 -7.678360593e-20)
(100.4730405 3.695822188 -8.419624222e-20)
(100.5752667 3.860238911 -7.715643446e-20)
(100.5268423 3.552525316 1.041887433e-21)
(100.5585816 2.805071633 2.782142393e-21)
(100.6272764 3.068446806 1.828405876e-21)
(100.7210505 3.159687019 -7.377664726e-20)
(100.6423649 2.894775456 5.955083538e-21)
(100.5606627 2.167012812 -6.012440065e-21)
(100.6421075 2.382880775 -1.398800028e-20)
(100.7179481 2.42612909 -4.875936828e-21)
(100.6276761 2.214704423 5.442001737e-21)
(100.558991 1.748069035 -1.715750604e-20)
(100.4816788 1.583318091 -1.156885751e-20)
(100.6149223 1.761835663 -1.158445859e-20)
(100.5342297 1.605408259 6.213616666e-21)
(100.3784255 1.05478226 -5.151670141e-20)
(100.5063365 1.288621665 -2.671257083e-20)
(100.5885182 1.271970274 -7.809135867e-20)
(100.4386748 1.064907666 -3.673256082e-20)
(100.276158 0.7104455634 -5.916057632e-20)
(100.3749195 0.8734132203 2.343601105e-20)
(100.4286125 0.8482068773 -2.808034802e-20)
(100.3155499 0.7110783976 -2.455701775e-20)
(100.2344447 0.3896905723 9.904400786e-21)
(100.4024485 0.5320911687 -2.534930127e-20)
(100.3788539 0.6442960315 -1.565772555e-22)
(100.2826572 0.5838562542 -1.452410077e-20)
(100.1708399 0.2260956864 1.496958464e-20)
(100.2888806 0.3224250569 2.663742356e-20)
(100.1365704 0.103464528 -1.906063741e-21)
(100.2178854 0.1718525037 -3.849912667e-21)
(100.1855469 0.05367272386 0)
(99.94223734 0.01243236307 2.617694066e-20)
(99.9504823 -0.0005508033611 -4.366061806e-21)
(99.8991406 0.04008439018 2.202887019e-20)
(99.91461994 0.00562174621 3.057005828e-20)
(99.8217683 0.09946969511 -8.753370068e-21)
(99.83908635 0.03703772443 -4.336482271e-21)
(99.72248193 0.2163329671 0)
(99.71478863 0.1049055819 6.673474915e-21)
(99.6666669 0.208337451 2.033636156e-20)
(99.73606594 0.2515441804 -5.945666351e-20)
(99.65341011 0.2469460068 1.528967839e-20)
(99.65702485 0.3043282355 0)
(99.58400616 0.467719287 3.579827835e-22)
(99.56934899 0.4172877348 -3.380440671e-20)
(99.45141746 0.4793415454 -3.378166554e-20)
(99.46521338 0.5591183275 6.856853822e-20)
(99.37363573 0.8078873346 -1.019160658e-19)
(99.34357586 0.7364020352 3.693259454e-20)
(99.17059003 0.849381143 -6.814717739e-20)
(99.24400515 0.9464061727 -3.389511516e-20)
(99.16169984 0.9652505415 -5.574490219e-20)
(99.15031134 1.250759542 8.067786701e-21)
(99.11849829 1.208238738 1.603568158e-20)
(99.00694105 1.306071032 4.053374468e-20)
(99.04191062 1.361518117 8.00105076e-21)
(98.85301553 1.958716548 -1.898505718e-21)
(98.79789423 1.912109781 7.765641517e-21)
(98.65416186 2.066464991 0)
(98.71916503 2.127291977 1.194141284e-19)
(98.61251939 2.91368792 -2.297508891e-19)
(98.52011725 2.878008528 -1.133713321e-19)
(98.35914007 3.118011033 7.333870419e-21)
(98.46981372 3.166372969 -2.296650051e-19)
(98.54967434 4.116441966 3.57064029e-19)
(98.40915747 4.128344036 7.310479095e-20)
(98.26166649 4.480956078 -3.924576733e-19)
(98.43239914 4.468779905 1.242838779e-20)
(98.85770805 5.345798143 2.21441482e-19)
(98.6827046 5.464380097 7.932861078e-20)
(98.62376065 5.90592755 5.545426137e-20)
(98.83389276 5.75792225 2.774576935e-19)
(99.65923655 6.137964236 -2.835308993e-19)
(99.46837273 6.412048815 -1.11549916e-19)
(99.61439272 6.837631615 -8.354152146e-20)
(99.73136688 6.509519241 -1.649689102e-20)
(100.5523561 6.09291678 9.02373063e-20)
(100.5069734 6.466647592 9.053810885e-20)
(100.7158947 6.758233312 1.015926719e-19)
(100.7356473 6.337217607 -9.882906258e-20)
(101.1808202 5.316716237 -2.376695874e-19)
(101.2498048 5.699490997 -2.150814407e-19)
(101.4640084 5.829972882 -1.739954921e-19)
(101.3578765 5.429799261 2.390593609e-19)
(101.384365 4.226647508 -1.790282976e-22)
(101.5135957 4.552842541 -6.729539661e-20)
(101.6768973 4.577786854 -2.258465068e-19)
(101.5199613 4.255772295 -1.534821776e-19)
(101.3125641 3.150484792 4.413569665e-20)
(101.4504137 3.400919635 3.36435631e-20)
(101.5604836 3.369127657 1.890580351e-19)
(101.4064141 3.134286371 2.07346898e-19)
(101.2428248 2.425841592 0)
(101.1163949 2.245846881 4.623439846e-20)
(101.3145972 2.383674988 0)
(101.1787452 2.215031272 0)
(100.841776 1.456451673 2.857847355e-20)
(101.0545176 1.70635117 1.844963522e-20)
(101.1345547 1.599291986 -1.64451904e-20)
(100.9073223 1.394122946 3.583657779e-20)
(100.6121077 0.9598296152 -3.27654665e-20)
(100.7731766 1.130025802 -1.462819271e-20)
(100.8207124 1.041550581 -1.478543025e-20)
(100.6538099 0.9076639293 -7.137433982e-21)
(100.4436589 0.4621291169 -9.095710202e-21)
(100.6658351 0.5776357404 -1.910421614e-20)
(100.69504 0.7574711998 -2.514850193e-21)
(100.5711305 0.7269217806 5.14937812e-21)
(100.3238565 0.2655477931 7.670687029e-21)
(100.4742124 0.3454610028 1.166603878e-20)
(100.2569344 0.1204449473 -1.943505016e-21)
(100.3547335 0.1807776444 -3.433769516e-21)
(100.2991356 0.05582704683 -4.942421578e-22)
(99.92887058 -0.007669873751 0)
(99.95773714 -0.01431028884 0)
(99.86212905 0.001224413958 4.404665729e-21)
(99.9063058 -0.03583975965 0)
(99.74200648 0.0438213318 1.113611511e-20)
(99.79904153 -0.0311900721 -3.682411039e-21)
(99.57465878 0.1622327951 1.931964794e-20)
(99.62002006 0.01095199763 2.463123554e-20)
(99.51926961 0.1271217501 -7.433793829e-21)
(99.57216959 0.2230371111 2.63391763e-20)
(99.48255471 0.1787169604 2.134626201e-21)
(99.46261352 0.2578752354 -1.052650286e-20)
(99.31042456 0.4619110947 0)
(99.31832478 0.3779182084 -2.206174345e-20)
(99.16680428 0.4125969954 -1.811723062e-20)
(99.14655878 0.5313333079 4.503663063e-21)
(98.94847839 0.8459884888 0)
(98.94458027 0.7275590251 4.503180886e-21)
(98.71713052 0.7963161824 -4.646815151e-21)
(98.74979915 0.9821988157 2.258037573e-20)
(98.65670291 0.9665318786 5.826454896e-21)
(98.52864824 1.382380278 2.596426152e-19)
(98.51165194 1.295462612 0)
(98.3556945 1.375964461 7.052336179e-20)
(98.37359193 1.479331074 0)
(97.98416302 2.281691462 -1.267458499e-19)
(97.93795362 2.166748727 -2.229652596e-21)
(97.73737398 2.30833624 -8.031788239e-19)
(97.78630743 2.452012926 -1.188740151e-19)
(97.43758491 3.647371319 -2.606124878e-19)
(97.33410266 3.51550315 5.18439491e-19)
(97.07369497 3.781354726 -1.415718464e-19)
(97.19812501 3.944880011 -6.766521103e-21)
(97.138352 5.569247327 -1.056552186e-19)
(96.92944352 5.464149538 1.054428358e-19)
(96.65652073 5.912094683 -2.377632044e-19)
(96.9197051 6.03787454 -2.229764914e-19)
(97.63913715 7.791098143 3.326247179e-19)
(97.29908114 7.839730665 1.840304316e-19)
(97.17104583 8.493422865 1.794304814e-19)
(97.59805387 8.409223122 1.680639134e-19)
(99.40043248 9.325650907 0)
(99.02230038 9.669531511 4.058118907e-20)
(99.27026854 10.34053921 0)
(99.61747406 9.883708434 -5.534827432e-20)
(101.4657374 9.065854246 3.919594538e-20)
(101.3761611 9.633002822 0)
(101.8338639 9.968904743 -1.529999231e-20)
(101.8573922 9.317216251 -4.175124732e-20)
(102.6527525 7.450641456 0)
(102.8080797 7.978310553 1.91201116e-19)
(103.1915183 8.005025587 0)
(102.9645325 7.47171116 0)
(102.8257393 5.552532682 1.889971623e-19)
(103.0729996 5.947438052 3.924077894e-19)
(103.3193714 5.842697776 1.088011001e-20)
(103.0231286 5.471286732 -2.862772269e-19)
(102.4781523 3.939779105 -9.628842289e-21)
(102.7166902 4.210039216 -3.250391905e-19)
(102.841517 4.085484159 -1.112411637e-19)
(102.5859535 3.840199452 -1.094816237e-19)
(102.1847284 2.875340571 -1.45411146e-20)
(101.9944332 2.692447652 -3.771819473e-21)
(102.2518966 2.759724723 3.458876485e-21)
(102.0546203 2.600744317 2.225633234e-20)
(101.4605157 1.692379026 -9.259436865e-20)
(101.7641831 1.930500974 -5.866595822e-20)
(101.813338 1.726260589 -3.290505866e-20)
(101.5077926 1.554576431 -1.687603001e-20)
(101.0488904 1.086975447 1.138545796e-20)
(101.2758769 1.240904638 3.434375801e-20)
(101.2924295 1.091682898 -3.846991387e-21)
(101.0734818 0.9814342601 -3.75977266e-21)
(100.6826574 0.4615821938 1.984415616e-21)
(100.9483228 0.5206846673 0)
(101.0556243 0.7559092043 -9.960719406e-23)
(100.9197691 0.7670273877 -1.025730853e-20)
(100.493381 0.2582216766 4.382201955e-22)
(100.6659764 0.3040187895 1.984236713e-21)
(100.3868303 0.1149523231 -1.98972621e-21)
(100.4898635 0.1529075238 -1.991835673e-21)
(100.4075564 0.04628104964 -2.001136092e-21)
(99.94088459 -0.0422242095 0)
(99.99759156 -0.03479345597 2.154410901e-21)
(99.85035129 -0.06843256615 -8.831163007e-21)
(99.9311224 -0.09833218462 -2.170817507e-21)
(99.68656327 -0.06318074956 9.134702981e-21)
(99.79427624 -0.1384464147 -4.39873146e-21)
(99.44118441 0.02978233653 1.19786615e-20)
(99.56270829 -0.1440360978 3.543023672e-21)
(99.39826766 -0.0335892653 -2.155978331e-23)
(99.41155262 0.1116303683 -8.913628072e-21)
(99.3307924 0.02375313496 -8.988655647e-21)
(99.27689715 0.1156594164 0)
(99.02729416 0.3293772507 -1.811678338e-20)
(99.07220197 0.2202468456 0)
(98.89817935 0.2120154015 -1.106784901e-22)
(98.82562148 0.3582272334 -7.451032484e-23)
(98.48294069 0.6982938775 9.332576771e-21)
(98.53038787 0.539368178 1.403094474e-20)
(98.26106351 0.5504660846 1.889863431e-20)
(98.22546601 0.8051323454 -1.488806829e-20)
(98.13610023 0.7474549717 -2.762978808e-20)
(97.83913015 1.246344663 1.333328836e-19)
(97.85648735 1.122682183 -1.073399265e-19)
(97.67247697 1.163277536 -1.537248149e-19)
(97.64939725 1.308154005 -5.165643693e-19)
(96.93567125 2.237865088 1.488873503e-19)
(96.9326022 2.053049826 -6.645103198e-22)
(96.66117338 2.158200736 6.663500656e-19)
(96.65815406 2.379104455 6.673019486e-19)
(95.81932477 3.933139567 1.399702136e-19)
(95.74972589 3.665661315 3.065974637e-19)
(95.34868658 3.886708598 0)
(95.43188501 4.220754225 -5.905075031e-19)
(94.79216939 6.711697224 -1.173355409e-20)
(94.54535209 6.369522549 -5.227124629e-19)
(94.01535917 6.83707444 -4.602384412e-19)
(94.33101178 7.270737565 -2.954743441e-19)
(95.01670968 10.79434413 -5.245038676e-19)
(94.37547662 10.57185646 -8.021111849e-19)
(93.91444387 11.57449412 1.121826495e-18)
(94.79256762 11.80653143 1.412406775e-19)
(98.6585553 14.32423476 1.500539954e-19)
(97.80194152 14.85547563 1.500848149e-19)
(98.29660809 16.13243261 1.776895749e-19)
(99.27121321 15.28905644 1.551607696e-19)
(103.5633515 13.23245194 -1.422067889e-19)
(103.4296501 14.26045991 0)
(104.4570797 14.55234481 -3.838979243e-19)
(104.3810899 13.38418677 -3.41289362e-19)
(105.4250343 9.622464881 0)
(105.8004931 10.37079554 0)
(106.4287946 10.11395674 -6.995044412e-20)
(105.9105489 9.407646746 -3.255167844e-20)
(105.1149842 6.513931577 -1.259413923e-19)
(105.5673564 6.945962378 0)
(105.826447 6.639174439 -9.379436161e-21)
(105.3263946 6.263591149 -2.886031969e-19)
(104.1014974 4.328393553 5.651247398e-19)
(104.4771004 4.578730928 5.631365461e-19)
(104.5684694 4.327909784 5.240746775e-19)
(104.1855064 4.121535282 9.798926455e-19)
(103.369777 2.978681051 -1.640068214e-19)
(103.0936552 2.822659199 -1.316900556e-19)
(103.3977681 2.788129217 -3.369799812e-20)
(103.1271328 2.660071295 -1.326774353e-19)
(102.1805859 1.69147869 2.686748733e-20)
(102.568072 1.871088986 -2.500861369e-22)
(102.5474277 1.581249589 1.638520556e-20)
(102.1773924 1.480034981 1.220410957e-20)
(101.5381004 1.050169011 -1.603266888e-20)
(101.8266376 1.159119983 -8.179467051e-21)
(101.784096 0.9584357324 -8.181051707e-21)
(101.5213775 0.897526769 1.248584196e-20)
(100.9168725 0.3692071839 0)
(101.2121367 0.3541369156 1.321611955e-21)
(101.4067492 0.6099063886 -1.101297146e-20)
(101.2815542 0.688034238 2.729745662e-20)
(100.6499331 0.1967626997 -5.018792944e-22)
(100.8285545 0.1907900719 -1.562452336e-21)
(100.5006524 0.08412692231 -2.012733039e-21)
(100.5960697 0.08569647919 -2.279834227e-21)
(100.4868958 0.02443362985 2.56376921e-21)
(99.99278379 -0.09018109635 -1.57201623e-23)
(100.0826751 -0.06117348173 7.628159733e-23)
(99.88113473 -0.1669610738 2.258282964e-21)
(100.0036175 -0.1790617305 -9.324856725e-23)
(99.6785946 -0.2179197485 -1.184191241e-20)
(99.84251146 -0.2795690417 1.790895702e-21)
(99.35644571 -0.1780745048 -1.068256064e-20)
(99.5685064 -0.3530476524 -1.798104701e-20)
(99.3388448 -0.2693252046 -1.531148085e-20)
(99.2885658 -0.08737603939 -8.387437479e-21)
(99.23758374 -0.2165581843 -3.337984416e-21)
(99.14071204 -0.1238470126 4.21368535e-23)
(98.78673372 0.06159129755 1.36384291e-20)
(98.87972721 -0.059188341 1.387710224e-20)
(98.69927438 -0.1197486589 6.859078323e-21)
(98.56441534 0.03363660999 2.362070647e-20)
(98.06519878 0.3508611654 -2.382679922e-20)
(98.18373374 0.1632326877 -1.913421357e-20)
(97.90510947 0.1005308565 -2.879318394e-20)
(97.76716804 0.3822016346 -4.38891717e-20)
(97.7023898 0.2882456231 6.121871892e-21)
(97.21127278 0.7961663362 -6.311861947e-19)
(97.27780696 0.6485433003 -6.228666455e-19)
(97.07729339 0.6372677714 -6.315770316e-19)
(96.99201299 0.8069736369 -6.241216115e-19)
(95.86465806 1.712085731 6.641544832e-19)
(95.94279127 1.472245814 1.26647238e-18)
(95.62498083 1.494241377 -2.870610787e-20)
(95.51998242 1.772617298 1.312571709e-18)
(93.92895997 3.373662564 2.682830255e-21)
(93.99046152 2.984863579 -3.582633685e-19)
(93.48283244 3.057785727 -3.545249971e-19)
(93.3815831 3.521566929 -1.707264336e-19)
(91.27474392 6.425422059 1.862836996e-18)
(91.20859495 5.756708848 5.758069692e-19)
(90.32441741 5.946660962 1.232593809e-18)
(90.36890407 6.81677711 3.861942559e-19)
(88.56861536 13.16442337 1.194508929e-19)
(87.77602531 11.94545818 -3.975407759e-19)
(85.87932463 13.43205702 1.361245093e-18)
(86.11986574 12.5693769 -6.272214081e-19)
(87.68538311 14.74411636 -7.382990553e-19)
(86.65136946 14.82254378 3.705543455e-20)
(93.72872048 24.88515993 5.094052445e-20)
(95.13207098 24.43805727 8.46139622e-20)
(94.28579531 26.72609728 -2.181641762e-19)
(95.9855045 25.83191407 3.256400369e-19)
(109.1623037 20.97266303 1.029592698e-19)
(109.234986 19.14873328 -5.834489086e-19)
(110.8904737 18.58053635 3.380671578e-19)
(110.1005638 21.68941529 -1.111869099e-18)
(112.1377431 20.29383339 2.762539778e-19)
(111.7823352 21.15173695 1.858950644e-18)
(111.1943103 11.98789405 2.484679883e-21)
(110.2661112 11.08120354 -3.774700725e-19)
(111.8363677 11.08955878 -3.47518703e-19)
(110.7612809 10.39767014 -3.586452439e-19)
(108.2570896 6.5462521 -3.360013363e-19)
(109.004521 6.909790927 -9.173199644e-20)
(109.1409628 6.308830875 -1.024111088e-20)
(108.3780155 6.066574741 0)
(106.0715161 4.010153295 -7.914619529e-20)
(106.6005454 4.168316345 0)
(106.5782375 3.784678221 0)
(106.0654357 3.690488483 6.396812881e-19)
(104.6691563 2.559413055 -2.817483782e-22)
(104.3089489 2.482373096 -3.239266205e-19)
(104.6114252 2.308468214 3.55507317e-19)
(104.2705469 2.253787492 3.843794374e-20)
(102.9004856 1.389708457 4.314614735e-21)
(103.3675803 1.460683999 0)
(103.2229281 1.114841359 -2.505761735e-21)
(102.8148843 1.118129006 -4.503658331e-21)
(102.013405 0.8121687281 4.47936333e-21)
(102.3431814 0.8469371947 -2.095805487e-23)
(102.2238392 0.6156370823 -7.279768576e-21)
(101.9342851 0.6236458143 9.074108464e-21)
(101.1038789 0.1819181109 -1.839253568e-22)
(101.3912599 0.0817075186 -2.919947361e-22)
(101.7033459 0.3161134939 8.260198515e-22)
(101.6017988 0.4278713696 6.615515467e-21)
(100.761928 0.07959520043 -3.348209047e-21)
(100.9249512 0.008753693785 -2.430604115e-22)
(100.5724604 0.02687508667 2.497366062e-21)
(100.6457404 -0.01810986418 -2.249695838e-21)
(100.5122302 -0.008974621072 4.244704455e-22)
(100.0971967 -0.1489925148 1.650129388e-23)
(100.2232251 -0.09184013102 -3.191230366e-21)
(99.9695957 -0.2888197932 -5.837889199e-22)
(100.135543 -0.2729814172 1.39190355e-21)
(99.73830496 -0.4119766849 -4.589635431e-21)
(99.95876001 -0.444770053 -3.021763256e-21)
(99.3522737 -0.4484540061 9.482345369e-21)
(99.65705556 -0.5999373612 -1.044287211e-21)
(99.36960305 -0.5630234458 9.829971133e-22)
(99.23983773 -0.3645878839 4.623816346e-21)
(99.2367966 -0.5235171394 9.584112012e-21)
(99.09449734 -0.4451078347 6.755089821e-21)
(98.64302794 -0.3264701499 -2.3127526e-21)
(98.79030838 -0.4403900898 3.57420413e-21)
(98.62209916 -0.5536836247 2.361470513e-21)
(98.42288528 -0.4180248392 7.155804948e-21)
(97.79125988 -0.1924185227 3.862031496e-20)
(97.98521266 -0.3739121058 4.096822486e-20)
(97.7316087 -0.5167758877 -3.655684201e-22)
(97.48783941 -0.2438939853 2.580760682e-20)
(97.46110384 -0.3734373593 6.255084098e-21)
(96.76620744 0.0590220752 -6.425188024e-19)
(96.89385239 -0.08928935512 3.107186638e-19)
(96.69840952 -0.1601131619 6.040225371e-19)
(96.54327509 0.003357837433 5.633772782e-19)
(95.05265361 0.6562669566 5.260317286e-19)
(95.23483302 0.4117151262 1.04427468e-18)
(94.92390655 0.3292648635 -1.08566534e-18)
(94.69757371 0.5959218923 2.148854968e-18)
(92.41742874 1.708921614 2.936486205e-19)
(92.68297033 1.308063361 -9.546470736e-20)
(92.19337931 1.167129559 -5.859502988e-20)
(91.8410083 1.601925162 8.373704027e-20)
(88.09634888 3.387890276 -9.80685932e-19)
(88.53671333 2.663175077 -9.75547168e-19)
(87.73942382 2.301802061 6.427339251e-20)
(87.06473494 3.070515481 -9.717187314e-19)
(79.64914767 6.159880875 0)
(80.26153916 5.204079127 -1.204487494e-18)
(79.3402398 4.551391114 0)
(78.41938443 5.555032587 6.694454643e-19)
(126.8881075 23.55487098 2.20978399e-18)
(124.9046404 22.53440337 -7.958130098e-19)
(127.4731735 21.45750312 1.521134989e-18)
(125.5688256 20.87306581 -1.453377008e-19)
(118.7907239 9.800337145 -6.304149155e-19)
(117.0451658 9.401527124 1.853606714e-18)
(118.6622923 8.173818923 3.347172149e-18)
(117.0467644 8.148315548 1.249445519e-18)
(111.7334374 4.847345786 -4.944591255e-19)
(112.7476682 4.900110813 3.663877855e-20)
(112.4983221 4.103667398 -2.466492678e-19)
(111.5677525 4.191762459 -4.936055133e-19)
(107.9932921 2.73333379 -7.404498923e-19)
(108.6289519 2.704004931 -1.955558644e-19)
(108.3987388 2.26051941 9.965963711e-19)
(107.8220698 2.35051249 2.206117925e-19)
(105.8269865 1.535766705 3.901892676e-20)
(105.4172701 1.571999605 -3.425677829e-19)
(105.6523902 1.258820768 -1.371649947e-18)
(105.2801038 1.315678651 -3.553348295e-20)
(103.4957059 0.7634798987 -4.890754709e-21)
(104.0033966 0.6975736911 6.990178538e-20)
(103.703737 0.3466442851 7.800059333e-21)
(103.3004059 0.4764236068 1.168027232e-21)
(102.3884624 0.3720784399 -1.978198252e-21)
(102.7235435 0.3112188179 1.36860953e-20)
(102.5107091 0.08773689959 5.051728475e-21)
(102.2355277 0.1813907861 1.000798099e-20)
(101.1990972 -0.08682633471 -3.504418137e-22)
(101.4508683 -0.2764140285 -1.059322311e-21)
(101.8692909 -0.1046252758 -1.075457205e-21)
(101.8231052 0.05782817145 -1.202815147e-21)
(100.7982901 -0.08677396869 1.076067425e-21)
(100.9247877 -0.2267232933 1.319754327e-21)
(100.5771171 -0.05256218992 -4.276804522e-21)
(100.6134124 -0.1503055909 1.654838004e-21)
(100.4626306 -0.05162370468 -2.116987699e-21)
(100.2634499 -0.2146000991 -1.815787738e-21)
(100.4256591 -0.1246059186 1.006645998e-21)
(100.1269427 -0.4251710652 -1.058614443e-21)
(100.3342048 -0.373318262 -7.435448349e-22)
(99.8802194 -0.6297974967 5.409997677e-22)
(100.1518304 -0.6213526057 -2.671115376e-22)
(99.45086992 -0.7600746862 6.200013964e-22)
(99.84029687 -0.8648817211 9.016011804e-22)
(99.50807207 -0.8878867512 5.387957268e-22)
(99.2939323 -0.6953066343 1.576994155e-21)
(99.34896175 -0.8703722082 -1.561900237e-23)
(99.16563497 -0.8182990808 -1.562122387e-23)
(98.64032888 -0.79564919 -2.35453796e-21)
(98.83841517 -0.8858266307 0)
(98.69950676 -1.046096038 -1.152510729e-21)
(98.44696826 -0.9484005433 -1.222963578e-21)
(97.729768 -0.8619483968 -3.664935985e-20)
(97.98899262 -1.008160359 1.283044546e-21)
(97.78723096 -1.2170877 -3.672056793e-20)
(97.44704337 -0.9938582818 8.472313078e-22)
(97.46571545 -1.140681866 -6.136000574e-21)
(96.61573324 -0.8641071904 6.214158616e-19)
(96.79664245 -0.9860752826 6.558928137e-19)
(96.63039624 -1.106896309 -1.038753706e-19)
(96.41569793 -0.9796017246 -3.710449672e-20)
(94.74971344 -0.7146496918 5.442559013e-19)
(95.00881629 -0.9071388799 3.473335822e-19)
(94.76088145 -1.067572133 -1.846763128e-19)
(94.44044775 -0.8728310828 -1.788941871e-19)
(91.96036425 -0.5202912858 5.290955788e-19)
(92.36731273 -0.7971907769 3.971206481e-19)
(92.01159228 -1.059866623 3.591136577e-19)
(91.52925209 -0.8031250581 -4.451512583e-19)
(87.79450562 -0.7552574588 -9.56253417e-19)
(88.47948713 -1.092283428 1.001806231e-18)
(88.05885987 -1.593455236 1.970130504e-18)
(87.27645736 -1.349898693 2.136000742e-19)
(82.36931958 -2.970150754 0)
(83.00478118 -2.982242242 -1.099205501e-18)
(82.932434 -3.47073499 0)
(82.35247457 -3.567202131 0)
(139.9262592 5.490206785 1.725113111e-18)
(138.2164576 6.5437304 -2.358930248e-18)
(138.5365451 4.122265405 2.393626513e-18)
(137.1137137 5.171199435 1.760906534e-19)
(123.7627893 2.150531095 -2.460722085e-19)
(122.0307402 2.8958052 1.33233715e-18)
(122.5050499 0.8532177635 4.602674019e-18)
(121.1443929 1.700665223 -1.320538664e-18)
(114.1499577 1.226586802 -4.674671548e-19)
(115.1445346 0.7993579366 -4.577274891e-19)
(114.4266424 0.1319301104 -1.067560979e-18)
(113.5976117 0.6127940747 5.661722577e-20)
(109.2782409 0.5300303802 1.92836888e-19)
(109.8928623 0.2559640674 1.296584654e-18)