/*--------------------------------*- C++ -*----------------------------------*\
| =========                 |                                                 |
| \\      /  F ield         | OpenFOAM: The Open Source CFD Toolbox           |
|  \\    /   O peration     | Version:  v1912                                 |
|   \\  /    A nd           | Website:  www.openfoam.com                      |
|    \\/     M anipulation  |                                                 |
\*---------------------------------------------------------------------------*/
FoamFile
{
    version     2.0;
    format      ascii;
    class       volScalarField;
    location    "1.38";
    object      nut;
}
// * * * * * * * * * * * * * * * * * * * * * * * * * * * * * * * * * * * * * //

dimensions      [0 2 -1 0 0 0 0];


internalField   nonuniform List<scalar> 
12556
(
1.15587829
1.155847794
1.15581881
1.155798855
1.156028003
1.15602926
1.156050117
1.156097102
1.156182609
1.156320377
1.156483069
1.156660194
1.105738332
1.155954166
1.156499993
1.156351583
1.156211954
1.156127165
1.156066046
1.156044741
1.155826144
1.155842003
1.155868075
1.155895671
1.155112181
1.155024197
1.154943833
1.15489363
1.15512232
1.155165589
1.155288854
1.155581755
1.155984728
1.156629525
1.157483858
1.085997778
1.021174996
1.042743284
1.157810115
1.156991304
1.156274577
1.155775575
1.155381496
1.155225425
1.154963535
1.1550084
1.155083937
1.155162262
1.154311417
1.154165188
1.154042884
1.153990204
1.154247504
1.154383635
1.154679594
1.155271483
1.15624651
1.15778622
0.9688247141
0.8472761819
0.8021451103
0.8281105835
0.9269413366
1.109555856
1.156878096
1.15574132
1.154885909
1.15450493
1.154134081
1.154167434
1.154281055
1.154418032
1.153496686
1.153304555
1.153158252
1.153121287
1.153431222
1.153737654
1.154426029
1.155510907
1.154051512
0.8715219714
0.691217699
0.5884986006
0.549431955
0.5742043125
0.6590034203
0.8142711642
1.05954093
1.156356727
1.154759248
1.153975914
1.153365907
1.153357631
1.153484321
1.153659834
1.15265488
1.152420098
1.152267423
1.152296849
1.152714039
1.153294524
1.154581279
1.156543143
0.8840287253
0.6376933859
0.4752125859
0.3715631739
0.3292341429
0.3524483672
0.4355031928
0.5759914033
0.7908984689
1.109925896
1.155185358
1.153716908
1.152697584
1.152563806
1.152675798
1.152891901
1.151813417
1.151555693
1.151420763
1.15152455
1.152134451
1.15312878
1.15533861
1.035125644
0.7045673103
0.4875503509
0.3261702233
0.211298185
0.1647308021
0.1925716717
0.2753263026
0.4053033356
0.5985728495
0.8843818728
1.1562845
1.153800172
1.15219925
1.151822355
1.151875671
1.152102372
1.150961425
1.150686464
1.15059411
1.150857481
1.151737164
1.153282424
1.156618928
0.8904410888
0.601177792
0.3983517341
0.2359588949
0.1072292491
0.06020202943
0.09454722585
0.1763854908
0.296513908
0.4714576288
0.720796906
1.109252461
1.154300371
1.151813621
1.151119531
1.151065168
1.151284514
1.150151237
1.149880208
1.149859007
1.150348365
1.151441681
1.15377269
1.127596979
0.8140014202
0.5586422696
0.3731955594
0.2196247173
0.08987170595
0.05345844694
0.1315423773
0.2380990777
0.3966616832
0.6256499445
0.9860131348
1.155184511
1.151614602
1.150508278
1.150287707
1.150473975
1.149393111
1.149130159
1.149209427
1.149961102
1.151341377
1.154569657
1.071391953
0.7816399558
0.5634448068
0.4055555469
0.2862175909
0.2082084833
0.06411062525
0.1273217709
0.2193618856
0.3627141615
0.5717125891
0.9067807921
1.15637956
1.151605438
1.149994868
1.149567761
1.149703207
1.148750065
1.148516666
1.148713333
1.149750983
1.151499278
1.155620366
1.045288355
0.7870382705
0.5942516826
0.4634424338
0.3832662925
0.3936996197
0.08933163339
0.1436407161
0.2274244469
0.360773842
0.553891022
0.864041477
1.157775807
1.15182954
1.149667221
1.148986874
1.149050201
1.148222244
1.148020343
1.148364766
1.149744532
1.151880694
1.156862241
1.037889129
0.8051666099
0.6331075164
0.5186890671
0.4597157236
0.5260451501
0.121135685
0.1728275566
0.2547963094
0.3825931804
0.5648518584
0.8532653802
1.159285538
1.15225584
1.149517121
1.148581567
1.148562269
1.147861535
1.147700219
1.148183386
1.149888677
1.152430047
1.158236532
1.043381337
0.8328265197
0.6716188765
0.5587396599
0.4892505887
0.4836058638
0.1577103423
0.2141509987
0.3001144516
0.428424061
0.6015230729
0.8702299076
1.1607902
1.152924364
1.149611223
1.148401784
1.148297061
1.147605562
1.14749434
1.148171448
1.150242038
1.153074761
1.159662961
1.058161924
0.8746658222
0.714427321
0.593332504
0.4888614886
0.4330484469
0.06424077182
0.2037565227
0.2759316802
0.3710892183
0.4982567121
0.6689238849
0.9114391923
1.162236365
1.153686135
1.149888441
1.148439973
1.14825361
1.147506187
1.147443917
1.148286271
1.150645448
1.15400059
1.161085051
1.117884003
0.9242568672
0.7754425789
0.6453781165
0.5186705502
0.2893063361
0.1249057787
0.3004099047
0.3850033088
0.4798500564
0.6013337746
0.7566238353
0.9741131013
1.163578692
1.154536556
1.150345316
1.148664883
1.148412954
1.147448277
1.147425307
1.148417165
1.151063869
1.154794428
1.162353178
1.168947713
1.009782776
0.8676160622
0.745385788
0.6175196605
0.09072944825
0.1741251817
0.4476764131
0.5815957643
0.6448751329
0.7420178408
0.8806831422
1.077225623
1.164761618
1.155371358
1.150868581
1.149029652
1.148725389
1.147486674
1.147498472
1.148612959
1.151498039
1.155538227
1.163441854
1.170211831
1.147453368
1.014011694
0.9179575747
0.8229314442
0.04449398078
0.2013721743
0.4873364894
0.7844886025
0.8789148606
0.9332940908
1.040615645
1.168310309
1.165728589
1.156151184
1.151428233
1.149474337
1.149131404
1.14748048
1.147509292
1.148717505
1.151827732
1.156169594
1.164298636
1.171218561
1.166516159
1.13708002
1.044224424
0.6123965298
0.02808676929
0.2599791337
0.5460066913
0.8273444689
1.017615706
1.113155868
1.154567397
1.169408242
1.166449306
1.156799542
1.151942377
1.149910594
1.149542191
1.147515743
1.147554977
1.148825535
1.152094615
1.156644158
1.164895024
1.1717464
1.166699032
1.130579614
0.9827651037
0.3139398172
0.03760569107
0.3244237925
0.6069810075
0.8615700807
1.026912524
1.115096907
1.15571396
1.169940366
1.166864328
1.15729683
1.15238965
1.15033403
1.149951766
1.147448341
1.147480991
1.148783638
1.152193058
1.156944824
1.165233932
1.171901387
1.166380863
1.126509992
0.9229108865
0.1852269891
0.06465435465
0.3682755256
0.6418254739
0.8736692725
1.028974063
1.115894863
1.156087264
1.170048523
1.167014291
1.15760646
1.152696888
1.150642734
1.150253524
1.147406668
1.147433064
1.148743522
1.152221042
1.157069442
1.165335183
1.171740405
1.165649941
1.121504227
0.8806024881
0.1692628125
0.07871978757
0.3781548105
0.6441656199
0.8760316543
1.029803689
1.115898092
1.155894895
1.169819752
1.166938117
1.157807695
1.152951482
1.150911538
1.15051321
1.147237051
1.147249212
1.148548916
1.152082004
1.157035874
1.165229625
1.17132873
1.164600144
1.115501029
0.8348049526
0.1621176509
0.08782107356
0.3818870547
0.6438612931
0.8762906604
1.029689126
1.115330469
1.155298743
1.169332321
1.166683433
1.157846895
1.15305637
1.151035476
1.150628705
1.147104435
1.147112558
1.148395508
1.151924576
1.156870933
1.164956836
1.170726446
1.163297817
1.108520717
0.7897084838
0.1585191134
0.09574299888
0.3840596357
0.6425118296
0.8744894378
1.028679506
1.114316355
1.154413103
1.168652344
1.166296022
1.157831952
1.153138795
1.151134768
1.150711995
1.146833687
1.146836987
1.148100598
1.151636353
1.156612563
1.164559799
1.1699838
1.16178205
1.100265857
0.7518853603
0.1574222291
0.1024187491
0.3850704313
0.6404661928
0.8711826499
1.026736207
1.112898237
1.153305064
1.167832424
1.165813476
1.157686723
1.153077224
1.151084459
1.150644311
1.146622978
1.146634885
1.147885756
1.151388365
1.156288466
1.16407573
1.169135628
1.160047282
1.090040073
0.7226992187
0.1581032028
0.1078604821
0.3852316425
0.6378519413
0.8669567434
1.023921034
1.11108661
1.152007259
1.166909737
1.165263054
1.157538384
1.15303461
1.151046408
1.150580922
1.146268929
1.146288865
1.147529421
1.15102507
1.155923636
1.16353113
1.168199451
1.158029603
1.077596462
0.7005252274
0.1603173321
0.1122140312
0.3846291021
0.6347369377
0.8621710044
1.02040688
1.108907771
1.150540274
1.165910002
1.164664285
1.157273906
1.152849273
1.150858605
1.150367455
1.146001252
1.146040807
1.14728045
1.15073802
1.15552669
1.162943344
1.167180763
1.155632128
1.063682751
0.6835878659
0.1638527619
0.1156058529
0.3833778113
0.6312070058
0.8570328318
1.016384046
1.106409595
1.148924292
1.164851746
1.164030477
1.15704942
1.152726594
1.150727192
1.150203228
1.145588137
1.145644041
1.146882461
1.150329607
1.155110873
1.162323561
1.166078801
1.152766807
1.049424245
0.6706091798
0.1685083683
0.118254762
0.381628008
0.6273785886
0.8516825232
1.012007729
1.103647195
1.147180718
1.163748987
1.163371356
1.156706845
1.152454731
1.150442193
1.149887034
1.145282687
1.145364424
1.146611688
1.150023922
1.15467575
1.161679282
1.164888663
1.14939215
1.035614468
0.6605095305
0.1739453882
0.1203348922
0.3795672892
0.6233677779
0.8462167975
1.007387522
1.100669897
1.145329189
1.162611998
1.162693615
1.156443799
1.152287201
1.150256012
1.14966308
1.144837335
1.144938972
1.146189971
1.149586878
1.154232294
1.161015407
1.163603298
1.145531432
1.022619445
0.6525204555
0.1798620489
0.1219743038
0.3773154083
0.6192550211
0.8406918974
1.002595154
1.097517606
1.143386122
1.161448322
1.162002276
1.156050403
1.151960187
1.149910582
1.149283949
1.144503094
1.144633428
1.14590003
1.149270716
1.153776517
1.160335662
1.162215572
1.141263657
1.010585422
0.6461610881
0.1861753691
0.1232523
0.3749372185
0.6150739057
0.8351347024
0.9976782241
1.094221859
1.141364351
1.160263305
1.161301603
1.155770218
1.151767335
1.149692848
1.149025539
1.144057008
1.144207745
1.145480322
1.148826582
1.153319709
1.159641948
1.160720412
1.136695804
0.9995552068
0.6412305074
0.1928774172
0.1242132455
0.3724691967
0.6108415401
0.8295662605
0.9926742554
1.090808994
1.139274363
1.159060592
1.160593316
1.155350719
1.151417168
1.149323492
1.148622788
1.143685162
1.143865988
1.145158427
1.148492244
1.152855635
1.158935362
1.159116418
1.131933856
0.9895053306
0.6374755347
0.1998930217
0.1249270795
0.3699379023
0.6065846432
0.82401585
0.9876181554
1.087302293
1.137124599
1.157842413
1.15988111
1.155052934
1.151195139
1.149073285
1.148330044
1.143282905
1.143482688
1.144782963
1.14808201
1.152394364
1.158214811
1.157406263
1.127065486
0.9803635389
0.6346968
0.2071761845
0.125478137
0.3673888041
0.6023539218
0.8185184312
0.9825414648
1.083721868
1.134922076
1.156610385
1.159161792
1.154648925
1.150869335
1.148730355
1.147956951
1.142837811
1.143068941
1.144390671
1.147685427
1.151931052
1.15748204
1.155597369
1.122156186
0.9720272698
0.6326822589
0.214632894
0.1259396844
0.3648801552
0.5982103544
0.8131060555
0.977469898
1.080085706
1.132674593
1.155368607
1.158444443
1.154286624
1.150577094
1.148409704
1.147591576
1.14254537
1.142792746
1.144125056
1.147396163
1.151478653
1.156745507
1.153715606
1.117250675
0.9643810648
0.6312168668
0.2220944312
0.1263829192
0.3624631399
0.5941847095
0.8078003544
0.9724261734
1.076409447
1.130388134
1.15413279
1.157728713
1.153999017
1.150355742
1.14817503
1.147333104
1.141957173
1.142242983
1.143603141
1.146861091
1.151074257
1.156045967
1.151860518
1.112394139
0.957356483
0.6301694753
0.2294292159
0.1268665681
0.3601838695
0.5903180018
0.8026432734
0.9674402319
1.072713085
1.128067917
1.152968748
1.157081045
1.153494389
1.14995436
1.147743816
1.146848281
0.1844345787
0.05707847378
0.04627797989
0.3763925942
0.08158999187
0.05995325474
0.5133262805
0.1144147866
0.08546794359
0.4910806055
0.1446039148
0.119248316
0.4378851713
0.04773845785
0.06014754731
0.1793518674
0.1484324445
0.3369596505
0.09372185362
0.04910751166
0.1188037702
0.2428408712
0.1824041657
0.08714001074
0.0605096712
0.0478456229
0.08967738302
0.02916205929
0.01986436794
0.06166716472
0.1078762586
0.1113057166
0.3594302373
0.3640866808
0.2138624925
0.0346757338
0.04939245242
0.08603871625
0.1228858795
0.1100692355
0.4445878676
0.4941214267
0.3813702666
0.442237555
0.2150114733
0.2454792149
0.05996484558
0.04312566142
0.1170619592
0.1504076267
0.1287911509
0.4856395946
0.5159228485
0.5064892187
0.5261131758
0.1354981364
0.1788512469
0.1088357929
0.08094576812
0.4866452975
0.4527305271
0.5102534087
0.4712307347
0.07766962107
0.1039683681
0.02026974539
0.1356783003
0.130827015
0.5077841135
0.3853098622
0.443208871
0.3980648455
0.02958345345
0.04918506697
0.2824865724
0.1275768179
0.09643100833
0.07133706708
0.1740257253
0.03384510222
0.06458919036
0.04813068456
0.03038915468
0.04926955574
0.03222268053
0.04673095504
0.249722687
0.2807991807
0.3113203118
0.2167430528
0.1983959915
0.2027506231
0.2203658334
0.04270138243
0.03450448526
0.07122408469
0.05036736676
0.05706278368
0.04797434272
0.05059695784
0.06980326202
0.1819666173
0.2105636913
0.4606897684
0.1623251313
0.1350840587
0.1963190652
0.1646000048
0.07721839798
0.06139490804
0.1020623986
0.08258851659
0.1051542899
0.05761359294
0.07967696659
0.09771808555
0.1054746316
0.133697617
0.5177787427
0.1063342997
0.07951869191
0.133535235
0.107790058
0.1299004002
0.1131249864
0.05016923326
0.07582991662
0.4692217849
0.01426607344
0.05258796211
0.031260903
0.07840562941
0.05418260618
0.01273239604
0.1417982912
0.1373426512
0.02296462034
0.004690546154
0.02927119049
0.3928258561
0.07693711452
0.01835622001
0.01038821294
0.03091339133
0.01868648628
0.07374968054
0.263943078
0.1923871423
0.1047307534
0.113699239
0.07087642555
0.03990081529
0.01824012253
0.008532775131
0.2863898508
0.2848888968
0.191752463
0.009134422401
0.1507453318
0.1866912612
0.1586284308
0.01030229947
0.06614218805
0.05756945869
0.09093687692
0.1576155524
0.1454577198
0.1719749637
0.0789921057
0.1277180611
0.0419690678
0.0135511119
0.02350772371
0.02276387481
0.03053396406
0.04779340202
0.05580856147
0.04017144855
0.1335771457
0.1241255766
0.1319801336
0.1087781513
0.1229353116
0.1304237827
0.0327103435
0.01170795129
0.05834650165
0.02386496674
0.04094209438
0.03301740872
0.02008783235
0.03122749085
0.0227201913
0.01774285787
0.02331606351
0.02127187042
0.0101704086
0.01694945662
0.02206108295
0.04380357211
0.04448582056
0.05167122101
0.05048856232
0.02019449903
0.01012667847
0.09647634326
0.01701768051
0.03128378927
0.009396059337
0.01441601828
0.09238752874
0.09249769859
0.2683116858
0.254374146
0.08361514092
0.0706272644
0.01029302192
0.04419492062
0.1939374005
0.1803960036
0.2126771298
0.1994282581
0.0445543895
0.05152777915
0.04231922767
0.1060038011
0.0679184172
0.06127299438
0.04019305667
0.06737135227
0.1199157269
0.04115414834
0.02455534289
0.01548037393
0.05520565745
0.02739821857
0.04563980198
0.02616382766
0.06404999902
0.03871956283
0.03810599375
0.2127243652
0.03078965593
0.2119067697
0.239065127
0.03470841968
0.03911104406
0.03123050606
0.03418094744
0.2344571871
0.04084817747
0.04052499486
0.05422496839
0.06846471169
0.06386848037
0.07481791465
0.07005089071
0.05455160916
0.05780301496
0.05629471925
0.05124718804
0.06223715296
0.057691373
0.05902265661
0.1489331259
0.1471745578
0.1816935111
0.1797182947
0.07297293439
0.009206724169
0.07155756588
0.09634441979
0.09442515999
0.1200460494
0.1183048911
0.0334026994
0.04944742586
0.1254423816
0.03738864111
0.02173224749
0.06653588986
0.2312838213
0.2175007375
0.2496658878
0.2358552498
0.06788539603
0.02979213437
0.04804219865
0.04702354948
0.07103815232
0.07015753385
0.006818293928
0.03927518629
0.1014554711
0.08814989807
0.1751241327
0.1651362181
0.02339824892
0.01180969627
0.02373203257
0.01551643096
0.02946256884
0.01146423038
0.01459935318
0.01169191425
0.02949960774
0.06248999778
0.01205917855
0.02005370277
0.003467125934
0.02109555447
0.01572517283
0.5805392268
0.387764473
0.371716225
0.2591414419
0.008259240547
0.005309939051
0.1680300711
0.3707550002
0.27295387
0.005989403312
0.01382428104
0.01077205743
0.1186094175
0.1062010037
0.04234122847
0.1952488278
0.1637343689
0.09442949357
0.009865772061
0.01677230214
0.01336920201
0.008795021173
0.01305883173
0.009195208919
0.0373512339
0.01607234563
0.01505611208
0.04752233929
0.0559574537
0.01665736267
0.02276999808
0.01071139105
0.0107563332
0.04507824375
0.1508136914
0.3401683326
0.3267325501
0.3580365297
0.3446431829
0.1543319919
0.2864264737
0.2727199869
0.09385364735
0.03255773269
0.09638934826
0.09092274891
0.01108165419
0.0159946542
0.1044022766
0.04491598274
0.01822763682
0.01620256749
0.03766705282
0.04333902299
0.03915835037
0.04966073854
0.04481379482
0.03899528909
0.04176507223
0.01105464976
0.01076464033
0.036048625
0.1941382641
0.3756901188
0.362436496
0.05975097342
0.06178413931
0.1402360596
0.02416240275
0.02641852201
0.06538204709
0.09161534295
0.1020545623
0.09438987929
0.06443182564
0.08236428104
0.07669401477
0.09159811012
0.08459954643
0.06564960465
0.1196852492
0.3044112635
0.2908925973
0.3222717685
0.3089036371
0.1216093108
0.10213314
0.03623581672
0.03697029148
0.02092319827
0.02173977544
0.08410779425
0.1279778365
0.05543979269
0.0593336095
0.03728134994
0.03797254931
0.1121662985
0.1287586298
0.05201019794
0.0700043656
0.00726616427
0.02021288315
0.0502324702
0.03820658238
0.07520178367
0.02028588913
0.02077714015
0.01986572562
0.06361143615
0.01074352291
0.004397823097
0.1255567547
0.1071508396
0.08905190645
0.0846284163
0.02889613357
0.02174079694
0.03474761285
0.0845785698
0.0181332786
0.01127638562
0.02102837998
0.02823542117
0.002860416741
0.03043317676
0.01971005539
0.01223953096
0.006295246031
0.01203297335
0.009228761486
0.009081882351
0.03091946645
0.02365147317
0.006705559686
0.03869840226
0.04047849344
0.01581868286
0.01120945996
0.007369028582
0.01168495743
0.017201252
0.01082971638
0.01440885605
0.04719886349
0.01002678361
0.009507823934
0.01093148618
0.01317625559
0.03909904834
0.0110420206
0.01089373158
0.01337861885
0.0109532357
0.01145420273
0.02094380429
0.01475923002
0.03028780386
0.02365977558
0.01125410344
0.01756402081
0.02170027322
0.01846620953
0.02987536831
0.0230772373
0.0180692794
0.01623129372
0.01261818936
0.0138295747
0.01083735302
0.03947283898
0.04678098604
0.01477887899
0.01393096485
0.01556907213
0.01613364669
0.05458687949
0.009880856723
0.01005988754
0.01301275361
0.01006670659
0.01013122865
0.046354896
0.01036447022
0.0152515296
0.01377986327
0.01241377445
0.02252336057
0.05854723954
0.05317268853
0.01137214684
0.04369767633
0.03741441094
0.05121189773
0.04592580155
0.01191270382
0.01186522379
0.04075995125
0.03374255184
0.1051747677
0.09834212795
0.03630501965
0.04673975204
0.1127362489
0.1070448304
0.04598969066
0.04502957185
0.07044209828
0.08469367449
0.105051667
0.06333168599
0.07930071229
0.07151377356
0.06161148516
0.148011727
0.1351139585
0.1151247631
0.1519907207
0.06152144823
0.04041597807
0.04648701583
0.05796050178
0.03503328777
0.03940621193
0.02538122805
0.02408818096
0.04357729939
0.01738877376
0.01752406945
0.01384628009
0.02524085167
0.02977636801
0.01823134284
0.0254680753
0.03438912757
0.03467424283
0.02660859396
0.02890920568
0.09790913379
0.08515349427
0.1049482808
0.1005988502
0.03006921378
0.07608812583
0.07369276464
0.0815271593
0.07695704999
0.03632085354
0.1235562168
0.1184378386
0.1319514947
0.1253887276
0.03694650275
0.03240917612
0.1106945324
0.1064603838
0.1168123606
0.1121764803
0.03277441745
0.01151901096
0.01117504507
0.04150467878
0.03756511408
0.01122552259
0.0116548626
0.04286882205
0.0420734888
0.04510783392
0.04314228155
0.0406210258
0.03954644014
0.04181159737
0.04089713357
0.07006855766
0.06797560526
0.07295051165
0.07080058896
0.06219833066
0.04789734095
0.06709847494
0.06488582648
0.0273060589
0.023103758
0.03558936732
0.02961345638
0.007438657591
0.01470316143
0.01376012917
0.02157006812
0.01519002138
0.03526235122
0.03587481348
0.1006999528
0.02084056976
0.02063995681
0.02148686541
0.02102666332
0.01999977922
0.08656367951
0.0223465253
0.03315336223
0.04016119547
0.05350197044
0.1260532116
0.03672394101
0.02359106638
0.0394068081
0.03640880327
0.02225128303
0.02172202939
0.0231623855
0.0224723283
0.1136540469
0.03820926556
0.0391166221
0.006486762433
0.03068706365
0.009417487934
0.009944489748
0.009395560522
0.02847952365
0.007527940329
0.02271620842
0.01068685738
0.01094773201
0.0495717163
0.04307310739
0.01968129614
0.02017638776
0.07422145415
0.0658514877
0.01879656167
0.01961494762
0.01020278261
0.02781633978
0.08191515755
0.07324972777
0.01248042377
0.01199440991
0.01734136433
0.01160864969
0.01248636563
0.01895861905
0.0303222657
0.007993030029
0.01276145168
0.01137589525
0.01197881439
0.02053996434
0.05500399886
0.1172605308
0.1526492865
0.009929175115
0.009888018581
0.1863243139
0.2390383449
0.1977149811
0.006618652625
0.04117937831
0.0144523292
0.02039458717
0.1362834544
0.1419586667
0.1589445202
0.004903394967
0.007717820934
0.005707382211
0.004897500655
0.005925319755
0.004633764284
0.05889052618
0.03687944191
0.02310196332
0.02603987134
0.02320392725
0.02709515419
0.2282787305
0.4101421023
0.3973760441
0.412516122
0.4144672035
0.232590298
0.05002566581
0.04325454759
0.01327006776
0.0743226771
0.08727276556
0.1334756133
0.1203264768
0.11454735
0.04723200109
0.02864636947
0.03420833536
0.03303286702
0.3930840601
0.3800420765
0.198075053
0.1562840757
0.06772515558
0.07171913966
0.07494228411
0.08627325164
0.1714701324
0.05792222334
0.1289948858
0.1223361542
0.01071648131
0.01088984521
0.01583707511
0.01946514226
0.01975628414
0.03209833446
0.01159978926
0.01047571977
0.01042280006
0.03026388962
0.06028583672
0.05194447703
0.01831128973
0.03070020803
0.01903856657
0.01920600483
0.01870088229
0.01535171329
0.009396490831
0.01188849262
0.01105177996
0.01027854291
0.02583958336
0.0321942396
0.06570715253
0.04068510902
0.03784088413
0.03459567879
0.02546829906
0.04947461116
0.01679060726
0.02339855892
0.01111355738
0.007856349973
0.007975982085
0.01128464839
0.0112195327
0.02395685988
0.01513174308
0.01029304419
0.02076498166
0.01982775363
0.01813814565
0.01691644167
0.02058591193
0.01846911212
0.01088924144
0.01164798939
0.00668238566
0.0092085173
0.01108780656
0.06600470592
0.0603183062
0.0245011369
0.009178442228
0.01494436942
0.01344749727
0.01082529153
0.01545057043
0.01352839627
0.04926018703
0.03765722474
0.04324325059
0.06886340356
0.09869230881
0.09704239221
0.04182474085
0.06893274591
0.06500595
0.09591076237
0.09380982888
0.06577021507
0.03506043728
0.04213185837
0.0367038961
0.02815687808
0.02898191693
0.02381122738
0.04830060122
0.04678567828
0.05327049597
0.02312537946
0.03357101444
0.03189911557
0.05265754834
0.05225965869
0.03052765503
0.02814407482
0.02771962627
0.0308452895
0.03012051771
0.03527897861
0.0592517148
0.05858089376
0.06323743397
0.06239774773
0.03830881761
0.03157775209
0.05398058081
0.05342682412
0.05789224817
0.05721542829
0.03369400633
0.06497340315
0.06698155673
0.1543969864
0.1418875451
0.0623942123
0.06433745596
0.09361780117
0.09703580386
0.1879115821
0.0260915253
0.0259496312
0.02747513086
0.02725330586
0.01983746543
0.02567232267
0.02557093315
0.1735492891
0.08863649904
0.09234388153
0.009300435335
0.009344714347
0.01299987301
0.01236436509
0.009227810671
0.009252922486
0.008028743679
0.06677523854
0.02750075364
0.03385891466
0.1376337495
0.1312164287
0.06120226602
0.07092043704
0.1453481359
0.1395506629
0.03141098894
0.03147580039
0.04840288112
0.04669578655
0.03101623584
0.03097715774
0.01026852621
0.02218472353
0.03514027864
0.03483526003
0.008356612043
0.01411453298
0.02102428007
0.01257770714
0.0118952145
0.01814776948
0.01839133433
0.0299130914
0.01150613428
0.008358804886
0.01142810741
0.0114159895
0.02795005925
0.01765935216
0.01824143345
0.01477310165
0.03851265134
0.03261601353
0.01007914285
0.01010572186
0.01066094082
0.01111877443
0.0173922878
0.006518036989
0.004217804847
0.007863962934
0.01224329395
0.009715175146
0.010320144
0.009675573083
0.009900268589
0.01111012424
0.01038188314
0.00687553778
0.00535244954
0.01383024604
0.01424367959
0.01337425606
0.0134967436
0.01560664949
0.02381568925
0.02414768148
0.02336065525
0.02364920366
0.01546169265
0.01059120583
0.01833427688
0.01829876634
0.01894565306
0.01847543563
0.01040784296
0.01730449509
0.02670290224
0.02963489419
0.02444734373
0.02523036006
0.01678188626
0.01101888554
0.01828807148
0.01827405491
0.01824898809
0.01828523129
0.01086598914
0.01288525866
0.01315274298
0.01240732184
0.01305685948
0.03639721911
0.05578075955
0.05530172568
0.02117099913
0.03502035061
0.03477858273
0.03631666363
0.03537026069
0.02138035164
0.01070262312
0.0104780306
0.01058561533
0.01074648132
0.0197344352
0.01954454254
0.02015510176
0.01994271024
0.0153778441
0.034150696
0.0203453982
0.02126067967
0.02046769287
0.03431648108
0.0341016222
0.03463228374
0.0344568406
0.02059795858
0.02104689963
0.02045714489
0.03077119045
0.02200543976
0.01578219222
0.007074535856
0.01041199273
0.01089094119
0.007022999381
0.04158792483
0.02878804001
0.003020194407
0.02890524847
0.04435966401
0.04399373202
0.01809244382
0.01121441643
0.008217295654
0.003762195831
0.01226862552
0.01235714494
0.01881360471
0.01897205046
0.03062774614
0.01912556797
0.01011013145
0.009560938548
0.01508322304
0.004122062846
0.009152791593
0.007133851501
0.005562263841
0.006815468503
0.009221928217
0.006965460273
0.0100893338
0.01066064743
0.01021929354
0.04043649899
0.03094554749
0.008517878996
0.01062799018
0.01184911674
0.01872619768
0.02103379266
0.01258172957
0.01545693093
0.01475914384
0.009735910232
0.006514722983
0.009754927878
0.01080590807
0.007473968206
0.01084892664
0.01103542611
0.01213789434
0.0112417101
0.01100778711
0.01121061856
0.01106619854
0.01148978615
0.01142148388
0.01124114055
0.01124878495
0.01146358892
0.01256194299
0.01197140401
0.02180240588
0.02131377771
0.02168746731
0.02695467678
0.02704205941
0.02116399015
0.01971500171
0.02105542804
0.01319016565
0.02109053399
0.02238473697
0.01528911336
0.02115815939
0.01403196485
0.01448909818
0.02290780116
0.02318434103
0.02239895273
0.02278384048
0.01428769234
0.01574614769
0.02740392448
0.02692597685
0.009973534785
0.01001787157
0.01132170675
0.009255087762
0.009529391417
0.009767577856
0.01003602649
0.009675606204
0.01235404847
0.02265328642
0.0202770036
0.02618407591
0.02483391752
0.01431591496
0.009202180606
0.01009454152
0.01620720327
0.006527622302
0.009297073741
0.009276292339
0.0119153013
0.009224959246
0.009436665881
0.01963011738
0.0174499236
0.01012612445
0.04733893629
0.04388773301
0.08581491956
0.07641936366
0.04387199551
0.0654782303
0.09280576806
0.08886571058
0.03573700811
0.03265775171
0.03175778527
0.02313394455
0.02914697086
0.04563488012
0.0454999359
0.03922925516
0.02530857414
0.03610443104
0.03663304633
0.03287998346
0.03398038781
0.0238686806
0.0165355692
0.01774132797
0.02688384145
0.01921268152
0.01829133069
0.02040445056
0.01940239892
0.02728484761
0.01870128152
0.01937279722
0.01545373031
0.02001589999
0.04796521903
0.04817264484
0.03040111648
0.03003631344
0.0512009131
0.05119374697
0.02885672457
0.02845001857
0.02965383446
0.02921702248
0.06048819459
0.05984264688
0.0357043332
0.03760980205
0.0617506195
0.06112384726
0.05528110941
0.05468667474
0.03204277238
0.03318643577
0.05652606286
0.05589940298
0.01139252461
0.01830591551
0.01831891836
0.01830797989
0.01832586849
0.01134352637
0.01169792489
0.01696836406
0.01473497324
0.01821632458
0.01788860974
0.0116921788
0.04259062127
0.02479734968
0.02506778653
0.02437841887
0.02458235859
0.04233818378
0.04396364115
0.02600416136
0.0264810612
0.02533121456
0.02564159335
0.04347147495
0.04022947557
0.02316445281
0.02340580237
0.02279954981
0.02303107906
0.0399947731
0.04152422616
0.02398830174
0.02417734044
0.02356708152
0.02380256245
0.04124609569
0.02653541328
0.02635266058
0.06937987589
0.04592306749
0.04625631095
0.04519420981
0.04548322296
0.06861240471
0.02698790156
0.02678166025
0.0244393768
0.02570442526
0.06003804038
0.04134323366
0.04102712829
0.02737222123
0.02877604055
0.05338490322
0.06659652693
0.04446493641
0.04466907643
0.0437192435
0.04366424125
0.06528478683
0.02523691351
0.02528735921
0.009254192337
0.00949830014
0.009086011192
0.0117718287
0.01036936534
0.01434284373
0.009562438277
0.009493983006
0.009564742309
0.009560098659
0.0141649956
0.01930291603
0.01069890769
0.01228829764
0.009674850647
0.009429455567
0.01670986999
0.03518550352
0.05315917557
0.05284802785
0.05459089153
0.05422573248
0.03577663382
0.02079997882
0.02056322867
0.02136797967
0.02109584507
0.02114107583
0.01664727879
0.02346038701
0.0433318172
0.03863208702
0.05064095951
0.04883759125
0.03321769744
0.02563636305
0.01780462294
0.02292207617
0.02435075996
0.03871722172
0.0224520564
0.02273915949
0.02178719518
0.02250967363
0.03878896274
0.02209007515
0.02186511994
0.02290269158
0.02266062607
0.009636683244
0.01198640419
0.01146150033
0.01543937216
0.01311455117
0.00960012726
0.009304445039
0.009512521704
0.01082005323
0.01009051719
0.006464020408
0.01089991783
0.0109024821
0.01086797518
0.01248017392
0.01152723361
0.01076385553
0.01910360219
0.01905930585
0.01934622882
0.01928502512
0.02938235676
0.02934186332
0.04469896193
0.01830550818
0.01933091382
0.01883350215
0.018898819
0.01989809268
0.03353915486
0.03318923529
0.03395177682
0.03367855683
0.01997902304
0.01934224278
0.03250648214
0.03070104462
0.03306486592
0.0324991773
0.01933026954
0.01043642386
0.04237349434
0.04179321709
0.02761286002
0.01256876391
0.01042856671
0.01043053632
0.007801955263
0.01078006259
0.01210582828
0.0179284635
0.01202546648
0.01228571761
0.01218434731
0.03003207747
0.01849696845
0.01870088681
0.01119422685
0.01156709363
0.01144231703
0.01181173681
0.01190923912
0.008358261601
0.008347450535
0.01183031354
0.01156441419
0.01179138286
0.01499531944
0.01851219873
0.02801591384
1.155305805
1.155869365
1.15586689
1.156106244
1.157012368
1.156451699
1.157349356
1.084182777
1.157263379
1.043868854
0.9329220369
1.100730921
0.9133653429
0.8677166176
1.022701868
0.8636772119
0.8772436848
1.035210836
0.8892616141
0.9645082242
1.145220365
0.992127587
1.133402675
1.157193634
1.158027888
1.15694308
1.156426653
1.156642781
1.155880576
1.155878958
1.155383752
1.156568053
1.155953413
1.157079662
1.00805758
1.157334646
0.9444316795
0.793604934
1.011048549
0.7556505907
0.6702694899
0.8682094889