/*--------------------------------*- C++ -*----------------------------------*\
| =========                 |                                                 |
| \\      /  F ield         | OpenFOAM: The Open Source CFD Toolbox           |
|  \\    /   O peration     | Version:  v1912                                 |
|   \\  /    A nd           | Website:  www.openfoam.com                      |
|    \\/     M anipulation  |                                                 |
\*---------------------------------------------------------------------------*/
FoamFile
{
    version     2.0;
    format      ascii;
    class       pointVectorField;
    location    "0.5";
    object      pointDisplacement;
}
// * * * * * * * * * * * * * * * * * * * * * * * * * * * * * * * * * * * * * //

dimensions      [0 1 0 0 0 0 0];


internalField   nonuniform List<vector> 
26316
(
(0 0 0)
(0 0 0)
(0 0 0)
(0 0 0)
(0 0 0)
(0 0 0)
(0 0 0)
(0 0 0)
(0 0 0)
(0 0 0)
(0 0 0)
(0 0 0)
(0 0 0)
(0 0 0)
(0 0 0)
(0 0 0)
(0 0 0)
(0 0 0)
(0 0 0)
(0 0 0)
(0 0 0)
(0 0 0)
(0 0 0)
(0 0 0)
(0 0 0)
(0 0 0)
(0 0 0)
(0 0 0)
(0 0 0)
(0 0 0)
(0 0 0)
(0 0 0)
(0 0 0)
(0 0 0)
(0 0 0)
(0 0 0)
(0 0 0)
(0 0 0)
(0 0 0)
(0 0 0)
(0 0 0)
(0 0 0)
(0 0 0)
(0 0 0)
(0 0 0)
(0 0 0)
(0 0 0)
(0 0 0)
(0 0 0)
(0 0 0)
(0 0 0)
(0 0 0)
(0 0 0)
(0 0 0)
(0 0 0)
(0 0 0)
(0 0 0)
(0 0 0)
(0 0 0)
(0 0 0)
(0 0 0)
(0 0 0)
(0 0 0)
(0 0 0)
(0 0 0)
(0 0 0)
(0 0 0)
(0 0 0)
(0 0 0)
(0 0 0)
(0 0 0)
(0 0 0)
(0 0 0)
(0 0 0)
(0 0 0)
(0 0 0)
(0 0 0)
(0 0 0)
(0 0 0)
(0 0 0)
(0 0 0)
(0 0 0)
(0 0 0)
(0 0 0)
(0 0 0)
(0 0 0)
(0 0 0)
(0 0 0)
(0 0 0)
(0 0 0)
(0 0 0)
(0 0 0)
(0 0 0)
(0 0 0)
(0 0 0)
(0 0 0)
(0 0 0)
(0 0 0)
(0 0 0)
(0 0 0)
(0 0 0)
(0 0 0)
(0 0 0)
(0 0 0)
(0 0 0)
(0 0 0)
(0 0 0)
(0 0 0)
(0 0 0)
(0 0 0)
(0 0 0)
(0 0 0)
(0 0 0)
(0 0 0)
(0 0 0)
(0 0 0)
(0 0 0)
(0 0 0)
(0 0 0)
(-4.504666009e-07 1.226555595e-07 2.775557562e-17)
(0 0 0)
(0 0 0)
(-2.488326951e-07 1.373343207e-06 3.330669074e-16)
(1.147363861e-06 1.168228982e-06 2.91433544e-16)
(0 0 0)
(0 0 0)
(0 0 0)
(0 0 0)
(0 0 0)
(0 0 0)
(0 0 0)
(0 0 0)
(0 0 0)
(0 0 0)
(0 0 0)
(0 0 0)
(0 0 0)
(0 0 0)
(0 0 0)
(0 0 0)
(0 0 0)
(0 0 0)
(0 0 0)
(0 0 0)
(0 0 0)
(0 0 0)
(0 0 0)
(0 0 0)
(0 0 0)
(0 0 0)
(0 0 0)
(0 0 0)
(0 0 0)
(0 0 0)
(0 0 0)
(0 0 0)
(0 0 0)
(0 0 0)
(0 0 0)
(0 0 0)
(0 0 0)
(0 0 0)
(0 0 0)
(0 0 0)
(0 0 0)
(0 0 0)
(0 0 0)
(0 0 0)
(0 0 0)
(0 0 0)
(0 0 0)
(0 0 0)
(0 0 0)
(0 0 0)
(0 0 0)
(0 0 0)
(0 0 0)
(0 0 0)
(0 0 0)
(0 0 0)
(0 0 0)
(0 0 0)
(0 0 0)
(0 0 0)
(0 0 0)
(-2.80638443e-05 -6.644029413e-06 4.996003611e-16)
(-0.0001615060055 -4.163436596e-05 3.080868893e-15)
(-2.1119207e-06 -3.67916263e-07 2.775557562e-17)
(-0.0003066404021 -7.294791769e-05 8.007483565e-15)
(-0.0007613731511 -0.0002682830087 1.992850329e-14)
(-0.0009034282804 -0.0003630413343 2.699229729e-14)
(-0.0004214009887 -0.0001142266079 1.255939797e-14)
(-0.000512858642 -0.0002403976001 2.646494135e-14)
(-0.0008986545341 -0.0006268313467 4.662936703e-14)
(-0.0007495971673 -0.0006928497857 5.151434834e-14)
(-0.0004415338552 -0.0002735856876 3.011479954e-14)
(-1.89462737e-05 -0.0003207241508 3.522182546e-14)
(-2.446960052e-05 -0.0007853573566 5.824507543e-14)
(0.0002456719056 -0.0007759930052 5.74817971e-14)
(0.0001440146066 -0.0003157208748 3.465283616e-14)
(0.0004835118768 -0.0002426441304 2.656208586e-14)
(0.0008560497804 -0.0006329132253 4.676814491e-14)
(0.000938568645 -0.0005532334601 4.085620731e-14)
(0.0005086529636 -0.0002031635312 2.223221607e-14)
(0.0002992842287 -7.412992484e-05 8.118505868e-15)
(0.0007425970572 -0.000272169517 2.009503675e-14)
(0.0005587174445 -0.0001817516646 1.34336986e-14)
(0.0001748474572 -3.841832716e-05 4.204969706e-15)
(0 0 0)
(2.944004974e-05 -7.156696701e-06 5.273559367e-16)
(0 0 0)
(0 0 0)
(0 0 0)
(0 0 0)
(0 0 0)
(0 0 0)
(0 0 0)
(0 0 0)
(0 0 0)
(0 0 0)
(0 0 0)
(0 0 0)
(0 0 0)
(0 0 0)
(0 0 0)
(0 0 0)
(0 0 0)
(0 0 0)
(0 0 0)
(0 0 0)
(0 0 0)
(0 0 0)
(0 0 0)
(0 0 0)
(0 0 0)
(0 0 0)
(0 0 0)
(0 0 0)
(0 0 0)
(0 0 0)
(0 0 0)
(0 0 0)
(0 0 0)
(0 0 0)
(0 0 0)
(0 0 0)
(0 0 0)
(0 0 0)
(0 0 0)
(0 0 0)
(0 0 0)
(0 0 0)
(0 0 0)
(0 0 0)
(0 0 0)
(0 0 0)
(-7.837801331e-05 -3.210798181e-05 1.026956298e-15)
(-0.0004281364424 -0.0001868609909 6.009082121e-15)
(-0.0001014200085 -3.802451498e-05 1.429412144e-15)
(-0.001446600354 -0.0006753091711 2.53824739e-14)
(-0.002313183049 -0.001257509533 4.06341627e-14)
(-0.002950287564 -0.001748247842 5.65658631e-14)
(-0.001988369344 -0.001011434719 3.806677196e-14)
(-0.003088224712 -0.002157150809 8.140710328e-14)
(-0.004083415867 -0.003327853802 1.079553114e-13)
(-0.004104682135 -0.003827143697 1.241784453e-13)
(-0.003171595156 -0.002532746872 9.563183578e-14)
(-0.002473415421 -0.003468799756 1.30867539e-13)
(-0.00306999942 -0.005044374287 1.634803404e-13)
(-0.002420322351 -0.005324040451 1.723760024e-13)
(-0.001968677613 -0.003687353544 1.389999227e-13)
(-2.696333294e-06 -0.003989590647 1.498523527e-13)
(1.959474895e-05 -0.00570996981 1.841582442e-13)
(0.0008774353636 -0.005678515556 1.828814877e-13)
(0.0006947878855 -0.003963425101 1.48658863e-13)
(0.002449661953 -0.00350902948 1.31131217e-13)
(0.003079344251 -0.005105533853 1.637856517e-13)
(0.003579654466 -0.004763659553 1.526695437e-13)
(0.002824022296 -0.003242013653 1.21055943e-13)
(0.003046623223 -0.002193968766 8.18373147e-14)
(0.004048666985 -0.003388468261 1.084549117e-13)
(0.003833785581 -0.002855010632 9.138523271e-14)
(0.002809350688 -0.001799065087 6.711298184e-14)
(0.001433141502 -0.000687808795 2.570166302e-14)
(0.002291949854 -0.001280701841 4.107825191e-14)
(0.001620209942 -0.0008352334225 2.681188604e-14)
(0.0008995758996 -0.0003982126153 1.489086632e-14)
(0 0 0)
(7.781041192e-05 -3.248021527e-05 1.040834086e-15)
(0 0 0)
(0 0 0)
(0 0 0)
(0 0 0)
(0 0 0)
(0 0 0)
(0 0 0)
(0 0 0)
(0 0 0)
(0 0 0)
(0 0 0)
(0 0 0)
(0 0 0)
(0 0 0)
(0 0 0)
(0 0 0)
(0 0 0)
(0 0 0)
(0 0 0)
(0 0 0)
(0 0 0)
(0 0 0)
(0 0 0)
(0 0 0)
(0 0 0)
(0 0 0)
(0 0 0)
(0 0 0)
(0 0 0)
(0 0 0)
(0 0 0)
(0 0 0)
(0 0 0)
(0 0 0)
(0 0 0)
(0 0 0)
(0 0 0)
(0 0 0)
(0 0 0)
(-3.37211835e-05 -1.826278554e-05 3.747002708e-16)
(0 0 0)
(-0.001435105916 -0.0008361615374 1.891542478e-14)
(-0.00213284068 -0.001364633091 2.807476474e-14)
(-0.003337090822 -0.002275483752 4.690692279e-14)
(-0.002450518464 -0.001521473031 3.447242491e-14)
(-0.005596054748 -0.004334917095 9.864331574e-14)
(-0.006790081864 -0.005783514826 1.198069421e-13)
(-0.007589638746 -0.007054787693 1.462996391e-13)
(-0.006386282437 -0.005397415487 1.229572e-13)
(-0.007255557549 -0.00846379922 1.931510507e-13)
(-0.008269135105 -0.0106166924 2.204764149e-13)
(-0.007895586001 -0.01161796572 2.412237077e-13)
(-0.006996765191 -0.009352047102 2.133987431e-13)
(-0.004796378939 -0.01137695222 2.590844206e-13)
(-0.005293353506 -0.0138341635 2.866040738e-13)
(-0.004064673074 -0.01429853062 2.959021916e-13)
(-0.003702760716 -0.01181510882 2.687572387e-13)
(0.0001021088504 -0.01241224263 2.811501032e-13)
(0.0001221436846 -0.01492442378 3.075317778e-13)
(0.001559032839 -0.01488848989 3.063244103e-13)
(0.001414589791 -0.01237360837 2.798455911e-13)
(0.004946886388 -0.01152335205 2.594868764e-13)
(0.005484123241 -0.01401108048 2.869926519e-13)
(0.006532662527 -0.01343718904 2.748912209e-13)
(0.005858589346 -0.01098535625 2.470523786e-13)
(0.007287876627 -0.008638427338 1.938449401e-13)
(0.0083304199 -0.01083245429 2.21059282e-13)
(0.008374082679 -0.009703936012 1.979805209e-13)
(0.007245800924 -0.007651915435 1.716682352e-13)
(0.005541085483 -0.004393491218 9.865719353e-14)
(0.006904657276 -0.006007564848 1.223882107e-13)
(0.005953286932 -0.004788316277 9.744982599e-14)
(0.004719238735 -0.003452695536 7.745193376e-14)
(0.001636463303 -0.0009738752777 2.18575158e-14)
(0.0024455885 -0.001599470339 3.264055692e-14)
(0.001380136944 -0.0008492276324 1.734723476e-14)
(0.0007887210528 -0.0004416041044 9.922618283e-15)
(0 0 0)
(0 0 0)
(0 0 0)
(0 0 0)
(0 0 0)
(0 0 0)
(0 0 0)
(0 0 0)
(0 0 0)
(0 0 0)
(0 0 0)
(0 0 0)
(0 0 0)
(0 0 0)
(0 0 0)
(0 0 0)
(0 0 0)
(0 0 0)
(0 0 0)
(0 0 0)
(0 0 0)
(0 0 0)
(0 0 0)
(0 0 0)
(0 0 0)
(0 0 0)
(0 0 0)
(0 0 0)
(0 0 0)
(0 0 0)
(0 0 0)
(0 0 0)
(0 0 0)
(0 0 0)
(0 0 0)
(-0.0001558562106 -0.0001019100308 1.637578961e-15)
(-0.0003544384722 -0.0002481386138 3.73312492e-15)
(-0.001258890007 -0.00092662152 1.393329896e-14)
(-0.0008463537244 -0.0005818988 9.36750677e-15)
(-0.004973662309 -0.004044530469 6.5336625e-14)
(-0.005883803701 -0.005122013104 7.729927809e-14)
(-0.007584437215 -0.007034120108 1.063038546e-13)
(-0.006575640914 -0.00569666069 9.217626662e-14)
(-0.0103807141 -0.01120933481 1.822431095e-13)
(-0.0114636245 -0.01325967211 2.010891453e-13)
(-0.01208248426 -0.01524072852 2.313704783e-13)
(-0.01104496349 -0.01300865629 2.118583087e-13)
(-0.0109169059 -0.01777728627 2.904065877e-13)
(-0.01159088449 -0.02016179414 3.071848331e-13)
(-0.01070114886 -0.02133725231 3.251704461e-13)
(-0.01011479497 -0.01887837732 3.083089339e-13)
(-0.006372328717 -0.02113551053 3.444466934e-13)
(-0.006585148504 -0.02327140369 3.539807336e-13)
(-0.00494979123 -0.02351610705 3.573391583e-13)
(-0.004821975181 -0.02150107392 3.500116863e-13)
(0.0001175951444 -0.0219276015 3.555628014e-13)
(9.29019864e-05 -0.02372749132 3.592404152e-13)
(0.001781613848 -0.02375580034 3.591987818e-13)
(0.001784891796 -0.0219285045 3.550909566e-13)
(0.00663358717 -0.02140982447 3.451683384e-13)
(0.00681525116 -0.02354672209 3.544664562e-13)
(0.008346061216 -0.02319338868 3.486100297e-13)
(0.008067022007 -0.02093650484 3.370359547e-13)
(0.0110690293 -0.01815172341 2.910172103e-13)
(0.01177003847 -0.0206277347 3.082534228e-13)
(0.01234589962 -0.01930403724 2.878947081e-13)
(0.0114920193 -0.01678587766 2.685074385e-13)
(0.01062638624 -0.011736336 1.874334021e-13)
(0.0117100792 -0.0138471845 2.064459714e-13)
(0.010728879 -0.01172845621 1.749711487e-13)
(0.009623769723 -0.009825427104 1.57027169e-13)
(0.005244260688 -0.004356272308 6.984690604e-14)
(0.006181194814 -0.005498768042 8.22952817e-14)
(0.004456827198 -0.003730951412 5.589972929e-14)
(0.003651677559 -0.002854266027 4.582445534e-14)
(0.0002411038843 -0.0001600365408 2.567390744e-15)
(0.0004141967545 -0.0002945553228 4.427014311e-15)
(1.051496843e-05 -7.12156658e-06 1.110223025e-16)
(0 0 0)
(0 0 0)
(0 0 0)
(0 0 0)
(0 0 0)
(0 0 0)
(0 0 0)
(0 0 0)
(0 0 0)
(0 0 0)
(0 0 0)
(0 0 0)
(0 0 0)
(0 0 0)
(0 0 0)
(0 0 0)
(0 0 0)
(0 0 0)
(0 0 0)
(0 0 0)
(0 0 0)
(0 0 0)
(0 0 0)
(0 0 0)
(0 0 0)
(0 0 0)
(0 0 0)
(0 0 0)
(0 0 0)
(-1.483454851e-05 -1.25837736e-05 1.387778781e-16)
(-4.047940263e-07 -3.262739692e-07 0)
(0 0 0)
(-0.001112728076 -0.0009332507192 1.169897512e-14)
(-0.001404441581 -0.001242734842 1.476596623e-14)
(-0.002913681786 -0.002710248096 3.222422329e-14)
(-0.002485865067 -0.002191779983 2.750577544e-14)
(-0.008072710982 -0.008415846971 1.060124211e-13)
(-0.008786645167 -0.009663127351 1.1536605e-13)
(-0.01067292277 -0.01250328964 1.494498969e-13)
(-0.01011256578 -0.0112298225 1.416644579e-13)
(-0.01397938604 -0.01935326549 2.448319325e-13)
(-0.01455454835 -0.021248912 2.546851618e-13)
(-0.01493858353 -0.02377550521 2.850775171e-13)
(-0.01441924502 -0.02176579879 2.754602102e-13)
(-0.01300977941 -0.02695726575 3.411437799e-13)
(-0.01327742359 -0.0289811967 3.472777621e-13)
(-0.01194549951 -0.02974732953 3.562844464e-13)
(-0.01178376456 -0.02787725499 3.527733661e-13)
(-0.006869695103 -0.0283838061 0)
(-0.00696710613 -0.03002025649 0)
(-0.006116130539 -0.03002126873 0)
(-0.005218752306 -0.02998612602 0)
(-0.005163000037 -0.02917618736 0)
(-0.005140667573 -0.02838529803 0)
(4.317373273e-06 -0.02844795588 0)
(-1.022363891e-05 -0.02923453282 0)
(0.0008515139672 -0.02924977364 0)
(0.0008613866139 -0.02846318439 0)
(0.006932498277 -0.02864051834 0)
(0.006943282025 -0.02944884656 0)
(0.006959946231 -0.03026980363 0)
(0.007816711734 -0.0303103623 0)
(0.008661321246 -0.03033512008 0)
(0.008654011174 -0.02871213445 0)
(0.01312087646 -0.02759277765 3.435030038e-13)
(0.01332714705 -0.02960712039 3.493455525e-13)
(0.01435394393 -0.02844265353 3.353428646e-13)
(0.01404086757 -0.02634358442 3.277100813e-13)
(0.01422186525 -0.02016525473 2.506606034e-13)
(0.01473544599 -0.02206246304 2.597366766e-13)
(0.01399587735 -0.01937205131 2.280953204e-13)
(0.01336005964 -0.01751296589 2.177424907e-13)
(0.008631930937 -0.009213564178 1.147693052e-13)
(0.00944048657 -0.01063493463 1.254968351e-13)
(0.007440337922 -0.007887278311 9.318934513e-14)
(0.006701132672 -0.00673115563 8.393286066e-14)
(0.001492855826 -0.001272963326 1.59317004e-14)
(0.001865993691 -0.001679017732 1.990074772e-14)
(0.0006685582075 -0.0005726773896 6.800116026e-15)
(0.000454882339 -0.0003692675302 4.62130334e-15)
(0 0 0)
(0 0 0)
(0 0 0)
(0 0 0)
(0 0 0)
(0 0 0)
(0 0 0)
(0 0 0)
(0 0 0)
(0 0 0)
(0 0 0)
(0 0 0)
(0 0 0)
(0 0 0)
(0 0 0)
(0 0 0)
(0 0 0)
(0 0 0)
(0 0 0)
(0 0 0)
(0 0 0)
(0 0 0)
(0 0 0)
(0 0 0)
(0 0 0)
(0 0 0)
(0 0 0)
(0 0 0)
(-0.0001336671508 -0.0001360063179 1.276756478e-15)
(-7.617308061e-05 -7.427934917e-05 7.355227538e-16)
(-6.231621963e-05 -5.81336541e-05 5.967448757e-16)
(-0.002017956721 -0.002066130291 2.120525977e-14)
(-0.00209281041 -0.002239628704 2.198241589e-14)
(-0.00387497743 -0.004358645763 4.282685317e-14)
(-0.0037726955 -0.004060179451 4.171663015e-14)
(-0.01014939332 -0.01290831151 1.330602295e-13)
(-0.01031077895 -0.01370434994 1.351280199e-13)
(-0.01227661956 -0.01737748222 1.715155795e-13)
(-0.01210491181 -0.01639615791 1.692118667e-13)
(-0.01571594384 -0.0265027949 2.740446758e-13)
(-0.0158753384 -0.0279673879 2.765565554e-13)
(-0.01608568758 -0.03086984874 3.05297454e-13)
(-0.01594314698 -0.02929317499 3.029521078e-13)
(-0.01368670569 -0.03439463558 3.554101458e-13)
(-0.01375020594 -0.03606445958 3.562844464e-13)
(-0.01218379989 -0.0363919806 0)
(-0.01215204606 -0.03479060828 3.59254293e-13)
(-0.007113056568 -0.03486491094 0)
(-0.007132712814 -0.03567645327 0)
(-0.006293366153 -0.03568703954 0)
(-0.006273807073 -0.03487677437 0)
(0.006926886833 -0.03509927893 0)
(0.006916873234 -0.03590312336 0)
(0.00775584834 -0.03592188904 0)
(0.007766723537 -0.03511925067 0)
(0.0135809943 -0.03508608014 3.574918139e-13)
(0.01358592018 -0.03675971776 3.583522368e-13)
(0.01494906163 -0.03604201144 3.51080276e-13)
(0.01489041516 -0.03428761054 3.490818745e-13)
(0.01616786839 -0.02807314474 2.855632397e-13)
(0.01636095534 -0.02972469863 2.892963646e-13)
(0.01580071685 -0.02651903878 2.581546088e-13)
(0.0155777641 -0.0249914188 2.54282706e-13)
(0.01108241826 -0.01445486261 1.474098621e-13)
(0.01133243143 -0.01545751639 1.507960423e-13)
(0.00920374686 -0.01181074549 1.153382945e-13)
(0.008967101579 -0.01100382061 1.123406923e-13)
(0.002707375039 -0.002819105638 2.886579864e-14)
(0.003057272813 -0.003329266322 3.259892356e-14)
(0.001458171545 -0.001511398624 1.480759959e-14)
(0.001200391517 -0.001189776148 1.21846977e-14)
(0 0 0)
(0 0 0)
(0 0 0)
(0 0 0)
(0 0 0)
(0 0 0)
(0 0 0)
(0 0 0)
(0 0 0)
(0 0 0)
(0 0 0)
(0 0 0)
(0 0 0)
(0 0 0)
(0 0 0)
(0 0 0)
(0 0 0)
(0 0 0)
(0 0 0)
(0 0 0)
(0 0 0)
(0 0 0)
(0 0 0)
(0 0 0)
(0 0 0)
(0 0 0)
(0 0 0)
(0 0 0)
(-0.0002194223211 -0.0002603415289 2.109423747e-15)
(-0.0001981823069 -0.0002267774577 1.887379142e-15)
(-0.0001738622254 -0.0001916053979 1.665334537e-15)
(-0.00248659326 -0.00300693241 2.611799665e-14)
(-0.002571218774 -0.003228477648 2.700617507e-14)
(-0.004483903778 -0.005917326944 4.954370247e-14)
(-0.004378062915 -0.005564487331 4.83779683e-14)
(-0.01095267662 -0.01644361873 1.433853036e-13)
(-0.01108434059 -0.01727564714 1.450506382e-13)
(-0.01303263735 -0.02162398735 1.817157536e-13)
(-0.01290386904 -0.02062621252 1.800226634e-13)
(-0.01633384463 -0.03245315538 2.836758606e-13)
(-0.01643048184 -0.03387124949 2.850636394e-13)
(-0.01654506907 -0.0371258637 3.124722703e-13)
(-0.01646370102 -0.03561287664 3.113065361e-13)
(-0.0138873104 -0.04096139865 3.576722252e-13)
(-0.01392268364 -0.04256858257 3.57880392e-13)
(-0.0122968022 -0.04276120229 0)
(-0.01226961853 -0.04117284146 0)
(-0.007238911768 -0.04126418104 0)
(-0.007252992333 -0.04205890484 0)
(-0.006415827506 -0.0420739878 0)
(-0.006401636503 -0.04127926604 0)
(0.006827849299 -0.04151206569 0)
(0.006813314523 -0.04231145792 0)
(0.007650317188 -0.04232734806 0)
(0.007664991759 -0.04152836348 0)
(0.01353021744 -0.0416350067 3.592126596e-13)
(0.01350054485 -0.04323483662 3.592404152e-13)
(0.01500423136 -0.04276587715 3.551187122e-13)
(0.0150120185 -0.04112672564 3.545774785e-13)
(0.01685355193 -0.03471973343 2.99080205e-13)
(0.01693447972 -0.03626894877 3.009259508e-13)
(0.01654316679 -0.03270586072 2.713940184e-13)
(0.01643133076 -0.03125258563 2.69256839e-13)
(0.01222929022 -0.01888143817 1.6298074e-13)
(0.01240666483 -0.01990130537 1.654371085e-13)
(0.01029820444 -0.01553481738 1.292438379e-13)
(0.01011374024 -0.01468595008 1.268846139e-13)
(0.00350580573 -0.004316321488 3.740063814e-14)
(0.003648348807 -0.004665396817 3.89271948e-14)
(0.001881456286 -0.002289684861 1.910971381e-14)
(0.001773712834 -0.002078345927 1.801336857e-14)
(0 0 0)
(0 0 0)
(0 0 0)
(0 0 0)
(0 0 0)
(0 0 0)
(0 0 0)
(0 0 0)
(0 0 0)
(0 0 0)
(0 0 0)
(0 0 0)
(0 0 0)
(0 0 0)
(0 0 0)
(0 0 0)
(0 0 0)
(0 0 0)
(0 0 0)
(0 0 0)
(0 0 0)
(0 0 0)
(0 0 0)
(0 0 0)
(0 0 0)
(0 0 0)
(0 0 0)
(0 0 0)
(-0.0003236777461 -0.0004386395676 3.094746681e-15)
(-0.0002918170849 -0.0003831508318 2.789435349e-15)
(-0.0002634498307 -0.0003348019198 2.525757381e-15)
(-0.0027818847 -0.003879338531 2.922662112e-14)
(-0.002867219277 -0.004130925014 3.011479954e-14)
(-0.004850444087 -0.007343713254 5.356826094e-14)
(-0.004745471981 -0.006954470473 5.243028234e-14)
(-0.01140823674 -0.01973321381 1.491307078e-13)
(-0.01153609173 -0.02061071646 1.507405312e-13)
(-0.01347489882 -0.02561848258 1.875027911e-13)
(-0.01335027082 -0.02457594144 1.858790899e-13)
(-0.0166738654 -0.03808480477 2.884081862e-13)
(-0.01676649542 -0.03953396893 2.897265761e-13)
(-0.01683024098 -0.04316323061 3.163302953e-13)
(-0.01675261532 -0.04162691491 3.152478278e-13)
(-0.01402000444 -0.0473678476 3.583522368e-13)
(-0.01405233386 -0.04896962813 3.585187702e-13)
(-0.01240286116 -0.04910132731 0)
(-0.01237660146 -0.04751714755 0)
(-0.007349168324 -0.04760827956 0)
(-0.007362713387 -0.04839991989 0)
(-0.006526686366 -0.04841479778 0)
(-0.006519839531 -0.04801894216 0)
(-0.006512998797 -0.04762341785 0)
(0.006702496692 -0.04790003969 0)
(0.006685587856 -0.04869636855 0)
(0.00752165779 -0.0487109158 0)
(0.007538672319 -0.04791484667 0)
(0.01339953755 -0.0480129503 3.592265374e-13)
(0.01336247478 -0.04959297538 3.591571485e-13)
(0.01483747521 -0.04894624719 3.542860449e-13)
(0.01489093733 -0.04744286002 3.547578897e-13)
(0.01679390189 -0.04010540291 2.996769499e-13)
(0.01670866625 -0.04127927452 2.985944825e-13)
(0.01630773795 -0.03715820649 2.688266276e-13)
(0.01639734453 -0.03612405982 2.69978484e-13)
(0.01225904054 -0.02187944391 1.637856517e-13)
(0.01217389995 -0.02246000026 1.627586954e-13)
(0.01007740477 -0.01747601234 1.267319583e-13)
(0.01015594491 -0.01703980321 1.2766177e-13)
(0.003549680791 -0.005045603176 3.79002385e-14)
(0.003503276102 -0.005145873049 3.741451593e-14)
(0.001774737724 -0.002480575637 1.804112415e-14)
(0.001807514618 -0.002444855743 1.837419106e-14)
(0 0 0)
(0 0 0)
(0 0 0)
(0 0 0)
(0 0 0)
(0 0 0)
(0 0 0)
(0 0 0)
(0 0 0)
(0 0 0)
(0 0 0)
(0 0 0)
(0 0 0)
(0 0 0)
(0 0 0)
(0 0 0)
(0 0 0)
(0 0 0)
(0 0 0)
(0 0 0)
(0 0 0)
(0 0 0)
(0 0 0)
(0 0 0)
(0 0 0)
(0 0 0)
(0 0 0)
(0 0 0)
(-0.0004635330277 -0.0007064233938 4.440892099e-15)
(-0.0004256475234 -0.0006307251206 4.066191828e-15)
(-0.0003890045458 -0.0005600094566 3.719247132e-15)
(-0.003134054386 -0.004950058187 3.291811268e-14)
(-0.00322807092 -0.005247687528 3.390343561e-14)
(-0.005289622554 -0.009034722769 5.83977311e-14)
(-0.00517592719 -0.008589729468 5.714873019e-14)
(-0.011927474 -0.02334189922 1.556810236e-13)
(-0.01206246651 -0.02428933099 1.573741137e-13)
(-0.01398606648 -0.0299550746 1.942057626e-13)
(-0.01385529562 -0.02884361779 1.924849169e-13)
(-0.017046607 -0.04395322288 2.9365399e-13)
(-0.01714176479 -0.04545231626 2.949862576e-13)
(-0.01714253398 -0.04940346248 3.206185317e-13)
(-0.01706373414 -0.047828347 3.195360643e-13)
(-0.01414551495 -0.053773117 3.589073483e-13)
(-0.01417523914 -0.0553721945 3.590044928e-13)
(-0.01250627436 -0.05544175883 0)
(-0.01248069716 -0.05385664587 0)
(-0.00745635222 -0.05394750007 0)
(-0.007469432273 -0.05473988547 0)
(-0.006634841627 -0.05475477374 0)
(-0.006628209568 -0.05435858273 0)
(-0.006621542053 -0.05396246603 0)
(0.006561172748 -0.05426142641 0)
(0.006542001856 -0.05505660886 0)
(0.0073772775 -0.05507029451 0)
(0.007396628388 -0.05427533633 0)
(0.01322219545 -0.05423037823 3.583244812e-13)
(0.01315837488 -0.05570117338 3.576028362e-13)
(0.01447761407 -0.0543824199 3.4898473e-13)
(0.01459681659 -0.05314796046 3.510247648e-13)
(0.01612192795 -0.04383418051 2.893796314e-13)
(0.01578540209 -0.04422975171 2.837313717e-13)
(0.0153358552 -0.03959365371 2.540329058e-13)
(0.01561262263 -0.03912104314 2.583072645e-13)
(0.01127952767 -0.02284646949 1.510874759e-13)
(0.01099515028 -0.02293276035 1.473682287e-13)
(0.00891583744 -0.01747105901 1.123406923e-13)
(0.009181054113 -0.01747304441 1.15629728e-13)
(0.002863431018 -0.004613452013 3.058664433e-14)
(0.002709712123 -0.004494251251 2.896294315e-14)
(0.001204734723 -0.001901221073 1.226796442e-14)
(0.001307839186 -0.002004980474 1.330879851e-14)
(0 0 0)
(0 0 0)
(0 0 0)
(0 0 0)
(0 0 0)
(0 0 0)
(0 0 0)
(0 0 0)
(0 0 0)
(0 0 0)
(0 0 0)
(0 0 0)
(0 0 0)
(0 0 0)
(0 0 0)
(0 0 0)
(0 0 0)
(0 0 0)
(0 0 0)
(0 0 0)
(0 0 0)
(0 0 0)
(0 0 0)
(0 0 0)
(0 0 0)
(0 0 0)
(0 0 0)
(0 0 0)
(-0.0005858505749 -0.0009916821859 5.606626274e-15)
(-0.0006058653782 -0.0009999856195 5.800915304e-15)
(-0.0005530668098 -0.0008895228265 5.287437155e-15)
(-0.003535424469 -0.00623672937 3.712308239e-14)
(-0.003655611001 -0.006617208293 3.837208329e-14)
(-0.005800683859 -0.01102954301 6.400435737e-14)
(-0.00565795714 -0.01048494034 6.245004514e-14)
(-0.01249316243 -0.02727253693 1.627586954e-13)
(-0.01265708199 -0.0283423799 1.64812608e-13)
(-0.01455893908 -0.03465918199 2.016581346e-13)
(-0.01440164702 -0.03342754473 1.996180998e-13)
(-0.01743933343 -0.05004574473 2.991218384e-13)
(-0.0175490956 -0.0516290206 3.006622729e-13)
(-0.01747549675 -0.05584136348 3.251843239e-13)
(-0.01738672977 -0.05420189958 3.239630786e-13)
(-0.0142603208 -0.06015758144 3.592126596e-13)
(-0.01428740306 -0.06174815549 3.592404152e-13)
(-0.01260733378 -0.06178035561 0)
(-0.01258209467 -0.06019560467 0)
(-0.007558585584 -0.06028585427 0)
(-0.007570964839 -0.06107817893 0)
(-0.006737953752 -0.06109285399 0)
(-0.006731687788 -0.06069654576 0)
(-0.006725390433 -0.06030053272 0)
(0.006401978702 -0.06060734893 0)
(0.006380536733 -0.06139987497 0)
(0.007215530075 -0.06141289256 0)
(0.007237229734 -0.06062037127 0)
(0.01290903179 -0.05980952833 3.539113447e-13)
(0.01279481942 -0.06100944723 3.518296765e-13)
(0.01388656179 -0.05862861756 3.380073998e-13)
(0.01406776937 -0.05774597136 3.415878691e-13)
(0.014835885 -0.04526878519 2.677441602e-13)
(0.01458466717 -0.04572436976 2.635808238e-13)
(0.01382383181 -0.0398841673 2.299688218e-13)
(0.01426274211 -0.04006778551 2.370326158e-13)
(0.009714969762 -0.02201438698 1.304234498e-13)
(0.009105685166 -0.02117837063 1.222910662e-13)
(0.007058589959 -0.01541877063 8.908151994e-14)
(0.007669632809 -0.0163238192 9.676981438e-14)
(0.001922454265 -0.003461907758 2.056688153e-14)
(0.001678942862 -0.003102987144 1.795785742e-14)
(0.0005452764545 -0.0009589682656 5.551115123e-15)
(0.000686324469 -0.00117603509 6.994405055e-15)
(0 0 0)
(0 0 0)
(0 0 0)
(0 0 0)
(0 0 0)
(0 0 0)
(0 0 0)
(0 0 0)
(0 0 0)
(0 0 0)
(0 0 0)
(0 0 0)
(0 0 0)
(0 0 0)
(0 0 0)
(0 0 0)
(0 0 0)
(0 0 0)
(0 0 0)
(0 0 0)
(0 0 0)
(0 0 0)
(0 0 0)
(0 0 0)
(0 0 0)
(0 0 0)
(0 0 0)
(0 0 0)
(-0.001041571194 -0.001938481512 9.964251646e-15)
(-0.000949591105 -0.001727191503 9.076073226e-15)
(-0.0008126940865 -0.001444046564 7.771561172e-15)
(-0.004041868235 -0.007874244694 4.241051954e-14)
(-0.004342543321 -0.008658558378 4.556077737e-14)
(-0.006584944205 -0.01378757112 7.259470802e-14)
(-0.006217384196 -0.01272089794 6.855627177e-14)
(-0.01321099374 -0.03180209961 1.717515019e-13)
(-0.01345504438 -0.0331383274 1.748046152e-13)
(-0.01528772173 -0.04000928936 2.111644193e-13)
(-0.0150870815 -0.03859617593 2.085415174e-13)
(-0.01790831853 -0.0565402142 3.057276654e-13)
(-0.01796840732 -0.05801394077 3.063937992e-13)
(-0.01786269323 -0.06259438943 3.305689056e-13)
(-0.01776186742 -0.06087867236 3.291811268e-13)
(-0.01436667677 -0.06650331386 0)
(-0.01439408512 -0.06808787756 0)
(-0.0127115067 -0.06811804807 0)
(-0.01269795486 -0.06732603961 0)
(-0.01268462254 -0.06653395345 0)
(-0.007655845837 -0.06662411592 0)
(-0.007661915537 -0.0670197649 0)
(-0.007245296844 -0.06702695722 0)
(-0.007239265991 -0.06663141799 0)
(-0.0004295929779 -0.06685114812 0)
(-0.0004378173738 -0.06704837992 0)
(-0.000444715716 -0.06724567296 0)
(-3.673584774e-05 -0.06724854496 0)
(-2.098903418e-05 -0.06685432621 0)
(0.00621213782 -0.06693771929 0)
(0.006184645938 -0.06772681966 0)
(0.006156826807 -0.06851569306 0)
(0.007831736233 -0.06854237127 0)
(0.007885257656 -0.06696359122 0)
(0.007049009291 -0.06695073464 0)
(0.01236647176 -0.06403823549 3.431699369e-13)
(0.01215430857 -0.06461451498 3.382988334e-13)
(0.01294211401 -0.0607588287 3.18051141e-13)
(0.01328390582 -0.06078779114 3.256839243e-13)
(0.01334604388 -0.04517752701 2.420563749e-13)
(0.01286593877 -0.0446233754 2.336048022e-13)
(0.01192408648 -0.03802480258 1.991184995e-13)
(0.01242661479 -0.03868428185 2.073202721e-13)
(0.007546347834 -0.0189082371 1.014743845e-13)
(0.007092011276 -0.01819537444 9.540979118e-14)
(0.005186099648 -0.0124927779 6.553091403e-14)
(0.005586091068 -0.01314234766 7.058242879e-14)
(0.0007938870593 -0.001580074445 8.493206138e-15)
(0.000645352829 -0.001315120763 6.911138328e-15)
(5.116545678e-05 -9.924147596e-05 5.134781489e-16)
(9.775487618e-05 -0.0001851778728 9.992007222e-16)
(0 0 0)
(0 0 0)
(0 0 0)
(0 0 0)
(0 0 0)
(0 0 0)
(0 0 0)
(0 0 0)
(0 0 0)
(0 0 0)
(0 0 0)
(0 0 0)
(0 0 0)
(0 0 0)
(0 0 0)
(0 0 0)
(0 0 0)
(0 0 0)
(0 0 0)
(0 0 0)
(0 0 0)
(0 0 0)
(0 0 0)
(0 0 0)
(0 0 0)
(0 0 0)
(0 0 0)
(0 0 0)
(-0.0009877508194 -0.002014335988 9.492406861e-15)
(-0.001116241949 -0.002228910176 1.071365219e-14)
(-0.001192772545 -0.002331116764 1.146305273e-14)
(-0.004809221063 -0.01030421764 5.068168107e-14)
(-0.004654643649 -0.01018940405 4.90579799e-14)
(-0.00694136883 -0.0159563341 7.686906667e-14)
(-0.007126493294 -0.01603452198 7.890910148e-14)
(-0.01405750574 -0.03720361244 1.834365992e-13)
(-0.01383080041 -0.03738820202 1.804112415e-13)
(-0.01563632392 -0.04490997782 2.167988011e-13)
(-0.01585761379 -0.04459518542 2.199768145e-13)
(-0.01831113344 -0.06354882447 3.1366576e-13)
(-0.01816357411 -0.06434729163 3.108208135e-13)
(-0.01791733359 -0.06890551601 3.328171072e-13)
(-0.018023772 -0.06791834321 3.352040867e-13)
(-0.01429043414 -0.07286053135 0)
(-0.01431961425 -0.0744453202 0)
(-0.01263233871 -0.07447638735 0)
(-0.01261775204 -0.07368417699 0)
(-0.0126031586 -0.07289159851 0)
(-0.007541405599 -0.07298479862 0)
(-0.007555999042 -0.07377737711 0)
(-0.006712398084 -0.07379291001 0)
(-0.006705097974 -0.0733964367 0)
(-0.006697804641 -0.07300033152 0)
(-0.00711960512 -0.07299256507 0)
(-0.0007924150812 -0.07310906519 0)
(-0.0007997077084 -0.07350517038 0)
(-0.0008070074662 -0.07390164369 0)
(3.661941291e-05 -0.07391717707 0)
(5.121285589e-05 -0.07312459858 0)
(0.005956577857 -0.0732333318 0)
(0.005927397749 -0.07481812065 0)
(0.007587715162 -0.0745624295 3.57880392e-13)
(0.00763823419 -0.07320635482 3.589767372e-13)
(0.01153187446 -0.06615325846 3.240324675e-13)
(0.01124820601 -0.06612631611 3.171074514e-13)
(0.01178451648 -0.06102196568 2.925854004e-13)
(0.01212690885 -0.06132229808 3.003292059e-13)
(0.01120092997 -0.0416430797 2.03989603e-13)
(0.01074840768 -0.04086288649 1.959682416e-13)
(0.009571588253 -0.03341037787 1.602745714e-13)
(0.01022728396 -0.03493408241 1.711686348e-13)
(0.005351863513 -0.01468969931 7.206735209e-14)
(0.004663708467 -0.01307757723 6.281086762e-14)
(0.003167731777 -0.008339941363 4.00651734e-14)
(0.00360981793 -0.00930162377 4.565792189e-14)
(0.0001328625626 -0.0002897174702 1.415534356e-15)
(6.001248683e-05 -0.0001337303265 6.383782392e-16)
(0 0 0)
(0 0 0)
(0 0 0)
(0 0 0)
(0 0 0)
(0 0 0)
(0 0 0)
(0 0 0)
(0 0 0)
(0 0 0)
(0 0 0)
(0 0 0)
(0 0 0)
(0 0 0)
(0 0 0)
(0 0 0)
(0 0 0)
(0 0 0)
(0 0 0)
(0 0 0)
(0 0 0)
(0 0 0)
(0 0 0)
(0 0 0)
(0 0 0)
(0 0 0)
(0 0 0)
(0 0 0)
(0 0 0)
(0 0 0)
(-0.0002307236649 -0.0005098770708 2.220446049e-15)
(-0.0004186419496 -0.0009072926849 4.024558464e-15)
(-0.0006219573381 -0.001321375997 5.967448757e-15)
(-0.00356692963 -0.008310226868 3.760880496e-14)
(-0.003047668159 -0.00724464812 3.214095656e-14)
(-0.004962668169 -0.01238969065 5.498379529e-14)
(-0.005613432971 -0.01373422234 6.217248938e-14)
(-0.01212012856 -0.03486582966 1.580680031e-13)
(-0.0112373631 -0.03299025142 1.466049504e-13)
(-0.01303333163 -0.04064353436 1.806887973e-13)
(-0.01392960003 -0.04256498367 1.930539062e-13)
(-0.01686958824 -0.0634976074 2.882000194e-13)
(-0.01612808346 -0.06193388899 2.755295991e-13)
(-0.0162442784 -0.06765395947 3.009953398e-13)
(-0.01687782008 -0.06891406039 3.127775816e-13)
(-0.01424464866 -0.07834777678 3.553823902e-13)
(-0.0140268428 -0.07860069342 3.495120859e-13)
(-0.01263541312 -0.0801340618 3.562150575e-13)
(-0.01271194134 -0.07918449592 3.590322484e-13)
(-0.007658139587 -0.07932469027 0)
(-0.007687326473 -0.08090984724 0)
(-0.006000087744 -0.08094091372 0)
(-0.005970900858 -0.07935575674 0)
(-0.006814538629 -0.07934022317 0)
(-0.0009091478585 -0.07944895686 0)
(-0.0009383347445 -0.08103411383 0)
(0.0007489150282 -0.08106518051 0)
(0.0007781019142 -0.07948002354 0)
(0.005793557857 -0.0788628468 3.56048524e-13)
(0.005685494189 -0.07918116326 3.505112867e-13)
(0.007126376996 -0.07677930671 3.397698789e-13)
(0.007309315801 -0.07708479327 3.479022626e-13)
(0.01030802455 -0.06458497211 2.912947661e-13)
(0.009862791709 -0.06301721842 2.787076125e-13)
(0.01005564297 -0.05650761963 2.499112028e-13)