/*--------------------------------*- C++ -*----------------------------------*\
| =========                 |                                                 |
| \\      /  F ield         | OpenFOAM: The Open Source CFD Toolbox           |
|  \\    /   O peration     | Version:  v1912                                 |
|   \\  /    A nd           | Website:  www.openfoam.com                      |
|    \\/     M anipulation  |                                                 |
\*---------------------------------------------------------------------------*/
FoamFile
{
    version     2.0;
    format      ascii;
    class       volScalarField;
    location    "0.31";
    object      p;
}
// * * * * * * * * * * * * * * * * * * * * * * * * * * * * * * * * * * * * * //

dimensions      [0 2 -2 0 0 0 0];


internalField   nonuniform List<scalar> 
12556
(
762.932858
762.1850773
760.2867307
756.2458729
750.2392944
737.3548772
715.921968
681.2641952
628.6888645
552.240396
447.0163728
311.6854452
151.4782166
-20.93116776
-189.1668523
-339.1046672
-462.9311446
-559.1709755
-630.3315987
-680.3227463
-722.1898161
-741.1903431
-752.1634678
-757.2329407
763.4032577
762.9658647
761.687886
758.8089318
752.8392325
741.9986196
723.1787781
695.2514394
648.3822161
578.0784683
477.9203857
344.3276558
180.5837927
0.8134867238
-177.5368189
-335.3938846
-464.0439238
-562.5900016
-641.7251009
-688.6500428
-729.7237669
-746.3621531
-756.023561
-760.471524
764.4858351
764.738588
764.9138339
764.4204079
760.5980509
754.2409341
741.6860046
718.1292146
679.7229154
617.4573588
519.2094101
374.9321254
189.6262485
-11.83374059
-205.4110573
-372.8931388
-503.3771771
-596.8528483
-673.1574067
-712.2073281
-747.0733321
-758.7153786
-765.4441111
-768.4329444
765.6327006
766.8608406
769.1392573
771.9482469
771.7265167
771.8241059
768.7393647
754.7782
731.5032404
682.6157717
587.7642325
427.1120742
198.7261051
-56.57446859
-281.5173757
-452.936551
-577.1456919
-660.3603466
-722.3616947
-748.0245865
-772.1067098
-776.8653843
-779.1694776
-780.0165447
765.8539877
768.193248
772.8783314
779.7050038
783.451085
792.1653062
800.9609934
802.0798965
800.5146623
778.6436194
707.1589711
532.16289
216.8041171
-153.6116815
-432.6726443
-603.2691402
-698.7598819
-750.9454069
-787.4647534
-794.0393879
-801.2541494
-797.5800232
-794.4861292
-792.7662962
764.0496576
767.4928801
774.5271109
785.3839666
794.3355739
811.8182055
834.0606952
852.682367
883.3384205
913.735016
913.0625662
774.682346
277.6462854
-369.2194771
-715.5624591
-838.1444022
-869.0157481
-869.0067031
-863.9273063
-844.9008724
-831.0014938
-817.7668763
-808.615576
-804.1413865
759.1711843
763.5747366
772.6215668
787.0088409
801.2240698
826.7338608
861.2947212
898.2694898
964.7581472
1064.597934
1209.950435
1356.203782
563.8861407
-975.42704
-1202.010262
-1156.421863
-1076.640926
-1001.246642
-942.7844167
-893.7813601
-857.3224556
-833.7562851
-818.741647
-811.6667139
750.3161329
755.4146435
765.9066701
782.7737583
801.6907744
833.0524099
876.3366557
928.4452338
1022.004321
1172.255993
1429.106542
1945.481317
-2620.777596
-1887.76871
-1506.315984
-1278.472819
-1123.489688
-1008.086783
-932.2054081
-873.3220916
-841.6053277
-822.0499307
-812.8306897
736.8042763
742.242694
753.424628
771.4568983
793.8435642
828.1115714
875.3052955
935.4059413
1037.809496
1190.208614
1401.705189
1642.362107
-4021.676376
-2389.102522
-1750.142981
-1414.115344
-1202.375934
-1044.282161
-950.415241
-874.7651675
-838.1448362
-816.0132878
-805.5065445
718.2671265
723.6550263
734.7000306
752.4658628
776.8726007
810.8978576
857.1097919
918.066444
1013.951858
1142.367789
1286.098449
1404.12504
-3749.732069
-2390.501441
-1775.79459
-1433.326498
-1213.244166
-1040.475405
-942.3988603
-859.0137619
-821.6698798
-799.2016481
-788.4772671
694.6959394
699.6714809
709.8061629
725.9202897
751.0094489
782.0176919
823.3561839
879.8193502
961.9392171
1063.856728
1168.38457
1255.598269
-2825.763279
-2024.526587
-1602.249194
-1338.098096
-1153.985895
-995.5569018
-907.5427022
-825.8089239
-792.0146003
-771.451247
-761.5569787
666.4138302
670.6726886
679.3328667
692.3869761
717.6759765
743.0897982
776.8377551
825.2715141
890.5446283
968.8467086
1052.332373
1145.650312
-1855.010808
-1518.176083
-1316.375238
-1163.482865
-1040.669749
-917.6807152
-849.9201103
-777.5061969
-750.7519649
-733.817262
-725.5887506
634.0501014
637.3833007
644.2833784
654.1022329
676.6104014
696.0787403
720.478736
759.0670182
805.4010726
859.1722109
920.3349456
1017.49318
-756.3626111
-959.8001387
-1025.794318
-1004.898362
-957.7072221
-899.8541377
-820.4498374
-776.4425749
-719.1930712
-700.7790145
-688.3160523
-682.2534121
598.3866056
600.7045507
605.6688223
612.4314045
631.2086855
644.2751409
658.9985398
686.1941445
712.1810973
736.9387848
758.2623116
820.1650856
246.4285224
-403.1582119
-640.3405376
-731.8778758
-760.844733
-754.4377318
-717.4234907
-695.4254161
-656.0211593
-645.2797862
-637.44557
-633.710654
560.3190125
561.5417207
564.2583036
567.6991286
582.8608024
588.8001824
594.2325022
608.4605527
613.8908196
608.5898919
580.1340342
498.5016154
205.1534283
-168.9777185
-399.1493576
-526.5751024
-594.4794847
-623.1560708
-617.514847
-614.5068343
-591.062926
-587.127189
-583.745948
-582.2028877
520.7660314
520.9581736
521.4777158
521.7615327
533.3203031
533.0232683
530.3194695
532.9546913
521.8607039
495.1673991
439.0328317
330.3009828
151.9832169
-78.27961825
-259.8603939
-385.8218895
-466.199707
-512.5118744
-527.5033279
-537.9403726
-527.263454
-528.9910568
-529.4674205
-529.7695198
480.6434179
479.9564441
478.5857721
476.1629356
484.315847
478.8285403
469.6057473
463.4163462
440.4700056
402.0275814
339.5276827
242.2752587
117.5069837
-40.13826662
-179.4260606
-289.4988873
-369.4155142
-422.3428569
-448.8918557
-467.967872
-466.9807105
-472.9972194
-476.4353478
-478.1016148
440.7844377
439.3882989
436.4930914
431.9163611
437.045002
427.6207888
413.6355914
401.5853839
372.1964162
329.5063324
269.5115881
190.2069738
92.76406108
-23.65975992
-132.5375321
-224.989967
-297.0410071
-349.6718652
-381.8328234
-405.6906548
-411.4913224
-420.3860638
-425.9063504
-428.5067043
401.8622418
399.9240702
395.8625776
389.6864318
392.3846765
380.2375713
363.2235039
347.6102787
315.7094656
272.8641912
218.0512621
152.3477715
73.17856273
-17.37251625
-104.0335349
-180.33117
-243.0579889
-292.1615753
-325.7517291
-351.3161843
-361.2515747
-371.8235416
-378.6273831
-381.8593273
364.391363
362.0751846
357.1974068
349.9442145
350.8090837
337.012347
318.3225959
301.0709822
268.960184
228.1709431
179.0195919
122.8164699
57.54134941
-14.9686613
-84.74769491
-147.8394996
-201.8197345
-246.0523956
-278.8598302
-304.208063
-316.3269425
-327.6316983
-335.0739178
-338.6148335
328.7416514
326.1990871
320.8283021
312.9528246
312.5373134
297.9534267
278.6201587
261.0620826
230.1274949
192.4295831
148.8455933
100.4799419
46.07752022
-13.33590817
-70.59248454
-123.2456772
-169.5320374
-208.7155212
-239.3865765
-263.4887958
-276.450057
-287.7959278
-295.3877975
-299.0090043
295.1523628
292.5110696
286.9239492
278.8042025
277.5543058
262.8493484
243.7099894
226.6133633
197.6280432
163.4092331
124.9972333
83.32456718
37.37117533
-12.0237363
-59.67974319
-103.9789187
-143.6581449
-178.0462443
-205.9694702
-228.2718499
-241.1742746
-252.1015056
-259.5067025
-263.0458904
263.7445406
261.1049375
255.5216047
247.4614048
245.7110667
231.3824452
213.0117042
196.8337183
170.1829716
139.5002202
105.7533532
69.74552956
30.63776149
-10.86767994
-50.93627325
-88.44583129
-122.4863056
-152.4953869
-177.4966743
-197.7363365
-210.008396
-220.235769
-227.2381873
-230.5892601
234.5417472
231.9797501
226.5642242
218.7900645
216.8077899
203.1929044
185.9964026
170.9492505
146.7858853
119.5201151
89.94426436
58.77686514
25.33823761
-9.794525451
-43.71686453
-75.62113669
-104.8424331
-130.9264992
-153.0498885
-171.1628912
-182.4721442
-191.8440811
-198.3140927
-201.4128054
207.4952143
205.0663131
199.9354581
192.6055229
190.5962162
177.9117838
162.1044421
148.3357112
126.6584562
102.5974999
76.74874984
49.76061546
21.09875457
-8.775042956
-37.61620972
-64.82502083
-89.90855273
-112.5055084
-131.903413
-147.9384665
-158.1123363
-166.5595277
-172.4294236
-175.2417107
182.505292
180.2481784
175.4818032
168.7003727
166.8159007
155.1911213
140.8574431
128.4542102
109.1867012
88.08483212
65.57422559
42.23187824
17.65385978
-7.800510984
-32.36727309
-55.58963376
-77.0977645
-96.60597267
-113.4767596
-127.5433183
-136.5126786
-144.0227694
-149.2681813
-151.7812289
159.4347824
157.3746854
153.0241976
146.8551341
145.2100192
134.709593
121.8753525
110.8561597
93.88367256
75.49730288
55.98983563
35.85599923
14.81068045
-6.870907297
-27.78749195
-47.58385362
-65.98032682
-82.75163733
-97.30658332
-109.5415811
-117.2967224
-123.8923967
-128.5170985
-130.7320178
138.1203629
136.2721737
132.3675471
126.8453876
125.5233571
116.1691941
104.8218896
95.16214952
80.35580246
64.45962841
47.6651197
30.38287177
12.42666202
-5.9888179
-23.74565242
-40.56351294
-56.23042043
-70.56958581
-83.01272337
-93.56045564
-100.1268114
-105.850219
-109.8746913
-111.8008988
118.3834009
116.7546222
113.310344
108.4486042
107.5137869
99.29943616
89.42931552
81.05423858
68.28567906
54.67734624
40.34536887
25.62052662
10.39531093
-5.156821973
-20.14406338
-34.34367075
-47.59578735
-59.76357644
-70.28233079
-79.2826193
-84.70153662
-89.60417241
-93.05762611
-94.70886014
100.0381573
98.63107538
95.65094887
91.44890409
90.95016435
83.85090175
75.42553451
68.27286918
57.41365219
45.91343605
33.82978372
21.41918589
8.634403008
-4.376373692
-16.90631318
-28.77842211
-39.87349677
-50.088942
-58.85342605
-66.43371853
-70.75205263
-74.88755303
-77.80267666
-79.19455047
82.8885181
81.7032317
79.1852238
75.63029109
75.62340093
69.59700627
62.56100697
56.59810506
47.52367849
37.9735044
27.95719998
17.65880068
7.07967804
-3.647619439
-13.97072263
-23.75008176
-32.89771373
-41.3287205
-48.50507797
-54.77448437
-58.03141563
-61.45324747
-63.86230668
-65.00975444
66.76639779
65.79902069
63.73795955
60.81551409
61.31910125
56.32976242
50.55810121
45.84191904
38.42943576
30.69341296
22.59407546
14.24103701
5.679969599
-2.969502579
-11.28581776
-19.1617227
-26.53557518
-33.33653808
-39.02110804
-44.08929345
-46.33760378
-49.09132411
-51.02459948
-51.94325893
51.39387866
50.65032979
49.04817488
46.73383969
47.8881972
43.85839127
39.29148385
35.7974656
29.96097397
23.92835234
17.62262516
11.08142408
4.392876014
-2.339618467
-8.806040173
-14.92838974
-20.67026909
-25.99805296
-30.21983871
-34.18487741
-35.40355092
-37.54508309
-39.02419294
-39.71944923
36.91432768
36.36902222
35.21450729
33.55221961
34.90430787
32.00130542
28.61335121
26.30508054
21.97037634
17.54967035
12.93830433
8.106109733
3.182434071
-1.754090892
-6.489824928
-10.97273967
-15.18781415
-19.11876006
-21.98545624
-24.86049115
-25.31816676
-26.83419126
-27.88279999
-28.38344033
21.96164763
21.70800017
21.02255829
20.02147022
22.47442767
20.60756878
18.3544077
17.21942654
14.32745303
11.43766533
8.439397036
5.246065445
2.018072787
-1.20691761
-4.297669699
-7.223713205
-9.9862728
-12.58890841
-14.1600004
-16.05260938
-15.10516668
-16.01394329
-16.62984275
-16.86283582
11.48232526
11.21407874
10.8509833
10.24980546
10.3230879
9.359170649
8.288902781
8.410476684
6.925225775
5.472836573
4.009996864
2.42498057
0.8807859895
-0.6863422289
-2.189185326
-3.61581449
-4.973033872
-6.274709476
-6.510059627
-7.381259443
-7.910656021
-8.383233793
-8.683749745
-8.915560595
1686.043294
-4300.448337
-2772.631835
1426.909731
-4083.926691
-4361.316247
1270.883777
-3072.720834
-3980.82361
1159.53383
-2018.846437
-2936.589104
1027.519558
-809.9298484
-848.8346721
-1071.411592
-1893.243241
846.6042966
334.9333973
-763.3682053
198.5471767
-413.5181075
-965.155953
1919.55159
772.9653274
-2426.773727
-790.8191325
-5647.469398
-3502.770702
-3957.164227
-2549.935001
-2029.515465
1316.254592
1415.558735
1615.284405
-5798.355254
-6091.328707
-3836.194267
-2679.968437
-2645.549597
1197.261629
1261.404671
1393.355164
1341.219277
1367.122946
1448.799113
-4271.168347
-5072.399604
-2949.405164
-2303.699772
-2620.451807
1081.993689
1146.595175
1245.770658
1213.27822
1245.651838
1287.818773
-2822.174046
-3435.334314
956.1025215
1020.285307
1132.348427
1094.409783
1149.787868
1197.804955
-1589.464482
-1544.37537
-2087.990016
800.3002693
840.9276959
1001.886853
947.9256479
1015.36519
1080.673292
565.2485019
314.3205936
346.3929113
2096.305612
1720.498704
2649.4944
2175.674049
-6099.02165
-5708.434808
-3891.482488
-5460.904302
-5939.894641
1459.406534
1535.728719
1504.121415
1536.896539
1462.210994
1688.869636
1549.836913
-5120.307203
-5766.430747
-4258.83855
-5638.400723
-5031.777014
-5934.977918
-5668.241807
-4288.444629
1295.118654
1356.299212
1322.186755
1361.727891
1296.208399
1456.695712
1367.7686
-3526.180101
-4213.839046
-3478.056988
-4112.163474
-3456.417412
-4984.749715
-4215.362277
-3610.52247
1201.265333
1243.384563
1199.892504
1246.246723
1205.034226
1292.302836
1248.258948
-2167.542471
-2737.779211
1085.071619
1146.419876
1085.9919
-1546.730984
1151.275102
1089.553697
1201.468438
1154.688766
-1586.792623
-990.1589934
-1468.586312
-1540.99189
1037.94014
1011.605021
935.7423029
-37.49348444
1017.524421
931.0643341
1085.197631
1020.334399
-112.9072477
1423.790874
1652.646815
1838.10949
1880.68674
2140.131666
2507.99758
-6955.504091
-4289.225025
1533.939029
1549.314589
1693.477048
-3370.660606
-1972.716303
-1728.422468
-2168.714138
-1981.411532
-1925.534978
-2210.911829
-167.516877
-479.4678685
-851.5537756
1725.047851
2071.673304
1833.79264
1783.91498
3521.82711
2906.351711
-3342.775311
-5315.562978
-3669.396603
-2257.662438
-2565.48321
-2405.070771
-2695.398242
-2142.2422
-3369.031329
-2777.072712
-2536.418636
-1152.360415
-301.4660379
-453.7419973
1243.2331
1953.429013
2628.719966
-3046.569311
-843.608431
968.8146173
-7075.774475
-5040.362758
-6870.81999
-4106.17176
-6707.364624
-4715.11515
-5943.464795
-5965.630457
-4651.223655
-4705.536507
-2982.480907
-3303.383312
-3079.450314
-3282.352762
-2955.802207
-3688.391783
-3331.191598
-3167.126219
1172.058799
1146.123104
1124.569906
-1576.09335
-1838.493987
-1905.639218
1046.736451
1013.716975
984.0487142
1050.03176
1023.035979
1050.512917
2086.645266
1815.201293
1897.463574
1827.786288
2112.506213
1657.425828
1798.864279
1844.828699
2519.761261
2856.160239
3365.895559
2173.19469
2754.767059
2436.266472
2785.415326
2156.862067
-6031.756123
-6013.142914
1500.876481
1538.472575
1495.697931
1615.084847
1580.562504
1648.405328
1540.675497
1574.053081
1596.122974
-5425.523404
-5465.364124
-5368.956662
-4791.002103
-4937.228257
-4539.544931
-4733.550708
-5329.538676
-5839.36434
-5077.547116
-5075.793356
-4976.278979
-5061.84523
-5818.424318
1327.760648
1323.002559
1416.164426
1409.552262
-3809.038006
-3726.698321
-3859.226607
1227.793968
1224.747093
1268.359835
1265.478951
-2906.897704
-2589.461193
-2489.720713
-2609.077982
-2928.484007
1110.671003
1084.208504
1058.6291
1116.949232
1092.710169
1116.003991
-1201.04671
1119.704534
1113.898318
1178.297254
1175.734582
-1913.480565
-1201.955262
-1229.890037
-1489.343901
973.0281603
938.960618
939.5768721
956.9526478
484.4791597
186.455264
1056.086152
-290.2821409
142.6087844
-205.7351558
1052.984486
-363.1629783
-238.5440572
109.6486147
-5301.505264
-2124.624943
-2273.553144
622.590122
587.0787293
807.6894986
700.9885883
720.2182036
972.3190798
218.4926413
-119.4928689
-302.4479835
4473.86708
-2307.27731
-2469.233782
-896.9481315
-1144.579658
-1154.638398
-133.3998131
-375.6461654
-95.9408576
1981.066173
2685.371147
3501.503644
-3702.756864
-918.6852688
1211.159935
-5870.763537
-6591.175432
-6497.960441
-6048.830582
-4432.606412
-4622.468391
-4429.349337
-5332.861274
-5171.076139
-4921.501519
1263.683026
1248.342132
1229.613392
1276.141421
1254.957218
1266.883063
1173.261615
1152.990053
1174.902243
1028.117467
1013.495342
998.485649
875.4550431
635.6659739
374.4467214
-6085.308416
-6581.48637
-6628.793794
-5839.988666
-4863.288999
-4565.056496
-5056.423022
-4930.683218
-5852.787766
-5257.891976
-5532.788693
-5388.372046
-5649.615447
1318.55209
1307.811933
1283.665588
1301.02176
1310.500143
1306.888687
-4368.983998
-4194.950828
-4058.587249
-3819.727666
-3580.071378
-3826.799228
-4634.894359
-4238.025938
-4467.917071
-3909.840128
-4157.492055
-4582.816569
1221.686196
1199.079218
1179.886086
1223.579758
1205.335983
1224.693393
1239.640869
1251.92451
1254.865587
1216.056235
1231.492252
1214.886164
1281.670289
1285.322327
1297.364395
1255.478017
1259.38633
1254.758304
-2408.599331
-2545.957455
-2251.066922
-1395.376898
-1398.447602
1140.035812
1092.616534
1190.439899
1196.966251
1213.128767
1181.424046
1163.725371
-1719.161024
826.9783384
928.4454934
894.1097853
993.1159081
974.1800573
993.0559243
152.8872171
391.4250097
154.9008148
1001.811313
451.8555109
698.5559595
520.2821145
607.6099509
1067.969471
1034.4184
-6314.516623
-5129.664087
-5961.368207
-3503.99038
-3564.493281
-1944.204443
-2079.155752
-2092.521645
1724.062649
1704.026362
3373.240399
3819.234993
4171.100606
3627.570973
3270.887941
-2637.968815
-2474.928596
-2430.679251
-2478.868516
-2656.150666
-1163.713624
-992.2598466
-1003.856398
-995.8332385
-1166.403431
-780.5644092
-948.258557
-548.4445749
-571.8993483
-732.14673
-364.3963942
-519.5380245
-449.9498089
-7160.445636
-6256.048687
-5799.124768
-6607.692148
-6367.662441
-5614.527548
-4913.737889
-5897.810959
-6310.251168
-6224.738741
-5887.453261
-6030.290043
-6459.544703
-6346.230267
-4863.28511
-4684.097181
-4487.978132
-4740.02412
-4930.275029
-4487.139927
-4682.602678
-4985.909758
-4868.476472
-5117.625721
-4922.321544
-3119.261594
-3177.860797
-3147.216961
-3065.320918
-3199.978989
-3539.754446
-3434.993203
-3579.004342
-3245.073381
-3387.413288
-3486.62308
-1781.519923
-1758.260902
-1895.952216
1031.851381
1018.464267
1029.503757
1060.154506
1049.0108
1036.692215
1947.841933
1911.36151
1925.64465
1965.827193
1865.791354
2137.127665
2004.181099
1965.010781
1711.419369
1743.481008
1690.352886
1837.089569
1764.153185
1732.227728
2386.00441
2361.418568
2189.487074
2473.893765
2379.745678
-6614.52911
-6584.042326
-6075.703569
-6738.535726
-6808.444762
-6708.031757
-6743.395809
-6677.216349
-6840.172959
-6749.3243
-5917.490463
-6533.0145
-6623.916249
1515.519321
1518.134125
1505.899015
1539.369021
1523.381382
1522.482328
1489.822252
1479.181127
1503.295629
1493.072279
1604.570702
1626.752102
1598.43771
1675.83269
1637.719215
1613.220158
1556.530477
1562.750239
1544.657349
1590.296382
1569.31508
1563.298493
-5706.833352
-5578.762553
-5301.547367
-5601.44238
-5892.420821
-5740.232389
1344.351698
1331.280809
1365.780462
1347.940183
1311.261563
1302.904611
1326.152665
1313.832931
1448.470855
1427.275996
1474.602711
1455.468677
1391.505693
1371.039858
1420.171905
1398.849356
-3818.485091
-3973.525192
-3628.079253
-3771.709878
-3866.622948
-4243.482555
-4421.680785
-4024.367904
-4189.382884
1236.600737
1248.922286
1236.973997
1254.038827
1238.556119
1257.4183
1257.636298
1236.030677
1216.988143
1231.617074
1233.484654
1273.714964
1281.446128
1277.883583
1284.032205
1276.014461
1299.152436
1287.125432
1259.863194
1257.186255
1270.029966
1261.586896
1257.199514
1261.328331
1269.98276
-2664.709887
-2747.638138
-2811.859385
-2652.711778
-2860.425298
-2790.698323
-1176.569478
-1352.864655
-1382.097911
-1176.328152
1136.197176
1098.793541
1186.382941
1193.066434
1186.997884
1167.174754
1185.460308
1185.672827
-1799.459531
982.9443746
966.8310562
948.1338991
644.7755526
551.2095309
993.9067125
270.1375729
426.9557575
319.9863067
1061.990432
-442.5314578
-10.36246281
214.0858985
-55.499322
1028.592164
-2336.419984
-1806.325446
-1191.785036
-2260.605446
-2312.874324
-1090.462495
-1150.299024
-1578.649231
-2321.676966
-956.320465
-945.9393279
-785.6805796
-2064.994394
-1567.638399
-1525.414741
2423.686772
3415.554737
4308.335598
-4092.936206
-974.7837333
1542.672306
-1528.252819
-1143.18204
-2962.740148
-5371.861032
-6073.862991
-6331.399728
1402.162755
1385.772563
1354.357586
1429.377452
1396.581131
1414.149219
-1574.557608
-1711.753916
-1723.029657
-2164.608873
-1906.748663
-1851.086896
1066.582373
1053.872436
1065.318164
-6400.258409
-6510.053237
-5886.770719
1344.389469
1316.474593
1327.236549
1346.400632
1348.246098
1365.229314
1370.672679
1390.116095
1384.904206
1092.066635
1082.473648
1071.148527
-1559.851835
-1514.679207
-1503.614661
1094.034567
1099.651738
1093.103465
-1654.349796
-1666.214811
-1572.493712
-1396.823899
-1387.923261
-1527.70914
1013.753994
1081.001231
1087.124085
1090.074812
1021.076994
-6855.046871
-3406.357692
-1962.700317
-2028.700711
-2035.245065
-2255.657977
-2114.846673
-2080.245497
1756.945196
-4429.083152
-3907.341657
-4678.41972
-2387.508128
-2441.865399
-2298.145394
-782.3115503
-796.8077305
-622.3198432
-627.5874404
-725.581565
-1849.584959
-1287.56056
-3617.758699
-7022.634987
-6667.161384
-6516.62899
-7080.523286
-7056.916306
-3028.021476
-3058.99914
-3011.272203
-3319.877125
-3311.696107
-3284.489419
-2884.310586
-3017.919612
-3094.419165
-3652.434017
-3601.796587
-3650.823974
-1898.508747
-1876.033512
-1907.983868
2031.592835
2088.131469
1846.143344
1858.057658
1874.004458
1843.255646
1668.056589
1684.4252
1670.181242
1814.586144
1788.490946
1772.952666
2623.170564
2428.35166
2472.025642
2673.290024
2669.802621
2815.965708
2146.226192
2206.260648
2222.448959
1506.067197
1505.838848
1508.924302
1538.213405
1533.765161
1534.503083
1493.137979
1491.348217
1507.977475
1503.771453
1589.582009
1595.147851
1586.875904
1657.600907
1645.194694
1637.219787
1543.240118
1545.943835
1541.873403
1579.849656
1574.587227
1570.827874
1330.50164
1343.831464
1341.121833
1311.024094
1313.682835
1325.816619
1424.512072
1444.785321
1434.02011
1439.895653
1432.241078
1488.32483
1481.504695
1376.76599
1424.662868
1417.161103
1391.48364
1397.049243
1417.66118
-3984.661823
-4045.751158
-3699.183571
-3755.527491
-3780.949035
-4104.383322
-4126.563665
-4005.314372
-4141.169437
-3982.476978
1099.681245
1086.979747
1096.266699
1130.980978
1117.218472
1104.575219
1123.101974
1130.403039
1125.792559
1108.603646
1111.61322
1116.768611
-1912.432698
941.4983504
947.4504886
940.0032998
711.1905166
950.829663
361.8886045
495.1098902
617.848232
1061.710876
1061.408899
1057.812766
-353.8675858
-198.5033782
-175.8111356
-190.9093551
1047.955841
1054.184626
1059.379273
-89.58429396
-167.6082862
-312.6803607
-2160.042896
-2202.122543
-2298.20814
-2252.292713
-2230.689654
4475.143917
4831.845904
4270.655732
-2360.266095
-2385.187477
-2309.000855
-2487.499683
-2434.769825
-2422.39384
-2223.841303
-1416.585485
-3948.227469
-6120.270366
-6124.083943
-6056.93588
-6094.40558
-6557.826358
-6401.996458
-6427.716349
-6350.089006
-6376.995323
-6528.797907
-5282.97892
-5202.505419
-5253.760041
-5091.944216
-5149.85455
-5230.461823
-6631.83904
-6451.516423
-6428.438134
-6451.227871
-6461.794369
-6649.685153
-5481.189745
-5399.684553
-5446.344308
-5304.692817
-5352.499209
-5437.222046
-5996.710904
-6026.765665
-5900.760873
-5951.876492
1253.451423
1249.247872
1247.25575
1219.444792
1216.507152
1212.738153
1224.465001
1221.006229
1225.099947
-1518.199434
-1569.413759
-1389.747214
-1466.474098
1151.57984
1150.80226
1157.546715
1153.098885
1093.686709
1093.141178
1099.839509
1090.216557
1202.28873
1200.194434
1195.645345
1209.238705
1205.041851
1208.380958
1166.00827
1164.101417
1174.624523
1159.836332
1165.989728
-1726.514334
-1718.713174
-1707.802513
-1573.836831
939.8373025
989.0610064
1126.869948
1000.727201
992.9825943
985.2439964
1009.117463
394.3248624
378.1313701
1103.181806
981.7050752
748.18869
1068.840696
1079.914347
1075.281286
1027.473463
-6597.196371
-6903.425448
-6622.823981
-5912.438899
-5630.482239
-4821.352202
-6393.405695
-6078.926187
-3449.732608
-3591.734122
-2089.645998
-2077.609189
-2086.211088
1739.081102
1679.07164
3990.640209
3821.34442
3683.092284
3111.0098
2967.754149
3504.349699
3285.210198
3404.602401
-2553.360514
-2491.59797
-2602.546404
-1011.629983
-1008.22851
-997.4000485
-1110.382771
-818.4581054
-798.872188
-785.4186858
-938.6770527
-881.8262352
-879.7396275
-553.8343433
-608.7031563
-606.3159022
-430.1248638
-435.7085198
-482.6724037
-6909.888939
-6793.090215
-7090.143396
-6531.729919
-6811.792942
-6873.743104
-7044.044303
-7014.967776
-6272.34884
-6165.935657
-6193.366468
-6133.306013
-6143.976377
-6239.838411
-6417.438018
-6285.838197
-6319.293683
-6223.271043
-6253.664984
-6380.710453
-4806.510665
-4733.071983
-4789.567495
-4801.319117
-4869.322961
-4541.617504
-4569.008249
-4531.393165
-4624.383296
-5047.623578
-5090.741707
-5050.35032
-4966.859253
-5030.407101
-4847.651337
-4907.604374
-4986.991482
-3156.433827
-3077.24735
-3065.249238
-3090.6481
-3025.636602
-3079.360365
-3237.92725
-3264.49212
-3206.369101
-3501.667072
-3546.287308
-3573.828366
1987.520879
1877.041357
1723.004664
1701.641849
1685.081767
1751.589968
1765.340373
1744.016155
2454.574339
2549.483176
2573.351816
2832.162183
2705.437097
2295.548242
2277.607503
2363.304738
-6601.689623
-6412.450844
-6410.47735
-6412.834235
-6412.624691
-6594.299856
-6768.418394
-6780.833996
-6739.24453
-6983.803163
-6943.946449
-6959.466646
-6989.636081
-6723.070049
-6837.448628
-6944.128549
-6957.409297
-6780.608576
1516.803131
1512.51298
1511.018095
1529.105298
1528.474941
1522.711339
1496.144953
1494.558776
1500.19764
1497.931795
1611.929247
1603.442226
1597.472262
1624.525732
1632.846851
1621.570711
1558.113469
1551.525184
1548.805734
1567.861278
1569.825879
1564.419631
-5668.472155
-5578.726695
-5617.858962
-5490.919617
-5535.264147
-5620.953475
-5838.711138
-5756.382854
-5836.470544
-5654.23857
-5697.370204
-5784.857703
1340.575428
1341.61235
1344.379529
1332.142268
1337.559979
1336.207092
1358.925698
1356.641978
1365.735807
1346.397146
1349.807674
1352.560628
1308.823994
1310.246484
1311.810152
1305.229155
1308.130392
1306.092766
1321.286094
1320.761374
1326.120962
1313.45373
1316.35293
1317.132115
1455.371773
1447.701838
1441.476621
1444.821596
1452.125498
1429.973505
1437.390904
1434.395298
1471.922634
1463.047582
1395.273871
1388.65439
1384.24647
1386.395412
1393.32757
1371.622471
1372.534159
1375.753664
1413.078239
1415.308085
1422.618302
1400.843453
1408.062189
1405.984167
1409.869302
1402.654831
-3902.665566
-3936.855984
-3842.029556
-3810.03854
-3843.191482
-4295.978211
-4328.100174
-4280.980661
-4460.508634
-4387.212792
-4354.588132
-4071.399138
-4106.011267
-4070.570825
-4231.251101
-4180.926066
-4130.811213
1240.115981
1237.199177
1233.675891
1244.500897
1240.981581
1244.553842
1247.836981
1242.180737
1257.891699
1258.084599
1234.933904
1226.48095
1222.487173
1223.216725
1224.316132
1230.26068
1227.503019
1231.908914
1273.154586
1276.465885
1286.400727
1277.967299
1295.055738
1296.632766
1301.174745
1289.209758
1292.709041
1291.134929
1258.390738
1257.458281
1265.692239
1263.347488
-2759.933121
-2742.135356
-2799.290042
-2642.274742
-2690.100457
-2723.890216
-2926.489831
-2968.563463
-2843.192472
-2854.718941
-2866.013191
-1319.311823
-1322.092055
-1376.171479
-1190.035974
-1251.310168
-1260.135006
1134.806916
1125.536364
1148.964965
1143.707494
1103.013262
1106.54159
1103.348702
1108.774179
1105.39422
1118.48786
1113.430258
1187.995641
1186.450873
1184.407363
1191.931817
1188.939438
1190.208686
1186.260453
1180.451077
1177.974469
1182.855724
1181.689337
1185.914844
-1856.390903
975.5621322
965.0755101
971.7978949
601.613101
620.3917756
684.1312096
558.9451446
566.4850499
547.6938525
985.1388307
366.8849361
313.7205693
246.169839
1059.107441
1060.159423
1061.35201
-420.6427997
81.53901757
22.15598531
195.7916325
183.0594414
196.3763074
3.21643314
-130.5476624
-111.5778672
-9.477516105
1039.042101
1049.975096
1043.471325
710.9243378
682.1356278
662.6260821
669.7826323
623.9805968
598.8906148
604.8109391
535.0649649
506.6254516
506.4109874
405.4100831
381.0191045
365.8268083
235.0044646
223.2809191
187.3591882
43.14576818
44.55058499
-6.329098874
-149.1191264
-135.2746957
-195.1074206
-321.948613
-298.6798222
-360.6528752
-461.145991
-434.5003645
-490.4726811
-564.4010305
-539.9832301
744.4744674
725.4421879
691.2824203
716.7930657
680.5011042
635.9289071
663.8875894
596.3851581
548.0052367
567.0193526
455.9037542
415.508408
410.8914245
254.5454513
238.7996928
196.4417701
17.43747628
39.00690646
-41.52755488
-206.7331523
-158.8401473
-256.6766047
-388.8812371
-333.8945448
-427.2635055
-526.6609392
-474.3685483
-554.7073748
-623.5988426
-576.4001315
789.6432502
785.0726786
739.0027352
781.7042917
762.106424
698.3043605
751.1373502
697.6754409
616.9849575
670.7224458
551.9685277
474.1277999
497.6667585
290.7130141
261.4459382
210.5242936
-42.63276242
6.268111043
-122.4485575
-329.2083838
-230.0801377
-385.7378257
-521.2110599
-414.9988191
-557.2627154
-642.3410044
-549.7168188
-663.8996451
-713.3181734
-643.359382
840.1616215
856.6202453
802.2288908
862.0814869
874.8749286
787.2092606
876.6323851
864.8954787
732.2604504
851.5357552
754.0094619
589.0007529
692.7911679
390.1568487
305.5758947
253.6459516
-172.391387
-65.79699866
-295.8778314
-566.8425569
-374.5105144
-628.1548623
-748.5910802
-568.2330238
-771.7746665
-814.148918
-680.2169296
-822.1589083
-835.3799536
-740.7633325
887.9229851
929.2353784
875.2159595
945.7555231
1004.953606
907.0649462
1028.163009
1106.095305
919.7120398
1132.619809
1181.731605
834.1841107
1164.001533
691.3913593
439.3515218
520.835041
-554.0344953
-229.3650134
-750.4258745
-1028.72828
-655.1739605
-1058.4643
-1075.480676
-820.3376636
-1069.570822
-1036.586703
-865.4929328
-1023.231248
-981.8802993
-870.473638
922.9270372
985.2939306
945.4275645
1011.323839
1110.800539
1035.834145
1153.091993
1321.466896
1169.182247
1397.367622
1815.665295
1333.425886
1611.779198
1709.773167
1247.577976
744.3352797
-552.6224919
-129.0569029
-1363.192543
-1364.626819
-1098.031945
-1711.797555
-1483.198183
-1173.964273
-1422.473682
-1272.826336
-1096.879987
-1231.449564
-1125.859111
-1019.259364
935.9943632
1008.061076
994.4213294
1037.785812
1148.459033
1127.456708