/*--------------------------------*- C++ -*----------------------------------*\
| =========                 |                                                 |
| \\      /  F ield         | OpenFOAM: The Open Source CFD Toolbox           |
|  \\    /   O peration     | Version:  v1912                                 |
|   \\  /    A nd           | Website:  www.openfoam.com                      |
|    \\/     M anipulation  |                                                 |
\*---------------------------------------------------------------------------*/
FoamFile
{
    version     2.0;
    format      ascii;
    class       volScalarField;
    location    "2.25";
    object      omega;
}
// * * * * * * * * * * * * * * * * * * * * * * * * * * * * * * * * * * * * * //

dimensions      [0 0 -1 0 0 0 0];


internalField   nonuniform List<scalar> 
12556
(
31.93100384
31.93186828
31.93278476
31.93360438
31.96673916
31.96738287
31.9680021
31.96925039
31.97170176
31.97579558
31.98158765
31.98786087
31.99156495
31.99118898
31.98691008
31.98094099
31.97556659
31.97123033
31.96931505
31.96776558
31.93408067
31.93294852
31.93188603
31.93086457
31.79468283
31.79728136
31.79991391
31.80217815
31.83600277
31.83831211
31.84170425
31.86268155
31.87375774
31.89260059
31.91955942
31.94876387
31.96877263
31.96901624
31.95129101
31.92359298
31.89716033
31.87772391
31.84968516
31.8416411
31.80464294
31.80099653
31.79779613
31.79494808
31.66010695
31.66463615
31.6691501
31.67279928
31.70721943
31.71198639
31.71982827
31.747666
31.77382694
31.81747232
31.87655205
31.94126935
31.98477507
31.98599111
31.94766894
31.88752038
31.8296219
31.78470772
31.7385095
31.72071306
31.67832131
31.67209609
31.66649152
31.66158325
31.52699114
31.53299452
31.53900338
31.54411215
31.58016832
31.58900059
31.60507746
31.64680655
31.70059155
31.78919433
31.91155218
32.04730037
32.13798225
32.13036361
32.03844875
31.91998509
31.80672115
31.71924152
31.64332742
31.60916057
31.55691892
31.54629954
31.53782459
31.53094691
31.39595601
31.40365529
31.41138773
31.41858682
31.45636254
31.47109451
31.50083399
31.56478012
31.66630142
31.84604493
32.12685926
32.48435265
32.72404511
32.66831291
32.39102925
32.10501383
31.86463531
31.69846918
31.57300193
31.51008368
31.4405624
31.42392752
31.41176765
31.40222247
31.26607971
31.27511507
31.28446398
31.29406301
31.3362588
31.36044586
31.41200814
31.50899871
31.68892857
32.0565309
32.76103132
34.03380542
35.11155068
34.60582283
33.43615212
32.6173598
32.07539796
31.74083829
31.53052206
31.42674576
31.33140129
31.3040892
31.28709579
31.27480747
31.13827092
31.14908689
31.16075534
31.17390711
31.22027137
31.25712288
31.33814937
31.47880141
31.78885373
32.50210158
34.29658389
40.21968979
46.74281027
43.63933976
36.32238648
33.75037736
32.52137049
31.88305277
31.52272711
31.36130184
31.22877484
31.18770372
31.1641506
31.14851005
31.01240549
31.02466451
31.03865994
31.0558327
31.1096781
31.16219501
31.27841958
31.47393262
31.95623474
33.15681708
36.84971976
55.78395583
72.74275193
43.01709721
35.80444363
33.26260152
32.13706856
31.54896165
31.31110611
31.13382779
31.07455028
31.04260874
31.02318787
30.88985236
30.90436079
30.92175971
30.94464814
31.00558438
31.07620241
31.22944609
31.48974537
32.15673041
33.82274608
38.98300044
67.03390924
137.4201933
52.85454508
38.64979395
34.25957856
32.48582284
31.61280468
31.27465461
31.04668149
30.96649963
30.9243792
30.90050081
30.77080573
30.78708121
30.80776248
30.83703427
30.90728941
30.99812048
31.18812545
31.51698471
32.35014992
34.35457668
40.21198355
73.18255294
171.6189286
61.4276565
41.55775537
35.33826163
32.87942744
31.6999303
31.24979944
30.96752417
30.8642837
30.81071167
30.78196044
30.65724178
30.67620469
30.70108481
30.73826936
30.81453804
30.92660994
31.15232269
31.54793575
32.5227854
34.77474253
41.14560822
82.61802351
171.5498962
66.3702354
43.8400765
36.29096334
33.25923279
31.79237596
31.23390328
30.89625002
30.77013635
30.70445607
30.67017161
30.54781273
30.56878116
30.59728017
30.64195753
30.72720406
30.85990475
31.11977552
31.57766088
32.67448724
35.13762137
42.12196593
93.45911172
158.5761122
68.12133558
45.24687497
36.99137798
33.57103029
31.87326722
31.22138215
30.83238224
30.68308285
30.60556026
30.56574326
30.44472578
30.46834049
30.50173828
30.55447138
30.6440763
30.79609291
31.08554179
31.60220566
32.80577705
35.47213719
43.36981272
103.1360135
714.7101062
136.3527253
67.9259719
45.86861062
37.40121148
33.78451217
31.93052442
31.20674415
30.77247256
30.60392727
30.51458924
30.46912516
30.34455643
30.37046267
30.4082407
30.46755769
30.56861191
30.74508917
31.07147466
31.64098305
32.96325013
35.90408078
45.32565127
149.6766395
447.0129056
127.1334003
66.84455119
45.90227548
37.56642329
33.8998653
31.96107838
31.18516055
30.71255833
30.52872975
30.42892387
30.37853815
30.24896155
30.27717973
30.31890645
30.38365123
30.49111615
30.68370053
31.03622261
31.65139681
33.06276261
36.20945121
47.27937918
435.1530374
320.8593507
118.2883195
64.89377133
45.5177316
37.53393164
33.93182597
31.95558931
31.15343526
30.65296762
30.45660302
30.34699908
30.29186089
30.15340342
30.18374372
30.22906366
30.29931857
30.41370827
30.61888559
30.99403601
31.65313838
33.15972784
36.56194259
50.20451864
665.5692085
278.8366019
110.5666944
62.75756672
44.90245961
37.37227678
33.88821484
31.92329481
31.10967568
30.58777919
30.38183693
30.265207
30.20616495
30.06037883
30.09286982
30.1412109
30.21535964
30.33464316
30.54924004
30.9425332
31.63952144
33.25579455
37.05784377
55.01624053
790.7829615
241.383895
103.0092952
60.44505967
44.20808817
37.18231677
33.80725653
31.86762178
31.05424788
30.51853598
30.30591685
30.18272801
30.12024639
29.964369
29.99872404
30.04981069
30.1280759
30.25282021
30.4739286
30.88103832
31.60209399
33.31620015
37.65423977
63.49030053
800.9734375
209.8756949
96.3293717
58.39886996
43.61856412
36.98047513
33.69932312
31.79125565
30.9837448
30.43976049
30.22242153
30.09562039
30.03041548
29.86974028
29.90588778
29.95926433
30.03995779
30.16750004
30.39278929
30.80987088
31.54867763
33.31299165
38.15233265
74.35309436
710.5386675
189.1756386
91.88398696
57.12231504
43.18891452
36.77332587
33.57449661
31.7011972
30.90211276
30.35467525
30.13477767
30.00532751
29.93849535
29.76997358
29.80745954
29.86296066
29.9468349
30.07849539
30.30617905
30.73015494
31.48224451
33.28999663
38.5362284
81.35587276
631.2823075
179.1959187
89.78926149
56.33670422
42.81418924
36.5727097
33.44174908
31.60162892
30.81116177
30.26110884
30.03922379
29.90802789
29.84023553
29.67199066
29.71059398
29.76770938
29.85295868
29.98567804
30.21467339
30.64328458
31.40543926
33.25457558
38.94834575
86.19981006
566.8918559
171.8129499
88.07767385
55.79363625
42.49855729
36.38450466
33.30688743
31.49549155
30.71267996
30.16283111
29.94054293
29.80842294
29.74012507
29.56747144
29.6066488
29.66520684
29.75301102
29.88927493
30.11888457
30.55059443
31.32050409
33.21149508
39.4421313
89.22627389
513.4702249
165.6168831
86.62600803
55.41705227
42.25071158
36.21289713
33.17377738
31.3851447
30.60837529
30.05723495
29.83411595
29.70142585
29.63309563
29.46658879
29.50610581
29.56547595
29.65356719
29.7893854
30.01935587
30.45320988
31.2295036
33.16570079
40.08137005
90.95008735
468.5805384
160.311239
85.38299159
55.13554785
42.07061436
36.06199057
33.04532595
31.2726988
30.49980296
29.94976148
29.72720269
29.59446131
29.52633844
29.35778041
29.39717972
29.45730028
29.54739993
29.68659802
29.91665257
30.35214449
31.13445265
33.12566864
40.81265526
91.70374772
430.374794
155.687181
84.30845015
54.91264194
41.94539918
35.93390039
32.9237486
31.15993615
30.38842316
29.83616557
29.61280525
29.479924
29.4122376
29.25561746
29.2947738
29.3550056
29.44429892
29.58124484
29.81141456
30.2484112
31.03755238
33.10237856
41.51151041
91.74159632
397.6169599
151.5909697
83.36942483
54.73169723
41.85935509
35.82754702
32.81026996
31.04817673
30.27541667
29.72393704
29.5013889
29.36876544
29.30158729
29.14326905
29.18186534
29.24235853
29.33343969
29.47420389
29.70430815
30.1429913
30.94084489
33.10301573
42.10508754
91.24436744
369.0841932
147.9063035
82.5381024
54.58303436
41.80052969
35.7399143
32.70509972
30.93826615
30.16180188
29.60566042
29.38159885
29.24880171
29.18217395
29.04182195
29.07985532
29.14000499
29.22936005
29.36570169
29.5959675
30.03672389
30.84596479
33.12730035
42.57816413
90.34033137
343.9232272
144.54498
81.79264981
54.4599881
41.76119576
35.66770941
32.60785154
30.83072014
30.0482619
29.49240929
29.26913827
29.13658864
29.07049546
28.92626432
28.96351406
29.02363686
29.11492242
29.2566708
29.48690801
29.93022767
30.75408356
33.16764432
42.93896354
89.15526724
321.6204318
141.4494159
81.11744648
54.3572565
41.73626441
35.60806618
32.51789917
30.72581295
29.93543251
29.37129095
29.14538421
29.01241244
28.94679029
28.82764012
28.86420458
28.92374926
29.01254774
29.14693725
29.37754633
29.82397761
30.66593523
33.2148752
43.19925492
87.76357962
301.5608925
138.5773106
80.49774648
54.26968879
41.72190303
35.55861691
32.43459301
30.6236973
29.82358534
29.26014437
29.03502582
28.90215047
28.83695161
28.7084281
28.74411651
28.80344289
28.89449116
29.03755202
29.26822322
29.71837593
30.58186071
33.26173881
43.37470082
86.22977496
283.1867931
135.8928226
79.91835889
54.19155298
41.71470846
35.51736224
32.3573103
30.52445379
29.71319337
29.13641546
28.90733512
28.77371786
28.70883441
28.61500312
28.65000553
28.70869459
28.79672024
28.9278448
29.15922706
29.61381192
30.50200318
33.30461521
43.48662028
84.65425533
266.404944
133.3733854
79.36425239
54.11671113
41.71165629
35.48265653
32.28549649
30.42814046
29.60425856
29.0306157
28.80235782
28.66858058
28.60395028
28.49072192
28.52481682
28.58309977
28.67350552
28.81926093
29.05083125
29.51065443
30.42635173
33.34224916
43.55345042
83.10715195
251.0876475
130.9776886
78.8190966
54.03988019
41.71045499
35.4532043
32.21864393
30.33479382
29.4973041
28.90259947
28.66908869
28.53424213
28.46973486
28.4054938
28.43897103
28.49670381
28.5841801
28.71049731
28.94331682
29.40925734
30.35466275
33.37405983
43.58537108
81.6062377
237.0690748
128.6379385
78.26711016
53.95692666
41.70941504
35.42794081
32.15625865
30.24446223
29.39209199
28.80659227
28.57360646
28.43825811
28.3738167
28.27344511
28.30599834
28.36310837
28.45209505
28.60397608
28.83713628
29.31005588
30.28654923
33.39972286
43.58796216
80.15346101
224.2759207
126.3236881
77.70162371
53.86523115
41.70719635
35.40593586
32.09790495
30.15732218
29.28957577
28.66971563
28.43107001
28.29436527
28.22984493
28.20037093
28.23242975
28.2891495
28.37709678
28.49788431
28.73308834
29.21393201
30.22158047
33.41920066
43.56650769
78.75372278
212.5950088
124.0510149
77.12480375
53.7644209
41.70302596
35.38641451
32.04310882
30.0739298
29.18975506
28.59101226
28.35091037
28.21334586
28.14870274
28.03183296
28.06279472
28.11868271
28.20740956
28.39736571
28.63291632
29.12321142
30.15962344
33.43269804
43.52550738
77.42428204
201.949105
121.8397618
76.54450297
53.65645108
41.69676998
35.36884788
31.99154471
29.99589302
29.09578419
28.41624626
28.16899291
28.02918071
27.96412956
66.41075366
161.6412277
81.99776964
72.25645034
206.136668
167.796151
81.39856947
203.2021318
207.6172399
92.16159516
183.4601919
200.7762558
102.0802436
871.2017373
746.564032
165.0098279
180.6462479
129.8898915
550.2547262
854.1866714
466.3621965
160.604062
163.2207997
53.30719327
46.36160883
74.71542756
43.40573549
478.8228201
167.5064874
130.0867944
57.70429364
46.94248947
39.96372022
62.01351892
58.42419967
1612.9257
1141.833603
169.6723685
70.45812874
61.28433085
40.94773763
67.94674879
62.59920567
76.401235
220.5964785
197.1659539
912.636755
1256.72254
172.7389028
77.45749361
72.76949072
41.93324611
75.96524945
68.87995169
86.3773196
322.9844293
255.9287795
517.5370953
684.4485685
43.12208146
86.20259014
76.95326864
95.4397724
501.6800749
398.3335194
1959.369714
336.0577854
391.6170522
45.02371362
106.7116376
87.74955513
111.443871
1109.40192
725.0423178
149.8680897
421.6737304
542.0795965
161.4483273
191.3303537
101.6776188
155.7909144
1110.755529
504.4676466
126.9552688
406.8177297
778.8479858
194.2909874
175.2379376
69.60640278
230.2926632
244.9878778
197.1989637
227.1816964
1271.287071
1614.566025
189.587809
1128.009522
979.4249766
805.4062036
1124.976501
187.0656116
252.6034573
224.4656285
77.63058295
288.9746521
333.5188569
247.1479302
285.6794133
715.2178246
892.8370817
207.6157733
682.9541784
539.1449234
969.1890422
707.3525358
208.4793266
393.9316582
326.4012308
87.69090006
401.2160421
504.4415199
336.4564123
397.10458
403.2923457
498.7578609
713.9480117
511.5041075
95.78116485
2880.668814
699.8249408
1072.340088
509.7402537
683.1718669
3315.018072
308.3476878
330.3330511
1723.706062
8591.674355
1119.337353
112.8147335
629.2414695
1751.040831
7632.380796
1081.473369
1720.713215
646.2094517
38.56489727
57.8503878
49.62130748
62.04882564
128.038197
88.64455746
2842.415672
490.9209637
69.1172953
172.9736592
151.8287912
5423.823425
160.6477302
79.5313756
78.34283339
5632.433097
741.5294009
823.6654669
567.5420829
273.0378181
297.6783787
148.9597983
131.2502107
63.43625821
1345.268881
226.9859373
533.8688825
140.709813
360.7462893
117.2913006
841.3993795
1071.177307
190.8150838
412.907312
350.9378428
521.5455487
424.4186737
193.6263629
1203.762682
4326.456759
754.9659458
72.50148089
60.105733
93.18275754
146.2935991
71.36876218
75.20651072
3901.057004
336.8669452
2767.505285
368.580812
2031.516431
303.7348293
1312.948193
1296.034445
1052.486588
1076.473578
2028.053882
4565.50569
580.3242276
2434.325443
1340.419087
5116.048057
2890.970374
604.7037475
435.6672022
165.9672093
173.6773891
623.6496501
707.2527032
5025.160481
784.7681108
218.3369445
231.979115
202.0676456
213.2186343
781.5279645
1184.290747
1345.858565
173.8933195
843.8788703
674.0504968
1311.84679
845.4625367
177.4874037
129.0595465
384.1208732
184.3757921
592.1968788
414.1336898
137.9028151
560.8969594
855.7148065
780.2123666
739.4772303
231.7467823
1467.374715
232.2425977
211.3390798
1404.043873
1333.354189
1459.853864
1412.628398
215.0943189
1349.147156
1363.048654
1039.732902
358.0792226
349.0773863
359.911145
359.4668249
1032.159705
954.8684484
318.6905854
292.3682456
344.5991858
326.4085523
972.8015048
309.2876773
312.1692651
263.4848611
265.8552579
759.0289187
5298.956329
773.014686
432.3669378
439.3036296
365.951996
370.1174152
1266.981089
932.0976428
451.7657767
1134.091459
1879.388716
565.7721498
188.2821287
198.2696461
176.4657823
185.1934492
556.7757012
1319.530741
747.3368556
760.5099058
548.2125012
553.0243445
5863.38733
1018.402771
535.3163209
598.6506303
237.8819374
249.4415448
1382.663812
2800.852107
1538.736072
2570.353677
1119.909727
6489.883198
2845.411874
5548.316224
1115.986796
719.947896
3928.411017
1963.582106
3503.536394
1890.967938
2579.930933
46.75269671
113.1810241
109.5449868
165.2642002
4226.044896
7887.710982
334.9573736
147.0523201
157.2949342
1122.551586
2976.104702
4212.986596
469.761405
515.3124423
957.4357358
250.6827984
265.0889981
552.6704584
144.6519812
105.4861672
208.3605242
390.187611
130.4100606
153.1348426
1517.577834
3727.730402
3891.213939
1220.111896
973.9545563
2685.724563
1973.416867
4521.387212
4446.670055
1199.399455
296.1116748
135.4727819
140.2568265
129.5959051
133.9523235
290.30788
156.9916409
163.692241
430.8857938
1021.503259
402.2438557
421.7067452
6465.13883
3280.779651
504.4236974
963.8153362
3368.616907
3718.85897
542.3156377
235.7184549
198.2903866
281.6907782
248.4526937
567.1557792
1307.292867
4478.334363
4531.143998
1535.49044
239.768563
124.2253234
128.223003
690.8117405
676.5830727
324.0374767
1866.824092
1716.79978
841.4804895
617.0518646
322.6575191
335.0285564
866.6966433
352.82086
358.890072
339.3735912
349.6299397
850.7854321
355.9980831
149.031241
154.9361543
141.9219892
147.1724913
351.5188372
413.5898551
1011.545186
1000.950797
1616.861921
1568.053998
482.8525323
347.8149013
729.2980177
693.2090402
996.3560173
988.6908479
385.3667939
437.5520395
898.5320141
728.1664847
5998.319617
1962.521614
724.078989
903.2942025
525.6809312
1651.71461
1624.594867
1660.277272
597.5911994
4891.068864
8782.685179
317.2700231
364.2256759
429.0080428
446.6169352
1128.693197
1784.963473
1097.510634
583.473764
1770.035415
8143.929564
1635.087809
1446.448381
16041.98731
1092.786602
1637.043456
1726.350744
2109.195265
1554.763155
5375.390112
5446.310317
1288.943572
1682.067952
5845.41509
1404.374539
1339.73358
353.4568254
1314.562027
536.531602
1308.713167
384.422763
4142.834927
2851.448464
947.8700722
4885.87206
5708.597293
4547.635441
3189.897033
1019.732594
4708.847745
5844.571231
3151.315415
4470.715878
6189.278349
1897.963499
2786.34713
1305.255859
1674.213312
5565.010383
3955.474649
1147.330312
705.6759118
1864.925235
1263.108622
635.9840828
402.0402652
1147.126441
4065.412142
5117.280562
1443.444428
1238.258292
3936.112152
4074.308004
2945.215627
2786.927241
997.2768803
4822.511747
4734.548346
3471.508895
4689.739848
4696.272313
1167.467418
4596.460791
3029.567887
3019.679722
3399.440356
1829.66136
867.5805061
936.6919028
3854.945383
1091.802353
1234.331105
964.9383006
1050.21661
3607.013067
3624.798939
1006.201532
1187.217125
374.3972772
395.544918
927.8449147
752.6955569
353.9999015
369.1134007
1294.352501
1308.443954
829.9526188
297.1626347
318.857308
271.3196874
290.8371339
821.9399321
897.7238322
362.2133893
395.5750215
327.0207419
352.7771908
903.906039
527.3062634
246.6782977
265.6217261
767.7441089
801.0546909
2411.898126
2515.3787
913.3972065
3587.352343
3615.896559
4574.7847
2470.941373
2067.247926
3492.316464
2441.956356
622.9963455
1736.075337
2304.014245
1511.736312
504.5248473
569.2838277
478.9701156
493.515005
1473.956643
620.3990079
632.0387509
590.684398
616.2102995
1379.352296
426.0482298
439.6836302
404.0455006
421.2575644
1369.199304
1440.036563
461.5151709
474.1298469
444.1371621
457.2070845
1435.953689
4389.467635
4443.915727
1318.455713
1473.945196
4646.283074
4372.252003
950.6018795
956.3763869
923.1898914
948.7523972
970.4610675
984.198715
958.4807944
967.5665914
650.4294539
661.7488019
635.6930742
646.5630615
704.2426283
879.1355336
667.1924945
680.7886934
1610.28759
1882.209822
1285.414761
1498.830491
5535.39673
2969.673504
3248.499533
2010.265408
2855.232664
1026.187194
1017.874755
418.0676578
1644.163098
1649.552937
1609.361603
1633.956887
1696.777658
471.6262233
1530.797564
1081.400613
956.7933001
750.5670952
352.0102003
1035.142604
1507.995741
985.1267165
1045.312786
1571.310306
1596.655236
1528.489386
1560.662822
381.5520359
986.2960221
975.7026051
5785.477098
1345.815678
5647.392615
4850.949105
5625.198917
1441.150127
6201.509754
1738.8475
5932.408904
5104.860544
731.2357414
815.8310478
1687.335878
1657.196961
530.6715841
581.1152779
1755.159961
1690.330075
5796.40735
1171.183589
459.0670792
503.8711081
6027.847973
6843.018049
1847.559741
7429.161366
5342.967381
2051.202388
1094.606022
6454.71372
3697.459496
7197.450782
4150.486541
1577.132774
67.17180698
43.88419543
37.37904972
5751.510286
5727.416712
149.637032
78.78142506
79.50439058
5995.54882
977.4304269
2845.822236
1945.48683
341.9955847
285.7654654
173.7511355
330.5311768
236.8674103
516.1945429
1869.482065
325.5582238
357.8576247
55.63999
65.60032728
128.1751539
418.3422012
818.2913609
1204.629782
209.76208
114.6352249
118.0710353
109.9994268
113.4958766
206.4650275
864.3478201
960.7858589
3122.983912
695.3423966
611.7728112
365.841216
335.8691262
349.4939971
747.3543591
1309.150589
1669.540209
587.1568777
119.2585425
122.9557948
235.9396336
297.8370822
640.7299119
614.2826553
592.1699694
525.8968638
276.2399848
633.160835
317.3674712
331.3751868
4544.37414
4240.388311
2552.274146
1671.7922
1649.285528
1049.039048
3818.754701
5775.99493
5154.452833
1302.26883
764.2066125
843.016621
1754.067076
1086.981848
1706.609244
1693.206571
1720.797719
3047.402537
5247.204514
3585.548379
4014.698154
5562.261384
1549.247715
1249.716951
751.3700719
1368.546464
185.0068651
146.719665
259.33191
916.2077419
2419.076304
1712.442355
5983.068879
6316.806616
6443.700808
5335.486346
6148.320118
98.59292692
124.8823942
311.0201426
3175.495235
2080.545217
1605.877034
4075.616407
3203.852381
2224.999656
4056.001893
3699.838411
5754.711831
5454.654116
3958.401927
787.6287653
847.7240231
1683.417177
5274.573622
2816.365767
3151.392964
4356.023139
2621.564641
3050.690621
1232.251249
1633.665382
1333.075294
838.1597636
572.3225524
580.4564743
1275.157936
789.4509387
830.9181653
585.365517
596.0440837
859.0441781
218.0772767
241.1101837
500.0994635
634.0810628
1133.268924
819.9663418
1299.090048
1349.126397
860.1801444
1814.258942
1319.069855
1370.963213
914.3994334
916.5669592
1471.705913
1475.092179
1488.540897
1402.836864
1424.342294
1394.077461
869.2998865
873.2797052
848.2214377
853.8653499
1347.130078
1453.763156
903.9878702
907.8209042
877.5847591
881.9609757
1420.658348
656.7968771
645.0854043
300.720642
321.130885
672.678179
660.5771198
495.0971098
483.0679425
256.2800427
1525.262474
1527.603911
1493.782189
1498.61766
1882.813093
1535.113933
1536.156346
273.5248803
514.6386452
499.9558431
5204.566236
5146.989642
3293.023114
3497.263243
5262.986367
5191.873525
5394.819085
824.9951794
1655.061456
1383.68791
301.0764133
312.9706845
604.8623351
538.7648377
288.1703255
297.7374047
1077.174435
1077.059197
744.0602686
763.0494765
1085.174237
1089.510527
5807.096926
1460.933592
953.6021835
940.6011584
12592.00744
2296.427359
1859.460953
4786.084504
3930.014637
1776.131237
1754.448561
1105.090463
6254.779158
6825.690124
6520.313677
5104.435383
1174.879342
1821.86342
1765.288769
2880.628944
1040.095452
1214.036686
5649.863183
5554.37327
4312.955451
3994.807223
2313.931256
1352.766015
1636.938962
1494.367252
3447.10998
5675.721583
4831.433671
5735.155932
5486.523583
3918.74279
207.6656911
294.5881531
983.6227466
3906.484345
3821.495571
3993.017089
3979.28058
3814.084135
2466.779944
2445.793562
2486.41209
2469.667898
3817.321614
4554.05446
2591.180532
2611.77972
2485.494217
2559.117096
4630.013546
3519.854647
2239.969332
2019.124341
2428.659971
2363.625833
3609.928735
4454.867304
2660.796226
2680.271344
2633.819571
2645.218184
4499.687355
4087.919444
4015.949063
4184.885762
3990.643246
1009.690039
701.5879202
705.249351
1602.233505
1019.358256
1023.412101
992.2869758
1012.882305
1590.656471
5685.806885
5913.095198
5165.082986
5762.733853
1669.647409
1683.383126
1640.811326
1655.719176
2120.577053
994.6950862
1604.138558
1541.535479
1641.374015
1029.498453
1033.152183
1025.201258
1027.812462
1634.601871
1577.600439
1619.381075
1107.319901
1516.213366
2093.264462
6134.572298
5719.60036
4334.019945
5961.859936
840.6250929
1182.294936
13019.85795
1130.513117
776.4808246
779.7851681
1773.803641
7771.225732
8033.993329
9387.410315
6033.271094
5636.026975
1722.451243
1710.721676
1087.885768
1684.600515
2615.012813
3700.353075
2592.247493
3469.616299
2590.014385
1039.707275
3557.103592
2634.674119
5431.549014
5633.028561
5794.788399
4361.534937
4979.195599
1367.18084
1691.018435
1160.113436
585.5204898
781.0484665
1202.250548
1302.876613
810.3796679
1174.026429
1538.538869
5545.061497
5812.363765
5453.258025
5326.655803
6100.185499
6050.453716
5904.119457
3604.103327
5213.959085
4740.661472
5858.971849
6060.036407
4030.813742
4348.52181
4798.895173
6104.149683
4967.629969
3539.733723
3878.220743
2981.939963
2151.142873
3018.279283
1585.87001
2303.202539
3072.650843
3374.091285
3127.018574
4218.998296
2654.418071
2515.968988
3607.871382
2618.157568
3944.340912
3980.101736
2505.963984
2490.143328
2531.822444
2503.329693
4004.590634
2892.571507
1743.762259
1773.811979
4767.470542
4760.329909
4057.030875
5185.465371
5000.635157
4830.00923
4780.812214
4999.946892
3804.406006
2081.84889
2320.918692
1820.562469
1910.6778
3250.537622
5485.634072
4635.680775
2548.744826
5828.593564
5579.899605
5559.191151
3600.877301
5477.008455
5302.325568
2130.200984
2400.556284
4510.741154
1270.944341
1326.763342
643.7225411
717.6294827
1228.978174
857.757178
600.3676565
623.8813258
1246.493821
1211.04772
723.9888485
1255.295148
1593.536795
804.8457763
1296.73809
1281.746296
2411.60806
1654.135519
1628.195894
1816.908476
1758.622719
2547.67181
3797.804411
3552.207752
2315.212757
3409.041284
3575.421932
3205.643977
3376.832073
2275.729517
3415.16836
3346.151484
4321.345576
3194.455874
973.5487593
965.8370408
1436.185475
1481.075319
927.7207908
924.4028313
1456.558114
1467.923024
1436.342823
1447.865535
863.1583741
866.5427762
1389.814719
1358.473706
857.0559619
860.0105057
894.6159861
898.5800408
1445.590737
1429.548186
886.6187983
890.6867249
4420.888393
2728.151286
2744.720465
2692.023975
2707.580745
4401.849924
4416.282826
3016.480414
3490.845118
2778.277253
2846.623751
4393.28675
952.6549084
1515.01942
1505.108349
1529.099989
1522.49603
954.3901937
940.4955144
1471.428336
1454.000152
1495.743805
1484.643391
946.0623519
975.4585738
1572.549068
1562.894208
1586.698792
1577.274415
977.9159446
961.0201994
1541.932801
1536.130308
1557.194285
1548.412678
963.6402552
1514.954786
1518.707096
654.0642558
940.9082732
938.4135185
947.0454931
945.0060095
658.3774349
1504.990996
1509.321937
1578.569014
1496.985995
724.863416
1001.354252
1010.812216
1419.584955
1367.39949
801.3856206
669.5394541
953.7130065
952.7071881
960.8224519
964.4898677
679.2362395
1546.559732
1539.591699
5155.957654
5016.661155
5342.414588
3735.330325
4385.937192
3064.732719
4999.775918
5063.813318
4987.478893
4998.699068
3130.434546
2240.372627
4262.188061
3609.243948
4904.224147
5037.693816
2587.353327
1030.343251
724.9522202
726.7003636
711.5789041
714.0928769
1018.474351
1644.611272
1658.278848
1614.966858
1631.237126
1603.120374
2032.531657
1467.626561
856.6141477
943.1672995
752.5020237
774.714486
1070.631507
1415.575808
1953.299364
1548.169311
1472.394059
996.675203
1600.176047
1587.28181
1635.586174
1592.732533
992.8613514
1578.635689
1590.020822
1540.625425
1552.041254
5427.180201
3536.352078
3780.626114
2650.9821
3169.901645
5518.338496
5565.370443
5389.258167
4117.238644
4716.102177
5911.586233
5736.086231
4290.02778
4548.447908
3398.281675
3861.548824
5914.256186
1714.737011
1715.811744
1698.026604
1701.38366
1130.541947
1142.273135
791.9914722
1776.158129
1679.972125
1733.363873
1724.14986
1672.949722
1042.239282
1049.926534
1035.100982
1040.451401
1669.297369
1708.61926
1063.078901
1119.150032
1051.500183
1065.93981
1711.874162
5586.735991
807.1795942
812.2436912
1174.150223
5862.383694
8805.132529
9164.710193
8642.697615
8650.955125
6491.268624
1796.462299
6443.557818
4593.855693
4984.989893
1102.847212
1745.951306
1730.15868
6417.312512
7073.605753
6817.662469
5558.248273
6061.913864
7500.789747
7122.240066
4542.781481
6738.867018
5792.428624
2158.013708
1735.907688
1163.736279
31.77539338
31.79053181
31.86998321
31.79675958
31.82291355
31.88643882
31.83273412
31.87030717
31.91134931
31.88269356
31.92510996
31.94079895
31.93689144
31.96772719
31.96450163
31.97341823
31.97784706
31.9711643
31.97510106
31.95308508
31.95824883
31.94336298
31.90376135
31.93175066
31.89232346
31.85404265
31.90394731
31.84328423
31.81326891
31.88227955
31.67050611
31.70185129
31.76609978
31.71563003
31.76850626
31.80530938
31.78882614
31.86502743
31.86151367
31.8915767
31.9780663
31.92754399
31.99932513
32.05722515
31.97808395
32.06839378
32.08336412
31.98847391
32.06958262
32.0258003
31.95909192
32.00419028
31.92801049
31.90341425
31.90252242
31.82948753
31.84271342
31.80594068
31.74845044
31.7935814
31.58361577
31.64483144
31.68416986
31.67105746
31.77499584
31.76226067
31.81941228
31.98344454
31.87817369
32.04629622
32.25698296
32.01004423
32.29671699
32.44344
32.12306861
32.46590612
32.50093976
32.13154932
32.44492945
32.33210717
32.06447302
32.27477866
32.0971006
31.95057827
32.0398029
31.8835669
31.83332002
31.8385518
31.72869192
31.73785719
31.52059546
31.62711029
31.63573577
31.67611473
31.8881514
31.79177718
31.98473072
32.3757176
32.04756921
32.54313449
33.2068567
32.36861785
33.35273695
33.95626733
32.67996382
34.0219497
34.02716079
32.67002828
33.75401445
33.28003702
32.45830314
33.08561589
32.59099614
32.17594082
32.4494711
32.09858332
31.91809761
32.00415613
31.78247183
31.73338524
31.48392615
31.66643857
31.63089589
31.75704207
32.1664945
31.94017736
32.36741244
33.30755199
32.54243083
33.79262834
36.43489187
33.57130238
37.49879547
43.91114074
34.90433712
44.10358709
41.40725934
34.70525965
39.16721468
36.12219009
33.67537438
35.34654044
33.76479356
32.79662196
33.39530191
32.58181885
32.1880333
32.38372075
31.94453059
31.81058124
31.47310666
31.76340647
31.68561874
31.91046575
32.61233356
32.26350564
32.98307623
34.96458975
33.66085089
36.18251
47.84346723
37.64484242
44.26388857
51.21309909
42.27000012
64.29368117
61.94461685
46.71887761
49.77176553
43.72136927
40.91087467
40.93085934
36.11816829
34.21884425
35.20775594
33.43478484
32.75690868
33.04781691
32.24478932
32.00581859
31.48400802
31.89652836
31.79356492
32.10618139
33.12214711
32.73918323
33.66749928
36.67261578
35.43517293
37.49463855
39.89003019
39.01333472
58.16208078
66.28277037
62.903785
97.36890786
68.8935536
57.43094942
50.3515187
39.7069835
36.91161209
37.91222305
34.65961564
33.71085416
33.99628291
32.67683521
32.34164553
31.50977143
32.03840529
31.93238397
32.3036076
33.56757206
33.24112118
34.23475464
37.79738583
37.00158945
39.35591323
42.39658855
41.91345175
67.79054848
80.51009669
79.32369935
155.3766504
95.82135914
86.17172074
59.6015724
43.57976707
40.68659991
40.87835288
36.043476
34.99809889
35.07477049
33.181785
32.79865126
31.5405175
32.1712052
32.07270994
32.48189832
33.92979918
33.66472482
34.67794584
38.58081801
38.00622852
40.47467871
43.85468173
43.50598057
74.17937459
98.88073495
95.8716344
174.4079194
110.3258845
106.5392076
65.47313014
46.66654386
44.44716307
43.34562558
37.29841188
36.37734057
36.07447428
33.67795868
33.30779854
31.57125047
32.29046483
32.2020963
32.63926331
34.23771474
34.00972085
35.05297257
39.2872537
38.746079
41.42387325
45.24069733
44.8068912
83.84538183
114.4415935
111.2204073
167.5486818
112.6816817