/*--------------------------------*- C++ -*----------------------------------*\
| =========                 |                                                 |
| \\      /  F ield         | OpenFOAM: The Open Source CFD Toolbox           |
|  \\    /   O peration     | Version:  v1912                                 |
|   \\  /    A nd           | Website:  www.openfoam.com                      |
|    \\/     M anipulation  |                                                 |
\*---------------------------------------------------------------------------*/
FoamFile
{
    version     2.0;
    format      ascii;
    class       surfaceScalarField;
    location    "2.25";
    object      phi;
}
// * * * * * * * * * * * * * * * * * * * * * * * * * * * * * * * * * * * * * //

dimensions      [0 3 -1 0 0 0 0];
oriented        oriented;


internalField   nonuniform List<scalar> 
25162
(
0.0004565136482
0.9161934863
0.0005852005171
0.9165713131
0.0007138890107
0.9165213115
0.0003497214392
0.9165330796
0.0004810879727
0.4583375492
0.0003621722172
0.458295678
0.0004553103517
-0.0004509883233
-0.0005731543111
0.4582664528
0.000656701514
-0.0007382223252
0.4582114739
0.0008617483808
-0.0009960244578
0.458185399
0.00114062543
-0.001302912878
0.4581638589
0.001474053978
-0.001643136839
0.4581721107
0.001806026112
-0.001958606871
0.4582149483
0.002075158576
-0.002158199007
0.4582954098
0.002196289223
-0.002182710655
0.4583938227
0.002123887948
-0.002027312546
0.4584612921
0.001896020428
-0.00175066492
0.4584911211
0.001594543841
-0.001425743705
0.4584891817
0.001271561959
-0.001121132716
0.4584871891
0.0009489436212
-0.0008768726296
0.4584554053
0.0007714673025
-0.0006330552202
0.458463192
0.0005198632521
-0.001737498367
0.9186458062
0.0002082310333
-0.0004665388623
-0.001087760722
0.9187002624
-6.372035779e-06
0.9157686113
0.913793628
0.001256170471
0.9149373159
0.002026662738
0.9158008209
0.002385420681
0.9161625536
0.0007859966069
0.9168938795
0.001238624159
0.4580018533
0.00094427988
-0.4581601366
-0.4581304747
-0.001160648008
0.4578608571
0.00143026555
-0.4579636336
-0.00176147178
0.4575678596
0.001012251404
0.001144994457
-0.2289119443
-0.001221633904
0.228808998
0.001324580111
-0.001756851876
-0.2288437773
0.2287086528
0.001891976362
-0.002423534002
-0.2287952878
0.2286253561
0.002593465702
-0.003175827286
-0.2288059093
0.2286242963
0.003357440261
-0.003868519414
-0.2288980355
0.2287594683
0.004007203295
-0.004137799389
-0.2290753065
0.2289618412
0.004251068946
-0.004384961654
-0.2292615357
0.2292789946
0.004367502751
-0.004058917131
-0.2293810146
0.2295021635
0.003937768242
-0.003460165174
-0.2294421494
0.2296223106
0.003280004009
-0.002753138225
-0.2294384503
0.2296264752
0.002565113367
-0.002089802701
-0.2293950594
0.2295587589
0.001926103222
-0.4588748788
-0.002892157692
0.4603030801
0.001463956372
-0.0001628878471
0.4609296419
-0.001515024393
-0.4592517297
-0.001773542472
0.9181351676
0.000546946147
0.00173723494
-0.001093136167
0.918019856
0.0003025474845
0.9143729277
0.9140961754
0.001601467895
0.913335848
0.004250162012
0.9131521267
0.007200817804
0.9132118978
0.003072018751
0.9144693779
0.00655330066
-0.4579054422
0.4576607094
0.003316751467
-0.4575953657
-0.003385517291
0.4581416671
0.002839215882
-0.4570278846
-0.003043711084
0.4566529463
0.001653250463
0.001765398914
-0.2283088363
-0.002037940377
0.2280910956
0.002255681119
-0.2280409941
-0.003030194001
0.227743446
0.003327742104
-0.2278429316
-0.004103492181
0.2286929859
0.003265649508
-0.2300309099
-0.0004244470372
0.2307777361
-0.0002675839084
-0.2298788343
0.001533054682
0.2301006486
-0.00171477746
-0.2284356007
0.001629658501
0.2282353195
-0.001435963505
-0.2273914082
0.0003412713719
0.2268186213
0.0001831822163
-0.2282261279
-0.002344372143
0.2272628284
0.003257935316
-0.2304184793
-0.006224351521
0.2305302473
0.006110219133
-0.2304234026
-0.005045254133
0.2307777337
0.004690923058
-0.003425127068
-0.2302947961
0.2309730238
0.002746899308
-0.462924087
0.0002367858807
0.4617496941
0.0009376070228
-0.4600160663
-0.001086125168
0.459995108
0.001107083468
-4.153533183e-05
0.9198266624
-0.000970610036
-0.0006793494583
0.001473288222
0.9165050325
0.0006798006533
0.9151664152
0.9147759761
0.0006086226126
0.9127272254
0.001338316358
0.912422433
0.002721255686
0.9118289584
0.003466253789
0.9112812488
0.002443131023
-0.4568202264
0.4562989997
0.003987480524
-0.4595690128
-0.005302697062
0.4563951598
0.008476550058
-0.4579546767
-0.009884146055
0.4593307226
0.002571722582
0.005936377542
-0.2272904836
-0.002661325945
0.2270265818
0.002925227768
-0.227253581
-0.003606510735
0.2282700598
0.002620315371
-0.2315479117
-0.0003230849528
0.2321430152
-0.0001371789099
-0.2320057852
0.0005024766906
0.2319549501
-0.0003094979243
-0.2299311899
-0.0008916084828
0.2295172661
0.001382942719
-0.2275198564
-0.002657343906
0.2272318077
0.002930342604
-0.2257447365
-0.003182374707
0.2256917053
0.003132665219
-0.2253083464
-0.003005853424
0.2250882748
0.003074829591
-0.2275888941
-0.003921001666
0.2269611858
0.004430346252
-0.2344170339
-0.001888225769
0.2379712086
-0.00167113089
-0.003560750777
-0.2318594597
0.2318815975
0.003538612988
-0.4617357643
-0.00529531666
0.4629396183
0.004091462628
-0.4607104734
-0.002891887423
0.4616852446
0.001917116225
0.002698416074
0.9197418958
-0.001398329032
-0.001215320456
0.001886836962
0.9173166116
0.0008634848209
0.9161897674
0.9156394609
0.0002053353524
0.91252189
0.0004911630967
0.9121366052
0.000994407746
0.9113257138
0.00159132106
0.9099558423
0.0007284931767
-0.4559354626
0.455063755
0.002463028713
-0.4548321805
-0.002996567982
0.4540642889
0.003764459511
-0.4530404139
-0.004800286535
0.4520556236
0.003033305083
0.002751771826
-0.2274596689
-0.005009310355
0.2256500125
0.006820963685
-0.2312444021
-0.00770820425
0.233828994
0.005287362003
-0.232482847
-0.002143192878
0.232151491
0.002712987155
-0.2300731247
-0.005929007983
0.2288190573
0.007372984096
-0.2268263438
-0.01221161442
0.2253496101
0.01377295982
-0.2261905114
-0.01711208776
0.2257490767
0.01753654908
-0.226762714
-0.01647956556
0.2277759629
0.01534571108
-0.2261862257
-0.01041757749
0.227365879
0.009020974858
-0.2348357739
0.002532895784
0.2307526197
0.001317008085
-0.2299515528
-0.004635525014
0.2296284688
0.004828257893
-0.005193539458
-0.233279927
0.2338291792
0.004644287284
-0.4645883142
-0.006102660535
0.4661627147
0.004528260044
-0.4625989363
-0.00340936622
0.4635366999
0.002471602611
0.003380481134
0.921527877
-0.002934238992
-0.00223222337
0.001813348032
0.9188837447
0.0008107102446
0.9171924052
0.9164501712
-0.000116902845
0.9126387928
-0.0001093252245
0.9121290276
0.0001908184855
0.9110255701
0.0004351711655
0.9093283167
0.000383172902
-0.4541028208
0.4536992511
0.0008387408449
-0.4534177816
-0.001906235166
0.4525222304
0.002801786405
-0.4510171857
-0.00351889441
0.4497811535
0.002365965778
0.002388960872
-0.2263943294
-0.002456995262
0.2266520588
0.002284943137
-0.2302736601
-0.002961956387
0.2298750389
0.00362663636
-0.2308335323
-0.009066903055
0.2279210325
0.0122713228
-0.2243685251
-0.02009552023
0.2242994281
0.0203345601
-0.2191037519
-0.02836710662
0.2175339824
0.02997732014
-0.2238335304
-0.03710619666
0.223009777
0.03792648409
-0.2343638362
-0.03211864451
0.2361589446
0.03025455783
-0.239078089
-0.01633409034
0.2382749145
0.01691999526
-0.2299042544
-0.01311122891
0.2314647119
0.01125267531
-0.2302499133
-0.007043490777
0.2309922639
0.00605956439
-0.004268418383
-0.2351461937
0.2352702381
0.004111633052
-0.4675242004
-0.006171622225
0.4688795183
0.004816304319
-0.4640783243
-0.003817400002
0.4645665601
0.00332916415
0.002642683643
0.9236606267
-0.002272244332
-0.002503188945
0.001387004128
0.9201394242
0.00054582915
0.9180335801
0.9169960003
-0.0005970917492
0.9132358846
-0.001043215842
0.9125751517
-0.001296730093
0.9112790843
-5.018374508e-05
0.9089433821
-0.000861611779
-0.4535138122
0.4531462803
0.000317348163
-0.4513608704
-0.0006233233274
0.4508994224
0.001084771232
-0.4492099556
-0.002175757912
0.4486678493
0.001344907964
0.001373985924
-0.2265060832
-0.001464910075
0.2263599464
0.00177145279
-0.2286084244
-0.003912703293
0.2271149323
0.005739777682
-0.2228241553
-0.009807890744
0.2214257724
0.01149617084
-0.2132631495
-0.01865012957
0.2095355279
0.02247649877
-0.2082518552
-0.03967591729
0.1056591328
0.09989008665
0.01900646111
0.02337209196
-0.02875847868
-0.1088768338
0.1082955191
0.02933979337
-0.02329976196
-0.2495685462
0.04421218451
-0.02371557551
0.1257574872
0.126614212
-0.03248095341
-0.2447523205
0.2487991184
0.02829001693
-0.2378881216
-0.01778431461
0.2404562006
0.01490158148
-0.2342022984
-0.008736309496
0.2353481973
0.007282940466
-0.004305931177
-0.235474206
0.2358888111
0.003772953876
-0.4702146456
-0.005020648971
0.470999535
0.004235759599
-0.465492734
-0.003127757947
0.4663936819
0.00222681005
0.001204680728
0.9250854801
-0.001178419163
-0.001451115035
0.0004416245123
0.9209024804
0.0001083207757
0.9183668839
0.9171043211
-0.001113540716
0.9143494253
-0.002161080566
0.9136226915
-0.002991477266
0.912109481
-0.001531030704
0.9096657517
-0.002182816141
-0.453106469
0.4530928245
-0.001517386199
-0.4506730531
0.001555276509
0.4505497638
-0.001431987205
-0.447337835
0.001226585395
0.4470829055
-0.00036735231
-0.0005867028979
-0.225455254
-0.0006763353051
0.2250630008
0.001268105345
-0.2247152043
-0.003777295852
0.2241853072
0.004657102053
-0.2177556529
-0.007955838211
0.2168478958
0.00914177152
-0.2035584074
-0.01241336177
0.2027078399
0.01329693597
-0.09219095747
-0.008631802247
0.09206422654
0.008758533176
-0.03056739384
-0.1388292806
0.1416378466
0.02775882785
-0.0319409127
-0.2617882354
0.2657855539
0.02786682438
-0.2474162007
-0.01847293935
0.2496464121
0.01593857933
-0.2395852788
-0.009594396916
0.2409978062
0.007838471971
-0.003426242395
-0.2376707598
0.2382451239
0.002679459143
-0.4721392788
-0.002628349935
0.4730453164
0.001722312359
-0.4670887802
-0.001115111054
0.4676438456
0.0005600456312
-0.00102103645
0.9255937568
0.0005516617239
-3.890194345e-05
-0.0009184515615
0.9207998956
-0.0005145551143
0.9179629874
0.916589766
-0.001632276009
0.9159817013
-0.003190816767
0.9151812323
-0.004819730091
0.9137383943
-0.002822439336
0.91114335
-0.003474889059
-0.4533379432
0.4535733436
-0.003057839725
-0.4506434382
0.003337957292
0.4509107482
-0.003605267298
-0.4470043643
0.003859304276
0.4472587367
-0.001898447417
-0.00217665918
-0.2244364868
0.001641140457
0.224183609
-0.001164285369
-0.2223248454
-0.000986707129
0.2218479955
0.001829237252
-0.2151661478
-0.004103378505
0.2149281839
0.004615363347
-0.2029947743
-0.004744214075
0.2036274895
0.004126232278
-0.09575937564
-0.0001978239094
0.0963663068
-0.0004091072461
-0.01365399381
-0.1546967587
0.1552797912
0.01307096137
-0.0177099615
-0.2746186427
0.2761306635
0.01615405303
-0.2552277826
-0.01148943316
0.2564577243
0.009961610369
-0.2444512051
-0.005548251123
0.2453201524
0.004315862846
-0.001315952912
-0.2399412542
0.2404011236
0.0006586913068
-0.4741676831
0.0006764736627
0.4750323548
-0.001541145384
-0.4678660007
0.0018743367
0.4679344382
-0.001942774155
-0.003675258576
0.9247033113
0.002546331956
0.002019372144
-0.002560347867
0.9196849848
-0.001319510026
0.9167221496
0.915270256
-0.002113026986
0.9180947283
-0.004345180228
0.9174133855
-0.006534614107
0.9159278282
-0.004110582164
0.9134887645
-0.004769446458
-0.4540717883
0.4545669763
-0.004605770132
-0.4513027751
0.005182994252
0.4519626497
-0.005842868888
-0.4477291774
0.00650236289
0.4485071793
-0.003399128421
-0.003822249146
-0.2236386463
0.003342690929
0.2235194548
-0.002982300462
-0.2208145588
0.001338384619
0.2205858264
-0.0007305419072
-0.2148251381
-0.0006576446739
0.2149404564
0.0008173342296
-0.2060295273
0.0001224553272
0.2068900369
-0.0009744786888
-0.09940147835
0.002053547517
0.09972427853
-0.00117083685
-0.001205510841
0.004210737431
-0.1529475121
0.1519761461
-0.003239371461
-0.0002337273064
-0.2762377477
0.2750725239
0.001351286209
-0.2580297929
-0.002265855177
0.2580003227
0.001991495959
-0.2471888946
-0.000331669501
0.2474788805
-0.0003267162513
0.001965544046
-0.2413677139
0.241515146
-0.0023116149
-0.474889557
0.005218971105
0.4742534198
-0.004582833854
-0.4676271991
0.004309699687
0.4678169861
-0.004499486661
-0.006565604545
0.922369417
0.004782553239
0.00411694558
-0.004315118799
0.9174344991
-0.002177403593
0.9145844344
0.9130928524
-0.002667711199
0.9207624395
-0.005341657827
0.9200873321
-0.008192429765
0.9187786001
-0.005338882817
0.9166066219
-0.005971404389
-0.4553041185
0.4560393044
-0.006074068623
-0.4527318149
0.00696904554
0.4535976273
-0.007834857951
-0.4496583297
0.008846618136
0.4510546144
-0.004957046261
-0.005197348547
-0.2233350359
0.004795404825
0.2233177263
-0.00451712808
-0.2201547985
0.003207383845
0.2200818186
-0.002740950543
-0.2155841329
0.001879263188
0.2158812437
-0.00190168045
-0.2095111352
0.003288587696
0.2103944916
-0.00416868161
-0.1016355256
0.003387182574
0.1018586985
-0.0017902321
-0.001820123343
0.01390148532
-0.1434010902
0.1420460841
-0.01254647918
0.01249562482
-0.2692127469
0.2667054779
-0.01007143452
-0.2564421082
0.006000055294
0.2555526221
-0.005426364286
-0.2475634649
0.005141120507
0.247275902
-0.00522149308
0.005525998058
-0.2413948191
0.2412122392
-0.005520964572
-0.4732476727
0.00949435021
0.4719196222
-0.00816629968
-0.4678559992
0.006980590088
0.4667726634
-0.005897254346
-0.00921672537
0.9188204284
0.006616569154
0.006149144836
-0.005999707776
0.9142174815
-0.002954425156
0.9115391517
0.9101384272
-0.003162099767
0.9239245392
-0.006364823912
0.9232900563
-0.009738565721
0.9221523419
-0.006426617158
0.9200882311
-0.006793557785
-0.4569653615
0.4578796873
-0.007340942988
-0.4546921141
0.008407907105
0.4558517965
-0.009567589513
-0.4524090723
0.01085080372
0.453951193
-0.006003645474
-0.006264665819
-0.223358005
0.005881956116
0.2233952432
-0.005636731272
-0.220032837
0.00448925165
0.2200663066
-0.00411523902
-0.216983488
0.003591820717
0.2174178777
-0.003754000851
-0.2131501972
0.005596912172
0.2141272898
-0.006573696583
-0.1033357902
0.004676519051
0.1035577194
-0.002429887519
-0.002468560748
0.01722966361
-0.1328677208
0.1315474405
-0.01590938332
0.01870176882
-0.2589978775
0.2565284174
-0.01637261511
-0.252312751
0.01168255575
0.2513041345
-0.01101884271
-0.2457181526
0.009768565262
0.244968593
-0.009372136319
0.008468052227
-0.2398130303
0.2391730733
-0.007966405789
-0.4703238808
0.0129875988
0.4684774891
-0.01114120721
-0.4656151027
0.009523617992
0.4642110217
-0.008119536975
-0.01155561056
0.9159232147
0.007459666079
0.006993158098
-0.007455014225
0.9101168851
-0.003627042928
0.9077111804
0.9065113842
-0.0072780987
0.9312026379
-0.0147526549
0.9307646125
-0.02236829919
0.9297679862
-0.007536135468
0.9282074669
-0.02295139944
-0.4590106026
0.4601322735
-0.008657806431
-0.4570594874
0.009899408504
0.4584597435
-0.01129966459
-0.4551852022
0.01272096581
0.4559198073
-0.006563650717
-0.00668106036
-0.2235737572
0.006270413135
0.2235403868
-0.005928449008
-0.2202512199
0.00500529368
0.2203952402
-0.004730502545
-0.2188962543
0.004631098959
0.2192815879
-0.004745490974
-0.2173025158
0.00707494967
0.2184337794
-0.004094430166
-0.004111783113
-0.05279714305
0.002987911874
0.05287637376
-0.003067142584
-0.05799621473
0.006416349689
0.05749590422
-0.0124748136
0.006558774423
0.01553620242
-0.1236964614
0.243751089
-0.02706747479
0.01512009642
-0.1236434517
-0.2498840016
0.01978929562
0.2477960102
-0.01790790269
-0.2474303782
0.01462390323
0.2462171582
-0.01379045153
-0.242842208
0.01226404596
0.2420670621
-0.0118231509
0.01020018086
-0.2367728118
0.235957654
-0.009461472043
-0.4663072904
0.01526671138
0.4641377435
-0.01309716455
-0.4627495994
0.01140693877
0.4611867633
-0.009844102717
-0.01338127369
0.911789346
0.008991657154
0.008523485153
-0.008623157717
0.9053587691
-0.004243169971
0.9033311927
0.9022682143
-0.003743215908
0.9349458538
-0.007602254797
0.9346236513
-0.01169897273
0.9338647041
-0.008000272299
0.9326847649
-0.008175998525
-0.4632869984
0.4644709403
-0.009184214219
-0.461651688
0.01050798425
0.4630826702
-0.01193896649
-0.4576467324
0.01350321241
0.4594417107
-0.007426041228
-0.007627712451
-0.2236300261
0.007467914889
0.2237871084
-0.007300723798
-0.2206982483
0.006377543268
0.2208045866
-0.006061699521
-0.2213707696
0.005668411568
0.2217988369
-0.005844307244
-0.2223907915
0.007723368752
0.2235904375
-0.004459150649
-0.004463864128
-0.0549569659
0.006727566634
0.1103459331
-0.05491667614
-0.003593881592
-0.003605976144
-0.1113858557
0.008481205497
0.1112670951
-0.01658907901
0.008226634105
0.02616585951
-0.2366531883
0.234825639
-0.02434762338
-0.2425706742
0.01653731498
0.241604328
-0.01584304874
-0.2434971952
0.01460131828
0.2437926417
-0.01528277413
-0.2398065174
0.01384716853
0.2387297508
-0.01304433618
0.01065299252
-0.2331526103
0.2323383746
-0.009850003663
-0.4622172687
0.01610469627
0.4604947024
-0.01438213002
-0.4596137267
0.01271228975
0.4578002752
-0.01089883836
-0.01288070627
0.9068307272
0.008856746479
0.00898257862
-0.009348162055
0.9018262249
-0.004577601102
0.8985606317
0.8976906132
-0.003901890896
0.9388477447
-0.007916545546
0.938638306
-0.01215902485
0.9381071834
-0.008319252216
0.9372771006
-0.00843210833
-0.4657397826
0.466994497
-0.00957396664
-0.4645287328
0.01093255164
0.4659777732
-0.01238159212
-0.4617489527
0.01394838745
0.4643344913
-0.008185455214
-0.008258862104
-0.2248016112
0.009215501679
0.2253668387
-0.009507188206
-0.2213092815
0.009657479069
0.2215828019
-0.00953198153
-0.2225839976
0.009009187263
0.2227284057
-0.008863795902
-0.2261470296
0.008763286283
0.2263303253
-0.008886338003
-0.1135541061
0.01172308468
0.2268801314
-0.01168308037
-0.1133660296
-0.2249885125
0.01758688591
0.2255703142
-0.0181686876
-0.2326924597
0.0189333877
0.2327333653
-0.01908349067
-0.2393754134
0.01881773151
0.2388259365
-0.01859979221
-0.2404975348
0.01769317318
0.2396922139
-0.01728245252
-0.2353660814
0.01554206495
0.2348232793
-0.01520411635
0.0119388118
-0.2314991256
0.2291442013
-0.009583887467
-0.4589679937
0.01770708805
0.4557855266
-0.01452462096
-0.4559735391
0.01299004174
0.4539050826
-0.0109215853
-0.01324845076
0.9019842821
0.009122238884
0.008972656973
-0.009396562435
0.8979743366
-0.004780123598
0.8939441928
0.8929104896
-0.003957054365
0.942804799
-0.008015638283
0.9426968899
-0.01227583662
0.9423673817
-0.008408677713
0.9418485658
-0.008438624154
-0.4682475373
0.4695039743
-0.00966511474
-0.4674097721
0.01100119541
0.4688172088
-0.01240863215
-0.4666141848
0.01391259719
0.4682374853
-0.007793262519
-0.007742421651
-0.2279043008
0.01007693045
0.2290583964
-0.01106536451
-0.223021309
0.01317864785
0.2237737934
-0.01360340036
-0.2232349365
0.0141655667
0.2235451268
-0.01417214171
-0.2265686974
0.0139606936
0.2266595977
-0.01388993488
-0.2253860754
0.01397767915
0.2245383608
-0.01309511144
-0.2282300516
0.01663165067
0.2289905893
-0.0174487249
-0.2335317196
0.01944905954
0.2337865398
-0.01990019417
-0.2375642138
0.0203968104
0.2371084022
-0.02026761147
-0.2370274649
0.01896955732
0.2359821149
-0.01823668294
-0.2312836266
0.01521425393
0.2299145807
-0.0139559767
0.01129588841
-0.2271785145
0.2265720248
-0.01068939876
-0.4550036655
0.01792057164
0.4522857918
-0.01520269795
-0.4510279269
0.01178117416
0.4494246254
-0.01017787269
-0.01238488871
0.8957116878
0.009583246969
0.009074235992
-0.006952953207
0.8925424011
-0.004818587203
0.8918098268
0.8880919023
-0.003920377243
0.9467251763
-0.007927314563
0.9467038272
-0.01210200087
0.946542068
-0.008298324743
0.9462809442
-0.008236054476
-0.470714632
0.4719240477
-0.00950774047
-0.4701837695
0.0107784711
0.4715058426
-0.01210054413
-0.4697789834
0.01349344681
0.4712459324
-0.007521176523
-0.007439219353
-0.233435013
0.008324317664
0.2348891542
-0.009756503716
-0.2270482708
0.01426873434
0.2284907724
-0.01551341704
-0.2252941421
0.01836240132
0.2262016479
-0.01902737712
-0.2273987746
0.0203493751
0.2278653475
-0.02064606159
-0.2217052743
0.02075931948
0.2207860034
-0.01979166388
-0.2304627591
0.02248286141
0.2306949379
-0.02279474541
-0.2338991894
0.02328237964
0.2336432211
-0.02322419654
-0.2351057515
0.02213815654
0.2341605586
-0.02144447595
-0.2321839102
0.01836620201
0.2306799608
-0.0170355228
-0.2257700352
0.01248776737
0.225195839
-0.01191454112
0.01040105356
-0.2249474159
0.2244529927
-0.009906630458
-0.4485872452
0.01685935961
0.4468583539
-0.01513046837
-0.4478434932
0.01347935745
0.4462450673
-0.01188093158
-0.01149422128
0.8886001576
0.01018028083
0.008425470705
-0.006520524046
0.8875687038
-0.004433420283
0.8897227231
0.8836584821
-0.003809336228
0.9505345125
-0.00768830636
0.9505827973
-0.01169672433
0.950550486
-0.008019151751
0.95048679
-0.007883418449
-0.4730717042
0.4742053439
-0.009152791482
-0.4727720507
0.0103316567
0.4739830956
-0.01154270155
-0.4726318054
0.01279945029
0.4739334952
-0.007106311358
-0.006994828762
-0.2362457682
0.007789402085
0.2365930072
-0.008136641175
-0.2337107808
0.009974422037
0.2356555696
-0.01188368686
-0.2299248783
0.01693962601
0.2314523359
-0.01834683446
-0.2300060062
0.02167138433
0.2309450679
-0.02250228691
-0.218721823
0.0231225527
0.2183704496
-0.02273884557
-0.2307093888
0.02465033175
0.2305229374
-0.02452487792
-0.2319412142
0.02329542478
0.2310989945
-0.02257948737
-0.230468048
0.01946441898
0.2290031059
-0.01811545539
-0.225593104
0.01329140363
0.2243863468
-0.01209730214
-0.2238564381
0.01097518142
0.2234691631
-0.01058790633
0.009410408853
-0.2231443407
0.2227479303
-0.009013998418
-0.4452576638
0.01553909019
0.4437816343
-0.01406306062
-0.4447694591
0.01262081974
0.44334596
-0.01119732058
-0.0142373305
0.8834680562
0.009557317531
0.009812114361
-0.009357260226
0.8826886336
-0.001824295363
0.8821897582
0.8818341867
-0.003640932858
0.9541754453
-0.007333962088
0.9542758265
-0.01111792531
0.9543344492
-0.007612955643
0.9544084831
-0.007426662764
-0.4752716336
0.4763156328
-0.008656954866
-0.4751314141
0.009731130437
0.4762207797
-0.01082049605
-0.4751511085
0.01193476371
0.4762878445
-0.00660014328
-0.006471356376
-0.2375496954
0.007184724197
0.237842127
-0.007477155794
-0.2372589763
0.008355406077
0.2375503715
-0.008646801303
-0.236449136
0.009502903816
0.2368683997
-0.009920429099
-0.2342059359
0.01360614736
0.2353616009
-0.01473892725
-0.218379805
0.01628202472
0.2186669192
-0.0165600051
-0.2295930807
0.01747132278
0.2292160301
-0.01711388427
-0.2280643002
0.01495667806
0.2269820561
-0.01389677816
-0.2248913316
0.01154034327
0.2247174666
-0.01136647827
-0.2235024332
0.01071948241
0.2232515686
-0.01046861772
-0.2224534417
0.009638580117
0.2221572841
-0.009342422485
0.008418418385
-0.2216985853
0.2213771013
-0.00809693436
-0.4424237284
0.01411177331
0.4411764504
-0.01286449528
-0.4420443667
0.01162026495
0.4407946335
-0.01037053174
-0.01330276645
0.8788012917
0.008834545736
0.00913498526
-0.008785797914
0.878171665
-0.00436402471
0.877767985
0.877470162
-0.003431956684
0.957607402
-0.006899555039
0.9577434248
-0.01042310846
0.9578580026
-0.007124077123
0.9580167125
-0.006907260701
-0.4772906617
0.4782392161
-0.008072631546
-0.4772464418
0.009038716811
0.4782140378
-0.01000631285
-0.4773446008
0.01098173245
0.4783244286
-0.006040810306
-0.005920749935
-0.2386443018
0.006544351828
0.2388891037
-0.006789153685
-0.2383329276
0.007508468292
0.2385662356
-0.007741776248
-0.2375915039
0.008412106981
0.2378026841
-0.008623287172
-0.236534931
0.009206298576
0.2366911577
-0.009362525343
-0.2195069681
0.00944601489
0.2196996385
-0.009638685181
-0.2287903466
0.01020607642
0.2288158341
-0.010231564
-0.2264262899
0.01020048625
0.2263739598
-0.01014815615
-0.2242715647
0.009873305397
0.2241437053
-0.00974544601
-0.222600404
0.009265689791
0.2224119522
-0.009077237926
-0.2213739497
0.00844273744
0.221143369
-0.008212156697
0.007477874943
-0.2205313154
0.2202684597
-0.007215019305
-0.4400305384
0.01269297927
0.438977875
-0.01164031594
-0.4396581566
0.01057219465
0.4385680409
-0.009482078919
-0.01226466154
0.8746067694
0.008073068563
0.008386115226
-0.008136818699
0.8740438222
-0.004052002943
0.8736831693
0.8734181591
-0.0031980659
0.9608054679
-0.00641747269
0.9609628316
-0.009662943786
0.9611034737
-0.006588084507
0.9613009342
-0.006359080997
-0.4791199003
0.4799755486
-0.007443732799
-0.4791208491
0.008305325074
0.4799736372
-0.009158113199
-0.4792318794
0.01000684917
0.4800716782
-0.005474828236
-0.005371819745
-0.2395596952
0.005909292217
0.239764367
-0.006113964045
-0.2391943935
0.006704285904
0.239382285
-0.00689217742
-0.2383615923
0.007422799823
0.2385261607
-0.007587368224
-0.2370842975
0.008030188114
0.2371944565
-0.008140347061
-0.2202798403
0.008218474942
0.2204710032
-0.008409637882
-0.2288651054
0.008786482196
0.2288740036
-0.008795380357
-0.2262330761
0.008756528326
0.2261905519
-0.008714004168
-0.2238085556
0.008500414344
0.223710424
-0.008402282718
-0.2219155256
0.008033642613
0.2217697617
-0.007887878707
-0.220528036
0.007391412696
0.2203452626
-0.007208639285
0.006617947406
-0.2195819633
0.2193670776
-0.006403061725
-0.4380086699
0.01134910395
0.4371162964
-0.01045673048
-0.437580299
0.009539993779
0.4366320082
-0.008591702935
-0.01119549172
0.8708627045
0.007314794129
0.007624762529
-0.007456251663
0.8703045822
-0.003721463576
0.8699483812
0.8696966955
-0.002951883833
0.9637573517
-0.005913258105
0.9639242059
-0.008877002997
0.9640672186
-0.006035609455
0.9642670134
-0.005807472767
-0.4807638492
0.4815304643
-0.006802224545
-0.4807705074
0.007565976454
0.481518416
-0.008313885109
-0.4808483463
0.009049878893
0.4815663577
-0.00492703003
-0.004840860258
-0.2403251318
0.005301893443
0.2404964926
-0.005473254256
-0.2398901093
0.005959785289
0.2400425924
-0.006112268417
-0.2389653913
0.006537413605
0.2390957976
-0.006667819928
-0.2374752259
0.007010922552
0.2375547217
-0.007090418376
-0.2210306697
0.007175798975
0.2212115358
-0.007356665027
-0.2288834562
0.007608080935
0.2288818327
-0.007606457497
-0.2260735946
0.007561989448
0.2260376747
-0.007526069558
-0.2234486854
0.007353931631
0.2233708234
-0.007276069619
-0.2213808887
0.006984510719
0.2212653377
-0.006868959773
-0.219853324
0.006472468023
0.219705996
-0.006325139981
0.005843579234
-0.2188046241
0.2186270734
-0.005666028524
-0.4362939172
0.01010308945
0.4355357411
-0.009344913278
-0.4357744057
0.008556988429
0.4349499026
-0.007732485342
-0.01014270242
0.8675359321
0.006587577558
0.006881897274
-0.006777479489
0.8669393593
-0.003389381956
0.8665602837
0.8663073135
-0.002704478483
0.9664618302
-0.005409016729
0.9666287441
-0.008098130833
0.9667563327
-0.005491347138
0.9669312161
-0.005270986432
-0.4822321054
0.4829157795
-0.006175021322
-0.4822163192
0.006849784933
0.4828708688
-0.00750433454
-0.4822297973
0.008142472593
0.4828444181
-0.004416946924
-0.004340146489
-0.2409665292
0.004738071613
0.2411103505
-0.004881892941
-0.2404565231
0.005285088183
0.240581344
-0.005409909127
-0.2394467294
0.005754802544
0.2395517534
-0.005859826579
-0.2377594311
0.006130053841
0.2378180429
-0.006188665663
-0.2217351203
0.006287223456
0.2219031049
-0.006455208031
-0.2288657487
0.006620385877
0.2288572191
-0.006611856288
-0.2259375734
0.006563982148
0.2259064928
-0.006532901594
-0.2231603342
0.006390463152
0.2230969509
-0.006327079834
-0.2209537172
0.00609099349
0.2208601786
-0.005997454815
-0.2193063047
0.005675027761
0.2191857008
-0.005554423847
0.005156739437
-0.2181610491
0.2180127975
-0.005008487789
-0.4348354875
0.008973189115
0.4341883776
-0.008326079228
-0.4342048326
0.007646781885
0.43348709
-0.006929039259
-0.009140893949
0.8645871791
0.005908320319
0.006181326697
-0.006125252404
0.8639237177
-0.003068517565
0.8635035488
0.863238796
-0.002463560947
0.9689253911
-0.004919941715
0.9690851249
-0.007348166836
0.9691845578
-0.004969834745
0.9693152104
-0.004762326357
-0.4835381411
0.4841459897
-0.005577683313
-0.4834812885
0.006172788062
0.4840536643
-0.006745163898
-0.4834140082
0.007298473142
0.4839419891
-0.003949391714
-0.003877062293
-0.2415053119
0.004223306045
0.2416264689
-0.004344463073
-0.2409215776
0.004680591376
0.2410246383
-0.004783652155
-0.2398363712
0.005066781187
0.2399221336
-0.005152543586
-0.2379707477
0.005368350394
0.2380150251
-0.005412627735
-0.2223877089
0.005525158786
0.2225429441
-0.005680393904
-0.2288240378
0.005785342839
0.2288108246
-0.005772129668
-0.2258191582
0.005722441612
0.2257918407
-0.005695124024
-0.2229238875
0.005575001397
0.222871282
-0.005522395915
-0.2206057156
0.005327644927
0.2205286818
-0.005250611202
-0.2188563273
0.004984381323
0.2187562768
-0.004884330811
0.004552128969
-0.2176226809
0.2174977111
-0.004427159238
-0.4335891693
0.007961042468
0.4330339909
-0.007405864128
-0.4328386365
0.00681811874
0.4322125547
-0.006192036935
-0.008209394916
0.8619758754
0.005286182009
0.005534516656
-0.005514062759
0.8612283856
-0.002766494898
0.860755981
0.8604723011
-0.002234913599
0.9711603047
-0.004457289287
0.9713075005
-0.006642889556
0.9713701581
-0.004481154638
0.9714437072
-0.004290231709
-0.4846969836
0.4852364611
-0.00502063218
-0.4845873629
0.00554510005
0.4850879552
-0.006045692267
-0.4844317532
0.006525751006
0.4848862719
-0.00352281315
-0.003457456632
-0.2419597953
0.003757239527
0.242062317
-0.003859761275
-0.2413066442
0.004141674812
0.2413924415
-0.004227472097
-0.2401557548
0.004462328901
0.24022652
-0.004533094076
-0.238131738
0.004707408219
0.2381660303
-0.004741700496
-0.2229909955
0.004866254724
0.2231349604
-0.005010219687
-0.2287660332
0.005073184362
0.2287496221
-0.005056773228
-0.2257146633
0.005006367716
0.2256903927
-0.004982097098
-0.2227265923
0.004879385465
0.2226822937
-0.004835086825
-0.2203176883
0.004672114708
0.220253375
-0.00460780142
-0.2184815607
0.004385234971
0.2183976444
-0.004301318715
0.004021151978
-0.2171681995
0.2170620184
-0.003914970908
-0.4325185293
0.007063309316
0.4320396821
-0.006584462137
-0.4316467551
0.006073913825
0.431099149
-0.005526307711
-0.007359422487
0.8596624361
0.004725514495
0.004947347346
-0.004952896816
0.8588218599
-0.002488185095
0.8582912693
0.857984116
-0.002022003361
0.9731823081