/*--------------------------------*- C++ -*----------------------------------*\
| =========                 |                                                 |
| \\      /  F ield         | OpenFOAM: The Open Source CFD Toolbox           |
|  \\    /   O peration     | Version:  v1912                                 |
|   \\  /    A nd           | Website:  www.openfoam.com                      |
|    \\/     M anipulation  |                                                 |
\*---------------------------------------------------------------------------*/
FoamFile
{
    version     2.0;
    format      ascii;
    class       volVectorField;
    location    "2.25";
    object      U;
}
// * * * * * * * * * * * * * * * * * * * * * * * * * * * * * * * * * * * * * //

dimensions      [0 1 -1 0 0 0 0];


internalField   nonuniform List<vector> 
12556
(
(99.99863924 0.003259229997 -4.211656816e-21)
(99.99821933 0.01090601846 2.22829377e-25)
(99.99706115 0.02278238874 -4.204570256e-21)
(99.9951425 0.04163502765 -4.179029918e-21)
(99.99977088 0.03258761367 4.034784666e-21)
(99.99757976 0.05324665217 0)
(99.9963019 0.08522868443 0)
(99.99590499 0.1291662773 -7.109461679e-21)
(99.99475187 0.187273253 8.30650935e-22)
(99.99394751 0.2580933801 -5.454291535e-21)
(99.99407651 0.3337270503 6.768140275e-22)
(99.99574728 0.3995630636 0)
(99.99816846 0.4367292687 0)
(100.0027878 0.4326774191 9.133210568e-22)
(100.0047709 0.3909617346 -1.485899416e-21)
(100.0058815 0.3261038634 9.137105925e-22)
(100.0057167 0.25508655 0)
(100.0051496 0.1898286143 1.511231597e-21)
(100.0047751 0.1341295446 6.208489645e-21)
(100.0025584 0.09374020551 -1.742424969e-21)
(100.0101118 0.1061780978 -1.512988849e-20)
(100.0068315 0.06506512422 0)
(100.0049777 0.03450074319 -1.898617171e-21)
(100.004775 0.01080727002 -1.336791107e-20)
(99.98794127 0.008567631513 1.686940232e-20)
(99.9831554 0.0290972151 4.214027199e-21)
(99.97242205 0.06152275532 2.943768573e-20)
(99.95409919 0.1133608165 -1.260810075e-20)
(99.957026 0.1531876527 4.064343581e-21)
(99.92897672 0.2530954287 -4.650219396e-23)
(99.89221131 0.4054536631 0)
(99.87221837 0.5433041728 -7.149626686e-21)
(99.83087525 0.7967228089 -6.635627132e-21)
(99.79790165 1.114644118 -1.159165348e-20)
(99.79076661 1.466257947 -4.810620376e-21)
(99.82864501 1.782069119 -9.276658429e-21)
(99.91111511 1.97388863 1.630892736e-21)
(100.0122631 1.976866007 5.653885945e-23)
(100.0985358 1.800932683 -5.038697456e-22)
(100.1454794 1.508801318 4.705941284e-21)
(100.152254 1.17969805 -9.234088882e-21)
(100.1321925 0.8800291236 0)
(100.1382024 0.6573260649 -2.635227766e-20)
(100.097854 0.4454934183 5.077470274e-20)
(100.0953239 0.3032558936 1.464943952e-20)
(100.0655546 0.1851385038 3.017585809e-20)
(100.0487265 0.09862313781 -3.026524084e-20)
(100.0423145 0.03097421031 1.526705065e-20)
(99.96807803 0.01068884524 -1.683182778e-20)
(99.95460688 0.03734902362 -3.379505239e-20)
(99.92541854 0.08169434683 -7.579266193e-20)
(99.87670118 0.154914067 1.0084415e-19)
(99.85248805 0.2385837415 -8.330307112e-21)
(99.76855377 0.4067391746 -8.111551502e-21)
(99.6555903 0.6656959451 -1.408201716e-20)
(99.59127608 0.9492895482 0)
(99.45860456 1.428341217 2.747154304e-20)
(99.34926722 2.048908685 -1.581857447e-20)
(99.33489394 2.758092431 -1.664659555e-19)
(99.47789506 3.436270709 -2.39205444e-19)
(99.79254446 3.87261767 1.196106955e-19)
(100.1796767 3.88608524 -4.403193936e-20)
(100.4773887 3.497748057 5.045161858e-21)
(100.6151481 2.880848017 2.07431005e-21)
(100.6158528 2.218017464 -9.953882083e-21)
(100.5287874 1.613763578 -2.346905309e-20)
(100.4576272 1.122449534 -1.582756953e-19)
(100.3326525 0.7496611897 -3.513493446e-20)
(100.2626772 0.4589561904 -1.502210762e-20)
(100.1845671 0.27756917 3.414455969e-20)
(100.1376872 0.1481649646 -3.835891385e-21)
(100.1171401 0.04626075351 0)
(99.94597489 0.007755339957 -8.482400427e-21)
(99.92024129 0.02981866311 5.938505287e-20)
(99.86535315 0.07386237564 -1.69895177e-20)
(99.7756119 0.15079908 0)
(99.70391833 0.2669147897 0)
(99.54031726 0.4805195592 -6.556332085e-20)
(99.31178489 0.8211771891 -1.311821044e-19)
(99.12797458 1.236714845 3.091027584e-20)
(98.8201696 1.928721995 2.931661885e-20)
(98.55317811 2.869267416 3.44033132e-21)
(98.45378217 4.064428819 2.372528906e-20)
(98.7432908 5.316799573 0)
(99.52943165 6.155299395 -1.32984126e-19)
(100.5177075 6.144861064 -5.019760031e-20)
(101.2108689 5.368795611 -2.082028225e-19)
(101.4557717 4.259274921 1.928316264e-19)
(101.3878911 3.158898836 -9.109488663e-20)
(101.1778297 2.240449678 0)
(100.9496424 1.47992502 5.763858171e-20)
(100.6871662 0.9646254134 -4.452328344e-20)
(100.4965242 0.5465245407 -3.847845377e-20)
(100.3514091 0.326960642 1.947621634e-20)
(100.2607358 0.1720991587 -3.907740346e-21)
(100.2193447 0.05321320701 0)
(99.93369384 -0.001380623787 0)
(99.89377093 0.00266997942 0)
(99.80941541 0.03135811777 8.571609632e-21)
(99.67070224 0.0927650393 1.294751683e-20)
(99.54101315 0.2239560569 2.142003135e-20)
(99.27365798 0.4487563713 0)
(98.89807457 0.8119012783 0)
(98.53109071 1.323919226 0)
(97.96957733 2.176874181 -1.285047338e-19)
(97.36915229 3.465707573 2.53380849e-19)
(96.96580036 5.321888252 2.933959022e-20)
(97.34805956 7.576745699 -1.636742698e-19)
(99.05744903 9.250216477 6.324507843e-20)
(101.2909171 9.096672439 0)
(102.6155479 7.48641337 0)
(102.8812121 5.548452452 9.516100883e-20)
(102.5630404 3.906600657 -3.318233613e-19)
(102.0640661 2.647672709 -5.002962142e-22)
(101.5866693 1.663782956 -9.546535967e-20)
(101.1314731 1.053031111 7.935871428e-21)
(100.7681303 0.5426038335 0)
(100.5385776 0.3188936558 3.985172124e-21)
(100.394584 0.1628135332 -2.993098204e-21)
(100.3278538 0.04952730547 -9.922962885e-22)
(99.94460345 -0.01707989314 0)
(99.89026744 -0.04526961132 0)
(99.77691268 -0.0497767272 -1.717114385e-20)
(99.58717184 -0.02247772799 3.495912917e-20)
(99.39162986 0.09887261465 0)
(99.01266623 0.2905473824 0)
(98.46710904 0.6202190838 2.732794244e-20)
(97.88438745 1.151525266 -1.353707927e-19)
(96.97312561 2.033364064 1.454076944e-19)
(95.78218097 3.540465454 0)
(94.55926483 6.121949331 -2.896190782e-19)
(94.41453367 10.22621317 -1.307302132e-21)
(97.93867287 14.20381582 -6.574848425e-20)
(103.1987135 13.34605254 2.572286283e-19)
(105.2943035 9.686003962 0)
(105.11009 6.505431135 2.658680988e-19)
(104.1667294 4.262218619 -2.681858342e-19)
(103.1639514 2.738899054 -3.344476651e-20)
(102.3067007 1.600415995 2.457662308e-20)
(101.6147615 0.9721659781 -1.643181135e-20)
(101.0417645 0.4325207692 0)
(100.7149651 0.2434072107 0)
(100.5132213 0.1154602324 -1.006337405e-21)
(100.4191634 0.03388304343 -3.018511667e-21)
(99.9915083 -0.03891814017 4.199184798e-21)
(99.92432432 -0.1122296335 -4.229917957e-21)
(99.78621117 -0.1665290112 8.627478883e-21)
(99.55217698 -0.1942264666 -3.155540079e-20)
(99.28526966 -0.1086324299 7.149582633e-23)
(98.80706257 0.006347017255 2.696416837e-20)
(98.10561827 0.2406753441 -5.58285968e-20)
(97.32089628 0.6765066799 3.792065947e-21)
(96.00605895 1.415441212 5.391970364e-19)
(94.04646652 2.763047619 0)
(91.21062974 5.343137821 -4.860457949e-19)
(87.61254161 11.56438478 -1.651674676e-18)
(93.75888315 23.66549497 1.133516963e-19)
(108.985739 19.46130278 -3.665133222e-19)
(110.0516205 11.18025905 0)
(108.1793503 6.538844783 0)
(106.0947795 3.916790167 -4.289606901e-19)
(104.3599835 2.35398531 3.093772082e-19)
(103.0018529 1.228792781 0)
(102.0697883 0.6869256037 8.982761525e-21)
(101.2690542 0.2152871794 2.647708908e-21)
(100.8456898 0.09517388425 -3.130180139e-21)
(100.5899613 0.02961148748 -3.557374092e-21)
(100.4693763 0.00630655441 8.566686373e-21)
(100.0853432 -0.06562489197 -4.199630869e-21)
(100.0085399 -0.1941275991 4.231441101e-21)
(99.85275386 -0.3108216213 -5.368915269e-21)
(99.58736073 -0.4096358355 -3.608624453e-21)
(99.26031385 -0.3843434975 1.538677739e-20)
(98.70732489 -0.380934976 9.158405936e-21)
(97.89890658 -0.3062923041 -3.530648895e-21)
(96.95946079 -0.05915334228 3.105659114e-19)
(95.3442011 0.3271223418 6.824593851e-19)
(92.82378603 1.002416804 0)
(88.69578134 2.021014406 1.446703367e-18)
(80.80463959 3.775099147 -6.18492198e-19)
(123.8392577 22.57396295 8.094701866e-19)
(116.7195542 9.409979626 -6.158523545e-19)
(111.5469005 4.840863156 -1.170311959e-20)
(107.9511215 2.626994455 9.669587847e-20)
(105.4331683 1.412076835 -1.002758258e-20)
(103.5465551 0.541140936 -4.785483243e-21)
(102.4034178 0.2094921694 2.028271268e-20)
(101.3969573 -0.1030566778 -3.228469009e-21)
(100.8962362 -0.1154405254 2.639568696e-21)
(100.5984291 -0.08932223619 -4.986688887e-22)
(100.4556321 -0.03198567255 -8.045556731e-21)
(100.2340029 -0.09528477859 -2.026677151e-21)
(100.151971 -0.2850392888 -1.52299501e-21)
(99.98763989 -0.471400281 -5.217089514e-22)
(99.70732208 -0.6506885403 1.580137014e-21)
(99.33713498 -0.7028443923 -2.904836396e-23)
(98.7477373 -0.8310300754 0)
(97.90277278 -0.9485382264 3.704923304e-21)
(96.88917791 -0.9398187843 9.240837685e-19)
(95.1826813 -0.9888047179 -2.637008899e-19)
(92.63913709 -1.105048368 4.605258285e-19)
(88.95871295 -1.704798952 -2.11950628e-20)
(84.39681268 -3.810815014 1.249017241e-20)
(136.7393038 7.192759728 -2.313988414e-18)
(121.4188938 2.928719624 -7.122380742e-19)
(113.8283335 1.258680021 -4.281587037e-19)
(109.1538962 0.4333370937 -2.203496694e-19)
(106.0865676 -0.0001381674043 4.397347478e-20)
(103.8107973 -0.3822730362 -4.889459794e-21)
(102.5294273 -0.416791917 1.140357037e-20)
(101.3856723 -0.4901831938 1.109776662e-21)
(100.8391067 -0.3690678746 0)
(100.5165527 -0.2309921021 4.058954674e-21)
(100.3595537 -0.0777955989 4.00987094e-21)
(100.4412586 -0.1256181873 3.994934017e-21)
(100.3588534 -0.3779541284 5.927646173e-23)
(100.1959136 -0.63515416 0)
(99.91837338 -0.8970143559 2.07777284e-22)
(99.5261521 -1.034675797 -2.115385993e-21)
(98.94088444 -1.296594924 2.251132539e-21)
(98.12668141 -1.603030108 0)
(97.12669062 -1.827722622 6.201025938e-19)
(95.51367709 -2.252315071 6.868078772e-19)
(93.24962683 -2.903320767 0)
(90.3657165 -4.075420436 4.408719055e-19)
(87.53432787 -5.889675578 0)
(134.2126957 -8.949846973 -1.152388324e-18)
(121.2407338 -4.789317909 -1.482122322e-18)
(113.9487508 -3.052113099 0)
(109.241399 -2.156037426 0)
(106.104459 -1.635438083 -3.143536012e-19)
(103.7054391 -1.41000666 4.133741695e-20)
(102.4022678 -1.110197823 0)
(101.2115318 -0.9032165391 -1.083796569e-21)
(100.6583449 -0.6391414897 -4.480478633e-21)
(100.3315643 -0.3815804488 5.004282228e-22)
(100.1702742 -0.1266339984 0)
(100.7063902 -0.1544272939 -1.968084869e-21)
(100.6281624 -0.4659666536 1.98507754e-21)
(100.4756465 -0.7892960729 1.937917446e-21)
(100.218863 -1.129083746 -1.810192995e-21)
(99.82309236 -1.351246281 -2.087765994e-21)
(99.2779318 -1.732712711 0)
(98.5443585 -2.20281591 -2.240477864e-21)
(97.62066766 -2.625085014 -6.127377714e-19)
(96.18731173 -3.323040181 3.318873066e-19)
(94.24552946 -4.280733891 3.657239362e-19)
(91.86824874 -5.627513545 8.054703969e-19)
(89.57625099 -7.141674038 -4.028534197e-19)
(125.5173875 -17.91289178 1.625419799e-18)
(117.4947415 -10.5037223 3.798798014e-20)
(112.1079084 -6.683509283 -7.228464336e-19)
(108.2266604 -4.493376619 0)
(105.4677629 -3.178702937 4.186954985e-20)
(103.2234985 -2.381652631 0)
(102.0216791 -1.777588164 -2.694494708e-20)
(100.8721358 -1.296706166 -1.350800694e-20)
(100.3529591 -0.896888426 1.024041967e-21)
(100.041991 -0.5262060892 -3.225374817e-21)
(99.88621534 -0.1737419091 4.72963219e-22)
(101.0243999 -0.1797874647 7.234212796e-21)
(100.95431 -0.5429470966 0)
(100.8190084 -0.9210383963 -1.934127753e-21)
(100.5950518 -1.336138987 0)
(100.2082627 -1.629471269 0)
(99.73611647 -2.104645861 -6.212441738e-21)
(99.11473271 -2.701914427 -2.110276197e-21)
(98.30775228 -3.275368627 0)
(97.08998538 -4.159562352 -4.564463539e-19)
(95.44777198 -5.314166909 3.142959466e-19)
(93.38567424 -6.813182123 -7.263320757e-19)
(91.21897954 -8.354001476 -9.606674269e-20)
(116.2196814 -21.19047823 -1.063883132e-18)
(112.3838864 -13.39949529 -4.830838809e-19)
(109.1801342 -8.937566346 1.967297151e-19)
(106.4658457 -6.152341138 1.705325416e-19)
(104.3302135 -4.375355845 0)
(102.437151 -3.167923858 2.143787179e-21)
(101.4268998 -2.338581263 -3.268476577e-20)
(100.3932437 -1.63900183 8.006993697e-21)
(99.937087 -1.11607477 0)
(99.65714116 -0.6520162512 3.715823739e-21)
(99.51498327 -0.2149449021 0)
(101.3871735 -0.2010121476 7.22496927e-21)
(101.3276437 -0.6078623359 1.141129943e-19)
(101.2128778 -1.030429276 -2.29898554e-19)
(101.0250045 -1.502164313 -5.664703955e-22)
(100.6852703 -1.848069394 -1.820066909e-21)
(100.2885447 -2.390548387 0)
(99.79591949 -3.074999253 0)
(99.12423182 -3.748242056 4.609742155e-19)
(98.14309671 -4.745971273 -1.3128431e-19)
(96.8119544 -6.035214519 -2.902624533e-19)
(95.09701511 -7.752470854 -6.346424457e-20)
(93.1459591 -9.603567526 2.597328232e-19)
(103.7396733 -30.42717904 9.213167233e-20)
(107.661774 -19.7004916 -3.75944037e-19)
(107.4450378 -13.82194928 1.458899837e-19)
(106.0376742 -9.772204295 -2.984084835e-19)
(104.4140941 -7.007358272 -1.429292086e-19)
(102.9302222 -5.111682696 1.295150741e-19)
(101.4667909 -3.695089786 -6.500046758e-20)
(100.6798608 -2.741419472 0)
(99.81618149 -1.893894896 0)
(99.43462916 -1.283219861 1.156894918e-20)
(99.19462899 -0.7506979381 2.136459998e-21)
(99.07153813 -0.2473234468 -6.918760928e-21)
(101.7839711 -0.2160686978 0)
(101.7364317 -0.6545368796 0)
(101.6454488 -1.107965739 0)
(101.4958566 -1.611560087 0)
(101.2029333 -2.008641382 0)
(100.8847875 -2.600108108 0)
(100.5134666 -3.336874016 -1.173086962e-19)
(99.99787616 -4.054879794 5.814694923e-20)
(99.25456827 -5.097279232 0)
(98.26078069 -6.439059894 1.247372471e-21)
(97.03842519 -8.288729524 1.866597478e-19)
(95.83337598 -10.85022004 1.234387981e-19)
(96.68436534 -19.91457561 1.214615494e-19)
(102.4722339 -16.22705827 -1.303669054e-19)
(103.6260227 -12.58327795 -4.589097902e-19)
(103.2941631 -9.523329988 0)
(102.4427248 -7.17107874 -2.196963619e-19)
(101.4786917 -5.407974323 3.577572276e-22)
(100.4297208 -3.968301437 -8.982874005e-20)
(99.86029494 -2.984074976 -3.386205184e-20)
(99.17943151 -2.049491646 -1.881172095e-20)
(98.873217 -1.394669278 1.84858822e-20)
(98.6769048 -0.8179873415 0)
(98.57524888 -0.2693563606 1.851081765e-20)
(102.2038634 -0.224935248 0)
(102.1690753 -0.6822650742 0)
(102.1039575 -1.153490106 0)
(101.9941575 -1.668210025 0)
(101.747516 -2.092901967 0)
(101.5170038 -2.701795454 0)
(101.261018 -3.432466975 -6.434140416e-21)
(100.9031567 -4.161309787 -5.090459699e-20)
(100.3906031 -5.166213449 -2.027749389e-19)
(99.72540594 -6.417809996 -3.699775053e-20)
(99.05733995 -8.057622828 1.967993235e-19)
(98.81494699 -10.39662487 4.287087179e-20)
(98.08155214 -12.94234007 -6.791549646e-20)
(100.3302672 -12.49596945 0)
(101.2026146 -10.69318261 3.093947274e-20)
(101.2011482 -8.668755753 0)
(100.7549853 -6.860799059 -4.465313596e-20)
(100.1462198 -5.374165672 -2.378010288e-20)
(99.41298186 -4.025558777 0)
(99.03594293 -3.080263348 0)
(98.51744487 -2.114976304 -3.480336664e-20)
(98.28128943 -1.450850716 1.717280029e-20)
(98.12739117 -0.8531953387 7.207757937e-22)
(98.04679768 -0.2809288622 -1.27339526e-20)
(102.6353462 -0.2279207321 0)
(102.6125828 -0.6915044549 0)
(102.5718438 -1.167850155 0)
(102.499291 -1.678478903 0)
(102.2964269 -2.114033377 0)
(102.1427533 -2.713662255 0)
(101.9847926 -3.408069036 1.793820594e-22)
(101.750296 -4.116735808 -6.244191759e-21)
(101.4282013 -5.021560775 -7.463820222e-21)
(100.9965414 -6.089939606 1.252282873e-19)
(100.6293994 -7.347258371 -7.325870775e-20)
(98.39357257 -8.568850979 0)
(98.93456855 -9.876742684 9.494388737e-22)
(99.58358614 -9.816621089 0)
(99.8180593 -8.909097372 -8.79184168e-20)
(99.72031321 -7.624326334 -1.113324329e-19)
(99.40902669 -6.299694088 -7.210794565e-20)
(98.99790903 -5.107456034 0)
(98.48462722 -3.918929656 -2.901132199e-20)
(98.25256531 -3.057875816 4.436981398e-20)
(97.86101681 -2.106670296 1.078990821e-20)
(97.68489964 -1.458680829 1.8434687e-20)
(97.56805973 -0.8599025038 -2.093365811e-20)
(97.5057183 -0.2830183302 0)
(103.0676506 -0.2257987023 0)
(103.0553187 -0.6846491508 0)
(103.0351994 -1.155010481 0)
(102.9942947 -1.649436283 0)
(102.8307169 -2.081953625 0)
(102.7397496 -2.652764434 0)
(102.6575437 -3.290831152 0)
(102.5084595 -3.950512814 -3.740389329e-20)
(102.3115442 -4.735935372 2.824237981e-19)
(102.0039618 -5.595743837 2.564958067e-19)
(101.6948883 -6.492047684 -1.99355313e-19)
(97.10824081 -6.955084314 8.398510951e-20)
(99.43294279 -7.948157223 0)
(99.26223484 -7.953940541 -3.65177979e-20)
(98.99908113 -7.43508072 -1.337050113e-20)
(98.70175004 -6.602330208 -4.588223926e-20)
(98.37427524 -5.654272219 -1.713435574e-21)
(98.04917216 -4.720026821 0)
(97.67446338 -3.711818721 0)
(97.52920817 -2.944663031 0)
(97.23357715 -2.041536752 3.717058119e-20)
(97.10442021 -1.426923785 -3.476479337e-20)
(97.01682374 -0.8425864853 -2.355613528e-21)
(96.96870508 -0.2777676646 2.363515621e-21)
(103.4914657 -0.2195137532 0)
(103.4876934 -0.66474977 0)
(103.4838603 -1.120142552 0)
(103.4679272 -1.589001535 0)
(103.3374248 -2.007009876 0)
(103.2930342 -2.536876973 0)
(103.2625271 -3.109682963 0)
(103.1648968 -3.698685901 0)
(103.0273363 -4.360344196 -7.809104319e-21)
(102.7506278 -5.037087095 -1.07210458e-19)
(102.4264117 -5.686607329 1.30297215e-21)
(95.87740425 -5.786651218 1.282336029e-19)
(99.67457747 -6.596503508 -6.586577569e-21)
(99.05267849 -6.592713385 1.724473761e-20)
(98.46275558 -6.261837593 0)
(97.98561805 -5.698001233 1.658587698e-23)
(97.59385574 -5.009370949 0)
(97.28398534 -4.283066327 0)
(96.97566458 -3.438814403 0)
(96.87710899 -2.768106967 0)
(96.64815706 -1.933959608 0)
(96.55285449 -1.363503298 0)
(96.48668216 -0.8076972582 0)
(96.44908866 -0.2674467772 0)
(103.8995186 -0.2100122935 0)
(103.9023904 -0.6348568635 0)
(103.910564 -1.068538189 0)
(103.9128553 -1.50578538 0)
(103.8080237 -1.901086 0)
(103.7947741 -2.384045621 0)
(103.7940532 -2.890178719 0)
(103.7217775 -3.404724809 0)
(103.5973468 -3.948642601 0)
(103.3036533 -4.478467701 0)
(102.9182276 -4.960101256 -4.010753105e-20)
(95.54719232 -4.996347334 0)
(99.78126414 -5.572398095 2.254380801e-20)
(98.89573399 -5.551881351 -5.454844349e-21)
(98.09553931 -5.32251983 0)
(97.47212546 -4.922380922 0)
(97.00238008 -4.408896773 0)
(96.66996545 -3.838395159 0)
(96.38311344 -3.135450477 0)
(96.30165361 -2.557688894 0)
(96.11235992 -1.801114188 0)
(96.03852466 -1.279799976 0)
(95.98593043 -0.7600719428 0)
(95.95636205 -0.2523686105 0)
(104.2865068 -0.1982190826 0)
(104.2941481 -0.5979259569 0)
(104.3102851 -1.005291184 0)
(104.3245287 -1.407876162 0)
(104.238305 -1.77545766 0)
(104.2429382 -2.209726618 0)
(104.2551937 -2.654407463 0)
(104.1888117 -3.096513792 0)
(104.0529228 -3.542079491 0)
(103.7246645 -3.957043365 0)
(103.2495583 -4.316792697 0)
(95.82798728 -4.367814585 0)
(99.84191406 -4.754904939 0)
(98.79097099 -4.728296185 0)
(97.83571398 -4.558198951 0)
(97.092849 -4.261376685 0)
(96.54625204 -3.868778491 0)
(96.17380554 -3.414382056 0)
(95.88318646 -2.828144965 0)
(95.79886732 -2.33381312 0)
(95.62879922 -1.656040105 0)
(95.56618066 -1.184747208 0)
(95.52079965 -0.7052239786 0)
(95.49602914 -0.2346787985 0)
(104.6489128 -0.1849929467 0)
(104.6596102 -0.5566776778 0)
(104.680114 -0.9349774887 0)
(104.700851 -1.30214757 0)
(104.627233 -1.639519526 0)
(104.6391834 -2.026445072 0)
(104.6512043 -2.416351117 0)
(104.5792947 -2.79242542 0)
(104.4186114 -3.158141862 0)
(104.0501165 -3.486695264 0)
(103.4785595 -3.759285438 0)
(96.1647876 -3.817866882 0)
(99.8708085 -4.088384925 -5.773446987e-35)
(98.70894289 -4.059177398 0)
(97.64051734 -3.926930912 0)
(96.80375313 -3.698784708 0)
(96.18798193 -3.391538408 0)
(95.77027836 -3.025707844 0)
(95.46047658 -2.533818714 0)
(95.36147527 -2.110649534 0)
(95.19632468 -1.508022362 0)
(95.13698734 -1.085204222 0)
(95.09386353 -0.6472478439 0)
(95.07146469 -0.215859404 0)
(104.9847597 -0.1710678101 0)
(104.9970622 -0.5134385619 0)
(105.0189659 -0.8614981233 0)
(105.0416893 -1.193934536 0)
(104.9761095 -1.500581077 0)
(104.9874036 -1.843403731 0)
(104.9900762 -2.184452865 0)
(104.9058519 -2.503273731 0)
(104.7142254 -2.804801238 0)
(104.3058453 -3.068155058 0)
(103.642113 -3.279026291 0)
(96.49028851 -3.345526209 0)
(99.87638078 -3.53749363 0)
(98.6408637 -3.506194452 0)
(97.48811756 -3.399561924 0)
(96.57733542 -3.219035515 0)
(95.90159415 -2.97355897 0)
(95.43946331 -2.675175359 0)
(95.1016928 -2.260348365 0)
(94.98145946 -1.896952677 0)
(94.81163139 -1.363515985 0)
(94.74989289 -0.9861789556 0)
(94.70543754 -0.5891718936 0)
(94.68354197 -0.1969250111 0)
(105.2933778 -0.1570271578 0)
(105.3061216 -0.4700454768 0)
(105.3271535 -0.7879513224 0)
(105.3483819 -1.087272037 0)
(105.2872503 -1.36400125 0)
(105.2923763 -1.666784146 0)
(105.2797233 -1.963832465 0)
(105.1795784 -2.235013635 0)
(104.9551657 -2.48490364 0)
(104.5101408 -2.698568247 0)
(103.7613437 -2.864451216 0)
(96.79488345 -2.939846118 0)
(99.86706638 -3.075779779 -8.147014414e-35)
(98.58260596 -3.043312203 0)
(97.36558191 -2.955061638 0)
(96.39592485 -2.808857044 0)
(95.66893513 -2.609202775 0)
(95.16520409 -2.362739875 0)
(94.79623366 -2.010904387 0)
(94.65110322 -1.697775616 0)
(94.47046695 -1.226735155 0)
(94.40253371 -0.8910615214 0)
(94.35432696 -0.5330875359 0)
(94.33158072 -0.1785695981 0)
(105.5751293 -0.1433137023 0)
(105.5874127 -0.4278627079 0)
(105.6059301 -0.7166258004 0)
(105.6231501 -0.9850597669 0)
(105.5637422 -1.233491704 0)
(105.5591239 -1.50041299 0)
(105.5281806 -1.758167528 0)
(105.4096086 -1.990152874 0)
(105.153208 -2.198454442 0)
(104.6758213 -2.373816818 0)
(103.8502744 -2.506173582 0)
(97.07683937 -2.589849893 0)
(99.84779076 -2.685260411 0)
(98.53178103 -2.652353308 0)
(97.26484223 -2.577932377 0)
(96.24779884 -2.457338109 0)
(95.47721573 -2.292497277 0)
(94.93549466 -2.086626575 0)
(94.5348522 -1.786520524 0)
(94.36342317 -1.515682349 0)
(94.16833801 -1.100171036 0)
(94.09184556 -0.8019911704 0)
(94.03835783 -0.4803507749 0)
(94.01382425 -0.161247437 0)
(105.8311039 -0.1302513032 0)
(105.842249 -0.3878611721 0)
(105.8571184 -0.6491244873 0)
(105.8686215 -0.8892738406 0)
(105.8089224 -1.111478661 0)
(105.7923581 -1.346523376 0)
(105.7418759 -1.570217926 0)
(105.6037584 -1.769339257 0)
(105.3173605 -1.944076517 0)
(104.8118144 -2.089526807 0)
(103.918242 -2.196398911 0)
(97.33756986 -2.28679643 0)
(99.82174809 -2.35313434 2.950358397e-35)
(98.48686663 -2.32027532 0)
(97.18062091 -2.256627357 0)
(96.12497952 -2.155700599 0)
(95.31731116 -2.017878188 0)
(94.74137801 -1.844227597 0)
(94.31000221 -1.586833533 0)
(94.11228542 -1.351614875 0)
(93.90082535 -0.9850835882 0)
(93.8144411 -0.7202026648 0)
(93.75479526 -0.4317757066 0)
(93.72785936 -0.1452369737 0)
(106.0628815 -0.1180666167 0)
(106.0723972 -0.3507017738 0)
(106.0828791 -0.5865134706 0)
(106.0875786 -0.8011636693 0)
(106.0261526 -0.9994192469 0)
(105.9964341 -1.206406908 0)
(105.9260656 -1.400877821 0)
(105.7684187 -1.572252531 0)
(105.4545819 -1.719764226 0)
(104.92454 -1.841546792 0)
(103.9715741 -1.928862145 0)
(97.58070657 -2.024279931 0)
(99.79100441 -2.069964395 0)
(98.44676672 -2.03737811 0)
(97.10926346 -1.982306935 0)
(96.02183535 -1.896820352 0)
(95.18253094 -1.780342239 0)
(94.57601639 -1.632598291 0)
(94.11553558 -1.410683511 0)
(93.8923646 -1.205501908 0)
(93.66373737 -0.8819051859 0)
(93.56684766 -0.6462881269 0)
(93.50063325 -0.3877820553 0)
(93.47092223 -0.1306880822 0)
(106.2723728 -0.1069071248 0)
(106.2799189 -0.316801566 0)
(106.2855731 -0.5294489458 0)
(106.2828445 -0.7214341521 0)
(106.2186623 -0.8981051018 0)
(106.1752692 -1.080598067 0)
(106.0852921 -1.250126526 0)
(105.9087537 -1.398005074 0)
(105.5702288 -1.523332673 0)
(105.0187723 -1.626138794 0)
(104.0145262 -1.69822478 0)
(97.81053776 -1.796970969 0)
(99.75693306 -1.828524457 0)
(98.41061497 -1.796298486 0)
(97.0481209 -1.748127291 0)
(95.93427134 -1.674945828 0)
(95.06787456 -1.575555172 0)
(94.43411807 -1.448845774 0)
(93.94645711 -1.256554469 0)
(93.69909919 -1.076711845 0)
(93.45318267 -0.7905441511 0)
(93.34565042 -0.5804001112 0)
(93.27277234 -0.3485112541 0)
(93.24008738 -0.1176588067 0)
(106.4617045 -0.09685873193 0)
(106.4670568 -0.2863914669 0)
(106.4676614 -0.4782802031 0)
(106.4572099 -0.6503953329 0)
(106.3895444 -0.8078205224 0)
(106.3324047 -0.9690969668 0)
(106.2234636 -1.117424208 0)
(106.0289955 -1.245403379 0)
(105.6684574 -1.352591637 0)
(105.0981061 -1.439994757 0)
(104.0499545 -1.499988843 0)
(98.03079047 -1.600586528 0)
(99.72057797 -1.623202361 0)
(98.37765976 -1.591286024 0)
(96.99516491 -1.548646205 0)
(95.8591866 -1.485354219 0)
(94.96948356 -1.399765627 0)
(94.31147501 -1.290246297 0)
(93.79860983 -1.122767996 0)
(93.52851666 -0.9642838494 0)
(93.2655873 -0.7105873949 0)
(93.14757204 -0.522405431 0)
(93.06813169 -0.3139205377 0)
(93.03239144 -0.1061455607 0)
(106.6330844 -0.08796386801 0)
(106.6361047 -0.2595720344 0)
(106.6315905 -0.4331454568 0)
(106.6133471 -0.5881062696 0)
(106.5416782 -0.7285456558 0)
(106.4709997 -0.8716061435 0)
(106.3439064 -1.001973027 0)
(106.132645 -1.11317538 0)
(105.7525208 -1.205533023 0)
(105.1653047 -1.280366187 0)
(104.0796606 -1.330618474 0)
(98.24566982 -1.431820417 0)
(99.68255391 -1.449714654 0)
(98.34716624 -1.417787219 0)
(96.94878425 -1.379502219 0)
(95.7941769 -1.324185222 0)
(94.88432647 -1.249797275 0)
(94.20469573 -1.154357032 0)
(93.66852787 -1.007674884 0)
(93.37717985 -0.8671403745 0)
(93.09771788 -0.6414678126 0)
(92.96954751 -0.4720102874 0)
(92.88375739 -0.2838607 0)
(92.84495656 -0.09610862389 0)
(106.7888036 -0.08023350587 0)
(106.7894091 -0.2363524359 0)
(106.7798021 -0.3940382183 0)
(106.753849 -0.5344523713 0)
(106.6777432 -0.6600733647 0)
(106.593903 -0.7876736419 0)
(106.4494179 -0.9026846286 0)
(106.222658 -1.000101345 0)
(105.8250502 -1.080344474 0)
(105.2225925 -1.14492359 0)
(104.1046189 -1.187174664 0)
(98.46013965 -1.287313304 0)
(99.64291333 -1.304348168 0)
(98.31841883 -1.271966693 0)
(96.90767918 -1.237095494 0)
(95.73732897 -1.188236943 0)
(94.80995018 -1.122956264 0)
(94.11093746 -1.039009332 0)
(93.55327854 -0.9097411554 0)
(93.24207616 -0.7841993556 0)
(92.94659282 -0.5825457445 0)
(92.80868034 -0.4288369099 0)
(92.71680105 -0.2581231334 0)
(92.67497431 -0.08748683223 0)
(106.930957 -0.07366426586 0)
(106.9291155 -0.2166949786 0)
(106.914504 -0.3608620774 0)
(106.8810215 -0.4892796452 0)
(106.8002141 -0.6020825043 0)
(106.7037065 -0.7167326791 0)
(106.5426614 -0.8185109017 0)
(106.3014649 -0.9050208035 0)
(105.8882229 -0.975431664 0)
(105.2718226 -1.031753913 0)
(104.1254058 -1.06757492 0)
(98.67677189 -1.164667564 0)
(99.60166166 -1.183293167 -5.356048407e-36)
(98.29095615 -1.150499883 0)
(96.8708583 -1.118455452 0)
(95.68711315 -1.074869939 0)
(94.74435834 -1.016997613 0)
(94.02784613 -0.9425991118 0)
(93.45027362 -0.8277320478 0)
(93.12053182 -0.7144231285 0)
(92.80963978 -0.5332325934 0)
(92.6624242 -0.3924815756 0)
(92.56473205 -0.2364870359 0)
(92.51994792 -0.08021580562 0)
(107.0622641 -0.06822731721 0)
(107.0579216 -0.2005089774 0)
(107.0383791 -0.3334621373 0)
(106.9975646 -0.4522369152 0)
(106.9114277 -0.5542121401 0)
(106.8027576 -0.6581415169 0)
(106.6262363 -0.7490276202 0)
(106.3711583 -0.8267775666 0)
(105.9439277 -0.889389642 0)
(105.3147094 -0.9392729844 0)
(104.1431043 -0.9703925096 0)
(98.89266143 -1.063216601 0)
(99.55954626 -1.083411246 0)
(98.26472927 -1.050792818 0)
(96.83759325 -1.021225372 0)
(95.64228193 -0.9819395255 0)
(94.68590889 -0.9300284774 0)
(93.95366587 -0.8635343017 0)
(93.35711143 -0.7605124047 0)
(93.01014607 -0.6568945077 0)
(92.68399334 -0.4928362441 0)
(92.52788791 -0.362545876 0)
(92.42460374 -0.2187116388 0)
(92.37688738 -0.07421623243 0)
(107.1829007 -0.06394220523 0)
(107.1761518 -0.1877912917 0)
(107.1518428 -0.3117215927 0)
(107.1039721 -0.4234983662 0)
(107.0135478 -0.5160013064 0)
(106.8931771 -0.611296424 0)
(106.7023437 -0.6944094105 0)
(106.4337308 -0.7641984645 0)
(105.99386 -0.820941467 0)
(105.3527926 -0.8659412331 0)
(104.1590809 -0.8937259891 0)
(99.10247338 -0.9817813016 0)
(99.51750706 -1.003438746 0)
(98.23972018 -0.9711513391 0)
(96.8072512 -0.9436174591 0)
(95.60173905 -0.9077315912 0)
(94.6331132 -0.8604557711 0)
(93.88653236 -0.7998269005 0)
(93.27192994 -0.7066373797 0)
(92.90867919 -0.610595842 0)
(92.56902962 -0.4612687803 0)
(92.40445978 -0.3387070555 0)
(92.29585566 -0.2046772426 0)
(92.24537711 -0.06947109613 0)
(107.3023242 -0.0606537425 0)
(107.2928047 -0.178235269 0)
(107.2635379 -0.295362082 0)
(107.2079794 -0.4009569807 0)
(107.1091374 -0.4872620889 0)
(106.9768352 -0.576056465 0)
(106.7721823 -0.6537325245 0)
(106.491039 -0.7166381646 0)
(106.0394695 -0.7690208967 0)
(105.3872553 -0.8103878624 0)
(104.1741548 -0.8357562095 0)
(99.30351336 -0.9189303288 0)
(99.47587101 -0.9426619688 0)
(98.21558423 -0.9104121786 0)
(96.77917288 -0.8843086764 0)
(95.56447427 -0.8509407806 0)
(94.58460116 -0.8070973682 0)
(93.82451522 -0.7507662826 0)
(93.19313498 -0.6652447819 0)
(92.81431483 -0.575568206 0)
(92.45697671 -0.4361538581 0)
(92.28344438 -0.32052864 0)
(92.16938764 -0.193966584 0)
(92.11578405 -0.06578077106 0)
(107.3940417 -0.05880929414 0)
(107.3827247 -0.172616416 0)
(107.3496274 -0.2853090896 0)
(107.2891315 -0.3895668069 0)
(107.1979047 -0.467300435 0)
(107.05535 -0.5517575507 0)
(106.8374338 -0.6261087404 0)
(106.5444913 -0.6834144495 0)
(106.0819616 -0.7327644258 0)
(105.4190629 -0.7715752464 0)
(104.1888824 -0.7953855673 0)
(99.49469643 -0.8737923003 0)
(99.43490581 -0.8999562802 0)
(98.19184943 -0.8676043568 0)
(96.75266018 -0.8423018719 0)
(95.52953101 -0.8105797466 0)
(94.5391692 -0.7690512066 0)
(93.76637417 -0.7156771086 0)
(93.11906903 -0.6358345996 0)
(92.72557844 -0.5508359695 0)
(92.36884312 -0.4225374247 0)
(92.18914883 -0.3089755469 0)
(92.0708891 -0.1874371304 0)
(92.0153126 -0.06364581486 0)
(107.5672521 -0.05688175259 0)
(107.5521066 -0.1678810969 0)
(107.511649 -0.27723682 0)
(107.438021 -0.376158539 0)
(107.2800734 -0.4568387774 0)
(107.1266779 -0.5385677158 0)
(106.8969605 -0.6116669946 0)
(106.5953679 -0.6639835211 0)