/*--------------------------------*- C++ -*----------------------------------*\
| =========                 |                                                 |
| \\      /  F ield         | OpenFOAM: The Open Source CFD Toolbox           |
|  \\    /   O peration     | Version:  v1912                                 |
|   \\  /    A nd           | Website:  www.openfoam.com                      |
|    \\/     M anipulation  |                                                 |
\*---------------------------------------------------------------------------*/
FoamFile
{
    version     2.0;
    format      ascii;
    class       volScalarField;
    location    "1.87";
    object      omega;
}
// * * * * * * * * * * * * * * * * * * * * * * * * * * * * * * * * * * * * * //

dimensions      [0 0 -1 0 0 0 0];


internalField   nonuniform List<scalar> 
12556
(
31.9314328
31.93234627
31.93327902
31.9340742
31.96680742
31.96777621
31.96885923
31.97103321
31.97503285
31.98105374
31.98847313
31.99464605
31.99626583
31.99312811
31.98638138
31.97949861
31.97420116
31.97032622
31.96874812
31.96745895
31.93355114
31.93243257
31.93142485
31.93050166
31.79602043
31.79865548
31.80116669
31.80333876
31.83698297
31.84062098
31.84666085
31.87109339
31.88926981
31.91727574
31.95149028
31.98225383
31.99349034
31.98091741
31.95002288
31.9170239
31.89037285
31.87273922
31.84641505
31.83981494
31.80290183
31.79939923
31.79628593
31.79355599
31.66246296
31.66709085
31.67145144
31.67511652
31.70972605
31.7177585
31.73183024
31.768141
31.81064082
31.87217801
31.94646664
32.01065545
32.03838636
32.01224774
31.94775473
31.87406351
31.81455832
31.7729981
31.73104779
31.71645245
31.6750731
31.66911015
31.66362888
31.65902104
31.53051036
31.53641878
31.54222481
31.5478921
31.58555971
31.60108338
31.63090017
31.68995774
31.77296013
31.8935072
32.0365733
32.17408808
32.24725672
32.19074993
32.05463921
31.90119133
31.7768014
31.69596109
31.62833022
31.60054348
31.55119486
31.54150654
31.53333921
31.52671931
31.40031853
31.40813834
31.41597877
31.42504258
31.46654372
31.49356355
31.54921755
31.6441656
31.80099911
32.03373506
32.34508512
32.72871463
32.97364356
32.8412525
32.46141762
32.09409482
31.8116131
31.65496837
31.54495307
31.49414006
31.43150755
31.41681592
31.40534704
31.39638504
31.27118826
31.28037663
31.29031015
31.30375698
31.35380575
31.39879777
31.49318706
31.64290866
31.91519346
32.36587377
33.15484639
34.6043213
35.86156727
35.21471106
33.69076867
32.64979577
31.98468028
31.66178174
31.48404629
31.39975802
31.3168792
31.29437037
31.27875645
31.26725839
31.14429976
31.15541805
31.16878533
31.18878026
31.24849666
31.31728436
31.46036657
31.69733308
32.14995426
32.99154337
35.04904595
42.13516217
49.33256738
45.9416493
37.13534207
33.88233776
32.37407507
31.74233911
31.44777984
31.31917407
31.20799088
31.17490676
31.15390708
31.1394084
31.01925873
31.03210184
31.04911085
31.07765237
31.15072633
31.24889979
31.45491273
31.80389845
32.49184248
33.91254456
38.25741772
61.23484721
79.62451783
45.04444869
36.12194832
33.02694141
31.90626193
31.43802361
31.25144018
31.10544727
31.05863697
31.03089169
31.01311339
30.89867326
30.91425905
30.93678674
30.97651819
31.06102394
31.19310519
31.46990015
31.94603174
32.87941925
34.845191
41.01758767
75.43976864
155.1534336
56.43883944
39.17911442
33.90954485
32.14080261
31.449342
31.1952856
31.00982541
30.94693215
30.91109887
30.88947618
30.78269719
30.80068044
30.8284798
30.87969297
30.98070855
31.14821708
31.50163282
32.1028136
33.24824355
35.59037248
42.60057653
81.48612009
193.7421894
66.20831487
42.18759418
34.81382736
32.40137564
31.48052603
31.14885529
30.92171175
30.84080011
30.79585675
30.77008853
30.67449195
30.69590741
30.73067478
30.7959269
30.90920289
31.11249119
31.54160344
32.25414073
33.56070857
36.14984275
43.73255963
91.12449703
192.7375255
71.58796224
44.24226201
35.53458376
32.64245616
31.51859525
31.11020387
30.84113084
30.74184092
30.68706361
30.65650661
30.5722421
30.59636179
30.63688693
30.71496017
30.8448289
31.08343357
31.58381427
32.38960425
33.82440802
36.60772774
44.83884388
102.4495066
177.4604367
72.98408832
45.18066055
35.9846765
32.83343277
31.5524609
31.07577329
30.76789883
30.64965754
30.58509563
30.54979594
30.478581
30.50623872
30.55467122
30.64665746
30.78525638
31.05606029
31.61612951
32.50996479
34.03597112
37.00199125
46.19158353
111.8257949
827.1203074
151.7715485
71.68394041
45.25428746
36.13047637
32.9516473
31.57337106
31.04191446
30.69910796
30.56444117
30.48980948
30.44958775
30.38910782
30.4197517
30.47494188
30.57788415
30.73714036
31.04748611
31.68356423
32.64820655
34.27300432
37.47221828
48.16124524
156.6313598
511.5155671
141.4000742
69.45406372
44.54922678
36.06489337
33.01545794
31.57698834
31.00500176
30.63159724
30.48356899
30.39967339
30.35480464
30.3052958
30.33884759
30.39987797
30.5119249
30.68299484
31.0213278
31.71515331
32.80959664
34.66371111
38.19051175
50.00697718
396.7903975
366.1552508
129.9918217
65.31294
43.48597285
35.85733926
33.03062224
31.55969954
30.96191241
30.56496035
30.40516235
30.31270807
30.26406756
30.22144441
30.25762035
30.32367348
30.4443119
30.62707346
30.98875557
31.72839297
33.01280295
35.34603192
39.83821612
56.2913127
759.2781019
297.6089611
112.5987164
59.84260703
42.06934232
35.59739991
32.99015215
31.52045093
30.91026588
30.49435491
30.32544253
30.22632581
30.17385317
30.139855
30.1786078
30.24855656
30.37530071
30.56692549
30.94679632
31.72226135
33.16798536
36.29929119
43.59031312
89.13040304
984.811498
204.4730365
91.56958038
54.07614326
40.66750968
35.39407355
32.91782955
31.46224055
30.84946871
30.42054914
30.24498545
30.13966028
30.08443634
30.05404378
30.09505703
30.1682672
30.30071425
30.50102921
30.89436009
31.69766463
33.20254206
37.12872923
51.0241644
267.6416191
625.5171529
148.6901194
75.62138117
49.96682618
39.85054989
35.23323579
32.82249532
31.3870554
30.77631108
30.33873075
30.15821057
30.04924139
29.99151858
29.96856863
30.01177919
30.08749723
30.22317852
30.42860367
30.83135261
31.65521488
33.20515175
37.39560205
59.79544814
479.449111
317.7777872
121.382771
68.19817487
48.44187724
39.52011858
35.05833872
32.7098561
31.29928882
30.69333265
30.25144611
30.06801655
29.95634899
29.89711453
29.87625013
29.92119862
29.9992019
30.13850106
30.34969438
30.75866644
31.59804773
33.18616606
37.63058779
64.76609693
466.6655121
269.9146803
114.7607251
66.9374168
47.85123081
39.21805796
34.88094749
32.58693675
31.20190233
30.60161471
30.15638447
29.97070093
29.8572625
29.79711534
29.78454401
29.83099537
29.91073359
30.05141998
30.26459317
30.67769665
31.52889542
33.15091393
37.8803036
69.22290219
441.6002787
249.3821583
111.0968869
66.0598932
47.38302773
38.94683828
34.70759443
32.45863341
31.09732213
30.50244762
30.05696022
29.87069852
29.75636791
29.69576458
29.6846825
29.73203287
29.81338681
29.95663219
30.17397492
30.58986521
31.45026943
33.10379021
38.17449102
72.47029272
414.9885077
233.7717304
108.1026242
65.34958313
47.03530588
38.7115036
34.54233721
32.32851664
30.98753599
30.39725788
29.95049089
29.76341742
29.64863061
29.58805094
29.5875797
29.63553373
29.71784326
29.86118562
30.07834179
30.4964123
31.36440053
33.04973818
38.56862709
74.59229913
388.7688215
221.3646919
105.6070681
64.75635952
46.78210511
38.51558811
34.38837932
32.1993754
30.87430843
30.28742995
29.84219464
29.65581714
29.54114118
29.48084032
29.48127974
29.52931198
29.61254585
29.75780916
29.97862341
30.39847903
31.27356105
32.99571981
39.06923153
75.85301163
363.9748285
211.1666203
103.4930719
64.25376535
46.59317942
38.35716392
34.24782836
32.07333714
30.75924151
30.1742919
29.72773461
29.54088542
29.42632171
29.36655269
29.38115849
29.4290873
29.5125521
29.65678137
29.87544945
30.29721229
31.18009016
32.95035815
39.60994914
76.53378553
340.8819458
202.6225552
101.6725577
63.82327064
46.44795742
38.23034192
34.1212002
31.95177325
30.64363329
30.05894138
29.61454533
29.42894183
29.31489951
29.25573703
29.26991361
29.31739107
29.40128138
29.54722866
29.76995274
30.19367008
31.0860246
32.92056843
40.11521761
76.76695329
319.473394
195.3297504
100.0818429
63.4513196
46.33469983
38.12873293
34.00770385
31.83532887
30.52842386
29.94237403
29.49504905
29.30856722
29.19472841
29.13625877
29.16944199
29.21642704
29.30007771
29.44411316
29.66257513
30.08877538
30.99298528
32.90843801
40.54425825
76.61974327
299.6223635
188.9789695
98.67471093
63.12761123
46.246245
38.04701487
33.90596432
31.72415548
30.41427101
29.82527475
29.38048822
29.19551327
29.08227513
29.02446612
29.05412996
29.10040592
29.18420289
29.33018581
29.5544139
29.98325274
30.90221764
32.91119421
40.88854073
76.1735565
281.1462732
183.2968609
97.41220247
62.84235621
46.17700955
37.98099636
33.81451379
31.61811769
30.30158872
29.70830619
29.25764212
29.07094889
28.95777394
28.90062393
28.95586048
29.00149356
29.0848127
29.22820084
29.44541165
29.877651
30.81456538
32.92356579
41.15122949
75.49211235
263.8906306
178.0735525
96.25769388
62.58561165
46.12221848
37.92745952
33.73203596
31.51697722
30.19065174
29.59175831
29.14477484
28.95982247
28.84715911
28.79058659
28.83636451
28.88119155
28.96448475
29.11025441
29.33669197
29.77239509
30.73044017
32.93979194
41.33977157
74.63277588
247.7468124
173.2424528
95.18204649
62.34890991
46.07806352
37.8839172
33.65736949
31.42044863
30.08163699
29.47613699
29.01872635
28.83097971
28.71816202
28.66213484
28.74294135
28.78711624
28.86987456
29.01260241
29.22764832
29.6678521
30.64995054
32.95597001
41.46936954
73.6918372
232.8474493
168.7213064
94.16409619
62.12635205
46.04173422
37.84843673
33.58950657
31.32823702
29.97467125
29.36144765
28.910826
28.72503874
28.61254125
28.55694934
28.6180381
28.66138525
28.74395796
28.88933326
29.11977237
29.56437782
30.57298193
32.96941991
41.5510932
72.70638879
219.1756614
164.4329195
93.18907785
61.91394653
46.01107269
37.81944188
33.52755922
31.24004307
29.86985064
29.24824381
28.7798392
28.59025692
28.47741685
28.4222315
28.53262024
28.57538629
28.65752312
28.80005374
29.01181848
29.46231769
30.49926842
32.97797772
41.58960708
71.67555696
206.5586241
160.3777975
92.24932713
61.7084827
45.98408052
37.7954975
33.47070033
31.15556013
29.76730282
29.13629253
28.68150678
28.49370681
28.38089863
28.32598728
28.39976519
28.44170241
28.52347179
28.66791773
28.90623348
29.36214779
30.42851219
32.98016563
41.58959811
70.61254052
194.9429554
156.5600763
91.33768374
61.50623298
45.95862301
37.77523404
33.41816564
31.07451921
29.66731465
29.02662582
28.54090086
28.34928452
28.23601877
28.18137838
28.32636378
28.36785759
28.44937639
28.59300995
28.80124776
29.26463245
30.36075535
32.97588582
41.55700737
69.54646242
184.3511312
152.9390932
90.44444505
61.30324103
45.93262432
37.75738849
33.36924023
30.99660672
29.57063259
28.91929858
28.45982853
28.26796587
28.15439271
28.09984686
28.15685615
28.1973944
28.27845243
28.42357709
28.70195387
29.17140145
30.29705043
32.96497721
41.4990803
68.5018389
174.6850943
149.4836059
89.56813558
61.09808678
45.90457638
37.74092027
33.3234172
30.92169679
29.47924996
28.81771073
28.27942564
28.08312019
27.96862589
27.91419519
74.70617178
184.1578263
90.4446329
80.63534355
234.4757654
191.2448675
89.76330947
229.401999
236.1798864
101.1456121
205.6732472
226.419873
110.7733631
1013.827801
863.7337002
184.3862363
202.4015022
137.4482562
630.3911779
992.7113975
534.1071998
179.3930415
182.3364202
58.06199202
48.87210424
82.40858117
45.5138635
588.9955915
196.34509
146.5808848
62.26958928
49.79890209
42.28829309
68.97907747
65.13085229
2015.703098
1433.45508
191.5480842
76.85026879
66.41569786
43.49902156
74.64710994
69.54589648
84.5131879
241.305244
218.770052
1098.972195
1543.178788
194.1778801
84.71685732
79.5041723
44.63321684
83.06885059
75.58109213
95.18408552
340.48726
275.099601
601.1835678
808.6972907
45.93929974
93.61168576
84.10299459
104.2887172
510.3665524
412.2826246
2398.744198
385.8236873
449.3157545
47.90626599
113.8846339
95.1745569
119.9230163
1081.5699
721.1570417
151.8273836
477.7686258
621.0217052
188.4247793
218.9529738
115.6012415
182.1896526
1395.699055
622.4470875
143.9520047
496.4197348
969.1337161
216.0285483
197.7612169
78.12151647
257.7989666
269.7801167
224.7545319
254.9402095
1562.931681
2016.129554
215.7242922
1390.09787
1188.881795
1001.745775
1386.909135
212.9447876
271.9688197
245.0402276
85.71127063
311.9124102
354.1125299
271.8328747
308.7213036
847.2748994
1073.808342
235.087414
806.985384
628.3764456
1175.040216
838.235166
236.4172922
408.1222897
343.7389288
96.55321998
418.1641876
516.2893199
356.8832219
414.2996902
462.9560624
578.0012792
710.7575537
519.6513145
104.5865127
3380.029845
700.9563922
1052.426407
521.2514651
685.286863
3794.984172
353.3563445
379.2713436
2104.63428
8580.97943
1090.139847
121.2401633
723.6056546
1691.259901
7742.390587
1060.803468
1664.471103
743.4081925
40.47413968
64.431732
54.10993573
69.26646765
148.8492077
100.1540068
3643.925151
640.3305241
77.63960626
195.5319034
173.9147505
6177.308773
179.8548225
86.83138261
85.74066828
6053.885479
864.8065168
962.6877858
653.9358567
312.3559222
341.0299576
171.1826855
152.5504316
71.03646014
1437.176874
274.8612005
632.4920651
163.2042057
438.5183975
132.6783741
983.1305549
1262.583459
214.3779707
477.1568011
405.635155
606.8336262
490.6090579
217.7250425
1437.548012
4677.794667
875.7572958
82.28102599
65.24887504
104.9099859
170.7572708
78.01177706
83.91867716
5091.746331
410.9330189
3584.466951
469.3398316
2618.913976
369.5133147
1640.849536
1619.409204
1280.008678
1311.082515
2445.320515
5241.648215
679.03574
2969.194606
1597.16916
5910.613322
3479.363138
709.3915873
447.4831467
178.1942605
185.6701979
726.1998184
824.2848289
5473.878988
775.8257615
228.5882333
241.497724
213.0653907
223.7139397
772.9279729
1301.588606
1438.761737
202.0366182
926.1643514
762.6292229
1381.372116
926.3291663
205.8480859
149.9207274
465.7033793
221.6140784
678.4548906
497.8648674
160.7749244
661.7116951
961.5290606
979.0962202
926.5995776
257.7607749
1496.053645
258.123252
239.5619259
1453.242087
1400.229219
1491.09913
1459.314713
243.5724921
1669.962145
1688.900675
1271.686946
423.2965638
413.2284594
424.5715496
424.9248637
1261.224
1180.085644
377.0457487
345.3551962
407.8976853
386.3545361
1201.141913
331.2099024
333.9445951
287.4000196
289.6643176
902.6623683
6116.626761
920.0570366
447.499362
454.1200728
385.000437
388.9334872
1506.869402
1095.478893
520.6335721
1339.97112
2260.593602
570.3831424
199.8020767
209.4216473
188.3743296
196.8209793
561.9612956
1587.376344
744.7828133
757.0131481
557.128855
561.6116343
6218.439755
1196.349326
621.1998099
696.5815335
247.0404493
257.395516
1331.401298
2689.107632
2000.680115
3058.568827
1094.664664
6797.228268
3318.731516
5865.545715
1090.743331
832.7102179
4289.692712
2477.162067
4419.394061
2274.980393
3078.567229
49.53035945
117.1097512
116.4022664
169.2796159
4241.084297
7957.561327
383.2147133
164.245754
175.661877
1296.082413
3497.597629
4728.779278
541.2604017
597.1392903
1121.93441
285.9289019
303.0402095
636.2155248
164.6235039
120.7371294
253.0849907
501.3946488
151.1546838
178.6974898
1899.406216
4788.371936
4941.336073
1527.973185
1178.391129
3348.641112
2417.677519
5676.418861
5558.52496
1468.309445
314.5818095
148.5213152
153.1858404
142.8035839
147.0410095
308.8676933
169.482308
175.9907659
442.9812074
999.5276778
408.3759792
426.4494407
6581.071132
3473.486985
576.7113647
1211.699233
4383.912064
4785.69968
668.4893998
276.8637213
231.6327622
332.432775
292.226679
700.2357716
1611.861118
5617.654763
5687.318879
1911.187977
259.6941391
137.5796019
141.4709743
706.6673774
693.9614385
345.1582704
2279.893084
2084.908694
1007.510718
724.6140234
376.1521782
391.8917889
1040.72386
414.7834106
422.9721176
397.4202659
410.6385318
1019.760212
371.8798244
161.7385863
167.485978
154.8094321
159.9274283
367.6003782
429.7986926
1008.115315
998.8881543
1580.426838
1535.275336
495.8790933
367.6847803
742.6120432
708.7840433
994.9104348
988.5681315
403.2657384
503.4699644
1054.244004
852.5537406
6261.549334
2419.573501
723.4852863
892.4178773
536.118171
1612.291392
1587.581522
1617.343088
603.7404423
5321.212399
8686.422194
322.8552932
363.9320854
433.1427765
449.2145439
1096.721157
2269.821042
1379.678206
669.3904611
1706.765585
8398.46684
2070.442325
1881.332896
15916.70442
1070.4231
1585.602693
2217.20063
2686.72031
2008.520291
6139.547413
6228.196437
1525.429584
2013.587573
6261.752527
1483.56876
1420.170034
429.1373301
1611.270326
649.201968
1591.17119
469.0337808
4730.578327
3377.156265
1112.064771
5427.6399
6255.780813
4896.092422
3618.320372
1204.867469
5039.208552
6138.023899
3576.33405
4808.054845
6515.573725
2387.973525
3230.525915
1660.448885
2141.84648
5855.702372
5231.848636
1473.428991
895.1259288
2419.493472
1625.176218
803.8099544
500.0815235
1480.153754
5101.491625
6488.275631
1806.10725
1549.490134
4992.714538
5112.589381
3695.940834
3465.262824
1208.089591
5863.646355
5765.155675
4301.687646
5697.616191
5725.521932
1427.208636
5687.800554
3800.947123
3583.788991
4024.857701
2206.433504
1025.061913
1109.704006
4560.812485
1301.361117
1477.492984
1144.115055
1249.110686
4286.188918
4120.433506
1177.786579
1399.5502
382.2118961
402.1819375
911.1197968
746.470491
363.0251846
377.2497437
1404.002088
1414.694989
918.2744435
343.7910316
364.5419184
318.1592494
337.6758958
911.7523706
971.4799527
408.3369025
442.5723295
371.8873952
398.3635616
978.6600633
614.8525378
291.7739717
312.3265699
881.9310045
913.7620229
3133.339823
3257.479844
1148.522475
4650.058662
4734.788667
5966.119358
3229.872042
2690.190439
4601.536663
3188.129292
775.8857894
2239.456074
2995.983358
1531.991843
542.660654
606.1771131
518.770272
532.0680918
1498.462485
654.0518813
663.8577681
626.8906193
650.4967916
1436.110125
471.1731574
483.4898939
450.8138435
466.8245335
1428.468128
1477.541568
503.1047222
514.4092778
487.500606
499.2505406
1475.444928
5478.925113
5564.677918
1627.428002
1832.127576
5760.420888
5452.7415
962.5098382
966.6531275
938.1082822
961.2111765
978.0879443
989.9101374
968.2525474
975.659453
679.3610308
689.0529307
666.9228855
676.0790812
728.2011449
896.2018403
693.8084176
705.8844562
1945.185048
2289.652618
1541.357305
1806.603132
6362.841873
3661.21396
4038.847038
2453.864065
3537.415121
1020.884909
1013.728654
434.0114785
1610.741712
1615.191759
1579.606148
1601.69746
1659.215123
485.1338349
1500.025968
1073.040889
959.9261146
762.913042
371.7002968
1036.968797
1487.39761
990.55237
1046.771913
1545.554547
1568.236047
1506.621041
1536.055955
399.6825849
986.670101
977.6675005
6324.119323
1599.723034
6244.98009
5399.539547
6223.665943
1717.918355
6474.837297
2143.395501
6205.125815
5422.779423
730.0223875
809.1616015
1644.798303
1617.397209
540.7809036
588.1040816
1707.541747
1647.346935
6155.91002
1135.834386
460.6404447
501.9256851
6307.977198
7131.778775
1777.747886
7728.734188
5680.547107
2550.86113
1071.922288
6781.774301
4096.522484
7513.003329
4520.673678
1529.346366
73.38378436
46.16917359
38.47647331
6227.017428
6201.180901
167.0890248
85.55971627
86.74983958
6466.903272
1146.141846
3297.917188
2433.719066
395.35174
328.8634654
194.4116811
411.8770346
273.2242835
653.7762873
2410.453085
396.2394756
446.2181867
59.59742795
71.3434027
147.5501345
513.289453
1041.572579
1546.431068
230.8466085
127.9402283
131.598538
122.9129401
126.7135156
227.6772683
1005.865083
1122.975528
3634.897741
813.62899
714.4802194
420.0351292
345.9077801
358.7728932
741.5615258
1683.392982
2153.958208
728.9583144
132.7643517
136.3379782
256.043883
320.3573479
662.3672253
637.7084324
616.4873076
552.3066999
299.6116605
634.2604165
328.3162527
341.6386498
4948.773704
4660.171104
3049.767195
1623.878655
1602.680952
1030.657064
4289.505693
6107.341523
5529.430719
1555.544567
886.6658065
980.842057
1694.22447
1065.603728
1656.352692
1643.779439
1663.769215
3913.463625
5985.961607
4100.586802
4510.743567
5991.514089
1845.632382
1476.026812
877.0340761
1454.115388
215.7790026
169.5757152
312.2671489
1074.013871
2924.644953
2048.432809
6289.495456
6622.689583
6762.196283
5636.327282
6456.369815
109.8427641
143.1513159
388.8122387
4130.1007
2692.686217
2071.524355
5483.643866
4204.891677
2692.592738
4695.826256
4301.355228
6500.950267
6171.190416
4631.049453
928.9777597
1001.633439
2022.568746
6064.28938
3437.878673
3801.40501
4837.942971
3116.333084
3573.097623
1349.147031
1766.13384
1432.057588
923.0911159
640.4951368
647.9250901
1346.870922
854.7752437
895.6152082
653.1407664
662.3622168
936.9926572
259.2160927
285.568239
588.5740517
741.2839925
1299.791004
962.1180451
1435.845564
1486.829701
968.2689645
1820.228825
1343.625622
1392.597891
956.9125009
958.2975566
1499.221635
1483.226638
1494.551692
1422.396857
1441.474727
1446.017232
924.525082
927.1912989
911.5758404
915.8586386
1411.425781
1486.873422
948.990153
951.798242
930.1768652
933.2698816
1464.891742
676.4910239
666.2028919
323.1074635
342.4098075
690.4903795
679.8116857
523.5365198
512.6340916
280.5274113
1522.614542
1524.325394
1498.388753
1502.057142
1858.578663
1530.269025
1530.963597
296.9975138
541.5382157
527.9730268
6072.48842
6009.693496
3986.592688
4208.551846
6075.017471
6063.470341
6272.45808
986.8336367
2005.944575
1668.841893
312.7883951
324.1153934
607.2938074
545.1706791
300.5329364
309.6098681
1059.09983
1059.146973
741.7897349
759.3035531
1066.203529
1070.440115
6175.903613
1407.053346
927.4010006
915.1767398
12075.12919
2199.934865
2367.075311
5148.534179
4347.205409
1720.353063
1700.361383
1081.17377
6569.827091
7145.197145
6836.325182
5426.037766
1146.165866
1763.235542
1710.071847
3338.228357
1263.828002
1512.930178
6106.618253
6026.191587
4815.074449
4506.823172
2780.45068
1493.354957
2163.591546
1794.203996
3985.355783
6173.804624
5354.712657
6253.587796
5999.814914
4441.783581
249.5380962
361.2930044
1271.545009
4899.998523
4804.380882
4993.042081
4979.248046
4872.427575
3159.09091
3140.266356
3172.65577
3161.013196
4866.566315
5710.68024
3189.92605
3216.543088
3054.116614
3146.668825
5803.296138
4559.711803
2880.822774
2596.255751
3119.751117
3042.144137
4669.118279
5596.681778
3283.521996
3308.960107
3246.688239
3261.611126
5645.731306
5100.125032
5012.276082
5200.161952
4967.624269
1006.559431
710.6801867
713.999778
1567.187179
1011.453087
1014.915974
986.3961324
1005.618683
1556.305996
5999.020399
6201.745514
5508.926911
6070.48073
1625.01552
1637.804772
1598.176393
1612.105102
2053.519454
979.1891419
1560.077224
1500.812799
1602.953581
1019.786441
1022.887385
1016.320281
1018.427609
1596.661003
1538.320543
1577.816757
1091.130334
1480.323844
2029.908864
6429.562331
6056.416353
4780.852334
6239.680195
828.1469769
1150.436316
13045.4875
1098.926778
763.6199855
766.3418981
1711.304897
8063.585413
8350.611873
9642.092694
6234.741882
5943.820553
1671.155814
1660.171484
1066.201092
1630.700469
3239.15006
4757.427999
3314.264871
4309.790326
3271.39453
1350.002374
4433.453331
3311.488855
6198.25551
6426.91379
6212.791059
4839.160499
5467.318176
1451.630996
1762.607073
1489.88413
741.5589035
952.7522014
1415.169179
1499.283013
979.3081064
1389.588533
1813.846404
6081.520664
6333.400973
5994.020253
5626.695746
6389.714495
6340.113502
6204.714801
3991.642265
5511.631405
5060.245386
6155.835883
6361.156954
4394.606567
4681.342644
5113.534274
6417.144553
5291.048976
3928.193077
4236.972615
3905.398595
2783.870485
3897.627912
2048.21969
2999.56468
4062.77091
4459.885224
4090.217
5268.539373
3345.167313
3182.153665
4548.532039
3297.588677
4865.800252
5023.339053
3185.062901
3176.304349
3205.101349
3180.542568
5050.936038
3611.650979
2123.201896
2162.500861
5799.828493
5792.385923
5006.286526
6137.038937
5937.500595
5827.628357
5808.501205
6045.753406
4777.740843
2548.119135
2846.23686
2221.67467
2335.097572
4094.819126
6195.493049
5257.360964
3095.790393
6513.704626
6235.323688
6215.718501
4225.168263
6193.22985
5989.794533
2597.167522
2942.304519
5260.869771
1384.835201
1428.43171
708.6216746
783.0519043
1302.38387
934.6359766
665.9945305
688.9014022
1405.777333
1375.629746
835.8272349
1450.335656
1786.399699
915.0465109
1442.77776
1434.366315
3130.456939
2119.411048
2087.661397
2329.318532
2253.609852
3303.57455
4949.463024
4637.906535
3022.068239
4533.522834
4748.000201
4250.190633
4477.49996
2971.681499
4498.397785
4415.041536
5753.222
4218.297168
1010.323693
1002.404872
1460.331444
1505.464058
967.5845519
963.870288
1468.331426
1477.626411
1451.832314
1461.325098
921.0577605
923.0754908
1443.794925
1420.277399
917.6827656
919.2563787
942.0996588
944.9277127
1481.1836
1471.180575
936.6135366
939.4448557
5532.000778
3374.763362
3396.994284
3325.705229
3346.591293
5516.960723
5484.881289
3744.120519
4334.947227
3442.008375
3529.166527
5473.918875
963.9963118
1503.165353
1494.489923
1515.576834
1509.757921
965.2057691
954.3184717
1464.328599
1448.045399
1486.16171
1476.319927
959.1279616
982.3730437
1553.292992
1544.894864
1565.505835
1557.338975
984.4291541
970.2340988
1526.782898
1521.732175
1539.984502
1532.393216
972.3693741
1514.612199
1517.49826
682.4594753
962.9212395
961.1093321
967.5767875
966.1172513
686.1641391
1507.044833
1510.339455
1568.630109
1491.452052
747.9596837
1016.359868
1025.607893
1415.704228
1366.290957
821.6769775
695.8087665
972.8053394
972.2322804
978.4719248
982.2311693
704.6511979
1539.518197
1532.872383
5996.799258
5864.33303
6163.839942
4495.707885
5194.190598
3801.042485
5934.83561
6004.274296
5922.08789
5933.555312
3872.799119
2746.281238
5141.553501
4414.866194
5820.620462
5962.635366
3190.726042
1024.956728
732.0796311
733.6095007
719.7442792
722.0062219
1014.115248
1611.113196
1623.388343
1584.59299
1599.260359
1570.531687
1978.274416
1440.815617
857.556374
939.828281
758.0522532
779.2087405
1062.740601
1400.049905
1912.997325
1527.330387
1453.745931
1000.990288
1577.350848
1565.955172
1610.148965
1570.370962
997.1981213
1552.137676
1562.290925
1517.868593
1528.22267
6009.176232
4129.094344
4361.850962
3193.861075
3712.074121
6112.240101
6217.815541
6021.263862
4730.265468
5295.812619
6527.837771
6029.732312
4680.792028
4923.172717
3838.845958
4272.228159
6206.484486
1666.917121
1667.973005
1651.37149
1654.597153
1108.950389
1120.150977
786.5940838
1724.552861
1632.930462
1684.238045
1675.529243
1631.752359
1030.779388
1037.711961
1024.541105
1029.247745
1628.338374
1663.892786
1049.503846
1102.401161
1039.035719
1052.325454
1667.082352
5971.206004
791.3704898
795.655343
1137.84706
6163.353333
8921.19723
9239.78191
8911.173864
8838.261338
6775.474981
1727.859906
6757.666348
4954.901202
5334.136484
1079.297382
1692.691063
1678.280856
6736.263559
7372.65378
7133.408788
5875.049363
6386.536508
7823.25161
7441.405422
4890.068613
7038.721969
6119.00108
2083.390339
1681.129302
1135.451531
31.79210457
31.81709024
31.88324636
31.82691841
31.86565173
31.9084913
31.87923542
31.92733107
31.94155074
31.94180412
31.98551846
31.97425301
31.99572634
32.01506374
31.99238378
32.01600139
32.00627189
31.98785764
31.99795577
31.9566003
31.95971882
31.94267875
31.89440113
31.92601295
31.88152373
31.84120591
31.89691197
31.83062768
31.80278094
31.87672103
31.70681053
31.75715931
31.79846697
31.77748552
31.85313403
31.85662935
31.88010347
31.97014562
31.92972909
32.00016677
32.09082146
31.99734989
32.11096037
32.15525367
32.03717288
32.15800428
32.15019079
32.02358402
32.13305276
32.04046208
31.96506907
32.01269919
31.91212739
31.89158899
31.88312172
31.80362901
31.8275451
31.78214651
31.72719414
31.7809652
31.65288364
31.74797417
31.74896746
31.78607057
31.92734794
31.86070185
31.98158009
32.16839064
32.00100751
32.23691133
32.46336542
32.13739857
32.50360034
32.66061428
32.23725708
32.66409606
32.66655573
32.21045139
32.60525317
32.39866835
32.0988823
32.32958912
32.08157529
31.93833731
32.00905797
31.83622106
31.80456784
31.79143998
31.68803781
31.71320396
31.63890904
31.80496296
31.75421644
31.87592066
32.14322876
31.96777119
32.2575888
32.69440759
32.26100962
32.88061289
33.63215557
32.60097623
33.78447903
34.54491117
32.91598542
34.56507612
34.52315076
32.87202618
34.20128458
33.53460287
32.57141585
33.28640953
32.60501331
32.18203369
32.42548816
32.02176077
31.86966728
31.92306782
31.70528593
31.68715882
31.67828773
31.95757442
31.83362995
32.07678645
32.57032328
32.23143798
32.80237805
33.86273278
32.91170958
34.42051144
37.56872658
34.06384441
38.86734835
46.04069712
35.56973766
46.18554137
43.2666879
35.34775661
40.70203381
36.96400551
34.02264036
35.97811394
33.8981424
32.87863936
33.42574302
32.46394006
32.1145194
32.24944802
31.80765204
31.72145426
31.77000947
32.19742347
32.01200733
32.38833475
33.2253087
32.72175593
33.65023259
35.93757892
34.30809552
37.4039446
51.84969743
39.05053563
47.21211105
54.54194255
44.28125589
69.63830137
66.85058987
49.43584952
52.93272945
46.01755729
42.77524268
42.589812
36.51160147
34.47883869
35.36041579
33.26759291
32.64326195
32.84097547
32.0193518
31.85143618
31.90684378
32.50999383
32.27866869
32.78245866
33.99925541
33.43182792
34.62999632
38.15056024
36.54868579
39.08532135
42.04521862
40.93320774
64.27310967
73.97451597
69.70362201
108.7299939
75.09654597
61.86236095
53.56523154
40.46139075
37.50435501
38.21887266
34.3915472
33.53646248
33.66540063
32.33263317
32.09190283
32.06502979
32.82357645
32.58945543
33.16276595
34.65954565
34.17267148
35.42728799
39.62051392
38.5801548
41.50458036
45.26107405
44.63831351
76.27081634
91.01278003
89.72243871
175.5720053
105.9004777
94.89138363
64.17387632
44.62133822
41.6846338
41.27399207
35.63402791
34.74022945
34.58661136
32.69555778
32.42310627
32.22189515
33.10413957
32.89555452
33.49233296
35.17643425
34.79807997
36.02766319
40.60777444
39.88915046
42.926957
47.08143226
46.65461025
82.41083085
109.7884877
106.5069258
196.4538114
122.226275
118.0046405
70.70835225
47.76514994
45.70728373
43.70307658
36.66525033
35.96573112
35.37144632
33.03027337
32.78247282
32.36869386
33.34427528
33.16322441
33.76817731
35.59057602
35.280889
36.50737483
41.44758243
40.80962601
44.05580394
48.66639128
48.18408978
92.47309207
126.0989472
122.9219149
187.9461458
124.7074574