/*--------------------------------*- C++ -*----------------------------------*\
| =========                 |                                                 |
| \\      /  F ield         | OpenFOAM: The Open Source CFD Toolbox           |
|  \\    /   O peration     | Version:  v1912                                 |
|   \\  /    A nd           | Website:  www.openfoam.com                      |
|    \\/     M anipulation  |                                                 |
\*---------------------------------------------------------------------------*/
FoamFile
{
    version     2.0;
    format      ascii;
    class       volScalarField;
    location    "102";
    object      p;
}
// * * * * * * * * * * * * * * * * * * * * * * * * * * * * * * * * * * * * * //

dimensions      [0 2 -2 0 0 0 0];


internalField   nonuniform List<scalar> 
44200
(
1.772129e-05
1.731251e-05
1.686619e-05
1.656924e-05
1.627361e-05
1.598732e-05
1.569773e-05
1.540215e-05
1.510332e-05
1.480287e-05
1.449762e-05
1.418828e-05
1.387767e-05
1.356147e-05
1.323949e-05
1.291604e-05
1.259073e-05
1.226295e-05
1.193075e-05
1.159429e-05
1.125499e-05
1.091309e-05
1.056867e-05
1.022167e-05
9.871306e-06
9.518164e-06
9.163396e-06
8.804801e-06
8.443023e-06
8.078493e-06
7.712924e-06
7.345511e-06
6.973925e-06
6.599224e-06
6.222647e-06
5.843047e-06
5.460472e-06
5.077103e-06
4.690839e-06
4.302485e-06
3.911397e-06
3.517963e-06
3.122081e-06
2.724727e-06
2.323453e-06
1.918542e-06
1.510493e-06
1.105729e-06
7.383768e-07
3.744727e-07
1.773977e-05
1.727138e-05
1.687869e-05
1.656635e-05
1.626528e-05
1.597576e-05
1.568501e-05
1.539181e-05
1.50939e-05
1.479435e-05
1.449046e-05
1.418247e-05
1.387215e-05
1.355648e-05
1.323647e-05
1.291392e-05
1.258905e-05
1.226075e-05
1.19289e-05
1.159338e-05
1.12544e-05
1.09131e-05
1.056871e-05
1.022189e-05
9.871798e-06
9.518922e-06
9.163594e-06
8.80565e-06
8.443957e-06
8.079885e-06
7.713767e-06
7.345662e-06
6.974597e-06
6.59985e-06
6.223188e-06
5.843995e-06
5.462095e-06
5.078449e-06
4.691879e-06
4.303518e-06
3.912489e-06
3.519433e-06
3.123854e-06
2.726301e-06
2.326624e-06
1.923707e-06
1.520942e-06
1.119549e-06
7.504224e-07
3.733127e-07
1.763374e-05
1.736726e-05
1.688271e-05
1.656584e-05
1.626047e-05
1.5969e-05
1.567662e-05
1.538567e-05
1.509077e-05
1.47908e-05
1.448767e-05
1.418129e-05
1.386937e-05
1.35534e-05
1.323681e-05
1.291567e-05
1.259087e-05
1.226083e-05
1.192812e-05
1.159377e-05
1.125585e-05
1.091564e-05
1.057083e-05
1.022373e-05
9.87385e-06
9.521639e-06
9.165113e-06
8.807005e-06
8.445908e-06
8.083238e-06
7.716772e-06
7.346398e-06
6.975008e-06
6.601155e-06
6.224457e-06
5.845452e-06
5.465486e-06
5.080874e-06
4.694212e-06
4.305306e-06
3.913887e-06
3.521947e-06
3.126931e-06
2.728559e-06
2.329862e-06
1.930469e-06
1.535852e-06
1.142871e-06
7.526976e-07
3.863947e-07
1.796987e-05
1.713636e-05
1.690198e-05
1.657841e-05
1.629182e-05
1.600269e-05
1.570968e-05
1.541413e-05
1.511428e-05
1.481125e-05
1.450454e-05
1.419426e-05
1.388091e-05
1.35638e-05
1.324312e-05
1.291937e-05
1.259263e-05
1.226309e-05
1.193016e-05
1.159427e-05
1.125516e-05
1.091307e-05
1.056859e-05
1.022095e-05
9.870632e-06
9.517526e-06
9.161611e-06
8.80321e-06
8.441935e-06
8.078152e-06
7.711723e-06
7.342906e-06
6.971807e-06
6.597438e-06
6.220772e-06
5.841592e-06
5.459838e-06
5.075816e-06
4.689781e-06
4.301004e-06
3.909999e-06
3.516627e-06
3.120836e-06
2.72249e-06
2.321734e-06
1.918312e-06
1.511935e-06
1.101037e-06
6.808084e-07
2.545909e-07
1.756879e-05
1.719952e-05
1.690887e-05
1.661214e-05
1.631613e-05
1.602199e-05
1.57249e-05
1.542496e-05
1.512184e-05
1.48163e-05
1.450769e-05
1.419566e-05
1.388137e-05
1.356318e-05
1.324132e-05
1.291679e-05
1.258965e-05
1.226002e-05
1.192682e-05
1.159056e-05
1.125116e-05
1.09088e-05
1.056424e-05
1.021658e-05
9.866202e-06
9.513054e-06
9.157333e-06
8.798928e-06
8.437534e-06
8.073657e-06
7.707319e-06
7.338832e-06
6.967602e-06
6.5934e-06
6.216668e-06
5.837436e-06
5.455549e-06
5.071601e-06
4.685584e-06
4.296897e-06
3.905943e-06
3.512594e-06
3.116842e-06
2.71874e-06
2.317999e-06
1.914294e-06
1.508683e-06
1.106609e-06
6.945105e-07
2.752224e-07
1.737399e-05
1.718298e-05
1.686903e-05
1.657874e-05
1.628095e-05
1.598959e-05
1.569614e-05
1.539963e-05
1.509987e-05
1.479745e-05
1.44915e-05
1.418194e-05
1.386959e-05
1.355328e-05
1.32328e-05
1.290952e-05
1.25836e-05
1.225484e-05
1.192257e-05
1.15869e-05
1.124802e-05
1.090635e-05
1.056197e-05
1.021483e-05
9.86472e-06
9.511881e-06
9.156484e-06
8.798219e-06
8.43699e-06
8.073089e-06
7.707001e-06
7.338702e-06
6.967469e-06
6.59332e-06
6.21668e-06
5.837505e-06
5.455749e-06
5.071887e-06
4.685726e-06
4.297203e-06
3.906258e-06
3.512976e-06
3.117405e-06
2.719601e-06
2.319186e-06
1.916205e-06
1.512044e-06
1.108648e-06
7.054556e-07
2.973031e-07
1.735027e-05
1.716491e-05
1.686429e-05
1.657685e-05
1.627728e-05
1.598344e-05
1.568833e-05
1.539154e-05
1.509191e-05
1.478972e-05
1.44843e-05
1.417547e-05
1.386352e-05
1.354791e-05
1.322848e-05
1.2906e-05
1.258045e-05
1.22519e-05
1.192005e-05
1.158484e-05
1.124654e-05
1.090525e-05
1.056103e-05
1.021408e-05
9.864201e-06
9.51153e-06
9.156149e-06
8.798028e-06
8.436983e-06
8.073272e-06
7.707126e-06
7.338578e-06
6.967427e-06
6.593397e-06
6.21683e-06
5.837831e-06
5.45642e-06
5.072573e-06
4.686237e-06
4.29766e-06
3.906628e-06
3.513449e-06
3.1182e-06
2.720632e-06
2.320965e-06
1.919373e-06
1.517543e-06
1.115579e-06
7.098932e-07
2.986142e-07
1.742589e-05
1.718132e-05
1.68848e-05
1.658909e-05
1.628619e-05
1.598947e-05
1.569196e-05
1.539424e-05
1.50942e-05
1.479132e-05
1.448543e-05
1.417646e-05
1.386396e-05
1.354805e-05
1.322932e-05
1.290723e-05
1.25816e-05
1.225266e-05
1.192053e-05
1.158557e-05
1.124766e-05
1.090664e-05
1.05624e-05
1.021536e-05
9.865539e-06
9.51293e-06
9.157405e-06
8.799131e-06
8.438258e-06
8.074852e-06
7.708599e-06
7.339519e-06
6.968182e-06
6.594309e-06
6.217841e-06
5.839019e-06
5.458355e-06
5.07443e-06
4.687726e-06
4.298819e-06
3.9068e-06
3.514446e-06
3.119758e-06
2.722383e-06
2.323183e-06
1.922755e-06
1.522224e-06
1.120445e-06
7.115006e-07
2.953e-07
1.77334e-05
1.71776e-05
1.695565e-05
1.663513e-05
1.633079e-05
1.602893e-05
1.572648e-05
1.542448e-05
1.512025e-05
1.481418e-05
1.450536e-05
1.419338e-05
1.387895e-05
1.356104e-05
1.324063e-05
1.291712e-05
1.259028e-05
1.226019e-05
1.192709e-05
1.159142e-05
1.125294e-05
1.091135e-05
1.05664e-05
1.02191e-05
9.86883e-06
9.515822e-06
9.160299e-06
8.801509e-06
8.44047e-06
8.076958e-06
7.710388e-06
7.341147e-06
6.969603e-06
6.595669e-06
6.219114e-06
5.840036e-06
5.459403e-06
5.075909e-06
4.688391e-06
4.300695e-06
3.909671e-06
3.5169e-06
3.121183e-06
2.723994e-06
2.324455e-06
1.923613e-06
1.520972e-06
1.114449e-06
6.968028e-07
2.654047e-07
1.799037e-05
1.715244e-05
1.690355e-05
1.656197e-05
1.627279e-05
1.598269e-05
1.569173e-05
1.539858e-05
1.510156e-05
1.480084e-05
1.449622e-05
1.418773e-05
1.387562e-05
1.355985e-05
1.32408e-05
1.291834e-05
1.259232e-05
1.226305e-05
1.193064e-05
1.159525e-05
1.125692e-05
1.091549e-05
1.057081e-05
1.02236e-05
9.873413e-06
9.520496e-06
9.164916e-06
8.806261e-06
8.445193e-06
8.081539e-06
7.714973e-06
7.345954e-06
6.973961e-06
6.600325e-06
6.223706e-06
5.844308e-06
5.463946e-06
5.081508e-06
4.692508e-06
4.301827e-06
3.91267e-06
3.521565e-06
3.125549e-06
2.728121e-06
2.328426e-06
1.926948e-06
1.52239e-06
1.112516e-06
6.931184e-07
2.653833e-07
1.797398e-05
1.713551e-05
1.690314e-05
1.657913e-05
1.629201e-05
1.600243e-05
1.570967e-05
1.541394e-05
1.51144e-05
1.48113e-05
1.45046e-05
1.419436e-05
1.388071e-05
1.356363e-05
1.324319e-05
1.291955e-05
1.25928e-05
1.226299e-05
1.193008e-05
1.159412e-05
1.125518e-05
1.09133e-05
1.05686e-05
1.022105e-05
9.8707e-06
9.517592e-06
9.161748e-06
8.803233e-06
8.442029e-06
8.078215e-06
7.71181e-06
7.342863e-06
6.971387e-06
6.597258e-06
6.220649e-06
5.84154e-06
5.459996e-06
5.076063e-06
4.689802e-06
4.301149e-06
3.910152e-06
3.51683e-06
3.121177e-06
2.723204e-06
2.322941e-06
1.92031e-06
1.514702e-06
1.105252e-06
6.841259e-07
2.533231e-07
1.745778e-05
1.716706e-05
1.687493e-05
1.658148e-05
1.628762e-05
1.599789e-05
1.570443e-05
1.540855e-05
1.510888e-05
1.480576e-05
1.449911e-05
1.418892e-05
1.387537e-05
1.355835e-05
1.323792e-05
1.291431e-05
1.258763e-05
1.225793e-05
1.19251e-05
1.15892e-05
1.125029e-05
1.090844e-05
1.056382e-05
1.021633e-05
9.866049e-06
9.513009e-06
9.157231e-06
8.798795e-06
8.437641e-06
8.073891e-06
7.707554e-06
7.338698e-06
6.967315e-06
6.593261e-06
6.21668e-06
5.837601e-06
5.456078e-06
5.072172e-06
4.685977e-06
4.29736e-06
3.906401e-06
3.513106e-06
3.117459e-06
2.719446e-06
2.319077e-06
1.91624e-06
1.510879e-06
1.102489e-06
6.859537e-07
2.657069e-07
1.725507e-05
1.709578e-05
1.683649e-05
1.656976e-05
1.628464e-05
1.59971e-05
1.570416e-05
1.540751e-05
1.510706e-05
1.480326e-05
1.449611e-05
1.418552e-05
1.387176e-05
1.355458e-05
1.323396e-05
1.291025e-05
1.258359e-05
1.225398e-05
1.192124e-05
1.158538e-05
1.124651e-05
1.09047e-05
1.056014e-05
1.021275e-05
9.862547e-06
9.509594e-06
9.153928e-06
8.795576e-06
8.43446e-06
8.070745e-06
7.704486e-06
7.335757e-06
6.964444e-06
6.590455e-06
6.2139e-06
5.834848e-06
5.453332e-06
5.06946e-06
4.683298e-06
4.294721e-06
3.903801e-06
3.510545e-06
3.114947e-06
2.717007e-06
2.31668e-06
1.913889e-06
1.508827e-06
1.101665e-06
6.920955e-07
2.763009e-07
1.7156e-05
1.704261e-05
1.681015e-05
1.655271e-05
1.62735e-05
1.598754e-05
1.569591e-05
1.539983e-05
1.509991e-05
1.479662e-05
1.448995e-05
1.417988e-05
1.386659e-05
1.35499e-05
1.322971e-05
1.29064e-05
1.258013e-05
1.225087e-05
1.191846e-05
1.158289e-05
1.124426e-05
1.09027e-05
1.055831e-05
1.021111e-05
9.861075e-06
9.50827e-06
9.152755e-06
8.794506e-06
8.433488e-06
8.069825e-06
7.703652e-06
7.335016e-06
6.963756e-06
6.589825e-06
6.213334e-06
5.834348e-06
5.452898e-06
5.069108e-06
4.682929e-06
4.29437e-06
3.903496e-06
3.510316e-06
3.114828e-06
2.717061e-06
2.316968e-06
1.9146e-06
1.510229e-06
1.104783e-06
6.968591e-07
2.834341e-07
1.713821e-05
1.703248e-05
1.680511e-05
1.65502e-05
1.627217e-05
1.598602e-05
1.569397e-05
1.539749e-05
1.509731e-05
1.479381e-05
1.448708e-05
1.417706e-05
1.386385e-05
1.354734e-05
1.322749e-05
1.290449e-05
1.257841e-05
1.224929e-05
1.191704e-05
1.158169e-05
1.124332e-05
1.090195e-05
1.055769e-05
1.021059e-05
9.860661e-06
9.507943e-06
9.152481e-06
8.794283e-06
8.43335e-06
8.069755e-06
7.703587e-06
7.334885e-06
6.96363e-06
6.589755e-06
6.213341e-06
5.834518e-06
5.45322e-06
5.069455e-06
4.683146e-06
4.294477e-06
3.903484e-06
3.510347e-06
3.1151e-06
2.717567e-06
2.317868e-06
1.916135e-06
1.512587e-06
1.107821e-06
6.992508e-07
2.851169e-07
1.719212e-05
1.706118e-05
1.681966e-05
1.656016e-05
1.627863e-05
1.599128e-05
1.569796e-05
1.54008e-05
1.51001e-05
1.479611e-05
1.448894e-05
1.417857e-05
1.386501e-05
1.354825e-05
1.322839e-05
1.29054e-05
1.257919e-05
1.224989e-05
1.191748e-05
1.158212e-05
1.124381e-05
1.090248e-05
1.055818e-05
1.021103e-05
9.861079e-06
9.508338e-06
9.152823e-06
8.794557e-06
8.433634e-06
8.070074e-06
7.703855e-06
7.334995e-06
6.963649e-06
6.589791e-06
6.213439e-06
5.834741e-06
5.453529e-06
5.069919e-06
4.683372e-06
4.294437e-06
3.903126e-06
3.510229e-06
3.115376e-06
2.717996e-06
2.318566e-06
1.917209e-06
1.513948e-06
1.108454e-06
6.99068e-07
2.82022e-07
1.733346e-05
1.712322e-05
1.685303e-05
1.65823e-05
1.629396e-05
1.600477e-05
1.570979e-05
1.54119e-05
1.511051e-05
1.480592e-05
1.449814e-05
1.41871e-05
1.387293e-05
1.355559e-05
1.323518e-05
1.291168e-05
1.258496e-05
1.225518e-05
1.192235e-05
1.158662e-05
1.124801e-05
1.090639e-05
1.05618e-05
1.021443e-05
9.864248e-06
9.511309e-06
9.155639e-06
8.797202e-06
8.436123e-06
8.072443e-06
7.706078e-06
7.337057e-06
6.965594e-06
6.591659e-06
6.215245e-06
5.836507e-06
5.45542e-06
5.072e-06
4.685115e-06
4.296163e-06
3.905052e-06
3.512547e-06
3.117426e-06
2.719928e-06
2.320452e-06
1.918851e-06
1.514763e-06
1.106981e-06
6.933181e-07
2.735713e-07
1.762082e-05
1.717318e-05
1.690783e-05
1.659975e-05
1.630205e-05
1.600799e-05
1.571138e-05
1.541362e-05
1.511272e-05
1.480872e-05
1.450143e-05
1.419079e-05
1.387689e-05
1.355971e-05
1.323937e-05
1.291587e-05
1.258914e-05
1.22593e-05
1.192644e-05
1.159063e-05
1.12519e-05
1.091019e-05
1.056551e-05
1.021806e-05
9.867789e-06
9.514768e-06
9.159025e-06
8.800504e-06
8.439352e-06
8.075586e-06
7.70914e-06
7.340074e-06
6.968472e-06
6.594494e-06
6.217958e-06
5.838797e-06
5.459015e-06
5.076348e-06
4.690539e-06
4.298709e-06
3.905501e-06
3.513848e-06
3.119665e-06
2.722465e-06
2.322971e-06
1.921212e-06
1.516234e-06
1.106612e-06
6.894312e-07
2.640524e-07
1.757254e-05
1.720025e-05
1.691128e-05
1.66132e-05
1.631628e-05
1.602183e-05
1.572417e-05
1.54246e-05
1.512198e-05
1.481636e-05
1.450763e-05
1.419577e-05
1.388078e-05
1.356267e-05
1.324145e-05
1.291718e-05
1.258991e-05
1.225966e-05
1.192643e-05
1.159025e-05
1.125115e-05
1.090916e-05
1.056435e-05
1.021674e-05
9.866351e-06
9.513218e-06
9.157369e-06
8.798841e-06
8.437654e-06
8.073848e-06
7.707455e-06
7.338501e-06
6.967002e-06
6.592947e-06
6.216378e-06
5.83734e-06
5.455865e-06
5.071995e-06
4.685756e-06
4.297159e-06
3.906224e-06
3.512982e-06
3.117455e-06
2.719693e-06
2.319756e-06
1.91771e-06
1.513567e-06
1.107168e-06
6.966698e-07
2.745671e-07
1.725864e-05
1.709751e-05
1.683804e-05
1.657061e-05
1.628484e-05
1.599718e-05
1.570396e-05
1.540738e-05
1.510705e-05
1.480326e-05
1.449607e-05
1.418548e-05
1.387159e-05
1.35544e-05
1.323394e-05
1.291033e-05
1.258363e-05
1.225389e-05
1.19211e-05
1.158528e-05
1.124649e-05
1.090477e-05
1.056021e-05
1.021281e-05
9.862612e-06
9.50965e-06
9.153956e-06
8.795565e-06
8.434497e-06
8.070801e-06
7.704514e-06
7.335665e-06
6.96426e-06
6.590285e-06
6.213782e-06
5.834801e-06
5.453388e-06
5.069577e-06
4.683393e-06
4.294839e-06
3.903946e-06
3.510725e-06
3.115196e-06
2.717396e-06
2.317332e-06
1.915009e-06
1.51037e-06
1.103249e-06
6.924126e-07
2.756648e-07
1.710575e-05
1.70007e-05
1.678692e-05
1.653917e-05
1.626693e-05
1.598539e-05
1.569611e-05
1.540124e-05
1.510179e-05
1.479844e-05
1.44915e-05
1.418111e-05
1.386739e-05
1.355037e-05
1.323008e-05
1.290664e-05
1.258015e-05
1.225062e-05
1.191804e-05
1.158241e-05
1.12438e-05
1.090225e-05
1.055784e-05
1.02106e-05
9.860548e-06
9.507723e-06
9.15216e-06
8.793888e-06
8.432919e-06
8.069315e-06
7.703123e-06
7.334375e-06
6.963057e-06
6.589159e-06
6.212722e-06
5.833799e-06
5.452464e-06
5.068728e-06
4.682591e-06
4.29408e-06
3.903239e-06
3.510049e-06
3.114548e-06
2.716781e-06
2.316695e-06
1.914302e-06
1.509428e-06
1.102576e-06
6.920484e-07
2.810512e-07
1.698765e-05
1.689271e-05
1.669434e-05
1.644675e-05
1.618076e-05
1.59026e-05
1.561424e-05
1.531889e-05
1.501884e-05
1.471489e-05
1.440729e-05
1.409623e-05
1.378188e-05
1.346428e-05
1.314346e-05
1.281951e-05
1.249249e-05
1.216243e-05
1.182931e-05
1.149315e-05
1.115401e-05
1.081193e-05
1.046698e-05
1.011918e-05
9.768571e-06
9.415178e-06
9.059042e-06
8.700188e-06
8.338643e-06
7.974456e-06
7.607681e-06
7.238339e-06
6.866433e-06
6.491942e-06
6.114975e-06
5.735321e-06
5.353613e-06
4.969379e-06
4.582641e-06
4.193537e-06
3.802352e-06
3.408531e-06
3.012513e-06
2.614366e-06
2.213681e-06
1.811227e-06
1.404253e-06
1.001421e-06
5.733727e-07
2.310587e-07
1.698713e-05
1.689255e-05
1.669438e-05
1.644698e-05
1.618088e-05
1.590264e-05
1.561425e-05
1.531893e-05
1.501892e-05
1.471498e-05
1.440738e-05
1.409632e-05
1.378195e-05
1.346435e-05
1.314356e-05
1.281964e-05
1.249262e-05
1.216255e-05
1.182942e-05
1.149328e-05
1.115417e-05
1.081211e-05
1.046717e-05
1.011937e-05
9.768766e-06
9.415376e-06
9.059236e-06
8.700377e-06
8.338832e-06
7.974644e-06
7.607853e-06
7.238484e-06
6.866568e-06
6.492107e-06
6.115197e-06
5.735937e-06
5.354342e-06
4.96988e-06
4.582858e-06
4.193561e-06
3.801694e-06
3.408203e-06
3.012558e-06
2.614696e-06
2.214234e-06
1.812e-06
1.405207e-06
1.002472e-06
5.741831e-07
2.317961e-07
1.705595e-05
1.697184e-05
1.677363e-05
1.653112e-05
1.626306e-05
1.598296e-05
1.569396e-05
1.539894e-05
1.509941e-05
1.479603e-05
1.448908e-05
1.417871e-05
1.386503e-05
1.354812e-05
1.322801e-05
1.290476e-05
1.257837e-05
1.224889e-05
1.191636e-05
1.158084e-05
1.124235e-05
1.090091e-05
1.055656e-05
1.020935e-05
9.859332e-06
9.506532e-06
9.15098e-06
8.792703e-06
8.431748e-06
8.06815e-06
7.701931e-06
7.333118e-06
6.961768e-06
6.587925e-06
6.211595e-06
5.833108e-06
5.451619e-06
5.068328e-06
4.681718e-06
4.292911e-06
3.901197e-06
3.508825e-06
3.113612e-06
2.716237e-06
2.316615e-06
1.914915e-06
1.510216e-06
1.104826e-06
6.907033e-07
2.914548e-07
1.716507e-05
1.704251e-05
1.681051e-05
1.655478e-05
1.627537e-05
1.5991e-05
1.570011e-05
1.540483e-05
1.510542e-05
1.480222e-05
1.449538e-05
1.4185e-05
1.387121e-05
1.355409e-05
1.323373e-05
1.291018e-05
1.258344e-05
1.225361e-05
1.192074e-05
1.158489e-05
1.12461e-05
1.090438e-05
1.055975e-05
1.021229e-05
9.862044e-06
9.509031e-06
9.153285e-06
8.794827e-06
8.433704e-06
8.069957e-06
7.703586e-06
7.33462e-06
6.963141e-06
6.589193e-06
6.212826e-06
5.834228e-06
5.452767e-06
5.069523e-06
4.68262e-06
4.293698e-06
3.902214e-06
3.509531e-06
3.114785e-06
2.71746e-06
2.317912e-06
1.916067e-06
1.511683e-06
1.104617e-06
6.934204e-07
2.787079e-07
1.737586e-05
1.715036e-05
1.686471e-05
1.657825e-05
1.628675e-05
1.599788e-05
1.570507e-05
1.54095e-05
1.511016e-05
1.480712e-05
1.450041e-05
1.419009e-05
1.38763e-05
1.355913e-05
1.323867e-05
1.291499e-05
1.258813e-05
1.225816e-05
1.192515e-05
1.158917e-05
1.125025e-05
1.09084e-05
1.056366e-05
1.021609e-05
9.865735e-06
9.512621e-06
9.156782e-06
8.798233e-06
8.437023e-06
8.073189e-06
7.70673e-06
7.337676e-06
6.96609e-06
6.592037e-06
6.215573e-06
5.836956e-06
5.456167e-06
5.072714e-06
4.685986e-06
4.294444e-06
3.903603e-06
3.512197e-06
3.117751e-06
2.720303e-06
2.320746e-06
1.918945e-06
1.514644e-06
1.107341e-06
6.960236e-07
2.767204e-07
1.790974e-05
1.718273e-05
1.688313e-05
1.657608e-05
1.629064e-05
1.600305e-05
1.571087e-05
1.54157e-05
1.511634e-05
1.481321e-05
1.450636e-05
1.419593e-05
1.388205e-05
1.356481e-05
1.32443e-05
1.292058e-05
1.259369e-05
1.22637e-05
1.193067e-05
1.159467e-05
1.125571e-05
1.091384e-05
1.056907e-05
1.022147e-05
9.871084e-06
9.517931e-06
9.16205e-06
8.80346e-06
8.442203e-06
8.078313e-06
7.711796e-06
7.342671e-06
6.970977e-06
6.596778e-06
6.220088e-06
5.841623e-06
5.461987e-06
5.078372e-06
4.68773e-06
4.295711e-06
3.909974e-06
3.519343e-06
3.12294e-06
2.725098e-06
2.325428e-06
1.92381e-06
1.519944e-06
1.113803e-06
7.0635e-07
2.842063e-07
1.771805e-05
1.731781e-05
1.687113e-05
1.657176e-05
1.627344e-05
1.598594e-05
1.56952e-05
1.540175e-05
1.510431e-05
1.480296e-05
1.449775e-05
1.418879e-05
1.387618e-05
1.356004e-05
1.324046e-05
1.291753e-05
1.259135e-05
1.226198e-05
1.192948e-05
1.15939e-05
1.125529e-05
1.091371e-05
1.056922e-05
1.022185e-05
9.871648e-06
9.518659e-06
9.16292e-06
8.804467e-06
8.443334e-06
8.079556e-06
7.713166e-06
7.344194e-06
6.972665e-06
6.598599e-06
6.222027e-06
5.842984e-06
5.461504e-06
5.077618e-06
4.691351e-06
4.302732e-06
3.911792e-06
3.518571e-06
3.12312e-06
2.725539e-06
2.326011e-06
1.924929e-06
1.523307e-06
1.123995e-06
7.337037e-07
3.494363e-07
1.737968e-05
1.718793e-05
1.687255e-05
1.658067e-05
1.628166e-05
1.599003e-05
1.569549e-05
1.539939e-05
1.510016e-05
1.479759e-05
1.449156e-05
1.418204e-05
1.386908e-05
1.355271e-05
1.323301e-05
1.291003e-05
1.258385e-05
1.225453e-05
1.19221e-05
1.15866e-05
1.124809e-05
1.090662e-05
1.056224e-05
1.021499e-05
9.864914e-06
9.512045e-06
9.156424e-06
8.798086e-06
8.437066e-06
8.073397e-06
7.707115e-06
7.338249e-06
6.966821e-06
6.592851e-06
6.216367e-06
5.83741e-06
5.456016e-06
5.072215e-06
4.686028e-06
4.297482e-06
3.90661e-06
3.513438e-06
3.118009e-06
2.720404e-06
2.320734e-06
1.919217e-06
1.516266e-06
1.112649e-06
7.080363e-07
2.926944e-07
1.716312e-05
1.704799e-05
1.681367e-05
1.655444e-05
1.627422e-05
1.598786e-05
1.56959e-05
1.539987e-05
1.510007e-05
1.479677e-05
1.449004e-05
1.417994e-05
1.38665e-05
1.354975e-05
1.322976e-05
1.290657e-05
1.258024e-05
1.225081e-05
1.191832e-05
1.158279e-05
1.124426e-05
1.090279e-05
1.055843e-05
1.021121e-05
9.861172e-06
9.508348e-06
9.152775e-06
8.79449e-06
8.433522e-06
8.069908e-06
7.703684e-06
7.334878e-06
6.963509e-06
6.589593e-06
6.213161e-06
5.834252e-06
5.452926e-06
5.069203e-06
4.683073e-06
4.294569e-06
3.903749e-06
3.510596e-06
3.115137e-06
2.717476e-06
2.317634e-06
1.91569e-06
1.511624e-06
1.10584e-06
6.967661e-07
2.831373e-07
1.699219e-05
1.68964e-05
1.669544e-05
1.644747e-05
1.618068e-05
1.590277e-05
1.561443e-05
1.531908e-05
1.501907e-05
1.471512e-05
1.44075e-05
1.409641e-05
1.378203e-05
1.346441e-05
1.31436e-05
1.281965e-05
1.249261e-05
1.216251e-05
1.182937e-05
1.149321e-05
1.115407e-05
1.081201e-05
1.046705e-05
1.011925e-05
9.768628e-06
9.415224e-06
9.059075e-06
8.700212e-06
8.338668e-06
7.97448e-06
7.607686e-06
7.238311e-06
6.866373e-06
6.491874e-06
6.114872e-06
5.735379e-06
5.353725e-06
4.969474e-06
4.582726e-06
4.19366e-06
3.802403e-06
3.408433e-06
3.012352e-06
2.61424e-06
2.213618e-06
1.811218e-06
1.404128e-06
1.001147e-06
5.727711e-07
2.295137e-07
1.693732e-05
1.685525e-05
1.667247e-05
1.643062e-05
1.617052e-05
1.589746e-05
1.561245e-05
1.53193e-05
1.502094e-05
1.471827e-05
1.441152e-05
1.410096e-05
1.378682e-05
1.346924e-05
1.314832e-05
1.282414e-05
1.24968e-05
1.216634e-05
1.183282e-05
1.149628e-05
1.115676e-05
1.081431e-05
1.0469e-05
1.012086e-05
9.769919e-06
9.416221e-06
9.059799e-06
8.700686e-06
8.338913e-06
7.974516e-06
7.607535e-06
7.237991e-06
6.865908e-06
6.491232e-06
6.114134e-06
5.733909e-06
5.352594e-06
4.968657e-06
4.581899e-06
4.192745e-06
3.802573e-06
3.408062e-06
3.011516e-06
2.613263e-06
2.212472e-06
1.809833e-06
1.402066e-06
9.988743e-07
5.666944e-07
2.3493e-07
1.69369e-05
1.685454e-05
1.667044e-05
1.643101e-05
1.617099e-05
1.589769e-05
1.561257e-05
1.531937e-05
1.502095e-05
1.471822e-05
1.44114e-05
1.410077e-05
1.378656e-05
1.346894e-05
1.314798e-05
1.282377e-05
1.249639e-05
1.21659e-05
1.183236e-05
1.14958e-05
1.115629e-05
1.081385e-05
1.046854e-05
1.01204e-05
9.769465e-06
9.415771e-06
9.059353e-06
8.700241e-06
8.338471e-06
7.974079e-06
7.607103e-06
7.23756e-06
6.865499e-06
6.490816e-06
6.113903e-06
5.734761e-06
5.352111e-06
4.968013e-06
4.581146e-06
4.191427e-06
3.800197e-06
3.406912e-06
3.010675e-06
2.612888e-06
2.212375e-06
1.809885e-06
1.402309e-06
9.991303e-07
5.681063e-07
2.364433e-07
1.6987e-05
1.689283e-05
1.669727e-05
1.644867e-05
1.618176e-05
1.590313e-05
1.56146e-05
1.531922e-05
1.501918e-05
1.471524e-05
1.440764e-05
1.409658e-05
1.378222e-05
1.346465e-05
1.314389e-05
1.282e-05
1.2493e-05
1.216292e-05
1.18298e-05
1.149368e-05
1.115459e-05
1.081256e-05
1.046763e-05
1.011984e-05
9.769235e-06
9.415839e-06
9.059688e-06
8.700816e-06
8.339262e-06
7.975064e-06
7.608255e-06
7.238862e-06
6.866932e-06
6.492507e-06
6.115796e-06
5.736186e-06
5.35669e-06
4.970788e-06
4.583418e-06
4.193547e-06
3.803805e-06
3.408415e-06
3.012642e-06
2.615019e-06
2.214674e-06
1.812488e-06
1.405477e-06
1.002706e-06
5.734063e-07
2.312711e-07
1.70809e-05
1.69921e-05
1.678553e-05
1.653767e-05
1.626678e-05
1.598624e-05
1.569815e-05
1.540435e-05
1.510595e-05
1.480339e-05
1.449692e-05
1.418673e-05
1.387298e-05
1.355581e-05
1.323532e-05
1.291159e-05
1.258469e-05
1.225467e-05
1.192162e-05
1.158557e-05
1.124658e-05
1.090468e-05
1.055991e-05
1.021231e-05
9.861918e-06
9.508775e-06
9.152909e-06
8.79435e-06
8.433134e-06
8.069295e-06
7.702859e-06
7.333855e-06
6.962317e-06
6.588359e-06
6.211816e-06
5.834024e-06
5.451685e-06
5.067948e-06
4.681479e-06
4.292034e-06
3.90087e-06
3.509042e-06
3.113958e-06
2.716524e-06
2.316781e-06
1.914971e-06
1.510125e-06
1.105041e-06
6.902899e-07
2.917932e-07
1.725096e-05
1.711056e-05
1.684421e-05
1.657505e-05
1.629119e-05
1.600501e-05
1.571341e-05
1.541762e-05
1.511768e-05
1.481385e-05
1.450631e-05
1.419522e-05
1.388069e-05
1.356285e-05
1.324178e-05
1.291756e-05
1.259023e-05
1.225985e-05
1.192647e-05
1.159015e-05
1.125093e-05
1.090882e-05
1.056386e-05
1.02161e-05
9.865565e-06
9.51229e-06
9.156304e-06
8.797634e-06
8.436313e-06
8.072375e-06
7.705839e-06
7.336731e-06
6.965088e-06
6.590972e-06
6.214503e-06
5.835999e-06
5.454934e-06
5.071167e-06
4.684048e-06
4.294805e-06
3.90461e-06
3.51184e-06
3.116558e-06
2.71894e-06
2.319371e-06
1.91774e-06
1.514185e-06
1.109039e-06
7.01376e-07
2.852804e-07
1.753429e-05
1.727141e-05
1.691323e-05
1.663162e-05
1.633247e-05
1.603809e-05
1.573966e-05
1.543898e-05
1.513518e-05
1.482833e-05
1.451842e-05
1.420545e-05
1.388945e-05
1.357044e-05
1.324845e-05
1.292349e-05
1.259558e-05
1.226473e-05
1.193098e-05
1.159436e-05
1.125489e-05
1.091258e-05
1.056746e-05
1.021955e-05
9.868901e-06
9.515525e-06
9.15945e-06
8.800702e-06
8.439311e-06
8.075304e-06
7.708698e-06
7.339504e-06
6.967738e-06
6.59347e-06
6.216869e-06
5.838139e-06
5.458501e-06
5.075027e-06
4.691564e-06
4.298217e-06
3.906167e-06
3.513139e-06
3.118645e-06
2.721378e-06
2.322004e-06
1.920771e-06
1.518285e-06
1.115955e-06
7.16286e-07
3.081564e-07
1.775023e-05
1.727501e-05
1.687926e-05
1.656612e-05
1.62642e-05
1.597482e-05
1.568359e-05
1.539079e-05
1.509447e-05
1.479438e-05
1.449042e-05
1.41826e-05
1.387103e-05
1.35558e-05
1.323701e-05
1.291478e-05
1.258919e-05
1.226032e-05
1.192825e-05
1.159304e-05
1.125475e-05
1.091344e-05
1.056917e-05
1.022199e-05
9.871955e-06
9.519102e-06
9.163476e-06
8.805118e-06
8.444064e-06
8.080349e-06
7.714007e-06
7.345073e-06
6.973577e-06
6.599546e-06
6.223009e-06
5.843998e-06
5.462546e-06
5.078682e-06
4.692431e-06
4.303827e-06
3.91291e-06
3.519717e-06
3.124303e-06
2.726769e-06
2.327314e-06
1.92635e-06
1.524763e-06
1.124877e-06
7.309488e-07
3.351986e-07
1.735961e-05
1.71702e-05
1.686674e-05
1.657803e-05
1.627756e-05
1.598409e-05
1.568816e-05
1.539137e-05
1.509205e-05
1.478981e-05
1.448433e-05
1.417549e-05
1.386325e-05
1.354759e-05
1.322857e-05
1.290622e-05
1.258061e-05
1.225179e-05
1.19198e-05
1.158471e-05
1.124655e-05
1.090539e-05
1.056127e-05
1.021424e-05
9.864353e-06
9.511646e-06
9.156163e-06
8.797944e-06
8.437023e-06
8.073436e-06
7.707218e-06
7.338403e-06
6.967021e-06
6.593098e-06
6.216665e-06
5.837755e-06
5.456405e-06
5.07264e-06
4.686479e-06
4.29796e-06
3.907122e-06
3.513993e-06
3.118615e-06
2.721075e-06
2.321491e-06
1.92009e-06
1.517263e-06
1.113756e-06
7.090005e-07
2.928214e-07
1.71469e-05
1.703871e-05
1.680851e-05
1.655149e-05
1.627252e-05
1.598627e-05
1.569401e-05
1.539755e-05
1.509742e-05
1.479393e-05
1.448716e-05
1.417711e-05
1.38638e-05
1.354726e-05
1.32275e-05
1.290455e-05
1.257846e-05
1.224925e-05
1.191696e-05
1.158163e-05
1.124329e-05
1.090199e-05
1.055776e-05
1.021066e-05
9.860727e-06
9.507989e-06
9.152492e-06
8.79427e-06
8.433358e-06
8.069788e-06
7.703593e-06
7.334807e-06
6.963459e-06
6.58957e-06
6.213173e-06
5.8343e-06
5.453013e-06
5.069319e-06
4.683206e-06
4.294723e-06
3.903933e-06
3.510815e-06
3.115403e-06
2.717811e-06
2.318055e-06
1.916216e-06
1.512253e-06
1.106665e-06
6.977492e-07
2.849374e-07
1.699206e-05
1.689639e-05
1.669594e-05
1.644751e-05
1.618063e-05
1.590271e-05
1.561435e-05
1.531901e-05
1.501899e-05
1.471503e-05
1.440739e-05
1.409629e-05
1.378189e-05
1.346426e-05
1.314346e-05
1.281951e-05
1.249247e-05
1.216237e-05
1.182923e-05
1.149308e-05
1.115396e-05
1.081192e-05
1.046697e-05
1.011918e-05
9.768562e-06
9.415163e-06
9.059018e-06
8.70016e-06
8.338622e-06
7.974438e-06
7.607641e-06
7.23826e-06
6.86632e-06
6.491832e-06
6.114844e-06
5.73539e-06
5.353764e-06
4.969494e-06
4.582747e-06
4.193702e-06
3.802457e-06
3.408516e-06
3.012513e-06
2.614462e-06
2.213887e-06
1.811534e-06
1.404448e-06
1.001557e-06
5.730201e-07
2.303704e-07
1.69374e-05
1.685532e-05
1.667286e-05
1.643049e-05
1.617035e-05
1.589731e-05
1.561232e-05
1.53192e-05
1.502087e-05
1.471823e-05
1.441149e-05
1.410093e-05
1.378679e-05
1.346922e-05
1.314832e-05
1.282415e-05
1.249681e-05
1.216635e-05
1.183283e-05
1.149629e-05
1.115678e-05
1.081436e-05
1.046905e-05
1.012091e-05
9.769969e-06
9.416267e-06
9.05984e-06
8.700721e-06
8.338943e-06
7.974544e-06
7.607559e-06
7.238005e-06
6.865911e-06
6.491229e-06
6.114126e-06
5.733954e-06
5.352643e-06
4.968696e-06
4.581955e-06
4.192824e-06
3.802659e-06
3.408145e-06
3.011635e-06
2.613408e-06
2.212639e-06
1.809996e-06
1.402309e-06
9.991178e-07
5.68775e-07
2.372538e-07
1.69374e-05
1.685473e-05
1.667011e-05
1.643115e-05
1.61711e-05
1.589775e-05
1.56126e-05
1.53194e-05
1.502098e-05
1.471825e-05
1.441143e-05
1.410079e-05
1.378658e-05
1.346895e-05
1.314799e-05
1.282378e-05
1.24964e-05
1.216591e-05
1.183236e-05
1.149581e-05
1.11563e-05
1.081387e-05
1.046857e-05
1.012043e-05
9.769488e-06
9.415789e-06
9.059364e-06
8.700243e-06
8.338465e-06
7.974071e-06
7.607098e-06
7.237556e-06
6.865489e-06
6.490774e-06
6.113812e-06
5.735139e-06
5.351634e-06
4.967664e-06
4.580986e-06
4.191342e-06
3.799805e-06
3.40739e-06
3.010975e-06
2.613065e-06
2.212481e-06
1.809905e-06
1.402341e-06
9.991365e-07
5.697879e-07
2.387002e-07
1.698758e-05
1.689306e-05
1.669684e-05
1.644873e-05
1.618186e-05
1.590319e-05
1.561465e-05
1.531927e-05
1.501924e-05
1.47153e-05
1.440768e-05
1.409661e-05
1.378225e-05
1.346466e-05
1.314391e-05
1.282001e-05
1.2493e-05
1.216292e-05
1.18298e-05
1.149368e-05
1.115459e-05
1.081257e-05
1.046765e-05
1.011986e-05
9.769253e-06
9.415853e-06
9.059696e-06
8.700818e-06
8.339258e-06
7.97506e-06
7.608262e-06
7.23888e-06
6.866953e-06
6.49248e-06
6.115719e-06
5.736197e-06
5.356047e-06
4.970424e-06
4.583297e-06
4.193538e-06
3.803597e-06
3.408971e-06
3.012942e-06
2.615146e-06
2.214694e-06
1.812403e-06
1.405325e-06
1.002575e-06
5.735499e-07
2.318543e-07
1.706522e-05
1.698238e-05
1.67801e-05
1.65341e-05
1.626517e-05
1.598565e-05
1.569816e-05
1.540455e-05
1.51062e-05
1.480362e-05
1.449711e-05
1.418688e-05
1.387313e-05
1.355597e-05
1.323551e-05
1.291182e-05
1.258497e-05
1.225502e-05
1.192201e-05
1.158601e-05
1.124706e-05
1.09052e-05
1.056045e-05
1.021287e-05
9.862494e-06
9.509351e-06
9.153477e-06
8.794904e-06
8.43367e-06
8.069814e-06
7.703369e-06
7.334362e-06
6.962811e-06
6.588825e-06
6.212205e-06
5.834416e-06
5.452131e-06
5.068274e-06
4.681842e-06
4.291987e-06
3.900815e-06
3.509244e-06
3.114172e-06
2.716704e-06
2.316878e-06
1.915017e-06
1.510104e-06
1.105383e-06
6.901225e-07
2.945218e-07
1.723061e-05
1.709679e-05
1.68383e-05
1.657414e-05
1.62924e-05
1.600674e-05
1.571516e-05
1.541901e-05
1.51187e-05
1.481455e-05
1.450678e-05
1.419553e-05