/*--------------------------------*- C++ -*----------------------------------*\
| =========                 |                                                 |
| \\      /  F ield         | OpenFOAM: The Open Source CFD Toolbox           |
|  \\    /   O peration     | Version:  v1912                                 |
|   \\  /    A nd           | Website:  www.openfoam.com                      |
|    \\/     M anipulation  |                                                 |
\*---------------------------------------------------------------------------*/
FoamFile
{
    version     2.0;
    format      ascii;
    class       surfaceScalarField;
    location    "102";
    object      phi;
}
// * * * * * * * * * * * * * * * * * * * * * * * * * * * * * * * * * * * * * //

dimensions      [0 3 -1 0 0 0 0];
oriented        oriented;


internalField   nonuniform List<scalar> 
129352
(
-5.901624e-05
0.00800465
1.836106e-05
0.0001880827
-1.15221e-06
-1.718474e-06
-0.007922897
0.007903153
8.183476e-08
2.399407e-05
-2.61381e-06
-1.517732e-08
-0.007893156
0.007895059
-1.92839e-07
8.318783e-07
-2.52705e-06
-3.651187e-07
-0.007896041
0.007900367
2.902981e-07
-1.66401e-06
-2.586885e-06
-9.025981e-07
-0.00789693
0.007900865
5.325239e-07
-9.144382e-07
-2.649869e-06
-1.065098e-06
-0.007897533
0.007901512
6.686704e-07
-8.947539e-07
-2.68817e-06
-9.969006e-07
-0.007898237
0.007902305
4.554118e-07
-7.798341e-07
-2.74726e-06
-9.375905e-07
-0.007899171
0.007903308
2.783205e-07
-6.885368e-07
-2.790047e-06
-1.09229e-06
-0.007900166
0.007904282
4.707097e-07
-6.743456e-07
-2.820868e-06
-1.164651e-06
-0.007901092
0.007905184
5.538274e-07
-6.270645e-07
-2.854432e-06
-1.162723e-06
-0.007902023
0.007906144
5.195514e-07
-5.793221e-07
-2.898404e-06
-1.295697e-06
-0.007902956
0.007907018
7.078732e-07
-5.465858e-07
-2.927585e-06
-1.320316e-06
-0.007903799
0.007907867
7.243254e-07
-5.073382e-07
-2.964978e-06
-1.139027e-06
-0.007904729
0.007908905
4.094467e-07
-4.451404e-07
-3.002024e-06
-1.122706e-06
-0.007905821
0.007910019
3.592198e-07
-4.001107e-07
-3.03409e-06
-1.264824e-06
-0.007906919
0.007911068
5.792596e-07
-4.036821e-07
-3.059679e-06
-1.386576e-06
-0.007907893
0.007911988
7.716282e-07
-3.93616e-07
-3.085861e-06
-1.400466e-06
-0.007908778
0.00791289
7.838089e-07
-3.613838e-07
-3.133262e-06
-1.310102e-06
-0.007909706
0.007913862
6.259982e-07
-3.149922e-07
-3.15674e-06
-1.220111e-06
-0.007910767
0.007914957
4.680729e-07
-2.557613e-07
-3.181541e-06
-1.224961e-06
-0.00791189
0.0079161
4.596458e-07
-2.315241e-07
-3.213399e-06
-1.295296e-06
-0.007912999
0.007917189
5.670661e-07
-2.085083e-07
-3.253639e-06
-1.334335e-06
-0.007914077
0.007918246
6.266845e-07
-1.998036e-07
-3.261e-06
-1.346675e-06
-0.00791513
0.007919297
6.44698e-07
-1.751144e-07
-3.290434e-06
-1.359241e-06
-0.007916184
0.007920353
6.59794e-07
-1.51982e-07
-3.317183e-06
-1.394494e-06
-0.007917234
0.007921381
7.162691e-07
-1.427464e-07
-3.326373e-06
-1.445021e-06
-0.007918245
0.007922381
7.924428e-07
-1.204599e-07
-3.362499e-06
-1.395907e-06
-0.00791925
0.007923434
7.071812e-07
-9.309631e-08
-3.401824e-06
-1.309771e-06
-0.007920333
0.007924554
5.640991e-07
-5.51954e-08
-3.420131e-06
-1.396578e-06
-0.00792146
0.007925642
6.995619e-07
-3.906098e-08
-3.445245e-06
-1.535805e-06
-0.007922506
0.007926623
9.324945e-07
-6.185907e-08
-3.451206e-06
-1.524864e-06
-0.007923437
0.007927568
9.063089e-07
-1.205567e-08
-3.50048e-06
-1.373999e-06
-0.007924452
0.007928672
6.57258e-07
1.855136e-08
-3.521175e-06
-1.318559e-06
-0.00792561
0.007929838
5.565154e-07
6.774283e-08
-3.533754e-06
-1.309314e-06
-0.007926803
0.007931068
5.360526e-07
6.605691e-08
-3.557227e-06
-1.238561e-06
-0.007928035
0.007932345
4.127041e-07
1.135939e-07
-3.597745e-06
-1.257249e-06
-0.007929355
0.007933665
4.370243e-07
1.304658e-07
-3.620095e-06
-1.341092e-06
-0.007930628
0.007934899
5.7223e-07
1.437692e-07
-3.645767e-06
-1.380146e-06
-0.007931849
0.007936095
6.388878e-07
1.47378e-07
-3.652114e-06
-1.38889e-06
-0.00793304
0.007937287
6.533222e-07
1.659762e-07
-3.677588e-06
-1.390142e-06
-0.007934235
0.007938487
6.547011e-07
1.841677e-07
-3.700204e-06
-1.397647e-06
-0.007935437
0.007939701
6.668798e-07
1.895069e-07
-3.723038e-06
-1.427598e-06
-0.007936649
0.007940878
7.216161e-07
2.046664e-07
-3.728103e-06
-1.474926e-06
-0.007937821
0.007942038
7.972637e-07
2.203927e-07
-3.759789e-06
-1.426999e-06
-0.007938985
0.007943256
7.250972e-07
2.14802e-07
-3.783781e-06
-1.407396e-06
-0.007940237
0.00794455
7.130043e-07
1.87537e-07
-3.805229e-06
-1.900345e-06
-0.007941515
0.007945666
1.574211e-06
-4.163046e-08
-3.783452e-06
-1.009691e-05
-0.00794245
0.007898979
7.303905e-06
5.005294e-05
-3.789349e-06
-1.13602e-05
-0.007857257
0.007823574
1.046456e-05
3.85007e-05
-3.922398e-06
5.877711e-06
-0.007814336
0.00787049
2.360161e-06
-5.99996e-05
-4.392128e-06
1.372356e-06
0.00926406
-2.022532e-05
0.0001722057
-1.156687e-06
9.515928e-07
-0.009176949
0.00915416
-1.670981e-06
2.593493e-05
-2.426397e-06
2.916698e-07
-0.00914215
0.009144063
-2.882128e-07
6.89302e-07
-2.60577e-06
-3.914746e-08
-0.009139233
0.009143429
-2.160264e-07
-1.248383e-06
-2.693135e-06
-2.2574e-07
-0.009139512
0.009144097
-1.448208e-07
-1.490649e-06
-2.723256e-06
-3.236828e-07
-0.009140392
0.009145085
-1.161044e-07
-1.491225e-06
-2.762256e-06
-1.523123e-08
-0.009141418
0.009146112
-4.280556e-07
-1.466411e-06
-2.78438e-06
2.401497e-07
-0.009142414
0.009147107
-6.856598e-07
-1.431149e-06
-2.816568e-06
4.37922e-08
-0.009143436
0.009148146
-5.454395e-07
-1.364618e-06
-2.84422e-06
-2.582794e-08
-0.009144484
0.009149204
-5.07846e-07
-1.320858e-06
-2.865232e-06
3.686843e-08
-0.00914556
0.009150289
-5.828931e-07
-1.275988e-06
-2.90699e-06
-1.698947e-07
-0.009146653
0.009151405
-4.195427e-07
-1.230841e-06
-2.931165e-06
-1.706938e-07
-0.009147786
0.009152542
-4.316758e-07
-1.19123e-06
-2.962213e-06
2.187972e-07
-0.009148914
0.009153645
-7.804316e-07
-1.172745e-06
-2.996757e-06
2.898583e-07
-0.009149989
0.00915473
-8.519892e-07
-1.138842e-06
-3.040453e-06
3.508633e-08
-0.009151085
0.009155841
-6.389918e-07
-1.102719e-06
-3.049572e-06
-1.888833e-07
-0.009152242
0.009157024
-4.516267e-07
-1.056262e-06
-3.085697e-06
-1.937867e-07
-0.009153423
0.009158222
-4.541699e-07
-1.024762e-06
-3.126785e-06
2.149995e-09
-0.009154625
0.009159402
-6.279323e-07
-9.957136e-07
-3.155984e-06
1.971718e-07
-0.009155785
0.00916055
-8.027051e-07
-9.841431e-07
-3.175309e-06
2.124565e-07
-0.009156936
0.009161727
-8.192611e-07
-9.674312e-07
-3.216583e-06
8.767645e-08
-0.009158108
0.009162897
-7.141269e-07
-9.208235e-07
-3.241509e-06
1.728807e-08
-0.009159297
0.009164105
-6.559531e-07
-8.980666e-07
-3.27135e-06
4.563436e-10
-0.009160513
0.009165328
-6.434224e-07
-8.721614e-07
-3.3006e-06
-1.567961e-08
-0.009161742
0.009166565
-6.320909e-07
-8.470405e-07
-3.328591e-06
-8.163145e-08
-0.009162997
0.009167815
-5.758134e-07
-8.009696e-07
-3.36016e-06
-1.719827e-07
-0.009164265
0.009169103
-5.002315e-07
-7.795064e-07
-3.386815e-06
-6.679134e-08
-0.009165546
0.009170376
-5.92426e-07
-7.497061e-07
-3.421916e-06
1.054804e-07
-0.009166829
0.009171649
-7.426488e-07
-7.444358e-07
-3.438579e-06
-5.741578e-08
-0.009168095
0.009172938
-6.04418e-07
-7.169855e-07
-3.464403e-06
-3.361483e-07
-0.009169396
0.009174275
-3.622769e-07
-6.803571e-07
-3.500046e-06
-3.02972e-07
-0.009170755
0.009175626
-3.900597e-07
-6.562441e-07
-3.521593e-06
-3.067012e-09
-0.009172104
0.009176961
-6.509583e-07
-6.454211e-07
-3.557259e-06
1.198786e-07
-0.0091734
0.009178268
-7.583238e-07
-6.298764e-07
-3.599541e-06
1.443438e-07
-0.009174718
0.009179577
-7.80599e-07
-6.080215e-07
-3.61531e-06
2.922379e-07
-0.009176015
0.009180739
-9.252481e-07
-4.520262e-07
-3.638977e-06
2.621854e-07
-0.009177169
0.009182034
-8.817272e-07
-5.772405e-07
-3.668405e-06
1.00028e-07
-0.009178495
0.009183373
-7.415253e-07
-5.523489e-07
-3.684145e-06
1.874213e-08
-0.009179856
0.009184755
-6.717944e-07
-5.364813e-07
-3.709897e-06
1.899036e-09
-0.009181233
0.009186139
-6.5533e-07
-5.180147e-07
-3.734472e-06
-1.718224e-09
-0.009182622
0.009187535
-6.524996e-07
-4.991572e-07
-3.760051e-06
-1.678498e-08
-0.009184159
0.009189079
-6.388525e-07
-4.803534e-07
-3.783892e-06
-8.184857e-08
-0.009185585
0.009190525
-5.815576e-07
-4.642703e-07
-3.811708e-06
-1.735232e-07
-0.00918705
0.009191986
-5.01735e-07
-4.257222e-07
-3.834458e-06
-8.948657e-08
-0.009188517
0.009193496
-5.74379e-07
-4.514029e-07
-3.863568e-06
-8.512905e-08
-0.009190055
0.00919508
-5.756132e-07
-4.86967e-07
-3.876316e-06
-1.142596e-06
-0.009191772
0.00919709
3.431981e-07
-6.163897e-07
-3.902426e-06
-4.417282e-06
-0.009194399
0.009145743
1.536178e-07
5.684413e-05
-3.924238e-06
-8.46757e-06
-0.009100173
0.009064577
3.920265e-06
4.424966e-05
-4.106255e-06
-6.735801e-06
-0.009057751
0.009116749
9.21429e-06
-5.765451e-05
-3.82205e-06
5.980664e-05
0.004974233
0.000165658
-9.181164e-06
2.522935e-06
-0.004903306
0.004888734
1.484674e-05
-2.7978e-06
2.316455e-06
-0.004880811
0.004871827
1.071201e-05
-4.045139e-06
5.280171e-07
-0.004868907
0.004871675
1.233036e-06
-4.52949e-06
6.368628e-07
-0.004869189
0.004872161
1.167685e-06
-4.776087e-06
7.020475e-07
-0.004869765
0.004872768
1.185409e-06
-4.889947e-06
9.465638e-07
-0.004870364
0.004873333
1.100528e-06
-5.015696e-06
1.144572e-06
-0.004870857
0.004873784
1.050941e-06
-5.122775e-06
1.091755e-06
-0.004871317
0.004874267
1.106054e-06
-5.147915e-06
1.101382e-06
-0.004871857
0.004874834
1.137066e-06
-5.215315e-06
1.168786e-06
-0.004872401
0.004875356
1.144753e-06
-5.268413e-06
1.088463e-06
-0.00487295
0.004875963
1.213851e-06
-5.315265e-06
1.110803e-06
-0.004873578
0.004876586
1.25808e-06
-5.376668e-06
1.326022e-06
-0.004874163
0.004877102
1.166582e-06
-5.431623e-06
1.377084e-06
-0.004874632
0.004877561
1.176492e-06
-5.483154e-06
1.259267e-06
-0.004875094
0.004878095
1.259542e-06
-5.519406e-06
1.161798e-06
-0.004875679
0.004878717
1.354653e-06
-5.554021e-06
1.170062e-06
-0.004876339
0.004879372
1.383217e-06
-5.586863e-06
1.278374e-06
-0.004876983
0.004879976
1.372945e-06
-5.644001e-06
1.384437e-06
-0.004877532
0.004880498
1.343291e-06
-5.693832e-06
1.396846e-06
-0.004878058
0.004880999
1.378978e-06
-5.716969e-06
1.340279e-06
-0.004878581
0.004881553
1.443899e-06
-5.755818e-06
1.31279e-06
-0.00487914
0.00488214
1.487999e-06
-5.800346e-06
1.309608e-06
-0.004879739
0.004882746
1.518927e-06
-5.835505e-06
1.307036e-06
-0.00488035
0.004883364
1.550964e-06
-5.87206e-06
1.28056e-06
-0.00488098
0.004884021
1.59199e-06
-5.913052e-06
1.236045e-06
-0.004881641
0.004884702
1.649715e-06
-5.946764e-06
1.294536e-06
-0.004882328
0.004885373
1.647994e-06
-5.986804e-06
1.386899e-06
-0.00488296
0.004885987
1.63301e-06
-6.047456e-06
1.306496e-06
-0.004883591
0.004886625
1.716466e-06
-6.057236e-06
1.168597e-06
-0.004884281
0.004887375
1.799905e-06
-6.062039e-06
1.187678e-06
-0.004885062
0.004888149
1.823858e-06
-6.099263e-06
1.341455e-06
-0.004885805
0.004888859
1.763854e-06
-6.158579e-06
1.403562e-06
-0.004886455
0.004889474
1.785113e-06
-6.206768e-06
1.410594e-06
-0.004887083
0.004890101
1.778551e-06
-6.206502e-06
1.488458e-06
-0.004887679
0.004890693
1.76449e-06
-6.26694e-06
1.259949e-06
-0.004898862
0.004902957
9.27788e-07
-6.283475e-06
1.429472e-06
-0.004900754
0.004903609
2.022219e-06
-6.306908e-06
1.392597e-06
-0.004901427
0.0049043
2.07768e-06
-6.342591e-06
1.383906e-06
-0.004902133
0.004905029
2.089173e-06
-6.369776e-06
3.676036e-06
-0.004902851
0.004894028
1.154897e-05
-6.401835e-06
1.341988e-06
-0.004891693
0.004894774
2.007273e-06
-6.430697e-06
1.311963e-06
-0.004892444
0.004895552
2.044466e-06
-6.464045e-06
1.26463e-06
-0.004893242
0.004896372
2.097699e-06
-6.491929e-06
1.308603e-06
-0.004894057
0.004897193
2.081777e-06
-6.526752e-06
1.31601e-06
-0.004894887
0.004898026
2.100205e-06
-6.555892e-06
8.013349e-07
-0.004895834
0.004899266
2.303997e-06
-6.537138e-06
3.458947e-06
-0.004897627
0.00488071
1.982487e-05
-6.366472e-06
2.888874e-06
-0.004854073
0.004833468
2.404874e-05
-6.33248e-06
-1.281216e-05
-0.004830804
0.004885705
-3.555977e-05
-6.529064e-06
-0.0001136186
0.009405588
-2.206283e-05
0.0001815279
6.142046e-06
-7.359469e-06
-0.009328855
0.00931243
7.362769e-06
1.88699e-05
-2.447792e-06
-9.075304e-07
-0.009299376
0.009304074
6.119815e-08
-1.840358e-06
-2.011897e-06
6.244887e-06
-0.009322521
0.009351771
-8.815783e-06
-2.478605e-05
-1.892704e-06
7.700078e-06
-0.009388722
0.009406095
-4.184749e-06
-1.902335e-05
-1.864516e-06
-1.192357e-06
-0.009401837
0.009407004
-6.541031e-07
-1.438804e-06
-1.881566e-06
-1.273529e-06
-0.009402817
0.009408023
-7.073926e-07
-1.320739e-06
-1.903814e-06
-1.344314e-06
-0.009403864
0.00940911
-7.494033e-07
-1.21986e-06
-1.933308e-06
-1.401919e-06
-0.009404965
0.00941021
-7.696161e-07
-1.109462e-06
-1.96407e-06
-1.449243e-06
-0.009406054
0.009411329
-7.883136e-07
-1.041747e-06
-1.995954e-06
-1.489384e-06
-0.009407179
0.009412451
-7.894325e-07
-9.639789e-07
-2.029026e-06
-1.52226e-06
-0.009408316
0.009413588
-7.69681e-07
-9.192386e-07
-2.060707e-06
-1.56127e-06
-0.009409463
0.009414757
-7.613367e-07
-8.724713e-07
-2.099274e-06
-1.565176e-06
-0.009410638
0.009415907
-7.509232e-07
-8.323671e-07
-2.120993e-06
-1.598524e-06
-0.009411794
0.00941709
-7.515614e-07
-7.889427e-07
-2.157724e-06
-1.618926e-06
-0.009412991
0.009418278
-7.20434e-07
-7.589019e-07
-2.188469e-06
-1.637627e-06
-0.009414183
0.009419475
-7.0177e-07
-7.341308e-07
-2.218234e-06
-1.654326e-06
-0.009415369
0.009420667
-6.837064e-07
-7.110725e-07
-2.248795e-06
-1.668706e-06
-0.009416581
0.009421895
-6.657377e-07
-7.010934e-07
-2.278648e-06
-1.683383e-06
-0.009417804
0.009423129
-6.61522e-07
-6.72598e-07
-2.308069e-06
-1.696466e-06
-0.009419053
0.009424369
-6.2845e-07
-6.538605e-07
-2.336881e-06
-1.709246e-06
-0.009420297
0.009425618
-6.083249e-07
-6.391221e-07
-2.363809e-06
-1.72126e-06
-0.00942155
0.009426892
-6.02354e-07
-6.261018e-07
-2.392652e-06
-1.732532e-06
-0.009422828
0.00942816
-5.680294e-07
-6.112478e-07
-2.420128e-06
-1.743325e-06
-0.009424101
0.009429438
-5.481513e-07
-5.9863e-07
-2.447354e-06
-1.753524e-06
-0.009425367
0.009430711
-5.285791e-07
-5.865009e-07
-2.474748e-06
-1.76321e-06
-0.00942666
0.009432008
-5.090285e-07
-5.758128e-07
-2.499939e-06
-1.772194e-06
-0.009427961
0.009433315
-4.903826e-07
-5.646166e-07
-2.526781e-06
-1.780799e-06
-0.009429272
0.009434632
-4.713729e-07
-5.545214e-07
-2.552569e-06
-1.789073e-06
-0.009430593
0.009435958
-4.526879e-07
-5.445759e-07
-2.57853e-06
-1.796359e-06
-0.009431908
0.009437288
-4.339803e-07
-5.463725e-07
-2.603772e-06
-1.793313e-06
-0.009433256
0.009438633
-4.158997e-07
-5.387801e-07
-2.628582e-06
-1.810557e-06
-0.009434612
0.009439996
-4.018727e-07
-5.163696e-07
-2.654855e-06
-1.806263e-06
-0.009435972
0.009441352
-3.852722e-07
-5.083204e-07
-2.679935e-06
-1.812122e-06
-0.009437333
0.009442743
-3.813356e-07
-5.12048e-07
-2.704216e-06
-1.82917e-06
-0.009438703
0.0094441
-3.50266e-07
-4.901578e-07
-2.728269e-06
-1.835008e-06
-0.009440091
0.009445511
-3.483367e-07
-4.837888e-07
-2.75226e-06
-1.840998e-06
-0.009441505
0.009446913
-3.163888e-07
-4.762318e-07
-2.77458e-06
-1.846495e-06
-0.009442911
0.009448341
-3.13918e-07
-4.703926e-07
-2.799314e-06
-1.85173e-06
-0.009444344
0.009449763
-2.829803e-07
-4.621953e-07
-2.822761e-06
-1.856858e-06
-0.00944577
0.009451195
-2.666601e-07
-4.557022e-07
-2.846013e-06
-1.860994e-06
-0.009447206
0.009452647
-2.505492e-07
-4.605065e-07
-2.869181e-06
-1.865728e-06
-0.009448652
0.009454099
-2.346978e-07
-4.545117e-07
-2.892539e-06
-1.870388e-06
-0.009450116
0.009455577
-2.157953e-07
-4.612291e-07
-2.913608e-06
-1.864445e-06
-0.00945161
0.009457085
-2.145447e-07
-4.601218e-07
-2.93572e-06
-1.86861e-06
-0.00945318
0.00945872
-2.003123e-07
-5.161256e-07
-2.955465e-06
-1.829163e-06
-0.009454913
0.009460644
-2.399196e-07
-6.876148e-07
-2.973672e-06
-5.362245e-06
-0.009457173
0.009447548
5.136542e-06
1.284079e-05
-2.990019e-06
-1.267934e-05
-0.00940252
0.00936676
1.397671e-05
3.751704e-05
-3.054521e-06
2.173592e-05
-0.009355903
0.009404945
-1.1612e-05
-5.583279e-05
-3.332268e-06
-0.0001843515
-7.719658e-05
0.01085387
8.659589e-05
8.381053e-05
-2.131521e-05
-1.13912e-05
-0.01086821
0.01086925
1.012125e-05
2.154521e-05
8.987819e-07
1.080364e-06
-0.01085645
0.01085954
-1.210901e-06
-3.854637e-06
2.356127e-05
1.703997e-05
-0.01087639
0.0109037
-1.627069e-05
-5.164296e-05
1.924018e-06
1.9094e-06
-0.01089924
0.01090468
-1.839707e-06
-7.437883e-06
1.869907e-06
1.944321e-06
-0.01089975
0.01090544
-1.759266e-06
-7.749488e-06
1.727786e-06
1.948057e-06
-0.01090074
0.01090657
-1.699376e-06
-7.803519e-06
1.603102e-06
1.925945e-06
-0.01090195
0.01090784
-1.628225e-06
-7.793418e-06
1.529856e-06
1.832584e-06
-0.01090324
0.01090915
-1.481758e-06
-7.789719e-06
1.439089e-06
1.777674e-06
-0.01090454
0.01091047
-1.389104e-06
-7.766489e-06
1.369131e-06
1.739256e-06
-0.01090587
0.01091181
-1.311108e-06
-7.732366e-06
1.33891e-06
1.668498e-06
-0.0109072
0.01091312
-1.222106e-06
-7.702102e-06
1.27551e-06
1.638855e-06
-0.01090852
0.01091444
-1.167627e-06
-7.671706e-06
1.227026e-06
1.62657e-06
-0.01090989
0.01091583
-1.170287e-06
-7.629267e-06
1.177481e-06
1.592727e-06
-0.01091132
0.01091732
-1.156726e-06
-7.613498e-06
1.159558e-06
1.549178e-06
-0.01091276
0.01091872
-1.089356e-06
-7.578602e-06
1.145283e-06
1.496943e-06
-0.01091416
0.01092013
-1.026833e-06
-7.579277e-06
1.116966e-06
1.460413e-06
-0.01091552
0.01092148
-9.933436e-07
-7.544223e-06
1.088868e-06
1.463125e-06
-0.01091692
0.0109229
-1.011501e-06
-7.519552e-06
1.040118e-06
1.468482e-06
-0.01091839
0.01092441
-1.033881e-06
-7.496316e-06
1.040434e-06
1.45074e-06
-0.0109199
0.0109259
-1.034251e-06
-7.451826e-06
1.012105e-06
1.434701e-06
-0.0109214
0.01092739
-9.901386e-07
-7.443872e-06
9.940437e-07
1.407595e-06
-0.0109229
0.01092891
-9.705744e-07
-7.436823e-06
9.762962e-07
1.394188e-06
-0.01092439
0.01093042
-9.766706e-07
-7.417514e-06
9.59744e-07
1.381845e-06
-0.01092589
0.01093191
-9.608381e-07
-7.399261e-06
9.448875e-07
1.358311e-06
-0.0109274
0.01093342
-9.463551e-07
-7.36978e-06
9.42445e-07
1.336203e-06
-0.01092889
0.01093492
-9.326132e-07
-7.375603e-06
9.016403e-07
1.327727e-06
-0.01093037
0.01093643
-9.445668e-07
-7.345529e-06
8.86717e-07
1.343238e-06
-0.01093191
0.01093799
-9.806333e-07
-7.328122e-06
8.975994e-07
1.334268e-06
-0.0109335
0.01093951
-9.338231e-07
-7.312195e-06
8.874366e-07
1.302091e-06
-0.010935
0.010941
-8.873046e-07
-7.296997e-06
8.736557e-07
1.295755e-06
-0.0109365
0.01094253
-9.008829e-07
-7.291764e-06
8.561918e-07
1.31393e-06
-0.01093801
0.01094407
-9.630322e-07
-7.262062e-06
8.184022e-07
1.296815e-06
-0.01093961
0.01094573
-9.904447e-07
-7.244573e-06
8.165995e-07
1.315836e-06
-0.01094126
0.01094734
-1.005764e-06
-7.204843e-06
8.038394e-07
1.322311e-06
-0.01094293
0.01094904
-1.033606e-06
-7.211996e-06
7.93377e-07
1.305184e-06
-0.01094462
0.01095074
-1.037787e-06
-7.174696e-06
7.861748e-07
1.276208e-06
-0.0109463
0.01095243
-1.018149e-06
-7.173971e-06
7.757627e-07
1.283028e-06
-0.01094798
0.01095409
-9.981792e-07
-7.172114e-06
7.656603e-07
1.278248e-06
-0.01094964
0.01095576
-1.002294e-06
-7.158449e-06
7.563086e-07
1.274074e-06
-0.01095133
0.01095743
-9.949534e-07
-7.133535e-06
7.465534e-07
1.268776e-06
-0.01095298
0.0109591
-9.994779e-07
-7.143845e-06
7.502934e-07
1.251908e-06
-0.01095465
0.01096079
-9.922621e-07
-7.142957e-06
7.550121e-07
1.248651e-06
-0.01095636
0.01096249
-9.737469e-07
-7.154813e-06
7.583648e-07
1.256182e-06
-0.01095808
0.01096428
-9.913637e-07
-7.22438e-06
8.274435e-07
1.273568e-06
-0.01095997
0.01096631
-1.007771e-06
-7.425623e-06
1.076413e-06
1.319245e-06
-0.01096219
0.01096883
-9.099996e-07
-8.129681e-06
-4.008049e-05
-1.433859e-05
-0.01096525
0.01097904
1.58466e-05
2.478282e-05
-4.643372e-05
-2.904337e-05
-0.01093048
0.01088685
3.286506e-05
8.624212e-05
5.319284e-05
2.167613e-05
-0.01084969
0.01080031
-1.641349e-05
-9.075152e-06
-9.066094e-05
-2.468504e-05
0.01061739
1.954414e-05
3.574308e-05
-2.701357e-05
-6.386285e-06
-0.0106439
0.01065656
3.214232e-06
1.752716e-05
1.01102e-06
9.794977e-07
-0.01064986
0.01065334
-3.839413e-07
-5.083466e-06
8.27377e-06
3.466067e-06
-0.01064764
0.01065259
-9.803818e-07
-1.570736e-05
6.803602e-06
1.966518e-06
-0.01064693
0.01065246
-1.042899e-06
-1.325627e-05
7.079716e-06
1.984417e-06
-0.0106473
0.01065311
-1.054174e-06
-1.382344e-05
7.12219e-06
2.037656e-06
-0.01064817
0.01065417
-1.161987e-06
-1.400047e-05
7.103216e-06
2.06233e-06
-0.01064931
0.01065539
-1.240754e-06
-1.40047e-05
7.099971e-06
1.98561e-06
-0.01065058
0.01065667
-1.181099e-06
-1.398752e-05
7.085572e-06
1.916971e-06
-0.01065183
0.01065793
-1.129877e-06
-1.396527e-05
7.05719e-06
1.874758e-06
-0.01065313
0.01065923
-1.104703e-06
-1.392308e-05
7.046882e-06
1.798294e-06
-0.01065442
0.01066049
-1.033478e-06
-1.388639e-05
7.019028e-06
1.783103e-06
-0.01065567
0.01066176
-1.041357e-06
-1.385025e-05
6.959469e-06
1.853528e-06
-0.01065698
0.01066314
-1.15954e-06
-1.381347e-05
6.933627e-06
1.856172e-06
-0.01065841
0.01066458
-1.18604e-06
-1.377149e-05
6.928897e-06
1.770844e-06
-0.01065982
0.01066596
-1.084419e-06
-1.375963e-05
6.923176e-06
1.685783e-06
-0.01066118
0.01066731
-9.829905e-07
-1.374914e-05
6.897819e-06
1.671134e-06
-0.01066253
0.01066864
-9.71235e-07
-1.371302e-05
6.856373e-06
1.718135e-06
-0.01066387
0.01067003
-1.045868e-06
-1.368732e-05
6.82698e-06
1.769101e-06
-0.01066531
0.01067149
-1.125929e-06
-1.365119e-05
6.804405e-06
1.771065e-06
-0.01066678
0.01067298
-1.13708e-06
-1.364246e-05
6.784497e-06
1.732768e-06
-0.01066827
0.01067446
-1.090057e-06
-1.362469e-05
6.765123e-06
1.699898e-06
-0.01066974
0.01067594
-1.050073e-06
-1.360804e-05
6.74353e-06
1.680313e-06
-0.01067121
0.0106774
-1.027014e-06
-1.359109e-05
6.722344e-06
1.66505e-06
-0.01067268
0.01067887
-1.007783e-06
-1.357469e-05
6.702337e-06
1.638991e-06
-0.01067414
0.01068033
-9.740079e-07
-1.355917e-05
6.681623e-06
1.619461e-06
-0.0106756
0.01068179
-9.460437e-07
-1.354353e-05
6.656854e-06
1.643394e-06
-0.01067706
0.01068327
-9.825803e-07
-1.352643e-05
6.633294e-06
1.675174e-06
-0.01067857
0.01068479
-1.026705e-06
-1.349873e-05
6.628724e-06
1.627655e-06
-0.0106801
0.0106863
-9.622941e-07
-1.349776e-05
6.614309e-06
1.557197e-06
-0.01068158
0.01068776
-8.647997e-07
-1.34862e-05
6.5913e-06
1.566382e-06
-0.01068301
0.01068921
-8.775132e-07
-1.34827e-05
6.551264e-06
1.647268e-06
-0.0106845
0.01069074
-9.879201e-07
-1.345327e-05
6.5147e-06
1.70387e-06
-0.01068607
0.01069235
-1.067051e-06
-1.343679e-05
6.505047e-06
1.731953e-06
-0.01068769
0.01069398
-1.107934e-06
-1.342233e-05
6.471276e-06
1.768505e-06
-0.01068936
0.01069567
-1.158156e-06
-1.33969e-05
6.466308e-06
1.759855e-06
-0.01069105
0.01069736
-1.145837e-06
-1.33975e-05
6.45272e-06
1.715257e-06
-0.01069273
0.01069903
-1.081803e-06
-1.338841e-05
6.449175e-06
1.682956e-06
-0.0106944
0.01070068
-1.034115e-06
-1.337868e-05
6.419781e-06
1.669938e-06
-0.01069602
0.01070232
-1.015428e-06
-1.336815e-05
6.402217e-06
1.663925e-06
-0.01069767
0.01070397
-1.003642e-06
-1.335747e-05
6.385262e-06
1.654535e-06
-0.01069933
0.01070564
-9.872669e-07
-1.33591e-05
6.381843e-06
1.631608e-06
-0.01070099
0.01070729
-9.513377e-07
-1.336139e-05
6.402433e-06
1.609346e-06
-0.01070263
0.01070896
-9.143892e-07
-1.342255e-05
6.445913e-06
1.612916e-06
-0.01070437
0.01071076
-8.998843e-07
-1.354258e-05
6.631192e-06
1.54374e-06
-0.01070626
0.01071279
-7.529564e-07
-1.394949e-05
7.314073e-06
1.175019e-06
-0.01070848
0.01071526
-9.767953e-08
-1.517529e-05
-6.885402e-05
-1.323704e-05
-0.0107114
0.01074958
8.686862e-06
3.522061e-05
-8.953373e-05
-2.939566e-05
-0.01069997
0.01064795
1.860573e-05
0.000152343
1.244776e-05
-5.695203e-07
-0.01059263
0.01052623
3.236219e-06
5.128812e-05
-7.714837e-05
3.512951e-07
0.01074865
-2.010481e-05
2.685541e-05
-2.732439e-05
4.745451e-07
-0.01077439
0.01078869
-3.980587e-06
1.65333e-05
9.474287e-07
2.425946e-07
-0.01078202
0.01078643
5.951779e-08
-5.655889e-06
6.383145e-06
3.558975e-08
-0.01077882
0.0107844
9.843491e-07
-1.298413e-05
7.633571e-06
-8.784736e-08
-0.01077797
0.01078435
1.270812e-06
-1.519622e-05
7.952568e-06
-1.149613e-07
-0.01077844
0.01078516
1.337911e-06
-1.589247e-05
8.054085e-06
1.126461e-08
-0.01077941
0.01078625
1.214108e-06
-1.611439e-05
8.070409e-06
1.173854e-07
-0.01078057
0.01078743
1.09822e-06
-1.614848e-05
8.059513e-06
7.117333e-08
-0.01078178
0.01078867
1.125607e-06
-1.614499e-05
8.050029e-06
3.110955e-08
-0.01078306
0.01078995
1.144696e-06
-1.61235e-05
8.027502e-06
2.077035e-08
-0.01078435
0.01079126
1.138607e-06
-1.61047e-05
7.993926e-06
-4.454245e-08
-0.01078566
0.01079258
1.18766e-06
-1.605245e-05
7.970199e-06
-2.195264e-08
-0.010787
0.01079394
1.155174e-06
-1.60492e-05
7.954385e-06
1.241187e-07
-0.01078834
0.01079528
1.005811e-06
-1.602192e-05
7.93142e-06
1.622864e-07
-0.01078967
0.01079663
9.602693e-07
-1.600951e-05
7.909686e-06
5.557653e-08
-0.01079102
0.01079798
1.054098e-06
-1.597473e-05
7.864407e-06
-5.278325e-08
-0.01079241
0.0107994
1.150521e-06
-1.595306e-05
7.851839e-06
-5.860613e-08
-0.01079382
0.0108008
1.150726e-06
-1.591874e-05
7.824954e-06
3.274761e-08
-0.01079524
0.01080223
1.059211e-06
-1.590824e-05
7.823853e-06
1.284166e-07
-0.01079667
0.01080365
9.648629e-07
-1.589885e-05
7.811958e-06
1.452303e-07
-0.0107981
0.01080506
9.453261e-07
-1.586636e-05
7.765548e-06
9.557433e-08
-0.01079953
0.01080652
9.876941e-07
-1.584703e-05
7.731592e-06
5.195631e-08
-0.01080097
0.01080799
1.026992e-06
-1.582842e-05
7.70874e-06
3.033042e-08
-0.01080244
0.01080947
1.044567e-06
-1.580994e-05
7.685905e-06
1.024101e-08
-0.01080393
0.01081096
1.061237e-06
-1.579165e-05
7.675588e-06
-2.61659e-08
-0.01080544
0.01081247
1.092789e-06
-1.57738e-05
7.629384e-06
-5.411742e-08
-0.01080696
0.01081401
1.117936e-06
-1.574414e-05
7.629509e-06
-1.07841e-08
-0.0108085
0.01081554
1.075085e-06
-1.573829e-05
7.606425e-06
3.99067e-08
-0.01081004
0.01081708
1.027395e-06
-1.572087e-05
7.586259e-06
-3.078931e-08
-0.01081158
0.01081864
1.091024e-06
-1.570464e-05
7.542398e-06
-1.412964e-07
-0.01081314
0.01082022
1.194317e-06
-1.567673e-05
7.520476e-06
-1.253535e-07
-0.01081474
0.01082182
1.179484e-06
-1.564841e-05
7.520145e-06
2.903089e-09
-0.01081633
0.01082341
1.058069e-06
-1.565527e-05
7.497126e-06
9.157071e-08
-0.01081792
0.010825
9.736504e-07
-1.56385e-05
7.488344e-06
1.393924e-07
-0.0108195
0.01082658
9.273164e-07
-1.563506e-05
7.275873e-06
1.957703e-07
-0.0108211
0.0108282
8.323885e-07
-1.540389e-05
7.448819e-06
1.826711e-07
-0.01082272
0.01082981
8.862456e-07
-1.560621e-05
7.419284e-06
1.108699e-07
-0.01082431
0.01083142
9.534043e-07
-1.559286e-05
7.401283e-06
5.791503e-08
-0.01082595
0.01083306
1.002406e-06
-1.55675e-05
7.382809e-06
3.640208e-08
-0.0108276
0.01083471
1.020318e-06
-1.555408e-05
7.363392e-06
2.547583e-08
-0.01082925
0.01083639
1.031515e-06
-1.555265e-05
7.343857e-06
5.735354e-09
-0.01083089
0.01083803
1.052601e-06
-1.553931e-05
7.348982e-06
-3.576903e-08
-0.0108326
0.01083974
1.092061e-06
-1.553779e-05
7.330887e-06
-8.361466e-08
-0.01083433
0.01084152
1.141746e-06
-1.558474e-05
7.408227e-06
-1.147296e-07
-0.01083617
0.01084343
1.185566e-06
-1.573988e-05
7.59682e-06
-3.313073e-07
-0.0108382
0.01084568
1.424104e-06
-1.617191e-05
8.25869e-06
-1.211332e-06
-0.0108408
0.01084888
2.36296e-06
-1.749143e-05
-7.596564e-05
-3.059881e-06
-0.01084492
0.01088787
-3.097225e-06
3.917109e-05
-0.0001013402
-4.704972e-06
-0.0108306
0.01077009
-9.983043e-06
0.000176534
8.807243e-07
-3.528226e-06
-0.0107069
0.01063558
3.280778e-06
7.068122e-05
-0.0001399723
2.516708e-05
0.01088232
-8.773977e-05
5.617218e-05
-2.873839e-05
7.138182e-06
-0.01091799
0.01092586
-1.492749e-05
2.865388e-05
-3.111637e-05
1.14005e-05
-0.0109132
0.01089129
-1.459412e-05
5.621877e-05
5.17609e-06
-2.079706e-06
-0.01088298
0.01088872
2.411722e-06
-1.124323e-05
5.9512e-06
-2.395934e-06
-0.01088203
0.01088873
2.589706e-06
-1.284697e-05
6.197943e-06
-2.451031e-06
-0.01088263
0.01088964
2.546926e-06
-1.330391e-05
6.337367e-06
-2.343207e-06
-0.01088373
0.0108908
2.393669e-06
-1.345742e-05
6.438954e-06
-2.228237e-06
-0.01088489
0.01089197
2.216454e-06
-1.350918e-05
6.472579e-06
-2.215885e-06
-0.01088607
0.0108932
2.14228e-06
-1.352836e-05
6.4979e-06
-2.199626e-06
-0.01088734
0.0108945
2.062078e-06
-1.3526e-05
6.529323e-06
-2.166481e-06
-0.01088866
0.01089583
1.984283e-06
-1.351331e-05
6.511312e-06
-2.177661e-06
-0.01089
0.01089719
1.955607e-06
-1.348681e-05
6.514585e-06
-2.137111e-06
-0.0108914
0.01089861
1.901736e-06
-1.34845e-05
6.545666e-06
-2.014173e-06
-0.01089277
0.01089992
1.798208e-06
-1.347285e-05
6.543409e-06
-1.968864e-06
-0.01089404
0.0109012
1.748747e-06
-1.348271e-05
6.525569e-06
-2.022064e-06
-0.01089536
0.01090254
1.752481e-06
-1.343988e-05
6.481907e-06
-2.076747e-06
-0.01089675
0.010904
1.761931e-06
-1.342063e-05
6.463498e-06
-2.069527e-06
-0.01089823
0.01090549
1.740721e-06
-1.33902e-05
6.461188e-06
-1.997093e-06
-0.0108997
0.01090693
1.700148e-06
-1.338634e-05
6.459926e-06
-1.926206e-06
-0.01090111
0.01090832
1.639647e-06
-1.338353e-05
6.439738e-06
-1.907602e-06
-0.0109025
0.0109097
1.616377e-06
-1.33539e-05
6.400625e-06
-1.933493e-06
-0.01090388
0.01091111
1.642152e-06
-1.334618e-05
6.374285e-06
-1.957289e-06
-0.01090533
0.01091258
1.647083e-06
-1.33145e-05
6.336866e-06
-1.967249e-06
-0.0109068
0.01091407
1.653549e-06
-1.3296e-05
6.311647e-06
-1.975641e-06
-0.01090829
0.0109156
1.638e-06
-1.327751e-05
6.295808e-06
-1.996004e-06
-0.01090984
0.01091715
1.64693e-06
-1.325878e-05
6.255217e-06
-2.011338e-06
-0.01091141
0.01091874
1.669071e-06
-1.323954e-05
6.243928e-06
-1.981066e-06
-0.01091301
0.01092032
1.644689e-06
-1.322281e-05
6.221263e-06
-1.945531e-06
-0.01091456
0.01092187
1.62158e-06
-1.320568e-05
6.179293e-06
-1.990565e-06
-0.01091612
0.01092346
1.657718e-06
-1.318686e-05
6.144988e-06
-2.062878e-06
-0.01091775
0.01092513
1.706055e-06
-1.316672e-05
6.095741e-06
-2.052682e-06
-0.01091946
0.01092685
1.709266e-06
-1.313717e-05
6.100579e-06
-1.966911e-06
-0.01092114
0.0109285
1.641654e-06
-1.313513e-05
6.089607e-06
-1.910199e-06
-0.01092275
0.01093006
1.633574e-06
-1.312021e-05
6.078037e-06
-1.881295e-06
-0.01092431
0.01093161
1.613766e-06