/*--------------------------------*- C++ -*----------------------------------*\
| =========                 |                                                 |
| \\      /  F ield         | OpenFOAM: The Open Source CFD Toolbox           |
|  \\    /   O peration     | Version:  v1912                                 |
|   \\  /    A nd           | Website:  www.openfoam.com                      |
|    \\/     M anipulation  |                                                 |
\*---------------------------------------------------------------------------*/
FoamFile
{
    version     2.0;
    format      ascii;
    class       volVectorField;
    location    "102";
    object      U;
}
// * * * * * * * * * * * * * * * * * * * * * * * * * * * * * * * * * * * * * //

dimensions      [0 1 -1 0 0 0 0];


internalField   nonuniform List<vector> 
44200
(
(0.05024068 -5.747535e-07 3.160041e-06)
(0.05024877 7.384741e-07 1.133318e-05)
(0.0502572 1.753091e-06 1.487466e-05)
(0.0502633 2.136056e-06 1.709686e-05)
(0.05026912 2.357621e-06 1.838957e-05)
(0.05027476 2.493828e-06 1.920917e-05)
(0.05028045 2.593106e-06 1.978654e-05)
(0.05028624 2.647593e-06 2.017189e-05)
(0.05029207 2.678795e-06 2.04082e-05)
(0.05029793 2.69599e-06 2.059286e-05)
(0.05030388 2.722591e-06 2.074864e-05)
(0.05030988 2.735401e-06 2.084448e-05)
(0.05031591 2.760174e-06 2.094733e-05)
(0.05032204 2.789398e-06 2.106687e-05)
(0.05032826 2.814858e-06 2.113084e-05)
(0.05033451 2.827248e-06 2.116702e-05)
(0.05034078 2.850869e-06 2.120918e-05)
(0.05034711 2.881944e-06 2.128172e-05)
(0.05035351 2.916323e-06 2.135085e-05)
(0.05035998 2.952351e-06 2.141946e-05)
(0.05036651 2.984151e-06 2.146208e-05)
(0.05037309 3.006852e-06 2.151175e-05)
(0.05037971 3.03227e-06 2.15467e-05)
(0.05038638 3.063931e-06 2.15981e-05)
(0.05039311 3.094143e-06 2.164488e-05)
(0.0503999 3.125285e-06 2.168828e-05)
(0.05040672 3.155523e-06 2.174432e-05)
(0.05041361 3.189128e-06 2.180242e-05)
(0.05042057 3.214692e-06 2.185245e-05)
(0.05042758 3.241325e-06 2.18868e-05)
(0.05043462 3.265398e-06 2.192162e-05)
(0.0504417 3.301752e-06 2.198796e-05)
(0.05044886 3.333892e-06 2.20524e-05)
(0.05045609 3.367512e-06 2.210625e-05)
(0.05046337 3.392243e-06 2.215662e-05)
(0.05047071 3.421213e-06 2.220546e-05)
(0.05047812 3.4372e-06 2.223698e-05)
(0.05048556 3.448889e-06 2.227214e-05)
(0.05049306 3.467857e-06 2.230522e-05)
(0.05050061 3.492264e-06 2.234925e-05)
(0.05050823 3.514486e-06 2.239054e-05)
(0.05051591 3.534646e-06 2.242939e-05)
(0.05052365 3.550331e-06 2.246193e-05)
(0.05053143 3.559641e-06 2.250463e-05)
(0.0505393 3.559867e-06 2.253953e-05)
(0.05054727 3.530126e-06 2.254617e-05)
(0.0505553 3.44232e-06 2.243616e-05)
(0.05056336 3.313876e-06 2.21437e-05)
(0.05057181 3.090521e-06 2.23759e-05)
(0.05057955 3.084758e-06 2.432777e-05)
(0.05024098 -5.286789e-08 3.759523e-06)
(0.05024972 -1.147012e-06 1.039337e-05)
(0.05025746 -1.698487e-06 1.444245e-05)
(0.05026374 -2.055955e-06 1.67589e-05)
(0.05026969 -2.479102e-06 1.799907e-05)
(0.05027541 -2.897176e-06 1.872203e-05)
(0.05028113 -3.246322e-06 1.916476e-05)
(0.05028689 -3.553638e-06 1.94575e-05)
(0.05029272 -3.861894e-06 1.961788e-05)
(0.05029858 -4.130679e-06 1.974042e-05)
(0.05030452 -4.347695e-06 1.982981e-05)
(0.05031052 -4.545808e-06 1.989226e-05)
(0.05031657 -4.696876e-06 1.995334e-05)
(0.05032272 -4.782547e-06 2.002662e-05)
(0.05032893 -4.85724e-06 2.005276e-05)
(0.0503352 -4.960883e-06 2.008656e-05)
(0.0503415 -5.052771e-06 2.01194e-05)
(0.05034786 -5.103868e-06 2.01563e-05)
(0.0503543 -5.123827e-06 2.02175e-05)
(0.0503608 -5.11628e-06 2.026052e-05)
(0.05036735 -5.125388e-06 2.02924e-05)
(0.05037396 -5.140842e-06 2.033254e-05)
(0.05038062 -5.157143e-06 2.036584e-05)
(0.05038733 -5.158652e-06 2.041009e-05)
(0.05039411 -5.157348e-06 2.045269e-05)
(0.05040093 -5.15709e-06 2.04916e-05)
(0.05040781 -5.148694e-06 2.053332e-05)
(0.05041474 -5.124708e-06 2.059071e-05)
(0.05042174 -5.095684e-06 2.063466e-05)
(0.05042879 -5.081881e-06 2.066642e-05)
(0.05043589 -5.08286e-06 2.070162e-05)
(0.05044303 -5.055341e-06 2.074947e-05)
(0.05045023 -5.005656e-06 2.080791e-05)
(0.05045751 -4.95882e-06 2.085422e-05)
(0.05046483 -4.911177e-06 2.089866e-05)
(0.05047221 -4.865958e-06 2.094286e-05)
(0.05047965 -4.841373e-06 2.097189e-05)
(0.05048713 -4.828093e-06 2.100666e-05)
(0.05049468 -4.812409e-06 2.103958e-05)
(0.05050228 -4.787108e-06 2.108111e-05)
(0.05050994 -4.756683e-06 2.112001e-05)
(0.05051765 -4.732056e-06 2.116011e-05)
(0.05052542 -4.723132e-06 2.119444e-05)
(0.05053324 -4.713651e-06 2.12293e-05)
(0.05054112 -4.709641e-06 2.127628e-05)
(0.05054908 -4.745086e-06 2.128888e-05)
(0.05055706 -4.919218e-06 2.125996e-05)
(0.05056518 -5.323148e-06 2.110923e-05)
(0.05057399 -5.783184e-06 2.15173e-05)
(0.05058219 -5.957489e-06 2.374613e-05)
(0.05024025 7.893798e-07 -1.621928e-07)
(0.05024617 -7.460068e-07 1.066665e-05)
(0.05025499 -3.262267e-06 1.594344e-05)
(0.05026141 -5.374081e-06 1.796242e-05)
(0.05026731 -6.897702e-06 1.889416e-05)
(0.05027293 -8.003763e-06 1.939471e-05)
(0.05027849 -8.762185e-06 1.962963e-05)
(0.05028399 -9.299157e-06 1.978224e-05)
(0.05028953 -9.724376e-06 1.995884e-05)
(0.05029513 -1.005749e-05 2.009905e-05)
(0.05030075 -1.030078e-05 2.018441e-05)
(0.05030642 -1.051181e-05 2.031263e-05)
(0.05031216 -1.066912e-05 2.039186e-05)
(0.05031794 -1.075167e-05 2.040179e-05)
(0.05032372 -1.083078e-05 2.044656e-05)
(0.05032957 -1.092557e-05 2.056036e-05)
(0.05033546 -1.101259e-05 2.066059e-05)
(0.05034144 -1.107645e-05 2.072046e-05)
(0.05034746 -1.110088e-05 2.075256e-05)
(0.05035349 -1.11093e-05 2.077021e-05)
(0.05035958 -1.111674e-05 2.080584e-05)
(0.05036572 -1.114532e-05 2.08935e-05)
(0.05037193 -1.116936e-05 2.096658e-05)
(0.05037819 -1.118109e-05 2.101945e-05)
(0.0503845 -1.11906e-05 2.107686e-05)
(0.05039086 -1.120297e-05 2.114583e-05)
(0.0503973 -1.121164e-05 2.120493e-05)
(0.05040379 -1.120256e-05 2.12443e-05)
(0.05041033 -1.118571e-05 2.127556e-05)
(0.05041692 -1.118317e-05 2.134099e-05)
(0.05042361 -1.119851e-05 2.143523e-05)
(0.05043037 -1.118996e-05 2.147073e-05)
(0.05043719 -1.115353e-05 2.148146e-05)
(0.05044406 -1.110905e-05 2.150532e-05)
(0.05045102 -1.107604e-05 2.154385e-05)
(0.05045804 -1.102962e-05 2.156345e-05)
(0.05046508 -1.099566e-05 2.161129e-05)
(0.05047222 -1.09867e-05 2.167666e-05)
(0.0504795 -1.097203e-05 2.173993e-05)
(0.05048684 -1.095019e-05 2.178187e-05)
(0.05049425 -1.093532e-05 2.181697e-05)
(0.05050192 -1.091888e-05 2.185729e-05)
(0.05050952 -1.090989e-05 2.19178e-05)
(0.05051721 -1.090213e-05 2.196996e-05)
(0.05052496 -1.089146e-05 2.201304e-05)
(0.05053276 -1.090748e-05 2.207984e-05)
(0.05054052 -1.101968e-05 2.232379e-05)
(0.05054824 -1.136235e-05 2.290544e-05)
(0.05055661 -1.175686e-05 2.388247e-05)
(0.05056426 -1.211409e-05 2.635538e-05)
(0.05024188 5.752294e-06 6.802008e-06)
(0.05025603 7.913185e-06 9.591481e-06)
(0.05026194 9.240742e-06 1.238191e-05)
(0.05026813 9.051036e-06 1.444572e-05)
(0.05027383 8.709962e-06 1.607859e-05)
(0.05027955 8.404421e-06 1.742085e-05)
(0.05028534 8.165503e-06 1.847822e-05)
(0.05029117 8.009706e-06 1.931491e-05)
(0.05029708 7.92285e-06 1.996647e-05)
(0.05030305 7.893623e-06 2.047769e-05)
(0.05030908 7.90293e-06 2.088662e-05)
(0.05031517 7.942242e-06 2.120381e-05)
(0.05032132 8.003855e-06 2.146359e-05)
(0.05032754 8.077529e-06 2.167187e-05)
(0.05033382 8.162969e-06 2.183239e-05)
(0.05034016 8.258204e-06 2.195685e-05)
(0.05034654 8.36007e-06 2.205305e-05)
(0.05035298 8.464137e-06 2.213606e-05)
(0.05035948 8.567443e-06 2.220272e-05)
(0.05036603 8.672548e-06 2.225431e-05)
(0.05037264 8.774906e-06 2.229339e-05)
(0.05037931 8.878578e-06 2.231564e-05)
(0.05038602 8.986003e-06 2.233751e-05)
(0.05039279 9.08892e-06 2.235171e-05)
(0.05039961 9.191853e-06 2.236103e-05)
(0.05040648 9.292918e-06 2.236747e-05)
(0.0504134 9.390277e-06 2.236432e-05)
(0.05042037 9.487051e-06 2.236449e-05)
(0.0504274 9.582326e-06 2.23584e-05)
(0.05043448 9.676226e-06 2.235182e-05)
(0.0504416 9.768198e-06 2.234168e-05)
(0.05044878 9.857782e-06 2.233038e-05)
(0.050456 9.945778e-06 2.232466e-05)
(0.05046329 1.002977e-05 2.231499e-05)
(0.05047062 1.010972e-05 2.230345e-05)
(0.05047801 1.019121e-05 2.228851e-05)
(0.05048545 1.027031e-05 2.227094e-05)
(0.05049294 1.035035e-05 2.224579e-05)
(0.05050047 1.04319e-05 2.222877e-05)
(0.05050806 1.050938e-05 2.220873e-05)
(0.0505157 1.058678e-05 2.218798e-05)
(0.05052339 1.066275e-05 2.216668e-05)
(0.05053114 1.073766e-05 2.214513e-05)
(0.05053894 1.081002e-05 2.211472e-05)
(0.0505468 1.088317e-05 2.208419e-05)
(0.05055472 1.09586e-05 2.204014e-05)
(0.0505627 1.103282e-05 2.197923e-05)
(0.0505708 1.105193e-05 2.187309e-05)
(0.05057959 1.103778e-05 2.178883e-05)
(0.05058899 1.081795e-05 2.152795e-05)
(0.05024081 1.587675e-06 2.961639e-06)
(0.05024777 4.313535e-06 8.078811e-06)
(0.0502537 5.017738e-06 8.641141e-06)
(0.05025957 6.203087e-06 8.727907e-06)
(0.05026544 7.101123e-06 8.735722e-06)
(0.0502713 7.957384e-06 8.811341e-06)
(0.05027721 8.691541e-06 8.933111e-06)
(0.05028318 9.332375e-06 9.070745e-06)
(0.05028921 9.89137e-06 9.200799e-06)
(0.05029528 1.037341e-05 9.323753e-06)
(0.05030142 1.078857e-05 9.45717e-06)
(0.05030762 1.114444e-05 9.5786e-06)
(0.05031387 1.144861e-05 9.711196e-06)
(0.05032019 1.170359e-05 9.853045e-06)
(0.05032658 1.192147e-05 9.980085e-06)
(0.05033302 1.21131e-05 1.009521e-05)
(0.05033951 1.227594e-05 1.020873e-05)
(0.05034605 1.241427e-05 1.033529e-05)
(0.05035266 1.252789e-05 1.046808e-05)
(0.05035932 1.262048e-05 1.059673e-05)
(0.05036604 1.270244e-05 1.072245e-05)
(0.05037282 1.277057e-05 1.083731e-05)
(0.05037965 1.283021e-05 1.095416e-05)
(0.05038653 1.288041e-05 1.107364e-05)
(0.05039346 1.292186e-05 1.119096e-05)
(0.05040044 1.295769e-05 1.130742e-05)
(0.05040747 1.298459e-05 1.142274e-05)
(0.05041455 1.30048e-05 1.154506e-05)
(0.05042169 1.302004e-05 1.165948e-05)
(0.05042887 1.303511e-05 1.17714e-05)
(0.05043609 1.304944e-05 1.188092e-05)
(0.05044336 1.305557e-05 1.199576e-05)
(0.05045068 1.305689e-05 1.211768e-05)
(0.05045805 1.305485e-05 1.223702e-05)
(0.05046546 1.305264e-05 1.235262e-05)
(0.05047292 1.304575e-05 1.246451e-05)
(0.05048043 1.304111e-05 1.256979e-05)
(0.05048798 1.303414e-05 1.266582e-05)
(0.05049556 1.302808e-05 1.276907e-05)
(0.05050319 1.302153e-05 1.28724e-05)
(0.05051086 1.301307e-05 1.297373e-05)
(0.05051858 1.300433e-05 1.307356e-05)
(0.05052633 1.299505e-05 1.317082e-05)
(0.05053413 1.29806e-05 1.326324e-05)
(0.05054198 1.296206e-05 1.335421e-05)
(0.05054987 1.293968e-05 1.341997e-05)
(0.05055778 1.291244e-05 1.3446e-05)
(0.05056543 1.285811e-05 1.344117e-05)
(0.05057245 1.263938e-05 1.355763e-05)
(0.05057984 1.219505e-05 1.390337e-05)
(0.05024056 3.840193e-07 1.513415e-06)
(0.05024448 1.066633e-06 6.602475e-06)
(0.05025046 1.368727e-06 8.727355e-06)
(0.05025629 1.634179e-06 1.017119e-05)
(0.05026219 1.792044e-06 1.122299e-05)
(0.050268 1.910561e-06 1.205009e-05)
(0.05027384 1.990281e-06 1.272415e-05)
(0.05027974 2.042145e-06 1.326442e-05)
(0.0502857 2.071662e-06 1.368749e-05)
(0.05029171 2.086661e-06 1.403415e-05)
(0.0502978 2.095853e-06 1.432646e-05)
(0.05030395 2.099848e-06 1.456296e-05)
(0.05031016 2.104831e-06 1.477112e-05)
(0.05031645 2.111432e-06 1.495957e-05)
(0.05032282 2.118625e-06 1.510603e-05)
(0.05032924 2.123555e-06 1.521901e-05)
(0.05033572 2.131119e-06 1.532037e-05)
(0.05034225 2.142016e-06 1.542336e-05)
(0.05034886 2.157624e-06 1.552172e-05)
(0.05035552 2.17538e-06 1.561016e-05)
(0.05036225 2.193595e-06 1.56806e-05)
(0.05036904 2.210061e-06 1.574247e-05)
(0.05037588 2.22781e-06 1.579819e-05)
(0.05038277 2.247932e-06 1.585553e-05)
(0.05038972 2.268628e-06 1.590916e-05)
(0.05039673 2.290279e-06 1.595935e-05)
(0.05040378 2.311966e-06 1.601084e-05)
(0.05041089 2.33559e-06 1.606574e-05)
(0.05041806 2.358218e-06 1.611461e-05)
(0.05042528 2.381338e-06 1.615436e-05)
(0.05043254 2.403424e-06 1.619174e-05)
(0.05043985 2.427863e-06 1.624202e-05)
(0.05044721 2.454454e-06 1.629718e-05)
(0.05045463 2.481256e-06 1.634726e-05)
(0.05046209 2.506309e-06 1.639091e-05)
(0.05046961 2.5305e-06 1.643152e-05)
(0.05047718 2.551363e-06 1.64638e-05)
(0.05048478 2.569029e-06 1.649174e-05)
(0.05049243 2.588951e-06 1.652314e-05)
(0.05050013 2.610472e-06 1.655768e-05)
(0.05050787 2.632045e-06 1.659259e-05)
(0.05051566 2.653148e-06 1.662595e-05)
(0.05052349 2.670551e-06 1.665715e-05)
(0.05053137 2.68266e-06 1.668837e-05)
(0.0505393 2.687589e-06 1.671712e-05)
(0.05054727 2.674955e-06 1.672544e-05)
(0.05055526 2.629292e-06 1.670182e-05)
(0.05056325 2.519159e-06 1.677923e-05)
(0.05057116 2.371681e-06 1.698858e-05)
(0.05057855 2.241974e-06 1.751603e-05)
(0.05024055 -1.118839e-07 1.530668e-06)
(0.05024434 -5.320809e-07 6.242755e-06)
(0.05025009 -7.708113e-07 8.459757e-06)
(0.05025586 -8.624553e-07 1.01633e-05)
(0.05026179 -9.396785e-07 1.138099e-05)
(0.05026764 -1.050129e-06 1.228508e-05)
(0.05027351 -1.183178e-06 1.296366e-05)
(0.05027942 -1.334772e-06 1.348031e-05)
(0.05028538 -1.501384e-06 1.387205e-05)
(0.05029139 -1.665366e-06 1.417891e-05)
(0.05029746 -1.816728e-06 1.44281e-05)
(0.0503036 -1.956498e-06 1.46296e-05)
(0.0503098 -2.076577e-06 1.480038e-05)
(0.05031607 -2.174017e-06 1.495172e-05)
(0.05032242 -2.261031e-06 1.507134e-05)
(0.05032883 -2.344967e-06 1.517226e-05)
(0.0503353 -2.416848e-06 1.52598e-05)
(0.05034183 -2.471914e-06 1.534506e-05)
(0.05034842 -2.510775e-06 1.542705e-05)
(0.05035508 -2.538552e-06 1.549904e-05)
(0.0503618 -2.564707e-06 1.55639e-05)
(0.05036858 -2.588095e-06 1.562192e-05)
(0.05037541 -2.607262e-06 1.567569e-05)
(0.0503823 -2.619542e-06 1.572917e-05)
(0.05038925 -2.628022e-06 1.578137e-05)
(0.05039625 -2.633626e-06 1.583128e-05)
(0.0504033 -2.63532e-06 1.588073e-05)
(0.05041041 -2.630854e-06 1.593263e-05)
(0.05041757 -2.624795e-06 1.598215e-05)
(0.05042479 -2.620453e-06 1.602563e-05)
(0.05043205 -2.616874e-06 1.606879e-05)
(0.05043936 -2.604834e-06 1.611564e-05)
(0.05044672 -2.586166e-06 1.616802e-05)
(0.05045414 -2.566721e-06 1.621799e-05)
(0.0504616 -2.548072e-06 1.626195e-05)
(0.05046911 -2.530122e-06 1.63043e-05)
(0.05047667 -2.517665e-06 1.634321e-05)
(0.05048428 -2.511331e-06 1.637971e-05)
(0.05049193 -2.501935e-06 1.641636e-05)
(0.05049963 -2.490049e-06 1.645453e-05)
(0.05050737 -2.476351e-06 1.649579e-05)
(0.05051516 -2.458828e-06 1.653718e-05)
(0.05052298 -2.450644e-06 1.657891e-05)
(0.05053085 -2.447418e-06 1.661887e-05)
(0.05053876 -2.451631e-06 1.665995e-05)
(0.05054671 -2.476699e-06 1.669695e-05)
(0.05055465 -2.53918e-06 1.674048e-05)
(0.05056261 -2.632988e-06 1.695174e-05)
(0.05057055 -2.706049e-06 1.730246e-05)
(0.05057796 -2.715783e-06 1.784149e-05)
(0.0502407 -9.957137e-07 1.589576e-06)
(0.05024547 -3.02436e-06 6.479838e-06)
(0.05025128 -3.413497e-06 8.800101e-06)
(0.0502572 -4.117991e-06 1.040205e-05)
(0.0502632 -4.755508e-06 1.141586e-05)
(0.05026912 -5.405968e-06 1.209537e-05)
(0.05027503 -5.988754e-06 1.254859e-05)
(0.05028096 -6.507328e-06 1.287302e-05)
(0.05028693 -6.959395e-06 1.312792e-05)
(0.05029295 -7.348351e-06 1.333009e-05)
(0.05029904 -7.681416e-06 1.349189e-05)
(0.05030518 -7.961325e-06 1.363245e-05)
(0.0503114 -8.196313e-06 1.375089e-05)
(0.05031768 -8.389945e-06 1.384238e-05)
(0.05032402 -8.553656e-06 1.392441e-05)
(0.05033042 -8.694361e-06 1.401604e-05)
(0.05033689 -8.809568e-06 1.409823e-05)
(0.05034343 -8.902945e-06 1.41734e-05)
(0.05035003 -8.974128e-06 1.423309e-05)
(0.05035669 -9.030338e-06 1.428398e-05)
(0.05036341 -9.077884e-06 1.434156e-05)
(0.05037018 -9.116626e-06 1.440389e-05)
(0.05037702 -9.144123e-06 1.446359e-05)
(0.05038392 -9.164417e-06 1.451795e-05)
(0.05039086 -9.178221e-06 1.457229e-05)
(0.05039787 -9.186751e-06 1.462738e-05)
(0.05040493 -9.190622e-06 1.468283e-05)
(0.05041204 -9.188474e-06 1.473178e-05)
(0.05041921 -9.182533e-06 1.478055e-05)
(0.05042642 -9.176293e-06 1.483361e-05)
(0.05043369 -9.167691e-06 1.489378e-05)
(0.05044102 -9.152025e-06 1.494392e-05)
(0.05044838 -9.132473e-06 1.498784e-05)
(0.0504558 -9.110368e-06 1.503252e-05)
(0.05046327 -9.089356e-06 1.507819e-05)
(0.05047079 -9.067482e-06 1.511846e-05)
(0.05047831 -9.009186e-06 1.51606e-05)
(0.05048592 -9.003533e-06 1.52203e-05)
(0.05049358 -8.995354e-06 1.527035e-05)
(0.05050129 -9.001549e-06 1.532145e-05)
(0.0505091 -8.989175e-06 1.534505e-05)
(0.05051688 -8.95224e-06 1.53921e-05)
(0.0505247 -8.931689e-06 1.544809e-05)
(0.05053257 -8.91728e-06 1.550356e-05)
(0.05054048 -8.907737e-06 1.555845e-05)
(0.05054841 -8.903965e-06 1.563019e-05)
(0.05055634 -8.897563e-06 1.575962e-05)
(0.05056429 -8.857358e-06 1.603999e-05)
(0.0505724 -8.732406e-06 1.637325e-05)
(0.05057995 -8.402167e-06 1.690548e-05)
(0.05024122 -2.1155e-06 2.910227e-06)
(0.050251 -4.662635e-06 5.411615e-06)
(0.05025624 -4.101048e-06 6.26342e-06)
(0.05026244 -3.696627e-06 5.618728e-06)
(0.05026852 -3.254317e-06 4.712943e-06)
(0.05027454 -2.968931e-06 3.864184e-06)
(0.05028056 -2.776011e-06 3.145673e-06)
(0.05028657 -2.651525e-06 2.594852e-06)
(0.05029262 -2.575088e-06 2.184868e-06)
(0.05029871 -2.539248e-06 1.891158e-06)
(0.05030485 -2.531518e-06 1.703799e-06)
(0.05031105 -2.545218e-06 1.585352e-06)
(0.0503173 -2.576498e-06 1.534682e-06)
(0.05032361 -2.621693e-06 1.530326e-06)
(0.05032998 -2.674442e-06 1.564301e-06)
(0.0503364 -2.730487e-06 1.643915e-06)
(0.05034289 -2.795615e-06 1.743075e-06)
(0.05034944 -2.862461e-06 1.866046e-06)
(0.05035605 -2.934181e-06 1.996695e-06)
(0.0503627 -3.008787e-06 2.134372e-06)
(0.05036941 -3.080241e-06 2.293881e-06)
(0.05037619 -3.153298e-06 2.467398e-06)
(0.05038302 -3.227186e-06 2.63773e-06)
(0.0503899 -3.300701e-06 2.813708e-06)
(0.05039683 -3.373999e-06 2.992772e-06)
(0.05040382 -3.44593e-06 3.17476e-06)
(0.05041085 -3.520362e-06 3.362066e-06)
(0.05041794 -3.596611e-06 3.549884e-06)
(0.05042508 -3.668734e-06 3.735805e-06)
(0.05043226 -3.738949e-06 3.924536e-06)
(0.0504395 -3.809602e-06 4.119871e-06)
(0.05044679 -3.883058e-06 4.300917e-06)
(0.05045413 -3.951268e-06 4.487912e-06)
(0.0504615 -4.017696e-06 4.67313e-06)
(0.05046893 -4.087587e-06 4.857802e-06)
(0.0504764 -4.154241e-06 5.035304e-06)
(0.05048392 -4.238349e-06 5.235534e-06)
(0.0504915 -4.334936e-06 5.437402e-06)
(0.05049912 -4.398882e-06 5.587648e-06)
(0.0505067 -4.416975e-06 5.777692e-06)
(0.05051425 -4.447667e-06 6.00956e-06)
(0.05052195 -4.547103e-06 6.230807e-06)
(0.05052972 -4.637285e-06 6.423516e-06)
(0.05053753 -4.716204e-06 6.606683e-06)
(0.05054537 -4.790892e-06 6.789584e-06)
(0.05055324 -4.850101e-06 6.981296e-06)
(0.05056114 -4.880134e-06 7.205633e-06)
(0.05056912 -4.831015e-06 7.496061e-06)
(0.05057715 -4.64883e-06 7.829559e-06)
(0.05058509 -4.347833e-06 8.047367e-06)
(0.05024214 -2.995996e-06 5.496284e-06)
(0.05025599 -4.835343e-06 9.394301e-06)
(0.05026212 -9.312827e-06 1.257808e-05)
(0.05026857 -1.181987e-05 1.327063e-05)
(0.05027427 -1.357831e-05 1.349813e-05)
(0.05027985 -1.477615e-05 1.35387e-05)
(0.05028542 -1.562522e-05 1.355496e-05)
(0.05029099 -1.623357e-05 1.357968e-05)
(0.0502966 -1.66765e-05 1.361795e-05)
(0.05030225 -1.700018e-05 1.366756e-05)
(0.05030794 -1.723843e-05 1.372783e-05)
(0.05031368 -1.741847e-05 1.379272e-05)
(0.05031946 -1.755132e-05 1.386056e-05)
(0.05032529 -1.765397e-05 1.392977e-05)
(0.05033115 -1.77319e-05 1.399794e-05)
(0.05033707 -1.779095e-05 1.407409e-05)
(0.05034303 -1.78317e-05 1.414442e-05)
(0.05034904 -1.786071e-05 1.421019e-05)
(0.05035509 -1.789087e-05 1.427803e-05)
(0.05036119 -1.791398e-05 1.434248e-05)
(0.05036733 -1.792872e-05 1.440785e-05)
(0.05037353 -1.794063e-05 1.447878e-05)
(0.05037978 -1.794539e-05 1.453965e-05)
(0.05038607 -1.795142e-05 1.46022e-05)
(0.05039242 -1.795421e-05 1.466343e-05)
(0.05039883 -1.795554e-05 1.472394e-05)
(0.05040528 -1.795401e-05 1.478794e-05)
(0.05041181 -1.794588e-05 1.484669e-05)
(0.05041838 -1.794336e-05 1.490749e-05)
(0.05042501 -1.793985e-05 1.497094e-05)
(0.05043172 -1.792776e-05 1.503204e-05)
(0.05043848 -1.792348e-05 1.509603e-05)
(0.05044531 -1.790853e-05 1.514723e-05)
(0.0504522 -1.789556e-05 1.520181e-05)
(0.05045916 -1.788473e-05 1.526478e-05)
(0.05046617 -1.787521e-05 1.532731e-05)
(0.05047338 -1.783779e-05 1.539631e-05)
(0.05048069 -1.776347e-05 1.547437e-05)
(0.05048773 -1.776463e-05 1.551931e-05)
(0.05049519 -1.777421e-05 1.548375e-05)
(0.05050316 -1.77818e-05 1.550423e-05)
(0.05051095 -1.775242e-05 1.55926e-05)
(0.05051853 -1.772083e-05 1.566955e-05)
(0.05052617 -1.769258e-05 1.573824e-05)
(0.0505339 -1.766168e-05 1.580273e-05)
(0.0505417 -1.763367e-05 1.58729e-05)
(0.05054961 -1.758338e-05 1.594919e-05)
(0.05055768 -1.748728e-05 1.603615e-05)
(0.05056604 -1.739011e-05 1.61866e-05)
(0.05057486 -1.760632e-05 1.650286e-05)
(0.0502419 6.876077e-06 5.788128e-06)
(0.05025611 9.649455e-06 7.948382e-06)
(0.050262 1.244804e-05 9.297053e-06)
(0.05026819 1.450925e-05 9.123904e-06)
(0.0502739 1.611855e-05 8.819708e-06)
(0.0502796 1.743384e-05 8.535459e-06)
(0.05028538 1.847797e-05 8.320077e-06)
(0.05029122 1.929513e-05 8.179158e-06)
(0.05029712 1.993712e-05 8.102997e-06)
(0.05030309 2.044205e-05 8.076691e-06)
(0.05030912 2.083964e-05 8.08917e-06)
(0.05031521 2.115327e-05 8.129836e-06)
(0.05032137 2.140077e-05 8.191925e-06)
(0.05032758 2.159623e-05 8.269533e-06)
(0.05033385 2.17512e-05 8.356791e-06)
(0.05034019 2.18743e-05 8.450256e-06)
(0.05034657 2.197167e-05 8.548201e-06)
(0.05035301 2.2048e-05 8.649966e-06)
(0.05035951 2.210731e-05 8.754073e-06)
(0.05036606 2.215321e-05 8.858583e-06)
(0.05037267 2.218847e-05 8.962751e-06)
(0.05037933 2.221522e-05 9.065176e-06)
(0.05038604 2.223484e-05 9.166405e-06)
(0.05039281 2.224839e-05 9.266727e-06)
(0.05039962 2.225694e-05 9.365386e-06)
(0.05040649 2.226131e-05 9.462531e-06)
(0.05041342 2.226212e-05 9.557704e-06)
(0.05042039 2.225985e-05 9.651479e-06)
(0.05042741 2.225509e-05 9.743457e-06)
(0.05043449 2.224826e-05 9.833764e-06)
(0.05044161 2.223947e-05 9.92253e-06)
(0.05044879 2.222869e-05 1.001001e-05)
(0.05045602 2.221596e-05 1.009753e-05)
(0.0504633 2.220165e-05 1.01835e-05)
(0.05047063 2.218653e-05 1.026709e-05)
(0.05047802 2.217065e-05 1.034865e-05)
(0.05048545 2.215432e-05 1.042789e-05)
(0.05049294 2.213745e-05 1.050448e-05)
(0.05050047 2.211984e-05 1.057991e-05)
(0.05050806 2.21016e-05 1.065412e-05)
(0.0505157 2.208294e-05 1.072645e-05)
(0.05052339 2.206405e-05 1.079687e-05)
(0.05053114 2.204532e-05 1.086466e-05)
(0.05053893 2.202747e-05 1.092814e-05)
(0.05054678 2.201182e-05 1.09857e-05)
(0.05055469 2.200221e-05 1.103604e-05)
(0.05056266 2.198797e-05 1.105976e-05)
(0.05057074 2.197812e-05 1.10655e-05)
(0.05057921 2.199331e-05 1.103201e-05)
(0.05058856 2.172679e-05 1.075982e-05)
(0.05024067 1.658365e-06 1.635363e-06)
(0.0502463 5.246702e-06 5.194696e-06)
(0.05025208 6.321617e-06 6.246847e-06)
(0.05025789 7.096332e-06 6.979148e-06)
(0.05026365 7.331833e-06 7.176364e-06)
(0.05026942 7.464503e-06 7.279241e-06)
(0.05027525 7.524851e-06 7.315793e-06)
(0.05028114 7.569017e-06 7.342949e-06)
(0.0502871 7.618528e-06 7.37636e-06)
(0.05029313 7.67984e-06 7.422091e-06)
(0.05029923 7.751994e-06 7.482739e-06)
(0.0503054 7.833273e-06 7.554164e-06)
(0.05031163 7.920557e-06 7.635839e-06)
(0.05031793 8.011261e-06 7.72471e-06)
(0.0503243 8.105093e-06 7.81555e-06)
(0.05033073 8.200771e-06 7.906128e-06)
(0.05033722 8.296236e-06 7.996693e-06)
(0.05034378 8.389891e-06 8.088855e-06)
(0.05035039 8.481168e-06 8.181534e-06)
(0.05035706 8.570766e-06 8.272624e-06)
(0.05036379 8.658633e-06 8.361703e-06)
(0.05037058 8.745106e-06 8.446652e-06)
(0.05037742 8.829897e-06 8.529729e-06)
(0.05038432 8.912263e-06 8.611575e-06)
(0.05039128 8.992673e-06 8.691343e-06)
(0.05039828 9.071032e-06 8.769545e-06)
(0.05040535 9.147323e-06 8.845468e-06)
(0.05041246 9.221614e-06 8.920691e-06)
(0.05041962 9.294498e-06 8.993956e-06)
(0.05042684 9.366067e-06 9.065742e-06)
(0.05043411 9.436011e-06 9.136045e-06)
(0.05044142 9.503923e-06 9.205761e-06)
(0.05044879 9.569922e-06 9.276721e-06)
(0.0504562 9.634599e-06 9.346857e-06)
(0.05046367 9.697781e-06 9.414493e-06)
(0.05047118 9.760286e-06 9.479985e-06)
(0.05047874 9.822066e-06 9.543104e-06)
(0.05048635 9.883246e-06 9.602791e-06)
(0.050494 9.943427e-06 9.662345e-06)
(0.05050169 1.000253e-05 9.721261e-06)
(0.05050944 1.006093e-05 9.778697e-06)
(0.05051723 1.011857e-05 9.834821e-06)
(0.05052506 1.017557e-05 9.888888e-06)
(0.05053294 1.023212e-05 9.938741e-06)
(0.05054086 1.028873e-05 9.983252e-06)
(0.05054883 1.034627e-05 1.001803e-05)
(0.05055685 1.040153e-05 1.004022e-05)
(0.05056493 1.045013e-05 1.006495e-05)
(0.05057313 1.053131e-05 1.009307e-05)
(0.05058084 1.039614e-05 9.932681e-06)
(0.05024053 7.680197e-07 1.120921e-06)
(0.05024377 3.006407e-06 4.5425e-06)
(0.05024877 3.851013e-06 6.066058e-06)
(0.05025407 4.459622e-06 6.858091e-06)
(0.05025969 4.815712e-06 7.184299e-06)
(0.05026541 5.117884e-06 7.375339e-06)
(0.05027124 5.371212e-06 7.501575e-06)
(0.05027714 5.602182e-06 7.610202e-06)
(0.05028311 5.817257e-06 7.71381e-06)
(0.05028916 6.017773e-06 7.818624e-06)
(0.05029527 6.204162e-06 7.928599e-06)
(0.05030144 6.376457e-06 8.040531e-06)
(0.05030768 6.534824e-06 8.156413e-06)
(0.05031399 6.679128e-06 8.275369e-06)
(0.05032036 6.810847e-06 8.390286e-06)
(0.05032679 6.93174e-06 8.498913e-06)
(0.05033328 7.041815e-06 8.604608e-06)
(0.05033983 7.141342e-06 8.710633e-06)
(0.05034644 7.230932e-06 8.816907e-06)
(0.05035311 7.311668e-06 8.920214e-06)
(0.05035984 7.385508e-06 9.019178e-06)
(0.05036663 7.452845e-06 9.112458e-06)
(0.05037347 7.514617e-06 9.202203e-06)
(0.05038037 7.571365e-06 9.290433e-06)
(0.05038732 7.623181e-06 9.376088e-06)
(0.05039433 7.670924e-06 9.459531e-06)
(0.05040139 7.714578e-06 9.541076e-06)
(0.0504085 7.754479e-06 9.622459e-06)
(0.05041566 7.791566e-06 9.701051e-06)
(0.05042288 7.826701e-06 9.776826e-06)
(0.05043014 7.860076e-06 9.850556e-06)
(0.05043745 7.890706e-06 9.925273e-06)
(0.05044482 7.918716e-06 1.000177e-05)
(0.05045223 7.94486e-06 1.007736e-05)
(0.0504597 7.969451e-06 1.015012e-05)
(0.05046721 7.992529e-06 1.022013e-05)
(0.05047477 8.014445e-06 1.028624e-05)
(0.05048237 8.035007e-06 1.0348e-05)
(0.05049003 8.054932e-06 1.04094e-05)
(0.05049772 8.074624e-06 1.047046e-05)
(0.05050546 8.093423e-06 1.053026e-05)
(0.05051325 8.111358e-06 1.058859e-05)
(0.05052108 8.128103e-06 1.064497e-05)
(0.05052896 8.14271e-06 1.069803e-05)
(0.05053689 8.154529e-06 1.07468e-05)
(0.05054486 8.162733e-06 1.078561e-05)
(0.05055287 8.164625e-06 1.081437e-05)
(0.05056091 8.151246e-06 1.084046e-05)
(0.05056901 8.003687e-06 1.091786e-05)
(0.05057662 7.801139e-06 1.096671e-05)
(0.05024048 2.795548e-07 9.003699e-07)
(0.05024285 1.122028e-06 3.952078e-06)
(0.05024734 1.505394e-06 5.669399e-06)
(0.05025245 1.75295e-06 6.661749e-06)
(0.05025798 1.908805e-06 7.295607e-06)
(0.05026367 2.033248e-06 7.746504e-06)
(0.05026947 2.133881e-06 8.102914e-06)
(0.05027536 2.216859e-06 8.40054e-06)
(0.05028132 2.284466e-06 8.653363e-06)
(0.05028735 2.339392e-06 8.872276e-06)
(0.05029345 2.384637e-06 9.066177e-06)
(0.05029961 2.422234e-06 9.23766e-06)
(0.05030584 2.454519e-06 9.39306e-06)
(0.05031213 2.483081e-06 9.536025e-06)
(0.0503185 2.50804e-06 9.661979e-06)
(0.05032492 2.529651e-06 9.77142e-06)
(0.0503314 2.549525e-06 9.870863e-06)
(0.05033794 2.568844e-06 9.965872e-06)
(0.05034455 2.58828e-06 1.005727e-05)
(0.05035121 2.607206e-06 1.014293e-05)
(0.05035793 2.625238e-06 1.022082e-05)
(0.05036472 2.642088e-06 1.029187e-05)
(0.05037155 2.658382e-06 1.035806e-05)
(0.05037844 2.674909e-06 1.04218e-05)
(0.05038539 2.691222e-06 1.048306e-05)
(0.05039239 2.707438e-06 1.054193e-05)
(0.05039945 2.723495e-06 1.059955e-05)
(0.05040655 2.739684e-06 1.0657e-05)
(0.05041372 2.7556e-06 1.071206e-05)
(0.05042093 2.771376e-06 1.076362e-05)
(0.05042819 2.787084e-06 1.081322e-05)
(0.0504355 2.803247e-06 1.086504e-05)
(0.05044286 2.820039e-06 1.091918e-05)
(0.05045027 2.836769e-06 1.097237e-05)
(0.05045773 2.85276e-06 1.102268e-05)
(0.05046525 2.867441e-06 1.107081e-05)
(0.0504728 2.881012e-06 1.111507e-05)
(0.05048041 2.893327e-06 1.115536e-05)
(0.05048806 2.906262e-06 1.119494e-05)
(0.05049575 2.92033e-06 1.123473e-05)
(0.05050349 2.934897e-06 1.127383e-05)
(0.05051128 2.948418e-06 1.13115e-05)
(0.0505191 2.958954e-06 1.134824e-05)
(0.05052698 2.966134e-06 1.138378e-05)
(0.0505349 2.968599e-06 1.141798e-05)
(0.05054286 2.962406e-06 1.144642e-05)
(0.05055085 2.942912e-06 1.147748e-05)
(0.05055886 2.902522e-06 1.151822e-05)
(0.05056692 2.819549e-06 1.166332e-05)
(0.05057446 2.724628e-06 1.179232e-05)
(0.05024047 -8.917151e-08 8.790902e-07)
(0.05024269 -3.6299e-07 3.846153e-06)
(0.05024708 -5.150073e-07 5.518775e-06)
(0.05025216 -6.042592e-07 6.553006e-06)
(0.05025767 -6.469178e-07 7.252394e-06)
(0.05026336 -6.76847e-07 7.759521e-06)
(0.05026917 -7.072995e-07 8.156984e-06)
(0.05027506 -7.457099e-07 8.483057e-06)
(0.05028103 -7.94364e-07 8.756405e-06)
(0.05028706 -8.491385e-07 8.98783e-06)
(0.05029316 -9.055386e-07 9.187807e-06)
(0.05029932 -9.612783e-07 9.361982e-06)
(0.05030554 -1.01327e-06 9.516023e-06)
(0.05031183 -1.059614e-06 9.654259e-06)
(0.05031819 -1.102405e-06 9.77566e-06)
(0.05032461 -1.143082e-06 9.88276e-06)
(0.05033108 -1.179083e-06 9.978908e-06)
(0.05033762 -1.208579e-06 1.006842e-05)
(0.05034422 -1.231492e-06 1.015239e-05)
(0.05035088 -1.249817e-06 1.023024e-05)
(0.0503576 -1.265984e-06 1.030215e-05)
(0.05036438 -1.280342e-06 1.03683e-05)
(0.05037121 -1.292269e-06 1.04298e-05)
(0.0503781 -1.301235e-06 1.048819e-05)
(0.05038505 -1.30797e-06 1.054433e-05)
(0.05039205 -1.312942e-06 1.059829e-05)
(0.0503991 -1.316064e-06 1.06508e-05)
(0.05040621 -1.316976e-06 1.070244e-05)
(0.05041336 -1.316835e-06 1.075255e-05)
(0.05042058 -1.316491e-06 1.08002e-05)
(0.05042784 -1.315546e-06 1.084639e-05)
(0.05043515 -1.311941e-06 1.089277e-05)
(0.05044251 -1.305839e-06 1.094044e-05)
(0.05044992 -1.299206e-06 1.098765e-05)
(0.05045738 -1.29317e-06 1.103265e-05)
(0.05046489 -1.289032e-06 1.107384e-05)
(0.05047244 -1.284343e-06 1.111162e-05)
(0.05048004 -1.284937e-06 1.114842e-05)
(0.0504877 -1.284197e-06 1.118656e-05)
(0.05049539 -1.280704e-06 1.122505e-05)
(0.05050314 -1.273183e-06 1.12652e-05)
(0.05051092 -1.265219e-06 1.130399e-05)
(0.05051874 -1.263314e-06 1.134199e-05)
(0.05052661 -1.265664e-06 1.137974e-05)