/*--------------------------------*- C++ -*----------------------------------*\
| =========                 |                                                 |
| \\      /  F ield         | OpenFOAM: The Open Source CFD Toolbox           |
|  \\    /   O peration     | Version:  v1912                                 |
|   \\  /    A nd           | Website:  www.openfoam.com                      |
|    \\/     M anipulation  |                                                 |
\*---------------------------------------------------------------------------*/
FoamFile
{
    version     2.0;
    format      ascii;
    class       volScalarField;
    location    "0.79";
    object      p;
}
// * * * * * * * * * * * * * * * * * * * * * * * * * * * * * * * * * * * * * //

dimensions      [0 2 -2 0 0 0 0];


internalField   nonuniform List<scalar> 
12556
(
703.0385726
702.4566659
700.9326717
697.6061466
692.5234741
681.5308404
663.0346294
632.8436403
586.6539481
518.8428789
424.4203857
301.2946012
153.2499106
-8.763933146
-169.7885907
-315.7743662
-438.0853501
-534.3016486
-606.1643698
-657.1081726
-700.1110303
-719.8237715
-731.2512026
-736.5664355
703.4053756
703.0954311
702.1157962
699.8212033
694.778509
685.601895
669.4489037
645.1975338
604.2493925
542.2647483
452.998047
332.2262646
181.7797874
13.22735587
-157.0143183
-310.9916662
-438.4164424
-537.2542355
-617.444922
-665.4665224
-707.7711726
-725.1520731
-735.262879
-739.9462474
704.2381986
704.5353336
704.8311057
704.6150735
701.5599723
696.3113106
685.7514127
665.5440488
632.4536016
578.387185
491.8905126
362.6811378
192.5646018
4.571233045
-180.697197
-345.1751801
-475.742715
-570.5998161
-648.6946697
-689.1697566
-725.4511528
-737.8961735
-745.0618971
-748.2786418
705.0543966
706.2098483
708.3605767
711.0472886
711.1498397
711.6182871
709.4336103
697.8923825
678.6040481
637.4766881
555.4154807
412.4289213
203.6309741
-34.87897362
-250.2979593
-419.7606478
-546.5973833
-633.0857834
-697.9464451
-725.3628379
-751.2423865
-756.6653018
-759.3982019
-760.4602307
704.9913234
707.1234426
711.3913801
717.6404634
721.1316795
729.2322973
737.4886451
739.2515928
739.8160099
724.1967628
665.3455895
511.3036727
223.5115977
-124.2376298
-392.9147689
-564.2002673
-665.6322484
-723.2507776
-763.819825
-772.3634334
-781.3370213
-778.2491804
-775.5448072
-774.0018798
703.0825615
706.1852844
712.5068571
722.2793024
730.4571519
746.1341746
766.1325761
783.180718
812.9482688
846.2041577
855.4356137
741.3307522
290.5892699
-321.8401631
-662.045139
-792.8227639
-835.0521546
-842.8827801
-842.1125557
-824.8157653
-812.3792577
-799.5790587
-790.6954978
-786.3332249
698.4059156
702.3557608
710.4536839
723.3184211
736.105945
758.8103194
789.4503844
822.7635458
885.0924107
982.3233167
1126.688115
1286.944893
604.4006843
-872.8136482
-1124.574578
-1104.465571
-1044.507859
-979.4098479
-924.174938
-875.9121609
-840.3369086
-816.9275365
-801.9795804
-794.9352976
690.1665863
694.7349265
704.1229021
719.187091
736.1248379
763.9721067
802.2491581
848.9737771
935.7064556
1077.876453
1317.331474
1794.295693
-2421.264941
-1786.880665
-1451.185407
-1250.982402
-1107.647398
-993.4557306
-916.9995028
-858.0586438
-826.2047523
-806.4887974
-797.2296818
677.761395
682.6414037
692.6659456
708.8028057
728.8474419
759.3311217
801.1632628
854.9671229
949.8147183
1093.059438
1284.972957
1487.052191
-3836.702251
-2291.321236
-1700.235289
-1393.410151
-1192.54724
-1033.211865
-937.626599
-861.1608443
-823.9828006
-801.5873548
-790.9716703
660.8561218
665.7088838
675.6518352
691.625121
713.5423186
743.9802712
785.2484271
840.0685556
929.8523314
1051.810508
1184.203935
1287.485047
-3640.46228
-2318.819054
-1738.641257
-1420.248019
-1207.684793
-1031.843001
-931.3080984
-846.5952157
-808.5637391
-785.7685276
-774.8928884
639.4293206
643.9381906
653.1221073
667.7218921
690.3618838
718.3551305
755.7111674
806.9206115
885.0421053
984.302693
1085.393574
1170.503316
-2773.384864
-1981.938415
-1578.318109
-1329.322773
-1149.316019
-987.3567349
-897.1655202
-814.0827131
-779.6844736
-758.8116927
-748.7708355
613.7502401
617.6441362
625.5638136
637.5416668
660.4804305
683.7453192
714.7547292
759.1713524
822.4026515
901.2032581
987.0968864
1084.351964
-1839.169641
-1498.150426
-1301.826858
-1155.063019
-1033.85972
-908.4384031
-839.3873135
-766.1008885
-738.914322
-721.7737973
-713.4436241
584.360963
587.4512854
593.8415609
602.9772479
623.6552902
641.7594474
664.7496657
700.6405426
746.3003127
802.457357
870.0910191
976.0750383
-782.9573045
-963.2546009
-1018.669279
-993.3863542
-946.363595
-889.290981
-809.5438621
-765.3586556
-707.7728597
-689.2499522
-676.7306972
-670.6284302
551.9433687
554.1421396
558.8420209
565.2875336
582.7231166
595.2540908
609.7211893
635.5546807
661.61868
689.0710002
716.8133094
791.9486234
221.2073076
-414.862145
-637.5668943
-718.9363134
-745.260085
-740.4444746
-705.0176402
-683.7053019
-644.6448087
-634.0309396
-626.2604467
-622.5463794
517.2867465
518.5111025
521.2195287
524.7103575
538.9777989
545.1579671
551.307677
565.3446723
571.2731015
567.7244183
543.1729158
466.8058709
178.9725554
-182.841721
-395.880959
-511.3588938
-576.065411
-607.4239183
-604.3123493
-602.4942355
-579.8522201
-576.2006742
-572.9730695
-571.5014147
481.209453
481.5065288
482.2433949
482.8959669
493.934651
494.497139
493.212286
496.8340865
486.977791
462.1910203
408.3039671
298.0831019
132.1918917
-85.7166425
-252.5588594
-368.8477218
-447.520284
-496.8762365
-514.3289561
-526.0507413
-516.3857433
-518.4973016
-519.164747
-519.5762898
444.5353139
444.0320173
443.0486322
441.2327138
449.2094924
445.0111171
437.7181564
433.5170565
413.5277448
377.8428043
318.0369775
229.9532353
107.305041
-38.43529539
-167.2944569
-271.7302665
-352.2241777
-407.6262907
-436.3233832
-456.5782026
-456.6533829
-463.0415736
-466.7189418
-468.4884334
408.0222108
406.8652167
404.4770353
400.6684065
405.879438
398.0082329
386.2282596
376.4732809
351.1951433
312.8042614
256.7092229
184.382983
90.78391806
-15.85025744
-118.791823
-209.6020231
-282.8144473
-336.8480668
-370.4489605
-395.1642672
-401.90086
-411.1085342
-416.8452753
-419.5349376
372.2897117
370.6257235
367.1470858
361.8343502
364.7841779
354.3121647
339.5681698
326.2826453
298.2349644
260.0438364
209.8039818
148.1432486
76.3735525
-8.982848943
-93.13031035
-168.6734102
-231.5662323
-281.2432958
-315.7663643
-341.8410548
-352.5099358
-363.3157399
-370.2823491
-373.5832218
337.8177119
335.7925185
331.534462
325.1858623
326.3964775
314.2915379
297.8630735
282.7428867
254.0635631
217.1363207
171.6545469
118.6050239
59.06482066
-9.574842498
-77.11587004
-139.0759282
-192.67135
-236.941703
-270.241595
-295.8376946
-308.4904885
-319.9384028
-327.4854283
-331.0714303
304.9568912
302.7073668
297.9604958
290.9904036
290.9522318
278.0089503
260.81641
245.1751709
217.2279324
182.7214563
142.0278616
95.51909585
46.19438719
-10.04604482
-65.28775715
-116.6938287
-162.3200266
-201.2331145
-232.0391486
-256.2038395
-269.517383
-280.9231132
-288.568061
-292.2112084
273.9398103
271.5830986
266.5994733
259.3506111
258.492622
245.3213192
228.1479625
212.749252
186.3390873
154.7484732
118.6804591
78.41105924
36.54638117
-10.15307012
-56.03610242
-99.1084704
-138.0113735
-171.9555755
-199.789481
-222.0058162
-235.1081069
-246.0279173
-253.442976
-256.9838889
244.8908616
242.5205186
237.5056246
230.2605163
228.8884851
215.9663326
199.3645101
184.6847545
160.2411777
131.7148673
99.92837117
65.0711254
29.26508388
-9.963984617
-48.48726837
-84.85184967
-118.0903621
-147.5709106
-172.3417691
-192.3982099
-204.752101
-214.9214926
-221.8995073
-225.2359939
217.8440481
215.5317347
210.6416037
203.6161326
201.982717
189.6374419
173.9817034
160.2852131
138.0035683
112.5065044
84.5997837
54.42210256
23.67046099
-9.546234925
-42.13017699
-72.99579815
-101.4400174
-126.9681202
-148.78104
-166.6520754
-177.9576258
-187.2364855
-193.6569727
-196.7291381
192.765024
190.5638344
185.9112093
179.2592426
177.5601799
166.010331
151.5546736
138.9628875
118.8935919
96.2927459
71.87564437
45.76684314
19.30031893
-8.963197466
-36.65056101
-62.93366712
-87.29198339
-109.3409857
-128.3903146
-144.1540433
-154.2660505
-162.5985028
-168.4023936
-171.1803412
169.5704856
167.5181467
163.1813599
157.006845
155.3886234
144.7680434
131.6195221
120.2293255
102.3307237
82.44389666
61.16382437
38.61996608
15.83419374
-8.26850238
-31.84465906
-54.25234787
-75.10031832
-94.08981628
-110.6025243
-124.389457
-133.260777
-140.6453576
-145.8156434
-148.2901221
148.1406395
146.2624424
142.2932521
136.6620339
135.2365999
125.6190784
113.8164591
103.664899
87.85216849
70.48143695
52.02812278
32.63467558
13.04422555
-7.504754801
-27.57458432
-46.66154774
-64.46819104
-80.76215695
-94.96855024
-106.9303004
-114.5684695
-121.0362288
-125.5825532
-127.7575016
128.3299224
126.6414586
123.0713917
118.0212171
116.8720126
108.2888336
97.83447997
88.9115788
75.08202785
60.03460293
44.13997287
27.54388901
10.76561176
-6.704221868
-23.7414427
-39.94797739
-55.09618653
-69.00570484
-81.12215937
-91.41291411
-97.85647297
-103.4557546
-107.4031017
-109.2901166
109.9772361
108.4869995
105.332722
100.8808829
100.0722666
92.52596794
83.42200674
75.66901562
63.71581234
50.81308785
37.24619399
23.1515201
8.876064111
-5.890806625
-20.2714084
-33.95025154
-46.75316583
-58.54171301
-68.7632961
-77.52932913
-82.82939535
-87.61610604
-90.99705562
-92.61149848
92.9135466
91.62491237
88.89261535
85.04211977
84.62404985
78.09842851
70.31719719
63.68958439
53.50308082
42.58333971
31.14594992
19.30703592
7.282572922
-5.081713407
-17.10598199
-28.54064405
-39.25322764
-49.1406807
-57.64132731
-65.01435961
-69.22476077
-73.25561447
-76.10527106
-77.46391526
76.95979655
75.87373724
73.56358051
70.30548343
70.33329137
64.7943095
58.29264729
52.76159257
44.23482139
35.154346
25.67819713
15.8902157
5.912708937
-4.288874033
-14.19709212
-23.61555811
-32.4439475
-40.60048425
-47.54545658
-53.63749735
-56.8025478
-60.13307507
-62.4853912
-63.60401997
61.96022108
61.07384119
59.18249708
56.50516616
56.99966695
52.41751746
47.09045716
42.70727396
35.7314616
28.36536501
20.70934646
12.80391001
4.709672964
-3.520227169
-11.50391525
-19.08925278
-26.20260342
-32.7748272
-38.27366982
-43.19149945
-45.36596037
-48.04311666
-49.929415
-50.82408412
47.66442293
46.98297715
45.51263701
43.39444396
44.48379582
40.78835782
36.57763411
33.33026856
27.82964464
22.07578714
16.12444443
9.966735517
3.627217723
-2.780385546
-8.989462325
-14.88624363
-20.42291578
-25.56641383
-29.64527898
-33.49008951
-34.66052723
-36.73966515
-38.18257285
-38.85964275
34.18314328
33.68423638
32.6247838
31.10598124
32.39013566
29.7350248
26.6195739
24.47717065
20.38730999
16.16226628
11.8222599
7.30802475
2.626259299
-2.071392852
-6.619268828
-10.93711907
-14.99964092
-18.79190182
-21.55175564
-24.34111279
-24.75584772
-26.22730327
-27.25103674
-27.73781523
20.33334782
20.09789982
19.46743727
18.55138223
20.8250268
19.11344023
17.05193029
16.00773858
13.2801088
10.51328985
7.705984688
4.761190807
1.673444695
-1.392493459
-4.360021498
-7.177279797
-9.83729406
-12.34453676
-13.84679607
-15.68170615
-14.75825199
-15.6427714
-16.2462182
-16.47711243
10.33816471
10.09717123
9.762739927
9.21241338
9.49767311
8.63678688
7.658012989
7.793018751
6.405119703
5.02669712
3.666478302
2.251543258
0.7479083632
-0.7380905991
-2.177255221
-3.546447285
-4.849120416
-6.100202116
-6.311428617
-7.156934571
-7.4730308
-7.937065346
-8.231878246
-8.451025694
1526.373168
-4088.674452
-2548.471871
1305.595666
-3959.878427
-4160.196027
1182.477942
-3013.870769
-3866.963926
1095.487562
-2000.495373
-2883.982786
984.9241223
-838.3565138
-874.8113443
-1076.151672
-1878.687085
818.1369591
309.1086938
-792.2138214
173.841327
-427.2081292
-971.8368893
1778.408902
795.2720731
-2215.802998
-691.6142162
-5261.191859
-3119.869464
-3763.638852
-2433.163342
-1913.452671
1209.871999
1296.010857
1466.071082
-5597.027812
-5810.59683
-3718.084505
-2591.699578
-2533.750522
1109.554656
1172.465564
1277.920403
1237.796335
1263.672676
1328.483149
-4179.393085
-4936.963534
-2891.141567
-2250.46107
-2541.307183
1012.542149
1081.882668
1160.18141
1137.624716
1172.591099
1202.26286
-2790.376346
-3380.860613
902.4829174
975.9232262
1070.314
1041.526973
1100.643389
1137.887825
-1606.039045
-1549.49239
-2079.576519
757.4708025
810.7640927
959.9301979
915.1801077
994.1753174
1044.138574
534.0757128
285.6060966
320.3178483
1875.159296
1534.021397
2459.789623
1951.185095
-5812.063949
-5327.913508
-3655.858192
-5102.786393
-5659.076652
1336.341778
1390.470312
1368.229758
1390.512714
1339.561614
1507.545107
1399.698314
-4981.553852
-5569.129093
-4102.776607
-5443.920642
-4894.27775
-5660.277035
-5469.424756
-4126.627758
1207.727517
1254.995921
1222.664857
1259.69504
1209.096457
1335.436593
1264.517005
-3468.013962
-4124.427923
-3398.224957
-4024.616148
-3398.455016
-4850.462197
-4122.897687
-3522.798589
1140.63386
1171.13294
1127.246375
1174.16306
1144.61542
1206.241763
1175.349798
-2156.887059
-2708.876746
1047.799367
1098.010715
1034.335311
-1565.331185
1103.172014
1052.572356
1141.77009
1105.836793
-1605.046336
-1004.436675
-1474.766203
-1558.545081
1025.050316
991.8532238
903.8774888
-65.06035998
998.1597128
914.2965445
1048.924859
999.421172
-140.9466159
1305.653008
1499.948724
1694.89905
1713.512172
1925.335793
2325.049346
-6307.623238
-3690.678151
1393.165439
1400.520852
1515.248895
-3329.361163
-1953.034002
-1702.958842
-2123.280857
-1989.692837
-1927.622726
-2205.432617
-194.6085479
-498.1514281
-867.5986681
1541.939314
1859.157864
1666.064224
1558.962967
3312.894059
2614.410623
-2994.444823
-4949.114008
-3431.348573
-2250.810042
-2550.222108
-2373.803143
-2666.411288
-2130.764054
-3314.719192
-2745.291193
-2500.366157
-1177.544545
-340.6661062
-483.8420962
1301.891807
1878.024348
2453.70983
-2687.264017
-655.3479836
1063.779484
-6433.807905
-4623.909012
-6264.883363
-3553.489314
-6097.944312
-4300.710197
-5708.753665
-5725.65873
-4540.415006
-4591.777746
-2953.44737
-3266.733049
-3038.614649
-3243.991761
-2926.81023
-3635.640732
-3291.271379
-3122.967824
1117.887428
1090.914366
1073.493718
-1585.694052
-1842.51045
-1917.352969
1017.132429
981.7576021
957.3302302
1011.735615
989.4310213
1019.986802
1824.046106
1586.454286
1690.423107
1602.244777
1855.222932
1460.839614
1577.085294
1642.804112
2298.172128
2576.574189
3156.102729
1911.869801
2474.107578
2210.864774
2493.144884
1889.466455
-5701.433336
-5676.373791
1365.715812
1388.349411
1362.357758
1448.158264
1408.530424
1455.229276
1388.315422
1404.737614
1433.634474
-5261.967875
-5297.873832
-5203.352278
-4635.581087
-4761.676262
-4408.881512
-4584.681934
-5167.685306
-5603.318422
-4864.415799
-4838.683167
-4793.608221
-4856.505738
-5587.363599
1232.893992
1229.261817
1303.736827
1298.464803
-3737.905241
-3671.955431
-3786.090249
1161.258116
1158.978296
1188.689276
1186.651845
-2879.751189
-2572.371433
-2469.095678
-2592.720746
-2902.03099
1067.887762
1040.086828
1018.839748
1067.267781
1047.183828
1072.503372
-1225.691699
1076.444525
1071.35992
1123.631104
1121.781736
-1925.815118
-1225.019673
-1245.70921
-1500.603752
948.0933513
918.9030969
937.8162558
953.8901012
459.2848693
155.0789828
1025.966834
-330.4119713
109.7928941
-247.009878
1023.768585
-392.8215324
-277.868616
77.40169498
-4414.121394
-2126.794738
-2271.345414
584.6513152
553.2360498
777.1049386
669.1901091
683.3749711
955.2404336
192.3336889
-136.9954964
-317.1404096
4274.02354
-2304.704404
-2460.849818
-917.3318254
-1161.665283
-1178.353052
-153.2298999
-394.6819963
-122.6698332
2108.504922
2622.107921
3308.996979
-3141.899813
-600.6242177
1422.376497
-5654.086836
-6289.207682
-6219.200163
-5786.279663
-4333.026843
-4522.737179
-4336.534275
-5194.553191
-5042.216207
-4795.780955
1184.720395
1169.139604
1155.282103
1190.145583
1174.088217
1187.086429
1112.438086
1096.394214
1120.029352
1002.990213
986.6665282
975.1481339
857.7500391
605.3902202
346.0964644
-5780.455524
-6258.632683
-6316.652635
-5512.541208
-4588.157057
-4272.372492
-4811.335641
-4662.631654
-5531.282175
-5108.833131
-5379.582468
-5246.009251
-5465.327436
1225.427173
1214.570656
1195.913031
1214.363977
1220.958352
1217.065879
-4278.509822
-4113.367308
-3976.603185
-3745.749732
-3507.658391
-3741.988566
-4521.985143
-4129.369162
-4343.058052
-3820.591753
-4053.906555
-4472.715548
1155.739672
1132.431532
1117.632181
1150.826531
1137.191333
1157.988717
1169.984429
1182.882896
1183.374297
1156.315754
1169.821639
1152.255111
1198.211136
1202.333726
1211.64494
1183.140449
1184.48118
1179.337355
-2390.580549
-2530.131496
-2243.18529
-1422.558901
-1420.105731
1093.963097
1052.870993
1132.90934
1140.122839
1154.098997
1130.996162
1112.571877
-1736.106715
832.3053009
909.7646329
873.7933519
970.9515753
955.7664025
978.2527626
121.6990455
365.7443952
129.0968468
987.7385513
428.9427972
673.6092711
494.7267517
609.8624045
1034.219807
1009.874671
-5636.585223
-4306.81281
-5282.746386
-3456.200744
-3513.547819
-1949.999343
-2082.396303
-2099.730743
1511.290401
1495.394942
3106.39593
3506.442668
3965.063113
3299.818511
2993.017557
-2623.548052
-2466.504005
-2419.291027
-2474.36655
-2642.987932
-1192.272519
-1023.041132
-1030.545702
-1027.709339
-1196.330745
-814.8400701
-980.1959746
-587.7728122
-606.7645691
-766.3346597
-398.8806666
-554.4457651
-490.7927603
-6580.473845
-5769.735039
-5299.1761
-6155.247828
-5888.918693
-5111.960106
-4415.322956
-5278.672303
-6064.193003
-5994.136244
-5666.473561
-5773.547651
-6186.049804
-6093.527882
-4751.254966
-4581.361912
-4385.668345
-4636.493626
-4818.628614
-4392.669015
-4581.950138
-4869.305452
-4745.833201
-4991.760226
-4805.850947
-3088.257583
-3143.839303
-3112.702666
-3028.944472
-3159.10566
-3489.644767
-3385.639228
-3524.500595
-3202.770678
-3339.68721
-3438.280846
-1794.824682
-1768.043268
-1903.002875
1001.117195
990.6739828
1002.915794
1026.900793
1014.754641
1005.077846
1698.036908
1666.766431
1686.891831
1738.431048
1649.12735
1896.801672
1773.231236
1721.243613
1505.627459
1543.725085
1499.279486
1624.070899
1561.273192
1522.410461
2112.516352
2110.314199
1944.180547
2186.21845
2097.174468
-6258.120818
-6248.483312
-5764.5369
-6392.249309
-6432.797079
-6372.526696
-6330.849849
-6231.236171
-6451.684729
-6343.581687
-5560.843328
-6140.703302
-6253.53656
1373.39044
1376.605763
1369.778688
1390.105977
1379.988785
1378.466383
1362.211922
1356.212777
1369.01979
1363.839716
1424.045452
1449.54772
1428.890799
1487.633334
1457.85347
1429.721627
1397.299663
1404.946313
1393.332543
1423.198874
1409.264639
1401.665942
-5539.207242
-5421.402789
-5148.972127
-5421.371529
-5706.702331
-5570.103613
1246.807245
1236.876696
1263.909044
1249.304956
1221.867574
1216.417425
1232.726777
1223.457979
1332.381268
1314.96862
1353.091741
1338.063956
1285.07654
1267.946044
1309.079704
1291.290053
-3754.711386
-3901.82081
-3571.339819
-3709.52219
-3807.035849
-4162.056984
-4330.354527
-3950.818962
-4110.410087
1170.608759
1180.697967
1168.107307
1185.978492
1172.887351
1186.103288
1188.689242
1171.040386
1153.570811
1169.106611
1168.272031
1194.523829
1199.379117
1195.459695
1202.224322
1197.117235
1213.6131
1204.317141
1185.102812
1185.010412
1191.865891
1185.95898
1180.934461
1185.563801
1191.667945
-2653.318357
-2726.527273
-2791.707617
-2641.010229
-2838.812269
-2768.486827
-1207.390214
-1375.009789
-1407.775753
-1206.579704
1090.831415
1058.434926
1132.325
1136.914846
1130.184045
1115.320597
1134.264757
1132.387598
-1813.080716
970.1475079
949.6789203
935.3467337
628.9696629
530.0747648
981.9481904
239.9216502
401.7316394
292.1951914
1029.103398
-483.6923019
-46.85350172
182.0366532
-93.20393787
1002.249816
-2147.518856
-1695.770123
-1108.207629
-2259.618694
-2311.697222
-1092.686343
-1142.760597
-1558.594569
-2322.401837
-983.7588306
-977.0066837
-818.5764221
-2055.750968
-1569.269863
-1520.577655
2657.425871
3393.300109
4179.03301
-3268.91904
-483.7001955
1885.905261
-1369.239141
-955.9234635
-2632.66392
-4968.855105
-5616.983147
-5895.530757
1291.95247
1276.27571
1251.280137
1310.639312
1284.859953
1301.5598
-1588.2309
-1722.613677
-1738.583104
-2158.923297
-1907.235785
-1848.88621
1029.088211
1018.809066
1031.215619
-5973.06826
-6109.037984
-5523.256412
1243.346361
1221.330259
1232.126729
1247.465768
1249.530744
1263.298543
1267.627122
1283.653364
1278.454624
1052.278967
1041.88492
1032.900152
-1579.244994
-1534.80068
-1522.683192
1057.243409
1062.22144
1055.339608
-1670.329299
-1683.10359
-1593.350647
-1417.094201
-1404.864988
-1541.964479
996.2309201
1045.482005
1051.824934
1053.964762
998.8796776
-6179.650857
-3364.734114
-1970.867723
-2033.817965
-2041.678891
-2252.790101
-2115.615299
-2077.941478
1536.528297
-4132.794183
-3606.475538
-4298.097787
-2377.261455
-2433.816698
-2294.317787
-819.1501218
-835.0435137
-662.3260693
-666.7362639
-762.3584325
-1571.662976
-975.3039759
-3094.175174
-6420.613249
-6108.296875
-5950.438471
-6578.290524
-6539.117999
-2998.016274
-3028.427922
-2982.063193
-3283.079359
-3273.315805
-3245.27105
-2854.071011
-2983.372947
-3062.205816
-3600.121766
-3550.796452
-3597.714681
-1908.726671
-1885.567041
-1918.297656
1772.451927
1821.836247
1613.442479
1628.721422
1647.495747
1620.672941
1468.482928
1486.024971
1474.998862
1595.807859
1573.520753
1555.228109
2372.666404
2177.993666
2194.276312
2383.277829
2367.580778
2511.277949
1874.363866
1929.065559
1949.936421
1367.535824
1367.974934
1373.005022
1388.291097
1385.938388
1386.498827
1368.833892
1368.567297
1373.675513
1371.097668
1414.725852
1421.135927
1415.554417
1465.816671
1456.695691
1447.438347
1388.656101
1391.630423
1389.763313
1411.116022
1408.427031
1404.178495
1235.953532
1246.178635
1243.320644
1220.109236
1223.139925
1232.283608
1312.160156
1328.658856
1318.009303
1326.480078
1320.059387
1367.003257
1361.742418
1272.653205
1313.696803
1307.392742
1283.763025
1289.447244
1306.526431
-3916.929816
-3974.156371
-3643.251927
-3695.680961
-3721.824091
-4029.010545
-4053.38734
-3925.538213
-4061.934766
-3909.189271
1056.146621
1045.660493
1055.688973
1085.354001
1070.840217
1060.344213
1080.091904
1086.684338
1081.822207
1066.786041
1070.063056
1074.489791
-1923.630505
934.0626681
937.4585381
934.8326429
702.3426051
944.1585065
334.8705261
471.1122019
598.1535032
1031.63755
1030.407132
1026.582916
-393.6242941
-240.0376555
-215.7604761
-230.0070615
1019.671246
1026.111417
1030.310368
-125.9892899
-200.3726625
-346.6874795
-2163.302841
-2203.914146
-2296.254171
-2250.716929
-2229.018073
4220.036936
4681.158473
3981.776377
-2355.921967
-2381.601123
-2310.199303
-2479.137487
-2428.467314
-2414.870553
-1774.019452
-932.3846817
-3201.990115
-5900.497305
-5899.878251
-5850.453451
-5880.967949
-6263.94833
-6118.089467
-6136.671386
-6078.854805
-6099.821903
-6243.506132
-5147.79887
-5068.662042
-5116.52853
-4965.185313
-5019.474606
-5098.665452
-6308.067008
-6136.301252
-6109.822225
-6151.56064
-6153.071745
-6330.423955
-5333.14326
-5251.807969
-5295.056787
-5163.920371
-5208.643923
-5290.84474
-5797.73376
-5823.934737
-5711.146597
-5757.352583
1183.636762
1179.183194
1177.985629
1159.003861
1155.83183
1152.747682
1162.410104
1159.672847
1163.969857
-1539.158883
-1588.956085
-1415.95613
-1489.455206
1105.235302
1105.150498
1109.897856
1106.109643
1054.365991
1054.405069
1061.607195
1050.657189
1144.728771
1142.393908
1138.558396
1149.983962
1146.52357
1150.079729
1117.135827
1115.943105
1124.052986
1109.663009
1115.932893
-1744.532626
-1735.198195
-1722.971799
-1595.207446
927.6229683
981.2709591
1129.545411
984.1480955
975.4683481
969.3602977
993.2086066
369.004045
350.6028476
1105.825052
979.5567982
734.7913714
1035.22384
1045.268832
1040.586839
1004.18584
-5874.421427
-6180.872954
-5947.591399
-5114.130729
-4866.533647
-4073.048713
-5652.056201
-5316.410091
-3405.880233
-3544.832346
-2094.678608
-2081.544161
-2092.629955
1522.682237
1474.109609
3708.757931
3543.953157
3391.367762
2790.454754
2646.273355
3200.242579
2971.965566
3074.424119
-2543.581876
-2486.938846
-2590.355294
-1044.775189
-1041.797042
-1029.881842
-1140.734473
-853.1803664
-836.0866885
-820.9323954
-971.850768
-916.8753682
-913.3356839
-591.8089289
-646.2311842
-646.0343311
-469.5511845
-473.4470194
-521.2136926
-6367.794199
-6245.748152
-6503.351553
-6071.627439
-6330.780906
-6402.880118
-6514.806772
-6477.115575
-6031.658542
-5930.799011
-5952.874198
-5906.741135
-5914.635894
-6005.200261
-6151.442156
-6027.695035
-6054.223438
-5977.16556
-6001.82955
-6121.93872
-4697.917028
-4624.793506
-4677.898835
-4695.290507
-4761.026429
-4448.922358
-4475.347095
-4435.642034
-4525.896334
-4925.459223
-4969.051894
-4930.548988
-4846.848362
-4907.226105
-4732.236478
-4789.277739
-4866.965549
-3124.560986
-3049.86589
-3035.86346
-3063.30251
-2997.314715
-3048.477154
-3200.274183
-3228.116086
-3173.183902
-3452.353697
-3497.073416
-3526.738548
1732.626693
1638.6615
1518.775969
1500.394374
1483.03095
1537.816073
1554.073256
1536.352733
2160.190806
2251.177037
2283.288518
2517.631273
2394.47106
2018.105908
1995.73172
2074.513088
-6258.610137
-6070.993539
-6063.102323
-6087.428424
-6076.653061
-6253.366107
-6417.893307
-6425.10744
-6316.847435
-6536.1085
-6515.421487
-6490.562613
-6528.02094
-6289.305956
-6443.063397
-6522.29647
-6545.662587
-6384.558535
1374.825438
1372.406459
1370.74097
1383.09589
1382.647026
1378.825222
1368.565813
1368.639603
1369.23205
1368.677984
1432.277807
1426.63344
1419.799622
1437.957111
1447.408262
1439.048753
1399.310392
1394.997521
1391.924928
1403.787297
1406.199285
1403.243757
-5503.973409
-5415.893256
-5451.114015
-5336.165154
-5376.457758
-5461.39993
-5655.097941
-5576.502767
-5652.905548
-5484.420378
-5522.680438
-5607.756895
1244.10185
1245.173196
1246.871993
1237.807169
1242.165859
1240.779691
1258.146673
1255.897592
1263.939316
1247.798272
1250.112271
1252.844176
1220.407928
1221.915518
1222.495379
1218.838452
1220.78069
1218.647077
1228.861967
1228.443231
1232.823757
1223.161982
1225.052753
1225.736042
1339.466439
1333.040915
1326.674434
1330.054954
1336.056928
1317.7284
1323.898326
1320.852347
1353.525749
1345.904749
1288.998985
1283.544107
1278.995462
1281.290384
1287.007356
1268.822288
1268.496219
1271.556612
1303.18208
1305.487275
1311.595963
1293.375004
1299.423868
1297.265076
1301.281888
1295.239511
-3838.48187
-3871.134153
-3779.370888
-3748.058374
-3784.054567
-4212.25903
-4244.462354
-4199.355893
-4369.7695
-4301.129542
-4267.747869
-3997.483348
-4033.534767
-3995.676004
-4151.807378
-4102.830501
-4054.538099
1173.376837
1170.261255
1167.51372
1176.01605
1173.27292
1177.095796
1180.679657
1175.813464
1187.433383
1188.473098
1170.677287
1162.767817
1158.713161
1159.279914
1161.304055
1164.861833
1162.892047
1167.546224
1192.136567
1195.406679
1204.619605
1198.214669
1210.436531
1212.156506
1215.748577
1206.53875
1209.152577
1207.429772
1184.48936
1184.416836
1188.318639
1186.840392
-2742.795103
-2724.089574
-2777.884932
-2628.545967
-2674.878943
-2708.074282
-2903.117056
-2943.800619
-2820.804896
-2835.751217
-2846.818366
-1346.006741
-1346.097606
-1400.109197
-1218.167319
-1278.03121
-1287.822185
1091.287108
1082.742234
1104.059501
1099.486585
1063.007371
1065.71089
1062.240906
1068.129136
1065.529621
1076.412321
1072.069981
1133.2186
1131.508504
1130.191801
1135.554708
1133.273719
1134.732798
1134.421099
1128.410775
1126.619268
1129.374683
1128.928227
1133.340969
-1868.804093
961.4252821
952.9639616
961.4025919
583.1797396
604.9462882
672.5458744
539.9895515
548.7407012
527.997494
975.6749844
337.827113
283.7179914
214.9079681
1027.017056
1028.327868
1028.670756
-460.7696675
46.04408974
-14.76459646
162.892251
148.3286409
162.5281699
-35.22563599
-168.5876384
-150.3709398
-48.29061256
1012.669715
1022.853513
1016.27767
659.1584386
634.2639922
616.7657654
623.5388981
583.6207931
560.7311039
566.8361075
505.3817077
478.8087525
479.9274445
389.5187942
365.7574663
353.7908259
234.0688101
221.4065722
190.0228021
55.95031364
54.76313057
9.201618507
-127.3584091
-116.5196576
-171.8197893
-295.8187858
-275.0734996
-333.9847096
-434.0553343
-409.0880869
-463.4741733
-538.1044393
-514.5411207
688.8211985
672.8365855
642.4405081
665.539161
634.7373519
594.4780898
620.5166022
562.1500647
517.4057435
536.3718905
437.5213752
399.3995965
397.0323706
254.3192445
238.0589799
201.0182611
34.25848651
52.5968942
-21.29043966
-178.8891051
-135.6763094
-227.225994
-357.1680068
-306.5266773
-395.5136034
-496.232579
-446.5317986
-524.9524198
-595.8782767
-549.7568865
728.4670484
725.4791733
684.8436699
723.0979574
708.1347672
650.765221
699.3700215
654.8379561
580.9779337
631.7620394
527.4258009
454.6280936
478.7952188
291.4076131
261.4274758
216.7281323
-20.05634826
24.3618456
-95.43326424
-293.4047698
-200.4734506
-348.4245513
-482.9582402
-381.7319999
-519.6605275
-608.3298788
-518.3064414
-631.3004675
-684.5750316
-615.3188321
772.3120487
788.5476763
740.5882465
794.1360228
809.451226
730.7047307
812.9658916
808.2253111
686.5507772
798.5867763
717.1741138
562.0954504
663.5446605
389.6096099
305.0251036
263.5572167
-136.9274853
-41.13014931
-254.9140706
-518.025108
-336.145389
-578.9385447
-702.7994397
-528.2260141
-728.094953
-777.8174626
-645.4902258
-788.1849913
-807.322209
-711.958941
813.7446603
852.3885954
804.8767497
868.3236653
926.4005921
838.3312302
949.5731077
1028.868358
858.3184982
1056.663062
1116.299418
792.5916153
1109.435919
709.3588554
439.8000642
554.0108382
-472.9731537
-187.4517278
-667.3905824
-953.9849567
-601.3649746
-988.132253
-1020.739752
-772.3283757
-1018.599611
-999.9543994
-828.9182883
-990.3537353
-957.145648
-843.0043838
844.1977919
901.7822889
866.6094458
926.2965341
1020.794588
954.0661585
1061.03493
1220.397327
1085.871256
1291.576736
1680.368791
1256.860485
1517.512335
1639.573955
1204.742175
828.3924923
-400.7984939
-47.24232126
-1226.46505
-1252.44213
-1001.8771
-1615.202685
-1419.437754
-1115.804378
-1367.468051
-1238.706713
-1060.734847
-1202.428024
-1106.687104
-995.7104103
855.4752323
921.9474526
909.7959206
949.8180751
1053.83824
1035.50639
1096.113916