/*--------------------------------*- C++ -*----------------------------------*\
| =========                 |                                                 |
| \\      /  F ield         | OpenFOAM: The Open Source CFD Toolbox           |
|  \\    /   O peration     | Version:  v1912                                 |
|   \\  /    A nd           | Website:  www.openfoam.com                      |
|    \\/     M anipulation  |                                                 |
\*---------------------------------------------------------------------------*/
FoamFile
{
    version     2.0;
    format      ascii;
    class       pointVectorField;
    location    "0.79";
    object      pointDisplacement;
}
// * * * * * * * * * * * * * * * * * * * * * * * * * * * * * * * * * * * * * //

dimensions      [0 1 0 0 0 0 0];


internalField   nonuniform List<vector> 
26316
(
(0 0 0)
(0 0 0)
(0 0 0)
(0 0 0)
(0 0 0)
(0 0 0)
(0 0 0)
(0 0 0)
(0 0 0)
(0 0 0)
(0 0 0)
(0 0 0)
(0 0 0)
(0 0 0)
(0 0 0)
(0 0 0)
(0 0 0)
(0 0 0)
(0 0 0)
(0 0 0)
(0 0 0)
(0 0 0)
(0 0 0)
(0 0 0)
(0 0 0)
(0 0 0)
(0 0 0)
(0 0 0)
(0 0 0)
(0 0 0)
(0 0 0)
(0 0 0)
(0 0 0)
(0 0 0)
(0 0 0)
(0 0 0)
(0 0 0)
(0 0 0)
(0 0 0)
(0 0 0)
(0 0 0)
(0 0 0)
(0 0 0)
(0 0 0)
(0 0 0)
(0 0 0)
(0 0 0)
(0 0 0)
(0 0 0)
(0 0 0)
(0 0 0)
(0 0 0)
(0 0 0)
(0 0 0)
(0 0 0)
(0 0 0)
(0 0 0)
(0 0 0)
(0 0 0)
(0 0 0)
(0 0 0)
(0 0 0)
(0 0 0)
(0 0 0)
(0 0 0)
(0 0 0)
(0 0 0)
(0 0 0)
(0 0 0)
(0 0 0)
(0 0 0)
(0 0 0)
(0 0 0)
(0 0 0)
(0 0 0)
(0 0 0)
(0 0 0)
(0 0 0)
(0 0 0)
(0 0 0)
(0 0 0)
(0 0 0)
(0 0 0)
(0 0 0)
(0 0 0)
(0 0 0)
(0 0 0)
(0 0 0)
(0 0 0)
(0 0 0)
(0 0 0)
(0 0 0)
(0 0 0)
(0 0 0)
(0 0 0)
(0 0 0)
(0 0 0)
(0 0 0)
(0 0 0)
(0 0 0)
(0 0 0)
(0 0 0)
(0 0 0)
(0 0 0)
(0 0 0)
(0 0 0)
(0 0 0)
(0 0 0)
(0 0 0)
(0 0 0)
(0 0 0)
(0 0 0)
(0 0 0)
(0 0 0)
(0 0 0)
(0 0 0)
(0 0 0)
(0 0 0)
(0 0 0)
(-1.221716353e-07 8.129323113e-06 2.775557562e-17)
(0 0 0)
(0 0 0)
(-6.763424354e-08 9.106134495e-05 3.330669074e-16)
(3.110676149e-07 7.740751856e-05 2.91433544e-16)
(0 0 0)
(0 0 0)
(0 0 0)
(0 0 0)
(0 0 0)
(0 0 0)
(0 0 0)
(0 0 0)
(0 0 0)
(0 0 0)
(0 0 0)
(0 0 0)
(0 0 0)
(0 0 0)
(0 0 0)
(0 0 0)
(0 0 0)
(0 0 0)
(0 0 0)
(0 0 0)
(0 0 0)
(0 0 0)
(0 0 0)
(0 0 0)
(0 0 0)
(0 0 0)
(0 0 0)
(0 0 0)
(0 0 0)
(0 0 0)
(0 0 0)
(0 0 0)
(0 0 0)
(0 0 0)
(0 0 0)
(0 0 0)
(0 0 0)
(0 0 0)
(0 0 0)
(0 0 0)
(0 0 0)
(0 0 0)
(0 0 0)
(0 0 0)
(0 0 0)
(0 0 0)
(0 0 0)
(0 0 0)
(0 0 0)
(0 0 0)
(0 0 0)
(0 0 0)
(0 0 0)
(0 0 0)
(0 0 0)
(0 0 0)
(0 0 0)
(0 0 0)
(0 0 0)
(0 0 0)
(0 0 0)
(-7.611425059e-06 0.000129136204 4.996003611e-16)
(-4.3812335e-05 0.0008100019798 3.080868893e-15)
(-5.727730861e-07 1.063692543e-05 2.775557562e-17)
(-8.323737081e-05 0.002114942455 8.007483565e-15)
(-0.0002069301236 0.005236169414 1.99146255e-14)
(-0.0002458232682 0.00709225647 2.69784195e-14)
(-0.000114469085 0.003315673399 1.254552018e-14)
(-0.0001398975661 0.006986636804 2.645106356e-14)
(-0.0002461277834 0.01225285753 4.660161146e-14)
(-0.0002062335022 0.0135392228 5.148659277e-14)
(-0.0001207914727 0.007950975635 3.010092176e-14)
(-6.565912536e-06 0.009299573337 3.520794767e-14)
(-1.038808432e-05 0.01530623081 5.820344207e-14)
(6.29728888e-05 0.01510930871 5.745404152e-14)
(3.767688478e-05 0.009147436031 3.462508058e-14)
(0.0001303210944 0.007012409457 2.654820808e-14)
(0.0002297505173 0.01228923746 4.674038934e-14)
(0.0002527023413 0.01073770373 4.082845173e-14)
(0.0001373824244 0.005870178568 2.221833828e-14)
(8.109276798e-05 0.002141913242 8.10462808e-15)
(0.0002009522223 0.005281718164 2.009503675e-14)
(0.0001513296855 0.003528771374 1.341982081e-14)
(4.739979238e-05 0.00111058583 4.204969706e-15)
(0 0 0)
(7.984087338e-06 0.0001390712683 5.273559367e-16)
(0 0 0)
(0 0 0)
(0 0 0)
(0 0 0)
(0 0 0)
(0 0 0)
(0 0 0)
(0 0 0)
(0 0 0)
(0 0 0)
(0 0 0)
(0 0 0)
(0 0 0)
(0 0 0)
(0 0 0)
(0 0 0)
(0 0 0)
(0 0 0)
(0 0 0)
(0 0 0)
(0 0 0)
(0 0 0)
(0 0 0)
(0 0 0)
(0 0 0)
(0 0 0)
(0 0 0)
(0 0 0)
(0 0 0)
(0 0 0)
(0 0 0)
(0 0 0)
(0 0 0)
(0 0 0)
(0 0 0)
(0 0 0)
(0 0 0)
(0 0 0)
(0 0 0)
(0 0 0)
(0 0 0)
(0 0 0)
(0 0 0)
(0 0 0)
(0 0 0)
(0 0 0)
(-2.125778633e-05 0.0002664315278 1.040834086e-15)
(-0.0001161478813 0.001551894738 6.009082121e-15)
(-2.750795866e-05 0.0003692199023 1.415534356e-15)
(-0.0003929573427 0.0065794794 2.535471832e-14)
(-0.000628888795 0.01048442825 4.060640713e-14)
(-0.0008031165508 0.01459562108 5.653810753e-14)
(-0.0005406732406 0.009867690713 3.803901638e-14)
(-0.0008440091203 0.02110621914 8.136546992e-14)
(-0.001118294569 0.02785645917 1.078859224e-13)
(-0.001127567369 0.03204524769 1.240951786e-13)
(-0.0008690722136 0.02479180106 9.557632463e-14)
(-0.0006874909515 0.03392673309 1.307842723e-13)
(-0.0008574595832 0.04218736991 1.633831959e-13)
(-0.0006840350419 0.04448493329 1.722788578e-13)
(-0.0005527357267 0.03603500502 1.38916656e-13)
(-2.257648399e-05 0.03884579062 1.497552082e-13)
(-2.617730329e-05 0.04752299383 1.840472219e-13)
(0.0002069228793 0.04719396209 1.827843432e-13)
(0.0001669367459 0.03853945786 1.485755963e-13)
(0.0006476586553 0.03399432564 1.310618281e-13)
(0.0008102740225 0.04226354895 1.636885072e-13)
(0.0009492294145 0.03939524446 1.525862769e-13)
(0.0007516619532 0.0313806854 1.209726763e-13)
(0.0008197663902 0.02121284553 8.178180355e-14)
(0.001087138185 0.02798231774 1.08371645e-13)
(0.00103201865 0.02358019092 9.132972156e-14)
(0.0007575443792 0.01739891045 6.708522626e-14)
(0.0003880382047 0.006664046427 2.570166302e-14)
(0.0006200335091 0.01059631469 4.105049634e-14)
(0.0004387488086 0.006916671577 2.678413047e-14)
(0.0002437571481 0.003861263417 1.489086632e-14)
(0 0 0)
(2.110184819e-05 0.0002693614286 1.040834086e-15)
(0 0 0)
(0 0 0)
(0 0 0)
(0 0 0)
(0 0 0)
(0 0 0)
(0 0 0)
(0 0 0)
(0 0 0)
(0 0 0)
(0 0 0)
(0 0 0)
(0 0 0)
(0 0 0)
(0 0 0)
(0 0 0)
(0 0 0)
(0 0 0)
(0 0 0)
(0 0 0)
(0 0 0)
(0 0 0)
(0 0 0)
(0 0 0)
(0 0 0)
(0 0 0)
(0 0 0)
(0 0 0)
(0 0 0)
(0 0 0)
(0 0 0)
(0 0 0)
(0 0 0)
(0 0 0)
(0 0 0)
(0 0 0)
(0 0 0)
(0 0 0)
(0 0 0)
(-9.145581701e-06 9.452665644e-05 3.747002708e-16)
(0 0 0)
(-0.0003894975438 0.004813321957 1.890154699e-14)
(-0.0005790362644 0.00711087962 2.806088695e-14)
(-0.0009067009119 0.01188190588 4.687916721e-14)
(-0.0006655468138 0.008771307248 3.444466934e-14)
(-0.001525453153 0.02510214411 9.858780459e-14)
(-0.001852337123 0.03034528737 1.197375532e-13)
(-0.002074503036 0.03705708357 1.462024946e-13)
(-0.001744072127 0.03129215714 1.228739333e-13)
(-0.001997546648 0.04915676693 1.930400284e-13)
(-0.002279320792 0.05584948997 2.20337637e-13)
(-0.002185235508 0.06110754634 2.410849298e-13)
(-0.001933932688 0.05431245318 2.13273843e-13)
(-0.001354350242 0.06593931303 2.589456427e-13)
(-0.001497484459 0.0726045191 2.864514181e-13)
(-0.001168286738 0.07495440404 2.957217804e-13)
(-0.00106179444 0.06840115751 2.686184608e-13)
(-3.518347774e-05 0.071549905 2.809974475e-13)
(-3.791002868e-05 0.07789998095 3.073652444e-13)
(0.00035240439 0.07759189932 3.061578768e-13)
(0.0003214004118 0.07121653027 2.796790577e-13)
(0.001288237536 0.06602754389 2.59320343e-13)
(0.001425685867 0.07268975124 2.868261184e-13)
(0.00171518923 0.06962325041 2.747385652e-13)
(0.001540514954 0.06286769115 2.469136007e-13)
(0.001946785791 0.0493219142 1.9372004e-13)
(0.002222783004 0.05598431978 2.209343819e-13)
(0.00224185446 0.05013777802 1.978556208e-13)
(0.001941791868 0.04368133573 1.715710907e-13)
(0.001495081384 0.02510333058 9.860168237e-14)
(0.001861430695 0.03098970461 1.223188217e-13)
(0.001607506091 0.02467202218 9.739431484e-14)
(0.001275150623 0.01970566242 7.741030039e-14)
(0.0004434451054 0.005559480752 2.184363801e-14)
(0.0006624699025 0.008263074096 3.261280135e-14)
(0.000374080439 0.004391773333 1.733335697e-14)
(0.0002138301243 0.00252303724 9.908740495e-15)
(0 0 0)
(0 0 0)
(0 0 0)
(0 0 0)
(0 0 0)
(0 0 0)
(0 0 0)
(0 0 0)
(0 0 0)
(0 0 0)
(0 0 0)
(0 0 0)
(0 0 0)
(0 0 0)
(0 0 0)
(0 0 0)
(0 0 0)
(0 0 0)
(0 0 0)
(0 0 0)
(0 0 0)
(0 0 0)
(0 0 0)
(0 0 0)
(0 0 0)
(0 0 0)
(0 0 0)
(0 0 0)
(0 0 0)
(0 0 0)
(0 0 0)
(0 0 0)
(0 0 0)
(0 0 0)
(0 0 0)
(-4.227120423e-05 0.0004092121766 1.637578961e-15)
(-9.613468846e-05 0.0009260592573 3.719247132e-15)
(-0.0003415323101 0.003460963261 1.391942117e-14)
(-0.0002295922868 0.002338083396 9.353628982e-15)
(-0.001351527201 0.01631099003 6.530886942e-14)
(-0.001599150805 0.01920469699 7.725764473e-14)
(-0.002063427384 0.02641144731 1.062483435e-13)
(-0.001788603412 0.02300722001 9.210687768e-14)
(-0.002835893455 0.0455038692 1.82145965e-13)
(-0.00313223898 0.04996466852 2.00978123e-13)
(-0.003307628064 0.05749145677 2.312455782e-13)
(-0.003023307795 0.05290020423 2.117334086e-13)
(-0.003013186892 0.072526899 2.902400542e-13)
(-0.003197990237 0.07635167646 3.070044219e-13)
(-0.002963262516 0.08082204073 3.249761571e-13)
(-0.002802308453 0.07700266895 3.081424005e-13)
(-0.001801854292 0.08602554653 3.442246488e-13)
(-0.001858140953 0.08798474628 3.53758689e-13)
(-0.001415933037 0.08882255417 3.571309914e-13)
(-0.001383716385 0.0874158146 3.498035195e-13)
(-4.623887337e-05 0.08879961505 3.553546346e-13)
(-4.883386625e-05 0.08929053237 3.590322484e-13)
(0.0004092773817 0.08927585278 3.58990615e-13)
(0.0004062537385 0.08867608925 3.54868912e-13)
(0.001725830908 0.08619085298 3.449601715e-13)
(0.001776704348 0.08808826952 3.542444116e-13)
(0.002194324356 0.08663216186 3.484157407e-13)
(0.002118095167 0.08415674145 3.368416657e-13)
(0.002950204839 0.07265777712 2.908506769e-13)
(0.003138377214 0.07658204671 3.080730115e-13)
(0.003301534053 0.07151403446 2.877281746e-13)
(0.003072734522 0.06702623027 2.683547828e-13)
(0.002860567146 0.04678020965 1.873223798e-13)
(0.003151834091 0.05127732826 2.063210713e-13)
(0.002892484836 0.04345990408 1.748601264e-13)
(0.002595019767 0.03919187963 1.569300245e-13)
(0.001419306464 0.0174345609 6.980527267e-14)
(0.001672559301 0.02044089626 8.223977055e-14)
(0.001206958768 0.01388580299 5.587197371e-14)
(0.0009890817694 0.01143740016 4.579669977e-14)
(6.538540042e-05 0.0006427423387 2.567390744e-15)
(0.0001123226493 0.001098412407 4.413136523e-15)
(2.851744191e-06 2.655717512e-05 1.110223025e-16)
(0 0 0)
(0 0 0)
(0 0 0)
(0 0 0)
(0 0 0)
(0 0 0)
(0 0 0)
(0 0 0)
(0 0 0)
(0 0 0)
(0 0 0)
(0 0 0)
(0 0 0)
(0 0 0)
(0 0 0)
(0 0 0)
(0 0 0)
(0 0 0)
(0 0 0)
(0 0 0)
(0 0 0)
(0 0 0)
(0 0 0)
(0 0 0)
(0 0 0)
(0 0 0)
(0 0 0)
(0 0 0)
(0 0 0)
(-4.023265217e-06 3.440200658e-05 1.387778781e-16)
(-1.097836582e-07 9.435346124e-07 0)
(0 0 0)
(-0.0003018410048 0.002864466386 1.168509733e-14)
(-0.0003809817911 0.003597463043 1.476596623e-14)
(-0.000790621797 0.007853393395 3.222422329e-14)
(-0.000674517431 0.00673376692 2.749189765e-14)
(-0.002194310662 0.02595780021 1.059569099e-13)
(-0.002388250563 0.02810835654 1.152966611e-13)
(-0.002903397783 0.03641648446 1.493666302e-13)
(-0.002751424813 0.03468998417 1.415811912e-13)
(-0.003817757233 0.05995635542 2.446931546e-13)
(-0.003973028477 0.06206260687 2.545325062e-13)
(-0.004083704338 0.06946801414 2.848971059e-13)
(-0.003944095071 0.06745651751 2.753075545e-13)
(-0.003579703089 0.08354298818 3.409217353e-13)
(-0.003648742771 0.08462970613 3.470695953e-13)
(-0.003289987398 0.08682629965 3.560762796e-13)
(-0.003250769467 0.08639678268 3.525651993e-13)
(-0.001920142343 0.08800536764 0)
(-0.00194060501 0.08756121034 0)
(-0.001709818058 0.08756403252 0)
(-0.001466578349 0.08757682874 0)
(-0.001454405791 0.08779668574 0)
(-0.001451227312 0.08801125497 0)
(-5.568731353e-05 0.08801298489 0)
(-5.676845523e-05 0.08779961352 0)
(0.0001769889166 0.08779861611 0)
(0.00017680396 0.08801197382 0)
(0.001823925404 0.08798597394 0)
(0.001829791451 0.08776679582 0)
(0.001837298226 0.08754421417 0)
(0.002069799303 0.08753633249 0)
(0.002298946195 0.08753269176 0)
(0.00229105766 0.08797281636 0)
(0.003507760587 0.08409116598 3.43294837e-13)
(0.003567421683 0.08510590058 3.491373857e-13)
(0.003849660605 0.08169081739 3.351346978e-13)
(0.00376187905 0.08022558601 3.275157923e-13)
(0.003830145707 0.06135969349 2.505218255e-13)
(0.003970518768 0.06326336999 2.595701432e-13)
(0.003775856038 0.05555513756 2.279565425e-13)
(0.003603025346 0.05329975761 2.176175906e-13)
(0.002335389002 0.02809268469 1.14713794e-13)
(0.002554277418 0.03056934443 1.254274462e-13)
(0.002014533487 0.02269847631 9.313383398e-14)
(0.001814369232 0.02054723882 8.38912273e-14)
(0.0004047656263 0.003898444176 1.591782262e-14)
(0.0005059199058 0.004848193558 1.988686993e-14)
(0.0001813008498 0.00165479522 6.786238238e-15)
(0.0001233587747 0.001131613136 4.607425552e-15)
(0 0 0)
(0 0 0)
(0 0 0)
(0 0 0)
(0 0 0)
(0 0 0)
(0 0 0)
(0 0 0)
(0 0 0)
(0 0 0)
(0 0 0)
(0 0 0)
(0 0 0)
(0 0 0)
(0 0 0)
(0 0 0)
(0 0 0)
(0 0 0)
(0 0 0)
(0 0 0)
(0 0 0)
(0 0 0)
(0 0 0)
(0 0 0)
(0 0 0)
(0 0 0)
(0 0 0)
(0 0 0)
(-3.625196068e-05 0.0003037398863 1.276756478e-15)
(-2.065891181e-05 0.0001739752763 7.21644966e-16)
(-1.690078994e-05 0.0001430443106 5.967448757e-16)
(-0.0005474022979 0.005089842647 2.120525977e-14)
(-0.0005676902692 0.005251496132 2.198241589e-14)
(-0.001051315726 0.01022984325 4.281297539e-14)
(-0.001023633777 0.01001186887 4.168887457e-14)
(-0.002757193723 0.03194312305 1.329908406e-13)
(-0.002800288763 0.03227424069 1.350447532e-13)
(-0.003335860976 0.0409672772 1.714045572e-13)
(-0.003290404128 0.04061864768 1.691147222e-13)
(-0.004281961034 0.06579156183 2.738920202e-13)
(-0.004322126672 0.06606125825 2.76390022e-13)
(-0.004382815614 0.07292736334 3.051170427e-13)
(-0.0043479637 0.0727334986 3.027855744e-13)
(-0.003744959803 0.08532653991 3.552019789e-13)
(-0.003756622327 0.08510612826 3.560762796e-13)
(-0.003332177573 0.085814225 0)
(-0.003329391125 0.08624751246 3.590461262e-13)
(-0.001962556816 0.0862468164 0)
(-0.001964934352 0.08602665584 0)
(-0.001737266308 0.08602683925 0)
(-0.001734910475 0.08624665309 0)
(0.001845907059 0.08623434761 0)
(0.001846116581 0.0860163098 0)
(0.002073713625 0.08601427361 0)
(0.002073742156 0.08623198747 0)
(0.003651388255 0.08579187234 3.572836471e-13)
(0.003658336075 0.08556887085 3.5814407e-13)
(0.004029179504 0.08382724173 3.508721091e-13)
(0.004008084078 0.08376896246 3.488737077e-13)
(0.00436463209 0.06852546221 2.853967063e-13)
(0.004420230116 0.06907300394 2.891298312e-13)
(0.004271737429 0.061639323 2.580158309e-13)
(0.004208766365 0.06101981409 2.541300503e-13)
(0.003000210948 0.03537484259 1.473127176e-13)
(0.003068786681 0.03600740014 1.507127756e-13)
(0.002493395074 0.02753946833 1.152550277e-13)
(0.002428787246 0.02695832666 1.122713034e-13)
(0.000734052213 0.006928445481 2.885192085e-14)
(0.0008289374433 0.007784616688 3.258504577e-14)
(0.0003954229085 0.003536892271 1.480759959e-14)
(0.0003255187914 0.002926373466 1.21846977e-14)
(0 0 0)
(0 0 0)
(0 0 0)
(0 0 0)
(0 0 0)
(0 0 0)
(0 0 0)
(0 0 0)
(0 0 0)
(0 0 0)
(0 0 0)
(0 0 0)
(0 0 0)
(0 0 0)
(0 0 0)
(0 0 0)
(0 0 0)
(0 0 0)
(0 0 0)
(0 0 0)
(0 0 0)
(0 0 0)
(0 0 0)
(0 0 0)
(0 0 0)
(0 0 0)
(0 0 0)
(0 0 0)
(-5.950917532e-05 0.0004885200177 2.095545959e-15)
(-5.374887123e-05 0.0004435070692 1.887379142e-15)
(-4.715315249e-05 0.0003910794406 1.665334537e-15)
(-0.0006744377836 0.006144020778 2.610411887e-14)
(-0.0006973599296 0.006320637835 2.700617507e-14)
(-0.00121615337 0.01159470307 4.95159469e-14)
(-0.001187549378 0.0113797974 4.835021272e-14)
(-0.002972108217 0.03373124402 1.433020369e-13)
(-0.003006914347 0.03395082413 1.449673714e-13)
(-0.003535761958 0.04253349597 1.816047313e-13)
(-0.003502265679 0.04234960907 1.799116411e-13)
(-0.00443652093 0.06674016552 2.835093271e-13)
(-0.004459159236 0.06672572745 2.849109837e-13)
(-0.004490860502 0.07314140247 3.122779813e-13)
(-0.004473102563 0.07324317275 3.111400027e-13)
(-0.003776783295 0.08414533723 3.574640584e-13)
(-0.003780654038 0.0837677334 3.576722252e-13)
(-0.003339645986 0.08408649068 0)
(-0.003338053873 0.08451735061 0)
(-0.001973401568 0.08451088623 0)
(-0.001974328191 0.08429530712 0)
(-0.001747235493 0.08429426309 0)
(-0.001746278913 0.08450984205 0)
(0.001842384404 0.08449484932 0)
(0.001841351588 0.08427800249 0)
(0.002068403245 0.08427673897 0)
(0.002069475456 0.08449347576 0)
(0.003660528382 0.08447194885 3.58990615e-13)
(0.003658282785 0.08404930857 3.590322484e-13)
(0.004066253332 0.08308145379 3.549105454e-13)
(0.004062721995 0.0833813245 3.543693117e-13)
(0.004564740155 0.07032859386 2.989136716e-13)
(0.004590685749 0.07039793353 3.007455396e-13)
(0.004484936413 0.06349256614 2.712413627e-13)
(0.004451371365 0.06331692091 2.691041834e-13)
(0.003314828865 0.03832558271 1.628697177e-13)
(0.003364109057 0.0387047706 1.653399639e-13)
(0.002792528212 0.03024067468 1.291744489e-13)
(0.002741791499 0.02983821809 1.268013472e-13)
(0.0009507016336 0.008796114501 3.737288257e-14)
(0.000989420064 0.009108504295 3.889943923e-14)
(0.0005102564249 0.004473764036 1.910971381e-14)
(0.0004810220803 0.004238743698 1.801336857e-14)
(0 0 0)
(0 0 0)
(0 0 0)
(0 0 0)
(0 0 0)
(0 0 0)
(0 0 0)
(0 0 0)
(0 0 0)
(0 0 0)
(0 0 0)
(0 0 0)
(0 0 0)
(0 0 0)
(0 0 0)
(0 0 0)
(0 0 0)
(0 0 0)
(0 0 0)
(0 0 0)
(0 0 0)
(0 0 0)
(0 0 0)
(0 0 0)
(0 0 0)
(0 0 0)
(0 0 0)
(0 0 0)
(-8.778236601e-05 0.0007058074911 3.094746681e-15)
(-7.914217196e-05 0.0006396645939 2.789435349e-15)
(-7.144922334e-05 0.0005805069689 2.525757381e-15)
(-0.0007543838644 0.006733166389 2.919886555e-14)
(-0.0007774814156 0.006903480923 3.010092176e-14)
(-0.00131506303 0.01228211788 5.354050536e-14)
(-0.001286734231 0.01208007683 5.238864897e-14)
(-0.003091820565 0.03436941409 1.490474411e-13)
(-0.003125434185 0.0345610634 1.506572644e-13)
(-0.003649504893 0.04299104023 1.874056466e-13)
(-0.003617333517 0.04283770794 1.857680676e-13)
(-0.004514091275 0.06647440383 2.882416528e-13)
(-0.00453539352 0.06642902299 2.895600426e-13)
(-0.004550413366 0.07252929435 3.161360063e-13)
(-0.00453389369 0.07265947247 3.150674166e-13)
(-0.00378984089 0.08259039842 3.5814407e-13)
(-0.003792856707 0.08219803691 3.582967256e-13)
(-0.00334533726 0.08236667259 0)
(-0.00334398051 0.08279639526 0)
(-0.001980216762 0.08278997526 0)
(-0.001981009378 0.08257523433 0)
(-0.001754225998 0.08257424178 0)
(-0.001753809668 0.08268162213 0)
(-0.001753393787 0.08278891261 0)
(0.001831634847 0.08276198446 0)
(0.001829947042 0.08254595977 0)
(0.002056740857 0.08254505704 0)
(0.002058458271 0.08276101168 0)
(0.00364828707 0.0827464497 3.590183706e-13)
(0.003644009506 0.08230101854 3.589489816e-13)
(0.004043582105 0.08118304997 3.540778781e-13)
(0.004052496746 0.08171654315 3.545497229e-13)
(0.004564674653 0.06902839254 2.995104165e-13)
(0.004545476384 0.06841998758 2.98427949e-13)
(0.004434085909 0.06159999033 2.68673972e-13)
(0.004455222546 0.06218640043 2.698119506e-13)
(0.003327696823 0.03772834771 1.636885072e-13)
(0.003305753252 0.03729607632 1.626615509e-13)
(0.002735542287 0.02904375869 1.266625693e-13)
(0.002756150458 0.02940796673 1.275785033e-13)
(0.0009628560193 0.008731160878 3.787248293e-14)
(0.0009503293685 0.008574100764 3.738676035e-14)
(0.0004813729969 0.004135964334 1.804112415e-14)
(0.0004902490743 0.004233681655 1.836031327e-14)
(0 0 0)
(0 0 0)
(0 0 0)
(0 0 0)
(0 0 0)
(0 0 0)
(0 0 0)
(0 0 0)
(0 0 0)
(0 0 0)
(0 0 0)
(0 0 0)
(0 0 0)
(0 0 0)
(0 0 0)
(0 0 0)
(0 0 0)
(0 0 0)
(0 0 0)
(0 0 0)
(0 0 0)
(0 0 0)
(0 0 0)
(0 0 0)
(0 0 0)
(0 0 0)
(0 0 0)
(0 0 0)
(-0.0001257068779 0.0009896231206 4.427014311e-15)
(-0.0001154338855 0.0009135966094 4.066191828e-15)
(-0.000105497503 0.0008393856788 3.719247132e-15)
(-0.0008496783421 0.007426822837 3.28903571e-14)
(-0.0008751066242 0.007608616921 3.388955783e-14)
(-0.001433483887 0.01310884999 5.836997552e-14)
(-0.001402841412 0.01289703444 5.712097462e-14)
(-0.003228118832 0.03513152456 1.555838791e-13)
(-0.003263477513 0.03532566861 1.572769692e-13)
(-0.003781040073 0.04359499464 1.940947403e-13)
(-0.003747439808 0.04344210207 1.923738946e-13)
(-0.004599486212 0.06627499091 2.934874566e-13)
(-0.004621192993 0.06622164399 2.948058464e-13)
(-0.004616357792 0.07197833229 3.204242427e-13)
(-0.004599768185 0.07211863997 3.19355653e-13)
(-0.00380081833 0.08099871211 3.586853037e-13)
(-0.003803099623 0.08059188697 3.58796326e-13)
(-0.003350309889 0.08064678102 0)
(-0.003349141627 0.08107675429 0)
(-0.001986216407 0.08107039839 0)
(-0.001986880202 0.08085545709 0)
(-0.001760486326 0.0808544565 0)
(-0.001760129464 0.08096192702 0)
(-0.001759762715 0.08106937752 0)
(0.001816457137 0.08103627191 0)
(0.001814151695 0.08082054989 0)
(0.002040726964 0.08081987794 0)
(0.002043082037 0.08103553979 0)
(0.003623124703 0.08081916141 3.581024366e-13)
(0.003611391157 0.08022696319 3.573807916e-13)
(0.003967212879 0.07829480471 3.487765632e-13)
(0.003994502869 0.07917061313 3.508027202e-13)
(0.004396730077 0.06526596563 2.892130979e-13)
(0.004308116493 0.06365427787 2.835787161e-13)
(0.004180828551 0.05699237635 2.538802502e-13)
(0.004253643219 0.05826018528 2.581546088e-13)
(0.003065684334 0.03407889247 1.509903313e-13)
(0.002989207462 0.03306386945 1.472710842e-13)
(0.002422241246 0.02520783158 1.122851812e-13)
(0.002493822497 0.02608339294 1.155742169e-13)
(0.0007768536221 0.006902661441 3.058664433e-14)
(0.0007351734261 0.006498846739 2.894906537e-14)
(0.0003267838495 0.002750687312 1.225408663e-14)
(0.0003547475599 0.003001552337 1.329492072e-14)
(0 0 0)
(0 0 0)
(0 0 0)
(0 0 0)
(0 0 0)
(0 0 0)
(0 0 0)
(0 0 0)
(0 0 0)
(0 0 0)
(0 0 0)
(0 0 0)
(0 0 0)
(0 0 0)
(0 0 0)
(0 0 0)
(0 0 0)
(0 0 0)
(0 0 0)
(0 0 0)
(0 0 0)
(0 0 0)
(0 0 0)
(0 0 0)
(0 0 0)
(0 0 0)
(0 0 0)
(0 0 0)
(-0.0001588704867 0.001223978681 5.606626274e-15)
(-0.0001642989754 0.001272710765 5.787037516e-15)
(-0.0001499836242 0.001168132338 5.287437155e-15)
(-0.0009582046053 0.008198026155 3.709532681e-14)
(-0.0009906908427 0.00842999075 3.83582055e-14)
(-0.00157113398 0.01406057431 6.397660179e-14)
(-0.001532698813 0.01379163274 6.239453398e-14)
(-0.003376183971 0.03595272633 1.626615509e-13)
(-0.003419121898 0.03620913174 1.647293413e-13)
(-0.003928200815 0.04430568367 2.015332345e-13)
(-0.003887730862 0.04409380523 1.994931997e-13)
(-0.00468912529 0.06607910635 2.989414272e-13)
(-0.004714437782 0.06606042416 3.004818616e-13)
(-0.004686828322 0.07144849166 3.249900349e-13)
(-0.004667838842 0.07156553828 3.237687896e-13)
(-0.00380883109 0.07934962112 3.590044928e-13)
(-0.003810397579 0.07892736887 3.590322484e-13)
(-0.003354650856 0.07892739559 0)
(-0.003353572967 0.07935726944 0)
(-0.001990876627 0.07935107447 0)
(-0.001991350588 0.0791361522 0)
(-0.001765385862 0.07913520368 0)
(-0.00176512871 0.07924270466 0)
(-0.001764861971 0.0793501257 0)
(0.001796376809 0.0793146882 0)
(0.001793445787 0.07909967833 0)
(0.002019942066 0.07909918652 0)
(0.00202294299 0.07931419604 0)
(0.003559679735 0.07812886888 3.537031779e-13)
(0.003533545278 0.07725047414 3.516353875e-13)
(0.003824792221 0.0742129614 3.378131108e-13)
(0.00386998139 0.07540781538 3.413935801e-13)
(0.00405722691 0.05910715346 2.675915045e-13)
(0.00399115521 0.05787197761 2.634281682e-13)
(0.003776274528 0.05049318516 2.298439217e-13)
(0.003894500994 0.05232725468 2.368938379e-13)
(0.002642717142 0.02879350901 1.303401831e-13)
(0.00247718058 0.02685263435 1.222077994e-13)
(0.001918397932 0.01956282281 8.903988657e-14)
(0.002084429708 0.02136493888 9.671430323e-14)
(0.0005215819243 0.004539601293 2.053912596e-14)
(0.0004555075309 0.003943836399 1.794397964e-14)
(0.0001478993318 0.001219285743 5.551115123e-15)
(0.0001861597193 0.001542765437 6.980527267e-15)
(0 0 0)
(0 0 0)
(0 0 0)
(0 0 0)
(0 0 0)
(0 0 0)
(0 0 0)
(0 0 0)
(0 0 0)
(0 0 0)
(0 0 0)
(0 0 0)
(0 0 0)
(0 0 0)
(0 0 0)
(0 0 0)
(0 0 0)
(0 0 0)
(0 0 0)
(0 0 0)
(0 0 0)
(0 0 0)
(0 0 0)
(0 0 0)
(0 0 0)
(0 0 0)
(0 0 0)
(0 0 0)
(-0.0002824108386 0.002127961501 9.950373858e-15)
(-0.0002574809391 0.001951075001 9.076073226e-15)
(-0.0002203710623 0.001679195757 7.771561172e-15)
(-0.001095041732 0.009165194528 4.239664175e-14)
(-0.001176318331 0.009790495742 4.554689959e-14)
(-0.001782301626 0.01560006585 7.255307466e-14)
(-0.001683213301 0.01481589158 6.852851619e-14)
(-0.00356423408 0.03711559005 1.716404796e-13)
(-0.003628387408 0.03756859293 1.747074707e-13)
(-0.00411594026 0.04538190933 2.110256414e-13)
(-0.004064208038 0.04506954145 2.084166173e-13)
(-0.004797814795 0.06607726736 3.05561132e-13)
(-0.004809661399 0.06585429419 3.062272658e-13)
(-0.004770562211 0.07105140677 3.303746166e-13)
(-0.004748680249 0.07114428963 3.289868378e-13)
(-0.003814595088 0.07764013433 0)
(-0.003816261953 0.07721030336 0)
(-0.003359839488 0.07720824408 0)
(-0.003359046373 0.07742308486 0)
(-0.003358313075 0.07763794593 0)
(-0.001994188484 0.07763179375 0)
(-0.001994394808 0.07752447227 0)
(-0.001881382288 0.07752403781 0)
(-0.0018811861 0.07763132938 0)
(-3.361367593e-05 0.07759651935 0)
(-3.512639168e-05 0.07754300046 0)
(-3.627926086e-05 0.07748946979 0)
(7.437470175e-05 0.07749017555 0)
(7.721064885e-05 0.07759714437 0)
(0.001767928512 0.07759721068 0)
(0.001763344297 0.07738310783 0)
(0.001758670507 0.07716906535 0)
(0.002213000443 0.07716792527 0)
(0.00222177018 0.07759628275 0)
(0.001994934127 0.07759672632 0)
(0.003430038162 0.07412065469 3.429756479e-13)
(0.003375444588 0.07266276267 3.381045444e-13)
(0.003579951318 0.06831276553 3.178707297e-13)
(0.003671328202 0.07034031196 3.254896352e-13)
(0.003657461924 0.05227921791 2.419175971e-13)
(0.003527076332 0.05017492632 2.334660243e-13)
(0.003261303453 0.04276797441 1.989935994e-13)
(0.00339798946 0.04477844171 2.07195372e-13)
(0.002053268316 0.02191892875 1.014188733e-13)
(0.001929682893 0.02049396445 9.535428003e-14)
(0.001409469354 0.01407884301 6.550315845e-14)
(0.001518200087 0.0152439522 7.052691764e-14)
(0.0002153553377 0.001835343367 8.493206138e-15)
(0.000175058009 0.001484027502 6.911138328e-15)
(1.387670218e-05 0.0001120077753 5.273559367e-16)
(2.651260622e-05 0.0002151412393 9.992007222e-16)
(0 0 0)
(0 0 0)
(0 0 0)
(0 0 0)
(0 0 0)
(0 0 0)
(0 0 0)
(0 0 0)
(0 0 0)
(0 0 0)
(0 0 0)
(0 0 0)
(0 0 0)
(0 0 0)
(0 0 0)
(0 0 0)
(0 0 0)
(0 0 0)
(0 0 0)
(0 0 0)
(0 0 0)
(0 0 0)
(0 0 0)
(0 0 0)
(0 0 0)
(0 0 0)
(0 0 0)
(0 0 0)
(-0.0002678048613 0.001981750618 9.492406861e-15)
(-0.0003026352751 0.002252314391 1.071365219e-14)
(-0.000323382836 0.002420433928 1.144917494e-14)
(-0.001302203696 0.01070945991 5.06539255e-14)
(-0.001260306172 0.01030602898 4.903022433e-14)
(-0.001877474681 0.0161487149 7.68274333e-14)
(-0.001927685035 0.01667552985 7.88813459e-14)
(-0.003785166572 0.0387630126 1.833255769e-13)
(-0.003723118875 0.03790770504 1.803002192e-13)
(-0.004200432291 0.04555553255 2.16673901e-13)
(-0.004261426082 0.0464867644 2.198519145e-13)
(-0.004886346043 0.06628702485 3.13471471e-13)
(-0.004843440727 0.06531468224 3.106404023e-13)
(-0.004764528898 0.06993644591 3.326228182e-13)
(-0.004797059696 0.07083890395 3.350097977e-13)
(-0.00377078425 0.07591634419 0)
(-0.003772930794 0.07548644571 0)
(-0.003315231215 0.07548416036 0)
(-0.003314158192 0.07569905967 0)
(-0.003313084671 0.07591405883 0)
(-0.001940005904 0.07590720286 0)
(-0.001941079425 0.07569220369 0)
(-0.001712239621 0.07569106106 0)
(-0.001711702611 0.07579861057 0)
(-0.0017111661 0.07590606023 0)
(-0.001825586002 0.07590663154 0)
(-0.0001092378719 0.07589806158 0)
(-0.0001097741919 0.07579061192 0)
(-0.0001103111061 0.0756830624 0)
(0.0001185357292 0.07568191974 0)
(0.0001196092504 0.07589691891 0)
(0.001721530817 0.07588892029 0)
(0.001719384273 0.07545902181 0)
(0.002168916592 0.07516821684 3.576722252e-13)
(0.002177538269 0.07582663435 3.587685704e-13)
(0.003214105397 0.06843786928 3.238381785e-13)
(0.003137967679 0.06659999182 3.169270402e-13)
(0.003270454196 0.06145077692 2.924327447e-13)
(0.003363303406 0.06343151352 3.001487947e-13)
(0.003072089691 0.04308454474 2.038647029e-13)
(0.002948420312 0.04115697175 1.958572193e-13)
(0.002618198121 0.03366040647 1.601774269e-13)
(0.002797865836 0.03615296436 1.710714903e-13)
(0.001455739134 0.01522205472 7.201184093e-14)
(0.001268254607 0.01319247861 6.276923425e-14)
(0.0008605057562 0.008416497821 4.005129561e-14)
(0.0009807248303 0.009643250198 4.563016631e-14)
(3.603513945e-05 0.0003006379875 1.415534356e-15)
(1.627626439e-05 0.0001350663391 6.383782392e-16)
(0 0 0)
(0 0 0)
(0 0 0)
(0 0 0)
(0 0 0)
(0 0 0)
(0 0 0)
(0 0 0)
(0 0 0)
(0 0 0)
(0 0 0)
(0 0 0)
(0 0 0)
(0 0 0)
(0 0 0)
(0 0 0)
(0 0 0)
(0 0 0)
(0 0 0)
(0 0 0)
(0 0 0)
(0 0 0)
(0 0 0)
(0 0 0)
(0 0 0)
(0 0 0)
(0 0 0)
(0 0 0)
(0 0 0)
(0 0 0)
(-6.25689176e-05 0.0004524277262 2.220446049e-15)
(-0.0001135224679 0.0008256628794 4.024558464e-15)
(-0.0001686446161 0.001233700656 5.967448757e-15)
(-0.000965973669 0.007764541309 3.758104938e-14)
(-0.0008254788794 0.00659709693 3.211320099e-14)
(-0.001342773886 0.01128755768 5.495603972e-14)
(-0.001518564134 0.01283893117 6.21447338e-14)
(-0.00326228439 0.03264586597 1.579847364e-13)
(-0.003025369099 0.03010173384 1.465216837e-13)
(-0.003500901958 0.03710112105 1.805916527e-13)
(-0.003740865279 0.03987265522 1.929567617e-13)
(-0.004492914518 0.05952385341 2.88033486e-13)
(-0.004295464361 0.0565777881 2.753769435e-13)
(-0.004311785385 0.06180451857 3.008149285e-13)
(-0.004480513524 0.06460103001 3.125971704e-13)
(-0.003738035949 0.07339487791 3.551603456e-13)
(-0.003677593672 0.07176449735 3.493039191e-13)
(-0.003295243455 0.07313927585 3.560068906e-13)
(-0.003319667296 0.07415011616 3.588379593e-13)
(-0.001948593076 0.07418740922 0)
(-0.001950740119 0.07375741088 0)
(-0.001493050525 0.07375512557 0)
(-0.001490903483 0.07418512391 0)
(-0.001719753272 0.07418626659 0)
(-0.0001178247158 0.07417826794 0)
(-0.0001199717582 0.0737482696 0)
(0.0003377208312 0.07374598427 0)
(0.0003398678736 0.07417598261 0)
(0.001698095309 0.07350792213 3.558403572e-13)
(0.001670358974 0.07194508476 3.503031198e-13)
(0.002053461198 0.06973832917 3.395617121e-13)
(0.00210352291 0.0718236137 3.476940957e-13)
(0.002880680147 0.06013293918 2.911282326e-13)
(0.002756192814 0.05720094137 2.785410791e-13)
(0.002792562683 0.0512901079 2.497585472e-13)
(0.002937704898 0.05427332811 2.627620344e-13)
(0.002437523282 0.03347252888 1.620370504e-13)
(0.00226357596 0.03090028356 1.504629754e-13)
(0.001912848992 0.02405414091 1.171285291e-13)
(0.002082581614 0.02634405485 1.2753687e-13)
(0.0008108835618 0.00829839266 4.01761957e-14)