/*--------------------------------*- C++ -*----------------------------------*\
| =========                 |                                                 |
| \\      /  F ield         | OpenFOAM: The Open Source CFD Toolbox           |
|  \\    /   O peration     | Version:  v1912                                 |
|   \\  /    A nd           | Website:  www.openfoam.com                      |
|    \\/     M anipulation  |                                                 |
\*---------------------------------------------------------------------------*/
FoamFile
{
    version     2.0;
    format      ascii;
    class       surfaceVectorField;
    location    "0.79";
    object      Uf;
}
// * * * * * * * * * * * * * * * * * * * * * * * * * * * * * * * * * * * * * //

dimensions      [0 1 -1 0 0 0 0];


internalField   nonuniform List<vector> 
25162
(
(99.99924845 0.002944469199 -1.819287082e-21)
(99.9972425 0.002530768707 5.387910852e-21)
(99.99868402 0.007780692633 -1.798771404e-21)
(99.99547312 0.009283206469 1.813061682e-21)
(99.99754774 0.01665405023 -3.59001757e-21)
(99.99169603 0.02154132901 1.082145474e-20)
(99.99875285 0.02043676844 1.117851419e-21)
(99.98451188 0.04389808638 -7.154686676e-21)
(99.99314463 0.04598059799 -1.194221951e-21)
(99.9977292 0.0378362751 1.734185071e-21)
(99.99930251 0.02286144381 8.623145327e-22)
(99.99180186 0.06604360175 1.72648789e-21)
(99.99811108 0.03789488025 8.468338316e-22)
(99.99860619 0.02912681507 -8.690066472e-22)
(99.99762742 0.04900077609 8.467992444e-22)
(99.9869984 0.1111442012 1.687636054e-21)
(99.99735131 0.06290509968 0)
(99.99716178 0.07847789237 -3.129546159e-21)
(99.98254741 0.1745723529 -3.129529871e-21)
(99.99672924 0.09714693136 -8.13287211e-22)
(99.99620634 0.1190571567 2.728652749e-21)
(99.97643863 0.2621848976 2.994076572e-21)
(99.9956874 0.1442833503 3.69796231e-22)
(99.9952186 0.1726700343 -2.500731099e-21)
(99.97090277 0.3756407635 3.555677538e-22)
(99.99484939 0.2038109234 -2.59099926e-21)
(99.99464723 0.236928601 2.018176082e-22)
(99.96844181 0.5075469723 -1.746683314e-21)
(99.99470781 0.2707033384 2.280135596e-21)
(99.99511037 0.3033926813 1.990312318e-21)
(99.97252828 0.6375684331 -8.887251515e-22)
(99.99587643 0.3328520679 0)
(99.99697187 0.3567588047 0)
(99.98468539 0.7328020077 2.181415348e-22)
(99.99827638 0.3731809012 0)
(99.99967376 0.3811391012 2.49492122e-22)
(100.0010862 0.7646530743 -3.808533233e-24)
(100.0011118 0.3800182453 7.734582813e-22)
(100.0024437 0.3699924272 -3.836040302e-23)
(100.0165938 0.7251451323 -4.975068009e-22)
(100.0035287 0.3522465644 -8.575027655e-22)
(100.0043251 0.3284845886 8.878082709e-23)
(100.0261004 0.6307285772 1.577981893e-21)
(100.0048089 0.3005912867 3.992503359e-22)
(100.0049935 0.2704327222 0)
(100.0286958 0.5107721136 0)
(100.0049425 0.2397553581 0)
(100.0048662 0.20978414 7.179487664e-22)
(100.0261815 0.3918511834 1.488894229e-21)
(100.0050629 0.1817982275 -3.640154908e-21)
(100.0049887 0.1543468608 -1.350949018e-21)
(100.0227237 0.2836078005 2.962608565e-21)
(100.0043654 0.130062174 2.962387491e-21)
(100.0032798 0.1093411279 -8.488061466e-22)
(100.0139131 0.1987255773 -5.446162521e-23)
(100.0008042 0.09447933125 1.646533507e-21)
(100.0092025 0.0940770098 -7.432110995e-21)
(100.0517118 0.230079358 5.381862912e-22)
(100.0180794 0.2038764386 -2.660611833e-21)
(100.0029668 0.09464653764 -1.569244048e-21)
(100.0066593 0.05525072059 -9.407119963e-22)
(100.0363118 0.1433781082 1.489873966e-20)
(100.0056372 0.02612856235 -7.563480899e-21)
(100.0273634 0.07740068016 -1.588691513e-20)
(100.0246237 0.02463523597 1.457472586e-21)
(99.99299371 0.007950992795 8.99975179e-21)
(99.98977131 0.003585571065 2.045410095e-22)
(99.98752863 0.02132170798 1.439582902e-20)
(99.98294506 0.01401571798 -1.257427887e-20)
(99.97733991 0.04599672879 7.522591131e-21)
(99.96860826 0.03459273361 -1.955560424e-20)
(99.97145485 0.08016924808 -1.26569185e-21)
(99.94465841 0.073028562 3.760635616e-20)
(99.95067947 0.09708545531 -8.294122038e-21)
(99.95701109 0.1039256588 -1.776947694e-21)
(99.96669757 0.1047876865 3.513119898e-21)
(99.98004744 0.07375877041 1.745655756e-21)
(99.96688634 0.1287922951 1.711350527e-21)
(99.95632225 0.1391928538 1.737379818e-21)
(99.92621975 0.1850960964 -3.505382269e-21)
(99.94474364 0.1826683127 -1.519400949e-23)
(99.94762657 0.2161717525 1.687900907e-21)
(99.9308732 0.2368695735 -1.347475356e-23)
(99.88608646 0.3112427382 0)
(99.92354249 0.2823258523 0)
(99.90237394 0.3230208698 -2.106368346e-21)
(99.92627191 0.3320278732 -4.150431284e-21)
(99.91748195 0.3482224197 -4.248431584e-23)
(99.89329771 0.4035382805 -9.336303075e-21)
(99.91002625 0.3834364098 -3.209441758e-21)
(99.8850251 0.5303593703 2.940199466e-23)
(99.8993895 0.5026108098 -2.12690481e-21)
(99.85321246 0.6144244281 -1.166647252e-20)
(99.87789018 0.5796810745 -2.840037828e-21)
(99.85398846 0.7729998067 -5.405679563e-21)
(99.87450505 0.7264191593 -5.074671803e-21)
(99.81545768 0.8930271346 4.373860157e-22)
(99.84866534 0.8360643026 -6.491835062e-21)
(99.83495074 1.066308446 -7.063444881e-23)
(99.86234874 0.9918817341 -4.329161329e-21)
(99.79463222 1.227135365 -2.236889838e-21)
(99.8353333 1.138627868 -3.261972264e-21)
(99.84605379 1.372289033 -3.987802874e-21)
(99.87794832 1.26062397 -5.472330184e-21)
(99.8126866 1.571151409 -5.200319629e-20)
(99.85648718 1.441934853 -9.963161175e-22)
(99.90031385 1.619897371 -9.383521728e-22)
(99.93150329 1.466417776 -2.887573456e-21)
(99.88538105 1.838755654 -2.778337459e-20)
(99.92056333 1.669120025 -1.599836457e-21)
(99.9839771 1.728979696 3.441620882e-22)
(100.0065479 1.543215634 -3.864600519e-22)
(99.98950212 1.941547788 -8.979323388e-22)
(100.0054109 1.747021834 -4.671682422e-22)
(100.0684169 1.680226378 -1.904635852e-22)
(100.0628941 1.473467879 -2.012511617e-22)
(100.089103 1.859108751 -8.712464409e-23)
(100.086255 1.652000372 1.62767554e-21)
(100.1283289 1.489507848 2.044836361e-21)
(100.0973114 1.286116523 3.552834398e-21)
(100.1544336 1.623952922 3.561947679e-21)
(100.1363518 1.428261175 4.863838991e-22)
(100.1506783 1.222569201 -5.980547202e-21)
(100.1066468 1.042975797 -5.596983143e-21)
(100.1752835 1.315463099 -2.011442146e-21)
(100.1499752 1.149040093 -1.993695889e-21)
(100.1417523 0.9482887964 -4.863862919e-21)
(100.0939264 0.8019921513 4.500419815e-22)
(100.1580609 1.007114443 -1.316078583e-21)
(100.1355924 0.8796256767 5.37528295e-21)
(100.0917183 0.5628247661 -1.2684527e-20)
(100.1452006 0.7642064218 -1.268354144e-20)
(100.2060329 0.8322950265 1.284296736e-20)
(100.1275933 0.6418750666 -2.60826094e-20)
(100.1094178 0.535179612 1.12793768e-20)
(100.1528696 0.5746523144 -1.621727321e-20)
(100.0903349 0.4440658224 2.286597043e-20)
(100.0676142 0.3909476688 2.54234045e-20)
(100.0871986 0.2748920429 2.210501583e-20)
(100.196379 0.432133172 -2.272949371e-22)
(100.1484509 0.4789595653 4.599048215e-20)
(100.0874168 0.3787899958 2.521277881e-21)
(100.0643372 0.162074553 -7.248649405e-22)
(100.142181 0.2682393305 3.17874974e-20)
(100.0525628 0.07502333039 -7.383649909e-21)
(100.1094364 0.1447912612 -1.685851793e-20)
(100.0953897 0.04593558014 7.562143661e-21)
(99.98174518 0.008638011539 -2.159166519e-20)
(99.98162317 0.001791850126 -1.079090208e-20)
(99.96659559 0.02545030939 -4.68012378e-20)
(99.96713459 0.009827247831 1.020371173e-20)
(99.93923155 0.05950571363 1.023769723e-20)
(99.93667801 0.03175918219 -3.962462287e-20)
(99.9077292 0.1162445565 2.39429831e-20)
(99.88724832 0.07556038435 4.311589414e-20)
(99.87674502 0.1256989739 -3.877998054e-20)
(99.91938594 0.127550067 -7.141502575e-21)
(99.87688552 0.1414577748 -5.2730748e-20)
(99.88689463 0.1617243188 -3.561714225e-21)
(99.87123772 0.2317366443 -6.999663293e-21)
(99.85690319 0.2196138374 -3.490279045e-21)
(99.80364136 0.2657169501 2.445057774e-20)
(99.82103569 0.2920224645 6.906509071e-21)
(99.80257668 0.3943472076 -6.071788142e-21)
(99.77862202 0.3818735393 4.455100722e-21)
(99.69873607 0.4610918354 -3.451262885e-20)
(99.75149193 0.4763085958 2.440469691e-21)
(99.71130777 0.5095604859 -1.504367436e-20)
(99.73405822 0.606692711 -6.270787272e-21)
(99.71463818 0.6021054177 0)
(99.66514284 0.6651204327 6.461576269e-21)
(99.68869326 0.6757748055 -6.259135607e-21)
(99.63325909 0.9401458704 3.080379544e-21)
(99.60350231 0.9411985769 1.209365865e-20)
(99.53697563 1.037928955 6.000190999e-21)
(99.57411408 1.044147905 1.503930088e-20)
(99.53296005 1.390618953 1.243272779e-20)
(99.48868949 1.404581328 1.682734905e-20)
(99.40667153 1.548639821 1.741945798e-19)
(99.46315101 1.540505149 -1.541225474e-19)
(99.47105942 1.957822324 5.822267294e-19)
(99.40809587 2.001036805 2.869300299e-19)
(99.32341491 2.207721293 2.859090478e-19)
(99.40211509 2.16417858 3.037986056e-19)
(99.51601726 2.561963492 2.012987662e-19)
(99.43949159 2.655719285 -4.535990813e-20)
(99.38158417 2.912627385 -2.273155506e-20)
(99.47362927 2.808075087 -2.256502242e-19)
(99.71492156 3.03029721 -2.234056201e-21)
(99.63960541 3.193995165 -3.197729141e-19)
(99.64981292 3.458259153 -4.829373703e-19)
(99.70809686 3.273560171 -5.654120473e-21)
(99.98571171 3.203986054 1.211277086e-20)
(99.94835992 3.418468165 1.21142361e-20)
(99.99397834 3.658190707 -2.185010886e-20)
(100.0321399 3.420001473 -3.551215342e-21)
(100.2543348 3.052057532 8.74086184e-24)
(100.2603446 3.294510437 -4.348973718e-22)
(100.3382875 3.468741338 -2.481580334e-19)
(100.3246936 3.211514927 -5.074059108e-22)
(100.4272224 2.643269037 2.488111541e-21)
(100.4704182 2.880230887 -4.274164018e-20)
(100.5525543 2.989103218 -3.646244097e-20)
(100.5014003 2.746458773 5.335865049e-21)
(100.4786702 2.114222483 -5.583014099e-21)
(100.5438706 2.32060244 -1.291059448e-20)
(100.6163585 2.378743099 -4.534975937e-21)
(100.5425781 2.173402431 5.134059551e-21)
(100.5085725 1.752224366 -1.637216615e-20)
(100.4407953 1.58932278 -1.106485751e-20)
(100.5646815 1.776043329 -1.107977892e-20)
(100.493088 1.619608176 5.951195304e-21)
(100.3650417 1.086927354 -5.012308839e-20)
(100.4843533 1.324499218 -2.620838732e-20)
(100.5708482 1.321849938 -7.596742769e-20)
(100.4273634 1.105545848 -3.538791791e-20)
(100.2748999 0.7454835412 -5.816113133e-20)
(100.3709726 0.9150308919 2.293979327e-20)
(100.4286087 0.8977852342 -2.759540227e-20)
(100.3171431 0.7514132779 -2.415265848e-20)
(100.2445264 0.4217271591 1.001730757e-20)
(100.4198082 0.5808285843 -2.504598471e-20)
(100.3863256 0.6982593466 -1.825445717e-22)
(100.2884872 0.6213206789 -1.4375721e-20)
(100.1818148 0.2475528096 1.487043154e-20)
(100.306065 0.3569397476 2.654122306e-20)
(100.1476933 0.1141625042 -1.900685525e-21)
(100.2352866 0.1916397323 -3.844829085e-21)
(100.2030558 0.0604261098 0)
(99.97061887 0.002245196601 2.167318114e-20)
(99.97951952 -0.003925022608 -3.612911283e-21)
(99.94186691 0.01456552504 1.821167707e-20)
(99.9555575 -0.006787666465 2.530626642e-20)
(99.8903054 0.04778119603 -7.244345401e-21)
(99.90544008 0.006648524405 -3.59813863e-21)
(99.82252722 0.1219473349 0)
(99.82227926 0.04439840887 5.51376027e-21)
(99.78815799 0.11206293 1.680645041e-20)
(99.82923368 0.1453110268 -4.924964015e-20)
(99.77782873 0.1373010084 1.263575202e-20)
(99.77768306 0.1766999793 0)
(99.72591 0.2841391575 2.864542787e-22)
(99.7180637 0.2483237319 -2.803084364e-20)
(99.64042068 0.2847363987 -2.801198651e-20)
(99.64655701 0.3398622521 5.687210848e-20)
(99.57933778 0.5059512614 -8.464698631e-20)
(99.56206409 0.4551777683 2.988939416e-20)
(99.44633569 0.5227760495 -5.655158389e-20)
(99.48900626 0.5940038005 -2.813801966e-20)
(99.43482111 0.6041561804 -4.62492696e-20)
(99.41537826 0.8006066004 6.702667645e-21)
(99.39649616 0.768746556 1.333477701e-20)
(99.31948831 0.830254457 3.364450596e-20)
(99.3394526 0.871280055 6.647859885e-21)
(99.18098292 1.283445497 9.951909152e-20)
(99.14793857 1.245144879 1.198449878e-19)
(99.04030476 1.347624109 2.168945004e-19)
(99.07795366 1.397270391 4.120717259e-21)
(98.91895816 2.000787108 6.97792373e-19)
(98.85901057 1.963253961 -4.101015027e-19)
(98.71931284 2.139232119 3.947892073e-21)
(98.79106936 2.188086103 3.66901542e-19)
(98.74667672 2.969809042 9.49945717e-21)
(98.64504228 2.958582201 -6.707755136e-19)
(98.49965498 3.230000351 -1.311163082e-18)
(98.62430313 3.243982614 0)
(98.8399133 4.066738513 -1.293383344e-22)
(98.69742321 4.128542572 -3.482498529e-21)
(98.60523296 4.494115533 -4.889069839e-19)
(98.77664618 4.409843296 3.837483783e-19)
(99.39186491 4.921879224 5.839302787e-19)
(99.19375983 5.103971785 -3.616314076e-19)
(99.28858551 5.489033004 7.940101419e-20)
(99.38822505 5.256002652 2.96379828e-19)
(100.0915054 5.171678341 -7.000283517e-20)
(100.0181362 5.448884547 -8.199123224e-20)
(100.1619828 5.740608604 -7.141937969e-21)
(100.2216994 5.418746696 -4.969688685e-21)
(100.7256049 4.793528586 3.487975713e-22)
(100.7405503 5.10029943 2.587706233e-21)
(100.9172375 5.263060497 -3.460646658e-19)
(100.874079 4.934725548 -4.73039241e-22)
(101.0709243 4.041395662 -2.428297554e-19)
(101.1481507 4.328114075 0)
(101.3034209 4.391763625 -3.045284119e-19)
(101.1997703 4.101536745 1.383469403e-19)
(101.1455356 3.143818617 1.624759427e-19)
(101.254126 3.388797148 4.542589917e-20)
(101.3700884 3.384707776 -7.609634596e-21)
(101.2429844 3.148751709 3.174995379e-19)
(101.1528302 2.485667248 0)
(101.0400146 2.30106235 4.395628077e-20)
(101.2311135 2.458270516 0)
(101.1072129 2.282567597 0)
(100.8223126 1.528907152 2.802845223e-20)
(101.0238021 1.7912195 1.807583129e-20)
(101.1173763 1.699190626 -1.642425795e-20)
(100.8955755 1.476664458 3.521950732e-20)
(100.614762 1.025943577 -3.233817065e-20)
(100.7736967 1.207386979 -1.44484718e-20)
(100.8301424 1.125183284 -1.458563523e-20)
(100.6613135 0.977865385 -6.983558303e-21)
(100.4672652 0.5118303093 -8.818699121e-21)
(100.6994673 0.649470096 -1.903572201e-20)
(100.7157791 0.8273283303 -2.511075268e-21)
(100.5854622 0.7909018848 4.873730952e-21)
(100.3476219 0.2978647961 7.653386868e-21)
(100.5078097 0.3936591382 1.166222373e-20)
(100.2806113 0.1362447845 -1.943799656e-21)
(100.3877201 0.2084108977 -3.439474785e-21)
(100.3315471 0.06509156676 -4.962836745e-22)
(99.96843857 -0.01321618585 0)
(99.99199984 -0.01412115445 0)
(99.92417572 -0.01554946686 3.636097525e-21)
(99.95781462 -0.03748481913 0)
(99.84448594 0.003847075554 9.149099153e-21)
(99.88724426 -0.04420286221 -3.19244387e-21)
(99.73202089 0.07265542073 1.615864167e-20)
(99.76915534 -0.02565117042 2.030735298e-20)
(99.697917 0.04820483734 -6.112087999e-21)
(99.72843424 0.1163068872 2.176111485e-20)
(99.67132802 0.08181009651 1.773387727e-21)
(99.65639797 0.1336163396 -8.676040004e-21)
(99.55089432 0.2655291697 0)
(99.55922433 0.2086242832 -1.819525182e-20)
(99.46083855 0.2251756814 -1.490863529e-20)
(99.44301061 0.3048587048 3.710467191e-21)
(99.30305674 0.5091797207 0)
(99.30524152 0.4289219895 3.710069936e-21)
(99.15559531 0.4651384497 -3.815365601e-21)
(99.16874664 0.5948381089 1.861084489e-20)
(99.10952944 0.5777381658 4.782591323e-21)
(99.0061231 0.8557366804 2.699833625e-19)
(98.99946615 0.7952429212 5.509068448e-20)
(98.89415361 0.8428063668 5.486506452e-20)
(98.8989264 0.9144327355 3.136149496e-21)
(98.55371199 1.475678318 1.534136966e-19)
(98.5344353 1.388798239 1.14848052e-19)
(98.37399919 1.488001028 -1.480849203e-19)
(98.3932524 1.594800744 -3.497232346e-19)
(98.00627321 2.48013216 -3.210838755e-19)
(97.94771003 2.371912486 4.509310908e-20)
(97.72581403 2.56142603 3.995881633e-20)
(97.79568855 2.696766886 1.219609147e-18)
(97.54139064 4.006679084 -2.540671066e-23)
(97.39913961 3.901220497 -7.602242677e-19)
(97.13509307 4.247861302 -1.587115529e-18)
(97.31812064 4.37587805 -9.094291876e-21)
(97.65683623 5.938554633 4.531344152e-19)
(97.39326771 5.935836558 5.687207745e-19)
(97.22225017 6.473931413 -4.466172699e-20)
(97.56236334 6.456637809 -6.567217799e-19)
(98.89900811 7.52021467 -7.832245738e-22)
(98.54363515 7.737599925 4.81969649e-20)
(98.69802363 8.3404797 -3.123312659e-20)
(98.99208831 8.025259275 5.990560862e-22)
(100.5667874 7.721559315 3.490339561e-21)
(100.4417427 8.146879588 4.41321655e-21)
(100.7916778 8.499788786 0)
(100.8716332 7.996134565 0)
(101.7692622 6.757066677 4.500708321e-19)
(101.8376251 7.179462473 1.570505298e-20)
(102.1732353 7.273858623 5.87914852e-19)
(102.0473012 6.837913497 4.065384365e-21)
(102.2418811 5.387664961 7.224416424e-19)
(102.4025428 5.731719432 0)
(102.6544061 5.693390615 0)
(102.4463464 5.360545625 4.220893213e-19)
(102.211544 4.038500286 1.208404818e-20)
(102.3987327 4.304008587 -2.475265546e-19)
(102.54879 4.216600073 4.397543138e-19)
(102.3376805 3.96938887 4.59643976e-19)
(102.0742045 3.036848639 -1.064106747e-20)
(101.8989276 2.840640179 -3.721675192e-21)
(102.1578575 2.935417392 2.468488147e-20)
(101.9703655 2.760807881 2.169946748e-20)
(101.4516143 1.82321169 -9.173550989e-20)
(101.746252 2.083493495 -5.816953699e-20)
(101.8183736 1.890148145 -3.266428186e-20)
(101.5138053 1.692977771 -1.680838764e-20)
(101.0697496 1.190106238 1.130679468e-20)
(101.2972045 1.362948836 3.401299007e-20)
(101.3284101 1.216126987 -3.845928964e-21)
(101.1041131 1.087476774 -3.736045779e-21)
(100.7272235 0.5304753461 1.991899205e-21)
(101.010142 0.6138292677 0)
(101.1046811 0.8605406571 -1.268374274e-22)
(100.957599 0.8598955181 -1.021511061e-20)
(100.536236 0.3015814312 4.385521869e-22)
(100.7236795 0.3655206495 1.991719628e-21)
(100.4283489 0.1358940836 -1.998645356e-21)
(100.5440067 0.1879672922 -2.001047259e-21)
(100.459723 0.05782273115 -2.017369806e-21)
(99.98515468 -0.03826310078 0)
(100.0281117 -0.02878234587 1.779538229e-21)
(99.92545041 -0.066086914 -7.293659411e-21)
(99.98413362 -0.08208997763 -1.792222032e-21)
(99.81760368 -0.07338613929 7.506611375e-21)
(99.89427308 -0.1207029567 -3.640189363e-21)
(99.65341475 -0.02165540485 9.868018319e-21)
(99.74234828 -0.1360971429 2.576714551e-21)
(99.62956803 -0.06752860527 1.325253753e-23)
(99.63026795 0.03220162691 -7.342215086e-21)
(99.58276999 -0.03096348319 -7.381620604e-21)
(99.54378796 0.02887758528 0)
(99.37491632 0.1627545174 -1.490826725e-20)
(99.40829947 0.09082511453 0)
(99.29715704 0.07831359079 -7.915544655e-23)
(99.24432413 0.1739737165 -5.102346377e-23)
(99.008774 0.3899001573 7.65815074e-21)
(99.04669751 0.2842192682 1.151241694e-20)
(98.87300133 0.2825792925 1.547403762e-20)
(98.83851055 0.448886968 -2.172751311e-20)
(98.78221028 0.4096737987 2.460290668e-21)
(98.55422155 0.7375293832 4.273583903e-20)
(98.57506602 0.6533305954 -7.382293858e-21)
(98.44182189 0.678266724 5.728753881e-20)
(98.41331112 0.7766831311 -5.477421526e-20)
(97.80105917 1.41339912 3.738011378e-19)
(97.81722397 1.282506521 -1.71351354e-22)
(97.60921967 1.347375833 -2.762681633e-19)
(97.58456249 1.503339772 -5.540956227e-20)
(96.76569761 2.617727586 4.043432647e-19)
(96.74782632 2.41050097 4.467943337e-19)
(96.41047981 2.563395561 4.408989579e-19)
(96.42942187 2.818625474 6.853361449e-20)
(95.59833126 4.767856823 -6.591431905e-20)
(95.45110252 4.476086732 -1.832097129e-19)
(94.97260288 4.817619048 -2.589229045e-19)
(95.16859677 5.19561536 -6.30673869e-20)
(95.29667547 8.161114984 1.806766153e-21)
(94.81868452 7.911240993 4.285646509e-20)
(94.34325618 8.680205897 -3.485986825e-20)
(95.01191655 8.972655543 2.67709434e-20)
(97.83301808 11.52868438 0)
(97.08904484 11.85507178 -6.986470144e-21)
(97.35072797 12.96014878 0)
(98.23087065 12.40210947 -7.517698902e-21)
(101.9418756 11.34513236 0)
(101.7370197 12.14988323 -1.770768266e-20)
(102.5593301 12.52284543 0)
(102.6140661 11.58144277 0)
(103.9193018 8.824914902 2.455219847e-19)
(104.1482264 9.440221223 -5.761264911e-19)
(104.7252227 9.321117818 -5.673546248e-19)
(104.3780322 8.725554609 -1.883446203e-19)
(104.1860063 6.444000088 1.672206541e-20)
(104.5068372 6.82380213 -8.492120819e-21)
(104.8043514 6.611637343 6.430088166e-19)
(104.434431 6.272162861 -5.681663465e-19)
(103.737222 4.574865449 -2.399063703e-19)
(104.0392812 4.827434741 -6.09437772e-19)
(104.1891265 4.617159635 -2.204705811e-23)
(103.8669943 4.403384894 3.893396101e-20)
(103.291533 3.276825121 1.570810418e-20)
(103.0298907 3.09421821 -1.310402707e-19)
(103.3537178 3.092217117 -6.113783938e-20)
(103.0881392 2.939584304 -1.481840329e-19)
(102.2080239 1.889101688 2.663830369e-20)
(102.5964335 2.103792508 -2.562806026e-22)
(102.606911 1.810144779 1.635424412e-20)
(102.2270884 1.678823157 1.2163101e-20)
(101.593923 1.195800375 -1.605092461e-20)
(101.8894278 1.328590182 -8.206976308e-21)
(101.8645638 1.123233191 -8.208566294e-21)
(101.5899459 1.040884045 1.25777484e-20)
(100.9915084 0.4550737242 0)
(101.3126098 0.4637950877 1.339722063e-21)
(101.494998 0.7410677112 -1.108800231e-20)
(101.354394 0.8104356839 2.74327513e-20)
(100.7183883 0.2498192404 -5.056803953e-22)
(100.9172291 0.2627826612 -1.582117977e-21)
(100.5650348 0.1095635653 -2.029466812e-21)
(100.6762726 0.1263821797 -2.305939766e-21)
(100.5630569 0.03766924879 2.581589803e-21)
(100.0303601 -0.07217426618 -1.211712065e-23)
(100.096205 -0.04734550975 5.134759086e-23)
(99.95697726 -0.1356256688 1.858500008e-21)
(100.0440378 -0.1387691278 -6.188001275e-23)
(99.82430624 -0.1823920907 -9.749029564e-21)
(99.93851013 -0.2193934569 1.45645548e-21)
(99.61092972 -0.1684003514 -8.846363648e-21)
(99.7594315 -0.2817491597 -1.482700857e-20)
(99.604314 -0.2320404363 -1.259256179e-20)
(99.5621083 -0.1092752849 -6.954595285e-21)
(99.53533233 -0.1992186213 -2.738306253e-21)
(99.46835484 -0.1398516085 3.478840902e-23)
(99.23200049 -0.02727537016 1.119504779e-20)
(99.29717948 -0.1055681595 1.135754667e-20)
(99.18327211 -0.1524787331 5.612003652e-21)
(99.09008503 -0.05376767054 1.92873908e-20)
(98.75392465 0.1428394753 -1.94218571e-20)
(98.8382574 0.02100695559 -1.555146889e-20)
(98.6570872 -0.02736027178 8.524117022e-21)
(98.55320762 0.1568427149 -9.618822957e-20)
(98.51198156 0.0934650232 2.378999923e-20)
(98.13019662 0.4258782298 1.749843362e-19)
(98.18959669 0.3276546123 8.731317731e-20)
(98.03962472 0.3181408215 1.746244281e-19)
(97.96660806 0.4294491812 -5.28703764e-20)
(97.0647375 1.006014435 -3.898535297e-21)
(97.14511882 0.8442473677 1.159283242e-19)
(96.90452568 0.8457771555 2.382720309e-19)
(96.79637436 1.034517819 -1.764085506e-19)
(95.35884071 2.122221276 -2.353926775e-19)
(95.45435038 1.841411782 -1.463323552e-19)
(95.04126009 1.869106297 -3.024065311e-19)
(94.90167759 2.211135689 2.258998614e-20)
(92.87759537 4.301259253 1.859309485e-19)
(92.90539867 3.782911031 2.022311325e-19)
(92.19612004 3.853753907 2.049254877e-19)
(92.1238577 4.535362951 1.715325361e-19)
(90.01027066 9.297434683 -1.688047012e-19)
(89.5111741 8.213641336 0)
(87.83340121 9.129717416 0)
(88.13504926 8.510797402 0)
(89.08170433 10.4829671 0)
(88.26673796 10.41592111 0)
(92.49772596 19.44635558 -9.110314364e-21)
(93.69884244 19.28138906 -4.453836107e-20)
(92.69048221 21.04369928 1.052276597e-20)
(94.22808046 20.55471639 6.679846251e-22)
(105.762543 18.37826433 3.05607148e-19)
(106.009933 16.8966658 -8.13526455e-20)
(107.4991613 16.6812835 3.087608387e-20)
(106.4410897 19.22062203 -2.975151879e-19)
(108.3098495 18.23329752 2.041624552e-20)
(107.908038 18.8852378 -7.605560494e-20)
(108.5577361 11.27279512 -4.569609015e-20)
(107.886965 10.46600672 9.792316378e-22)
(109.2175227 10.62260486 -1.4317093e-19)
(108.4129653 9.971112032 6.199891972e-20)
(106.9759388 6.72562699 -4.816579505e-20)
(107.5429057 7.06437375 -4.043829713e-20)
(107.7899629 6.586702903 -8.188999005e-19)
(107.1939413 6.340161008 -4.06265161e-19)
(105.672197 4.447824014 -7.815981815e-19)
(106.1086197 4.618379803 -9.912819434e-20)
(106.1802522 4.26958923 1.070510989e-19)
(105.745538 4.153688868 -1.007154708e-19)
(104.6801786 2.979402679 7.836456716e-20)
(104.3368221 2.8742243 3.582460627e-19)
(104.6682201 2.723805389 3.348793998e-19)
(104.3343822 2.644865661 2.042974292e-19)
(103.0019766 1.645448885 4.337881839e-21)
(103.4879662 1.758295691 -9.677229532e-21)
(103.3743293 1.390126325 -2.569291908e-21)
(102.9391067 1.362964427 -4.58124358e-21)
(102.1226981 0.9919240155 4.560242297e-21)
(102.4675587 1.051330664 -1.760624318e-23)
(102.3658284 0.8050308339 -7.33851439e-21)
(102.0567553 0.7934629973 9.24887347e-21)
(101.2164044 0.2787283824 -1.703644957e-22)
(101.5358014 0.1996796993 -3.034099045e-22)
(101.843251 0.4631382291 8.191599256e-22)
(101.722127 0.5678579697 6.700533331e-21)
(100.8612346 0.1391710748 -3.390963918e-21)
(101.0487568 0.08609753035 -2.403709438e-22)
(100.6637644 0.05547465048 2.518047854e-21)
(100.7551642 0.02530836042 -2.303576594e-21)
(100.61537 0.005152719119 4.388931637e-22)
(100.1123513 -0.1132742048 1.276343921e-23)
(100.2030602 -0.06876789529 -2.637277848e-21)
(100.0286231 -0.2205466983 -4.786798827e-22)
(100.1452466 -0.2042712779 1.147874828e-21)
(99.87751779 -0.3169823899 -3.78194204e-21)
(100.0295303 -0.334056576 -2.491488724e-21)
(99.62304546 -0.3552137595 7.759248328e-21)
(99.83272117 -0.4523010126 -8.556662079e-22)
(99.63974747 -0.4339867253 8.052776259e-22)
(99.54478916 -0.3013417603 3.777432504e-21)
(99.55019762 -0.4104255425 7.857774982e-21)
(99.45371077 -0.3608636471 5.53677333e-21)
(99.15519123 -0.293608843 -1.891225733e-21)
(99.25550634 -0.3665295341 2.914182544e-21)
(99.15018098 -0.44767277 1.926235571e-21)
(99.01536207 -0.3610964761 5.833375205e-21)
(98.58857322 -0.2228732657 -1.889274503e-21)
(98.72335322 -0.3407669908 -3.198437187e-20)
(98.5526632 -0.4375396964 -3.401222106e-20)
(98.37694634 -0.2597875218 1.675934711e-20)
(98.35973402 -0.3442690464 -6.295831191e-20)
(97.83339895 -0.07096721018 -5.804061236e-20)
(97.9359155 -0.1665507508 1.201000588e-19)
(97.79082399 -0.2171529464 5.818105484e-20)
(97.67410848 -0.1154084786 -2.852559428e-22)
(96.53226769 0.2469033719 -1.527213676e-19)
(96.68998464 0.0914300474 -1.495382864e-19)
(96.45591814 0.01869565282 -1.519903455e-19)
(96.25808003 0.1876576621 -9.069939631e-20)
(94.32489583 0.8421175028 1.537134749e-23)
(94.57413587 0.5736829405 5.270440449e-20)
(94.19130202 0.4459189785 -5.744815155e-20)
(93.86712433 0.7333399499 4.261139707e-20)
(90.79001951 1.750538322 0)
(91.18874911 1.260760073 0)
(90.6407095 0.9360009528 1.025675617e-19)
(90.05915618 1.424228602 0)
(84.22289337 2.760083484 0)
(84.82162287 2.151090146 6.259989657e-20)
(84.26495315 1.533608819 0)
(83.41227855 2.123451541 0)
(120.4661326 22.96916401 0)
(118.9115053 21.83603235 0)
(121.269704 21.2700928 0)
(119.712453 20.49964163 0)
(115.3015325 10.20983716 -1.373236545e-19)
(113.870492 9.717421694 -7.424929904e-21)
(115.4091311 8.827307783 5.731257867e-20)
(114.0437728 8.645550737 6.635713733e-20)
(110.2423129 5.479102762 9.748827789e-20)
(111.0522418 5.576286303 -3.999583539e-20)
(111.0102037 4.867911847 -1.564771748e-19)
(110.2461224 4.889495781 -3.896611631e-20)
(107.6549937 3.359147081 -2.326297849e-19)
(108.1957929 3.36769419 -1.245359033e-19)
(108.1029303 2.924102548 -1.034802662e-19)
(107.6009861 2.978934713 -1.786999241e-19)
(105.9872138 2.024070233 2.759577064e-21)
(105.5897177 2.030239095 -5.389224084e-20)
(105.8632728 1.722000593 -9.726184448e-20)
(105.4951685 1.756942873 -9.858164779e-20)
(103.7007342 1.047306257 -5.017877362e-21)
(104.247714 1.015041851 8.414688468e-21)
(103.9634189 0.6272020364 8.102719244e-21)
(103.5202849 0.7359904367 1.195699755e-21)
(102.5636923 0.5655307416 -1.966280648e-21)
(102.9235901 0.5252344151 1.399554896e-20)
(102.7203051 0.2798877298 5.145258475e-21)
(102.4212882 0.3589757157 1.0189878e-20)
(101.3529064 0.01036354008 -3.101199874e-22)
(101.6411629 -0.1605476193 -1.07522739e-21)
(102.0637408 0.04052710204 -1.095137254e-21)
(101.9981799 0.2040223123 -1.290999073e-21)
(100.9307059 -0.026059655 1.08640968e-21)
(101.0830123 -0.1501915238 1.342116376e-21)
(100.6974191 -0.02354958847 -4.337040302e-21)
(100.7527469 -0.1071791626 1.662167826e-21)
(100.5931407 -0.03748672244 -2.149280154e-21)
(100.2372959 -0.1589733037 -1.502133091e-21)
(100.3530208 -0.09165403926 8.324244291e-22)
(100.1477312 -0.3152237038 -8.734231104e-22)
(100.2926586 -0.2742701354 -6.193878326e-22)
(99.98663308 -0.4674769254 4.460248818e-22)
(100.1731831 -0.456681942 -2.205432872e-22)
(99.70392355 -0.5689834203 5.003104624e-22)
(99.96986692 -0.6353824728 7.513753034e-22)
(99.74705182 -0.6566479025 4.444240325e-22)
(99.5962654 -0.5279656452 1.306063041e-21)
(99.64015236 -0.6477726916 -1.183289902e-23)
(99.51680972 -0.6154316267 -1.183458202e-23)
(99.17041987 -0.6111935522 -1.921694539e-21)
(99.30368918 -0.6684580493 0)
(99.21690179 -0.7803628723 -9.422296399e-22)
(99.04589013 -0.7176245325 -9.936558132e-22)
(98.55253371 -0.6653837143 -9.681096332e-22)
(98.73354495 -0.7615616682 -1.957344582e-21)
(98.58913391 -0.9000476424 3.03360204e-21)
(98.35042112 -0.7528767831 3.394564976e-20)
(98.36172852 -0.8481024964 -4.50427686e-20)
(97.74054647 -0.6862092708 -5.927088986e-20)
(97.87534042 -0.7604867048 -1.770951711e-21)
(97.75133778 -0.8475703146 5.856811756e-20)
(97.60382287 -0.7728184801 2.935383244e-20)
(96.35773281 -0.7032613919 1.228770246e-19)
(96.57097499 -0.816852536 1.52877362e-19)
(96.37090834 -0.9454767283 6.190516434e-20)
(96.11906518 -0.8331048628 6.192700903e-20)
(94.08671695 -0.752580721 9.034228138e-21)
(94.4227365 -0.9205968332 -9.435351956e-21)
(94.13621892 -1.128095914 7.366212833e-23)
(93.7467198 -0.9800894432 -9.223104744e-21)
(90.93756653 -1.185704939 1.043289677e-19)
(91.44356681 -1.372589852 -9.193486111e-20)
(91.17002647 -1.730504075 0)
(90.6206135 -1.618984267 1.071498272e-19)
(87.57709005 -3.117372891 -1.051526019e-19)
(87.98503709 -3.043403359 -3.267828691e-22)
(88.00624962 -3.342846062 -3.274201513e-19)
(87.66487217 -3.494798499 -1.644201884e-19)
(134.3897227 8.936885597 -7.908984418e-20)
(132.7174905 9.64955209 0)
(133.3312043 7.530772369 -2.836092191e-19)
(131.9336813 8.294282633 1.075256455e-20)
(120.5140942 4.089556098 -1.827910689e-19)
(118.9404434 4.571020299 1.953778149e-19)
(119.5847591 2.819161857 -1.747045609e-19)
(118.3197118 3.430930134 -1.642714251e-19)
(112.7745127 2.373272234 -9.412795385e-20)
(113.5944563 2.065109367 -3.853429259e-20)
(113.125888 1.386890247 -3.798515425e-20)
(112.4273954 1.751854815 7.686525972e-20)
(109.1106586 1.277879341 -1.33400512e-19)
(109.6322172 1.063203123 -2.049107177e-19)