/*--------------------------------*- C++ -*----------------------------------*\
| =========                 |                                                 |
| \\      /  F ield         | OpenFOAM: The Open Source CFD Toolbox           |
|  \\    /   O peration     | Version:  v1912                                 |
|   \\  /    A nd           | Website:  www.openfoam.com                      |
|    \\/     M anipulation  |                                                 |
\*---------------------------------------------------------------------------*/
FoamFile
{
    version     2.0;
    format      ascii;
    class       volScalarField;
    location    "1.97";
    object      p;
}
// * * * * * * * * * * * * * * * * * * * * * * * * * * * * * * * * * * * * * //

dimensions      [0 2 -2 0 0 0 0];


internalField   nonuniform List<scalar> 
12556
(
977.875171
976.325309
972.6560255
965.291205
955.1312174
933.845164
899.6865008
846.1815264
767.4605299
656.9917126
511.3441289
332.9327694
133.0541828
-69.58206932
-256.2798894
-414.0448836
-539.041024
-632.9362865
-700.4763016
-746.7891055
-784.7667788
-801.5957287
-811.1971592
-815.5691071
978.8466484
977.7706007
975.0444626
969.3714054
959.2207481
940.8755902
910.3281502
866.6716198
795.0756974
691.2397652
549.2169293
368.6410898
162.0669714
-50.53869595
-247.945637
-413.6833517
-542.3045876
-637.4362645
-711.8475053
-754.8027942
-791.7704259
-806.2648213
-814.6031407
-818.3876745
981.1429136
981.1096657
980.586913
978.6133852
971.1933252
959.5490153
937.8129048
899.432194
837.847414
740.9156344
595.3135361
398.2551455
163.6288648
-76.61590123
-289.8285255
-460.3264369
-586.1862919
-673.2168536
-742.8587258
-777.3265876
-807.8019887
-817.3649663
-822.8798098
-825.2764084
983.936394
985.3793239
988.0121513
991.0257849
988.9992806
986.86741
978.9552416
953.3631891
910.9027997
827.4458226
682.4608187
459.8074288
168.4634334
-135.5108184
-382.8377365
-553.3541032
-665.6071638
-737.3553041
-790.3338558
-811.0685363
-830.3791788
-833.5220745
-834.799082
-835.1648714
985.6856739
988.8199993
995.1281925
1004.013627
1008.757502
1019.157765
1029.12133
1025.488635
1011.467372
959.0886209
837.4083923
591.6234366
188.6994402
-249.6922365
-554.5543278
-715.3006831
-789.3952299
-825.6988567
-851.2982245
-853.2443287
-856.4310042
-851.6045947
-847.7780685
-845.752892
984.717546
989.5389449
999.504352
1014.772801
1026.538553
1051.206948
1081.922684
1105.369635
1133.24619
1143.433347
1100.724227
881.2607648
240.6438034
-513.8279043
-874.8781691
-963.1039798
-956.3635446
-934.6721978
-920.6313583
-898.6481082
-882.2480036
-868.5769229
-859.1980655
-854.660618
979.4231043
985.7216602
998.7705679
1019.538529
1039.608335
1076.709356
1127.370706
1178.510158
1253.261548
1348.562917
1481.429773
1568.685308
431.1032242
-1294.418085
-1435.01413
-1298.721158
-1154.53723
-1051.97831
-988.9262764
-940.8553668
-904.0193947
-881.0700756
-866.471936
-859.6003798
968.4178853
975.766166
990.9734412
1015.529399
1042.70545
1089.11716
1154.019917
1228.046548
1338.982229
1502.617699
1797.06349
2408.019386
-3236.275706
-2200.657346
-1660.508414
-1342.418626
-1156.567727
-1043.003326
-972.1661218
-915.7823485
-885.6473117
-867.0974149
-858.2874669
950.6670882
958.4924406
974.6509538
1000.848233
1033.191278
1083.861133
1155.101498
1241.564832
1365.947404
1538.419954
1803.823619
2161.398962
-4606.18053
-2700.757153
-1895.265973
-1461.978843
-1220.506949
-1070.40577
-984.569318
-913.9777752
-879.6848848
-858.8716629
-848.930086
925.6377395
933.3159045
949.10716
974.6173472
1009.67408
1059.271322
1128.529257
1214.715919
1329.644741
1475.884881
1659.783217
1840.477207
-4118.520535
-2628.731016
-1890.636983
-1463.508347
-1223.37948
-1062.923492
-973.8094786
-896.4804007
-861.6659162
-840.5608192
-830.4451151
893.3700968
900.3310155
914.5424276
937.1758082
972.7213804
1016.818452
1077.289312
1155.338541
1251.411824
1364.282978
1491.59024
1610.361868
-3024.022334
-2176.188962
-1683.597833
-1365.337489
-1166.961093
-1020.220185
-939.3924185
-863.2590288
-831.503666
-812.0578511
-802.6767049
854.4279481
860.2119364
871.9869795
889.7328487
924.6516742
959.4228426
1006.65947
1071.85024
1145.761816
1227.742365
1316.851089
1422.284365
-1934.168529
-1599.31345
-1374.474309
-1195.972142
-1064.648275
-948.776771
-884.7886412
-816.2032458
-790.590126
-774.3035236
-766.3836779
809.83449
814.1468682
823.069047
835.6790713
865.8332356
890.7244369
922.1597117
972.7399881
1023.258987
1074.633776
1123.532764
1205.777759
-702.2733308
-968.1499668
-1064.236984
-1056.774555
-1002.838541
-938.4882478
-859.3505342
-815.4545139
-759.792066
-741.4110895
-729.0500038
-723.0489248
760.8341276
763.5800564
769.4597139
777.3033399
801.4268113
816.1669151
832.1198622
866.0153317
893.6586138
913.8136506
914.193518
917.2475577
309.3380239
-377.3459575
-664.9521971
-789.0022344
-820.2219424
-806.0794121
-763.1796892
-738.4700718
-698.1870991
-686.6657484
-678.4806021
-674.5773579
708.8166243
709.9358568
712.4439406
715.3410279
733.8347921
737.9135705
739.5986456
754.977393
760.565747
753.1485141
710.8493636
587.4064911
285.3588621
-132.9673369
-424.6763837
-590.8539037
-664.0621816
-682.0908145
-667.6091513
-660.2189275
-634.140832
-628.9411323
-624.8614251
-622.9770544
655.1612026
654.80482
654.1526747
652.5047924
665.7254073
660.9224105
651.2662099
648.5211126
632.8898253
603.9530762
541.5419643
429.7788733
214.072277
-67.46153132
-301.1879083
-456.0425511
-538.4148872
-573.048355
-578.9561819
-584.6725381
-570.4892285
-570.706044
-570.2631353
-570.1271125
601.1932027
599.6284672
596.3833897
591.0376461
599.3444045
587.634353
569.2746721
553.2067675
517.7149451
470.8763409
400.6818452
296.348382
129.3413372
-64.05287862
-238.3203812
-363.8475983
-438.3422733
-481.0456648
-499.5777171
-514.2791117
-509.4822373
-513.9718957
-516.4265432
-517.6347072
548.0743652
545.5795452
540.3387234
532.2056753
536.4298903
519.7936947
495.7313144
472.8604569
424.9665694
365.5957684
289.2236554
199.4041866
67.43449496
-72.14391648
-197.3712584
-292.0176796
-357.5166375
-403.6554415
-429.9672707
-450.2227417
-452.4771192
-460.0033026
-464.6098573
-466.7893228
496.7048729
493.541467
486.8659949
476.7977455
477.9569889
458.2640374
431.0165122
405.1817918
356.6304563
295.2629207
218.9393671
137.730398
34.42519407
-68.47933899
-159.3256473
-235.0554872
-294.9760544
-340.4840793
-370.0776119
-393.1341423
-400.1118109
-409.5728316
-415.6159361
-418.4989485
447.7375792
444.1508005
436.5671525
425.3222841
424.3637838
403.134949
374.5688708
348.1997518
301.7543015
245.7085243
179.7286857
110.9293269
27.31115686
-53.68720789
-128.0189291
-192.5725419
-246.0370083
-288.7901496
-318.9455752
-342.8117524
-352.6374212
-363.1341909
-370.0094805
-373.2892718
401.6085795
397.8122381
389.7843871
378.0104141
375.6657023
354.0757938
325.6731429
300.0622701
256.9860975
207.0665743
150.8784593
91.33053871
23.46322819
-43.04749846
-104.93984
-160.0143092
-207.1016505
-246.1349564
-275.3357761
-298.6917773
-309.9681427
-320.8126981
-328.0323196
-331.4809564
358.5662816
354.7300502
346.6269784
334.8397875
331.6617439
310.5527336
283.4041103
259.1432812
219.9956596
175.8780838
127.450005
76.56941737
20.09427184
-35.29570808
-87.31865789
-134.4086122
-175.5897323
-210.5909198
-238.0046556
-260.0823393
-271.8255614
-282.5143888
-289.716577
-293.1623188
318.697482
314.9478361
307.0396014
295.6150061
292.0381613
271.9617756
246.643991
224.1529448
189.0338842
150.2119839
108.4021669
64.77672583
17.22086215
-29.4030642
-73.45133568
-113.8040785
-149.6786193
-180.7571766
-205.8524673
-226.2762001
-237.8164751
-248.0109656
-254.9477927
-258.2711715
281.9638667
278.3916402
270.8672884
260.0615483
256.4112545
237.7136811
214.4887693
194.004828
162.7898881
128.7335497
92.65142606
55.12475892
14.76731804
-24.76346681
-62.25025776
-96.88481942
-128.0519487
-155.4443465
-178.0421721
-196.6135737
-207.5150155
-217.0063197
-223.5174814
-226.6398662
248.2405147
244.907981
237.8946983
227.8725889
224.383743
207.2559357
186.2359628
167.8352154
140.2877092
110.5055032
79.38225458
47.05763805
12.65137134
-21.00583127
-53.00038026
-82.74361746
-109.7535783
-133.7533003
-153.8465717
-170.50795
-180.5040091
-189.1758152
-195.1644388
-198.0375183
217.3450655
214.2915082
207.8685235
198.7266831
195.5605486
180.0878387
161.2849559
144.9610214
120.813142
94.86974331
68.00109541
40.16983256
10.80306543
-17.88814117
-45.21330996
-70.73684718
-94.07614179
-114.9880629
-132.6632868
-147.4433132
-156.3877587
-164.1876445
-169.6027715
-172.2007474
189.0548583
186.3019089
180.5121227
172.2977735
169.5684711
155.7666052
139.1334219
124.8315372
103.8156485
81.31625461
58.10331132
34.189229
9.175631452
-15.24592707
-38.54939151
-60.40165307
-80.49148985
-98.60793465
-113.9984994
-126.974904
-134.7960687
-141.7142894
-146.537267
-148.8503553
163.1217373
160.6784109
155.5387721
148.2650198
146.0504592
133.8905455
119.3419683
106.9740266
88.82429251
69.40505765
49.41165108
28.95432422
7.740895663
-12.96749048
-32.76770207
-51.39585474
-68.59438811
-84.18237939
-97.43841578
-108.712977
-115.3876922
-121.4411959
-125.6746088
-127.7035858
139.2860285
137.153005
132.6631541
126.3204528
124.6757014
114.1021034
101.5325501
90.98587132
75.45299995
58.82682088
41.72276414
24.35286326
6.474649901
-10.97581313
-27.69088439
-43.45953919
-58.06820505
-71.36465672
-82.63777131
-92.31986215
-97.85207115
-103.0732097
-106.7324164
-108.48436
117.2855315
115.458115
111.6068211
106.1720593
105.1358566
96.0804827
85.40779647
76.52726663
63.40081189
49.32573902
34.86521174
20.27511169
5.351587011
-9.210892731
-23.17924895
-36.3868144
-48.65690396
-59.86118871
-69.30538087
-77.49926026
-81.90731705
-86.33559865
-89.44285134
-90.92836033
96.85367914
95.32524051
92.0960953
87.53594347
87.15326327
79.53348907
70.69485849
63.33785781
52.43619646
40.71893613
28.6839503
16.61929908
4.347244558
-7.624249524
-19.12024302
-30.01195046
-40.15373933
-49.42586039
-57.18326136
-63.98913752
-67.29162179
-70.97042368
-73.55045546
-74.78086926
77.75489293
76.51563633
73.89028748
70.17265415
70.4498266
64.19687214
57.06537653
51.20957025
42.36437059
32.83807686
23.04746487
13.30074376
3.439402624
-6.177592555
-15.42233304
-24.19897807
-32.39160445
-39.8980923
-46.02374418
-51.55131158
-53.78377303
-56.75290091
-58.83068397
-59.81897541
59.6558439
58.70629667
56.67538221
53.75620977
54.84137168
49.83397149
44.21887016
39.92477269
33.00149274
25.53178907
17.84107239
10.24787498
2.608468567
-4.839852132
-12.00836729
-18.83010545
-25.21816404
-31.10494163
-35.64650535
-39.97221039
-41.10792537
-43.41734873
-45.01078524
-45.76125805
42.62040116
41.9319533
40.47655914
38.39499123
39.82832162
36.2246193
32.09251826
29.27182116
24.17652176
18.66251258
12.96272452
7.399489551
1.837763337
-3.585107918
-8.812377995
-13.80188758
-18.49286638
-22.83831887
-25.8978402
-29.03592665
-29.31173311
-30.94493298
-32.07519259
-32.61414962
25.30777161
24.96721682
24.10492479
22.85388376
25.52218147
23.18027141
20.45810781
19.0761028
15.72842919
12.09764758
8.321099702
4.703993833
1.113435231
-2.390995092
-5.77684481
-9.022774248
-12.09226489
-14.96310662
-16.59309985
-18.65052194
-17.47566035
-18.45533057
-19.12026142
-19.38120604
12.29278309
11.9966492
11.56236535
10.90626352
11.5640945
10.37272828
9.062678195
9.175439619
7.489825792
5.698747865
3.828259972
2.126082857
0.4259015606
-1.237470047
-2.851731167
-4.411908127
-5.903515325
-7.32675232
-7.497052225
-8.438549871
-8.392322354
-8.862618734
-9.178197239
-9.410017844
2212.943773
-4966.337298
-3459.117452
1873.929897
-4498.121037
-4996.192071
1635.541207
-3294.094894
-4366.513763
1446.239621
-2109.035889
-3138.505324
1222.632759
-751.430198
-797.6858943
-1080.187687
-1970.444766
946.1934568
394.5829924
-703.0424075
256.2652011
-384.7065319
-966.6762081
2349.037069
696.0769272
-3072.83381
-1092.732661
-6862.378886
-4670.430244
-4566.283973
-2920.15059
-2391.288914
1700.151725
1853.995834
2115.591337
-6445.017977
-6967.632713
-4230.706817
-2970.067745
-3002.454593
1534.039948
1624.048677
1822.163171
1746.60043
1783.270753
1905.562946
-4606.689434
-5533.668137
-3165.913267
-2491.24442
-2884.955111
1361.70443
1432.494456
1598.898547
1539.027693
1578.374975
1656.80984
-2970.316788
-3657.331709
1173.682925
1219.445418
1408.370932
1336.762033
1397.226657
1486.963287
-1578.247964
-1562.68257
-2156.416716
966.8331378
952.1718712
1188.69355
1088.922488
1124.540423
1270.294497
658.0905708
403.0047577
409.0833945
2770.923392
2328.868715
3186.694156
2852.893426
-6994.431712
-6905.789358
-4625.637617
-6584.665803
-6815.633092
1922.667678
2050.120722
1983.15858
2055.931781
1926.330781
2285.841871
2077.270475
-5590.882869
-6401.89826
-4762.854269
-6266.259657
-5498.318523
-6792.726272
-6308.219894
-4809.350451
1669.223576
1767.056197
1717.273895
1775.680168
1670.742039
1917.322033
1784.601278
-3760.08723
-4542.595887
-3763.307908
-4433.921149
-3687.971982
-5442.144119
-4551.411988
-3919.208354
1493.021721
1573.593118
1515.999648
1577.224114
1497.547092
1664.106633
1581.792505
-2244.01852
-2876.391133
1278.583341
1390.841331
1322.630917
-1528.72631
1396.358986
1284.01842
1491.353185
1402.808201
-1570.948639
-973.1742631
-1482.268611
-1526.087514
1039.626062
1112.897464
1069.812993
19.46713344
1118.34417
957.8238711
1275.748737
1129.242692
-53.95356101
1825.2384
2158.410558
2282.18493
2405.492951
2792.046124
3032.610867
-9099.295625
-6126.679176
2023.539224
2071.959011
2282.267043
-3558.383748
-2064.789912
-1828.971887
-2332.329365
-2001.417282
-1961.469914
-2274.016699
-112.0890217
-443.2590824
-827.9003877
2323.582088
2722.445956
2366.077024
2486.729207
4059.014103
3714.038089
-4408.506738
-6463.802369
-4409.757553
-2325.720445
-2664.208353
-2538.674125
-2833.058953
-2219.203281
-3589.102856
-2924.200292
-2685.762198
-1108.366081
-213.1363331
-388.5912686
1027.313572
2163.177385
3118.192743
-4144.037815
-1425.420868
656.7507298
-9171.500798
-6335.444569
-8750.002058
-5796.832405
-8608.381293
-5999.47091
-6685.472471
-6722.60662
-5042.040602
-5105.027041
-3129.15647
-3474.910215
-3257.540015
-3458.86899
-3101.096572
-3913.764912
-3513.250743
-3355.895803
1439.583959
1408.08344
1369.605791
-1583.159543
-1866.765332
-1914.483437
1199.961213
1165.961569
1106.025364
1235.790654
1184.262509
1208.847479
2864.25973
2527.048881
2547.814098
2532.60959
2881.242886
2298.513819
2494.679625
2485.256375
3161.629845
3637.044356
3911.981512
2946.886981
3545.427471
3096.998969
3602.961155
2946.174621
-7067.593918
-7069.561886
1993.681717
2073.714572
1984.514858
2180.044928
2166.451934
2281.642534
2081.147575
2153.780691
2150.941827
-5967.150322
-6018.638972
-5915.992905
-5300.751647
-5504.801768
-4978.987584
-5225.103606
-5865.73938
-6584.795291
-5752.208371
-5820.997323
-5563.977616
-5713.907453
-6549.535809
1723.163442
1715.617229
1855.397504
1845.700516
-4082.817875
-3959.470708
-4139.177432
1540.947456
1535.371341
1622.239436
1616.849778
-3045.924361
-2693.442153
-2600.428296
-2711.740047
-3066.5925
1329.726023
1298.367338
1251.898154
1356.082696
1313.377281
1338.416119
-1159.353075
1342.747988
1333.565576
1449.24323
1443.913361
-1920.240669
-1164.160438
-1213.928815
-1490.123126
1084.241345
1018.327243
948.6134044
971.4482891
525.3064574
246.2362252
1214.846984
-200.2215939
206.4695224
-114.7963824
1206.605373
-298.980652
-150.6783048
174.3540039
-7931.662944
-2165.927036
-2330.953715
758.4322645
698.1811508
916.3272118
803.4587743
828.6101884
999.4541524
296.4438881
-70.72702269
-267.5772282
4854.256507
-2363.417484
-2546.952078
-864.2753433
-1123.756926
-1114.547753
-86.5304351
-336.7864365
-41.49516791
1525.616635
2810.907186
3974.291464
-5428.731729
-1906.134266
507.8115106
-6558.562165
-7528.197118
-7367.967146
-6870.637932
-4790.302588
-4985.730193
-4773.5475
-5808.358522
-5619.547733
-5355.181159
1614.178331
1591.839172
1558.330551
1639.373569
1603.370436
1619.887012
1456.602777
1420.397151
1445.158499
1158.435066
1144.781206
1111.192499
913.0254867
719.4811152
455.0179674
-7036.678714
-7597.601253
-7590.520144
-6867.044259
-5723.748951
-5477.593796
-5825.555259
-5769.575987
-6860.533703
-5757.902186
-6049.14469
-5874.12257
-6250.223906
1708.178902
1691.005018
1651.872385
1677.989349
1695.409506
1689.030701
-4707.509814
-4504.499597
-4365.31462
-4100.524786
-3849.404081
-4133.550553
-5031.558131
-4614.502201
-4890.931343
-4229.777849
-4519.27905
-4971.281276
1531.588572
1502.900025
1468.409003
1547.352615
1514.181023
1537.109598
1562.95914
1577.324625
1588.122622
1510.839946
1533.336019
1515.16792
1645.983174
1652.061754
1671.716308
1591.353391
1603.078961
1595.959472
-2510.483601
-2645.482656
-2321.849449
-1351.298501
-1368.346743
1376.025307
1298.581838
1472.316919
1481.035344
1505.163003
1440.225222
1420.761946
-1709.523034
791.295836
997.6513561
954.6678271
1099.096386
1058.244549
1066.763143
214.4797635
438.1622775
208.2662209
1074.095888
473.915869
751.6941094
563.2819179
584.0592114
1245.582044
1163.027281
-8379.803048
-7660.147287
-7994.277395
-3711.591769
-3781.105057
-1970.941458
-2116.2727
-2118.846716
2398.044396
2370.7302
4074.577838
4610.881253
4627.720004
4460.364307
4011.309683
-2737.638372
-2551.252462
-2515.319557
-2550.062058
-2754.300667
-1109.371069
-929.4050225
-952.8670233
-931.1513286
-1107.536468
-705.0672079
-881.440092
-458.0092543
-493.9432308
-656.4945458
-288.0483757
-441.4643953
-357.4938942
-9002.080485
-7790.047196
-7359.700162
-8042.73247
-7884.059371
-7176.291527
-6441.446706
-7783.958804
-7084.822023
-6958.28395
-6588.821518
-6835.213444
-7308.559738
-7139.239988
-5263.423926
-5056.885699
-4853.517206
-5116.507493
-5328.779151
-4838.646141
-5052.225592
-5401.822703
-5293.42799
-5560.164122
-5337.648064
-3273.786285
-3342.193361
-3311.947764
-3231.52478
-3380.965667
-3755.565349
-3644.18767
-3804.933442
-3430.873646
-3591.325554
-3697.174171
-1784.371395
-1769.322488
-1917.988493
1184.964331
1155.876901
1166.157674
1232.679209
1220.733868
1194.692688
2699.30408
2651.751873
2658.747587
2666.453442
2545.513045
2861.310635
2711.269169
2707.784929
2373.848743
2387.213256
2314.579586
2509.454282
2414.778731
2402.213098
3180.426787
3094.51587
2919.383431
3298.734397
3199.354079
-7738.749406
-7616.053714
-7046.788876
-7812.637428
-7993.035713
-7759.079343
-8043.722677
-8102.305477
-8065.626363
-8018.157158
-7038.163181
-7765.875612
-7786.665681
2032.326768
2030.303871
2005.82178
2069.362364
2039.853487
2043.739813
1969.863396
1948.204613
1999.039153
1976.946146
2209.80686
2220.236661
2174.586003
2293.847991
2237.188008
2225.358177
2112.690539
2112.181847
2079.36897
2160.881663
2123.869897
2124.793477
-6264.402672
-6105.631085
-5811.735673
-6190.573889
-6502.552113
-6310.654054
1751.810416
1730.559036
1784.356574
1758.240362
1697.01777
1680.659109
1722.713108
1702.32736
1901.109834
1870.792314
1940.149299
1911.227053
1820.638427
1792.390548
1860.728989
1830.762103
-4073.677544
-4256.02735
-3861.598842
-4022.171217
-4110.808049
-4555.376653
-4764.683798
-4311.713707
-4493.364064
1551.635637
1571.781076
1557.74894
1577.484672
1554.345101
1591.34052
1583.533539
1549.143916
1519.918424
1535.757003
1546.008096
1630.323553
1645.680259
1639.493756
1648.761086
1632.837597
1674.276501
1654.492397
1604.290977
1593.747541
1624.860246
1608.646445
1600.955482
1607.629574
1624.145925
-2754.260917
-2867.351876
-2930.883483
-2742.882174
-2985.292819
-2914.199351
-1117.133679
-1320.626973
-1339.838579
-1118.952388
1369.03821
1308.073988
1459.290227
1474.35671
1466.171209
1427.003792
1446.950928
1455.809231
-1799.737133
1045.748893
1043.166178
996.9223547
642.9839394
564.54232
1054.880841
318.0128055
457.9451312
367.6785419
1235.007523
-349.0515023
65.89893774
268.2772781
24.75404681
1165.103664
-2918.461963
-2149.38316
-1447.851118
-2311.828613
-2368.104836
-1105.514827
-1191.275595
-1661.510948
-2371.36681
-902.5580894
-881.3630492
-715.0958693
-2134.121887
-1595.814616
-1568.618092
1585.900575
3318.015599
4494.544465
-6581.210858
-2532.685157
387.5013942
-2017.330991
-1714.682437
-3969.425978
-6632.95702
-7515.293436
-7710.633528
1834.910425
1810.554503
1762.863075
1877.76009
1827.049126
1852.648311
-1570.779722
-1718.814108
-1719.886045
-2227.453091
-1945.910333
-1897.086987
1254.898707
1230.010839
1242.332441
-7754.12698
-7773.180996
-7030.317699
1747.721524
1704.657626
1722.091614
1752.459789
1757.432545
1782.597418
1790.920473
1818.29257
1809.768545
1297.381753
1285.921283
1263.338442
-1539.685659
-1492.052084
-1483.153922
1288.925732
1297.593804
1291.329008
-1645.239722
-1653.902499
-1550.391057
-1370.687721
-1370.861483
-1521.27529
1105.769262
1267.38056
1274.180115
1281.27265
1137.197599
-9006.165693
-3596.538989
-1984.460674
-2058.001028
-2061.671424
-2314.144109
-2158.948064
-2130.270841
2451.049622
-5351.634532
-4835.180461
-5858.056501
-2468.054738
-2518.967486
-2359.152562
-699.4800344
-713.496921
-532.4449436
-539.438937
-641.9077567
-2695.541847
-2250.500632
-5221.525353
-8921.974434
-8420.686595
-8264.487821
-8669.401579
-8710.113431
-3178.153
-3211.82768
-3160.231822
-3490.255143
-3492.239005
-3466.704035
-3029.989343
-3178.30776
-3250.996455
-3875.69639
-3818.609399
-3875.354874
-1911.355489
-1890.565783
-1923.047107
2801.897473
2882.213928
2567.518608
2572.357291
2578.092116
2538.696981
2316.048302
2328.286279
2306.99525
2501.645802
2467.474951
2460.155689
3341.834321
3160.032069
3270.261441
3495.99033
3515.029732
3659.863906
2948.206181
3018.082219
3021.695269
2014.797809
2012.18456
2010.76809
2071.974189
2062.674694
2064.819214
1967.55168
1961.983817
2006.074776
1998.056974
2181.488934
2184.310355
2169.97296
2287.02149
2267.422567
2263.026753
2089.065694
2089.886372
2080.664096
2156.914499
2145.650944
2144.254586
1728.810083
1750.282486
1744.320856
1695.932803
1701.261746
1721.450227
1867.00422
1896.372084
1882.020141
1888.20825
1877.5585
1955.328637
1945.366624
1802.903328
1867.01794
1856.581097
1819.300485
1827.999023
1857.208232
-4256.297705
-4330.69088
-3933.80163
-4002.829089
-4025.58921
-4399.793489
-4411.809268
-4305.265973
-4443.263609
-4267.357346
1317.06008
1294.112311
1305.02285
1363.139283
1347.523658
1325.311701
1346.80513
1357.493907
1352.162471
1324.843885
1328.371453
1337.023324
-1922.052495
975.9161508
989.6080984
959.6075068
681.6456178
983.4325173
407.3561494
520.3979234
628.0451414
1220.985048
1225.632397
1221.421527
-263.819135
-107.6110678
-88.52260061
-104.5043679
1196.178889
1202.985191
1213.542013
-11.13387839
-96.2277628
-237.5524278
-2198.990118
-2246.219321
-2354.997736
-2305.739438
-2285.836664
5007.423503
5074.113954
4954.096439
-2424.321157
-2449.166658
-2360.64886
-2563.245063
-2505.747681
-2496.606763
-3620.530137
-2922.689089
-6225.941483
-6821.358486
-6836.368732
-6730.483981
-6779.519671
-7471.816552
-7285.981836
-7333.599407
-7194.709441
-7240.917433
-7420.453546
-5749.59069
-5662.639178
-5723.655205
-5531.629017
-5600.255856
-5688.162618
-7643.310464
-7426.282804
-7426.47992
-7381.554141
-7416.706866
-7637.354508
-5987.549569
-5899.13053
-5956.342324
-5785.122749
-5842.506338
-5933.191047
-6643.12147
-6686.655665
-6522.928367
-6584.471614
1581.465671
1576.578216
1572.003405
1516.931698
1513.229083
1506.776087
1526.330995
1520.313133
1524.937418
-1489.655435
-1545.611472
-1347.899317
-1433.364704
1392.174058
1388.235152
1404.053257
1396.835262
1302.05161
1295.270527
1301.168156
1296.581315
1489.058783
1486.22073
1478.956324
1500.594082
1493.742903
1497.771109
1417.663354
1413.025245
1432.711292
1415.584473
1423.32164
-1714.202756
-1709.411426
-1701.971735
-1550.079312
980.5072655
1001.542818
1080.624938
1084.353586
1078.645231
1061.713426
1091.699666
424.7975779
414.6463601
1051.140938
941.0423514
734.9170779
1247.199852
1262.661106
1257.359455
1149.882691
-8937.772772
-9225.428709
-8718.412901
-8540.98829
-8044.105241
-7131.756299
-8890.618094
-8556.756794
-3646.53825
-3797.59895
-2119.53503
-2110.695109
-2115.219612
2423.098291
2340.416182
4684.424195
4496.592011
4428.77699
3983.28245
3847.431908
4297.551615
4123.343311
4263.984482
-2638.111918
-2561.373539
-2695.042016
-944.6817993
-939.7459938
-928.3046398
-1048.901236
-742.529138
-717.0496474
-706.253435
-868.0064145
-806.0084341
-807.5010277
-467.2592371
-522.4521054
-516.3733349
-340.9907541
-349.1498923
-394.8701843
-8621.140716
-8536.30471
-8978.151114
-7996.894459
-8361.95542
-8371.240043
-8755.649691
-8738.955129
-7028.287053
-6909.94653
-6952.30616
-6855.095165
-6870.143435
-6976.563956
-7247.351634
-7094.445614
-7145.537864
-6998.314948
-7045.200147
-7192.481891
-5194.770403
-5119.466223
-5186.944863
-5183.389791
-5258.127898
-4883.591112
-4913.760477
-4887.918809
-4988.864914
-5480.827897
-5516.056492
-5469.825309
-5386.01159
-5459.172563
-5257.100771
-5324.71074
-5413.109967
-3313.355721
-3219.19104
-3215.220806
-3233.493353
-3171.537706
-3231.31456
-3414.624983
-3437.667657
-3368.378505
-3713.617999
-3757.027569
-3779.591588
2749.556816
2608.069225
2379.532463
2351.969957
2339.73075
2429.973126
2436.402774
2407.55266
3297.700302
3399.158653
3397.917708
3708.013835
3575.286442
3105.312891
3100.229398
3195.709506
-7688.440934
-7477.706427
-7505.379374
-7434.771376
-7452.872339
-7647.92721
-7870.042037
-7925.467025
-8088.387971
-8417.621559
-8337.218382
-8486.237776
-8493.516632
-8119.784521
-8085.739545
-8285.893745
-8256.222552
-8012.873515
2032.151594
2023.296635
2023.634312
2054.737941
2052.701068
2042.343087
1978.347636
1972.832199
1990.473889
1984.14114
2213.885499
2198.875599
2195.839306
2243.458961
2248.198512
2230.190007
2112.395255
2100.632416
2099.854343
2135.158854
2135.035482
2124.012775
-6216.249708
-6119.885517
-6168.692177
-6011.410389
-6066.16788
-6158.848029
-6446.372058
-6351.349819
-6436.484061
-6217.785108
-6277.499495
-6373.415198
1745.273438
1747.123878
1752.737461
1732.308477
1740.347407
1738.18309
1774.737459
1773.471044
1784.830285
1757.714528
1764.03603
1765.652729
1691.897364
1694.06904
1698.370472
1683.676287
1689.250522
1686.500532
1715.21092
1715.550164
1723.659538
1702.783057
1708.390142
1708.399791
1909.857618
1899.055872
1891.031341
1895.289486
1905.670758
1874.4245
1884.831439
1880.908729
1932.748501
1920.734117
1826.032475
1816.67507
1810.743303
1813.592057
1823.339157
1793.302685
1797.348252
1800.093081
1850.713773
1853.867805
1864.108824
1833.63869
1843.725023
1840.737802
1846.373165
1836.261032
-4164.383951
-4200.845165
-4095.407766
-4063.186119
-4086.512486
-4614.581715
-4645.42965
-4594.901477
-4802.576367
-4712.939929
-4683.039829
-4358.054683
-4390.0406
-4364.113061
-4540.074222
-4485.902151
-4425.217169
1557.769596
1554.256106
1548.195994
1566.674745
1560.588999
1564.831572
1568.889812
1560.670814
1589.173353
1586.749584
1545.421225
1535.653005
1530.285734
1530.533563
1528.879393
1542.303893
1537.0267
1541.771322
1635.768272
1640.489692
1651.763679
1637.093438
1667.558841
1669.855958
1677.016143
1657.131097
1663.262677
1661.007719
1600.200089
1596.649045
1618.035807
1613.063891
-2869.198526
-2854.054962
-2921.62415
-2740.637044
-2793.055648
-2827.640622
-3057.297203
-3104.575436
-2969.35685
-2971.707662
-2982.493849
-1274.280024
-1282.014701
-1336.959531
-1138.552863
-1204.629343
-1209.864561
1362.661294
1350.048038
1383.234754
1374.788026
1312.668481
1319.865163
1316.166155
1322.685493
1315.869046
1339.501389
1330.864736
1463.670246
1461.489734
1456.684715
1472.495011
1466.736342
1468.67799
1450.720916
1444.296533
1438.995102
1452.355908
1448.384188
1453.233906
-1862.737938
1042.122885
1020.349555
1021.954018
607.6442803
614.8420347
663.1179411
565.7544126
569.9434318
558.264778
1033.557924
408.4011167
362.267366
299.7229219
1227.403415
1229.170059
1235.044843
-329.1062594
149.9206268
95.87773295
253.9545402
246.0698344
255.3793154
80.67681843
-47.64908046
-28.69800976
70.17678366
1177.937063
1193.19626
1185.853755
888.9987299
843.4006736
816.4071042
824.1273814
753.7411726
721.2881364
724.8101045
621.4346568
588.7143353
580.2723754
440.8732608
416.2347505
388.5111826
221.9123294
213.5698232
163.0420895
-10.48750423
0.3630614468
-67.4668748
-226.1817852
-201.733156
-275.3499108
-406.2250667
-375.6675681
-445.1277604
-543.7275761
-512.9572627
-571.9036851
-641.8070635
-615.7360698
938.0483251
904.7907259
856.1935064
889.9013753
828.8590502
769.3581672
801.9952913
698.5671693
636.8456751
655.6592441
500.3598281
452.1326624
439.8682246
238.0795117
224.6865151
166.5994546
-48.74707967
-17.76706898
-116.9948798
-300.6179606
-240.0900162
-353.6666003
-487.5669621
-421.6644663
-524.5687555
-616.596402
-558.6596016
-641.8546874
-702.9349087
-654.3756357
1006.176437
992.277131
924.4195468
983.8306729
942.1497566
853.3252941
921.4235813
831.6130014
725.5535608
790.2518163
621.6239485
523.0726179
548.6112345
281.565778
245.2004562
181.0642017
-120.8860873
-62.74424906
-213.1531618
-442.3638487
-328.3249451
-501.6061259
-634.1394806
-517.2096701
-666.5459353
-737.5982731
-641.4679095
-754.465445
-792.0949143
-722.877815
1085.461647
1099.27004
1017.832057
1101.448878
1099.147099
977.1224132
1092.926973
1049.309136
876.9169578
1022.377762
870.6055496
668.1654655
785.3931118
392.8953118
300.7399491
224.4699758
-281.4307123
-148.2930245
-422.0129035
-714.5492979
-494.0298847
-775.1145536
-878.3568
-684.819438
-893.1350157
-910.3438562
-776.0530588
-911.2106008
-907.5583153
-818.6039946
1161.830415
1208.476408
1127.580533
1224.97064
1278.857174
1143.186292
1298.778959
1361.628277
1120.225551
1380.487584
1384.341107
967.0132518
1335.160822
629.5021656
440.3238792
413.2411006
-802.3362616
-356.8419824
-1006.232336
-1255.915517
-817.4370333
-1269.323613
-1232.467224
-955.8866216
-1207.737952
-1128.52847
-961.7468068
-1103.704441
-1040.402835
-939.6474273
1218.782049
1293.614553
1233.240769
1322.575299
1429.025121
1321.790158
1473.978068
1657.593185
1445.105398
1743.803284
2233.080252
1573.178924
1898.672474
1922.396932
1371.55056
468.5124122
-1021.580054
-382.6771383
-1783.983858
-1707.219238
-1393.25777
-2009.19958
-1666.89454
-1337.612405
-1575.38025
-1356.494756
-1187.200629
-1299.581833
-1167.064294
-1073.787096
1241.965179
1331.074553
1307.891897
1365.464727
1490.330143
1453.905442
1541.79059