/*--------------------------------*- C++ -*----------------------------------*\
| =========                 |                                                 |
| \\      /  F ield         | OpenFOAM: The Open Source CFD Toolbox           |
|  \\    /   O peration     | Version:  v1912                                 |
|   \\  /    A nd           | Website:  www.openfoam.com                      |
|    \\/     M anipulation  |                                                 |
\*---------------------------------------------------------------------------*/
FoamFile
{
    version     2.0;
    format      ascii;
    class       volScalarField;
    location    "0.53";
    object      p;
}
// * * * * * * * * * * * * * * * * * * * * * * * * * * * * * * * * * * * * * //

dimensions      [0 2 -2 0 0 0 0];


internalField   nonuniform List<scalar> 
12556
(
948.4281313
946.7885975
942.9531632
935.3690947
925.0536404
903.6062781
869.4514452
816.2486261
738.2609035
629.086391
485.310366
309.386928
112.0515095
-88.31148559
-273.0689491
-429.4314794
-553.4177897
-646.6046843
-713.6468547
-759.6057027
-797.2664989
-813.9355909
-823.4331673
-827.7550367
949.456375
948.2845552
945.3771337
939.4607052
929.1058349
910.5566341
879.9355176
836.4900032
765.4948383
662.8529457
522.7484163
344.73029
140.8768794
-69.39813058
-264.8657199
-429.024213
-556.6331192
-651.072998
-724.9429929
-767.567877
-804.2218287
-818.5661709
-826.804236
-830.5393157
951.8987853
951.7532777
951.0107616
948.7466332
940.9948071
929.0245814
907.0139804
868.683849
807.4738668
711.7136007
568.6944401
375.410329
144.5230615
-93.44996465
-305.5555094
-475.1464735
-600.0834281
-686.5680298
-755.75543
-789.9540908
-820.1414812
-829.5730621
-834.9936488
-837.3448238
954.9379612
956.2459334
958.5991275
961.2249831
958.7611681
956.0934119
947.6328548
921.7072071
879.2447857
797.7432798
657.3105187
440.7173671
154.530931
-146.2015725
-393.9217448
-566.0796891
-678.8478895
-750.2641325
-802.9543738
-823.5038534
-842.553617
-845.5848243
-846.7786466
-847.1040286
957.0466891
960.0216915
966.0009737
974.3435839
978.69074
988.1845922
997.1722001
992.7989075
978.5717356
929.0450875
813.2815836
576.1087486
182.6824313
-250.7564744
-557.7636214
-723.5290001
-801.0634242
-838.1245513
-863.6148199
-865.4456061
-868.416814
-863.4941847
-859.5870787
-857.5255352
956.5778499
961.2224437
970.8324646
985.5193609
996.5503454
1020.186031
1049.450507
1071.481045
1099.216668
1111.563683
1073.804843
864.9858582
243.8247489
-500.243888
-867.2295606
-965.6472374
-965.9578515
-946.7017951
-932.7189236
-910.6515693
-894.0373516
-880.2672411
-870.8053702
-866.2322193
951.9412734
958.0603132
970.7473827
990.9022237
1010.169255
1046.038367
1094.957958
1144.165716
1217.938218
1313.26748
1445.904719
1539.760723
453.7033598
-1251.423114
-1413.76956
-1295.517339
-1162.067826
-1063.593828
-1000.861177
-952.6717148
-915.6028745
-892.5320866
-877.8454351
-870.936988
941.7591772
948.9401245
963.8099257
987.8005039
1014.076252
1059.275253
1122.394659
1194.288568
1303.567466
1464.865712
1751.847769
2344.218897
-3148.174116
-2171.381494
-1655.197789
-1349.423852
-1168.111137
-1054.848292
-983.8110361
-927.121345
-896.8451817
-878.2024479
-869.3520406
924.9887192
932.6762155
948.5590355
974.3041287
1005.799216
1055.49422
1125.092008
1209.900599
1332.786838
1502.790604
1761.89271
2105.141535
-4545.754555
-2680.613463
-1893.207458
-1470.227274
-1232.347961
-1082.194657
-995.9971792
-925.0169091
-890.5730608
-869.6658558
-859.6832225
901.0754413
908.6595245
924.2683395
949.4920391
983.8316683
1032.843774
1100.951779
1185.947229
1300.15982
1446.307847
1630.516444
1812.925182
-4110.971769
-2627.853817
-1896.617306
-1475.795809
-1235.779968
-1074.478451
-984.9031248
-907.1418945
-872.1879274
-850.9976494
-840.8452751
870.0261338
876.9437832
891.0789054
913.6264245
948.5957813
992.4634153
1052.587416
1130.127904
1226.455575
1341.398553
1473.998039
1602.594174
-3048.094085
-2191.213964
-1696.428135
-1377.802095
-1178.816499
-1031.20533
-949.9742989
-873.4418778
-841.5975343
-822.0911666
-812.6845543
832.3647805
838.1558033
849.9532136
867.7633571
902.3816647
937.2529372
984.7571317
1049.910547
1124.483852
1209.492666
1306.388499
1424.822265
-1972.070151
-1622.649154
-1390.332065
-1208.242825
-1075.434359
-958.8854128
-894.6922666
-825.8011024
-800.2070926
-783.8946754
-775.9672342
789.0758441
793.4435181
802.4845115
815.3107835
845.3513421
870.6239565
902.7173351
953.3503819
1004.117972
1057.894169
1113.91037
1209.919733
-764.651663
-1003.7171
-1088.430742
-1071.898991
-1013.397519
-947.6610326
-868.404695
-824.5234591
-768.879631
-750.5270338
-738.1762218
-732.1892582
741.3728297
744.2091064
750.2755314
758.4248412
782.6379594
797.9289971
814.6822007
848.5205585
875.2793853
895.7480934
899.4521566
907.1727687
277.4576701
-406.8945102
-685.835469
-801.1191795
-828.1040115
-813.600213
-771.1718621
-746.7934508
-706.69064
-695.25608
-687.1386331
-683.2708245
690.6194183
691.8579941
694.613436
697.8843108
716.5555345
721.3188116
723.9837608
739.3936913
743.0312832
733.5640807
689.4148218
561.5247851
252.9802378
-160.1137628
-441.1592058
-599.6869582
-669.8547625
-688.3742839
-674.7088674
-667.8618016
-642.0698661
-637.0295517
-633.0679094
-631.2350521
638.1809745
637.9633791
637.6005311
636.3719103
649.8394694
645.8043553
637.0961671
635.0067601
617.8176926
585.5689619
519.0434366
399.4710219
186.0131668
-87.86245958
-313.1867747
-462.0114517
-542.8196991
-578.5883933
-585.4324587
-591.7597771
-577.9263021
-578.3517011
-578.0509446
-577.9752418
585.3740622
583.9579872
581.0255747
576.1233566
584.7303031
573.8183287
556.5096511
541.5894663
506.3122361
457.0211726
382.5553054
274.7799931
111.4536135
-76.06186934
-245.0336232
-367.7387829
-442.4047844
-486.2331899
-505.6390524
-520.9343446
-516.5305822
-521.2363577
-523.8356687
-525.1067684
533.3553783
531.0122407
526.0932605
518.4116231
522.9481374
507.103164
484.0532587
462.1753892
415.4390915
355.2077163
277.6198978
184.7920584
57.78809371
-78.24812786
-201.2097548
-295.4627243
-361.8375595
-408.7883369
-435.8227375
-456.5823774
-459.2078258
-466.9346493
-471.6788448
-473.9187866
483.0247299
480.0109043
473.6543576
464.0321151
465.4835857
446.5381509
420.2238653
395.1497
347.4552288
285.9173015
209.6107742
130.340802
28.75466093
-72.55580048
-163.1333303
-239.1976584
-299.6468435
-345.713535
-375.8285392
-399.2836809
-406.574168
-416.2085221
-422.375022
-425.3131012
435.0380664
431.5949497
424.3170883
413.5021689
412.7997081
392.2590788
364.5156895
338.7423347
292.8990388
236.7081756
170.236784
102.3540817
21.22585211
-58.69623666
-132.6565441
-197.2720828
-251.0084874
-294.1102287
-324.6362383
-348.7941083
-358.8608581
-369.5001736
-376.4799623
-379.8060478
389.8365651
386.1758698
378.4336382
367.0628892
364.9471897
343.9743849
316.280004
291.1500936
248.4717754
198.1998784
141.0875279
82.80861059
16.7980944
-48.69776646
-110.1237986
-165.0968328
-212.2831998
-251.5035147
-280.9614616
-304.5184245
-315.9666063
-326.9208055
-334.2244478
-337.70977
347.6746133
343.9651577
336.1254771
324.7113442
321.7296807
301.1758179
274.6252451
250.7630294
211.8510886
167.3272135
117.8525706
68.22542098
13.22102757
-41.2650758
-92.80351428
-139.7080315
-180.8813458
-215.9683387
-243.52771
-265.7441185
-277.5951027
-288.3630698
-295.6302577
-299.1036824
308.6451616
305.0131629
297.3463632
286.265315
282.8522473
263.2749022
238.483345
216.3082311
181.2884748
142.0698463
99.15702231
56.69632024
10.36361519
-35.46054241
-79.04245857
-119.1749454
-154.9812503
-186.078188
-211.2354747
-231.7485543
-243.3411639
-253.5891434
-260.574593
-263.9177023
272.7154552
269.2517092
261.9474512
251.4571015
247.9391074
229.6919706
206.9326165
186.7051996
155.4841677
121.0658613
83.84454077
47.37494248
8.08036098
-30.740556
-67.79664896
-102.2054154
-133.273985
-160.6428593
-183.2453609
-201.8657375
-212.77265
-222.2967047
-228.8427383
-231.9780561
239.7652843
236.5321782
229.7183262
219.9847543
216.5989594
199.8794795
179.2750144
161.0842763
133.4635179
103.3590194
71.10036965
39.71393889
6.254759568
-26.77680512
-58.38697179
-87.91571435
-114.8150003
-138.7661039
-158.8234644
-175.5047434
-185.4685433
-194.1567546
-200.1689962
-203.0494584
209.6164206
206.653502
200.4101671
191.5312468
188.4399222
173.3370369
154.9031154
138.7447146
114.4801503
88.24965503
60.34523321
33.33095765
4.796281266
-23.36008366
-50.35454577
-75.68286038
-98.90887558
-119.7577965
-137.3689534
-152.1482285
-161.0306673
-168.8344952
-174.2644361
-176.8654978
182.0500702
179.3793009
173.7503824
165.7744946
163.0918412
149.6230951
133.3114679
119.125033
97.95942153
75.21577641
51.15652212
27.94951447
3.634306225
-20.35179886
-43.38016009
-65.05842841
-85.03707958
-103.082922
-118.3900333
-131.3516518
-139.0878567
-146.000846
-150.8320641
-153.1450846
156.8217449
154.4525115
149.4560674
142.3975595
140.2014673
128.339952
114.0664421
101.7647183
83.44857395
63.85564561
43.21687452
23.36307122
2.712841479
-17.65584308
-37.23287359
-55.70857551
-72.8014365
-88.31607262
-101.4758067
-112.7265451
-119.2990641
-125.3408207
-129.5777888
-131.6044943
133.6754544
131.6088175
127.245743
121.0968013
119.4422235
109.1356018
96.79897791
86.2835137
70.58655626
53.85512838
36.28372891
19.41425661
1.987080674
-15.20344441
-31.74139756
-47.379756
-61.89125167
-75.11526992
-86.28416373
-95.93718151
-101.3547563
-106.559677
-110.2192968
-111.967551
112.3518344
110.5835588
106.8440134
101.5836787
100.5104285
91.69518746
81.19490597
72.35594692
59.07647629
44.96099982
30.16559528
15.97957499
1.420955718
-12.94305122
-26.77375422
-39.87282067
-52.05605375
-63.19145943
-72.52719137
-80.68965594
-84.97394461
-89.38328987
-92.48905219
-93.97005126
92.58979846
91.11331855
87.98192384
83.58005387
83.13027953
75.73357516
67.01500651
59.70421739
48.67251984
36.96596322
24.70708951
12.96012886
0.984961186
-10.83475821
-22.22561789
-33.02863309
-43.09409514
-52.30264895
-59.95028272
-66.72442021
-69.8969675
-73.55570882
-76.13330377
-77.35899698
74.14875371
72.95493382
70.41380097
66.83899085
67.03228662
60.98641552
53.97468402
48.11053887
39.17057864
29.69744291
19.77912287
10.27413191
0.6543663367
-8.846539788
-18.01201498
-26.71680703
-34.84251082
-42.2885358
-48.30975675
-53.80529618
-55.90065085
-58.85042857
-60.92526842
-61.90874775
56.73004865
55.81629515
53.85320933
51.06582987
52.00764839
47.21345622
41.75134177
37.38464164
30.38973235
23.00532844
15.26985911
7.851800507
0.4081495176
-6.951165622
-14.06019879
-20.82381136
-27.15364613
-32.98535245
-37.42361744
-41.72038777
-42.72878654
-45.01491109
-46.60581376
-47.35314685
40.2819747
39.62703519
38.22294034
36.23389641
37.66358431
34.19815771
30.19078127
27.30569072
22.16048098
16.75500754
11.08098287
5.633405526
0.2285414548
-5.12514413
-10.30686023
-15.2488238
-19.88974529
-24.18541779
-27.14239977
-30.26515481
-30.36345266
-31.98090187
-33.11014144
-33.64419189
23.89149572
23.54947704
22.7198756
21.49425976
24.03040393
21.73775879
19.13523016
17.69529654
14.3265004
10.82081247
7.12468385
3.56784365
0.100282639
-3.34773768
-6.695287427
-9.900722033
-12.9285573
-15.75742319
-17.28293926
-19.32243522
-18.08205413
-19.05081265
-19.71614641
-19.9870133
10.30235651
10.06299171
9.685245543
9.125933729
10.63527547
9.547158623
8.328405096
8.386660012
6.74262435
5.077870697
3.318225251
1.617955645
0.008990925113
-1.601360559
-3.174486748
-4.696667304
-6.155957676
-7.566751337
-7.640491361
-8.582402437
-7.886208836
-8.321324075
-8.63338718
-8.84281486
2153.106297
-4889.421797
-3356.417441
1843.153963
-4484.641578
-4928.34149
1625.93192
-3317.305595
-4359.108813
1447.908836
-2148.366423
-3164.73684
1226.82345
-818.0655786
-861.7057049
-1120.227706
-2010.727318
938.4618104
363.8555853
-769.1337621
223.5391721
-417.3701977
-1006.12445
2289.360525
709.921531
-2975.632958
-1050.995656
-6661.349473
-4467.967637
-4498.422892
-2888.904919
-2353.600614
1667.551169
1822.510084
2061.539558
-6399.688623
-6865.972657
-4217.580764
-2962.258032
-2976.320672
1513.89423
1612.445833
1793.600029
1727.687333
1769.961633
1880.76927
-4622.726693
-5526.452202
-3187.137138
-2503.739284
-2882.749996
1350.043379
1432.396134
1589.180969
1535.996826
1583.511339
1654.861595
-3014.37376
-3692.013702
1164.694529
1222.710603
1409.128192
1340.546718
1411.033519
1497.855832
-1649.794721
-1617.217117
-2208.194762
953.7205503
944.827007
1191.633675
1090.679119
1138.654795
1284.986453
632.4707727
369.8693425
378.2884613
2678.047821
2259.561678
3107.028775
2757.954947
-6887.985488
-6709.776153
-4525.272055
-6405.210378
-6711.34033
1895.953072
2007.855517
1941.843437
2014.124206
1900.54749
2219.952102
2032.727836
-5581.922271
-6358.766699
-4727.936569
-6222.72142
-5488.751288
-6692.962693
-6262.061008
-4770.346052
1666.173852
1755.170945
1700.934315
1763.987878
1668.443937
1892.546825
1772.01979
-3792.987221
-4559.629782
-3775.656555
-4450.681669
-3719.474913
-5434.381122
-4565.739044
-3927.235758
1503.669963
1579.124566
1514.322866
1583.424312
1508.931881
1662.526661
1587.582207
-2295.201134
-2921.471431
1293.333085
1404.785151
1326.74149
-1602.11557
1411.111941
1299.555236
1502.987446
1417.422529
-1645.077981
-1023.988201
-1536.123846
-1597.553166
1041.465821
1126.953699
1070.462761
-23.9128992
1133.320485
959.0825188
1291.18588
1144.159877
-100.2786468
1781.114615
2101.369817
2222.045925
2336.797373
2701.589581
2955.422666
-8692.250102
-5788.290224
1978.52617
2027.149566
2217.211145
-3606.105324
-2101.519064
-1853.335321
-2348.713665
-2073.038129
-2022.651151
-2333.633826
-157.2581761
-485.000452
-876.890995
2255.352926
2633.791667
2298.316819
2398.3443
3981.224563
3589.710327
-4225.848653
-6276.691407
-4304.887723
-2384.718846
-2721.181954
-2573.815445
-2876.855465
-2269.421989
-3622.277255
-2966.902043
-2719.12532
-1179.751978
-279.9438172
-447.3177671
1076.684575
2136.57028
3046.114778
-3953.874594
-1325.681285
717.228824
-8778.401554
-6112.018341
-8406.304318
-5485.047528
-8257.815528
-5776.867456
-6616.850876
-6650.462254
-5047.994073
-5109.334705
-3180.218993
-3527.631135
-3298.048032
-3508.044561
-3151.816881
-3955.709282
-3561.863108
-3395.030439
1452.184046
1416.095374
1378.422091
-1644.556328
-1928.212538
-1989.054833
1214.060705
1174.568649
1113.737511
1245.15108
1193.116678
1223.000356
2754.519399
2436.275587
2464.599421
2442.399689
2772.236182
2227.852798
2406.964984
2405.463288
3066.819595
3517.041974
3832.50481
2837.173289
3424.625056
3000.208051
3477.43128
2832.854693
-6920.58296
-6916.192821
1959.158302
2032.956289
1951.343055
2123.876054
2111.147329
2213.081011
2038.865502
2100.294618
2097.798331
-5943.288941
-5992.089896
-5889.545707
-5274.066274
-5465.050055
-4967.517694
-5202.394451
-5841.664973
-6513.320081
-5686.358827
-5736.311389
-5519.507673
-5653.799157
-6481.431189
1716.046843
1709.298296
1836.609178
1827.897065
-4109.102589
-3999.495278
-4164.561259
1549.751457
1544.513335
1624.446012
1619.497175
-3097.692331
-2748.878564
-2648.479928
-2768.642361
-3119.643604
1344.097232
1307.841099
1261.327438
1365.109187
1322.798958
1352.768457
-1231.348179
1357.87676
1348.676957
1462.377018
1457.226654
-1995.699182
-1234.097175
-1273.532789
-1551.207505
1091.381039
1022.353155
964.8651239
988.3806685
496.5847384
202.5833119
1229.868291
-267.2474035
160.1712672
-180.3875634
1221.50735
-354.5954381
-215.7653438
127.3757493
-7437.702073
-2232.682955
-2395.741193
738.2589354
674.2798032
906.0422181
783.8047859
796.8323486
992.9199887
264.6640538
-100.4122374
-298.3108097
4810.947153
-2430.374611
-2610.010889
-919.5783061
-1182.370826
-1183.969905
-120.1766801
-376.028387
-84.16885829
1621.798843
2806.488887
3907.316107
-5109.843443
-1721.951032
648.8102145
-6503.211307
-7419.063386
-7274.809084
-6782.538918
-4802.579349
-5001.025437
-4790.581833
-5801.440404
-5617.751699
-5353.484001
1616.157772
1590.0682
1559.072392
1633.784537
1600.700602
1621.408889
1463.02476
1428.071685
1457.583087
1172.615171
1156.181921
1122.218625
906.856198
693.301877
423.0822345
-6913.567275
-7466.882167
-7475.253162
-6718.942422
-5605.11949
-5341.520854
-5734.164724
-5657.645747
-6718.086828
-5742.865459
-6033.888187
-5865.015195
-6214.13177
1701.575652
1680.861211
1645.218592
1677.690466
1693.38129
1685.162466
-4724.775266
-4528.786152
-4386.309186
-4124.314221
-3870.276534
-4147.902289
-5035.156327
-4615.751626
-4882.850869
-4241.735463
-4523.372523
-4976.399542
1540.055035
1507.148872
1474.344716
1548.865275
1517.800543
1545.251221
1570.338251
1586.755033
1596.400354
1524.324206
1546.424679
1525.725661
1645.853688
1653.913998
1671.97346
1599.228218
1609.686923
1600.453316
-2559.382783
-2701.267342
-2379.253091
-1431.4441
-1442.056655
1391.012186
1313.800669
1484.636345
1495.16181
1518.983393
1456.220614
1434.775268
-1786.074525
808.7439903
1001.404481
951.4761411
1109.999841
1068.741057
1080.884715
169.7852711
406.0092915
172.5515143
1088.809617
448.2436885
729.6992552
534.8090676
599.6993856
1260.858921
1177.747688
-8003.402855
-7162.337855
-7635.041919
-3755.117123
-3823.259003
-2037.540346
-2183.241441
-2192.091842
2317.920795
2292.588609
3966.518861
4487.268755
4568.21908
4330.90976
3897.877649
-2797.251602
-2615.76804
-2573.516546
-2616.657793
-2815.361365
-1186.187536
-1005.022253
-1022.45022
-1007.595964
-1187.114011
-779.6873406
-957.3574538
-531.9569406
-562.9856324
-729.4545071
-350.2334962
-508.9662407
-430.3939673
-8661.030573
-7515.996538
-7079.879672
-7793.78261
-7613.573083
-6896.269998
-6168.236322
-7440.461553
-7014.220543
-6895.910561
-6529.898579
-6751.195878
-7220.412256
-7064.308449
-5270.453984
-5070.112623
-4864.394009
-5129.536184
-5338.717653
-4854.324962
-5066.333059
-5406.279727
-5293.32104
-5558.73192
-5340.442091
-3326.551934
-3392.520178
-3360.957122
-3276.866406
-3424.940679
-3796.751943
-3684.296537
-3842.99958
-3474.389031
-3632.008302
-3738.561921
-1856.748469
-1836.235545
-1985.024392
1196.608829
1167.152389
1179.932975
1247.11005
1232.692808
1206.306109
2597.379022
2552.83596
2560.665916
2573.30848
2458.652739
2760.058622
2616.014946
2607.231989
2295.823821
2310.968732
2244.392441
2424.844313
2336.482918
2321.918781
3063.495527
2987.727447
2816.846769
3174.646931
3077.055688
-7577.542668
-7480.95494
-6918.473412
-7669.039325
-7816.279266
-7620.388343
-7831.432237
-7853.744588
-7875.892968
-7815.304546
-6865.382032
-7571.824548
-7613.767564
1996.855384
1993.831758
1973.178104
2027.579697
2002.085377
2006.921814
1943.095827
1924.598303
1967.687026
1949.076805
2148.956384
2159.467117
2119.036223
2225.623454
2174.609204
2162.469075
2065.886146
2064.635977
2036.205047
2107.002141
2074.808162
2076.519044
-6241.14184
-6088.224805
-5794.542203
-6156.566464
-6468.041789
-6284.59241
1745.429903
1726.112015
1775.265712
1751.2003
1695.647776
1680.977465
1718.898082
1700.366168
1882.172153
1854.404098
1917.541093
1891.411182
1808.221348
1782.49771
1845.157528
1817.567399
-4108.096845
-4283.979901
-3898.09193
-4056.807731
-4151.813708
-4580.309768
-4781.707116
-4339.606458
-4519.885321
1562.535686
1581.560762
1565.49825
1587.870645
1565.578892
1600.212698
1593.612351
1560.816651
1530.120772
1548.4854
1557.243694
1634.638629
1648.094213
1640.058011
1651.829478
1638.003796
1675.154706
1656.984391
1611.409827
1602.209362
1630.274871
1615.332158
1605.001463
1613.787691
1628.898039
-2819.818137
-2921.719404
-2988.333913
-2808.255323
-3042.487822
-2968.576329
-1198.047073
-1393.490256
-1418.152143
-1198.893799
1384.083443
1323.241638
1474.479218
1488.837611
1478.702489
1440.829259
1462.890246
1471.162682
-1874.035517
1059.981097
1053.45842
1006.122839
631.0928656
543.5574736
1069.745789
280.2962554
429.4014262
332.0917084
1250.432943
-422.088357
11.46184335
227.0711341
-32.50634547
1179.569346
-2834.958446
-2112.592227
-1421.539026
-2379.030069
-2434.849991
-1143.230577
-1219.110323
-1687.43593
-2442.272753
-971.958456
-956.1272428
-787.2727067
-2184.865758
-1646.492523
-1610.109935
1763.038174
3355.992057
4490.629287
-6122.973718
-2228.820218
627.5072061
-1944.191515
-1620.878226
-3796.292353
-6418.799805
-7261.309547
-7473.033581
1817.028926
1790.021259
1746.508987
1850.926885
1805.024551
1833.150512
-1637.82361
-1785.915638
-1793.073883
-2285.054355
-2004.698984
-1950.230595
1267.077726
1241.90794
1256.850965
-7523.537631
-7571.239532
-6850.70945
1732.62101
1693.330417
1714.228445
1742.699903
1749.720244
1772.779357
1780.33501
1805.336693
1795.114491
1311.903635
1298.119783
1275.545668
-1614.603286
-1566.124982
-1555.879855
1305.312522
1314.25184
1306.933073
-1718.358228
-1728.96617
-1627.58079
-1442.150821
-1437.409414
-1587.836287
1120.757088
1282.749041
1290.406755
1297.541254
1152.047148
-8600.930655
-3644.376276
-2054.476596
-2126.822078
-2132.112267
-2377.685785
-2223.942655
-2190.699331
2365.580157
-5211.430748
-4688.7078
-5658.95973
-2526.439162
-2581.074162
-2423.243447
-777.3400571
-792.7735397
-609.2179065
-615.8440087
-718.5362815
-2550.788198
-2074.519173
-4924.514857
-8568.681067
-8100.116185
-7947.749186
-8386.644608
-8399.758427
-3229.481468
-3262.960628
-3211.405698
-3543.728372
-3540.644832
-3512.784723
-3077.674957
-3224.537008
-3301.843831
-3917.351186
-3861.472949
-3916.531391
-1983.011217
-1960.447109
-1994.039392
2694.60542
2769.527536
2474.28687
2479.543351
2486.707739
2449.722449
2243.127891
2255.110537
2235.932798
2415.04041
2383.203524
2374.766021
3234.188855
3054.140148
3151.412829
3370.255668
3386.581695
3530.64169
2832.884531
2899.848999
2905.636224
1981.842515
1979.377287
1979.53942
2030.836172
2022.937136
2025.454299
1944.034117
1939.510319
1975.954969
1968.977615
2124.458462
2127.068531
2114.485988
2218.035446
2200.499331
2196.3632
2045.25154
2045.778715
2038.095486
2103.213495
2093.675109
2092.61744
1723.730319
1743.226798
1735.400265
1691.301893
1698.64366
1716.995975
1850.06153
1876.867911
1860.853716
1872.089033
1862.265939
1933.882511
1924.858721
1793.020361
1852.537092
1842.892865
1803.707259
1814.258422
1841.08549
-4289.257212
-4360.304654
-3972.180554
-4037.639581
-4062.56409
-4428.03199
-4444.675699
-4327.387588
-4468.987377
-4294.796833
1329.147067
1306.199594
1319.492152
1377.39449
1359.453252
1337.346406
1362.750582
1373.332414
1367.284292
1339.942458
1344.391953
1353.042669
-1995.407319
990.7694779
1002.860227
974.3185599
678.4480655
998.9604172
373.5038134
495.0450464
611.9908599
1236.89127
1241.521422
1236.585044
-332.4501855
-172.7854431
-151.078147
-167.1639729
1210.979389
1218.419021
1229.311262
-68.26920378
-151.1130059
-297.7630172
-2268.524631
-2314.758119
-2421.036791
-2371.651574
-2349.908427
4939.626093
5063.856684
4851.9074
-2489.564389
-2515.32071
-2430.2774
-2628.019335
-2570.544618
-2559.378076
-3360.460286
-2632.130634
-5787.331654
-6766.675434
-6778.178614
-6681.107826
-6728.175794
-7368.142975
-7188.082437
-7230.249631
-7106.1794
-7147.792083
-7322.172564
-5744.241791
-5658.87893
-5717.757327
-5531.842219
-5598.067301
-5684.718906
-7516.915261
-7306.350295
-7293.929324
-7271.318957
-7299.472462
-7515.428789
-5974.54202
-5886.657102
-5941.725013
-5776.432375
-5831.960152
-5922.033025
-6599.246065
-6639.960272
-6483.865261
-6543.618174
1590.529353
1584.927428
1580.733436
1530.078581
1525.897588
1519.735831
1538.465508
1532.705176
1537.974166
-1567.279892
-1622.590807
-1427.23572
-1510.892234
1408.598472
1404.785883
1420.3982
1413.176999
1318.138612
1310.742947
1317.746809
1312.351652
1502.99861
1499.843241
1492.834477
1513.780989
1507.121849
1511.689922
1433.814082
1429.453051
1448.053721
1430.826193
1438.520037
-1791.952128
-1785.0029
-1775.516976
-1627.95136
989.3416449
1010.819124
1098.739828
1098.395767
1091.618585
1074.657735
1106.591218
395.4400248
382.6182519
1063.257754
951.3897189
730.186227
1262.483104
1278.59949
1272.642055
1164.814816
-8477.442403
-8777.824708
-8330.92384
-7988.631633
-7554.53399
-6683.303898
-8357.596125
-8027.788175
-3692.866764
-3845.363902
-2190.208698
-2179.537145
-2187.275776
2340.511697
2264.12668
4581.031364
4391.493525
4313.280569
3845.855808
3708.793272
4174.770002
3994.133106
4133.600509
-2700.977246
-2629.201664
-2756.306237
-1023.783768
-1019.412528
-1007.249485
-1127.638839
-818.9938222
-796.0018462
-782.6197574
-945.4390278
-884.0084109
-884.0385232
-539.8754536
-596.7009227
-591.8298547
-411.2531123
-418.5592963
-466.2919219
-8306.296692
-8213.641584
-8625.813961
-7737.808925
-8077.85102
-8113.338418
-8432.594356
-8415.554721
-6962.336477
-6844.307257
-6883.408685
-6793.714398
-6809.384628
-6916.208758
-7163.8397
-7014.350533
-7061.40491
-6925.774649
-6968.941805
-7113.253683
-5205.631649
-5128.970037
-5193.509822
-5195.784687
-5269.469906
-4905.439713
-4935.615487
-4903.055676
-5003.284153
-5480.426224
-5521.263425
-5476.137722
-5390.467947
-5461.946492
-5260.553871
-5327.379854
-5413.907518
-3366.745312
-3277.373598
-3267.958969
-3291.783669
-3224.60657
-3282.64351
-3461.445601
-3486.950062
-3420.69853
-3754.945886
-3800.654944
-3826.664639
2644.844649
2512.036661
2302.104998
2276.620655
2264.195175
2347.361495
2354.542193
2327.950577
3171.318392
3269.943373
3273.530978
3571.605599
3441.49565
2985.739927
2979.297961
3072.258764
-7537.28667
-7327.998488
-7348.674214
-7299.518848
-7310.145591
-7504.849991
-7717.645909
-7762.134966
-7863.36169
-8163.004977
-8098.538364
-8209.972525
-8220.110503
-7877.893028
-7889.07216
-8061.202482
-8052.193498
-7822.881129
1996.410105
1988.911705
1989.374689
2016.67982
2014.346019
2005.389695
1952.671115
1948.253531
1962.506807
1957.328876
2152.982765
2139.841372
2136.994796
2178.652113
2183.312641
2167.330564
2065.225075
2055.015438
2054.540415
2085.276996
2084.726022
2075.29166
-6194.810236
-6098.740292
-6145.748136
-5994.556055
-6047.069701
-6139.466824
-6409.133908
-6317.156141
-6404.536816
-6191.672376
-6246.564786
-6341.613342
1739.539241
1742.051899
1746.984033
1728.430183
1735.879693
1733.093454
1766.328931
1765.598347
1776.376317
1751.169613
1756.735156
1757.913657
1691.089782
1693.854607
1697.528748
1684.554472
1689.593353
1686.254799
1712.005423
1712.867422
1720.370483
1701.29058
1706.306416
1705.769096
1891.99438
1882.087418
1872.958376
1877.872693
1887.401575
1858.657813
1868.247741
1863.686853
1913.077951
1901.946315
1814.672327
1806.138543
1799.095375
1802.550042
1811.494972
1783.949398
1787.00125
1789.129136
1835.946088
1839.694439
1849.142133
1821.024283
1830.334773
1826.762108
1833.468611
1824.132426
-4198.926275
-4235.612504
-4131.557617
-4097.75792
-4126.967795
-4638.266329
-4670.874698
-4620.156944
-4821.344173
-4736.510432
-4704.250767
-4388.195911
-4422.602031
-4391.117943
-4565.790111
-4511.588419
-4453.989728
1568.302778
1564.056729
1558.317679
1575.777921
1570.053383
1574.980047
1579.441701
1571.488092
1598.445353
1596.425348
1557.558768
1547.698007
1542.105851
1541.645405
1540.572842
1552.748055
1547.83266
1553.388455
1639.306937
1644.144117
1655.300292
1641.738797
1668.984942
1671.756911
1678.413839
1660.127374
1665.700787
1662.975325
1607.789666
1604.685662
1623.863236
1619.311222
-2929.086252
-2911.97696
-2977.049314
-2800.820881
-2853.112358
-2888.771094
-3113.972346
-3160.570607
-3025.017213
-3032.013037
-3043.678685
-1351.710276
-1357.757924
-1413.913922
-1215.619098
-1281.35398
-1288.499575
1378.847035
1366.093758
1399.875136
1391.229428
1328.644557
1335.828625
1331.269193
1339.259337
1332.486394
1355.732365
1347.344378
1478.698322
1475.892515
1471.236679
1486.584292
1480.99674
1483.491964
1466.455937
1459.349832
1454.174044
1467.074405
1463.273303
1468.764442
-1935.895602
1055.019935
1033.265336
1036.505086
590.9798284
601.1174215
655.7028965
546.4150439
552.4687497
538.7972688
1048.850274
374.5798422
325.1943156
259.6481776
1242.746365
1244.936286
1250.581518
-400.0612825
100.835771
43.4055202
210.9960854
200.6300895
211.667385
25.69006543
-107.4837403
-87.94965409
13.96481796
1193.074246
1208.578353
1200.655904
858.4237128
813.1077661
786.6055848
794.0016671
724.3617894
692.5133043
695.8128675
594.065137
561.6418401
553.5711054
416.5324996
391.6966169
365.0697786
200.9895522
191.6355435
143.1928166
-28.73861497
-19.04265914
-85.22633634
-242.7996765
-219.0912844
-291.629345
-421.5363299
-391.3250003
-460.1280184
-557.9517111
-527.5096137
-585.9352527
-655.3760179
-629.5273145
906.652091
873.3932665
825.6719884
858.5863592
798.575812
739.7198874
772.3481072
671.7623256
609.4339054
630.0644994
478.8142755
428.2901548
419.7155488
221.6513873
204.5657233
150.9100829
-61.72581778
-35.05576285
-129.566481
-313.0113392
-256.0319112
-366.2377387
-500.8773913
-436.7376975
-538.0715587
-630.1663157
-572.7464009
-655.3031424
-716.0465069
-667.8458739
973.7054114
959.4850298
892.6723163
951.2308434
911.2924622
822.8798601
891.5455228
805.7708443
699.0579272
766.0893199
603.3035476
502.425501
532.4328571
271.7352293
230.4106586
173.0987011
-125.1340376
-73.8342746
-216.9493384
-446.9965361
-339.0873487
-507.059828
-642.6914167
-529.5573531
-676.0838602
-749.3482525
-654.7512527
-766.6488127
-804.6473906
-735.855727
1051.784192
1065.497545
984.731422
1067.771972
1066.949886
946.0622917
1061.746866
1021.972304
851.0431397
996.720281
851.9995157
650.2808183
770.0028376
389.3943335
292.5267695
224.9745169
-273.0136469
-149.8762513
-412.8735192
-707.9607517
-496.2130699
-770.43877
-880.0640815
-691.8398273
-896.9936244
-919.066323
-787.1197072
-920.7742063
-919.4461058
-831.0130842
1127.514009
1173.439779
1093.28553
1189.905922
1244.204037
1110.31628
1264.38585
1328.189195
1091.855428
1347.587136
1355.762029
947.1725935
1311.303133
640.23593
438.4374386
430.7432023
-768.7232302
-343.9701724
-973.39606
-1233.967366
-807.4655761
-1251.54854
-1227.325515
-955.5843638
-1205.794213
-1134.623835
-969.9503719
-1111.640024
-1051.625107
-951.42172
1184.752613
1258.38842
1198.027333
1287.011652
1392.21977
1286.462702
1436.509116
1616.265794
1409.559295
1700.255732
2176.069427
1539.231468
1858.321249
1894.511967
1354.371868
520.0360157
-942.904284
-343.3789245
-1724.316382
-1664.349541
-1356.897841
-1980.741765
-1657.008988
-1330.81582
-1570.110195
-1361.215341
-1192.75221
-1306.514593
-1177.979764
-1084.865261
1208.920985
1295.96455
1272.870933
1329.890546
1453.217957
1416.956897