/*--------------------------------*- C++ -*----------------------------------*\
| =========                 |                                                 |
| \\      /  F ield         | OpenFOAM: The Open Source CFD Toolbox           |
|  \\    /   O peration     | Version:  v1912                                 |
|   \\  /    A nd           | Website:  www.openfoam.com                      |
|    \\/     M anipulation  |                                                 |
\*---------------------------------------------------------------------------*/
FoamFile
{
    version     2.0;
    format      ascii;
    class       surfaceScalarField;
    location    "0.53";
    object      phi;
}
// * * * * * * * * * * * * * * * * * * * * * * * * * * * * * * * * * * * * * //

dimensions      [0 3 -1 0 0 0 0];
oriented        oriented;


internalField   nonuniform List<scalar> 
25162
(
0.0004696612527
0.9161803387
0.0006153695887
0.9165542917
0.0007699782537
0.9164953913
0.0003803192041
0.9164914868
0.0005481722998
0.4583360958
0.0003942234319
0.458286289
0.0005035158283
-0.000489804804
-0.0006327409299
0.4582530607
0.000729680252
-0.0008252327134
0.4581959664
0.0009642663156
-0.001114812168
0.458169153
0.001275659177
-0.001452953101
0.4581515461
0.001636406997
-0.00181327628
0.4581700274
0.001978248902
-0.002127993882
0.4582251808
0.002234313065
-0.002298940609
0.4583183727
0.002314067948
-0.002275482335
0.4584184407
0.002192041629
-0.002071685505
0.4584813565
0.001920329007
-0.001760101767
0.4585023968
0.001592704931
-0.001416182603
0.4584938942
0.001257288379
-0.001104484941
0.4584878621
0.000931622867
-0.0008599598209
0.4584541807
0.0007557790778
-0.0006188715608
0.4584619605
0.0005069110854
-0.001765951921
0.9186303537
0.0002384633194
-0.0004528650945
-0.001105454099
0.9186895022
-1.521264813e-05
0.9157597586
0.9137847874
0.001294179785
0.914886159
0.002114343985
0.9157341275
0.002548124754
0.9160616106
0.0009089407579
0.9167354893
0.001395181423
0.4579473737
0.001095826993
-0.45813426
-0.4580920821
-0.001351719675
0.4577742911
0.001669510645
-0.4579093126
-0.002058152215
0.4574471297
0.001180849867
0.001339485285
-0.2288788818
-0.001419712114
0.2287601838
0.001538410129
-0.002027751119
-0.2288087117
0.2286553095
0.002181153373
-0.002767329757
-0.2287689844
0.2285823907
0.002953923374
-0.003566121971
-0.2288021812
0.2286138382
0.003754465057
-0.004244615511
-0.2289251074
0.228783193
0.00438644727
-0.004497865328
-0.2291247423
0.2290359609
0.004586781296
-0.004591465656
-0.2293062373
0.2293567062
0.004540996694
-0.004150700214
-0.2294185256
0.229566449
0.004002776765
-0.003472445442
-0.229463398
0.2296601717
0.003275671697
-0.002722670174
-0.2294474573
0.2296425427
0.002527584767
-0.002044762998
-0.2293967541
0.2295616414
0.001879875683
-0.4588692843
-0.002794158073
0.4602884875
0.001374954918
-8.434490352e-05
0.4609126501
-0.001584049945
-0.4592442552
-0.001867829942
0.9180701556
0.0006282727758
0.00179975532
-0.001151100799
0.917972773
0.0002755464192
0.9143331113
0.9140603338
0.001656322544
0.9132298364
0.004378056043
0.913012394
0.007440021643
0.912999645
0.003267076562
0.9141388184
0.006769616042
-0.4578025034
0.4575019672
0.003567612811
-0.4574418738
-0.003706964569
0.4579028483
0.003245990044
-0.4568141796
-0.003552268447
0.4563193691
0.001954963641
0.002092115327
-0.2281819789
-0.002401816958
0.2279289165
0.002654879369
-0.2279005179
-0.003545856752
0.2275624161
0.003883958569
-0.2277209318
-0.004876443196
0.2279969719
0.004597004643
-0.2291060953
-0.003713463836
0.2292207017
0.003585695015
-0.2292121228
-0.003617376124
0.2291051545
0.003714817113
-0.2287050339
-0.004134543895
0.2285732864
0.004268167993
-0.2284807387
-0.004636493573
0.2283869651
0.004742431682
-0.2292126991
-0.005200790317
0.2289983104
0.005427669056
-0.2305148234
-0.006314618677
0.2307729634
0.006057322858
-0.2304603945
-0.004947558808
0.2308222332
0.004585720055
-0.00331452765
-0.2302966988
0.2309729556
0.002638270934
-0.4628946499
0.0004458004938
0.4616955022
0.000753347249
-0.4599820387
-0.0009272919157
0.459936833
0.0009724975581
-0.0002119203415
0.9196792814
-0.0008328306624
-0.0005643748094
0.001373194765
0.9163876579
0.0006331201249
0.915073186
0.9146934539
0.0006656838013
0.9125641526
0.001475928105
0.9122021497
0.00298958449
0.9114859886
0.003702033136
0.9107420491
0.002684320605
-0.4565901401
0.4559925655
0.004299607778
-0.4592288828
-0.00571003812
0.4559394295
0.008999491412
-0.4574721047
-0.01054650977
0.4586806877
0.002982127897
0.006355798856
-0.2269925283
-0.003168132625
0.2266731083
0.003487552651
-0.2265385962
-0.004637632179
0.2264631468
0.00470574998
-0.2279243908
-0.005652510377
0.2273401316
0.0062039471
-0.2281082916
-0.008410619057
0.2272068723
0.009276905325
-0.227762812
-0.01192945203
0.2269444812
0.01272778312
-0.2280291176
-0.01444566964
0.2277769148
0.01470022358
-0.2289429928
-0.01436880588
0.2294244501
0.0139115428
-0.2298944163
-0.01183976532
0.230746389
0.01102459882
-0.2309299839
-0.008675592729
0.2316241741
0.00801062121
-0.2344778729
-0.001983818991
0.2383602536
-0.00189764974
-0.003352221525
-0.2318433712
0.2318565225
0.003339070218
-0.4616439897
-0.004946256949
0.46279513
0.003795116706
-0.4606192257
-0.002643135929
0.4615510228
0.001711338846
0.002466231511
0.9194650983
-0.001207180782
-0.001044867651
0.001749466025
0.9171044234
0.0007999046693
0.9160227473
0.9154933586
0.0002450521656
0.9123191005
0.0005967120688
0.9118504898
0.001220878461
0.9108618222
0.001825558963
0.9091969988
0.0009403698412
-0.4555474064
0.4545951719
0.002777793429
-0.4542482069
-0.003417678006
0.4533456946
0.004320190379
-0.4521981394
-0.005524908561
0.4510051442
0.003497853704
0.003220050042
-0.2269144775
-0.005605229345
0.2249041279
0.007615470505
-0.2254354723
-0.01187642212
0.2265212323
0.01075074385
-0.2239291044
-0.01113348783
0.2223759595
0.01262776393
-0.2229926226
-0.01774987573
0.2211503038
0.0195440406
-0.223309629
-0.02480192973
0.2217021016
0.02638644379
-0.2266749123
-0.02984400936
0.2261459971
0.03037463244
-0.2316703873
-0.02965108797
0.2328259614
0.02852276946
-0.2349693647
-0.02273886852
0.2370485149
0.02071145487
-0.2430837712
-0.007296531926
0.2409829865
0.009443999267
-0.2344470924
-0.00860370698
0.2356846751
0.007395159891
-0.004866056938
-0.2332111228
0.2337353847
0.004341795095
-0.4643765483
-0.005609703445
0.4658698107
0.004116441085
-0.4624111324
-0.003073448073
0.4632849698
0.002199610653
0.003094379375
0.9210814892
-0.002699146055
-0.002011624207
0.001648570202
0.9185502326
0.0007353377054
0.9169359798
0.9162286963
-0.0001169854372
0.9124360859
-8.351114344e-05
0.9118170155
0.0002942045721
0.9104841065
0.0005891117063
0.908401933
0.0005001586901
-0.453556686
0.4530668424
0.001078955315
-0.4525629768
-0.002249058476
0.4515359776
0.003276057712
-0.4497503621
-0.00416330389
0.448304651
0.002805139218
0.002803875721
-0.2224020408
-0.003909375534
0.2213926439
0.004899355376
-0.2185454498
-0.009211590741
0.2167040847
0.0109924274
-0.2183003359
-0.0190935361
0.2145482953
0.02277870905
-0.2164994928
-0.03006796625
0.2160171362
0.03050927748
-0.2160718522
-0.03621127669
0.2151446088
0.03712768608
-0.2237772339
-0.04311941417
0.2227558626
0.0441411473
-0.2384875211
-0.04042494766
0.2394737721
0.03945409058
-0.2502489086
-0.02744584904
0.2490245462
0.02871787734
-0.2444788985
-0.02352060682
0.2473282206
0.02073694375
-0.2412455287
-0.01295606749
0.2436140358
0.01064193205
-0.004692784955
-0.2361065814
0.2370588717
0.003749004435
-0.4671339468
-0.005567261694
0.4683781203
0.004323088243
-0.4637529505
-0.00341961183
0.464159563
0.003012999362
0.002336441263
0.9230150322
-0.002019635242
-0.002250349034
0.001213835618
0.9196728383
0.0004677074322
0.917682108
0.9166964037
-0.0006577588121
0.9130938447
-0.001143184125
0.9123024408
-0.001393920832
0.9107348432
-2.729685855e-05
0.907936961
-0.0009016520085
-0.4528218972
0.4523908839
0.0004037164286
-0.4502561026
-0.0007863746289
0.449693291
0.001349186245
-0.4475580406
-0.00256489185
0.4468056278
0.001626878366
0.001690810992
-0.2177949885
-0.003459222819
0.2164712004
0.00474952206
-0.210605316
-0.009797899763
0.2091913696
0.0111363446
-0.2075352487
-0.0169364039
0.2056669883
0.01873741158
-0.2065631392
-0.02492503649
0.2036684014
0.02779621488
-0.206400285
-0.0444131862
0.1045836742
0.09876298212
0.02155849467
0.02590832026
-0.03184806175
-0.1087360249
0.1081669875
0.03241709923
-0.02571460142
-0.2507853203
0.04859783383
-0.02611566921
0.1265979755
0.1274197816
-0.03926971529
-0.2549230408
0.2584963712
0.03572824039
-0.2568995497
-0.02473042269
0.2595429424
0.02215788178
-0.2508987306
-0.01507755336
0.2535364386
0.01249978914
-0.006098045852
-0.2411002973
0.2426912217
0.004530448355
-0.4695854526
-0.004383845063
0.470233082
0.003736215619
-0.465001038
-0.002726995068
0.4658158589
0.001912174121
0.000924759315
0.9242521295
-0.000948300758
-0.001213555887
0.0002857312552
0.9203118663
3.873666161e-05
0.9179291026
0.9167351404
-0.001251824456
0.9143456692
-0.002423407487
0.9134740238
-0.00335148855
0.9116629243
-0.001695504158
0.9087085084
-0.002427531812
-0.4523262291
0.4522858334
-0.001655108473
-0.4493920421
0.001662579219
0.4492255764
-0.001496113495
-0.4451219568
0.001247296194
0.4443834132
-0.0002461192301
-0.0002633434292
-0.2127660642
-0.001388787685
0.2117572816
0.002355221895
-0.2037151614
-0.006129916993
0.2023406594
0.007430063833
-0.2010137342
-0.01162066137
0.199639768
0.01293534452
-0.1993432244
-0.01594652239
0.1987621866
0.01652050213
-0.09016741147
-0.01064014391
0.08994160229
0.01086595309
-0.03265000841
-0.1404952676
0.1434157674
0.02972950864
-0.03558856563
-0.2693207025
0.2728490151
0.03207545468
-0.2686655866
-0.02283656182
0.2715413803
0.02002151169
-0.2614973369
-0.01232641339
0.2638557098
0.01003700662
-0.005523833333
-0.2472845896
0.2488467754
0.003988210249
-0.4712351252
-0.002084833488
0.472012549
0.001307409698
-0.466434076
-0.0007906329397
0.4669200546
0.0003046543633
-0.001221202064
0.9246054892
0.0007121653452
0.000155677089
-0.001026715173
0.9201173794
-0.0005607868059
0.9174631743
0.9161743536
-0.001858130699
0.9162037999
-0.003637240048
0.9152531332
-0.005479075855
0.9135047601
-0.003206207558
0.9103847177
-0.003949077559
-0.4525509829
0.4528081831
-0.003463407764
-0.4493124086
0.00377241769
0.4496115802
-0.004071589245
-0.4440042765
0.004375630038
0.4439421125
-0.001982660062
-0.00233457559
-0.2090029592
0.001100149745
0.2081410718
-0.0002696530886
-0.198270143
-0.002922471201
0.1970856357
0.004054299396
-0.1970148992
-0.006854978623
0.1964326245
0.007396630639
-0.1996310216
-0.00718382753
0.2004312225
0.006381443496
-0.09369337807
-0.001141421412
0.09436959345
0.0004652060329
-0.01452205373
-0.1565362807
0.1570564363
0.01400189812
-0.0199363593
-0.2802221808
0.2813801562
0.01878482521
-0.2782079216
-0.014663514
0.2797995057
0.01311409667
-0.2698253036
-0.008107957605
0.2714315158
0.006551304632
-0.00235548824
-0.2525345068
0.2536314399
0.001284478814
-0.4730222646
0.0009986337356
0.4738030665
-0.001779435619
-0.4670873397
0.002053915036
0.4671160322
-0.00208260757
-0.00376014095
0.9236345063
0.002607498946
0.002123624834
-0.002600291254
0.9189575297
-0.001333993988
0.916196877
0.9148403596
-0.002427810036
0.9186316099
-0.004978488227
0.9178038114
-0.007497333235
0.9160236051
-0.004721497275
0.9130790419
-0.005470160152
-0.4533763472
0.4539448403
-0.005289990393
-0.4500746584
0.005957589966
0.4508422378
-0.006725169351
-0.4441179274
0.007516156902
0.4444934537
-0.003723296499
-0.00417060667
-0.2058604116
0.003035483796
0.2051292238
-0.002321844318
-0.1939669525
-0.0003553612291
0.1930496117
0.001243797779
-0.1952987178
-0.003088968037
0.1951236957
0.003241994818
-0.2034048544
-0.001739136431
0.2044987995
0.000644542196
-0.0978946477
0.001526590096
0.0982834621
-0.0009377225104
-0.0009776819687
0.003815556623
-0.1542097186
0.1531687026
-0.002774540645
-0.001753503855
-0.2817355966
0.2808809363
0.002612906281
-0.2830445746
-0.002962752835
0.2835161845
0.002521171768
-0.2751621763
-0.0004315831255
0.2759686483
-0.0003387703541
0.002157944096
-0.2553833158
0.2557404213
-0.002495651124
-0.4736105483
0.0052411986
0.4729616479
-0.004592298211
-0.4667880537
0.00430851101
0.4669747123
-0.004495169558
-0.006512948989
0.9213107052
0.00472754582
0.004109204253
-0.004274262794
0.9167188435
-0.002154450989
0.9140770652
0.9126859086
-0.003064428839
0.9216960388
-0.006146450655
0.9208858332
-0.009430560847
0.9193077153
-0.006159590798
0.9166810749
-0.006873003027
-0.4547979185
0.455652604
-0.007014276303
-0.4517526845
0.008053086405
0.4527889343
-0.009089336226
-0.4451953908
0.01029738184
0.4460515978
-0.005440962
-0.005711062766
-0.2030680642
0.004596200832
0.2024069887
-0.003937353552
-0.1905649117
0.00154116209
0.1898101217
-0.0007910699496
-0.1949817773
-0.0004797603817
0.1950459306
0.0004113310792
-0.2078242725
0.001723173571
0.2089382178
-0.002837131161
-0.1006016652
0.003003101734
0.1008775275
-0.001623933572
-0.001655030522
0.01358215987
-0.1441590651
0.1427493786
-0.01217247335
0.0118367577
-0.2770945471
0.275769057
-0.01050686706
-0.2842879824
0.009557707783
0.2825161463
-0.007766025643
-0.2772727057
0.007329056703
0.2771579657
-0.007194198673
0.00655155745
-0.2548857296
0.2545028687
-0.006159122614
-0.4719767031
0.009223878352
0.4706993811
-0.007946556408
-0.4670308598
0.006800136836
0.4659839679
-0.005753245004
-0.009031806975
0.9178572371
0.006454165152
0.006031110022
-0.005879396429
0.913566433
-0.002894607684
0.9110922765
0.9097913009
-0.003626728684
0.9253227675
-0.007311670152
0.9245707747
-0.01120135636
0.9231974015
-0.007420852856
0.9207321625
-0.007831591167
-0.4567297646
0.4577972545
-0.008488342677
-0.454077651
0.00973987344
0.4554507773
-0.01111299969
-0.4467098521
0.01263794841
0.4480100481
-0.006503446841
-0.007427998143
-0.200433546
0.005526733772
0.1997496751
-0.004827633248
-0.1877205769
0.002467492654
0.1870763801
-0.001802888399
-0.1955519912
0.0009701866531
0.1958424902
-0.001248152392
-0.2123459933
0.004134655035
0.2135205742
-0.005309201985
-0.1027209423
0.004333936676
0.1029958214
-0.002284851552
-0.002323964138
0.01682233323
-0.1332371911
0.1318758756
-0.0154610177
0.0193664082
-0.2715714859
0.2705938753
-0.01838916056
-0.2812508168
0.01408201716
0.2833819562
-0.01621222997
-0.2759293876
0.01623060165
0.2752568948
-0.01554680949
0.01037090152
-0.2511677577
0.2497081027
-0.008908640591
-0.4691791471
0.01250622829
0.4674246819
-0.01075176311
-0.4648767504
0.009207404789
0.4635357426
-0.007866397046
-0.01126359676
0.9150888525
0.007246780805
0.006785200544
-0.007268940777
0.909571777
-0.003536491487
0.9073598272
0.9062548094
-0.007799454811
0.9331222223
-0.01581350284
0.9325848227
-0.02400480927
0.931388708
-0.00865901639
0.9294942651
-0.02410789541
-0.4591187716
0.460419347
-0.009959591769
-0.4568856522
0.01141172156
0.4585242436
-0.01305031292
-0.447198687
0.01473686789
0.4456781943
-0.006333104774
-0.006853577549
-0.1980693144
0.004028717181
0.196713042
-0.002631438332
-0.185249697
0.001792671084
0.1851379888
-0.001634474956
-0.1970732733
0.002576212724
0.1963536979
-0.001829595411
-0.2171999346
0.005494768352
0.2184830431
-0.003392454633
-0.003385422165
-0.0527206939
0.002796368407
0.05281458809
-0.002890262593
-0.05797502649
0.006321272187
0.05747076476
-0.01227593365
0.006458923196
0.01496459766
-0.1238053932
0.2438676135
-0.02579574451
0.01451926545
-0.1237503389
-0.267777034
0.02321784427
0.2686211445
-0.02407111977
-0.2818018018
0.02154202574
0.2807626206
-0.020519049
-0.2723781276
0.01720224863
0.2710426773
-0.01588130061
0.01127261738
-0.2432788968
0.2415312775
-0.009528299995
-0.4653531965
0.01468852956
0.4632861357
-0.01262146879
-0.4621462181
0.01101736911
0.4606560207
-0.009527171587
-0.01301633358
0.9111289765
0.008712907936
0.008263301665
-0.008392878846
0.9049483223
-0.004131429731
0.9030983781
0.9021233797
-0.004287141271
0.9374093636
-0.00871069721
0.9370083787
-0.01341417355
0.9360921843
-0.009183344362
0.9346471185
-0.009383682599
-0.4637681294
0.4651460466
-0.01056126158
-0.4619499982
0.01210172946
0.4636202554
-0.01377198655
-0.4457090678
0.01560331185
0.4494676587
-0.009278113315
-0.01005415381
-0.1940774381
0.009977783317
0.1941522901
-0.01001151999
-0.1831632715
0.009098680598
0.1826952502
-0.008577353458
-0.1998199912
0.006908363114
0.199363362
-0.006420142485
-0.2228424225
0.00580382419
0.2241390262
-0.003556158097
-0.003544269792
-0.05511461775
0.0059664445
0.1106835499
-0.05508681737
-0.003220060144
-0.003228499105
-0.1112366136
0.008171358268
0.111089805
-0.01593774151
0.007913191857
0.02460832441
-0.2368416745
0.236117976
-0.02388554098
-0.2675521427
0.02219767839
0.2677042207
-0.02237800499
-0.2775843116
0.02161502897
0.2813614061
-0.02542735555
-0.2665581498
0.02263437332
0.26203359
-0.0181285758
0.01104169483
-0.2340517117
0.2324826935
-0.009472946765
-0.4614692721
0.01552482012
0.4598391471
-0.01389469511
-0.4591527855
0.01230468341
0.4574106617
-0.01056255956
-0.01248969444
0.9063402943
0.008571719265
0.008706657429
-0.009097767095
0.901556395
-0.004455484688
0.8984560957
0.897667895
-0.004454011066
0.9418633747
-0.00903922759
0.9415935952
-0.01388954886
0.9409425056
-0.009517269769
0.9399094874
-0.009634647934
-0.4666051202
0.4680538924
-0.01096604196
-0.465299564
0.0125351776
0.4669732523
-0.01420886583
-0.4556476377
0.01601265882
0.4626772842
-0.01154104676
-0.01149718316
-0.1971979672
0.01639175995
0.1992724905
-0.01843331239
-0.1824904905
0.02244449881
0.1830447864
-0.02295139495
-0.195936339
0.02166733894
0.1945630046
-0.02026055602
-0.2228603157
0.01307185288
0.2195807722
-0.00978589107
-0.1139553128
0.009536693943
0.2280218628
-0.009709364892
-0.1138938791
-0.2245003495
0.01571802108
0.2250676663
-0.01628533781
-0.241417596
0.02317460743
0.2444814366
-0.02625455384
-0.2706464556
0.03117824754
0.2709390454
-0.03151753891
-0.2782237765
0.02937180631
0.2765817153
-0.02778431086
-0.2541589056
0.02117779715
0.2542019948
-0.02124523171
0.01159873385
-0.231052093
0.2287213805
-0.009268021374
-0.4583908689
0.01719889003
0.4552768409
-0.01408486209
-0.4556481872
0.01261356418
0.4536356652
-0.01060104215
-0.01286405697
0.9016511911
0.008851183963
0.008701976231
-0.009145981376
0.8978383194
-0.004657597522
0.8939677119
0.8930102975
-0.004498436472
0.9463618112
-0.009113275071
0.9462084338
-0.0139584535
0.945787684
-0.009576583243
0.9451144869
-0.009586869781
-0.4694867406
0.4709250037
-0.01101484627
-0.4686190205
0.01254485716
0.4702282906
-0.01415412718
-0.4677470446
0.01586483054
0.4696528952
-0.008957159799
-0.008813664909
-0.2090060124
0.01772983942
0.2134289169
-0.02213387838
-0.187699847
0.0333083632
0.190475853
-0.03604811611
-0.1920838741
0.04048823151
0.1922834473
-0.04065611055
-0.2114879596
0.03781346758
0.2098114724
-0.03612271738
-0.2226337352
0.03115998051
0.2195060238
-0.0280327149
-0.2328829441
0.03347143039
0.2350864246
-0.03568724139
-0.2524868242
0.0425642885
0.2541633095
-0.04427273846
-0.2704698626
0.04552051728
0.2694068528
-0.04450680816
-0.2690676192
0.03741937947
0.2655404344
-0.03393778626
-0.2433754155
0.02145101245
0.2388615861
-0.01695296055
0.01104881004
-0.2267964033
0.2261972644
-0.01044967112
-0.4545458383
0.01751385954
0.4518705774
-0.01483859863
-0.4508018214
0.01146002594
0.4492340526
-0.009892257081
-0.01203212096
0.8955113882
0.009347983144
0.008823940759
-0.006726271935
0.8925324704
-0.004703690768
0.8919451307
0.8883066068
-0.004435738643
0.9507975498
-0.008969106627
0.9507418018
-0.0136909548
0.9505095322
-0.009402719859
0.9501301582
-0.009303906205
-0.4723041773
0.4736757237
-0.01077426624
-0.4717830165
0.01221581374
0.4732791308
-0.01371192798
-0.4713910507
0.01527896003
0.4730343605
-0.008516414415
-0.008405855354
-0.2297693088
0.009483227209
0.2348523267
-0.01456430258
-0.2029058999
0.03269553827
0.2083468689
-0.03811638799
-0.1971744732
0.05115308944
0.2003041574
-0.05426049922
-0.2088273155
0.06006829479
0.2098805628
-0.06111010534
-0.2106784927
0.05843175899
0.2091558982
-0.05691349883
-0.238469016
0.06206344476
0.2386173506
-0.06223252329
-0.2548999633
0.06121117826
0.2536679159
-0.06001474341
-0.2623502433
0.05286573348
0.2586634656
-0.04921967299
-0.2517242764
0.03500859245
0.2461470807
-0.02945804405
-0.2254750988
0.01257201259
0.2246738078
-0.01177077838
0.01023566387
-0.2245815142
0.2240858398
-0.009739989487
-0.4482050963
0.01655732207
0.4464946178
-0.01484684356
-0.4476799517
0.01321588124
0.4461026067
-0.01163853621
-0.01118071656
0.8885040143
0.009981453754
0.008206636679
-0.006307872994
0.8876596268
-0.004326874965
0.8899641327
0.8839797318
-0.004287772498
0.9550853223
-0.008652431768
0.9551064611
-0.01315884309
0.9550159435
-0.009033545748
0.9548569043
-0.008852043502
-0.4749729768
0.4762477956
-0.01030836454
-0.4747041743
0.01163280759
0.4760595562
-0.01298818949
-0.4745760227
0.01438541433
0.476014523
-0.007982427927
-0.007841486773
-0.237092948
0.008735347008
0.2374749406
-0.009117339571
-0.2275122807
0.01347510847
0.2344255761
-0.02038507881
-0.2136656355
0.03944321738
0.2191379873
-0.04490614874
-0.2161238214
0.05789051069
0.2188238103
-0.06058589443
-0.2113679713
0.06178951168
0.2136526028
-0.06408069422
-0.236728215
0.06563332086
0.2354959399
-0.0644194272
-0.2461459777
0.05744786226
0.2426453413
-0.05397224854
-0.2442764448
0.04019614427
0.2387012383
-0.0346410304
-0.2275625857
0.01612592569
0.2235957455
-0.01216122916
-0.2232833099
0.01093283719
0.2228780879
-0.0105276152
0.009314726448
-0.2227637222
0.2223605788
-0.008911583054
-0.4449021037
0.01532849092
0.4434258837
-0.01385227096
-0.4446412645
0.01241489109
0.443226691
-0.01100031758
-0.01396687356
0.8834506159
0.009393095517
0.009627176406
-0.009171764796
0.8828645181
-0.001728767113
0.882521135
0.8822509647
-0.004075415418
0.9591607377
-0.008206632969
0.9592376787
-0.01243358855
0.9592428991
-0.008522661774
0.9592330034
-0.008287025797
-0.4774426577
0.4786067957
-0.009686799718
-0.4773376024
0.01088196369
0.4785433144
-0.01208767566
-0.4773536964
0.0133108202
0.4785928413
-0.00734925226
-0.007200712772
-0.2385177091
0.007988395672
0.2388339786
-0.008304665176
-0.2379913517
0.009246296931
0.2382998823
-0.009554827622
-0.2365743316
0.01045338249
0.2374226176
-0.01130126969
-0.2278781971
0.02334355549
0.2312088598
-0.02667376535
-0.220810202
0.03323694919
0.2227590673
-0.03518894305
-0.2308275725
0.03460346527
0.2291606501
-0.0329431829
-0.2306541187
0.02414829222
0.2265926585
-0.02009167885
-0.2237376376
0.01178007215
0.2235244128
-0.01156684739
-0.2226110962
0.0108184186
0.2223321577
-0.01053948005
-0.2218089879
0.009642081628
0.2214956735
-0.009328767233
0.00836760194
-0.2212881767
0.2209595859
-0.008039011065
-0.4420606764
0.01396816368
0.4408022634
-0.01270975078
-0.4419295711
0.01146103887
0.4406809115
-0.01021237928
-0.01307189031
0.8788420256
0.008697946752
0.008982533839
-0.008624174461
0.8784168022
-0.004280844708
0.8781778053
0.87797012
-0.003818845876
0.9629795836
-0.007674189152
0.963093022
-0.0115841495
0.9631528594
-0.007921718708
0.9632285851
-0.007658012528
-0.479689362
0.4807399329
-0.008972289641
-0.4796723905
0.01003732693
0.4807321167
-0.01109705316
-0.4797365993
0.01215577638
0.4807906439
-0.006670278597
-0.006539542367
-0.2396951465
0.007217279445
0.2399561779
-0.007478310863
-0.2391231692
0.00823839661
0.2393671353
-0.008482362674
-0.2381790147
0.009180365074
0.2383958733
-0.009397223756
-0.233349164
0.009804521017
0.2333175775
-0.009772934501
-0.2255280179
0.0102663406
0.2258315439
-0.01056986661
-0.2271371495
0.01068119947
0.2271363555
-0.01068040549
-0.2248438899
0.01054141547
0.2247562139
-0.01045373944
-0.2229757387
0.01008167344
0.222818329
-0.009924263762
-0.2216053412
0.009366015275
0.2213944266
-0.009155100726
-0.2206639644
0.008464607523
0.2204184412
-0.008219084342
0.007450643263
-0.2200879964
0.2198181947
-0.0071808416
-0.439642855
0.01258869633
0.4385756134
-0.01152145471
-0.4395431815
0.01044487191
0.4384504841
-0.00935217448
-0.01206402665
0.8746907387
0.00795565088
0.008259662644
-0.007994219484
0.8743469951
-0.003978176217
0.874161762
0.8739919438
-0.003536524209
0.9665161078
-0.007093114092
0.9666496119
-0.01067039738
0.9667301428
-0.007276600652
0.9668383975
-0.007003609109
-0.4817087071
0.4826493246
-0.008217218165
-0.4817202515
0.00915856026
0.4826450242
-0.01008333299
-0.4817608865
0.01099479997
0.4826531713
-0.005998055203
-0.005889029521
-0.240666465
0.006466295168
0.2408820119
-0.006681842026
-0.2400206368
0.007298098991
0.2402152073
-0.007492669522
-0.2389598835
0.008039025854
0.2391232161
-0.008202358424
-0.233222434
0.008473594139
0.2331910842
-0.008442244388
-0.2265483679
0.008903062322
0.2267375708
-0.009092265313
-0.2271242168
0.009141990726
0.2271170585
-0.009134832454
-0.2245253585
0.009019566876
0.2244572696
-0.008951478041
-0.2224066912
0.008666907602
0.2222866416
-0.008546858049
-0.2208383218
0.008118650884
0.2206750622
-0.007955391266
-0.2197620839
0.007414090598
0.2195669249
-0.007218931613
0.006598245575
-0.2191067117
0.2188837109
-0.006375244765
-0.4375927053
0.01126137251
0.4366874597
-0.01035612694
-0.4374591967
0.009430451623
0.4365071718
-0.008478426749
-0.01101427006
0.8709831889
0.007208822111
0.007512997819
-0.007326818462
0.8706595435
-0.003654204396
0.8704891479
0.8703377394
-0.003243081003
0.9697591889
-0.006492886953
0.9698994178
-0.009737256028
0.9699745118
-0.006621150255
0.9700745077
-0.006352216
-0.4835089463
0.4843450425
-0.007457246479
-0.4835050599
0.00828447846
0.4843086457
-0.009088064271
-0.4834723241
0.009871452397
0.4842273905
-0.005361547171
-0.005264971634
-0.2414689626
0.005758225595
0.2416472049
-0.005936467895
-0.2407391033
0.006439091465
0.2408958552
-0.006595843413
-0.2395523897
0.007029384825
0.2396776937
-0.007154688811
-0.233104578
0.007339358318
0.2330794351
-0.00731421543
-0.2271932486
0.007733795992
0.2273144781
-0.007855025526
-0.2270883705
0.007868032335
0.2270768205
-0.0078564823
-0.2242740679
0.007756350817
0.2242190411
-0.00770132405
-0.2219681315
0.007476334142
0.2218739725
-0.00738217508
-0.2202401759
0.007045868489
0.2201112734
-0.00691696605
-0.2190417732
0.006485689734
0.2188846628
-0.006328579317
0.005822953146
-0.2182998215
0.2181158154
-0.005638947118
-0.4358521625
0.01002081033
0.4350818032
-0.009250451072
-0.4356460826
0.008454657191
0.4348183713
-0.00762694593
-0.009971379255
0.8676907879
0.006486196041
0.006777584144
-0.006655328538
0.8673434927
-0.00332589532
0.8671597147
0.8670118441
-0.002950937327
0.9727101262
-0.005898202407
0.9728466829
-0.008820882458
0.9728971919
-0.005981641017
0.972959206
-0.005723939732
-0.4851037837
0.4858434853
-0.006721342658
-0.4850550843
0.007446004747
0.4857518964
-0.008142816855
-0.4849230581
0.008815315856
0.4855640482
-0.004772934699
-0.004683371246
-0.2421331772
0.005107147466
0.2422811309
-0.005255101105
-0.2413201096
0.005667939443
0.2414476976
-0.005795527448
-0.2400090297
0.006143925159
0.2401062712
-0.006241166709
-0.2330186751
0.006369214187
0.2330038326
-0.006354371671
-0.2276073928
0.006733216756
0.2276853401
-0.006811164024
-0.2270377533
0.006801380232
0.2270235594
-0.006787186279
-0.2240688721
0.006698390573
0.2240232182
-0.006652736741
-0.2216211477
0.006470312597
0.2215455809
-0.006394745868
-0.2197648558
0.006125298484
0.2196613214
-0.006021764061
-0.2184592502
0.005673111832
0.2183312184
-0.005545080067
0.005129022525
-0.2176330205
0.2174798062
-0.004975808232
-0.4343705935
0.008884997719
0.4337140309
-0.008228435145
-0.4340709454
0.007543489145
0.4333515303
-0.006824074061
-0.0089713947
0.8647777161
0.005805945286
0.006078521201
-0.006005187286
0.8643772853
-0.003006302572
0.86416083
0.8640055415
-0.002668498813
0.975378625
-0.005325542124
0.9755037262
-0.007944705636
0.9755163554
-0.005373331066
0.9755199682
-0.005132136743
-0.4865107797
0.4871629869
-0.006025538311
-0.4863985976
0.006658946248
0.4870020997
-0.007262448422
-0.4861549822
0.007839413046
0.4866998832
-0.00423396744
-0.004150346596
-0.2426854058
0.004516540218
0.2428088486
-0.00463998302
-0.2417947144
0.004981621545
0.2418996172
-0.005086524329
-0.2403644697
0.005369384168
0.2404405687
-0.0054454832
-0.2329765496
0.005536752495
0.2329732468
-0.005533449613
-0.2278732307
0.005874703684
0.22792299
-0.005924462944
-0.2269784496
0.005899823692
0.2269627588
-0.005884132833
-0.2238974606
0.005804492664
0.2238589015
-0.005765933606
-0.221340826
0.005615264696
0.2212790963
-0.005553534985
-0.2193810867
0.005334173795
0.2192967431
-0.005249830234
-0.2179827068
0.004964479512
0.2178772583
-0.004859030963
0.004513580465
-0.2170773704
0.2169488392
-0.004385049299
-0.4331069934
0.007859739986
0.4325456966
-0.007298443192
-0.4327026574
0.00670776567
0.4320770495
-0.006082157782
-0.008035258833
0.8622059652
0.00517861917
0.005428390585
-0.005391876711
0.8617339032
-0.002703498755
0.861472452
0.8613020427
-0.002401907194
0.9777805322
-0.004786788428
0.9778886075
-0.007125191126
0.9778547581
-0.004806569061
0.9777869495
-0.004585603422
-0.4877485081
0.4883223193
-0.005380380284
-0.4875620129
0.005933362032
0.4880845526
-0.006455901731
-0.4872026003
0.006951209482
0.4876665455
-0.003745173275
-0.003669981363
-0.2431467887
0.003984768929
0.2432502617
-0.004088241853
-0.242186141
0.004372883835
0.2422731438
-0.00445988672
-0.2406433129
0.004691279097
0.240703297
-0.004751263227
-0.2329802887
0.004818901588
0.2329880849
-0.004826697819
-0.228041841
0.00513451753
0.2280728843
-0.005165560871
-0.2269143574
0.0051309365
0.2268978934
-0.005114472456
-0.2237520143
0.005042520414
0.2237190423
-0.005009548414
-0.2211107253
0.004883451932
0.2210596362
-0.00483236284
-0.2190671986
0.004651594492
0.2189977279
-0.004582123749
-0.2175890259
0.004346297487
0.217501435
-0.004258706652
0.003969754272
-0.2166110058
0.216502517
-0.003861265434
-0.4320258207
0.006944612482
0.4315442582
-0.006463050048
-0.4315131589
0.005952453221
0.4309684457
-0.005407740069
-0.007175885124
0.8599374924
0.004609874275
0.004834483671
-0.004825395141
0.8593834132
-0.002422820927
0.8590698778
0.8588792218
-0.002154698352
0.9799352306
-0.004288578794
0.9800224879
-0.006370956782
0.9799371361