/*--------------------------------*- C++ -*----------------------------------*\
| =========                 |                                                 |
| \\      /  F ield         | OpenFOAM: The Open Source CFD Toolbox           |
|  \\    /   O peration     | Version:  v1912                                 |
|   \\  /    A nd           | Website:  www.openfoam.com                      |
|    \\/     M anipulation  |                                                 |
\*---------------------------------------------------------------------------*/
FoamFile
{
    version     2.0;
    format      ascii;
    class       volScalarField;
    location    "1.55";
    object      k;
}
// * * * * * * * * * * * * * * * * * * * * * * * * * * * * * * * * * * * * * //

dimensions      [0 2 -2 0 0 0 0];


internalField   nonuniform List<scalar> 
12556
(
36.90870234
36.9087624
36.90886591
36.90905646
36.95441871
36.95504451
36.95619179
36.95885847
36.96414606
36.97331114
36.986094
37.00139666
37.00693799
37.00695449
37.0015223
36.9873715
36.97512214
36.96567966
36.96011798
36.95685154
36.91060033
36.90934267
36.90874785
36.90842073
36.72744908
36.72764421
36.72787583
36.72835905
36.77426082
36.77761297
36.784633
36.81749654
36.84248613
36.88572894
36.9492125
37.01220796
37.03862394
37.04068001
37.02093187
36.96842437
36.90514808
36.85780707
36.80673549
36.78810538
36.73412071
36.7302467
36.72839379
36.72747489
36.54740739
36.54794759
36.54873718
36.55035615
36.59738687
36.60612667
36.62330751
36.6735388
36.73523738
36.83965197
36.96658672
37.07000164
37.1158232
37.11987981
37.07972636
36.99395542
36.87644992
36.76805713
36.67311748
36.63109504
36.56492438
36.55575982
36.55148948
36.54979224
36.36868744
36.36928569
36.37062198
36.37413958
36.42431703
36.4429263
36.48192152
36.5648082
36.69536741
36.87704861
37.07087391
37.22463664
37.3035024
37.2962048
37.22022761
37.08547861
36.91403592
36.74411075
36.57730228
36.49537312
36.40404257
36.38709517
36.37878232
36.37556078
36.19195635
36.19297778
36.19578183
36.20315144
36.25854144
36.29279853
36.3675808
36.50552263
36.7275515
37.00316627
37.30365758
37.55746637
37.70613558
37.67433571
37.51909317
37.284242
37.02672693
36.78122505
36.53966339
36.38836387
36.25724362
36.22426665
36.20934846
36.20357724
36.01684462
36.01839918
36.02321084
36.03589989
36.10208132
36.16098284
36.29171375
36.50689419
36.8214723
37.23265012
37.73423234
38.26112132
38.60853936
38.49716924
38.09345991
37.65576241
37.24175103
36.88229414
36.55243839
36.31628703
36.12418657
36.06675101
36.04201577
36.03232757
35.84468961
35.8475562
35.85619755
35.87749162
35.95766693
36.05013616
36.25633877
36.54704449
36.97971954
37.58756126
38.46820292
39.86344122
40.61482455
40.46913601
39.13483679
38.25971302
37.57921563
37.05108239
36.59867565
36.28275129
36.0048327
35.91498636
35.87618857
35.86104215
35.67654892
35.68101331
35.69440883
35.72834404
35.82620577
35.96391803
36.25870418
36.61890332
37.18718119
38.04027004
39.49981133
42.64739688
43.53076376
40.81166871
39.11394378
38.03777626
37.28308512
36.67861842
36.27771804
35.90156099
35.77023519
35.71290135
35.690748
35.51545395
35.52273595
35.5436158
35.59430439
35.70947241
35.90318331
36.28245581
36.71874786
37.42562677
38.51654931
40.4868209
45.28237656
48.69679006
42.85861373
40.13319602
38.57819463
37.55888769
36.78143221
36.28816533
35.81370375
35.63514695
35.55546408
35.52488984
35.36299881
35.37328682
35.40210189
35.47122638
35.61128787
35.86582151
36.32171803
36.8360828
37.6687072
38.94909271
41.22869297
46.53011941
52.1697768
44.71577963
41.14897791
39.13009523
37.84444999
36.89576763
36.3077327
35.742251
35.5135574
35.4088698
35.36859276
35.22237648
35.2370762
35.27678655
35.36929143
35.53159189
35.84793077
36.37313376
36.96457474
37.90625916
39.33306255
41.82638102
47.06737256
53.83758441
46.09528991
42.01087513
39.62402641
38.11381971
37.00783374
36.33240774
35.68597656
35.40824874
35.27787572
35.22707927
35.09338103
35.11208964
35.16177214
35.27679246
35.46813756
35.84793084
36.43348681
37.097565
38.13348001
39.68273832
42.37329628
46.82100831
54.53937479
46.99917767
42.65385362
40.01612906
38.33969476
37.10683357
36.35842606
35.64480989
35.31999104
35.16493701
35.10343708
34.9773552
35.00138683
35.06519927
35.20634687
35.41708698
35.85222547
36.49616928
37.23022922
38.34605108
40.00597514
42.94356794
46.27247758
43.15029063
54.34866102
47.51324612
43.06978115
40.28136818
38.50782764
37.18498501
36.38009437
35.61075271
35.24733087
35.06925912
34.99787043
34.87169388
34.90073566
34.97740727
35.14087473
35.38972428
35.88685683
36.59986596
37.38350599
38.57671069
40.36230755
43.56855989
44.70533951
53.91984879
54.30520354
47.71454393
43.25439261
40.43199916
38.61878277
37.24111565
36.39375651
35.57783763
35.18545586
34.98727955
34.90725388
34.77501324
34.80896416
34.89776012
35.08268827
35.35818838
35.90311088
36.67367486
37.52437987
38.79886696
40.68374992
43.96235456
40.92277601
54.93934043
53.61439562
47.52355254
43.2281743
40.46656112
38.67670771
37.26949038
36.39543176
35.54286608
35.12862502
34.91391609
34.82688551
34.68334951
34.72202512
34.82191572
35.0273161
35.32842238
35.91234544
36.73398229
37.6752162
39.0727117
41.10148147
44.25470632
36.17594016
53.1181737
52.25715907
46.92735353
43.01596036
40.41320961
38.67911347
37.26653377
36.38007414
35.49776922
35.06899874
34.84315769
34.75066795
34.59516231
34.63819247
34.74770164
34.97143571
35.29563106
35.90948745
36.77247864
37.79883707
39.38116561
41.61268132
44.03769418
27.35144605
52.05548779
50.59918987
46.01894156
42.6544206
40.32145586
38.64443821
37.2393511
36.33931208
35.44173402
35.00514786
34.77059817
34.6738604
34.5061066
34.55311932
34.67108753
34.91144764
35.25644762
35.89335929
36.78585986
37.85555469
39.59010909
41.98111548
42.78295989
25.90522406
50.98168839
48.96068245
45.11346331
42.26750662
40.1651256
38.55578069
37.16566576
36.26842019
35.36763423
34.92866247
34.69130735
34.59171255
34.41655549
34.46707616
34.59211473
34.84644903
35.20859072
35.86205745
36.77707694
37.87339797
39.63540028
41.98166748
40.07683425
29.25168313
49.7451659
47.68487059
44.45431194
41.92212349
39.95115451
38.41403266
37.0574991
36.17305989
35.27827027
34.84141351
34.6035547
34.50275862
34.32230958
34.37595856
34.50729632
34.7741501
35.15113666
35.81619855
36.74591697
37.86129914
39.62421854
41.71164086
37.89005388
31.38651472
48.5276731
46.82529882
43.92318897
41.5693242
39.70923102
38.23912052
36.92394747
36.05717812
35.17387844
34.74191236
34.50529547
34.40410922
34.2264272
34.28275521
34.41931655
34.69602702
35.08405849
35.75718148
36.69686507
37.82503463
39.57028898
41.31183383
35.71081402
32.59760111
47.40746187
46.05116655
43.42935529
41.22312167
39.45586853
38.04493743
36.77197621
35.92495848
35.05754987
34.63289349
34.39879732
34.29785378
34.12396222
34.18271623
34.32427111
34.61022532
35.00813413
35.68688113
36.63344487
37.76986833
39.47897976
40.83670044
33.5638611
33.44864061
46.37979497
45.34175523
42.96897834
40.8899107
39.20026682
37.84060945
36.60706144
35.78034317
34.92985405
34.51305997
34.2819551
34.18164203
34.02114273
34.08197849
34.22770878
34.52042123
34.92442984
35.60726378
36.55876615
37.69968566
39.35380734
40.30877519
31.40220968
33.92016615
45.43318005
44.68708427
42.53735556
40.57168584
38.94761507
37.63196327
36.43371339
35.62668708
34.79516223
34.38739099
34.15972351
34.06030254
33.91059094
33.97343809
34.12358538
34.42361877
34.83435104
35.52023585
36.47550177
37.61724741
39.19533669
39.74036792
29.28134579
34.04481161
44.55812428
44.07959812
42.1308849
40.26805079
38.70062115
37.42261907
36.25539795
35.46679558
34.65242104
34.25270798
34.02824158
33.92979181
33.80268984
33.86728215
34.02106514
34.32578192
34.73903931
35.42748499
36.38577309
37.5240323
39.00447133
39.14471018
27.27632304
33.94689689
43.74709984
43.51343757
41.74682666
39.97785677
38.46049248
37.21485107
36.07464418
35.3028284
34.50735126
34.11665677
33.89557002
33.79815398
33.68530248
33.75172761
33.90974135
34.2209393
34.63977411
35.33041722
36.29107766
37.42026283
38.78421044
38.52925621
25.41106528
33.69941711
42.99138559
42.98355081
41.38278141
39.69990752
38.22757667
37.01000621
35.89322494
35.13653533
34.35573771
33.97197152
33.75368134
33.65722393
33.57517054
33.64316911
33.80447265
34.11877702
34.53728286
35.230138
36.19231012
37.30562169
38.53991923
37.89956381
23.71138539
33.3574719
42.28554058
42.48549548
41.03665805
39.43321115
38.00188441
36.80889822
35.71240312
34.96913284
34.20639438
33.83114381
33.61586348
33.5203486
33.45199105
33.52178322
33.68727223
34.00789641
34.43263734
35.12747688
36.089871
37.17994413
38.27440762
37.26107265
22.2242896
32.96574973
41.62440077
42.01544148
40.70660952
39.17692093
37.78327462
36.61198775
35.53303076
34.80168727
34.04949762
33.67946417
33.46641966
33.37171359
33.34284462
33.41411168
33.58258787
33.90489034
34.32609553
35.02307251
35.98393357
37.04357558
37.99186204
36.61830712
20.92430342
32.56046665
41.00232465
41.57026635
40.39115873
38.93040958
37.5716186
36.4195688
35.35571595
34.63474407
33.90069098
33.53876658
33.3283043
33.23436455
33.2139286
33.28702995
33.45968158
33.78860194
34.21874771
34.91744628
35.8745812
36.89740305
37.69773288
35.9761503
19.79087408
32.15517094
40.41492208
41.14738903
40.08923799
38.69325542
37.36680606
36.23180941
35.18088229
34.46906847
33.73952214
33.38084148
33.17210358
33.07879518
33.10941099
33.18390021
33.35926043
33.68855557
34.11035861
34.81101517
35.76200069
36.74259514
37.39623076
35.34082059
18.87022153
31.75542378
39.85938715
40.74537692
39.80037623
38.46527602
37.16875965
36.04880881
35.00883222
34.30472798
33.59609115
33.24533734
33.03872364
32.9459877
32.97335086
33.04977791
33.22930984
33.5656894
34.0023359
34.70416342
35.64650803
36.580443
37.08878706
34.71664146
18.11853493
31.3680228
39.33589447
40.36423032
39.5246905
38.24645399
36.97738243
35.8705495
34.83975772
34.14250593
33.42859402
33.07923555
32.87402276
32.78176233
32.87799845
32.95569392
33.1377036
33.47370451
33.89379786
34.5972434
35.52844263
36.412115
36.77721109
34.10618017
17.50019164
31.00202099
38.84604018
40.00467169
39.26249203
38.03670942
36.7924441
35.69685915
34.67382124
33.98198891
33.29742771
32.95548544
32.7518263
32.6599613
32.73157137
32.81136933
32.99758827
33.34030633
33.78714557
34.49084434
35.40830556
36.23864126
36.46301055
33.50858321
16.99654019
30.66610228
38.39154914
39.66739047
39.01390369
37.83577603
36.61359323
35.52756139
34.51141525
33.82467083
33.11646577
32.77568139
32.57341289
32.4819171
32.65066453
32.7316013
32.9200551
33.2639858
33.68098122
34.38591682
35.28734505
36.06070543
36.14669777
32.92185295
16.59524887
30.36602818
37.9734834
39.35263118
38.77855834
37.64308465
36.4402977
35.36226235
34.35383254
33.67055309
33.00986734
32.67292118
32.4714833
32.38019818
32.46445447
32.5481253
32.74188215
33.09314853
33.58084535
34.28466361
35.16928052
35.87953032
35.8308806
32.34813885
16.28937975
30.10502083
37.59473489
39.06180574
38.55654642
37.45827018
36.27218514
35.20069634
34.20554236
33.52579057
32.77673345
32.44203065
32.24214176
32.15121359
45.0693967
49.33829665
43.95507975
46.40903267
53.15675028
49.80907944
47.05745479
54.85626827
53.46594284
46.87489963
55.51304884
54.96631253
46.30977574
39.88937978
42.28072454
55.78741594
55.55143863
45.25485657
48.3595722
40.08782334
53.39636636
56.22013907
55.80652388
42.19837851
40.58334472
43.44181121
40.34648627
54.12960989
45.961411
48.13174197
43.34047806
41.447649
41.06216291
45.28820781
44.21458098
57.13173531
60.13775205
51.85538583
45.63810147
43.95927663
41.68786849
46.11972166
45.41339639
46.8377867
49.31884722
50.37719396
55.00190041
54.64746327
53.70393087
47.29905382
46.11469925
42.25302598
46.40654152
46.18678958
47.03081272
45.27210266
47.49237942
56.72011145
55.65796082
42.81753497
46.33379151
46.41469414
46.58844294
40.01180699
42.6854816
40.84602609
57.90505381
57.56797605
43.45537331
45.82544613
46.30152744
45.94738555
33.07410635
36.36898464
43.54491381
50.88215483
48.77136679
50.06957205
52.33111048
44.97524907
49.56640444
60.11998957
54.50175176
47.0383223
53.26731365
58.66393187
50.50276166
51.20309048
45.9651754
52.05860582
50.62218779
52.52922276
52.2112566
54.77672356
56.85408517
51.69184719
58.16539404
56.64874066
58.83910953
58.31837704
51.43423806
47.70472066
49.13716839
46.91803208
48.7454312
46.69246011
50.52906491
48.87225207
55.45776767
55.09516039
54.39911404
57.13038383
57.38521836
56.57003905
57.08571746
54.21192558
42.83346913
45.13428563
47.00093083
44.05426363
41.26458931
46.5549434
44.20952646
57.50108904
56.83981893
36.54066105
39.81597957
46.55818468
44.15288243
37.63069301
33.90168415
41.10709144
37.86938369
46.30587324
58.10353268
57.94535387
40.31167331
40.35206772
33.00762112
45.89685548
44.92812982
32.06848062
85.71181026
33.79757184
32.10161578
44.26070349
40.26506357
44.01190389
41.92368172
43.89537661
48.31547222
44.47569891
69.00109753
50.12166991
45.83207734
51.27032761
50.83323575
59.60441009
54.49908816
48.35503057
47.61207165
70.10061771
47.13637422
45.40144295
48.73633097
58.36719091
58.19670511
50.63790276
48.70912045
44.23937302
59.51269664
47.8509141
57.22991195
45.48303998
52.14977684
46.35598129
44.91633975
41.63429526
55.31650027
57.72098235
57.88099866
57.42338522
57.69100099
55.25027675
39.37744753
61.96610342
41.38499524
42.45552588
41.9656385
44.38125882
45.32000457
42.40892334
42.4679642
75.2530746
50.67264252
68.64579012
48.74148916
64.00807965
49.69439987
59.2598805
59.45367914
54.72098491
54.70220298
41.75501948
53.23955638
56.30053666
42.67250197
41.49604514
56.62490441
43.51907593
56.15595219
41.47017488
46.11494242
45.72732439
50.65314073
48.14466243
61.72224382
35.29619924
43.70771025
43.16401847
44.40182293
43.90456751
35.43437174
64.76145857
60.08376046
51.22576559
60.55302608
61.6670325
55.27625194
60.14461138
51.53309912
47.10237009
54.3705332
47.00074567
60.68047843
55.30052317
47.82532389
58.12226102
64.57942682
58.31999238
57.91388244
51.38572208
46.80973912
51.29486128
52.64440807
50.76882917
54.61799309
47.26699117
50.26930121
52.58115719
55.9328176
56.10990636
57.44497426
56.19061524
55.60162057
56.73940903
56.34693172
57.32815689
59.25386063
54.20983467
53.09532467
55.37052866
54.53267375
59.20428336
47.81197141
47.67951596
49.81195913
49.70752375
55.69078063
57.67490193
55.60833554
42.94526902
42.75451889
45.45045448
45.29136385
41.56582536
44.10082371
57.16915279
41.30956838
41.52858293
38.55507338
45.03036394
44.56577482
45.59273394
45.17603705
38.72550312
39.43987293
36.63500054
36.46841736
39.99614948
39.83825134
71.35100499
39.34224316
53.23798908
51.39522347
42.95347655
42.43557701
32.39151803
32.73419751
42.0792275
47.47230586
33.30060114
85.79472032
49.3804503
76.84194933
33.2219289
42.06145585
57.64554459
42.84409103
68.90664127
40.72892083
42.51266263
43.87507264
45.21235534
45.70257898
44.10328326
37.06973043
42.13073288
55.40715475
55.47826332
56.11712768
58.14965142
43.81116677
51.64215885
54.98742735
53.76261728
39.42816549
58.46213022
58.41704117
49.40398113
44.33748623
43.95624922
47.21514381
48.78916204
44.15784851
44.46209359
58.14872042
61.89689952
60.04641105
60.02514783
54.79121083
44.69126975
44.47711239
51.1009786
50.65598624
54.43564203
46.26187536
47.81182432
47.53466421
48.15035694
47.90010613
46.42397969
46.59427653
46.23716629
41.62497967
33.62608977
39.79563421
39.3273289
78.75387861
59.7358694
48.98554037
59.6235134
64.17750813
62.38217933
56.08156792
50.7547056
49.11196984
52.67223933
51.26845239
56.47663163
55.22144794
51.50095022
51.3249225
56.33778832
48.35001085
48.43186435
48.22699839
42.51627614
43.09559346
47.12349598
44.49678089
44.44572933
55.29179701
57.2443486
57.34148695
57.29377033
56.46341893
57.07995453
56.83821577
57.2687318
57.13588265
56.46862106
43.99528935
47.03369513
46.70761808
47.43836087
47.13812251
44.14977314
43.58956343
37.42376805
37.810138
33.8870894
34.19315421
41.80333104
46.09407395
41.58086045
42.35674398
37.96163248
38.39446544
44.67324786
57.25522123
44.73663133
49.61064821
76.06093515
40.87614892
37.15231649
35.0973926
40.63659232
33.57559416
33.81538711
33.03712125
38.97452316
62.000637
37.99391892
40.95718528
40.05164925
39.17545316
38.73246968
32.83996973
42.1920079
40.61872911
46.9573179
31.96806647
99.46207083
44.97167528
41.80298578
44.8575764
33.60394851
32.24745454
60.94009145
60.42323678
59.6093681
59.28328379
58.98824158
39.90425816
40.38165275
70.52132966
57.11135062
56.97899838
51.63776275
64.88457501
51.4958549
65.31678985
52.84288281
50.71654919
43.43279934
42.76493942
57.75850744
66.38994387
59.66649853
46.56143451
39.28024137
62.26788471
75.89551349
46.95873116
58.9239542
82.79844024
41.16871979
44.8325401
39.66152785
40.58522143
74.67830365
75.74783719
59.54812727
55.08386995
64.21939381
60.48927321
54.22212859
50.53470935
57.45142478
57.05818918
56.71483788
58.51438715
59.89612042
59.56559749
57.75035229
46.2865394
45.05372852
54.73767392
52.65390857
51.66484299
46.85837012
51.95242969
51.22126449
54.47603691
50.67746353
46.82154867
44.00123966
45.30241192
41.71095622
49.6877427
48.46023169
47.95118086
46.03418779
44.64305614
47.97265692
46.61084279
46.34428985
48.12801584
39.96255299
39.84426022
40.45770606
39.93555783
34.1769802
35.84043861
41.03898245
40.60474158
63.02593889
62.3262353
61.86430624
55.00124543
55.70976756
53.77530538
54.72691882
62.21769425
58.24665082
56.20233922
56.05374229
55.8860158
56.17361297
58.59014629
58.8007951
52.2705081
53.4506718
62.64379227
63.17515502
64.49112886
63.59652875
59.33818829
65.39591728
66.86355081
65.9267651
66.296358
65.42113037
67.33786133
66.052868
56.50311207
63.4649663
64.65197141
45.15931712
51.54309016
50.51050268
52.51591993
51.82255995
45.85551013
49.08289904
48.37653216
50.15173314
49.32627129
52.30244377
55.16947092
54.53842201
55.91178191
55.36934866
52.85158933
48.46767425
53.43284718
52.75003186
54.32073697
53.65731672
48.9021699
51.97131658
51.52048715
55.39245515
56.33352449
53.41216133
52.2087069
41.91821559
41.35543934
42.89401285
42.11553297
40.456703
39.90544858
41.17661121
40.62230134
47.25530104
46.5974497
48.14917939
47.48086916
45.29177535
43.40854658
46.35914592
45.70213907
43.27977342
43.32833333
44.27013358
43.43365305
57.39139422
44.45019972
45.86662767
43.35575548
43.95762057
36.91276822
37.2704977
43.43356415
34.57562542
34.32247401
34.95111848
34.67940488
34.15348487
42.03507356
34.39946074
36.46766161
39.35186833
41.28932109
45.93868355
38.90578468
36.11310298
39.79381235
38.94017492
35.4004259
35.07032793
35.91382266
35.52502996
44.82711343
38.54854387
39.06877932
66.3710756
41.06559393
64.91253889
56.57467689
64.40984785
41.08218608
78.92234554
40.30181851
75.62620368
66.45683248
37.01286789
35.79517959
33.2738539
33.50754355
40.47975053
39.25491067
33.03624878
33.223911
71.73965464
32.76150521
38.52332511
37.77312869
86.29135007
91.21145305
31.91595809
94.92256602
78.92452587
44.05890864
33.53201432
85.56055691
57.83078876
93.96302333
61.80350155
32.39142676
43.05575598
40.85783392
39.40103992
69.64673519
69.05874784
54.97133776
48.95633486
48.54150775
70.15851426
39.37292564
44.81105419
41.12630043
57.89201654
58.01170985
55.67820975
47.20796147
46.27168457
50.91057615
58.20158131
46.89648326
47.19488003
41.81979578
42.2112004
44.96937701
52.54812242
57.14255039
60.37909185
49.81270968
48.75581985
48.67866527
48.75685766
48.76578347
49.9624507
41.24014253
40.1837793
44.95793236
50.43751395
52.47707749
57.75210364
41.59209994
41.17555816
35.96771359
61.34391965
63.24908447
56.06079612
48.6395695
48.49130707
48.55447884
48.34731194
44.8462631
45.57596282
45.93346829
47.03303717
49.25175345
37.4941755
42.1672319
41.72927781
57.67090811
54.04127485
42.78713965
32.59374311
32.64384187
34.08003838
50.02761572
72.80791869
64.51827527
39.53533088
43.71798208
41.6764761
32.03564458
33.72823267
32.50975773
32.55594462
32.13569806
69.7798243
58.87465255
47.28154008
50.40057543
68.98611066
40.48972491
40.10605481
47.65785149
58.62970947
48.53987346
46.76814149
49.2877456
43.30394534
42.26280024
40.67031127
79.51648156
82.8281335
84.23869877
72.11046589
81.28784949
43.70112194
44.11893445
47.81731955
71.20496373
64.89241148
61.69615168
74.74619468
71.39804607
42.14863215
49.32630365
47.34127286
61.59317177
60.58273448
48.4963916
51.16102777
50.10239336
41.58961003
57.49097397
43.55721136
44.3515802
55.2158613
42.80373051
44.47619136
64.38189412
65.2700187
60.86679903
61.01688366
59.53680653
59.37309669
55.96990315
57.22346861
56.7622947
59.17740213
58.91598338
59.61465012
50.44702899
51.87869142
58.18555689
59.93263727
66.81552229
62.39231392
66.75952572
67.16274811
63.77319007
43.18707536
45.81562611
45.20818944
50.14098067
49.86020304
46.5284483
42.71317389
42.42507411
44.68995349
44.27530181
51.27248243
53.91152124
53.51616778
56.33394289
55.92367787
54.00348419
47.61859173
50.86512173
50.53366867
53.11900356
52.73132239
49.80160599
44.05498918
44.64312406
48.21840073
47.25947833
43.28176717
43.86318339
48.11888139
48.70375933
50.13201239
40.7868726
40.6104985
42.17789808
41.95151883
37.98738263
40.3566255
40.21189491
49.36554612
47.30454727
47.91653721
56.38657832
55.70500606
45.18916188
45.99482798
57.16147096
55.38157829
55.70385617
55.37084186
44.48211972
45.41998516
42.71429359
42.30748819
37.86804876
39.1782239
43.20349569
42.83600454
34.281787
34.34594077
36.7513445
36.33762463
34.08750004
34.16947592
71.33006763
32.36792673
34.01157042
33.02739805
109.4766848
32.201432
43.19518757
74.28990661
67.76804001
32.17741819
32.21663422
33.38118556
84.07696323
89.95829525
87.3122553
70.96301674
33.09155122
32.0888529
32.13123271
48.19346082
39.60151092
39.6376914
69.09411868
68.07678773
52.70536216
50.19818517
41.73063757
59.64237949
62.41103665
65.00716236
46.08789047
67.403237
58.89017616
67.83247565
65.98721706
48.59935826
45.74257878
46.68956954
52.79675704
54.76901404
55.2144835
54.06069009
54.36271642
61.32615978
60.93876805
61.34075708
60.03491559
60.43654981
60.68458351
51.19899985
46.87138283
47.2178678
46.35486006
46.5828629
51.50868221
63.37644162
62.47454857
62.56284632
61.80273949
62.15964326
62.85335685
51.21106237
48.28910952
48.68886253
47.55988357
47.92438402
51.27146269
53.50028401
53.45943083
52.72215118
52.79214366
37.53096235
40.17002867
40.02358822
33.97586545
36.51073383
36.37608711
36.91954034
36.66982827
34.06623397
72.68650339
74.17344078
65.60727697
74.05357101
33.04208239
32.98117184
33.19918143
33.12982747
32.53332709
34.43827517
32.71206239
32.86137502
33.66314617
36.04023423
35.92101721
36.26292134
36.14798734
33.73459016
33.35179341
33.26222761
34.56588253
33.54330848
33.0161609
75.02430957
71.73847778
54.8217816
74.49649703
35.64143471
34.42536891
38.73761171
32.90549158
35.02832829
34.89186631
31.99692286
98.80299776
99.81485337
64.25166009
92.93664104
84.57335726
32.39632103
32.46388939
33.67286098
32.18503851
65.78511118
73.23147447
66.41067653
69.36855579
64.1361599
54.06871812
71.12272266
65.14090401
60.08875005
59.41464298
70.52361205
53.92891674
60.64505865
58.17193202
54.79988081
61.52379555
54.58544918
58.28475328
66.51535512
68.09230112
59.40242487
65.15062072
69.76521306
65.87579408
67.7701917
64.58825753
69.32483959
79.40226925
78.93683786
77.27520334
50.00555098
70.07414058
63.08856183
77.45359629
79.48439432
54.54118097
60.07450367
65.74285053
81.34298665
68.84059596
51.95702199
55.58496463
70.03756565
65.44265739
70.70091767
62.77977316
66.46644218
69.88894796
71.94910536
71.11098341
56.50435247
57.17955279
57.5340109
56.0618503
56.21157103
56.00192934
58.85686241
59.11921395
59.51038205
58.18259923
58.54132138
58.36170269
45.86647424
46.75983304
46.7715308
52.23589126
52.01506595
49.00404704
53.3638693
53.30916698
52.22756446
51.35164495
52.15147454
48.72582287
46.39040721
46.27524873
46.73513964
46.58616314
47.38787853
61.10285337
54.31194699
42.79547609
63.37389437
63.14957953
62.64952559
46.69087199
61.07929928
60.10395908
42.60586254
42.91780408
51.88712287
63.76143701
61.53432479
58.16154514
57.70829516
56.63726114
59.22829315
58.6948264
58.38660624
68.14475345
67.85984971
61.54724514
68.7710371
71.07668244
63.65583153
67.84299027
68.09753132
64.24227209
62.57467136
62.54804555
62.5288864
62.55637731
63.92440479
65.8254587
66.24943552
66.19653881
70.19666072
69.93396798
70.36463856
70.34090529
66.0230176
67.7238362
69.37329597
71.02519939
67.91918172
48.51889072
48.32974022
45.13510849
46.03681325
49.41522461
49.21859598
43.29543041
42.99143083
43.92749383
43.59984385
54.70892148
54.3064797
51.76576201
53.42154477
55.51909584
55.11347324
51.6007669
51.24776434
48.07726085
49.3263678
52.34360842
51.97440527
51.91489006
49.91108793
50.34687706
49.07177563
49.49289697
51.54590215
52.74904417
51.60368367
52.04563607
50.78595727
51.21143072
52.6167697
41.72445027
38.31597101
38.49734251
37.98885117
38.1548928
41.54070902
42.57015339
39.09998744
39.36894726
38.67806918
38.87995277
42.32865407
40.26005396
37.03780358
37.20751134
36.75322053
36.92078603
40.11485015
40.99052639
37.66683173
37.83315966
37.34272212
37.51700588
40.8148832
41.23573573
41.03434856
47.03743502
44.6248477
44.84572379
44.17227406
44.37366493
46.80851314
41.70034585
41.48100978
39.41116751
39.34561384
44.97845183
42.62117081
42.699757
39.76560955
40.3027016
44.15653504
46.16149213
43.73666517
43.90299053
43.2955516
43.41328217
45.89005656
39.93237657
39.8282885
55.67456839
55.24428684
56.93883896
47.42033355
50.79860101
44.78279433
54.45550306
55.12387492
53.66838157
54.11723728
45.37562332
43.4396298
50.04324416
47.02988976
54.04511393
54.40566563
43.72301514
36.98072141
39.51571114
39.3702234
39.85297981
39.71746388
37.18475506
34.51072484
34.38252762
34.86314142
34.74792159
34.0504949
33.57313494
34.75692945
38.05362454
37.35968575
39.0438964
38.72196218
36.40992207
36.91105562
35.0465297
35.99678043
36.42890593
39.53666474
36.4715448
36.66134124
36.12523579
36.39396025
39.4534349
35.29288819
35.17023773
35.77330323
35.64053354
63.37741346
46.30123544
47.99692186
42.9314034
44.56973717
64.57768255
62.99067308
61.95374387
50.14401533
55.60174501
65.31114183
74.28980642
55.23371092
58.87026359
47.34412088
51.37322722
76.22614047
32.79401984
32.73846722
32.91178564
32.86672166
33.575412
33.88646229
36.0605954
32.52057921
32.49292984
32.66042772
32.60427206
33.36009941
35.59020482
35.45270115
35.81430603
35.6884854
33.41973325
33.10811679
35.12942943
34.84221301
35.37076949
35.20133789
33.14641153
70.05143372
34.75355523
34.50359152
32.5866828
84.29486397
104.9321988
107.4458833
105.1921497
105.0035885
87.96317904
32.01175579
87.73730356
70.55325238
73.9571915
33.4513715
32.2629227
32.32931835
85.16033971
91.62899771
90.45832984
78.30854056
83.71616016
95.21332977
92.38441637
66.28414503
88.63238744
80.22458397
32.20779094
32.06206862
32.80846267
36.70691006
36.74210439
36.83440942
36.75701957
36.81823072
36.87236613
36.8417628
36.92823474
36.9308271
36.95505526
37.02898008
36.99584411
37.0477522
37.08452662
37.03404305
37.08904398
37.09609238
37.04226869
37.09379536
37.07112842
37.02876176
37.05954933
37.00516388
36.98798472
36.98265731
36.90275528
36.92040308
36.87574694
36.80353824
36.86847459
36.5879414
36.66317014
36.71663719
36.69631051
36.81709297
36.80920499
36.8601317
36.99257766
36.9360824
37.03480902
37.14576527
37.04872151
37.17479229
37.23211811
37.10920134
37.24334152
37.24585285
37.12264555
37.23875802
37.19477368
37.09345134
37.17344073
37.08831069
37.01905831
37.05433269
36.93912842
36.90583421
36.89874703
36.77991817
36.79000073
36.51527697
36.65921254
36.65476921
36.71403524
36.8964614
36.82911115
36.96217188
37.16458317
37.02400683
37.23008556
37.40547128
37.19291685
37.45260488
37.56214497
37.29167352
37.58232645
37.57830689
37.30246783
37.55463503
37.46155574
37.24599902
37.4223781
37.27697057
37.1233477
37.2217603
37.0480176
36.95895527
36.98982291
36.82104636
36.78399413
36.50225943
36.7111675
36.66643464
36.79116515
37.0628321
36.93004329
37.16361999
37.4908355
37.22945736
37.60316518
37.94088559
37.50244425
38.04363161
38.27874367
37.67788231
38.31109116
38.30095878
37.68305474
38.21535639
37.99691236
37.56998817
37.91361022
37.63788514
37.3478318
37.54243378
37.26515266
37.091
37.17657044
36.93010172
36.84124858
36.53374744
36.82177191
36.73396457
36.93515583
37.33361318
37.12081527
37.48763909
38.03517294
37.6019558
38.24996026
39.03209995
38.1322074
39.33437202
40.23443789
38.54712912
40.26914276
40.03819762
38.51570539
39.65461934
39.03183802
38.20281305
38.82183593
38.25320133
37.76552143
38.08144979
37.62140004
37.34043657
37.48240758
37.11299017
36.96784551
36.59855166
36.98061672
36.85746594
37.13305235
37.69204976
37.41519745
37.92228924
38.82198996
38.21203941
39.22811987
41.55283766
39.43042719
40.6745868
41.22251548
40.14175543
41.90513953
41.92328068
40.62823792
41.31613366
40.60228655
40.09568233
40.33967437
39.18000438
38.45696331
38.8764882
38.1223114
37.73433913
37.91049943
37.37257835
37.17052645
36.69153753
37.17122958
37.02443856
37.36486046
38.09235532
37.78940833
38.40096483
39.66464323
39.04064453
39.76885898
40.3999152
40.07336045
43.08850005
43.80520279
43.24587495
45.54867685
44.05091467
42.61744529
42.34940264
40.35051316
39.45777853
39.8717232
38.74249609
38.2712633
38.43954287
37.69176907
37.44765349
36.80553621
37.37751805
37.22235994
37.60816785
38.47635617
38.1905394
38.84595511
40.35584366
39.85311818
40.69284952
41.51525761
41.27316868
45.48471679
46.73892091
46.50606397
50.25774532
47.37085694
46.16015519
44.29698151
41.55367484
40.65740683
40.90334602
39.39259433
38.90481617
38.99634371
38.03361779
37.77658211
36.93213284
37.5859828
37.42969966
37.84791658
38.82715839
38.56719126
39.24101445
40.91303769
40.50430081
41.3887429
42.31143529
42.13033353
46.64249207
48.19339506
48.10536301
52.96382668
49.72662948
48.97818047
45.80291381
42.58911826
41.83632602
41.80937507
39.98696129
39.55002403
39.50871553
38.35609316
38.11460406
37.06535877
37.79008214
37.63737085
38.07819121
39.14829877
38.90972091
39.59822981
41.4080239
41.0387041
41.97263219
42.97616624
42.80634652
47.06425423
47.7694488
47.93002945
54.19441821
51.06143885
50.68938643