/*--------------------------------*- C++ -*----------------------------------*\
| =========                 |                                                 |
| \\      /  F ield         | OpenFOAM: The Open Source CFD Toolbox           |
|  \\    /   O peration     | Version:  v1912                                 |
|   \\  /    A nd           | Website:  www.openfoam.com                      |
|    \\/     M anipulation  |                                                 |
\*---------------------------------------------------------------------------*/
FoamFile
{
    version     2.0;
    format      ascii;
    class       volScalarField;
    location    "2.15";
    object      p;
}
// * * * * * * * * * * * * * * * * * * * * * * * * * * * * * * * * * * * * * //

dimensions      [0 2 -2 0 0 0 0];


internalField   nonuniform List<scalar> 
12556
(
696.6901891
696.333127
695.2784309
692.7467567
688.5799847
679.2963936
663.2073002
636.383304
594.6640893
532.4168545
444.1827427
326.8798803
182.9025672
21.45983103
-143.470975
-296.9011584
-428.2786574
-533.4591483
-613.127686
-670.2866462
-719.1240265
-741.6524068
-754.8196533
-760.9966561
696.9187356
696.8086423
696.253795
694.6606358
690.6025412
682.9776922
669.0905942
647.6194441
610.9363466
554.51879
471.8984966
357.9126664
212.8846521
45.92913522
-127.808034
-289.9463849
-427.369472
-535.9385417
-625.3035969
-679.4996189
-727.6932785
-747.7041082
-759.4420009
-764.8993529
697.4053189
697.8518941
698.4697633
698.7706803
696.6420077
692.6171976
683.9738973
666.5192662
637.5980542
589.5817264
510.204602
386.5995731
223.5830335
38.88914383
-147.8437591
-321.6472839
-465.0934511
-571.0581798
-659.2503094
-705.7001709
-747.5276841
-762.2305273
-770.7292763
-774.5573121
697.7050772
698.9392547
701.2698309
704.2439695
705.0072881
706.265043
705.3680364
696.1495792
680.425404
644.072593
567.572938
430.9145451
223.833006
-10.27785462
-223.6991254
-397.8953979
-537.8879914
-637.8843578
-713.4252306
-745.9856712
-776.8437057
-783.6937257
-787.3045098
-788.7520531
697.043515
699.1735714
703.4492575
709.7253628
713.5500845
721.8850716
730.5308663
733.5134412
736.3319486
723.6616257
667.253079
512.2061802
224.2224604
-121.0688208
-384.8102654
-556.5158155
-666.7435711
-736.3543864
-786.8767033
-799.0207936
-811.2329682
-808.6035752
-806.1689519
-804.7077486
694.5360391
697.5572696
703.7044994
713.2058435
721.4419187
736.6261649
755.9958539
772.8863728
803.5226332
839.4645374
850.516487
731.3735282
268.425894
-345.6432241
-679.4233186
-808.9695064
-856.1228275
-871.1890098
-875.8474876
-858.9535428
-847.151022
-833.5861396
-824.2068931
-819.5624047
689.3328123
693.1328057
700.9129401
713.2381172
725.7236714
747.3638022
776.3701069
808.6070111
872.0765873
974.668313
1125.658866
1283.21158
579.3746242
-911.8196977
-1162.079752
-1144.416177
-1091.963373
-1028.80658
-970.9726102
-918.2583022
-880.068371
-854.4343993
-838.1912182
-830.4845855
680.7023674
685.0722942
694.0449485
708.404857
724.7403502
751.1338181
787.2002592
832.4298446
921.6751057
1073.233665
1325.109809
1807.77128
-2477.266584
-1831.51772
-1509.475485
-1322.772304
-1178.645776
-1052.826035
-967.0037354
-901.9824554
-866.4215829
-844.809541
-834.5555069
668.0886387
672.7472313
682.3121756
697.679147
716.9445198
745.8293554
785.3506522
837.8513939
936.7421315
1092.357969
1297.944786
1509.172992
-3895.313494
-2336.828578
-1767.165974
-1480.685969
-1278.494942
-1100.678635
-992.7511683
-907.1970899
-865.7920636
-840.9556842
-829.1808546
651.181028
655.8155756
665.3085611
680.5375851
701.6083695
730.5417799
769.7592272
823.7797522
918.9115144
1053.916999
1198.277801
1309.477081
-3690.223865
-2361.067024
-1804.75454
-1509.271248
-1297.058725
-1100.861213
-987.590436
-892.3922032
-850.2380678
-824.9526102
-812.922549
629.9573299
634.2730469
643.0628935
657.0150458
678.84199
705.5699562
741.3241354
792.3087673
876.1286509
987.07567
1097.74899
1189.238273
-2813.763637
-2019.662083
-1637.376735
-1409.432428
-1230.702649
-1050.864174
-950.306907
-857.5394514
-819.585676
-796.5709717
-785.532713
604.6659774
608.4064639
616.0198516
627.4955057
649.7132237
672.0341731
701.947145
746.5605235
814.8264779
902.6904683
995.3439497
1097.851087
-1870.952955
-1530.593706
-1349.170736
-1217.540021
-1098.975812
-961.7837724
-886.2100758
-805.5738841
-775.7505747
-757.0631047
-747.9918841
575.8147141
578.7991734
584.9863239
593.829156
613.8491299
631.390861
653.8151655
690.1747995
739.687073
801.6146515
872.1513964
980.0366565
-806.7195104
-987.3268693
-1043.897094
-1025.074162
-987.7670942
-935.4975461
-851.2542797
-804.4688999
-742.1523009
-722.2053348
-708.829791
-702.2808503
544.0439201
546.1840044
550.7676697
557.0784384
574.0815107
586.3601164
600.7553377
627.2174571
655.8855012
685.8367711
712.8598337
781.9861333
204.1429595
-433.6626919
-652.7069019
-734.0071587
-767.4100248
-769.6778715
-735.8812683
-714.9859861
-673.8223484
-662.8478026
-654.8159485
-650.9285973
510.09978
511.3153136
514.0031841
517.5071913
531.5440478
537.8073831
544.2514724
558.8945213
566.1897778
562.2478333
535.9006968
452.5954963
164.7421444
-197.0739358
-401.9597488
-514.0764461
-584.443349
-624.6548417
-626.3963837
-627.0071479
-604.1783515
-600.9666483
-597.9419787
-596.5217048
474.7624215
475.0945761
475.9008978
476.6907744
487.6654623
488.5662849
487.8319099
492.1209903
483.0732515
458.4889987
402.4713529
292.4317428
121.5073387
-90.32075001
-250.0833405
-364.2013645
-448.6622078
-506.9234178
-530.2112778
-545.1752864
-536.5560601
-539.5457641
-540.7422686
-541.3566941
438.8196649
438.3836538
437.5388237
435.9507343
444.0082566
440.320526
433.8154569
430.5648821
411.9824082
377.1896584
316.684804
232.631025
106.6675301
-33.27362426
-158.0112304
-263.4751304
-351.1081948
-414.1574384
-448.1176845
-471.5925464
-473.3617561
-480.857985
-485.2059452
-487.2826096
402.9997878
401.9306156
399.7268476
396.2020653
401.6001765
394.3369526
383.445645
374.7600289
351.2998751
314.7096223
259.4599107
187.0045251
96.79469251
-5.255970991
-107.6722543
-202.2524674
-281.6889188
-341.3574765
-379.4217329
-407.1430875
-415.772997
-426.1610543
-432.6421893
-435.6798552
367.9028826
366.3375074
363.0686092
358.0656194
361.2644199
351.4252767
337.558886
325.3020994
298.8211387
262.5328285
213.8812637
152.4989077
82.23608072
0.5675695495
-85.04525757
-164.0487395
-231.0913986
-284.8004799
-323.0364178
-351.6446734
-364.1217145
-376.0700243
-383.7797362
-387.4310346
333.9985755
332.0746369
328.0341347
321.9972503
323.4793285
311.9825455
296.3876694
282.1244196
254.703099
219.1203803
174.6471435
122.3283097
63.30984712
-3.550844828
-72.25488054
-136.50812
-192.9581091
-240.1686226
-276.3529929
-304.0567186
-318.3355139
-330.8105789
-339.0428788
-342.9547294
301.6343212
299.4823873
294.9468228
288.2740687
288.4982806
276.1087386
259.6766925
244.7024213
217.7212121
184.1371079
143.9651657
98.06046123
49.00835065
-6.471685742
-62.60342643
-115.6165662
-163.272412
-204.3503543
-237.3769887
-263.2522733
-277.959165
-290.2500455
-298.4994972
-302.432041
271.044783
268.7779233
263.9892895
257.0125081
256.3913891
243.706095
227.1784421
212.300442
186.6094283
155.6250827
119.7674059
79.73802324
38.0681441
-8.253027665
-54.82772549
-99.0816107
-139.4727811
-175.0355177
-204.5801424
-228.1598894
-242.4142697
-254.0783408
-262.0127632
-265.8029282
242.3602594
240.0699808
235.2281728
228.2216963
227.0620612
214.5490592
198.4794829
184.1999496
160.2781322
132.1249118
100.3711089
65.50715867
29.84817832
-9.205869638
-48.28267301
-85.54621693
-119.9046584
-150.6132218
-176.7032539
-197.8404921
-211.1257497
-221.9096911
-229.3246886
-232.8708164
215.6229072
213.3802228
208.6400207
201.8179914
200.3664214
188.3588849
173.1262729
159.7447727
137.8305752
112.5358858
84.56500314
54.23234156
23.5876351
-9.563618601
-42.59958473
-74.16692405
-103.4720065
-129.944958
-152.7785163
-171.503974
-183.5508793
-193.3302288
-200.1122633
-203.3575339
190.8072871
188.6654864
184.1405908
177.6590548
176.1109377
164.8356031
150.6875162
138.3666343
118.5475968
96.0287275
71.49568036
45.14557984
18.75259474
-9.497780264
-37.55805934
-64.39945255
-89.43093845
-112.2157357
-132.0569651
-148.4961306
-159.1905313
-167.9266484
-174.0261528
-176.9451995
167.8386756
165.836194
161.6067881
155.5735058
154.0769458
143.6780207
130.770216
119.5815776
101.8518787
81.96826742
60.54643019
37.71119871
14.973907
-9.133805448
-33.01866893
-55.87651131
-77.2578455
-96.82593658
-113.9541973
-128.2753864
-137.5983082
-145.306146
-150.7161669
-153.3045953
146.6050373
144.7681946
140.888291
135.3734294
134.0423821
124.602883
112.9889411
102.9846807
87.2813905
69.86577836
51.26118145
31.54480862
11.98967834
-8.563687697
-28.88852608
-48.34140846
-66.57452206
-83.32667797
-98.01145661
-110.395985
-118.3793153
-125.1043118
-129.8437694
-132.1100436
126.9676175
125.3131783
121.8166878
116.8621706
115.7830956
107.3437692
97.04146345
88.22048888
74.45820184
59.33886338
43.29316667
26.36211273
9.608995565
-7.854543057
-25.10070148
-41.60552876
-57.09645228
-71.37022175
-83.85719234
-94.48229779
-101.1847898
-106.9873767
-111.0893419
-113.0489914
108.7711972
107.3088214
104.2147868
99.84169942
99.08209369
91.6530885
82.66764965
74.99106903
63.07434597
50.08677365
36.37572013
21.94663411
7.690342055
-7.055335734
-21.60436539
-35.52570782
-48.60422092
-60.68236737
-71.18837844
-80.21810818
-85.70719069
-90.65312092
-94.15698096
-95.82870572
91.85143964
90.58557533
87.90241266
84.11702369
83.73016504
77.30190764
69.61172605
63.04463516
52.87441759
41.86666548
30.29651354
18.13711582
6.126368223
-6.201421546
-18.35786187
-29.98779928
-40.92108766
-51.03805307
-59.75244461
-67.33241412
-71.67449289
-75.82836475
-78.77479527
-80.17807172
76.03403875
74.96644808
72.69623266
69.49236904
69.53565386
64.07934362
57.64839218
52.16601483
43.64415209
34.47924526
24.88461048
14.80412453
4.833806647
-5.318003013
-15.32558932
-24.89829604
-33.90127516
-42.24113175
-49.3374413
-55.59058583
-58.84002171
-62.26338758
-64.69078102
-65.84364066
61.16375864
60.29236981
58.43335856
55.80178913
56.29960101
51.78933478
46.52611429
42.17391336
35.19939568
27.75709509
19.99913296
11.84273935
3.746800334
-4.422938202
-12.47608566
-20.17912239
-27.42625435
-34.13639415
-39.7462182
-44.78261461
-46.99864464
-49.74346864
-51.6865364
-52.6065469
47.00344195
46.33296552
44.88762505
42.8104551
43.87710464
40.25156938
36.09575306
32.87269228
27.37309224
21.55452063
15.51973035
9.164307866
2.811798728
-3.528329722
-9.779700369
-15.76123386
-21.39505483
-26.63057851
-30.79176655
-34.71870571
-35.90111393
-38.0237228
-39.50813572
-40.20387983
33.62617615
33.13685331
32.09542741
30.60810562
31.90383278
29.29376515
26.22623083
24.10386492
20.01899089
15.74417644
11.34210056
6.687534544
1.984364611
-2.641868764
-7.207919329
-11.58070926
-15.70799493
-19.56336842
-22.35702983
-25.20822769
-25.57316288
-27.07198346
-28.12417445
-28.62155483
19.9930192
19.75555037
19.13482685
18.2367626
20.45717937
18.76796263
16.74729986
15.72392735
13.00780843
10.2110483
7.367142795
4.342532144
1.227497684
-1.767014956
-4.732805153
-7.57737125
-10.27150761
-12.81039617
-14.30706289
-16.17267685
-15.23266337
-16.13270485
-16.75391383
-16.9984693
9.715572192
9.490864217
9.166689201
8.649785477
9.243209001
8.409209584
7.432477289
7.599937336
6.228438857
4.851667918
3.486855642
2.060818455
0.5191915098
-0.9021078106
-2.327337781
-3.695455272
-5.000334331
-6.259949677
-6.432829658
-7.288488675
-7.200782271
-7.646206159
-7.940160052
-8.145555925
1548.153555
-4151.019969
-2607.774461
1327.853945
-4012.157154
-4221.57832
1201.602004
-3056.142042
-3918.008794
1109.839007
-2033.598844
-2925.056762
989.6607918
-862.7482869
-899.2084846
-1101.371617
-1910.723344
809.3981485
291.5421252
-816.351535
156.0204727
-446.814309
-996.238573
1789.481622
773.728928
-2272.55816
-729.3091544
-5345.76721
-3199.211943
-3822.987612
-2479.605249
-1958.3403
1223.984521
1317.025295
1486.760617
-5662.742225
-5885.086708
-3769.03656
-2635.071795
-2579.900581
1122.568989
1190.947518
1298.789266
1258.655925
1288.156373
1353.83395
-4230.085318
-4994.087688
-2932.65771
-2288.461792
-2583.419143
1022.027585
1095.360323
1178.176187
1154.796917
1193.526305
1224.990679
-2829.671862
-3425.041037
906.2500241
980.6639455
1082.953438
1051.557194
1114.649741
1155.719325
-1635.838652
-1578.689391
-2113.074381
754.7163734
803.0556924
963.2093066
912.9714771
991.7633152
1051.691469
519.9089141
271.4925603
303.1047789
1903.54769
1562.262798
2476.932501
1979.282557
-5887.225879
-5411.973737
-3719.642012
-5183.862068
-5733.06143
1361.808573
1416.770479
1390.843682
1417.442247
1365.512785
1535.632601
1426.741077
-5039.125407
-5634.350638
-4159.136013
-5508.453581
-4951.4056
-5733.797883
-5534.484313
-4183.632403
1230.679988
1279.324564
1243.176891
1284.457643
1232.463907
1361.296554
1289.315471
-3512.935272
-4174.715133
-3444.18671
-4074.347628
-3443.067879
-4907.159946
-4173.40186
-3570.023858
1158.68302
1191.910438
1143.794756
1195.245383
1162.988364
1229.476698
1196.590189
-2191.020623
-2747.489923
1055.829403
1111.713057
1043.762171
-1594.928524
1117.214173
1060.961571
1159.923803
1120.199688
-1635.062782
-1029.47159
-1503.385861
-1587.997975
1008.424572
988.4351616
900.7761884
-85.37493949
994.9487281
898.2027888
1056.830451
997.2152514
-161.6543855
1317.762066
1520.247241
1707.370913
1732.28535
1951.913696
2341.861748
-6420.366151
-3796.631362
1415.714705
1426.89924
1542.500624
-3372.93758
-1985.830416
-1735.213904
-2159.83288
-2022.599424
-1959.572237
-2239.640796
-215.3769761
-519.4409534
-891.6351221
1569.347439
1886.148595
1686.065652
1591.880572
3331.952642
2649.062833
-3069.424301
-5030.779411
-3494.793997
-2285.37088
-2587.364892
-2410.223394
-2704.854363
-2164.729086
-3358.629287
-2784.415019
-2537.9241
-1204.318336
-363.2319456
-506.0219697
1275.764257
1874.66119
2468.258119
-2763.181191
-704.7534389
1031.655804
-6547.487232
-4710.517666
-6377.148551
-3653.790469
-6208.902708
-4386.422223
-5778.223044
-5795.69433
-4593.954351
-4645.745718
-2993.922519
-3309.938811
-3079.943079
-3286.973999
-2967.095067
-3681.634166
-3334.669164
-3164.981307
1133.797938
1104.716148
1085.635619
-1614.867906
-1873.731197
-1950.049143
1020.132051
983.0953938
954.8445521
1017.226932
991.8976854
1023.595799
1860.00618
1620.314554
1718.980665
1634.605473
1889.419625
1492.32142
1609.143464
1671.368634
2322.638083
2609.2955
3174.923806
1946.066049
2507.475069
2236.588356
2528.212873
1924.939321
-5780.891693
-5756.449246
1392.087003
1417.602087
1388.703378
1475.794484
1438.783268
1486.543385
1417.687375
1434.857003
1461.171241
-5322.863165
-5359.257592
-5264.275812
-4693.711855
-4822.217184
-4463.724136
-4641.954452
-5228.12491
-5672.643124
-4929.184262
-4905.930605
-4855.005354
-4920.449599
-5656.141732
1257.003776
1253.315446
1329.106034
1323.796229
-3785.134524
-3718.27738
-3833.707013
1181.149482
1178.688461
1211.084008
1208.913359
-2919.671788
-2609.68694
-2505.790724
-2630.242265
-2942.15082
1078.785224
1048.902459
1025.228093
1078.80401
1056.731357
1083.78854
-1252.797986
1088.03612
1082.55269
1140.100001
1137.992199
-1958.546426
-1251.973407
-1272.437941
-1529.113427
944.1866567
910.5245569
923.3069156
940.2811986
439.5966916
134.3378702
1029.806806
-352.9482169
88.92414016
-269.4543365
1027.05087
-414.5040477
-300.2109794
56.60647286
-4556.088191
-2160.638898
-2306.223348
577.8363255
543.2885293
768.5921311
658.1115092
670.964517
939.0077121
177.5742397
-153.25836
-335.5515952
4287.611247
-2339.946082
-2497.246901
-942.0657973
-1187.854031
-1205.030883
-171.5599042
-415.1583372
-142.9856446
2073.678255
2615.361892
3324.136876
-3242.677108
-666.7202209
1374.677148
-5721.668829
-6365.682037
-6294.410622
-5858.752827
-4384.894671
-4575.730435
-4388.257788
-5252.441017
-5099.664273
-4851.542592
1206.662581
1189.043687
1174.321838
1211.026355
1194.256127
1209.17131
1128.151662
1110.703278
1136.194908
1003.211715
986.2831503
972.3388559
841.2602887
590.5338536
330.6778292
-5857.404249
-6338.103903
-6396.361907
-5591.245042
-4658.839051
-4344.184829
-4879.359777
-4732.739137
-5609.407577
-5167.838692
-5439.448623
-5304.804737
-5528.877271
1249.040306
1236.254974
1217.008099
1238.606223
1245.541093
1240.727887
-4329.808722
-4163.502531
-4025.746599
-3793.258799
-3553.719603
-3790.137317
-4575.628115
-4181.151226
-4397.113356
-3869.44864
-4104.94495
-4525.942458
1175.150369
1149.771133
1133.777667
1169.552318
1154.899263
1177.581972
1190.577663
1204.394545
1205.393302
1175.634111
1189.811261
1171.259002
1221.097566
1226.104856
1235.767639
1205.315473
1207.150608
1201.033917
-2426.643312
-2567.089866
-2277.673273
-1451.315068
-1448.602424
1107.026423
1062.460273
1150.365992
1158.472502
1173.195124
1147.017434
1127.730067
-1767.283416
813.0150278
899.9270482
861.4377391
967.2833924
949.2778445
971.4346037
101.0756363
346.2207037
109.9725342
981.0110009
407.6008916
656.2974638
475.2516412
590.9449096
1040.468307
1010.185504
-5755.293446
-4439.602081
-5401.576236
-3500.987485
-3558.806234
-1982.321516
-2115.871067
-2133.880504
1543.693115
1527.546682
3135.000084
3542.367626
3981.426864
3337.626514
3023.773559
-2661.223927
-2503.085867
-2455.331761
-2511.407748
-2680.423036
-1219.316693
-1049.103871
-1056.249325
-1053.799619
-1223.326202
-839.6002999
-1005.941753
-611.2849285
-630.1952302
-790.7157712
-421.1599272
-577.5685638
-514.2878648
-6689.174359
-5866.432853
-5396.549769
-6249.572527
-5984.822442
-5209.300652
-4511.011276
-5389.657495
-6135.947515
-6063.774235
-5734.478061
-5845.414689
-6261.274645
-6165.744872
-4806.029869
-4634.727878
-4437.940024
-4689.994899
-4873.6148
-4444.95361
-4635.055429
-4924.620489
-4801.125852
-5048.19098
-4861.072564
-3129.974827
-3185.905198
-3154.512789
-3070.04989
-3201.324377
-3534.571136
-3429.731678
-3569.726877
-3245.369432
-3383.409971
-3482.836696
-1826.28547
-1798.893624
-1934.97048
1003.403598
990.9777127
1003.848242
1032.319556
1019.362314
1007.972069
1732.890613
1700.879732
1719.821693
1769.50867
1679.809883
1928.118695
1804.407898
1754.254474
1537.219854
1573.726641
1529.107336
1654.549652
1591.379586
1554.208733
2146.797286
2141.396097
1975.757753
2222.217244
2132.913417
-6341.83216
-6329.994941
-5842.141942
-6475.365935
-6516.388531
-6453.787409
-6419.200202
-6324.784352
-6538.866828
-6432.218287
-5642.759438
-6227.949418
-6337.868189
1402.28953
1404.604167
1397.623516
1418.414061
1408.059216
1407.448776
1389.690307
1383.464542
1396.795276
1391.396585
1454.700452
1478.880115
1457.942591
1517.374845
1487.285791
1460.517973
1426.966559
1433.596046
1421.724892
1452.162788
1437.992835
1431.444623
-5601.335333
-5482.394983
-5208.446789
-5484.361643
-5771.181531
-5632.378998
1272.557341
1262.32724
1290.072583
1275.166685
1246.757589
1240.958738
1258.064565
1248.464306
1359.280572
1341.644375
1380.271537
1365.036781
1311.384727
1294.122543
1335.679401
1317.662441
-3801.89656
-3950.269017
-3616.968268
-3756.295776
-3854.413337
-4212.47113
-4382.100979
-3999.662517
-4160.46153
1191.394225
1202.025984
1188.529973
1207.573466
1193.901557
1208.390317
1210.468741
1191.869957
1172.748634
1189.249484
1188.890866
1217.924299
1223.053674
1218.227949
1226.171376
1220.805433
1238.03164
1228.369883
1208.042346
1207.461168
1215.42494
1209.055374
1202.77824
1208.388453
1214.938462
-2691.768799
-2765.164294
-2830.884374
-2679.312616
-2878.14513
-2807.495144
-1234.962212
-1403.134439
-1436.017579
-1234.219504
1103.545959
1068.424917
1149.679073
1155.016635
1147.399325
1130.741555
1150.593178
1149.444955
-1844.539036
961.9605094
942.1941598
924.5738609
608.0159856
508.5283147
973.824601
218.8286489
380.7164099
271.8471533
1034.809317
-507.1032797
-68.27110991
160.8672115
-114.8722854
1003.264232
-2201.381157
-1739.365417
-1145.606947
-2294.257918
-2346.518404
-1118.023486
-1169.193041
-1589.421819
-2358.055885
-1009.203061
-1002.659423
-843.2591298
-2089.070556
-1598.598913
-1549.53759
2609.280531
3382.363277
4184.506822
-3402.122665
-571.3425402
1820.944438
-1417.195801
-1006.063157
-2704.68237
-5054.665049
-5710.183003
-5987.073668
1316.859919
1299.179122
1273.786929
1333.988823
1307.900519
1326.585696
-1617.691486
-1753.119137
-1769.732823
-2192.669867
-1938.9258
-1880.566714
1035.725016
1023.952494
1037.192321
-6063.631917
-6196.913057
-5605.814568
1265.711903
1243.199876
1255.932449
1271.938191
1275.050202
1289.0837
1293.508072
1309.662407
1303.510135
1061.620823
1050.297387
1040.007611
-1608.899779
-1564.128989
-1551.887122
1065.917425
1071.326748
1064.18249
-1700.60972
-1713.372697
-1623.592999
-1445.458693
-1432.817764
-1571.057633
991.7747386
1052.879739
1059.565066
1062.176182
997.5562457
-6299.074154
-3408.654016
-2003.637581
-2066.794297
-2074.654125
-2287.512755
-2149.259877
-2111.022323
1569.128527
-4204.660684
-3677.586109
-4379.878432
-2412.935452
-2470.020743
-2329.385898
-843.8977269
-860.3039143
-686.6736617
-691.1460224
-786.8121152
-1634.954489
-1041.291683
-3189.847033
-6532.655879
-6213.757923
-6057.065639
-6678.507158
-6640.836106
-3038.88919
-3069.499137
-3022.864793
-3326.233864
-3316.294479
-3288.136
-2893.721658
-3024.133099
-3103.640861
-3645.757407
-3596.188328
-3643.507085
-1940.430884
-1917.335896
-1950.720542
1809.274326
1857.517227
1647.621629
1661.474334
1679.620391
1652.55526
1500.055428
1517.097511
1505.972415
1627.504402
1605.065463
1587.254602
2401.668349
2208.421369
2228.948286
2418.471495
2404.545279
2548.236549
1910.541006
1965.025953
1985.37885
1396.288533
1396.465682
1401.492206
1417.257862
1414.801772
1415.637584
1396.781771
1396.416778
1402.133305
1399.47647
1445.123691
1451.156616
1445.454414
1496.643116
1487.367008
1478.564708
1418.098867
1420.796539
1418.83775
1440.906507
1438.105702
1434.174679
1261.07306
1271.601383
1267.746183
1243.827645
1247.837373
1257.294932
1338.528933
1355.243118
1343.625467
1353.813759
1347.314572
1394.777871
1389.442578
1299.386042
1340.871323
1334.485013
1308.847941
1315.522894
1332.821881
-3965.740189
-4023.17938
-3689.450101
-3742.334071
-3768.655836
-4078.226311
-4102.863781
-3974.304251
-4111.674282
-3957.694837
1066.150796
1054.494402
1065.407288
1097.742832
1082.283798
1070.733875
1092.003215
1098.987341
1093.80035
1077.578018
1081.159573
1085.990949
-1955.303479
922.3826336
926.4441115
921.6246656
680.3261419
932.530448
314.667891
450.0415983
577.5708979
1035.827421
1035.235763
1031.191776
-416.367953
-262.3954022
-237.7059978
-251.9822117
1022.302792
1029.011798
1033.881141
-147.5164542
-221.5992774
-368.6391791
-2197.594841
-2238.510312
-2331.270771
-2285.377914
-2263.510803
4247.318905
4696.561757
4014.377557
-2391.591853
-2417.46871
-2345.889684
-2515.445814
-2464.525669
-2450.877142
-1859.059156
-1020.52258
-3325.716634
-5969.921503
-5968.858464
-5916.804016
-5948.6536
-6340.945718
-6194.11567
-6212.75115
-6153.376886
-6174.963094
-6318.576655
-5205.972467
-5126.350253
-5174.533788
-5021.750719
-5076.662153
-5156.514869
-6387.993814
-6215.192353
-6188.870589
-6228.547826
-6231.441988
-6410.608551
-5392.579635
-5311.058908
-5355.615174
-5222.569432
-5267.183599
-5350.566956
-5863.596869
-5889.846165
-5776.236812
-5822.235007
1205.33461
1200.55583
1199.18462
1178.545982
1175.095884
1171.792872
1182.108125
1179.159275
1183.744532
-1568.584121
-1618.578298
-1444.761694
-1518.525282
1119.217722
1118.949745
1124.567723
1120.433379
1064.521393
1063.65296
1071.105718
1060.462143
1163.332313
1160.736147
1156.64989
1168.80418
1165.110035
1168.936924
1132.3632
1130.941279
1139.789269
1125.078748
1131.655511
-1775.567786
-1765.904673
-1753.624424
-1625.449725
915.9095314
966.2593834
1110.471474
978.5450023
969.8109409
962.553483
987.7205216
347.7482271
329.2696498
1086.445343
958.7633953
714.1607288
1041.705987
1052.450234
1047.429035
1003.724453
-6000.19834
-6305.832078
-6066.313285
-5241.883463
-4993.954092
-4197.796719
-5775.211552
-5444.144858
-3450.215887
-3590.063441
-2127.554449
-2114.766124
-2126.564107
1555.20368
1506.117802
3741.012429
3573.921772
3423.922773
2828.482437
2684.290868
3234.794853
3008.294254
3113.110799
-2580.846678
-2523.844504
-2627.703797
-1071.443578
-1068.426247
-1055.964741
-1167.436535
-878.414017
-861.5010777
-845.7169906
-997.5794207
-942.4183753
-938.8803622
-615.3665356
-670.1225863
-669.8273402
-492.5910685
-496.4300812
-544.5442407
-6473.178601
-6349.776133
-6611.089892
-6166.140009
-6427.223906
-6499.574474
-6619.538682
-6582.455924
-6102.715185
-6001.136765
-6023.893232
-5976.109664
-5984.463016
-6076.048881
-6223.839834
-6100.209684
-6127.886735
-6048.821101
-6074.107515
-6194.737809
-4752.173704
-4678.634121
-4732.214526
-4749.592778
-4815.626875
-4501.287594
-4527.579171
-4488.070315
-4578.732428
-4981.497108
-5024.85725
-4986.198745
-4902.382641
-4963.213346
-4787.040506
-4844.496295
-4922.599257
-3166.51643
-3091.455752
-3077.175101
-3105.011494
-3038.079258
-3089.192105
-3242.713063
-3270.69006
-3215.468126
-3496.990052
-3542.065416
-3571.963873
1768.766823
1672.565491
1549.91444
1531.504471
1514.558454
1569.794142
1585.478766
1567.604798
2196.855671
2287.832224
2318.842491
2555.548902
2432.733669
2053.540851
2031.011901
2110.774417
-6342.375952
-6152.764621
-6145.444683
-6167.20278
-6157.574117
-6335.37383
-6500.932862
-6509.299492
-6406.384167
-6631.571747
-6604.438054
-6587.738002
-6624.26954
-6380.900897
-6531.61043
-6611.943745
-6634.943314
-6473.378084
1403.472567
1401.040736
1399.566951
1412.15425
1411.423009
1407.529652
1396.678793
1396.642012
1397.516995
1396.874651
1462.561402
1456.786313
1450.329542
1468.909876
1477.942317
1469.458217
1428.666978
1424.257075
1421.479957
1433.670203
1435.765963
1432.703843
-5565.817068
-5477.527085
-5513.13372
-5396.529898
-5437.32812
-5522.528294
-5719.125726
-5640.223561
-5717.24058
-5546.736714
-5585.615995
-5670.837004
1269.764057
1271.115493
1272.940394
1263.542265
1268.000735
1266.338736
1284.210491
1282.264617
1290.37947
1273.960935
1276.374853
1278.80617
1245.182452
1246.957432
1247.656688
1243.636358
1245.700083
1243.305296
1254.132641
1253.938843
1258.459061
1248.431906
1250.433721
1250.866272
1366.944432
1360.449727
1353.499267
1357.205901
1363.285316
1344.720451
1350.970197
1347.60305
1381.143705
1373.448875
1315.836459
1310.311153
1305.239621
1307.815197
1313.601044
1295.309722
1294.993326
1297.767543
1329.705192
1332.318198
1338.507496
1320.04277
1326.173658
1323.712356
1328.291505
1322.161781
-3886.133621
-3919.748067
-3826.551835
-3795.048005
-3831.209275
-4263.067037
-4295.828717
-4250.11533
-4421.743572
-4352.798331
-4318.945506
-4046.719573
-4082.947032
-4044.837395
-4202.19911
-4152.855948
-4104.214461
1194.342061
1190.924081
1187.991529
1197.039146
1194.117864
1198.242529
1202.075483
1197.012521
1209.553492
1210.428755
1191.309978
1183.262876
1178.948796
1179.265942
1181.159282
1185.15651
1183.000543
1187.891047
1215.981703
1219.496724
1228.802433
1221.995573
1234.729449
1236.698195
1240.422071
1230.822541
1233.564301
1231.597222
1207.269054
1207.034131
1211.721396
1210.090197
-2781.75004
-2762.859075
-2817.011284
-2666.492293
-2713.254266
-2746.769127
-2943.475404
-2984.504445
-2860.246571
-2875.685818
-2886.777861
-1374.062683
-1374.0175
-1428.359672
-1245.603182
-1305.729133
-1315.610464
1103.858655
1094.903526
1117.400927
1112.451701
1073.29209
1076.403344
1072.632443
1079.072592
1076.086876
1088.163123
1083.418676
1150.824665
1148.848175
1147.270902
1153.397612
1150.867415
1152.588038
1150.973824
1144.698973
1142.643031
1146.183531
1145.479701
1150.156205
-1900.463385
953.3689686
943.5035153
951.6545842
561.9797184
583.2474057
650.7860647
518.1775615
527.1857928
506.7583751
965.9307925
316.6018567
262.7613376
193.9492403
1032.18883
1033.721688
1034.588439
-483.7385039
24.75218108
-36.20231869
141.7946691
126.9173918
141.094995
-57.03631927
-190.3578227
-172.1425629
-70.12500313
1014.192872
1025.06267
1018.180471
660.6357841
638.7523266
622.283558
629.245167
593.6078601
571.5436187
578.5049683
522.4884355
496.2198853
498.8445509
413.1885075
390.2858759
378.8677703
263.1299962
251.8355732
220.5802522
90.9347976
87.88843445
44.46780457
-93.57000888
-86.15684646
-139.3886116
-270.1992548
-251.9941108
-311.2834449
-420.3168425
-395.6808285
-452.6467795
-535.4175486
-510.9724555
687.8744527
674.5580922
646.3795799
668.3915933
641.4727883
603.9661602
628.6542175
574.8602182
533.9613774
550.7053558
456.1417375
422.1153234
416.2937387
276.6808982
266.3373794
224.5186869
61.75077828
86.2542198
6.91087241
-149.2946131
-101.7538309
-197.8619394
-331.4653134
-280.0087266
-372.1257039
-482.8300491
-432.7442643
-515.3144915
-596.4678477
-547.63738
723.7477113
722.6320224
685.6063333
721.0374536
708.6223379
656.1011791
700.6042885
658.5299761
591.7205727
636.1944209
532.7012797
472.2334127
484.8339997
298.5002487
280.0109568
222.5494877
-11.7050593
48.11634571
-86.01757557
-280.586246
-173.9236412
-334.7501736
-469.1864723
-357.8606775
-507.1297219
-602.8893623
-505.7085929
-628.9355653
-692.2404875
-617.2050069
763.1311203
779.9998308
736.3278358
786.0039586
803.4010521
729.5902164
807.5278066
804.0664521
687.9199201
794.5841171
710.8561387
563.902123
655.3898886
373.1720698
310.4394199
246.6514134
-154.9480211
-38.97849327
-272.13312
-530.705614
-329.1472189
-590.1106719
-712.3714478
-519.4629721
-737.9889085
-791.2747608
-643.8989537
-803.5101969
-828.9913471
-722.3183283
800.4157614
839.5164717
795.1188629
855.9954116
917.1550943
830.8502642
941.710133
1025.00086
854.4631839
1053.853416
1111.956079
784.9279421
1102.346372
688.3881741
420.6592255
530.1214364
-507.6677723
-211.8184038
-703.3273888
-988.1854262
-620.151688
-1021.620881
-1054.211487
-788.1784528
-1052.661385
-1038.898336
-848.3061449
-1030.935378
-1000.729403
-869.4485779
828.0975961
886.694315
852.8292734
912.3315406
1012.467468
944.7519097
1055.347582
1223.604434
1083.539295
1297.230878
1690.844506
1254.834717
1518.793635
1635.398481
1195.508055
797.3782491
-444.6257809
-80.45911454
-1271.144749
-1293.974349
-1040.71951
-1658.677639
-1470.481657
-1153.143667
-1422.039713
-1302.752387
-1106.719666
-1268.52096
-1173.885886
-1045.242608
838.3519358
906.7957748
894.52132
936.3451792
1048.545497
1027.860912