/*--------------------------------*- C++ -*----------------------------------*\
| =========                 |                                                 |
| \\      /  F ield         | OpenFOAM: The Open Source CFD Toolbox           |
|  \\    /   O peration     | Version:  v1912                                 |
|   \\  /    A nd           | Website:  www.openfoam.com                      |
|    \\/     M anipulation  |                                                 |
\*---------------------------------------------------------------------------*/
FoamFile
{
    version     2.0;
    format      ascii;
    class       volVectorField;
    location    "2.15";
    object      U;
}
// * * * * * * * * * * * * * * * * * * * * * * * * * * * * * * * * * * * * * //

dimensions      [0 1 -1 0 0 0 0];


internalField   nonuniform List<vector> 
12556
(
(99.9996409 0.0009246113266 -3.543621715e-21)
(99.99931825 0.003573173105 -3.007684672e-25)
(99.99858607 0.008905408403 -3.544814665e-21)
(99.99724212 0.01897005082 -3.53440946e-21)
(99.99968822 0.01619953179 3.4286386e-21)
(99.99848632 0.02875747116 0)
(99.99757409 0.04921220153 0)
(99.99716922 0.07869119844 -6.265512571e-21)
(99.99610374 0.1198840189 7.448911474e-22)
(99.99507157 0.1742920132 -5.121026634e-21)
(99.99453785 0.2393319054 5.134342385e-22)
(99.99519785 0.3058171863 0)
(99.99707143 0.3587457592 0)
(99.99951629 0.3839569502 2.005716354e-22)
(100.0023719 0.3743230168 -8.448341798e-22)
(100.0043489 0.3339424969 7.460099049e-22)
(100.0050496 0.2763184615 0)
(100.0051231 0.2154262784 1.434821168e-21)
(100.0050852 0.1586188954 5.93858371e-21)
(100.0027557 0.1149571872 -1.726299092e-21)
(100.012052 0.1355693785 -1.51643053e-20)
(100.0086198 0.08496169203 0)
(100.0065977 0.0461341696 -1.927954235e-21)
(100.0064158 0.01476061582 -1.36025464e-20)
(99.99677025 0.00205375218 1.416989177e-20)
(99.99354663 0.008521701015 3.546479027e-21)
(99.98670856 0.02239564579 2.482472988e-20)
(99.97495873 0.05001065266 -1.063425094e-20)
(99.97479578 0.07495750648 3.450352136e-21)
(99.95582654 0.135401069 -2.607153695e-23)
(99.92984959 0.2324198523 0)
(99.91427661 0.3264383837 -6.208706481e-21)
(99.87940609 0.5036022022 -5.881266788e-21)
(99.84299863 0.741918883 -1.06437733e-20)
(99.81547338 1.035501696 -4.62020381e-21)
(99.81796904 1.349022339 -6.659016974e-21)
(99.86346973 1.612687732 -9.298946943e-21)
(99.94136903 1.749821921 -6.385167251e-22)
(100.0272101 1.721834103 -3.07962394e-22)
(100.0961883 1.543800428 3.815627501e-21)
(100.128443 1.278540165 -8.137308225e-21)
(100.1267737 0.9998774858 0)
(100.1473741 0.7821734385 -2.559663625e-20)
(100.1102399 0.5486781788 4.980723668e-20)
(100.1132029 0.3903773256 1.468661292e-20)
(100.0827733 0.2438705208 3.058830514e-20)
(100.0641417 0.1326363133 -3.067878637e-20)
(100.0570038 0.04237914887 1.553154014e-20)
(99.99235009 0.001193024156 -1.41383449e-20)
(99.98339001 0.007262330024 -2.835295483e-20)
(99.96448933 0.02457529075 -6.381420048e-20)
(99.93333325 0.0603560279 8.497090478e-20)
(99.91219804 0.1108881443 -7.021839625e-21)
(99.85699649 0.2116441451 -6.908459156e-21)
(99.77788488 0.3731831344 -1.202638895e-20)
(99.72542549 0.5608378027 0)
(99.61450657 0.8858504841 2.42374244e-20)
(99.49542201 1.335758081 0)
(99.39957667 1.936545376 0)
(99.41826459 2.61680031 -9.437984259e-19)
(99.59127328 3.160960889 -4.935331763e-19)
(99.89659108 3.444464212 0)
(100.2149995 3.372839725 -1.044472369e-22)
(100.4476157 2.993050211 3.023306065e-21)
(100.5440652 2.441783056 -8.812610701e-21)
(100.5232872 1.861496901 -2.206264572e-20)
(100.4933105 1.356234664 -1.533174939e-19)
(100.3782384 0.9365129568 -3.47038366e-20)
(100.3177953 0.5987160313 -1.51932507e-20)
(100.2336046 0.3731709559 3.459785138e-20)
(100.1816781 0.2025058427 -3.904790822e-21)
(100.1588575 0.06431727381 0)
(99.99090436 -0.002891675997 -7.106271551e-21)
(99.97389721 -0.004211235328 4.980096556e-20)
(99.93812376 0.008824899854 -1.424229751e-20)
(99.87948503 0.04240034988 0)
(99.8291069 0.1102991421 0)
(99.71937898 0.2351718957 -5.543856322e-20)
(99.56299288 0.4419852865 -1.111776767e-19)
(99.42369726 0.709302772 2.643506558e-20)
(99.17786011 1.16383087 4.010290649e-19)
(98.87510385 1.884724011 1.42288134e-18)
(98.63087955 2.918428828 3.836572156e-20)
(98.63519167 4.152460138 1.866293525e-18)
(99.16522068 5.142634023 0)
(99.97408394 5.513611638 0)
(100.6838956 5.218745267 0)
(101.1150688 4.512220663 5.191992961e-20)
(101.2665381 3.578636015 2.390931683e-19)
(101.1928957 2.649741432 0)
(101.0433206 1.833171852 5.684431754e-20)
(100.7901895 1.2344231 -4.458794504e-20)
(100.6089124 0.7380883949 -3.910530066e-20)
(100.4479962 0.4527877306 1.989366818e-20)
(100.3473142 0.2436853493 -4.002888782e-21)
(100.3010415 0.07681765986 0)
(99.99988418 -0.01094221587 0)
(99.97360082 -0.02828826838 0)
(99.91891152 -0.03000864062 7.136320151e-21)
(99.82798339 -0.008627879064 1.082645414e-20)
(99.74051494 0.06411368772 1.792969665e-20)
(99.56245328 0.1897610996 0)
(99.30960635 0.4036674796 0)
(99.04991313 0.7221374145 0)
(98.57872699 1.306881277 -4.81801671e-19)
(97.94880455 2.342023061 0)
(97.36079324 3.986492346 1.427860644e-18)
(97.42031541 6.127721913 0)
(98.65622529 7.944871181 3.569268356e-20)
(100.5554583 8.21042565 4.187605806e-19)
(101.8506891 7.271318949 -1.091928234e-18)
(102.4044259 5.940203443 -4.796331739e-18)
(102.4500461 4.57590881 -5.968972213e-20)
(102.1585948 3.25313992 -7.701523705e-22)
(101.779954 2.129464919 -9.673815982e-20)
(101.3274568 1.394047918 8.105829599e-21)
(100.954072 0.770514779 0)
(100.6964124 0.4669390652 4.113185833e-21)
(100.5346967 0.2470606538 -3.088136043e-21)
(100.4590472 0.07699796927 -1.025267437e-21)
(100.0277903 -0.02319115864 0)
(99.99211086 -0.06541731654 0)
(99.91889045 -0.09287789172 -1.432527686e-20)
(99.79565065 -0.09780504021 2.902908318e-20)
(99.66131119 -0.03415645559 0)
(99.41459757 0.06588477355 0)
(99.05416376 0.2541090322 2.267993478e-20)
(98.64619292 0.5792650948 -2.727795247e-19)
(97.85497344 1.22694518 7.966841109e-19)
(96.69091086 2.459916441 0)
(95.29843132 4.773870028 -7.745014927e-21)
(94.84452613 8.519376923 -1.045789164e-19)
(97.68257285 12.30417539 0)
(102.2648809 12.00644501 0)
(104.301614 9.304536968 -1.544608604e-19)
(104.5671613 6.960443378 0)
(104.168069 5.125722717 1.172055988e-18)
(103.4605477 3.539721945 -2.81792849e-19)
(102.6463474 2.148540243 2.506226791e-20)
(101.9317996 1.366020552 -1.696337786e-20)
(101.3161758 0.676716129 0)
(100.9441992 0.4023070856 0)
(100.7137336 0.205464601 -1.047304534e-21)
(100.605468 0.06290339302 -3.155169762e-21)
(100.0828072 -0.0393526805 3.488690954e-21)
(100.0387015 -0.1146630145 -3.512245874e-21)
(99.94923418 -0.1780874748 7.15481165e-21)
(99.79759184 -0.2223272463 -2.621861825e-20)
(99.61783407 -0.18449492 7.351896986e-23)
(99.30669129 -0.1361119372 2.223936816e-20)
(98.84936582 -0.01233879832 -3.808369727e-20)
(98.27367832 0.2635826442 -1.073696151e-19)
(97.1586199 0.8114820017 0)
(95.27959451 1.933554411 9.493756592e-19)
(92.47920189 4.159857774 0)
(88.9768383 9.282789555 4.403036946e-20)
(93.34358703 20.29355567 1.796289903e-20)
(107.1337125 17.74223828 0)
(108.6332428 10.68158764 4.166026242e-19)
(107.6065558 7.034592283 1.663469054e-20)
(106.3306396 4.873604385 -1.823595951e-18)
(104.9575907 3.255482465 -6.822869779e-21)
(103.5521768 1.804785154 0)
(102.5212624 1.082063139 9.534907411e-21)
(101.6394859 0.4513933076 2.786585909e-21)
(101.1493014 0.2494292966 -3.288678398e-21)
(100.8525266 0.1166294364 -3.743128227e-21)
(100.7120656 0.0341441398 8.973476561e-21)
(100.1719471 -0.05865934078 -3.489063591e-21)
(100.1213598 -0.1736472684 3.513515666e-21)
(100.0198596 -0.2810609349 -4.449687225e-21)
(99.84730682 -0.3749223554 -2.979844055e-21)
(99.62740738 -0.3780559173 1.267500957e-20)
(99.26780594 -0.4023756891 7.506643092e-21)
(98.73763444 -0.3787373029 -2.722594035e-20)
(98.02642486 -0.2183718152 -8.11653119e-20)
(96.68041576 0.05992563415 0)
(94.30700051 0.6090627727 -7.094550501e-20)
(90.5512485 1.366224008 -2.991761559e-19)
(83.96424444 2.228063053 0)
(120.3446695 21.60187516 -6.741747196e-19)
(114.7852823 9.314431406 0)
(110.9791537 5.403443378 0)
(108.4819096 3.521426746 0)
(106.3727291 2.224967418 -4.159290941e-19)
(104.3178986 1.048426044 -5.15944299e-21)
(102.9832172 0.5516626131 2.1668735e-20)
(101.8554072 0.09946219076 -3.429185527e-21)
(101.2679712 0.01744938231 2.798306341e-21)
(100.91802 -0.01368514495 -5.522515641e-22)
(100.7503995 -0.007897419444 -8.476912537e-21)
(100.3003793 -0.07994694511 -1.679887178e-21)
(100.2459913 -0.2387396058 -1.261731575e-21)
(100.1381046 -0.3950517712 -4.318271614e-22)
(99.95449827 -0.5446985898 1.30369688e-21)
(99.70457766 -0.5993715746 -2.305875317e-23)
(99.31842373 -0.7092071131 0)
(98.75061682 -0.80448433 2.138586581e-20)
(97.96679544 -0.8007023487 -1.086842345e-19)
(96.55157014 -0.8616762668 -2.210498833e-19)
(94.14477223 -0.9804900404 0)
(90.91555469 -1.529979926 1.968419231e-19)
(87.58932845 -3.320026957 -2.237646078e-19)
(133.2755664 8.330788282 1.134456554e-18)
(119.4280422 3.576478319 -2.015118923e-20)
(113.3569526 1.899533544 -8.959372704e-20)
(109.92962 1.091331783 -3.328674517e-19)
(107.2999174 0.5537678061 1.187439234e-19)
(104.7484234 -0.03906795352 -5.3494197e-21)
(103.2084505 -0.1756870508 1.233044759e-20)
(101.9085406 -0.345101211 1.192626709e-21)
(101.2640447 -0.2706374392 0)
(100.8819778 -0.173582118 4.295094907e-21)
(100.696816 -0.05942597523 4.236269028e-21)
(100.4707641 -0.1018046856 3.311316384e-21)
(100.4155924 -0.305575158 4.904304324e-23)
(100.3075542 -0.5120012345 0)
(100.1238216 -0.7194396042 1.715931709e-22)
(99.85617156 -0.8313035637 -1.738842157e-21)
(99.46704927 -1.029338414 1.83868153e-21)
(98.89876117 -1.245139798 1.531675418e-20)
(98.10617739 -1.404984807 1.485564095e-21)
(96.74936767 -1.771804593 0)
(94.55351018 -2.348553012 0)
(91.98854163 -3.281245495 5.810033756e-22)
(89.87034738 -4.548984197 -4.65038201e-20)
(131.8691151 -6.908491545 -1.109114278e-18)
(119.6431814 -3.585145852 -1.922643039e-18)
(113.6661311 -2.38843082 7.625145022e-19)
(110.1608641 -1.816442076 6.820892405e-19)
(107.4381993 -1.440663684 4.766212988e-19)
(104.71107 -1.279855463 4.554201357e-20)
(103.1264362 -0.9952109569 0)
(101.7651866 -0.826269566 -1.171760885e-21)
(101.1156022 -0.5810888678 -4.788674545e-21)
(100.7278681 -0.3457502127 5.337121895e-22)
(100.5374061 -0.1149946217 0)
(100.6829749 -0.1228568163 -1.631288867e-21)
(100.6299205 -0.3698059744 1.644246947e-21)
(100.5275035 -0.6238734474 1.604666874e-21)
(100.3553187 -0.8870992641 -1.493468392e-21)
(100.0806935 -1.056624102 -1.715054043e-21)
(99.71052634 -1.336046748 0)
(99.17333779 -1.661915923 -1.79728277e-21)
(98.41842405 -1.971111857 -1.019863297e-19)
(97.18499074 -2.579383732 1.536752107e-19)
(95.22852045 -3.437050375 -1.608746395e-20)
(93.02289987 -4.469500769 3.84895539e-21)
(91.18885638 -5.435137434 0)
(124.1073496 -15.71258584 4.176316312e-19)
(116.4172779 -9.08849574 0)
(112.0386122 -6.123273655 -1.321146474e-18)
(109.1611132 -4.493922191 0)
(106.7478505 -3.327685815 0)
(104.1861715 -2.449091435 0)
(102.7319857 -1.781370061 -2.948396186e-20)
(101.4246499 -1.282364785 -1.451724823e-20)
(100.8205107 -0.8773656611 1.088677892e-21)
(100.4530843 -0.5112063204 -3.434494925e-21)
(100.2696173 -0.1686334979 5.036513305e-22)
(100.9341298 -0.1418407411 6.009641397e-21)
(100.8858528 -0.4273912554 0)
(100.7935477 -0.7220642293 -1.601546478e-21)
(100.6410098 -1.041158692 0)
(100.3668339 -1.260643079 0)
(100.0376044 -1.607033005 -5.103753285e-21)
(99.55572336 -2.024926496 -1.692514278e-21)
(98.86983006 -2.459751272 1.908934652e-19)
(97.79438449 -3.250507209 0)
(96.06284479 -4.312040193 6.843033851e-21)
(94.03610852 -5.474595303 1.521620458e-19)
(92.1887041 -6.457947162 -3.751651944e-20)
(115.4935136 -19.13961101 2.921836535e-19)
(111.7650011 -12.04903632 2.76890443e-19)
(109.2486877 -8.567318643 -1.139940528e-18)
(107.2823664 -6.432626832 2.007381091e-19)
(105.4166028 -4.763713602 3.738429624e-19)
(103.2796388 -3.369098686 2.336346134e-21)
(102.0772084 -2.431126617 -3.550229293e-20)
(100.9178512 -1.666995452 8.603387084e-21)
(100.3961987 -1.12781506 0)
(100.0688612 -0.6536082954 3.959514811e-21)
(99.9023639 -0.2151254678 0)
(101.2192835 -0.1583484016 6.001997271e-21)
(101.1775463 -0.4778852188 9.484196816e-20)
(101.0978075 -0.8070800304 -1.910159662e-19)
(100.9673331 -1.170195813 -4.867108843e-22)
(100.7210113 -1.428333482 -1.508135797e-21)
(100.4344697 -1.826857722 0)
(100.0243503 -2.315495148 1.258801816e-20)
(99.42386096 -2.846852883 1.724818972e-19)
(98.53098466 -3.767519766 -1.74529346e-19)
(97.05336379 -4.995417512 -5.174694009e-20)
(95.24298746 -6.399213422 1.379330522e-21)
(93.42737698 -7.671099596 -1.146392582e-19)
(103.8933012 -28.319149 -1.083967089e-19)
(107.3771584 -17.97936114 -1.415276113e-19)
(107.1277536 -12.70678254 -7.598623805e-19)
(106.1248658 -9.583876343 1.049521336e-19)
(105.0328128 -7.429022113 6.116770397e-19)
(103.7695921 -5.58947038 0)
(102.1629947 -3.948032433 -7.010421192e-20)
(101.2505936 -2.880128039 0)
(100.2994995 -1.95018716 0)
(99.87411496 -1.312848388 1.228943928e-20)
(99.59708517 -0.7624679909 2.272423472e-21)
(99.45384316 -0.2509625377 -7.339927941e-21)
(101.5315488 -0.170773899 0)
(101.4975131 -0.5164203663 0)
(101.4329941 -0.8713176511 0)
(101.3267498 -1.261997876 0)
(101.1088212 -1.560075439 0)
(100.8683104 -2.000249671 0)
(100.5305173 -2.539660476 1.167993488e-20)
(100.0359069 -3.131848451 3.170688816e-19)
(99.33805872 -4.124955184 3.158068596e-19)
(98.16648139 -5.45776149 -4.522767661e-20)
(96.7862967 -7.121624384 -2.1951713e-19)
(95.38799609 -9.399068849 -1.644483109e-19)
(96.96110981 -18.29567031 3.159663446e-20)
(102.4135238 -14.79851179 1.477077635e-19)
(103.4391043 -11.68356764 1.925387814e-18)
(103.342479 -9.433225552 -1.213560992e-18)
(102.8768373 -7.591460882 -7.266615933e-19)
(102.0929459 -5.836858912 -5.957589518e-20)
(100.99175 -4.207610637 -9.52025119e-20)
(100.3477539 -3.123027189 -3.600509908e-20)
(99.62230187 -2.113203545 -1.995667785e-20)
(99.28952748 -1.430231475 1.95570403e-20)
(99.06523249 -0.8340177528 0)
(98.94757228 -0.2745755519 1.959756228e-20)
(101.8637964 -0.1790100051 0)
(101.8382833 -0.5421822067 0)
(101.7910949 -0.9141142175 0)
(101.7110927 -1.31809036 0)
(101.5222748 -1.640569341 0)
(101.3376611 -2.101909941 0)
(101.0800608 -2.648828982 2.962751277e-22)
(100.7095332 -3.248473214 0)
(100.2396273 -4.20024958 -5.396517751e-19)
(99.42473415 -5.478326469 5.713902206e-19)
(98.58339908 -7.093414258 5.978523876e-21)
(97.95548861 -9.190423347 2.805855629e-20)
(98.35776534 -11.72343285 1.967867831e-20)
(100.3366294 -11.35069424 -4.120377689e-19)
(101.1001519 -9.969590569 0)
(101.2494694 -8.572152842 0)
(101.0821864 -7.166356647 -4.182900477e-19)
(100.6168232 -5.679137086 -2.447707942e-20)
(99.8779092 -4.210124758 0)
(99.45689199 -3.194034014 0)
(98.92662007 -2.170715904 -3.664995415e-20)
(98.67558249 -1.483228379 1.808442353e-20)
(98.5012222 -0.8685597058 7.609377581e-22)
(98.40808182 -0.2860813323 -1.346604167e-20)
(102.2081632 -0.1831395376 0)
(102.190962 -0.5550285513 0)
(102.1607505 -0.9352285734 0)
(102.1063348 -1.34138853 0)
(101.9464311 -1.677122225 0)
(101.8131139 -2.140914198 0)
(101.6284401 -2.673861495 7.672163311e-22)
(101.3709067 -3.236695862 -2.68252096e-19)
(101.0791959 -4.071860663 -9.567441591e-19)
(100.5621212 -5.144920516 0)
(100.0309449 -6.426736791 0)
(98.28555969 -7.573184451 0)
(99.1110366 -8.891842384 0)
(99.59008005 -8.921183761 -2.867364947e-19)
(99.82562002 -8.341729723 7.102590368e-19)
(99.85540726 -7.500629151 5.69055152e-19)
(99.72511791 -6.455252561 2.874845524e-19)
(99.40743364 -5.2758879 0)
(98.89459281 -4.032650394 -2.973445518e-20)
(98.63403781 -3.134482524 4.608044146e-20)
(98.24636941 -2.145427429 1.13069897e-20)
(98.06222994 -1.481919728 1.937236438e-20)
(97.92995638 -0.8709126755 -2.19896565e-20)
(97.85766191 -0.2869875952 0)
(102.5570104 -0.1835702779 0)
(102.5472689 -0.5561743082 0)
(102.5319547 -0.9365623263 0)
(102.5001731 -1.336049733 0)
(102.3666548 -1.675053807 0)
(102.2775821 -2.126435247 0)
(102.1511938 -2.630129594 0)
(101.9714054 -3.146511812 1.629516662e-20)
(101.804757 -3.832226154 0)
(101.4780939 -4.660605551 1.539617658e-18)
(101.050437 -5.576560339 7.069304095e-19)
(100.3721459 -6.198293094 -3.589233138e-20)
(99.23871678 -6.969989363 2.903644171e-19)
(99.40956397 -7.22861587 0)
(99.20332462 -6.980428538 7.584912172e-21)
(98.99338539 -6.445910198 3.998483131e-19)
(98.74551964 -5.66430888 0)
(98.45498887 -4.773632406 0)
(98.0645861 -3.757495251 0)
(97.89458164 -2.982044281 0)
(97.60580005 -2.059435653 3.875830559e-20)
(97.47172547 -1.438387267 -3.623937425e-20)
(97.37118947 -0.8475110218 -2.467218444e-21)
(97.31480286 -0.2797777 2.475354372e-21)
(102.9034532 -0.1808589498 0)
(102.9000568 -0.5474375098 0)
(102.8969509 -0.9211357475 0)
(102.8837613 -1.30659734 0)
(102.7735332 -1.640183338 0)
(102.7189208 -2.068904307 0)
(102.6364705 -2.534031912 0)
(102.5060389 -3.009716514 0)
(102.4047202 -3.56542767 -2.151647366e-19)
(102.1746049 -4.180624774 6.77845779e-19)
(101.7924109 -4.82290146 -1.165436167e-18)
(101.5568704 -5.341272202 4.229470539e-19)
(97.82256863 -5.755240044 -2.911496355e-19)
(99.5209467 -5.992297328 0)
(98.92385689 -5.87140369 4.654392567e-21)
(98.43984094 -5.495522926 -7.387682968e-24)
(98.0415556 -4.919029537 0)
(97.71756273 -4.249579252 0)
(97.37217079 -3.427419134 0)
(97.24364456 -2.768882508 0)
(97.01696339 -1.931608472 0)
(96.91683063 -1.362755748 0)
(96.83885418 -0.8060553704 0)
(96.79372965 -0.2672752506 0)
(103.2418574 -0.1755984469 0)
(103.2435894 -0.5307502236 0)
(103.2498862 -0.8922954619 0)
(103.2508763 -1.25844593 0)
(103.1595074 -1.579875837 0)
(103.1294687 -1.979816484 0)
(103.0764811 -2.40220861 0)
(102.9765955 -2.831265235 0)
(102.8946486 -3.303554202 0)
(102.6879312 -3.774992595 0)
(102.3171129 -4.229084901 0)
(101.9324803 -4.628853831 0)
(97.07709599 -4.819135627 -9.309918727e-20)
(99.65239447 -5.05611129 3.57013039e-24)
(98.73926766 -4.968476155 0)
(98.0445919 -4.690069619 0)
(97.52366773 -4.266944605 0)
(97.14209175 -3.752570931 0)
(96.80106913 -3.083619875 0)
(96.68091453 -2.529164128 0)
(96.48575865 -1.781849557 0)
(96.40520245 -1.268017083 0)
(96.34076322 -0.7523373534 0)
(96.30376393 -0.2501707037 0)
(103.5678697 -0.1683994582 0)
(103.5734685 -0.5080782693 0)
(103.5863867 -0.8534547146 0)
(103.5971961 -1.197041495 0)
(103.5200815 -1.501721298 0)
(103.5055361 -1.869894687 0)
(103.4693578 -2.249257091 0)
(103.3846707 -2.630593523 0)
(103.3004457 -3.030160299 0)
(103.0760772 -3.410883505 0)
(102.6689649 -3.756697558 0)
(102.04383 -4.043147059 0)
(97.58094778 -4.171350295 0)
(99.65198057 -4.319586487 0)
(98.58270136 -4.242431381 0)
(97.75180265 -4.029726166 0)
(97.13026228 -3.706406485 0)
(96.68743692 -3.302884413 0)
(96.32694948 -2.75285232 0)
(96.19685682 -2.284906138 0)
(96.01245152 -1.623974042 0)
(95.94021496 -1.164222518 0)
(95.88220664 -0.6925529483 0)
(95.8497545 -0.2308220626 0)
(103.8783587 -0.1598616696 0)
(103.8866044 -0.4813252007 0)
(103.9035495 -0.8078561075 0)
(103.9202094 -1.127336952 0)
(103.8530659 -1.412497542 0)
(103.8463499 -1.748171374 0)
(103.8172118 -2.087646465 0)
(103.7359233 -2.422556677 0)
(103.636354 -2.759990293 0)
(103.3827429 -3.068983414 0)
(102.9351234 -3.339151456 0)
(102.0716694 -3.539896702 0)
(98.08665429 -3.651400613 -6.165398952e-35)
(99.62687313 -3.729350135 0)
(98.45551022 -3.65494082 0)
(97.52452571 -3.483529942 0)
(96.82198416 -3.227316326 0)
(96.32212205 -2.903220598 0)
(95.93087235 -2.446316739 0)
(95.78064008 -2.049186711 0)
(95.59340689 -1.467405898 0)
(95.52142946 -1.058582516 0)
(95.46468539 -0.6310501528 0)
(95.43423017 -0.2107957511 0)
(104.1712971 -0.1505266741 0)
(104.1810992 -0.4522012611 0)
(104.1998058 -0.7583558682 0)
(104.2189064 -1.053509512 0)
(104.1581005 -1.317806293 0)
(104.1530786 -1.621985186 0)
(104.1230858 -1.925491539 0)
(104.0377474 -2.217541191 0)
(103.9150835 -2.502968106 0)
(103.627678 -2.755508453 0)
(103.1420559 -2.969838571 0)
(102.049074 -3.109324253 0)
(98.47060133 -3.210961586 0)
(99.5894123 -3.243239327 0)
(98.34682762 -3.171131732 0)
(97.34088511 -3.027583178 0)
(96.57349998 -2.818255911 0)
(96.02302425 -2.552260584 0)
(95.5976036 -2.168579908 0)
(95.42191503 -1.82937134 0)
(95.22348663 -1.3182257 0)
(95.1464547 -0.955936305 0)
(95.08747856 -0.5708172621 0)
(95.05716664 -0.19110199 0)
(104.4456463 -0.1408487507 0)
(104.4560839 -0.422144859 0)
(104.4746915 -0.7073647203 0)
(104.4934157 -0.9788294989 0)
(104.4361462 -1.222073839 0)
(104.4281231 -1.496814384 0)
(104.3915893 -1.767949869 0)
(104.2972629 -2.022085802 0)
(104.1474928 -2.264423757 0)
(103.8255799 -2.472618482 0)
(103.3052294 -2.645429192 0)
(101.9966989 -2.741511765 0)
(98.75474017 -2.834415558 -7.657130826e-35)
(99.5442952 -2.837735218 0)
(98.25105989 -2.767694821 0)
(97.18778635 -2.644106363 0)
(96.36834637 -2.468793465 0)
(95.77393747 -2.246353363 0)
(95.31457206 -1.920777873 0)
(95.11151725 -1.629036547 0)
(94.89724035 -1.17998397 0)
(94.81190208 -0.8593194936 0)
(94.74848215 -0.5137875296 0)
(94.71704354 -0.1723881276 0)
(104.7011943 -0.1311910605 0)
(104.7115183 -0.3922956993 0)
(104.7285855 -0.6568059539 0)
(104.7447284 -0.9057912832 0)
(104.6887598 -1.128581415 0)
(104.6744074 -1.37641576 0)
(104.6275142 -1.618585737 0)
(104.5210078 -1.839993432 0)
(104.342541 -2.046804349 0)
(103.9876196 -2.220150439 0)
(103.4352947 -2.361617042 0)
(101.9280474 -2.426477059 0)
(98.96264771 -2.511361034 0)
(99.49446909 -2.496339525 0)
(98.16491531 -2.428344652 0)
(97.05702821 -2.319759759 0)
(96.19553166 -2.169982446 0)
(95.56338854 -1.980988596 0)
(95.07200235 -1.702055946 0)
(94.841657 -1.449385214 0)
(94.60934448 -1.054430922 0)
(94.51391394 -0.7704640069 0)
(94.44477785 -0.4611116279 0)
(94.41139373 -0.1550425769 0)
(104.9383537 -0.1218339983 0)
(104.9479708 -0.3635140262 0)
(104.962434 -0.6081265047 0)
(104.9743682 -0.8362276207 0)
(104.9179555 -1.039672136 0)
(104.8950173 -1.263301685 0)
(104.8353077 -1.479671292 0)
(104.7146864 -1.673293176 0)
(104.5074587 -1.850870731 0)
(104.122215 -1.996795584 0)
(103.5398151 -2.114143829 0)
(101.8512368 -2.156327241 0)
(99.1136455 -2.233766964 2.457827009e-35)
(99.441902 -2.20724243 0)
(98.08631457 -2.141332527 0)
(96.943261 -2.044456335 0)
(96.04752678 -1.914418983 0)
(95.38312063 -1.751650637 0)
(94.86229892 -1.510578853 0)
(94.60582888 -1.290226095 0)
(94.35482047 -0.9421439866 0)
(94.2485158 -0.6901920019 0)
(94.1730571 -0.4133782358 0)
(94.13724143 -0.1392701802 0)
(105.1579881 -0.1129870048 0)
(105.166441 -0.3364245445 0)
(105.1775466 -0.5623633133 0)
(105.1841319 -0.7714166346 0)
(105.1259685 -0.956924402 0)
(105.0930048 -1.159041407 0)
(105.0190427 -1.352485331 0)
(104.8831808 -1.522846187 0)
(104.6480895 -1.676368839 0)
(104.2356463 -1.80066493 0)
(103.6244259 -1.899144397 0)
(101.7712007 -1.92462344 0)
(99.22285565 -1.995281053 0)
(99.38792404 -1.961680428 0)
(98.0138362 -1.897870833 0)
(96.84280495 -1.810388391 0)
(95.91897878 -1.695974731 0)
(95.2270087 -1.554126982 0)
(94.67950263 -1.344096105 0)
(94.39860164 -1.150594176 0)
(94.12915052 -0.8429765928 0)
(94.01184202 -0.6187167212 0)
(93.9299007 -0.3707896903 0)
(93.89140221 -0.1251495722 0)
(105.3612902 -0.1047994637 0)
(105.3682363 -0.3114605213 0)
(105.375474 -0.5202241826 0)
(105.375955 -0.7121982911 0)
(105.3150484 -0.8813515817 0)
(105.2712106 -1.064508025 0)
(105.1823861 -1.237978219 0)
(105.0306341 -1.388701911 0)
(104.7691464 -1.522518821 0)
(104.3325369 -1.629702893 0)
(103.6933744 -1.713247489 0)
(101.690957 -1.72630624 0)
(99.30170334 -1.790848549 0)
(99.33342607 -1.753030413 0)
(97.94644891 -1.691280056 0)
(96.75302421 -1.611472827 0)
(95.80597883 -1.509637892 0)
(95.09042317 -1.384692456 0)
(94.51890534 -1.200311574 0)
(94.21546534 -1.029178764 0)
(93.92828957 -0.7563700382 0)
(93.80024248 -0.5558701555 0)
(93.71193466 -0.3332983921 0)
(93.67065844 -0.112676735 0)
(105.5496915 -0.09737167034 0)
(105.554881 -0.2889036554 0)
(105.5579255 -0.4821597281 0)
(105.5518378 -0.6590761892 0)
(105.4874423 -0.8135178629 0)
(105.4322851 -0.9801426652 0)
(105.328316 -1.136382423 0)
(105.1606431 -1.270554676 0)
(104.8744764 -1.388268103 0)
(104.4163587 -1.481864109 0)
(103.7498994 -1.553487408 0)
(101.6122875 -1.557221923 0)
(99.35860895 -1.616300104 0)
(99.27898911 -1.576127371 0)
(97.88333875 -1.516341904 0)
(96.67192234 -1.442867094 0)
(95.70554904 -1.351267309 0)
(94.96974316 -1.240089179 0)
(94.37666904 -1.077005035 0)
(94.05258653 -0.9245177697 0)
(93.74862187 -0.6815489211 0)
(93.61031936 -0.5012616791 0)
(93.51591515 -0.3007072905 0)
(93.47186385 -0.1017972982 0)
(105.724741 -0.09076704638 0)
(105.7279975 -0.2689235604 0)
(105.7266608 -0.4484328741 0)
(105.7137547 -0.6123232252 0)
(105.645308 -0.7536978405 0)
(105.5786729 -0.9060857426 0)
(105.459517 -1.047387489 0)
(105.276193 -1.167901536 0)
(104.9671857 -1.272488866 0)
(104.4897694 -1.355272772 0)
(103.7964827 -1.417336492 0)
(101.5362244 -1.414001899 0)
(99.39965901 -1.468260609 0)
(99.22499443 -1.426928608 0)
(97.82383547 -1.368960179 0)
(96.59793435 -1.300715551 0)
(95.61536101 -1.217475087 0)
(94.86208587 -1.117540462 0)
(94.24963932 -0.9721592293 0)
(93.90670687 -0.8351721692 0)
(93.58694462 -0.6176755189 0)
(93.43896871 -0.4543976477 0)
(93.33881016 -0.2727456566 0)
(93.2920439 -0.09243136845 0)
(105.8881286 -0.08502000727 0)
(105.8893245 -0.2516051498 0)
(105.8835103 -0.4191679518 0)
(105.8636911 -0.5720356427 0)
(105.7907019 -0.7019625074 0)
(105.7126196 -0.842222755 0)
(105.57848 -0.9706990608 0)
(105.3798263 -1.080057443 0)
(105.0498107 -1.174031886 0)
(104.5548749 -1.248230686 0)
(103.8350657 -1.30261826 0)
(101.4633672 -1.293829091 0)
(99.42919777 -1.343964095 0)
(99.1716573 -1.302205632 0)
(97.7673441 -1.245855364 0)
(96.52976933 -1.181899685 0)
(95.5335149 -1.105466474 0)
(94.76506826 -1.014676984 0)
(94.13516744 -0.8839877008 0)
(93.77501003 -0.7598052027 0)
(93.4403531 -0.563913556 0)
(93.2833124 -0.4147506531 0)
(93.1777561 -0.2491127248 0)
(93.12835862 -0.08448705588 0)
(106.0413549 -0.0801515887 0)
(106.0404143 -0.2369878429 0)
(106.0300929 -0.3943962825 0)
(106.0033761 -0.5382678013 0)
(105.9255471 -0.6582426591 0)
(105.8361744 -0.7883135566 0)
(105.6873994 -0.9060391164 0)
(105.4737287 -1.006315882 0)
(105.1244387 -1.091800084 0)
(104.613378 -1.159240333 0)
(103.8671787 -1.207481462 0)
(101.3939963 -1.194425452 0)
(99.45030046 -1.241105451 -3.398993738e-36)
(99.11907174 -1.199357127 0)
(97.71332399 -1.144392939 0)
(96.46633475 -1.083901975 0)
(95.45842644 -1.012965371 0)
(94.67663899 -0.9295631238 0)
(94.0309976 -0.8109896101 0)
(93.65502678 -0.6972104138 0)
(93.30638964 -0.5195355736 0)
(93.14086794 -0.3818085744 0)
(93.03025838 -0.2295199076 0)
(92.97833356 -0.07787715432 0)
(106.1867431 -0.07615391526 0)
(106.1835614 -0.2250517683 0)
(106.1686911 -0.3740829489 0)
(106.1351088 -0.5108149522 0)
(106.0517088 -0.6224125277 0)
(105.9512105 -0.7440504378 0)
(105.7884792 -0.8535293165 0)
(105.5597882 -0.9458709291 0)
(105.1928199 -1.024787163 0)
(104.6666861 -1.087012845 0)
(103.8940581 -1.130383442 0)
(101.3281664 -1.113950261 0)
(99.46512439 -1.157779701 0)
(99.06725664 -1.116286967 0)
(97.66128113 -1.062460167 0)
(96.40668931 -1.004695019 0)
(95.38877793 -0.9381261215 0)
(94.59522383 -0.8608693385 0)
(93.93502279 -0.7520535071 0)
(93.54456309 -0.6463949385 0)
(93.18228859 -0.4837548073 0)
(93.00881233 -0.3551022849 0)
(92.893421 -0.2136794349 0)
(92.83901933 -0.07250625085 0)
(106.3235494 -0.07307294418 0)
(106.3181964 -0.2158682735 0)
(106.2988489 -0.358229154 0)
(106.2585636 -0.4900939322 0)
(106.1709149 -0.5942151977 0)
(106.0594454 -0.70920463 0)
(105.8829725 -0.8128992889 0)
(105.6399001 -0.8981544494 0)
(105.2564725 -0.9721218885 0)
(104.7159981 -1.030448176 0)
(103.916733 -1.07002835 0)
(101.2656749 -1.050901957 0)
(99.47521099 -1.092412624 0)
(99.01617546 -1.051308912 0)
(97.61074697 -0.9983605316 0)
(96.34998087 -0.9426364972 0)
(95.32339966 -0.8793897318 0)
(94.51950912 -0.8068292905 0)
(93.8453961 -0.7059297586 0)
(93.44153494 -0.606242692 0)
(93.06760188 -0.4564404476 0)
(92.88669427 -0.334244006 0)
(92.76682255 -0.2014319152 0)
(92.7101269 -0.06834434783 0)
(106.4624457 -0.07076024821 0)
(106.4544719 -0.209185469 0)
(106.4303599 -0.3466700685 0)
(106.3824354 -0.4737543471 0)
(106.2854736 -0.5736716364 0)
(106.1624321 -0.6838406339 0)
(105.9723689 -0.7832888215 0)
(105.7154877 -0.8627155059 0)
(105.3166642 -0.9330856727 0)
(104.7623403 -0.9886383645 0)
(103.9360863 -1.025382947 0)
(101.2063507 -1.004071575 0)
(99.48169062 -1.043782712 0)
(98.96575954 -1.003118217 0)
(97.56127827 -0.9507751378 0)
(96.29542293 -0.8964466292 0)
(95.26116861 -0.8355492671 0)
(94.44773292 -0.7661142799 0)
(93.76082455 -0.671443821 0)
(93.34428712 -0.5767660966 0)
(92.95448884 -0.4351630895 0)
(92.76572149 -0.3187950999 0)
(92.64128733 -0.1923652723 0)
(92.58196002 -0.06519345422 0)
(106.5702487 -0.06968582452 0)
(106.5606859 -0.2057466966 0)
(106.532943 -0.3402858821 0)
(106.4806589 -0.4675974288 0)
(106.3942717 -0.5601281574 0)
(106.2613837 -0.6673397845 0)
(106.0580149 -0.7643334054 0)
(105.7878403 -0.8390767533 0)
(105.3744853 -0.9070494585 0)
(104.8066283 -0.9608095737 0)
(103.9529354 -0.9956199575 0)
(101.1501777 -0.9726165609 0)
(99.48540037 -1.010985628 0)
(98.91589004 -0.9707280881 0)
(97.51243871 -0.9186985647 0)
(96.24228115 -0.8651576519 0)
(95.20108669 -0.8057357078 0)
(94.37875051 -0.7383265689 0)
(93.67997064 -0.6480842883 0)
(93.25156266 -0.5569507821 0)
(92.86484032 -0.424802892 0)
(92.67110638 -0.3094711534 0)
(92.54323351 -0.1871660719 0)
(92.48234802 -0.0634981354 0)
(106.7792878 -0.06852028906 0)
(106.7660511 -0.2032685558 0)
(106.7310288 -0.3359512644 0)
(106.664733 -0.4584008302 0)
(106.4964864 -0.5546583 0)
(106.3528394 -0.6600075682 0)
(106.1376029 -0.7562104698 0)
(105.8580592 -0.8269201853 0)
(105.4308045 -0.8934818182 0)
(104.8496382 -0.946232636 0)
(103.9681411 -0.980060869 0)
(101.0973822 -0.9560687094 0)
(99.48688577 -0.9935028476 0)
(98.86647789 -0.9534097918 0)
(97.46386197 -0.9014084336 0)