/*--------------------------------*- C++ -*----------------------------------*\
| =========                 |                                                 |
| \\      /  F ield         | OpenFOAM: The Open Source CFD Toolbox           |
|  \\    /   O peration     | Version:  v1912                                 |
|   \\  /    A nd           | Website:  www.openfoam.com                      |
|    \\/     M anipulation  |                                                 |
\*---------------------------------------------------------------------------*/
FoamFile
{
    version     2.0;
    format      ascii;
    class       volScalarField;
    location    "2.33";
    object      k;
}
// * * * * * * * * * * * * * * * * * * * * * * * * * * * * * * * * * * * * * //

dimensions      [0 2 -2 0 0 0 0];


internalField   nonuniform List<scalar> 
12556
(
36.90870964
36.90879423
36.9089585
36.90925863
36.95460268
36.95594792
36.95829228
36.96298245
36.97152394
36.98414
37.00068013
37.0081297
37.00997778
37.00645831
36.99521395
36.98077397
36.96949745
36.96195199
36.95803526
36.95583796
36.90965555
36.90899221
36.90866013
36.90842071
36.72752409
36.72781419
36.72837937
36.72985153
36.77618429
36.78289474
36.79605418
36.83617575
36.87577488
36.93720929
37.00751167
37.04243911
37.05268722
37.04027721
37.00107704
36.93541597
36.87737024
36.83896478
36.79515043
36.78231327
36.7313985
36.72896194
36.72781203
36.72717411
36.54774196
36.54852746
36.55009604
36.55326164
36.60261903
36.61902968
36.65083402
36.717705
36.8114068
36.939196
37.05145593
37.11993807
37.14227318
37.12080584
37.05124768
36.93931495
36.81471158
36.72501475
36.64698423
36.61720262
36.5576353
36.55207522
36.549446
36.54836878
36.36935967
36.37050461
36.37349346
36.38087435
36.43598493
36.46933202
36.53716534
36.6543025
36.82301527
37.00447425
37.16853678
37.28550723
37.33439862
37.30207394
37.19163731
37.01455279
36.82575514
36.6602583
36.52607195
36.46720151
36.39051289
36.3793631
36.37410173
36.37206451
36.19280932
36.19491739
36.20065285
36.21442852
36.28050188
36.34050792
36.46732495
36.65469336
36.8932241
37.14643713
37.40127062
37.62122116
37.74142236
37.69032852
37.50288046
37.20583476
36.90786194
36.66557079
36.44605995
36.33715109
36.23166
36.21067976
36.20122872
36.19756575
36.01735778
36.02073267
36.03041273
36.05485221
36.13994566
36.24039334
36.45382218
36.70183753
37.01839347
37.38268156
37.82415819
38.32595877
38.66969746
38.55865742
38.1047973
37.58001901
37.0911269
36.72170848
36.41394081
36.23230094
36.08415836
36.04640899
36.03034348
36.02411165
35.84445959
35.8502304
35.86667268
35.90745366
36.01271547
36.17080551
36.46997508
36.79403705
37.21504854
37.74372205
38.5549799
39.97069947
40.7325846
40.59512733
39.19853463
38.18673951
37.39056281
36.83754071
36.42476122
36.15685031
35.94720909
35.88714799
35.86155331
35.85169083
35.67548641
35.68412885
35.70886151
35.76992826
35.90280911
36.13097366
36.51488181
36.92589259
37.47279353
38.22422567
39.6085284
42.83768725
43.69379169
40.93759097
39.04519792
37.79653216
37.00648897
36.4620661
36.10868838
35.82389875
35.73482929
35.69620412
35.6815302
35.51447377
35.52762533
35.56423011
35.65112917
35.81373319
36.11666203
36.58286109
37.08534933
37.76200965
38.72863105
40.62509633
45.5958224
48.97380004
43.03580231
40.0582691
38.28033272
37.21362604
36.51859985
36.08389622
35.71516105
35.59156083
35.53719383
35.51656943
35.36384648
35.38171101
35.43068216
35.54516711
35.74591592
36.12237615
36.66624019
37.25929299
38.0512621
39.18361031
41.38540229
46.86158483
52.48832249
44.92158629
41.04178774
38.75551252
37.42882689
36.58882364
36.07751682
35.62304869
35.46122222
35.38841465
35.36070586
35.22769669
35.25209613
35.31693808
35.46459942
35.69802842
36.14139997
36.75891433
37.43314197
38.31704154
39.57221353
41.98929504
47.45867688
54.16442243
46.29490669
41.81807283
39.15709551
37.62777562
36.66280268
36.08247768
35.54679405
35.34559411
35.25356675
35.21790868
35.10572035
35.13584496
35.21456887
35.39301298
35.66561505
36.16817868
36.85471323
37.59825871
38.55934394
39.91522819
42.53357039
47.25665339
54.87409144
47.14035715
42.34380177
39.45530111
37.79632695
36.73232107
36.09179642
35.48733386
35.24606247
35.13432213
35.0903793
34.99900755
35.03645922
35.13421231
35.34672452
35.64302807
36.19592425
36.94303926
37.75418789
38.77136659
40.22293698
43.09541011
46.72896029
42.90533248
54.69463243
47.54475793
42.63313101
39.62627626
37.92255525
36.79104259
36.10000929
35.4362657
35.16134444
35.03031934
34.97838064
34.9036287
34.9475545
35.06155075
35.30103367
35.64080497
36.25407739
37.07354018
37.92431907
38.9947986
40.54930948
43.70510161
45.23107605
53.84917915
54.66387483
47.62342217
42.65888937
39.70265278
38.0167739
36.83637947
36.10383221
35.38983884
35.08727543
34.93874723
34.87949116
34.81711152
34.86707074
34.99553498
35.25932394
35.62735934
36.28674691
37.1667653
38.11658192
39.30733053
40.96582053
44.09434701
41.62683815
55.06795209
53.90695806
47.2017917
42.50786529
39.69182398
38.07804691
36.86216865
36.09665884
35.34473621
35.01936196
34.85569192
34.79009789
34.73410759
34.78952758
34.9303753
35.21567218
35.60881549
36.30567719
37.24183468
38.33794193
39.76915945
41.67579804
44.6705374
36.15141345
53.56404262
52.16652367
46.28358612
42.15605868
39.62741655
38.09613732
36.86497958
36.07233406
35.29324058
34.95088486
34.77604339
34.70517081
34.65227862
34.71241134
34.8631534
35.16602115
35.58005782
36.30254366
37.28888916
38.51058509
40.31908131
42.63922559
44.22071919
28.09406365
52.84531407
49.89210446
45.05080722
41.70537399
39.56206034
38.08208225
36.84071827
36.03021697
35.23426349
34.88044385
34.69611786
34.62078536
34.56651422
34.63062117
34.78922854
35.10646527
35.53785263
36.27897118
37.29305636
38.55770126
40.64934972
43.15657983
38.57435541
37.67002737
51.38816698
47.77164837
43.98250453
41.34549922
39.46101656
38.01948364
36.77723156
35.96412256
35.16118108
34.80051627
34.6113809
34.53266806
34.4772705
34.54457297
34.70893824
35.03652969
35.48031356
36.23135349
37.26523332
38.54430649
40.61792669
42.64456811
29.57470799
45.96086626
49.83741851
46.40021474
43.39044511
41.09059084
39.3016483
37.90943832
36.68469928
35.87797856
35.07576956
34.71221848
34.52018179
34.43945432
34.38015952
34.44997902
34.61876673
34.95429342
35.40742757
36.16259206
37.20404276
38.48825267
40.5023756
41.94854748
27.18895713
45.03937689
48.62507796
45.73117459
42.9786162
40.81507669
39.11004395
37.76747865
36.56942368
35.77413882
34.97756761
34.61366598
34.42022822
34.33815904
34.27896674
34.35065146
34.52235946
34.86232505
35.3202748
36.07570285
37.11855409
38.39938681
40.3267812
41.20719736
25.35479928
43.64353545
47.57098443
45.12665061
42.58479075
40.53481477
38.90199569
37.60491157
36.43689298
35.65553543
34.86888927
34.50704069
34.31339358
34.23055066
34.16869583
34.24177515
34.41581061
34.75920992
35.22072398
35.97390557
37.01428443
38.28523883
40.10483306
40.46230049
23.87175134
42.32053689
46.60448875
44.56158516
42.21150036
40.25861005
38.68698742
37.4299781
36.29164039
35.52525077
34.74976845
34.39070205
34.19731897
34.11405947
34.0566279
34.13066764
34.30598763
34.64990849
35.11080623
35.86023805
36.8956797
38.15154218
39.84666853
39.73674097
22.67775816
41.06446638
45.70391591
44.02906807
41.85699683
39.99062227
38.47080052
37.24844827
36.13745111
35.38611073
34.62403596
34.26914097
34.07654309
33.99314528
33.93506647
34.00982635
34.18642074
34.53140173
34.99271849
35.73734183
36.7662879
38.00253095
39.56033543
39.04216062
21.72008971
39.86322818
44.85830688
43.52401467
41.5187989
39.73211414
38.25686881
37.06422625
35.97750305
35.24056681
34.4904584
34.13907303
33.94710273
33.86365293
33.81566879
33.89087852
34.06789842
34.41109016
34.86819756
35.60751649
36.62891599
37.84099118
39.25286556
38.38309892
20.95495972
38.71118358
44.05863081
43.04227086
41.19485357
39.48297224
38.04708019
36.87985056
35.81425607
35.09056586
34.35439214
34.00774121
33.81669695
33.73330084
33.68545763
33.76103239
33.93884987
34.28225425
34.73903162
35.47265044
36.4855993
37.66858338
38.93052121
37.76117977
20.3514079
37.5987297
43.29997261
42.5802319
40.88336605
39.24255865
37.84229361
36.69691344
35.64949942
34.93774436
34.21172993
33.86803453
33.67740061
33.59398072
33.56281671
33.63857509
33.81633323
34.15646784
34.60627052
35.33422178
36.3377276
37.48659235
38.60064141
37.17652355
19.88352988
36.52539984
42.57705548
42.13484247
40.58274031
39.01013764
37.64281806
36.51640704
35.48453616
34.78327383
34.07091899
33.73199896
33.54212452
33.45871948
33.42584487
33.50178777
33.68010116
34.02049164
34.47129273
35.19332445
36.18618276
37.29638293
38.2690321
36.6286968
19.5348809
35.49039303
41.88062928
41.70344985
40.2914846
38.78493227
37.44862883
36.33889835
35.32026369
34.62821146
33.92253365
33.58536926
33.39549867
33.31194227
33.30396422
33.37995584
33.55790806
33.89387296
34.33445003
35.05076916
36.03157147
37.09946546
37.93950917
36.11558917
19.29171571
34.49136071
41.20376646
41.28391692
40.00831233
38.56621796
37.2595558
36.16471141
35.15732066
34.47312319
33.78161963
33.44929654
33.25995335
33.17628411
33.16065426
33.23673392
33.41505343
33.75179368
34.19702191
34.90717769
35.87436233
36.89736478
37.61405893
35.63488647
19.13635291
33.5300245
40.54459399
40.87450788
39.7321041
38.35330233
37.07532833
35.99399316
34.99614785
34.31878598
33.62856546
33.29643814
33.10669353
33.02269501
33.04368327
33.11974393
33.29755581
33.62896643
34.05868447
34.76302413
35.71498643
36.69156457
37.29352161
35.18511751
19.06079975
32.60688416
39.90095538
40.47390732
39.4619217
38.14555815
36.89563901
35.82677897
34.83706415
34.16530949
33.49228663
33.16523741
32.97577249
32.89152515
32.89262709
32.96872251
33.1466671
33.47934248
33.92103354
34.61874129
35.55395143
36.48335132
36.9789536
34.764122
19.05173991
31.7197642
39.27165852
40.08104461
39.19700893
37.94244279
36.72017968
35.66302185
34.68030747
34.01349497
33.33272875
33.00430025
32.81414393
32.72938249
32.78554648
32.86158762
33.0390742
33.36630943
33.78293958
34.47471989
35.39185419
36.27375071
36.67084417
34.36883749
19.09990766
30.86880707
38.65688717
39.69524067
38.93672207
37.74345898
36.54863478
35.50263347
34.52613313
33.86302048
33.20779327
32.88436255
32.69417051
32.60906516
32.62309802
32.69914541
32.87644456
33.20408916
33.64715225
34.33164577
35.22941896
36.06366948
36.36951791
33.99552972
19.19759926
30.05446194
38.05669086
39.3158041
38.68057848
37.54820304
36.38074312
35.34557064
34.37503371
33.71539731
33.03511843
32.71005446
32.5190642
32.43326026
32.53219386
32.60819775
32.78524169
33.11020374
33.51200571
34.19077741
35.06836756
35.85383883
36.07510916
33.64120725
19.35299645
29.27842728
37.47175068
38.94288411
38.42822532
37.35632493
36.2162484
35.19167963
34.22835424
33.57070963
32.93339979
32.61040788
32.418997
32.33278617
32.32423291
32.40021474
32.57685891
32.90084057
33.38441676
34.05531989
34.91406242
35.64555546
35.78958467
33.30798421
19.53287272
28.54446842
36.90746862
38.57974915
38.18073836
37.16808398
36.05521717
35.04098171
34.09036537
33.43483816
32.7109274
32.38657691
32.19391988
32.10666653
45.37525403
49.64302233
44.12118645
46.73911119
53.49703693
50.1156114
47.43520676
55.1902436
53.80654322
47.3069324
55.84665223
55.29903443
46.76588336
39.8558121
42.06550419
56.13210629
55.88544461
45.77176479
48.0684248
40.02804092
53.29445745
56.58135816
56.15506515
42.36280142
40.6990347
43.60575923
40.45746313
54.73963998
46.22504739
48.39987959
43.55103607
41.60558012
41.21561275
45.58879743
44.4950261
57.46118927
60.77895175
52.17237495
45.89324077
44.17610769
41.85092182
46.43407911
45.71433393
47.17890363
49.81358932
50.90420039
55.1097282
54.7901571
54.03019292
47.57852717
46.36913511
42.41537268
46.78189742
46.50779377
47.44324071
45.66356498
47.93364117
56.88776697
55.75553958
42.97443998
46.76036766
46.79673735
47.02872681
40.35282788
43.04270149
41.33178071
58.1682531
57.79672247
43.59907575
46.31144693
46.73390786
46.43010623
33.35228427
36.69233767
44.12189753
50.55407246
48.47959973
50.54120155
52.86092094
45.20285274
50.02042723
60.77641414
55.12243013
47.29237194
53.80776454
59.26569228
51.03345579
51.74940324
46.29324085
52.644005
51.15572861
53.07082999
52.80102121
54.92911244
57.16409898
52.02051462
58.54569961
56.87257053
59.43391795
58.71255067
51.76052486
48.15159377
49.62614496
47.26444836
49.22007221
47.11222148
51.05933274
49.35065544
55.54478162
55.20243845
54.73652389
57.32929086
57.58764196
56.78578665
57.28519861
54.5507189
43.19185447
45.52314377
47.41904654
44.4221744
41.5995183
46.9714545
44.57998921
57.72325523
57.01537274
36.86463736
40.15609558
46.9995099
45.11852814
37.94251748
34.15973492
41.44110218
38.18238301
47.51336763
58.37526608
58.21192919
40.70025556
40.71481472
33.28864871
46.38337064
44.61541134
32.25890978
88.41006918
34.05627621
32.29558944
43.95931344
40.396916
44.28601216
42.12540833
44.1501684
48.70334214
44.6941409
70.95463135
50.7637575
46.15908542
51.80754253
51.29778753
62.70166755
54.83379829
48.63268454
47.88109009
72.83211973
46.86710711
45.11078679
48.46813771
58.64959866
58.47238701
51.09952374
49.11132585
44.50993839
60.45332605
48.30225451
58.04252701
45.71423982
52.65657681
46.59683948
44.6264296
41.56546527
55.64766912
57.96655867
58.14664381
57.63294709
57.93414218
55.58191711
39.56856299
64.28304633
41.20861631
42.52507666
42.09384105
44.58441691
45.55947444
42.54779863
42.58298743
77.75631287
51.15861396
70.56533786
49.25714991
65.50625202
50.14462832
59.77595238
59.98564195
54.84629773
54.83289593
42.15550228
55.45886022
56.43697878
43.22582189
41.6162423
59.47953706
44.30859262
56.2805736
41.81982102
46.54984314
46.16225575
50.47972043
47.89259717
64.19522194
35.62644423
44.17225153
43.64635415
44.85109455
44.36497433
35.75851241
65.98366602
61.06015949
51.73743959
61.53375319
62.64238289
56.01389871
61.10382385
52.05198584
47.43845539
55.04219133
47.33575297
61.59996056
56.00837077
48.19833673
58.97064011
65.75884582
59.02411745
58.61028134
51.94654375
47.24499549
51.85219634
53.22891196
51.33216988
55.32713255
47.71485879
50.81553313
53.17557168
56.16588596
56.35566899
57.74452269
56.6214934
56.0426064
57.15316017
56.77352937
57.61704471
59.75861597
54.65526633
53.52995786
55.81473154
54.97889092
59.69502273
48.26005746
48.12391829
50.31923608
50.21135302
55.78687398
60.69315008
55.70433643
43.29816388
43.1042905
45.84406717
45.68167698
41.65164115
43.82309501
57.3672836
41.33139039
41.827809
38.89616421
45.470612
45.01226861
46.02873043
45.61464194
39.0665122
39.65675466
36.94660576
36.77853147
40.32435472
40.16606131
74.09056198
39.4546302
53.18560651
51.25367504
43.44298232
42.94474506
32.6357494
32.88554709
42.75207771
49.30165935
33.56720581
87.80856015
51.59061733
79.01579792
33.48889168
41.84340369
60.0808928
43.75611527
70.68792644
41.13021684
43.240437
43.99660504
45.6748069
46.18940529
44.64157253
37.68985351
42.63224191
55.4995571
55.85934589
56.48084243
59.27446804
44.75504125
53.61150561
55.0252751
53.74137936
39.49574331
58.75529641
58.70272329
49.15217117
44.58397935
44.22109989
47.58590651
49.33476452
44.35957394
44.70030034
58.57732107
62.40396698
60.47113881
60.62949418
54.90433354
44.95118284
44.57683701
52.7087618
52.3120313
54.56094197
46.67304912
48.27071358
47.98700205
48.61684332
48.36109292
46.83870899
47.031893
46.67248563
41.97533875
33.9229237
40.21634044
39.75512804
81.27354649
61.1325914
48.68895997
60.32673565
64.99467939
62.93075669
56.69025259
51.14512961
49.45964503
53.10085263
51.67063821
57.09257973
55.40416746
52.75565689
52.83339489
56.60989693
48.81501297
48.90343428
48.69511867
42.84875319
43.43796477
47.5536623
44.56643424
44.41457718
55.39373329
57.43307601
57.71137262
57.67265077
56.64700985
57.47678163
57.24720278
57.65102491
57.52854227
56.64991428
44.36691965
47.47649277
47.14633098
47.88845835
47.58259205
44.52361405
43.95050166
37.67450339
38.06461082
34.02090059
34.33072602
42.14207005
46.50056607
41.89733489
42.6859311
38.21728222
38.65502599
45.05183881
57.45891945
44.43961476
49.40349865
78.64408204
41.40427468
37.46348092
35.39208939
40.96839273
33.71576633
33.94980233
33.17888931
39.29784079
64.23736683
38.10916964
41.46277259
40.56922943
39.60626919
39.17447359
33.12155389
42.9698347
40.86468314
46.63800433
32.15680448
101.1605828
45.97923632
42.3903029
44.89162817
33.86789029
32.44567825
62.21779699
61.76130732
60.82372579
62.37315406
62.08296393
40.0876182
40.69978143
73.37159492
57.93881519
57.79357729
52.21277453
66.79867723
52.47358386
67.15855728
53.47893875
52.4794492
44.2579959
42.54009122
60.27899478
69.46599776
61.75563765
47.87179598
39.3940029
64.58297832
78.34048921
48.32517984
61.07934959
84.95165428
41.80501678
45.96674138
39.98466364
41.11995582
76.85485956
78.16558197
60.56928654
55.85973037
65.55785061
61.55556145
54.95358209
51.07480614
58.4794323
57.42293871
57.51503216
58.95253028
60.48185471
59.96268476
58.10170479
46.66729532
45.35624456
54.8533244
55.03948792
53.72196512
47.82649529
54.18294548
53.14477068
54.60192629
52.41334437
47.26001897
44.87822599
46.43185547
42.02068132
49.45834439
48.17894642
49.45982088
45.74520253
44.45899268
47.67946356
46.31431776
47.59045705
49.62088744
40.00821004
40.01001822
40.87014124
40.35333378
34.494164
36.16619557
41.44562476
41.01568815
64.1744327
63.43082302
62.90468277
55.66956538
56.39445635
54.42196969
55.39045336
63.27139905
59.11337996
56.94801533
56.80415547
56.57593768
56.89999254
59.47469546
59.63779967
52.87706395
54.08985865
63.72467373
64.2792654
65.58768486
64.54550071
60.03362002
66.21895748
67.90388615
66.61657398
67.7048463
66.84624043
68.43487259
67.42933473
57.17766055
64.62815911
65.78843502
45.54484718
52.11139441
51.04247401
53.12206493
52.40121169
46.2620875
49.56881574
48.8409034
50.67190431
49.81983922
52.92017133
55.88726887
55.22996892
56.65799334
56.09532697
53.49031495
48.95472202
54.07693584
53.3655207
55.00267696
54.31084747
49.4018289
52.92431624
52.72506945
55.58686047
56.60191721
54.22742242
53.05425074
42.23104561
41.65814933
43.22520916
42.43210279
40.74319641
40.18333788
41.47584571
40.9122775
47.689271
47.01459602
48.60694152
47.92050292
45.67890945
43.75072962
46.77090294
46.09795707
43.39626127
43.58874817
44.12686153
43.49034112
60.46563483
45.03960981
46.65322443
43.67222632
44.46739242
37.16237912
37.52045946
43.79214035
34.73540909
34.47878546
35.11687186
34.84002255
34.29957845
42.37622629
34.55873077
36.71128831
39.623478
41.60069814
46.34184818
39.16565671
36.29929357
40.06939192
39.20057979
35.57293422
35.23714209
36.09583323
35.69862721
45.20852806
38.81040681
39.3362458
69.42961529
41.20730432
68.07510636
58.99329135
67.54509108
41.30458561
81.53622974
40.70845086
78.13841984
68.89725754
37.32364071
36.09795155
33.41497794
33.6466082
40.8106686
39.57744553
33.17851198
33.36488051
74.50658894
33.05172481
38.97036333
38.23056225
88.47596732
93.08970204
32.11588967
96.6683484
81.02813816
45.20794594
33.79697936
87.8322125
60.32201991
95.80371681
64.33014193
32.58730965
43.21698114
41.00320174
39.49174825
72.51814073
71.89689594
55.31911354
49.18610973
48.79641088
73.18363799
39.45664887
45.93645071
41.73758284
58.16021073
58.29913759
56.01747712
47.61863895
46.61495537
51.59764686
59.43423505
47.28711832
47.60949097
41.94766893
42.3416068
45.21617867
53.10321237
57.98544181
61.37338588
50.32299174
49.21295424
49.14971177
49.19228847
49.2180975
50.47731159
41.0942015
40.16837282
46.04952827
50.26012003
52.39302632
57.99451211
41.99394761
41.58078764
36.29201216
62.41966123
64.39721057
56.72437025
49.11173754
48.96325481
49.02555301
48.81036339
45.22306967
45.96873421
46.33444529
47.46038025
49.74159074
37.82970687
42.56640731
42.13013067
59.75586996
56.05315093
43.5808057
32.76989178
32.8208488
34.34086807
51.61691753
75.45249613
67.0100929
39.72533161
43.45833709
41.50074752
32.22568871
33.98849679
32.68092339
32.72982457
32.33083549
71.79476496
61.84782573
48.64770549
52.12807898
71.70016257
40.71022547
40.27792967
47.40336747
59.53140394
48.87105442
47.04608233
49.6908834
43.05455038
42.88691657
40.989032
81.82021593
85.1508003
86.39308783
74.28516093
83.58352208
43.87952512
44.31136778
48.24852066
73.34014697
66.42250963
62.96504273
76.68914137
73.45269352
42.62387809
50.95390016
48.7449689
64.84319869
63.70728406
50.07809484
51.01846074
49.89499951
41.84669174
60.49200041
44.25514135
45.24540177
57.21207086
43.58842669
45.48522209
65.6016484
66.55561484
61.88270518
62.01932212
60.42945194
60.27326012
56.73846839
58.04229671
57.56050424
60.07742827
59.80418712
60.54989729
50.97722465
52.4685641
58.99976602
60.87400369
68.27175119
63.55120964
68.14857905
68.57403596
64.89760019
43.51016959
46.21758627
45.59520865
50.67301568
50.38130368
46.95371226
43.0284423
42.73210186
45.06166538
44.6342862
51.85342674
54.58489383
54.17335909
57.1128726
56.68416435
54.68720801
48.07913202
51.42225095
51.07809958
53.76049128
53.35730793
50.33119985
44.41565798
45.01550162
48.67761513
47.69306953
43.62783044
44.21997009
48.57387598
49.17491393
50.64858703
41.05367845
40.87174539
42.47864246
42.24601344
38.16348664
40.61280432
40.46391295
49.85888917
47.73852491
48.36620488
59.21398995
58.45393217
46.19724313
47.13540139
60.11185155
58.09450198
58.46176788
55.47143239
44.42451646
45.17030614
43.11155492
42.70612537
38.2059997
39.51836858
43.59914831
43.23270185
34.54413146
34.60587218
37.06209039
36.6485447
34.35077898
34.42496643
73.97455864
32.60773139
34.39608615
33.3509056
109.89522
32.38638476
44.15639425
76.52480976
70.23818167
32.34670996
32.38510789
33.64775537
86.24146198
91.8525352
89.37989627
73.27189761
33.35542376
32.2589072
32.30248208
50.02367502
39.79342595
39.90448437
71.96916427
70.89282322
54.68164097
51.91854121
42.32602355
60.48706172
63.46175809
67.04182013
47.34586724
70.34287877
61.2195862
70.65788477
68.79988149
50.20886005
46.01315573
47.04529346
53.74347134
55.20325131
55.62861438
54.52318661
54.81583234
61.82432414
61.57662004
62.024642
60.57998053
61.02603872
61.1163483
52.89920911
46.87200412
47.24125818
46.32228336
46.57055144
53.31929989
64.04664162
63.32318714
63.4566147
62.53834581
62.94350923
63.46104981
52.52956153
48.36438979
48.79594123
47.59783006
47.98455979
52.72941033
54.07863354
53.9866506
53.32379886
53.360497
37.78290753
40.47196719
40.32422114
34.10735131
36.78489164
36.64729225
37.20105823
36.94807799
34.19887355
75.19220069
76.77770961
68.06102533
76.59543383
33.17588353
33.11599149
33.33450275
33.26174682
32.66698721
34.70945225
32.89103241
33.03950335
33.80015798
36.30321004
36.18262776
36.53065366
36.4138372
33.87231169
33.50929034
33.40253491
34.80223355
33.72492669
33.14805204
77.86391898
74.35252989
56.82819236
77.17014775
36.08834633
34.81656826
38.84838248
33.19293694
35.39757596
35.26304485
32.18661921
100.6410265
101.6770478
65.9796309
94.92051016
86.88891211
32.56788622
32.63560707
33.9351558
32.38098015
67.29925932
75.66254885
68.13264032
71.23750159
65.7430138
55.01084623
73.20116932
66.68885424
63.25028107
62.61171305
73.16466836
56.00499707
63.03907111
59.04289358
55.52495875
63.25604335
55.71313016
59.52151968
68.12901878
69.78448305
60.64286239
66.74903275
71.820836
68.7667447
70.61278018
67.51011565
71.69521764
81.79516754
81.30879281
79.64990531
51.68508539
72.41647173
65.46311983
79.77573622
81.78958687
56.64219249
62.4773875
68.01523777
83.5077357
70.83853651
54.18680327
57.7967263
71.98810759
67.01499425
72.84387906
64.00990344
68.06176876
71.73660798
73.9798701
73.18312455
56.93579179
57.49155918
57.86274692
56.45716935
56.43517457
56.29267644
59.23818451
59.57648855
60.00350915
58.56088335
58.94844015
58.74579306
46.22595116
46.62577613
46.64152804
54.50321529
54.18618829
50.53937766
55.77882481
55.75085954
54.54229094
53.15753094
54.0704708
49.79889834
46.32626235
46.22898116
46.6350202
46.50162979
47.99447893
64.20089883
56.58255908
43.44605869
66.70366326
66.33377719
65.80265523
48.00556442
64.24509754
63.08703532
42.96015595
43.40636104
54.02341777
64.94825103
62.59388337
59.01997443
58.54834442
57.4367371
60.14212319
59.57300035
59.25404054
69.64790878
69.37328193
62.57374231
70.46936652
72.89901623
64.77599729
69.30756809
69.59011511
65.27649452
63.5181096
63.5224421
63.45304136
63.48196583
64.92348252
66.66707994
67.21435954
67.64692868
71.74301871
71.37925185
72.08485424
71.98212987
67.4578323
68.91815202
70.80593045
72.27929504
69.19563352
48.99961236
48.80294678
45.52344424
46.44836948
49.92292789
49.71940626
43.62629504
43.31395778
44.27625948
43.93880428
55.41642375
54.9965564
52.36392286
54.08227241
56.26167254
55.83829294
52.18419717
51.81778186
48.55077718
49.84083561
52.95486499
52.57135454
52.92725593
50.09976783
50.57485929
49.19795823
49.65196664
52.65394939
53.48711067
51.98986042
52.55030908
51.05373816
51.53261331
53.4544665
42.03373987
38.52659731
38.71195282
38.1923742
38.36137037
41.84652081
42.89497535
39.33075038
39.60692058
38.89768708
39.10453583
42.64904873
40.54375382
37.22471773
37.39609563
36.93552779
37.10488021
40.39541313
41.28681488
37.86443794
38.03298563
37.53490843
37.71099961
41.1077732
41.5133802
41.30589119
47.46553021
44.9953412
45.22199518
44.53216478
44.73899816
47.23119313
41.98928383
41.76377586
39.63816738
39.58377583
45.35820459
42.94590873
43.02700118
40.01411064
40.56116179
44.51578303
46.5679407
44.08667888
44.25763656
43.63635956
43.75673313
46.29090481
40.17753284
40.0722489
58.50391969
57.94585634
59.88632065
48.77690435
52.81654983
45.4323003
57.14563307
57.9619398
56.1852536
56.72519884
46.07372771
43.82384025
51.88418595
48.27440924
56.65102741
57.08843104
44.2205317
37.22853476
39.80962976
39.66758706
40.15127251
40.01596148
37.4344136
34.66993904
34.53945587
35.02730417
34.9098271
34.18330512
33.6079048
34.95953183
38.31893935
37.64165814
39.32870584
39.0181437
36.66643221
37.11233734
35.17386783
36.17445332
36.62274419
39.80835018
36.64942707
36.84252757
36.29159457
36.5724541
39.72423284
35.46274985
35.33936015
35.95178246
35.8170474
66.35460335
47.56596301
49.44043314
43.64880418
45.59445132
67.60045255
66.12677933
64.96241692
51.82767048
57.90117175
68.64165225
76.72344978
57.31078755
60.99213431
48.69945752
53.11432701
78.71661455
32.9337079
32.88163003
33.04837831
33.00486491
33.82899464
34.12932404
36.36789686
32.6691136
32.64511928
32.80306319
32.75031517
33.5002185
35.84684963
35.70745626
36.07357939
35.94660082
33.56087085
33.25105732
35.38001007
35.08121232
35.6250171
35.45098954
33.28738688
72.62336298
35.12913851
34.88277854
32.8575704
86.31840719
106.5867878
108.831463
106.9368902
106.6409797
89.84400387
32.1779744
89.60695606
72.89495162
76.17243096
33.71711375
32.43331089
32.49970134
87.33343936
93.41667709
92.35935627
80.37118411
85.75507165
96.86073137
94.07677218
68.49614282
90.54343974
82.4032952
32.36543362
32.23592911
33.06207526
36.74318115
36.79813039
36.86341239
36.82022843
36.90559526
36.91890822
36.93292479
37.01285484
36.98819228
37.03447008
37.08424013
37.03536737
37.09437047
37.11252445
37.05211009
37.11344714
37.10261578
37.04618589
37.09438443
37.05185053
37.01688861
37.03294792
36.95956954
36.95391468
36.93325643
36.84734167
36.89061448
36.82400843
36.76388646
36.84724698
36.66377399
36.77455382
36.78424045
36.81486503
36.94068632
36.90864933
36.98179241
37.09708984
37.0273016
37.13056704
37.21287511
37.10789941
37.23305544
37.26879951
37.14129114
37.27275471
37.26060474
37.13066424
37.24705999
37.17379399
37.07282178
37.14273869
37.02887785
36.96935174
36.98667436
36.85880578
36.84414034
36.81807081
36.70211273
36.74242052
36.65098712
36.81339397
36.77867177
36.86985033
37.04396949
36.95964233
37.10215564
37.27404956
37.13107145
37.32847754
37.47639888
37.2625067
37.5199644
37.60111261
37.33030058
37.61518115
37.60710909
37.31905428
37.58421635
37.44994122
37.22798137
37.40010666
37.21338929
37.06191057
37.14398943
36.94125041
36.8716773
36.8785513
36.71113253
36.69835385
36.68590837
36.90354638
36.83086475
36.98053096
37.22468111
37.08199289
37.31262652
37.5950656
37.33871873
37.69504554
38.00885642
37.57488986
38.11420321
38.34152882
37.73017733
38.37848745
38.36000386
37.71937848
38.28206297
38.01468492
37.56905925
37.91658289
37.58069995
37.28394052
37.46528564
37.13516626
36.97820104
37.03554548
36.77698543
36.72168288
36.76735044
37.05604074
36.9355725
37.15846361
37.50624344
37.28605509
37.64111874
38.13121478
37.70484906
38.33361801
39.11932964
38.20299902
39.43783644
40.32271503
38.62293521
40.38052798
40.14881995
38.58518029
39.77503507
39.10854725
38.23406133
38.87401332
38.2123991
37.71376063
38.00909067
37.4617705
37.20415287
37.30467589
36.90969732
36.8031541
36.88745321
37.26050904
37.10314475
37.39807269
37.88768829
37.5957262
38.09081992
38.9241139
38.30947194
39.32797162
41.73940255
39.53305949
40.79730283
41.33988174
40.25059744
42.05113145
42.04514965
40.7184881
41.44904476
40.73953686
40.22594967
40.45248674
39.15367354
38.42222173
38.80125577
37.93000041
37.56701601
37.6908014
37.10963371
36.95440697
37.0424106
37.51223451
37.32488973
37.68834949
38.33121831
38.00252245
38.60642256
39.79220389
39.15100004
39.8853256
40.53332982
40.19603506
43.30269503
44.02187512
43.43225997
45.7647811
44.25224491
42.79038717
42.52049258
40.32552394
39.44201848
39.77569919
38.49074091
38.06110102
38.15374374
37.3604447
37.16986415
37.21577038
37.7721968
37.57738569
37.98113923
38.74723054
38.43762632
39.07705801
40.50131659
39.98594964
40.83729074
41.68575915
41.43573109
45.80490685
47.08390044
46.84287077
50.5582047
47.62924411
46.3970121
44.50616184
41.50797887
40.65061897
40.76595601
39.07254091
38.64623236
38.63726946
37.62810967
37.42849748
37.39187019
38.02018455
37.835261
38.25492179
39.11280931
38.84287942
39.48122697
41.06433054
40.65218406
41.54848737
42.5015364
42.31690131
46.97640649
48.60062539
48.49471183
53.2863767
50.02081946
49.26042393
46.0236941
42.50164198
41.8096574
41.61730325
39.57738051
39.21998899
39.06283335
37.87501014
37.69283701
37.56495901
38.24933715
38.07693534
38.50415828
39.43469111
39.19501694
39.83489285
41.55639418
41.18978243
42.13616572
43.17093339
42.99951911
47.46250789
48.22365997
48.38552501
54.52470743
51.37714828