/*--------------------------------*- C++ -*----------------------------------*\
| =========                 |                                                 |
| \\      /  F ield         | OpenFOAM: The Open Source CFD Toolbox           |
|  \\    /   O peration     | Version:  v1912                                 |
|   \\  /    A nd           | Website:  www.openfoam.com                      |
|    \\/     M anipulation  |                                                 |
\*---------------------------------------------------------------------------*/
FoamFile
{
    version     2.0;
    format      ascii;
    class       volScalarField;
    location    "2.33";
    object      p;
}
// * * * * * * * * * * * * * * * * * * * * * * * * * * * * * * * * * * * * * //

dimensions      [0 2 -2 0 0 0 0];


internalField   nonuniform List<scalar> 
12556
(
1003.232449
1000.938029
995.7231869
985.7552631
972.6544575
945.9200666
904.3047545
840.7493134
749.3207128
624.0062828
462.9292483
270.8985855
62.68340596
-142.2089183
-325.6132082
-476.7872793
-593.9827331
-680.353085
-741.3991634
-782.5104414
-815.5641185
-829.9004357
-837.9175198
-841.5274702
1004.667212
1002.924143
998.7892407
990.7766801
977.4738063
954.0915218
916.383472
864.1066657
779.9694977
660.7229188
501.4724498
305.8071734
89.69782112
-126.3293303
-320.2365811
-478.189595
-598.1601666
-685.1635628
-752.0529035
-789.8722231
-821.7953053
-833.9640678
-840.7935778
-843.8502445
1008.117438
1007.573288
1005.954767
1002.23042
991.7493255
975.9158692
947.8387803
900.7008602
826.2777042
711.7538124
548.2909441
336.670671
91.92696608
-153.4725367
-364.8348416
-526.471448
-641.3827438
-719.4297245
-780.9391441
-810.451968
-835.9834408
-843.5863084
-847.7421083
-849.5203995
1012.631149
1013.786678
1015.764274
1017.734286
1013.341069
1008.230644
995.6446462
961.8651935
906.9567946
808.710038
650.2288488
415.5346187
112.2421966
-200.501285
-450.6599868
-616.6200032
-718.4886428
-779.8887607
-824.6536739
-841.0038831
-855.8404319
-857.3946278
-857.6271196
-857.5258441
1016.38695
1019.496051
1025.718722
1034.364084
1037.955576
1046.99167
1054.737142
1045.448377
1022.783868
960.7110963
830.5883118
576.0573683
159.5619588
-293.6132966
-607.3938803
-766.9229381
-834.1673453
-861.896649
-880.0427983
-878.6599762
-878.4225952
-872.5775566
-868.0797388
-865.7660829
1017.451383
1022.515673
1033.028636
1049.132636
1060.478582
1086.299088
1117.911758
1140.217242
1163.583317
1168.531993
1119.840673
892.3850602
234.0253268
-541.0967892
-913.2175476
-1001.039717
-987.1420533
-960.6380666
-942.0461212
-918.5297765
-900.2970463
-886.2357567
-876.6667083
-872.0482669
1013.95166
1020.76735
1034.907933
1057.437602
1078.44636
1118.883479
1174.430511
1228.377389
1302.460133
1391.927081
1517.823188
1593.840493
413.256637
-1339.854847
-1472.833822
-1322.759633
-1169.445075
-1064.862803
-1001.573186
-954.6961829
-917.6753482
-895.2613233
-881.0111715
-874.2582213
1004.287659
1012.342591
1029.033887
1056.051049
1085.255338
1136.622512
1209.534215
1289.221531
1400.387012
1557.189481
1847.25732
2466.289487
-3322.443472
-2249.301348
-1676.638573
-1342.882555
-1156.365088
-1046.965366
-980.2207811
-925.4771774
-896.5836099
-878.8154908
-870.3515056
987.2329537
995.8628043
1013.71264
1042.730878
1077.886122
1134.348359
1214.821325
1308.425562
1432.603023
1597.243755
1861.798335
2234.610676
-4698.722054
-2754.24958
-1906.671235
-1452.144495
-1210.360753
-1067.924343
-987.706111
-920.4131048
-887.9242573
-868.1752831
-858.7209914
962.1462967
970.6351988
988.1213157
1016.436395
1054.681008
1110.181377
1187.951067
1280.28194
1393.351523
1532.529799
1717.972023
1910.756721
-4191.874169
-2676.983526
-1900.732224
-1453.551146
-1209.046928
-1056.909749
-973.8972373
-900.708252
-867.9322087
-848.0006047
-838.4262388
929.0529482
936.7466102
952.469803
977.5738341
1016.257591
1065.57475
1133.002853
1215.612755
1308.670211
1415.542226
1545.12348
1674.245904
-3077.943523
-2214.439393
-1692.303343
-1353.289352
-1152.297038
-1013.827112
-938.4001705
-866.3896331
-836.57375
-818.2342261
-809.3735732
888.5816455
894.9581922
907.9357644
927.5275671
965.4302227
1004.151503
1056.250565
1124.320807
1194.571589
1271.487076
1362.356514
1475.92662
-1970.500528
-1627.291031
-1383.256142
-1188.704628
-1054.08297
-944.3568367
-884.2826207
-819.1112864
-795.1684505
-779.7783459
-772.2992574
841.8817613
846.6164179
856.3964913
870.2345326
902.7002068
930.2050048
964.221081
1016.111992
1062.552307
1109.329012
1157.789254
1243.51585
-723.2186458
-989.200063
-1085.029867
-1067.935752
-1001.845581
-933.6610073
-858.0316873
-816.2658243
-763.4551859
-746.0225577
-734.2711823
-728.6005171
790.3538444
793.3468514
799.7290174
808.2354666
833.9705087
849.9106407
866.6858477
899.9600659
923.4149813
939.3802065
936.6111304
930.653909
304.5913796
-388.7110026
-682.7466604
-802.9606291
-824.9703388
-807.0873193
-765.0379146
-741.2672115
-702.571948
-691.5356926
-683.7507879
-680.0601513
735.5491071
736.7501562
739.4104725
742.443871
761.9719963
765.9479648
767.004267
780.8555664
782.4906703
771.4555271
725.2296818
594.7610512
284.3429299
-141.7309939
-441.6969872
-606.7677914
-673.178533
-687.5003316
-672.1833688
-664.7482233
-639.2310609
-634.2123784
-630.3433926
-628.5611598
678.9976408
678.588474
677.8038595
675.8626402
689.6287848
683.861114
672.5524891
667.4211769
647.7350792
615.1693124
549.1353916
433.1621123
210.5245731
-78.03457775
-319.5199923
-472.6032779
-549.8840049
-581.1819976
-585.4367898
-590.5202409
-576.2516834
-576.4175581
-576.008728
-575.886232
622.1557055
620.4407183
616.8634996
610.938527
619.3526053
606.2236335
585.6879424
566.9557961
526.6573913
475.159835
400.4055082
291.3103932
118.2232079
-79.71189505
-256.5153082
-380.0262478
-450.5276745
-490.3863527
-507.1454772
-520.9962906
-515.7617769
-520.0427133
-522.4065675
-523.5708642
566.285436
563.5760179
557.8723173
548.9890137
553.0218726
534.713167
508.1961671
482.4998334
429.5306763
364.7257059
283.0289119
188.5419348
52.58999973
-89.21252343
-214.2545869
-306.6725416
-369.4193061
-413.3670437
-438.0620298
-457.4193822
-459.0573161
-466.2984918
-470.7479506
-472.8531383
512.3539683
508.9401958
501.7296334
490.8266638
491.6270013
470.1915149
440.4389436
412.0727095
359.2444823
292.9341827
211.1964264
125.1964649
19.92518693
-83.71023554
-173.7103958
-247.8734781
-306.0494025
-349.9604152
-378.2609063
-400.4890967
-406.7963435
-415.9547476
-421.8160384
-424.6128754
461.054312
457.2053369
449.0647708
436.9680436
435.5843587
412.6701776
381.7787106
353.1933119
303.188758
243.0106259
172.772079
100.7253522
15.61077641
-65.91243662
-139.9716942
-203.7054357
-256.0965417
-297.7559649
-326.8862526
-350.0791349
-359.2703164
-369.4791688
-376.1736647
-379.3671198
412.8410292
408.788251
400.2194922
387.6321696
384.8317758
361.7032901
331.2524453
303.7076639
257.7013403
204.4342125
144.8686902
83.05238189
14.00504632
-53.0835777
-114.9991351
-169.6854316
-216.1425055
-254.4677917
-282.8628267
-305.7072705
-316.4190696
-327.013938
-334.0702742
-337.4398292
367.963575
363.8877861
355.2817821
342.7511809
339.1281943
316.6552713
287.8024279
261.8302117
220.2512891
173.3764648
122.1458575
69.64855997
12.22964898
-43.69814301
-95.88415543
-142.8357731
-183.6725027
-218.2290589
-245.0473028
-266.7394535
-278.0016183
-288.4870485
-295.5504501
-298.9283438
326.4974231
322.5313311
314.1692914
302.0846297
298.0970496
276.8410042
250.0692198
226.14811
188.9810186
147.860966
103.6546178
58.87357404
10.55350447
-36.54595868
-80.81697027
-121.1744638
-156.8856616
-187.6985448
-212.376284
-232.5155814
-243.6552405
-253.6906015
-260.5142265
-263.7821865
288.3860068
284.6233224
276.699242
265.3204596
261.3066514
241.6076192
217.16594
195.4872204
162.5310218
126.549763
88.34953477
50.00106938
9.037620607
-30.90205605
-68.63119229
-103.3516862
-134.4699828
-161.7186054
-184.0252355
-202.4000739
-212.9737173
-222.3447878
-228.7669096
-231.845792
253.4829128
249.9863443
242.6279347
232.1174749
228.3145644
210.3476432
188.3176988
168.9248916
139.8943531
108.4957385
75.47583471
42.56779586
7.691081217
-26.31749154
-58.5568038
-88.43072041
-115.4627042
-139.4005483
-159.294503
-175.8254008
-185.5539162
-194.1381052
-200.0591543
-202.8992831
221.5831837
218.3907659
211.6744603
202.1226264
198.6894164
182.5203001
162.8819304
145.7299672
120.312048
93.00789951
64.49405678
36.25106407
6.505733182
-22.50076028
-50.06792
-75.74370449
-99.14556461
-120.0478754
-137.5878245
-152.2862426
-161.0109584
-168.7493392
-174.1148799
-176.6886992
192.4418343
189.573051
183.5371783
174.9829373
172.0285453
157.6521182
140.3253421
125.3209249
103.2067329
79.57337369
55.01026254
30.8182444
5.467329213
-19.25572011
-42.7958979
-64.80586629
-84.97785393
-103.1159107
-118.4146735
-131.3441745
-138.982142
-145.8588984
-150.6466485
-152.9425861
165.7897093
163.2511592
157.9076446
150.3556396
147.9522051
135.3209901
120.194495
107.22284
88.12449849
67.79560534
46.73205565
26.09539421
4.559823129
-16.44502516
-36.47292692
-55.25434134
-72.54150388
-88.16815942
-101.3610517
-112.6124608
-119.1309248
-125.157774
-129.3670289
-131.3842362
141.348168
139.1381744
134.4819279
127.9151003
126.1122697
115.1557979
102.1055172
91.04482022
74.70353004
57.36612545
39.43225233
21.94887082
3.76739416
-13.96982687
-30.89993772
-46.81262319
-61.50866597
-74.85096343
-86.08062073
-95.7545479
-101.1496059
-106.3546235
-109.9979677
-111.7421601
118.8375127
116.9493054
112.965006
107.3541075
106.1867419
96.82624527
85.73509705
76.45248258
62.64596357
48.03461057
32.93378378
18.27253894
3.074463995
-11.75635056
-25.92378975
-39.26356425
-51.61506652
-62.86033042
-72.28063112
-80.47394805
-84.75770065
-89.17716807
-92.2746525
-93.75532076
97.97709185
96.40204641
93.06970046
88.37707211
87.88539219
80.03339966
70.8436124
63.16477095
51.70710652
39.59936592
27.08682564
14.97876616
2.466204834
-9.748124819
-21.42389351
-32.4338758
-42.64927097
-51.9627543
-59.69199439
-66.50729875
-69.69409664
-73.36926974
-75.94392111
-77.1715629
78.51265892
77.23970324
74.53785514
70.72747071
70.9205831
64.50144558
57.11288306
50.96623349
41.68470511
31.89317767
21.76297823
11.99362351
1.92889459
-7.900539006
-17.30244939
-26.18116607
-34.43789937
-41.98891792
-48.07246743
-53.61544578
-55.73693351
-58.70670461
-60.78208572
-61.76899225
60.11674654
59.14316578
57.05793406
54.08452729
55.08614349
49.98246163
44.20752648
39.65578626
32.39583469
24.76650288
16.85395946
9.253585431
1.44989705
-6.176575025
-13.47632658
-20.38147706
-26.82132956
-32.74155406
-37.24719816
-41.58419386
-42.61569402
-44.92686681
-46.51948509
-47.26965492
42.77201765
42.07261431
40.58325025
38.47018175
39.92858135
36.25024471
32.01336149
29.00869053
23.66873281
18.08287127
12.26665774
6.703429682
1.017551101
-4.544811376
-9.873573616
-14.9256966
-19.65516775
-24.02634318
-27.04741152
-30.19897663
-30.36512584
-32.00162547
-33.13245433
-33.6716308
25.37642273
25.01726803
24.13558425
22.86603761
25.49230912
23.09981106
20.33989395
18.84852855
15.34731011
11.71656262
7.911120874
4.29235614
0.6206155804
-2.977251969
-6.429750427
-9.71595878
-12.81168622
-15.70253483
-17.29030491
-19.36168014
-18.10142587
-19.08266527
-19.74766156
-20.01078517
11.41657675
11.15172983
10.74009065
10.14692168
11.39361339
10.22320858
8.904501081
9.013444023
7.285968317
5.543861943
3.686536783
1.976950085
0.248021086
-1.446975846
-3.085610236
-4.663558375
-6.172515668
-7.622447425
-7.748872779
-8.71013791
-8.471827156
-8.942273301
-9.267238667
-9.501382242
2285.874087
-5068.183691
-3553.505781
1944.756549
-4578.171214
-5095.700925
1700.495151
-3352.389864
-4443.475851
1501.406069
-2148.281461
-3194.263951
1261.791139
-773.3716783
-819.9510733
-1103.396614
-2007.510487
960.8752766
389.6030328
-724.3667878
249.9136706
-396.933448
-988.1421738
2402.736417
685.2837246
-3161.119263
-1135.427599
-7027.929686
-4818.752278
-4660.537387
-2981.747216
-2447.592272
1758.777195
1923.053354
2186.207058
-6557.170998
-7099.0532
-4306.634872
-3026.829874
-3063.813573
1589.081645
1687.525793
1890.686789
1814.874321
1855.811753
1980.735588
-4685.478555
-5627.201261
-3222.197998
-2536.875029
-2939.149442
1409.580113
1486.835422
1661.456252
1599.528318
1643.342185
1725.485425
-3023.819718
-3721.555952
1210.970376
1258.825528
1461.221505
1384.660757
1450.078481
1546.33222
-1611.852352
-1594.53533
-2197.247976
992.1839462
969.7308118
1225.600361
1115.752009
1151.720496
1312.733057
664.9915451
403.5992879
404.8170072
2855.465067
2412.469006
3249.145567
2936.889368
-7127.437048
-7069.603693
-4731.436184
-6739.223062
-6946.2995
1998.188109
2128.419284
2055.37747
2135.105603
2002.283948
2368.980964
2156.807318
-5685.632331
-6512.893035
-4850.965651
-6375.842838
-5591.722329
-6921.834438
-6418.822508
-4899.003325
1738.373203
1839.202796
1784.816992
1848.471359
1740.277434
1993.126179
1857.554355
-3825.923944
-4620.477923
-3829.466818
-4510.206381
-3752.631856
-5534.511508
-4629.479607
-3988.090586
1552.767323
1638.261534
1575.272252
1642.313527
1557.744332
1733.440464
1647.178872
-2286.203371
-2928.435093
1321.770274
1443.187119
1369.507792
-1561.836085
1449.182252
1327.724314
1551.169977
1456.143149
-1604.610904
-996.2352436
-1512.875228
-1558.972031
1034.613169
1138.598714
1095.353435
7.569564291
1144.331818
961.859403
1318.683057
1156.710791
-66.81563536
1882.14133
2228.660693
2338.886361
2473.629319
2873.313566
3094.454528
-9368.379372
-6350.900252
2096.124742
2150.784981
2364.156205
-3621.793848
-2103.168804
-1862.623548
-2374.979286
-2041.347267
-2000.011155
-2317.362028
-125.1127171
-458.3382138
-848.8233306
2405.844263
2804.411049
2436.174532
2578.77999
4115.51098
3804.530792
-4545.638517
-6620.432362
-4514.888525
-2369.816875
-2713.620862
-2584.744086
-2884.32476
-2260.95628
-3652.200399
-2976.886995
-2734.182446
-1135.34042
-229.5809342
-405.779014
996.3121157
2184.844467
3174.850344
-4282.712565
-1499.894542
617.2543638
-9437.885167
-6506.250331
-8997.93998
-6003.265161
-8855.045819
-6167.192085
-6805.653436
-6844.006287
-5127.512938
-5191.534486
-3185.841572
-3536.78762
-3315.526062
-3520.390909
-3157.254116
-3982.144999
-3575.768544
-3415.422073
1495.666176
1461.21266
1419.896872
-1615.982055
-1903.873428
-1952.970081
1235.360669
1198.679709
1132.639565
1275.146508
1218.778358
1245.226738
2959.703387
2619.177154
2632.603969
2623.545741
2974.658975
2386.978311
2585.110553
2569.875395
3237.686282
3724.997137
3970.430836
3040.259457
3635.20434
3176.033829
3695.151569
3041.647197
-7213.647395
-7218.144283
2071.209419
2156.055906
2061.892033
2261.540804
2251.608663
2369.657473
2163.814037
2238.581344
2231.929473
-6069.067986
-6121.64503
-6017.684084
-5394.465614
-5603.695878
-5065.638772
-5316.877985
-5966.399535
-6704.448521
-5860.438739
-5935.122254
-5664.688287
-5820.227993
-6667.988622
1794.487976
1786.762794
1929.842309
1919.989105
-4153.708923
-4028.205732
-4210.902683
1603.855061
1597.955549
1689.861569
1684.195154
-3101.194305
-2743.205371
-2648.171243
-2761.884717
-3122.262544
1377.517331
1343.11776
1292.700958
1405.350527
1359.331296
1386.82947
-1187.057026
1391.608741
1381.792546
1506.183832
1500.416601
-1957.995959
-1191.728193
-1241.238628
-1521.521839
1108.713287
1035.855484
957.5320002
982.2649112
516.6611279
234.3243228
1251.683466
-216.5581874
194.1423275
-130.5307196
1242.444235
-314.990041
-166.5108507
161.9978342
-8265.67129
-2208.01999
-2375.593389
774.4051856
707.8711438
931.7694545
813.1753467
829.5206082
996.8403503
295.4016788
-77.35841409
-277.6970154
4885.608786
-2408.394093
-2595.542612
-886.4163562
-1149.713356
-1141.411801
-95.60761087
-350.1511542
-53.55803881
1470.034551
2822.257168
4023.84802
-5638.275402
-2025.849459
423.1895946
-6674.378024
-7667.106886
-7500.48208
-6997.477149
-4871.911829
-5070.388426
-4854.965462
-5904.616209
-5713.471018
-5445.863055
1681.088591
1655.926453
1620.719233
1705.538351
1668.001107
1687.065654
1513.029737
1474.399837
1501.673887
1189.565012
1174.830315
1137.624825
918.4775448
723.7583707
454.3422191
-7174.8526
-7742.890934
-7732.946605
-7011.863691
-5847.562951
-5605.286712
-5941.684606
-5891.581099
-7003.266536
-5855.710859
-6149.621714
-5971.063448
-6357.989049
1778.672938
1758.859096
1718.49721
1748.788077
1766.940816
1759.293625
-4788.019719
-4581.882894
-4440.495423
-4171.653056
-3916.596072
-4205.329643
-5117.013401
-4694.343928
-4975.826201
-4303.127778
-4597.478078
-5055.789619
1593.755597
1562.185935
1525.587972
1609.15434
1574.125374
1599.602809
1627.138161
1642.761343
1654.499266
1572.353851
1595.962779
1576.447979
1714.554722
1721.883774
1742.269754
1658.037074
1670.665752
1662.208132
-2556.827966
-2694.508833
-2365.768663
-1382.220641
-1399.111041
1427.241822
1344.28504
1530.944238
1540.913881
1566.297409
1496.161582
1475.487981
-1745.497167
792.5671808
1012.077436
963.5398035
1124.199065
1079.016989
1087.337925
202.5499038
429.4321589
199.2390126
1094.773778
462.3941452
749.7335228
555.2858789
587.7357255
1286.067391
1194.109302
-8639.793556
-7957.085902
-8253.212931
-3776.494475
-3847.303199
-2010.115796
-2157.607265
-2158.628216
2489.33787
2461.194515
4150.064639
4693.601597
4670.397791
4549.710436
4092.455041
-2789.179029
-2599.039815
-2562.371355
-2597.627904
-2807.239536
-1136.827408
-954.4077682
-977.6152517
-956.5475235
-1134.740124
-727.0033686
-905.7019348
-477.0297583
-513.1545232
-677.7792984
-304.7009025
-460.0130211
-375.8528571
-9250.167634
-7994.151654
-7563.19225
-8235.986505
-8086.722385
-7378.405665
-6635.24614
-8019.567421
-7209.32172
-7080.160294
-6705.713353
-6960.599853
-7439.556845
-7265.202022
-5351.047629
-5142.817296
-4936.095387
-5202.32927
-5418.446349
-4921.336485
-5137.555294
-5492.131297
-5383.054638
-5653.552321
-5427.356373
-3332.589727
-3401.938029
-3371.210136
-3289.306735
-3441.084012
-3821.813441
-3708.373406
-3871.545554
-3491.757579
-3654.693955
-3762.409438
-1821.105877
-1805.424927
-1956.325617
1219.245395
1187.143438
1198.246774
1271.825498
1258.630199
1229.961152
2794.685748
2746.571651
2750.947885
2755.481402
2633.968081
2950.677473
2800.443735
2800.704051
2462.226597
2473.972905
2400.371316
2597.637361
2501.888691
2491.548297
3274.083796
3181.866793
3008.286118
3392.928224
3292.802035
-7892.257942
-7763.006021
-7186.720849
-7961.810824
-8157.36928
-7907.644793
-8219.130568
-8296.166484
-8241.008882
-8187.164861
-7193.754922
-7935.365372
-7946.761745
2113.606822
2110.411498
2085.330879
2150.398769
2120.176438
2125.189077
2048.26443
2025.947491
2078.337905
2055.573716
2296.052281
2304.518874
2258.04761
2379.330624
2321.771682
2311.949959
2196.199633
2194.265459
2160.67395
2244.066483
2206.19414
2208.661999
-6369.176716
-6207.862265
-5910.498369
-6297.204258
-6613.421785
-6416.496491
1825.612822
1803.678049
1859.021606
1832.258096
1768.967909
1751.864556
1795.602869
1774.521976
1977.856916
1946.953483
2017.684303
1988.173041
1895.852472
1867.280341
1936.695819
1906.154593
-4144.481776
-4329.841804
-3929.112676
-4092.193472
-4182.284956
-4634.094412
-4846.210009
-4386.347078
-4570.997492
1615.756367
1636.894619
1621.616257
1642.9791
1618.790269
1658.090327
1649.347285
1613.268763
1581.535803
1598.662647
1609.809335
1699.336367
1715.259233
1707.852587
1718.708132
1702.222767
1745.230854
1724.690236
1672.259018
1660.806771
1693.974601
1676.903625
1667.48475
1675.514954
1692.868989
-2804.152331
-2920.000939
-2984.968314
-2793.735111
-3041.015965
-2967.559291
-1144.903369
-1350.601575
-1370.228423
-1147.002697
1419.691378
1354.380937
1517.457461
1533.81619
1524.386362
1482.172813
1503.347335
1513.530455
-1836.935951
1064.296477
1062.391635
1010.639201
633.1710361
553.2283439
1073.384444
306.0807446
446.756411
357.0162288
1274.6675
-367.2685812
52.2434612
256.0224855
10.62643985
1197.646439
-2999.550399
-2201.936399
-1488.090599
-2356.543056
-2414.688822
-1128.849183
-1214.897024
-1692.353583
-2416.018149
-926.6522585
-905.5213225
-737.1207171
-2174.554533
-1627.921296
-1599.379299
1484.651093
3301.648963
4501.466566
-6874.156714
-2717.195289
250.3618745
-2084.092232
-1788.674747
-4098.485172
-6802.207793
-7708.542346
-7898.244443
1908.56679
1881.977579
1832.970559
1950.925229
1898.911662
1926.685621
-1603.948533
-1754.170604
-1755.664872
-2269.869967
-1984.01453
-1933.95664
1295.985132
1268.769222
1282.356213
-7938.43985
-7946.995426
-7188.402358
1817.31045
1772.952998
1793.013237
1824.615265
1830.9976
1856.744298
1865.278625
1893.124401
1883.317383
1342.640809
1329.842298
1305.178074
-1573.473781
-1524.661973
-1515.574986
1333.067834
1342.426357
1335.762699
-1679.90972
-1688.713984
-1583.901301
-1401.36135
-1400.970982
-1553.700659
1130.14258
1309.535177
1316.812625
1324.679053
1165.965843
-9275.616579
-3660.479272
-2023.958911
-2098.995346
-2103.039369
-2358.424626
-2200.798134
-2171.394627
2542.427069
-5479.675167
-4960.786075
-6014.52628
-2514.380525
-2566.441457
-2404.077062
-721.4420848
-736.4001104
-552.8310803
-560.050456
-663.2251636
-2802.201709
-2368.373388
-5416.857972
-9173.34458
-8651.533743
-8493.129651
-8902.385487
-8944.226807
-3235.653018
-3270.388111
-3217.464182
-3551.879106
-3554.379684
-3528.495697
-3084.684735
-3235.311407
-3309.347534
-3943.779346
-3885.599022
-3943.245787
-1950.222014
-1928.66472
-1961.568271
2897.961829
2978.181078
2659.989353
2663.744053
2668.834195
2628.999349
2404.791013
2416.212184
2394.544695
2591.468078
2556.952294
2550.517208
3426.016049
3248.581878
3363.294486
3589.765342
3611.644336
3754.66311
3045.096094
3115.232339
3117.403905
2095.789683
2092.764626
2091.163031
2153.921155
2144.349567
2146.866999
2046.301554
2040.506782
2086.286948
2078.026029
2267.052291
2269.28633
2254.616913
2374.127997
2354.114531
2350.502323
2171.987908
2172.403029
2162.915419
2241.250678
2229.661025
2228.726983
1801.487052
1823.620209
1816.307652
1766.383919
1773.034302
1793.901452
1942.761886
1972.705284
1957.068957
1965.337732
1954.490325
2033.63876
2023.460862
1878.604388
1943.749726
1933.111883
1892.997652
1903.001698
1932.773995
-4329.759735
-4405.67155
-4002.468651
-4072.499953
-4095.336359
-4475.922883
-4487.4982
-4379.571087
-4519.665734
-4341.193118
1363.548636
1338.70697
1350.914061
1413.32777
1396.365218
1372.409516
1396.119328
1407.432972
1401.640991
1372.429747
1376.402279
1385.701411
-1961.475766
989.4564621
1003.948679
970.9476783
670.6250232
996.7872065
397.1066141
509.4838418
618.2423523
1258.276053
1263.845928
1259.205319
-280.6915717
-123.2389228
-103.6659897
-119.7133092
1230.975924
1238.216915
1249.838451
-25.35509157
-110.6475165
-253.5644199
-2241.455629
-2289.466874
-2400.516992
-2350.01524
-2329.772803
5055.485583
5085.965161
5018.782819
-2470.124677
-2495.389903
-2405.674307
-2613.018625
-2553.649031
-2543.849831
-3789.29912
-3103.186533
-6491.024427
-6938.866657
-6955.630908
-6846.3407
-6895.74414
-7607.791775
-7419.58745
-7468.841768
-7325.78025
-7373.313406
-7554.528463
-5846.169158
-5758.266543
-5820.074734
-5624.647279
-5694.623165
-5783.828375
-7786.183466
-7568.209697
-7571.356323
-7519.401893
-7556.939805
-7779.911882
-6086.486905
-5998.853305
-6056.981142
-5882.740516
-5941.24665
-6031.815745
-6757.320491
-6801.740332
-6635.022249
-6696.487943
1647.219303
1641.90418
1637.016456
1578.83868
1574.738818
1567.906241
1588.575066
1582.198305
1587.228641
-1523.479823
-1579.923417
-1378.608697
-1465.208259
1444.838939
1440.357751
1457.78709
1450.0449
1348.581149
1340.368245
1346.605968
1342.606132
1549.371947
1546.155081
1538.472582
1561.336557
1554.086604
1558.512628
1472.287456
1467.228535
1488.222701
1470.619868
1478.804926
-1750.140841
-1745.190594
-1737.526139
-1583.277947
992.0682203
1006.909399
1079.688858
1106.756267
1100.902222
1082.236041
1114.346571
413.2698416
402.9147325
1043.223588
934.6863828
725.3522897
1287.964899
1304.431256
1298.688352
1179.897966
-9216.193699
-9501.63712
-8982.002145
-8816.710027
-8306.655578
-7393.395974
-9152.90495
-8815.71863
-3710.893091
-3864.665967
-2162.124293
-2152.783019
-2156.430547
2514.47949
2429.765649
4756.160809
4562.941497
4504.857624
4078.614816
3943.873095
4379.067273
4214.476991
4353.677357
-2686.949987
-2608.110275
-2745.614002
-970.5884759
-965.2582918
-952.8973139
-1075.586654
-765.2704099
-740.1382414
-728.024279
-892.2232853
-830.1874839
-830.9380569
-486.3963865
-542.3831203
-536.0625485
-358.7737616
-366.9428818
-413.2861695
-8854.623112
-8768.775098
-9229.163107
-8194.315878
-8574.323213
-8579.163768
-8993.825051
-8977.870436
-7150.197115
-7032.605426
-7076.240315
-6976.500657
-6991.681596
-7097.138946
-7376.204391
-7222.515328
-7275.087001
-7123.649237
-7172.007029
-7320.119207
-5282.221338
-5205.981779
-5274.194577
-5269.635865
-5345.789774
-4966.122713
-4995.944647
-4970.92878
-5073.511964
-5572.684681
-5607.47945
-5561.45307
-5476.523104
-5550.949502
-5345.594779
-5414.382573
-5504.543234
-3372.795022
-3277.248764
-3273.180433
-3290.958588
-3229.020786
-3290.6199
-3475.526399
-3498.945613
-3428.65824
-3779.028606
-3823.040527
-3846.21093
2845.563872
2702.503185
2467.696648
2440.067212
2428.273924
2520.006738
2525.438258
2496.092406
3396.928557
3498.16447
3491.569503
3805.249272
3673.222855
3199.780669
3198.489856
3295.316362
-7837.994277
-7628.430956
-7658.8658
-7580.646589
-7601.142515
-7796.332727
-8020.126099
-8079.74808
-8270.441919
-8622.971965
-8535.757679
-8702.79375
-8708.19831
-8308.972503
-8260.855155
-8472.095434
-8434.598272
-8180.965244
2113.084651
2104.007403
2104.627465
2136.510477
2134.140467
2123.602863
2057.581932
2051.822988
2070.19253
2063.617081
2299.58322
2284.217392
2281.774994
2330.452027
2334.543599
2316.220007
2195.452579
2183.447312
2183.025366
2219.317792
2218.709503
2207.422181
-6319.10194
-6224.425957
-6273.793136
-6113.001385
-6168.9233
-6261.201467
-6556.110028
-6460.345497
-6546.495702
-6323.642442
-6384.833026
-6481.099702
1818.848455
1821.09257
1826.932454
1805.818751
1814.08685
1811.529327
1849.180881
1848.334305
1859.883233
1832.125868
1838.674834
1839.888315
1763.594956
1766.121184
1770.66181
1755.242846
1761.062904
1757.952705
1787.860454
1788.603263
1796.939408
1775.337441
1781.236747
1780.780912
1987.357498
1976.376709
1967.581151
1972.272092
1982.854811
1951.001981
1961.611306
1957.263905
2010.619331
1998.408932
1901.969286
1892.469275
1885.79
1889.000272
1898.935634
1868.437779
1872.624454
1875.002486
1926.486782
1930.044386
1940.485103
1909.420543
1919.702937
1916.318939
1922.701943
1912.387051
-4237.102939
-4273.419047
-4167.140252
-4134.089711
-4157.795923
-4693.734961
-4724.384047
-4673.898898
-4884.516395
-4793.069076
-4763.095659
-4433.222471
-4465.753658
-4439.818025
-4618.557913
-4563.415229
-4501.50582
1622.226765
1618.303202
1611.911696
1631.371565
1624.964523
1629.619338
1634.030912
1625.454132
1655.608433
1652.872333
1609.245405
1599.235585
1593.499588
1593.320469
1591.433017
1605.7015
1600.108771
1605.257218
1705.534848
1710.613295
1722.054519
1706.687132
1738.260766
1740.905528
1748.328501
1727.659136
1734.045309
1731.455778
1667.870261
1664.015026
1686.912746
1681.616779
-2922.055086
-2906.486281
-2975.381637
-2791.404992
-2844.643272
-2879.77042
-3112.975266
-3160.935916
-3024.29867
-3026.065909
-3036.113078
-1303.698246
-1311.605548
-1367.300481
-1166.468702
-1233.384476
-1238.752688
1413.012455
1399.717336
1434.811425
1425.791472
1359.376875
1367.240473
1363.117978
1370.426073
1362.975946
1388.520981
1379.253758
1522.2804
1519.72344
1514.476328
1531.587015
1525.40514
1527.719563
1507.551997
1500.743325
1494.984152
1509.702497
1505.283313
1510.508634
-1901.054069
1060.758146
1036.848448
1038.320566
597.3981265
602.377939
650.1711075
554.1256002
558.1704312
547.277987
1049.830844
396.8142482
350.7159243
287.8205737
1266.110876
1268.219924
1274.854811
-346.7148466
136.8637247
82.42407926
241.6399495
233.4498535
242.7660912
66.83882417
-62.30885072
-43.25357898
56.20968336
1211.163345
1227.383292
1219.56884
888.9714789
834.1952789
804.7183602
811.320359
728.738997
694.7141014
695.0746443
577.4665055
545.1064322
531.9013633
380.8112943
356.3162257
325.068341
150.330758
142.3779955
89.74689277
-87.79535915
-75.01803873
-145.2767994
-302.4886581
-275.0724253
-350.2028159
-474.5377468
-442.0320115
-510.8085806
-601.6222106
-570.8477729
-627.3592811
-690.6042473
-665.3659606
944.4046401
902.1284922
848.2577292
883.4672428
810.3328057
745.0475917
779.5051444
664.837535
594.0396711
618.4556376
453.4388709
393.8429767
389.8936877
179.378425
154.8605869
104.996926
-116.4417143
-93.89257623
-186.0681037
-371.5119559
-316.2678571
-424.2587559
-554.5310528
-490.5051159
-589.4811612
-673.3827261
-616.4249918
-695.6627458
-748.831116
-702.6548323
1022.773957
1001.810577
924.0993088
990.6997424
940.7682044
838.2478265
917.3753814
820.2021309
696.506381
776.5751938
600.9895528
481.7567556
525.3655161
248.9232074
192.105278
144.8385261
-167.4277158
-126.0858181
-262.6845291
-498.2692746
-396.1333308
-558.5043983
-690.620081
-582.2598347
-721.7788757
-787.2133685
-697.3138068
-801.8668332
-832.3957262
-767.6523161
1116.417685
1126.451699
1031.594646
1127.950222
1120.301245
981.1000836
1112.620008
1063.962363
872.0774855
1035.573779
878.7158069
655.088733
791.1084497
387.5718552
275.5642519
214.565906
-306.467877
-188.5722455
-451.9154741
-754.1040981
-545.58055
-816.2252663
-919.2024343
-737.6144425
-933.1125782
-947.2948354
-822.7736996
-946.0576662
-937.7875715
-856.8826435
1208.195996
1254.360069
1159.757395
1270.093271
1320.102569
1170.008926
1338.242567
1396.009863
1140.976916
1412.818564
1410.465649
980.8343279
1356.092102
620.2317328
438.722016
398.2750088
-837.674289
-379.4331301
-1043.14947
-1293.0323
-854.54313
-1305.077653
-1261.453126
-993.224391
-1234.313626
-1148.918819
-993.9131649
-1122.594843
-1056.947734
-966.7884694
1277.612172
1353.290142
1283.272889
1381.518773
1483.457454
1366.809006
1526.464455
1704.990438
1483.111678
1790.755337
2285.955994
1603.957381
1934.539645
1946.02007
1386.049415
429.7531345
-1082.184727
-416.9587521
-1842.377081
-1757.350763
-1436.654516
-2054.791938
-1690.65993
-1364.815465
-1593.119754
-1362.336069
-1203.546044
-1303.463739
-1169.52729
-1086.757918
1307.066464
1396.204671
1370.063954
1429.652628
1549.507789