/*--------------------------------*- C++ -*----------------------------------*\
| =========                 |                                                 |
| \\      /  F ield         | OpenFOAM: The Open Source CFD Toolbox           |
|  \\    /   O peration     | Version:  v1912                                 |
|   \\  /    A nd           | Website:  www.openfoam.com                      |
|    \\/     M anipulation  |                                                 |
\*---------------------------------------------------------------------------*/
FoamFile
{
    version     2.0;
    format      ascii;
    class       volScalarField;
    location    "2.3";
    object      nut;
}
// * * * * * * * * * * * * * * * * * * * * * * * * * * * * * * * * * * * * * //

dimensions      [0 2 -1 0 0 0 0];


internalField   nonuniform List<scalar> 
12556
(
1.155877517
1.155847451
1.155818647
1.155799409
1.156029678
1.156032822
1.156059708
1.156115533
1.156217894
1.156379194
1.156572285
1.080365486
1.030533383
1.083446548
1.156570824
1.15638539
1.156230913
1.156136266
1.156068325
1.156046304
1.155827838
1.155843501
1.15586857
1.155894619
1.155112208
1.155024103
1.154945492
1.15489955
1.155131159
1.155187915
1.155342707
1.155668476
1.156152367
1.156918394
1.157977536
1.00560902
0.9492986979
0.9765617218
1.09712412
1.157197741
1.156385241
1.155828354
1.155404306
1.15523488
1.154959081
1.15500901
1.155085056
1.155165453
1.154311244
1.154166555
1.154047506
1.154000725
1.154271888
1.154442942
1.154816819
1.155496446
1.156664983
1.094049376
0.8930457987
0.7836742438
0.7478870673
0.7718623028
0.8700343335
1.048114871
1.157161402
1.155883143
1.154952792
1.154531988
1.154146848
1.154172379
1.154283606
1.154417459
1.153498173
1.15330825
1.153170067
1.153153167
1.15348761
1.153866585
1.154705004
1.155990461
1.060072907
0.7969626658
0.6364603622
0.5442859195
0.5099732059
0.5335711679
0.6166012534
0.7658875171
1.003348522
1.15667038
1.154912246
1.154038416
1.153374045
1.153364641
1.153487787
1.153665274
1.152657816
1.152428363
1.152289692
1.152346732
1.152827117
1.153541176
1.155106523
1.141646474
0.8016511316
0.5822528582
0.4367934083
0.3433228899
0.3045051502
0.3280899969
0.4071441291
0.5416358351
0.7478121159
1.0582145
1.15549185
1.153838798
1.152742898
1.152577574
1.152680878
1.152889174
1.151815822
1.151567124
1.151457838
1.151625715
1.152347292
1.153559401
1.156201337
0.9326779379
0.6386402072
0.4433347793
0.2979578283
0.1948283652
0.1529791423
0.1795532724
0.257896773
0.381099426
0.5671446458
0.841247888
1.156817362
1.154011016
1.152268303
1.151845028
1.151881164
1.152098399
1.150966496
1.150707868
1.150657784
1.151047775
1.152031936
1.153968596
1.118164585
0.7979450528
0.5423049556
0.3609823296
0.2145829579
0.09878555724
0.05608542794
0.08873956903
0.1660616571
0.2797287306
0.4475921973
0.6866990723
1.064006999
1.154630192
1.151927525
1.151159426
1.151076837
1.151282951
1.1501622
1.149915031
1.149961693
1.150617602
1.151867004
1.154766953
1.016709792
0.7284386823
0.5022926459
0.3355757607
0.1969918515
0.08125190385
0.05095318816
0.1252395486
0.226094666
0.3778297207
0.5977070503
0.9439024167
1.155656336
1.151792564
1.150573794
1.150306709
1.150473192
1.1494273
1.149200907
1.149375786
1.150351803
1.152005965
1.155915643
0.9600725963
0.6977510671
0.5054713987
0.3632817268
0.2528637933
0.1799705721
0.06245442382
0.122483989
0.2097214285
0.3469295084
0.546464635
0.8675049666
1.156970119
1.151871218
1.150105163
1.149612733
1.149723297
1.148826781
1.148640222
1.148968173
1.150301588
1.152432454
1.157318956
0.9357279498
0.7054838137
0.53415872
0.4147289677
0.3380892107
0.3349964708
0.08796865432
0.1393317158
0.2188376524
0.3462213463
0.5320361813
0.8267726474
1.158512831
1.152206222
1.149842256
1.149070644
1.149095997
1.148366635
1.148232772
1.148748112
1.150506445
1.153118267
1.158908581
0.9317131556
0.724519054
0.5723053339
0.4679912213
0.41046575
0.458994758
0.1195192679
0.1687238004
0.2466043177
0.3687552297
0.5435307502
0.8171260602
1.131311899
1.152769839
1.149782629
1.1487336
1.148672615
1.148103527
1.148026749
1.148720303
1.150884031
1.154000731
1.160532354
0.9408726384
0.7539894679
0.6127430297
0.5112957299
0.4453851664
0.4587418002
0.1560279878
0.2101995893
0.2917635151
0.4143649017
0.5798074901
0.833992616
1.1196863
1.15359566
1.149992175
1.148644697
1.148481192
1.147974576
1.147968239
1.148907022
1.151522411
1.154980469
1.162151031
0.9612181198
0.7980687668
0.6590605798
0.5527494662
0.4620175223
0.4005526734
0.0536555322
0.2030165973
0.2723281971
0.3621128254
0.4826312049
0.645125392
0.8730889466
1.122709812
1.154521396
1.150411647
1.148798845
1.148554093
1.148025976
1.148086342
1.149234004
1.152207929
1.156263975
1.163853679
1.021811929
0.8506588688
0.7236976438
0.6121215465
0.5049653931
0.2855448152
0.1080995682
0.3000714513
0.3812342141
0.4686745791
0.5827030488
0.7290675067
0.9325182847
1.156479992
1.155543191
1.15102317
1.149161323
1.148842822
1.148132652
1.148248956
1.14958583
1.152910056
1.157376982
1.16534193
1.094212853
0.9370114984
0.816014896
0.713409935
0.6091474868
0.1008719451
0.15289266
0.4139397211
0.575808473
0.6290685639
0.7175561251
0.8473802975
1.027458855
1.165691678
1.156561103
1.151717699
1.149683153
1.149301381
1.148343043
1.148509083
1.150002935
1.153618657
1.158418604
1.166688022
1.170350616
1.065372259
0.9593520367
0.881074233
0.7926818094
0.0483574843
0.1790503377
0.454381071
0.7530039679
0.8532604182
0.8993613922
0.9995259428
1.163715252
1.166799243
1.157513271
1.152448706
1.150287431
1.149864808
1.148505796
1.148701399
1.150318188
1.154203774
1.159324314
1.167739652
1.171435202
1.160518627
1.118394613
1.005607317
0.5729271478
0.02775043407
0.2421810847
0.5190837414
0.8028140668
1.002398644
1.104823337
1.150718262
1.168968698
1.167660781
1.158332238
1.153137244
1.150890219
1.150437714
1.148703611
1.148919614
1.15062254
1.154701642
1.160036746
1.168499725
1.172178865
1.16050087
1.107922463
0.9241994029
0.2498723762
0.04053568365
0.3127626956
0.588651334
0.8433044106
1.013479082
1.107028007
1.152108448
1.169689932
1.168211949
1.158986342
1.153749284
1.151475767
1.151004267
1.148785429
1.1490023
1.150756447
1.155002478
1.160537604
1.168962587
1.172385989
1.159903069
1.102083212
0.8458496066
0.1316582959
0.08025239262
0.362707852
0.6286108614
0.8572716278
1.015760031
1.108016307
1.152657813
1.169947554
1.16847884
1.159438648
1.154212732
1.151940304
1.151456045
1.148879687
1.14909606
1.150872701
1.155204063
1.160825303
1.16915096
1.172231321
1.158844539
1.095475063
0.7955723991
0.1203893298
0.09809461316
0.3740722444
0.6309728531
0.8596314555
1.01675925
1.108156965
1.152590706
1.16983432
1.168499546
1.159765839
1.154610479
1.152353642
1.151855221
1.14882945
1.149036137
1.150813263
1.155210449
1.160919775
1.169099409
1.171789928
1.157443167
1.087770861
0.7444082033
0.1155605988
0.1081988204
0.3784479549
0.6310269116
0.8598273227
1.016758428
1.107683342
1.152079456
1.169433324
1.168322328
1.15991598
1.154846347
1.152610819
1.152100039
1.148802126
1.149008803
1.150777543
1.155173721
1.160851981
1.168852607
1.171130847
1.155773621
1.078868385
0.7005041903
0.1135082199
0.1164745862
0.381237889
0.6301708631
0.8580755561
1.015785005
1.10671729
1.151244421
1.168814156
1.167994649
1.15999541
1.15504431
1.152828796
1.152299684
1.148621836
1.148827206
1.150582978
1.154984171
1.160664391
1.168459072
1.170312235
1.153866361
1.068082764
0.6672758186
0.1134750109
0.1229864344
0.3828443398
0.6286404193
0.8550074679
1.013830718
1.105300238
1.150155687
1.168032127
1.167555962
1.159930669
1.155085676
1.152885029
1.152337125
1.148489359
1.14870645
1.15045396
1.154815518
1.160388707
1.167959274
1.169368801
1.15168209
1.054717814
0.6427287006
0.1149628636
0.1279945615
0.3835977276
0.6265509358
0.851157977
1.011012824
1.10345223
1.148849265
1.167126824
1.16703486
1.159847764
1.1551318
1.152940244
1.152366389
1.148201801
1.148429556
1.15016981
1.15451472
1.160052908
1.167380581
1.168310435
1.149107355
1.039209719
0.6242160076
0.1176724821
0.1318702809
0.3836110392
0.6239852865
0.8468270407
1.007534955
1.101214522
1.147350488
1.166126284
1.166452121
1.159637361
1.155024917
1.15283582
1.152235844
1.14799021
1.148239716
1.149980345
1.154273878
1.159667919
1.166740428
1.167135252
1.146014444
1.022983183
0.6101744175
0.1215175799
0.1348338493
0.3830056951
0.6210311514
0.8421773756
1.003587834
1.098648052
1.14568512
1.165051659
1.165822585
1.159454605
1.154969027
1.152777259
1.152144528
1.147624568
1.147892245
1.149631934
1.153899428
1.159248744
1.16605111
1.165839914
1.14232592
1.007276054
0.5994662965
0.1262651676
0.1370184586
0.3818923654
0.6177725806
0.8373070369
0.9993124404
1.095815959
1.143879616
1.163919914
1.165157894
1.159145526
1.154755653
1.152556904
1.151893109
1.147357461
1.147652345
1.149399462
1.153613898
1.158797404
1.165322484
1.16442067
1.138058101
0.9927083566
0.5913894409
0.1317693473
0.1386161548
0.3803988206
0.6142761494
0.8322787755
0.9948040076
1.092772163
1.141957646
1.162744043
1.164466538
1.158906203
1.154637057
1.152427037
1.151726256
1.146944936
1.147260969
1.149010049
1.153190004
1.158326994
1.164561877
1.162873069
1.13330994
0.979495744
0.585403153
0.1379124508
0.1397431185
0.3785927153
0.6105921636
0.8271391204
0.9901299309
1.089560528
1.139939009
1.161533763
1.163754951
1.158530949
1.154352172
1.152130613
1.151396959
1.146635036
1.146980534
1.148741553
1.152874021
1.157835606
1.163774215
1.161192996
1.128220438
0.9676483507
0.5812019771
0.144654356
0.1404389271
0.3765312394
0.6067702453
0.821934702
0.98534367
1.086216661
1.137839687
1.160296305
1.163028507
1.158260958
1.154194342
1.15195612
1.151183493
1.146210644
1.146577176
1.148340777
1.152427857
1.157334981
1.162961264
1.159378995
1.122923377
0.9570677688
0.5783931547
0.1518116195
0.1407979487
0.3743052876
0.6028764728
0.8167162166
0.9804900554
1.082769994
1.135672961
1.159037134
1.162289977
1.157848368
1.153873555
1.151623401
1.150818883
1.145852154
1.146248817
1.148026278
1.152076508
1.156819879
1.162123677
1.157434702
1.117524999
0.9475886898
0.5766051056
0.1590825439
0.1409214213
0.3720003942
0.598974252
0.8115282964
0.9756048102
1.079244677
1.133449543
1.157760152
1.161544072
1.157550431
1.153675981
1.151407136
1.150562443
1.145462952
1.145878411
1.147658942
1.15165288
1.156300116
1.161260778
1.155370213
1.112104785
0.9390537139
0.5755670986
0.1662255276
0.140911138
0.3696872027
0.5951180586
0.806400722
0.9707136414
1.075660003
1.13117812
1.156468376
1.160788342
1.157145547
1.153369658
1.151091066
1.150218104
1.145023475
1.145469521
1.147263028
1.151223677
1.155772757
1.160376185
1.15320297
1.106726688
0.9313440104
0.5751255878
0.173472515
0.1408413595
0.3674117113
0.5913462755
0.8013513056
0.9658367509
1.072033432
1.128868076
1.155167172
1.160032889
1.156774673
1.153094211
1.150798095
1.149883294
1.144735025
1.145196486
1.146995034
1.150913043
1.155250627
1.159481448
1.150971342
1.101435277
0.9243582064
0.5751541572
0.1807906691
0.1407348196
0.3651839315
0.5876685236
0.7963941577
0.9609927412
1.068381281
1.126526704
1.153873622
1.15927824
1.156481297
1.152882711
1.150579896
1.149643251
1.144147764
1.144645534
1.146458671
1.150322968
1.154773766
1.158621342
1.148790456
1.096278345
0.9180307383
0.5755563469
0.1881236405
0.1406081397
0.3630328343
0.5841192111
0.7915737772
0.9562158717
1.064725193
1.124161112
1.152656541
1.158592668
1.155961284
1.152496716
1.15017886
1.14919304
0.1603551628
0.05575563393
0.04394938447
0.318801013
0.08062106788
0.05872818597
0.4463364698
0.1131537375
0.08446630171
0.4652666111
0.1431080019
0.1179111919
0.4097708072
0.04021285592
0.05028815251
0.1788570838
0.146956975
0.3296546845
0.07924019055
0.04130575499
0.1025601943
0.2431041169
0.1819342427
0.07899491948
0.05635965336
0.04536183358
0.08432988903
0.0284055801
0.01896280765
0.05992781448
0.1037211291
0.1057119455
0.3166337451
0.3105616964
0.1849232326
0.02896403795
0.04287441316
0.08459740738
0.11950321
0.1061690767
0.3953141266
0.427948375
0.3259087671
0.3813407638
0.2050616968
0.2314705643
0.05103234372
0.036166042
0.1154760841
0.1470830191
0.1253809364
0.440445124
0.4622987021
0.4397600837
0.4786722582
0.1329009621
0.1728497449
0.09581081688
0.07003247874
0.4546082732
0.4126653158
0.4586864943
0.443263887
0.0782396455
0.1033794234
0.01723500398
0.1341672218
0.1292514187
0.4913745724
0.3935564381
0.4055346996
0.3818227732
0.03054438954
0.05032802536
0.2862498729
0.1095984626
0.08111894947
0.06494335967
0.1505565706
0.03107406498
0.05892950073
0.04401773916
0.02965414895
0.04759937846
0.03144397899
0.04795546116
0.235062186
0.2609213214
0.2641948896
0.2032430007
0.1884383806
0.1706450331
0.2062025362
0.03579495185
0.0288156479
0.07019081027
0.04270067622
0.04858261212
0.04921784264
0.04291214014
0.0686788374
0.1756528747
0.2011394842
0.3975670222
0.1565672124
0.131877565
0.1866423156
0.1586183227
0.06662610465
0.0523098739
0.1008919975
0.07195746167
0.09269451592
0.04908174395
0.06924995409
0.09660174238
0.1047995182
0.1312328404
0.4788603333
0.1052188666
0.07975768482
0.130456377
0.1065811334
0.1259153793
0.09984380097
0.05130332185
0.07646224728
0.4313811771
0.01299231448
0.05354953607
0.0321540759
0.07869472826
0.05512270314
0.01204665931
0.1407110814
0.1360845989
0.01947653558
0.004721080902
0.0302440256
0.3757999232
0.06410060592
0.01894876962
0.01103227465
0.03180357686
0.01927377704
0.06143452463
0.2339683824
0.167408098
0.0945463635
0.1013372616
0.06404599939
0.03646836805
0.01656711347
0.00825272537
0.2437298133
0.2642426238
0.1651516796
0.009404494397
0.1491457392
0.1835821433
0.1553415164
0.01119788016
0.05583885756
0.04832347869
0.07675758275
0.1569489916
0.1444831535
0.1496557827
0.07133756872
0.1132674664
0.04149728279
0.01283652307
0.02242239556
0.02174692788
0.0297553858
0.04602332898
0.0468108216
0.0336557172
0.1320827037
0.1226442481
0.130900672
0.09602770474
0.119230382
0.1289918978
0.02787788549
0.01266708662
0.04857910843
0.02229945399
0.03791902274
0.03030216479
0.0191373977
0.02938313556
0.02125506316
0.01515044331
0.02259604437
0.01940744758
0.009820280237
0.01613107765
0.02140090508
0.03689724349
0.03750687911
0.04362796548
0.04258359211
0.01731639753
0.009975969429
0.08427106579
0.01455210747
0.02641984264
0.009391786999
0.01258936619
0.08048187927
0.09251003987
0.259102799
0.2465004664
0.07135634237
0.05981657137
0.01091928994
0.04541303326
0.1912056039
0.1787235387
0.2084324807
0.1962645564
0.04576124766
0.0500585964
0.04185520373
0.09501474449
0.06567862747
0.05704836222
0.0400213395
0.06520824519
0.1070470675
0.03770559075
0.02333065426
0.01467915961
0.05230870652
0.02598134007
0.04162593683
0.02497404001
0.05860382859
0.03940489588
0.038572726
0.2004501955
0.03119175044
0.1997935794
0.2215812594
0.03487595591
0.03900021898
0.0316059617
0.03438297363
0.2176010615
0.03421288251
0.03393716611
0.0460771173
0.06791039872
0.06332685447
0.07428481839
0.06953744111
0.04636197813
0.05122777673
0.05555992564
0.05043376826
0.06168366591
0.05699020067
0.05028545515
0.1444986293
0.1429022499
0.1738513454
0.1721069972
0.06282219893
0.009240080951
0.06155368692
0.09581302653
0.09399129251
0.1179797054
0.116367306
0.02808487318
0.04123739993
0.1114057345
0.03140799214
0.01862481754
0.06745543899
0.2254759558
0.2128564158
0.2422276004
0.2296493974
0.06876931455
0.02531226501
0.04907421785
0.04806276234
0.07162708707
0.07077468313
0.007398553154
0.03346103528
0.08752229937
0.07543728046
0.173855266
0.1648341397
0.02431104307
0.01217374887
0.01951570891
0.01381917444
0.03037386252
0.01236748763
0.01340684943
0.01275820325
0.03041321793
0.05199417175
0.01278293043
0.01649119739
0.003560663514
0.01813314686
0.0138871354
0.573092905
0.3855798765
0.3899585129
0.2602668365
0.008636213981
0.005322727056
0.1474546932
0.3407985412
0.2729495437
0.005800245922
0.01251630579
0.01072348501
0.1035924546
0.09189767589
0.03582345021
0.1940826366
0.1631540809
0.0799423643
0.009268256259
0.01571953609
0.01255781986
0.008406804875
0.01236772927
0.008743201974
0.03128095257
0.01322132731
0.01241768007
0.04013336988
0.04743109937
0.0136641888
0.01880716538
0.009127164722
0.00922291567
0.0378568148
0.1470845925
0.3230504843
0.3112339709
0.3386182788
0.3269649036
0.1503499876
0.2753844658
0.2630715632
0.09380149003
0.03359244629
0.09733358059
0.09211122579
0.0118600136
0.01662287426
0.08787748105
0.04561775126
0.01499260266
0.01333294853
0.03762117103
0.04224503009
0.0379269714
0.04879657535
0.04378424281
0.03926915332
0.03499243268
0.009334082471
0.009159742188
0.03011853873
0.1865696457
0.3538085931
0.3424193405
0.0600125822
0.06195204384
0.136589404
0.01996046853
0.02180296147
0.05592703249
0.08025063147
0.1009411319
0.09344695113
0.05526228953
0.08171683743
0.07614372764
0.09071980957
0.08390631427
0.05639264072
0.1181817988
0.2914446211
0.2793797889
0.3072938711
0.2954419433
0.1199847227
0.1012748176
0.03700088968
0.03772597473
0.02139704496
0.02222318051
0.0841359207
0.1253340035
0.05584097311
0.05960781904
0.03802831292
0.03870630442
0.1106672199
0.1153488793
0.04347470023
0.05949745308
0.007987482562
0.01709085175
0.0512259111
0.03924102202
0.07563137486
0.02078200773
0.02125639706
0.02039200349
0.06440283099
0.011315245
0.004396574135
0.1267646015
0.109843626
0.09033476366
0.08612230663
0.02990859006
0.01761488365
0.02924298371
0.07244767029
0.01872152781
0.0117505636
0.01812975211
0.02270019846
0.002835928062
0.03133991976
0.0203227645
0.01199238807
0.006245599324
0.01163515905
0.009421563603
0.009246044626
0.02654056749
0.02034731766
0.007253245092
0.03852488029
0.04016357519
0.01495276921
0.01093158223
0.00705245197
0.01148727052
0.01629488283
0.01055455128
0.01289822695
0.03936641068
0.01035070143
0.01025886933
0.01170394851
0.01263144012
0.03320709832
0.01192187791
0.0118265351
0.0128848094
0.01177699904
0.01237509138
0.01741042709
0.01371003767
0.02454582881
0.01924872644
0.01238961444
0.01486160101
0.02156692615
0.01801702807
0.02722855928
0.02269579639
0.01756590651
0.01569191144
0.01233729299
0.01142107244
0.008926003944
0.03310556085
0.03948967055
0.01218957836
0.01153259685
0.01281839738
0.01329714205
0.04622410005
0.008961501803
0.008980437563
0.01103185943
0.009105531393
0.008980406457
0.03897083243
0.00899286748
0.01259924068
0.01231126496
0.01125291481
0.01919592639
0.04954953747
0.04468730873
0.01046960372
0.03624480299
0.03092928412
0.04292595347
0.03822247185
0.01080429959
0.01145235739
0.03454633651
0.02891248484
0.1057305022
0.09918316173
0.0374492518
0.04792144564
0.1129213061
0.1075109886
0.04508987516
0.04422617244
0.06774175818
0.07792656476
0.09468823205
0.05853946774
0.07313565277
0.06863934211
0.06013007689
0.1386476803
0.1274620047
0.1027327701
0.1363066736
0.06004591838
0.03859111452
0.04310975582
0.0536274518
0.03344083635
0.03742507138
0.02108858342
0.01998972396
0.04431676607
0.01437504096
0.01445531471
0.01131756718
0.02105560786
0.02495669817
0.01500318068
0.02124871874
0.03428157493
0.02904887219
0.02212234093
0.02937277976
0.0951245493
0.08336716667
0.1014630919
0.09756869839
0.03050022286
0.07501170184
0.07281785739
0.08001470279
0.07580514178
0.03638062218
0.1176677023
0.1132760457
0.1247730603
0.119225012
0.03696669338
0.03271973116
0.1065342083
0.1028002569
0.1118692565
0.1078307214
0.03306478174
0.009676733961
0.009433636483
0.0347662848
0.03141294006
0.009452137622
0.009772786791
0.04340843878
0.04264022875
0.04558206837
0.04367251331
0.04122403252
0.04017562412
0.04238528486
0.04149593394
0.06947710879
0.06753077531
0.07213576672
0.07015348589
0.06207897607
0.04829572455
0.06671819539
0.06463435872
0.02268759578
0.01926992998
0.02939130451
0.02454044516
0.006597628726
0.0123355367
0.01153673388
0.01799540643
0.01264648006
0.0360424895
0.03664613682
0.09992732011
0.02139843304
0.02118726927
0.02205289199
0.02158295269
0.02052571725
0.08648263304
0.02287515061
0.03387543603
0.04085521242
0.05396752353
0.1235501335
0.037390648
0.02419032678
0.04003746618
0.03707135862
0.02282560714
0.02228792109
0.02375099806
0.02304711116
0.1120517453
0.03893602229
0.03982381489
0.006795217244
0.02608231108
0.01006564057
0.01022087806
0.01002294724
0.02428436603
0.008345974976
0.01914064276
0.01151578645
0.01182304173
0.05057747926
0.04414000877
0.02018942154
0.02067549937
0.0746887503
0.06659420624
0.01930953242
0.02012815749
0.01123860657
0.02881573847
0.08352844414
0.07515293255
0.01326503687
0.01262375926
0.01794287344
0.01215109978
0.01356354317
0.01584586496
0.03123042766
0.008830439056
0.01310135945
0.01198655429
0.01301382667
0.02116367405
0.05227757784
0.110919109
0.1437625833
0.0108020759
0.01052531948
0.1855695841
0.2363169386
0.1946552075
0.007140646797
0.03498430629
0.01342376888
0.01705536988
0.1351044867
0.1407744628
0.1579594385
0.004728449201
0.007245932963
0.005335177036
0.004834275838
0.005672279521
0.004441063186
0.05576051513
0.03480573643
0.02201642002
0.02519606573
0.02300395258
0.02686336821
0.2166713929
0.3735667208
0.3721078989
0.3530789998
0.3650743607
0.2204076287
0.04196049567
0.03649446449
0.01226673759
0.06335393439
0.07497180348
0.132532918
0.120111886
0.1146402234
0.04840791894
0.0278351766
0.03010113904
0.03274593312
0.3684952084
0.3575425949
0.1900732042
0.1511370791
0.06757573591
0.0713535057
0.07440467111
0.08509846432
0.1647789689
0.05899115692
0.1283087164
0.122015324
0.01127921209
0.01122023476
0.01403042281
0.02004409631
0.02034042639
0.03300434555
0.01141561736
0.01152166133
0.01125021473
0.02586361613
0.05059676496
0.04351880493
0.01889758228
0.03159602943
0.01960365672
0.0197792704
0.01929984915
0.01496311699
0.009597535331
0.0113633688
0.0109059686
0.01114449058
0.02224690098
0.02759231462
0.05562743867
0.04037754799
0.03656678077
0.03338726477
0.02462706927
0.04129224066
0.01455092287
0.02014027142
0.01210127815
0.008698840941
0.008825635378
0.01236533019
0.01224807617
0.02264607277
0.01437231543
0.009916385603
0.01767824727
0.01918986698
0.01766660239
0.01401414637
0.0174153967
0.01584258262
0.01038325289
0.01091835233
0.006530446719
0.009545481427
0.01039074244
0.0562196709
0.05111404463
0.02086890145
0.00927364479
0.01278743706
0.01175076946
0.01105299757
0.0137711662
0.01237496697
0.04799130088
0.03712828096
0.04262915853
0.06643197581
0.09352973754
0.09218100093
0.04157523736
0.067134491
0.06352537246
0.09114049771
0.08943617229
0.06386462056
0.03245615262
0.03920979883
0.0349387386
0.02689697108
0.02753067535
0.02270125397
0.04682615233
0.04548209034
0.04973609159
0.02362617964
0.0339885832
0.03235186319
0.05234513221
0.0519717418
0.03093699813
0.02868385766
0.02827223551
0.03130787283
0.03060398257
0.03540607544
0.0583548994
0.05774887089
0.06192064332
0.06116767512
0.0382463324
0.03193567144
0.0535613559
0.05304802931
0.05712538762
0.05651001459
0.03392705768
0.06498209476
0.06687770165
0.1494327622
0.1380967967
0.06253495501
0.06437970284
0.09190199723
0.09502810675
0.1793193635
0.02667484512
0.02652983393
0.02803451224
0.02781556703
0.02034979557
0.02626041689
0.02615484858
0.1666353314
0.08730571124
0.09073537657
0.009143578925
0.00913492058
0.01138489703
0.0109686004
0.009227477295
0.009011277263
0.006756653309
0.05717249691
0.02268842499
0.0278889457
0.136439684
0.1304069602
0.06222665796
0.07171378754
0.1436431946
0.1382357645
0.03229491821
0.03235348217
0.04942673914
0.04774802654
0.0319009975
0.03185212347
0.01103961193
0.02298737403
0.03660050395
0.03606948012
0.008629986222
0.01462837367
0.01732220637
0.01368025801
0.01311351256
0.0186876224
0.01893065684
0.03082633156
0.01246724678
0.009103708753
0.01234568385
0.01262955963
0.02882968552
0.01818622393
0.01877481865
0.01347233813
0.03205015496
0.02684849655
0.01094154647
0.0109193499
0.01070858659
0.01093333543
0.01512978753
0.006374163555
0.004094085592
0.00750794411
0.01147203953
0.0105398096
0.01070430344
0.01046963744
0.01063924366
0.01078063009
0.0100107489
0.006595981098
0.005216560169
0.01141653504
0.01174498001
0.01106905678
0.01115871728
0.01286493619
0.01973373511
0.0199889319
0.0193526581
0.01956008985
0.01274512143
0.009077279187
0.0150468152
0.01503011897
0.01554264599
0.01515884346
0.008973679404
0.01422388554
0.0221976935
0.02467510698
0.02027159034
0.02091489343
0.01378027211
0.009305945969
0.01505381483
0.0150594273
0.01499789879
0.01504213325
0.009227768455
0.01072397108
0.01090627064
0.0103634778
0.01087127947
0.03716304048
0.05636661021
0.055900439
0.02163525498
0.03596986057
0.03571732907
0.03729274676
0.03633348579
0.02184289916
0.01173311548
0.01128211302
0.0114800159
0.01181175702
0.0202999012
0.02010467986
0.02073735034
0.02051590345
0.01582420479
0.03509970814
0.02093884582
0.0218655343
0.02095816747
0.0352265404
0.03500557723
0.03555984151
0.03537634887
0.02108436038
0.02164366384
0.02104473233
0.03160365516
0.02260693359
0.01623271883
0.007797648978
0.01129405067
0.01114304506
0.00770212205
0.0429849792
0.02988999268
0.002988548855
0.02991018051
0.04579839967
0.04546057845
0.01868549319
0.01167478394
0.008577980859
0.003472900131
0.01318153085
0.01347505214
0.01936529238
0.01953241797
0.03152786002
0.01972332811
0.01066797451
0.01118157667
0.01479536622
0.004421300413
0.009050537989
0.006980264989
0.006418938506
0.00725065826
0.009452682665
0.006504790804
0.01086832424
0.01083240004
0.01073930047
0.04012434126
0.03106956887
0.008252464434
0.01026702789
0.01139742464
0.01846451958
0.02065389777
0.01214340522
0.01496291224
0.0145906592
0.01048339707
0.006919485564
0.01043324925
0.01187202891
0.008283100292
0.01178680509
0.01208120416
0.01219096319
0.01224243296
0.0120154662
0.0122111546
0.01212910221
0.011992314
0.01231652294
0.01232975117
0.0122562412
0.01252965559
0.01273523508
0.01252282014
0.01840200468
0.01981120437
0.0185809709
0.02606884642
0.02273560975
0.01766444944
0.01656260345
0.01783610339
0.0109459001
0.01747075395
0.01848554825
0.0125989866
0.01743337079
0.01176246682
0.01196850162
0.01897850533
0.01916347155
0.01855713343
0.01882304984
0.01179992997
0.01298899413
0.02254424147
0.02214063847
0.00899906028
0.008984173621
0.009856522396
0.007312205184
0.0089215784
0.008934221965
0.008884633433
0.008628276081
0.0103752297
0.01863542542
0.01664486598
0.0215290193
0.02041750542
0.01183486497
0.009583935441
0.01011911514
0.01396664818
0.006578630332
0.009823550754
0.009779941204
0.01100065473
0.009584762284
0.009764101023
0.01666247296
0.01481310923
0.009732476196
0.04627291885
0.04322447742
0.08244320289
0.07396220101
0.04352582617
0.06360158079
0.08859496807
0.08515888569
0.03460030612
0.03181506283
0.030315013
0.02259917226
0.02875914754
0.04306787718
0.04301825822
0.03767279308
0.02102299471
0.0302320753
0.03068577795
0.02748184362
0.02842014743
0.01981457786
0.01360978619
0.01462402885
0.02247686377
0.01590551438
0.01511113782
0.01700268875
0.01612035938
0.02279962122
0.01543817954
0.01610156581
0.01266624735
0.01651323336
0.04793790689
0.04812889382
0.03080912511
0.03047750849
0.05100208593
0.05099370509
0.02937373378
0.02898154491
0.03014534374
0.02972389184
0.05946407063
0.05888564462
0.03580724541
0.03758973806
0.06059136737
0.06003323502
0.05475143203
0.05420568969
0.03237249827
0.03345322907
0.05588399627
0.05531304411
0.009573987249
0.01512878531
0.01515832622
0.01509973054
0.01513093131
0.009529685311
0.009814246008
0.01408969972
0.01227101916
0.01508764845
0.01483544169
0.009809841806
0.04314026582
0.02538583171
0.02565424713
0.02496374304
0.02516905504
0.04289598386
0.04446583446
0.0265926454
0.02707628376
0.02591901096
0.02622820366
0.04399006399
0.04084399134
0.02374927619
0.02398776136
0.02338375907
0.02361329881
0.04061183443
0.04210702849
0.02457124637
0.02476121149
0.02415128123
0.02438423197
0.04183441207
0.02711213198
0.02692828257
0.06883732424
0.04621839314
0.04653644995
0.045525663
0.04580366562
0.06812664482
0.02755661974
0.02735157197
0.02501748911
0.02627409417
0.06001191493
0.04180475444
0.04150211558
0.0279743
0.02937961193
0.05360576922
0.06623999349
0.04483072074
0.04502865586
0.04411840435
0.0440681744
0.06501588083
0.02582746227
0.02587303099
0.009122908211
0.009276950377
0.009065529219
0.01054598038
0.009701811607
0.01198345771
0.009081650814
0.009073936026
0.008993412968
0.009038017042
0.01189745573
0.01610468055
0.009715406213
0.01071454173
0.009188916339
0.00901807466
0.01393602329
0.03596466903
0.0538261931
0.05351861553
0.05521680859
0.05485808606
0.03654888622
0.02135453916
0.02111554593
0.02192932486
0.02165720077
0.02163005145
0.01694897092
0.02405060031
0.04423370945
0.03960989597
0.05135859862
0.04955417221
0.03414623005
0.02626528951
0.01825537646
0.02348245542
0.02496500131
0.0393630619
0.02303172616
0.02331952821
0.02235089782
0.0230861142
0.03943089231
0.02266062055
0.02243556978
0.0234841832
0.02323922446
0.01022403491
0.0111388584
0.01089019059
0.01352547686
0.01198101238
0.01022835962
0.009824922077
0.009990752464
0.01045863416
0.01025973515
0.006671985835
0.011944262
0.01138080155
0.01155600335
0.01208069518
0.01167129295
0.01189592884
0.01964535848
0.01960020494
0.01989880015
0.01983381815
0.03021728547
0.03019165317
0.0457408214
0.01883075613
0.01987515689
0.01936618646
0.01943372136
0.02040401655
0.03442416895
0.03406408294
0.03484768704
0.03456817557
0.02048236196
0.01985878759
0.03338137107
0.03152011939
0.03394425454
0.03335683175
0.01984340446
0.01135702731
0.04384489961
0.04330293069
0.028607691
0.01341597257
0.01096934402
0.01072134984
0.008176936476
0.0112190499
0.01279233511
0.01851514922
0.0127813309
0.0137233758
0.01344292641
0.03094330319
0.01904218643
0.01924528544
0.01218278848
0.01225000841
0.01227001521
0.0129776666
0.01283976515
0.008760735757
0.008995870117
0.01298228631
0.0123707057
0.0127705883
0.01544954423
0.01905935485
0.02886159378
1.155486574
1.156163612
1.156011525
1.156446368
1.157525837
1.156706989
1.157942027
0.998025283
1.157656433
0.9627945018
0.862236327
1.018566429
0.8448080771
0.8061509556
0.951540671
0.8052014925
0.8180831815
0.9678979808
0.8294951289
0.9046745685
1.077068195
0.9324119531
1.071059466
1.157434865
1.118022545
1.157208911
1.156556794
1.156875036
1.1560178
1.155942748
1.155785432
1.157207614
1.156315024
1.135421863
0.9211460723
1.154291132
0.8638517234
0.7293956421
0.9300632015