/*--------------------------------*- C++ -*----------------------------------*\
| =========                 |                                                 |
| \\      /  F ield         | OpenFOAM: The Open Source CFD Toolbox           |
|  \\    /   O peration     | Version:  v1912                                 |
|   \\  /    A nd           | Website:  www.openfoam.com                      |
|    \\/     M anipulation  |                                                 |
\*---------------------------------------------------------------------------*/
FoamFile
{
    version     2.0;
    format      ascii;
    class       surfaceVectorField;
    location    "2.3";
    object      Uf;
}
// * * * * * * * * * * * * * * * * * * * * * * * * * * * * * * * * * * * * * //

dimensions      [0 1 -1 0 0 0 0];


internalField   nonuniform List<vector> 
25162
(
(99.99767297 0.01000482259 -2.248926456e-21)
(99.99063025 0.009123800466 6.671455932e-21)
(99.9966935 0.02322627775 -2.213435372e-21)
(99.98762321 0.03017288481 2.272144261e-21)
(99.99475102 0.04383044795 -4.408522641e-21)
(99.98071591 0.06145433318 1.335626606e-20)
(99.99775542 0.0484688733 1.350556298e-21)
(99.96848913 0.1094896737 -8.720280099e-21)
(99.98696253 0.1065463865 -1.463204061e-21)
(99.99704699 0.08680763711 2.110478703e-21)
(99.99892249 0.05161810386 1.034642656e-21)
(99.98492714 0.1403973133 2.09084058e-21)
(99.99656361 0.07925483056 1.015655901e-21)
(99.99745393 0.06313523056 -1.059957889e-21)
(99.99580394 0.0992197008 1.015614419e-21)
(99.97729538 0.2213557469 2.015885084e-21)
(99.99547969 0.1234974811 0)
(99.99530688 0.1498011956 -3.606892127e-21)
(99.97130466 0.3286066154 -3.606873355e-21)
(99.99476408 0.180491643 -9.329080894e-22)
(99.99419482 0.2149965868 3.140209525e-21)
(99.96461981 0.4663572081 3.378635294e-21)
(99.99373375 0.2528722546 4.149983339e-22)
(99.99347696 0.2931048786 -2.611057029e-21)
(99.96159792 0.6265787209 3.777695458e-22)
(99.99352537 0.334188455 -2.552727527e-21)
(99.99390083 0.3740328906 4.649609092e-22)
(99.96584641 0.7854656379 -1.645478148e-21)
(99.99426417 0.4105573816 2.345967873e-21)
(99.99482921 0.4412298655 1.878927224e-21)
(99.97952015 0.9048809401 -7.990938188e-22)
(99.99647809 0.463190715 0)
(99.99898783 0.4743217646 0)
(100.0005031 0.9492066182 1.007917071e-22)
(100.0015844 0.4737803687 0)
(100.0039863 0.4618453596 8.218113608e-22)
(100.0207933 0.902461896 -1.448560591e-23)
(100.0054823 0.4395999108 1.35635172e-21)
(100.0058644 0.4094286087 -5.688139171e-22)
(100.032991 0.7853402129 -8.179485299e-22)
(100.0060896 0.3741098208 -1.511864875e-21)
(100.0063702 0.3361152049 8.228506088e-23)
(100.0364183 0.6336353835 2.042452271e-21)
(100.0063529 0.2971667267 5.366966035e-22)
(100.0060664 0.2590576653 0)
(100.0335619 0.4817475371 0)
(100.0056222 0.2231647725 0)
(100.0052124 0.1902001726 8.077681921e-22)
(100.0273497 0.3507607974 1.67912653e-21)
(100.0051702 0.1609587639 -4.086891004e-21)
(100.004916 0.1333273252 -1.528256286e-21)
(100.0219578 0.2419317297 3.303425699e-21)
(100.0041514 0.1098574416 3.303179193e-21)
(100.0030931 0.09041040604 -9.076752971e-22)
(100.0129977 0.1624665924 -4.331420815e-23)
(100.0009887 0.07652368854 1.778834234e-21)
(100.0075722 0.07196960956 -7.834969076e-21)
(100.0439978 0.1778235817 3.293133808e-22)
(100.0162924 0.1627615483 -2.774333273e-21)
(100.0027286 0.07511381347 -1.595314587e-21)
(100.0051621 0.04097836114 -9.766375104e-22)
(100.0289818 0.1073160558 1.549878717e-20)
(100.0041506 0.01898854412 -7.835106318e-21)
(100.02066 0.0563193458 -1.65248496e-20)
(100.0178945 0.01758311997 1.329406626e-21)
(99.97855743 0.02794822414 1.112870458e-20)
(99.96436047 0.01547906074 3.49374903e-22)
(99.96877533 0.06543470092 1.771789983e-20)
(99.95247652 0.05186006751 -1.559418716e-20)
(99.95034078 0.1233056647 9.280507909e-21)
(99.92655083 0.106983823 -2.406296411e-20)
(99.94249261 0.1903869581 -1.583119218e-21)
(99.88232937 0.1933436338 4.633456923e-20)
(99.90252012 0.2405029859 -1.017897256e-20)
(99.9157773 0.2428394041 -2.188126133e-21)
(99.9358942 0.2378745611 4.282293011e-21)
(99.96022009 0.170136578 2.12750813e-21)
(99.93890839 0.2748879732 2.060256792e-21)
(99.91841801 0.3029977317 2.106100902e-21)
(99.86354704 0.3982953639 -4.271935549e-21)
(99.8992818 0.3835540721 -3.062937083e-23)
(99.9085702 0.4320803476 2.016201452e-21)
(99.87738578 0.4815269355 -2.501716857e-23)
(99.80004642 0.6269029191 0)
(99.86648278 0.556629955 0)
(99.83111839 0.6384778538 -2.499268997e-21)
(99.87872951 0.6307060299 -4.891043787e-21)
(99.86170771 0.6677199368 -7.544509284e-23)
(99.8234977 0.7705256012 -1.099908884e-20)
(99.85204885 0.7266787288 -3.781089726e-21)
(99.82243461 0.9601597126 2.837404743e-23)
(99.84867954 0.9018119416 -2.442214826e-21)
(99.77597478 1.10843584 -1.329137805e-20)
(99.81599667 1.037777061 -3.245933789e-21)
(99.79954205 1.315800778 -5.846936961e-21)
(99.83492324 1.224042211 -5.552468847e-21)
(99.75085707 1.514060134 7.557940763e-22)
(99.80001071 1.405519351 -6.996527012e-21)
(99.81217844 1.686328159 -3.900338598e-24)
(99.85406041 1.550508338 -4.353242689e-21)
(99.77224642 1.928507523 -8.758505527e-21)
(99.82423621 1.773589124 -3.242050465e-21)
(99.87234606 1.987315237 -3.387048609e-21)
(99.91468678 1.804375071 -5.52186277e-21)
(99.85095334 2.258107748 -8.517516758e-21)
(99.89583853 2.055153075 -3.607394113e-21)
(99.97401431 2.13506122 -1.120597932e-21)
(100.0039366 1.90925599 -2.298576547e-21)
(99.97875138 2.400161207 -3.233220045e-24)
(100.0016338 2.161717756 -5.670128871e-22)
(100.0823623 2.082324103 1.55344339e-22)
(100.0769771 1.828079036 -3.063630813e-23)
(100.1070245 2.304133658 2.568668584e-21)
(100.1050642 2.049831849 -1.09336814e-21)
(100.1596893 1.849591121 -3.419306354e-22)
(100.1218115 1.598174107 -2.586119964e-22)
(100.1914101 2.015172642 -8.023250573e-23)
(100.1697431 1.774850629 2.644727719e-21)
(100.1900228 1.517592383 2.764061978e-21)
(100.1350705 1.293652204 4.801753434e-21)
(100.2221998 1.631605596 4.796405494e-21)
(100.1896776 1.424204192 5.923845553e-22)
(100.1821278 1.165526914 -7.409259326e-21)
(100.1247275 0.983895978 -6.876076218e-21)
(100.2084047 1.238961849 -2.500334809e-21)
(100.174764 1.075897679 -2.444171144e-21)
(100.1513621 0.8552133675 -5.705855411e-21)
(100.09893 0.7174058361 5.161854514e-22)
(100.1678681 0.8991606618 -1.509821686e-21)
(100.141124 0.7814130668 6.131897224e-21)
(100.0883992 0.4780236021 -1.388029918e-20)
(100.1426338 0.6555066624 -1.387922071e-20)
(100.1974857 0.7018005679 1.40247929e-20)
(100.1208558 0.5387431653 -2.826583778e-20)
(100.1006354 0.4400332974 1.22044893e-20)
(100.1384535 0.4649589124 -1.698648852e-20)
(100.0810363 0.3573422714 2.475718975e-20)
(100.0611245 0.3183757063 2.748474876e-20)
(100.0717324 0.2085483387 2.30930002e-20)
(100.1651582 0.3285713729 -1.583663499e-22)
(100.1292291 0.3772473499 4.899588949e-20)
(100.076039 0.2978706661 2.625952986e-21)
(100.0498296 0.1193491445 -7.1694643e-22)
(100.1126665 0.1968608661 3.30711709e-20)
(100.0387593 0.05413868145 -7.713782625e-21)
(100.0821328 0.1033551121 -1.752765381e-20)
(100.06896 0.0321719822 7.834024548e-21)
(99.94190149 0.03786251745 -2.6744739e-20)
(99.92860615 0.01662116887 -1.33676707e-20)
(99.91495353 0.09020141882 -5.780274336e-20)
(99.90315181 0.05738767412 1.218925331e-20)
(99.86558468 0.1727286666 1.129521679e-20)
(99.8490409 0.1232731466 -4.891886808e-20)
(99.8166171 0.2897877519 2.949510278e-20)
(99.76038565 0.2297379333 5.31116517e-20)
(99.75411401 0.3163692535 -4.510905642e-20)
(99.844682 0.3044811642 -8.768979286e-21)
(99.76123396 0.3485244681 -6.48652588e-20)
(99.78321905 0.379032218 -4.3864637e-21)
(99.7609109 0.5050068177 -8.499913188e-21)
(99.73098941 0.4912591037 -4.233695016e-21)
(99.63322025 0.5896544711 2.973714394e-20)
(99.67120592 0.6279918732 8.317994777e-21)
(99.65124801 0.8032084243 -7.335140345e-21)
(99.60330181 0.793893197 5.44055944e-21)
(99.46446418 0.9520356827 -4.184414136e-20)
(99.56603321 0.9579674247 2.899995786e-21)
(99.4949528 1.029283992 -1.816579593e-20)
(99.55453285 1.174373676 -7.40386673e-21)
(99.51730443 1.176289547 0)
(99.43652379 1.295627281 7.704485231e-21)
(99.48216018 1.302406946 -7.35716351e-21)
(99.43233248 1.723019231 3.554810252e-21)
(99.3780697 1.741490265 1.390825116e-20)
(99.27910057 1.915255701 6.880870538e-21)
(99.34762511 1.905271469 1.725381599e-20)
(99.36167415 2.393119593 0)
(99.2866598 2.443595518 0)
(99.18757396 2.674635937 2.587892886e-20)
(99.28175346 2.629354881 1.151673822e-20)
(99.40873777 3.093693675 9.553274193e-20)
(99.31974618 3.196850763 6.324695763e-20)
(99.23960118 3.483875821 -3.807764438e-20)
(99.35252344 3.376823126 4.213401124e-20)
(99.60828126 3.681917649 -7.977745371e-21)
(99.52129767 3.860152401 4.329748779e-20)
(99.4917645 4.180049205 -1.175527996e-19)
(99.60163116 3.984484945 -5.653848562e-20)
(99.9509242 3.957612024 -1.806083119e-20)
(99.89551147 4.216589421 6.207413215e-20)
(99.93684705 4.516561564 -1.322818317e-20)
(100.0011232 4.231481598 -3.828069308e-20)
(100.3068396 3.798453062 2.223404777e-20)
(100.3085617 4.106677014 0)
(100.4019733 4.334400485 5.312511103e-21)
(100.3958642 4.00378696 -1.747548844e-21)
(100.5311201 3.277287676 2.007841652e-20)
(100.586383 3.578445471 1.156958476e-20)
(100.6912816 3.716608318 4.540635844e-20)
(100.6245493 3.405541159 9.329172669e-20)
(100.5995704 2.612697913 7.684543862e-21)
(100.6786362 2.865248476 5.590857317e-21)
(100.7695274 2.934311225 2.544814982e-20)
(100.6804223 2.683311342 1.142644449e-20)
(100.5589412 1.960762294 -6.818268791e-21)
(100.6446924 2.162129934 -1.5983875e-20)
(100.7145912 2.191112494 -5.513740217e-21)
(100.6209255 1.99568794 6.008128462e-21)
(100.534528 1.546858014 -1.870049865e-20)
(100.4588048 1.398332577 -1.257268984e-20)
(100.5841929 1.552731437 -1.258964462e-20)
(100.505983 1.412590455 6.663179531e-21)
(100.3475061 0.9073975576 -5.49128406e-20)
(100.4678241 1.113244847 -2.875986342e-20)
(100.5382857 1.089418721 -8.328907198e-20)
(100.3995271 0.9099569939 -3.969125317e-20)
(100.2467406 0.5974633616 -6.216530975e-20)
(100.3369563 0.7379223091 2.481845055e-20)
(100.3820161 0.7100351165 -2.951452126e-20)
(100.2798912 0.5938409021 -2.579294204e-20)
(100.1984356 0.3129715326 1.041649061e-20)
(100.344438 0.4265725271 -2.637874658e-20)
(100.3310832 0.5260131246 -1.304069793e-22)
(100.246728 0.4821560256 -1.513591603e-20)
(100.1397431 0.1779785188 1.550762057e-20)
(100.2396425 0.2529011356 2.752078696e-20)
(100.1080729 0.08018366651 -1.967347554e-21)
(100.174391 0.1315323288 -3.964666514e-21)
(100.1445788 0.04061959072 0)
(99.89672668 0.03492941617 2.685686938e-20)
(99.89568322 0.01060965366 -4.48679637e-21)
(99.84561311 0.08780113209 2.263115806e-20)
(99.85332093 0.04045350196 3.138310512e-20)
(99.75381256 0.1785554482 -8.989015167e-21)
(99.76354232 0.0998952578 -4.421140999e-21)
(99.63858696 0.3301742374 0)
(99.6178771 0.2024153169 6.868097105e-21)
(99.56444515 0.3303379175 2.082505615e-20)
(99.66025223 0.3745294004 -6.065725947e-20)
(99.55206354 0.3786951666 1.565709825e-20)
(99.56295955 0.445287467 0)
(99.48412713 0.647311913 1.798573542e-22)
(99.46115779 0.5886700302 -3.436300146e-20)
(99.31791823 0.6740445428 -3.433988451e-20)
(99.34103102 0.7662798555 6.956074465e-20)
(99.24260669 1.065816151 -1.031789955e-19)
(99.20158607 0.984372607 3.900630807e-20)
(98.9958776 1.13285808 -6.909301691e-20)
(99.09516427 1.239386175 -3.442078349e-20)
(98.99530751 1.262033718 -5.646383351e-20)
(99.00070068 1.598375066 8.101213451e-21)
(98.95908208 1.55238052 1.607442024e-20)
(98.82983284 1.673995559 4.07586395e-20)
(98.87674487 1.73503595 8.034454368e-21)
(98.70551583 2.419700182 1.421950784e-20)
(98.63421811 2.374361956 2.274511845e-20)
(98.47928923 2.553722842 -1.176326766e-19)
(98.5631382 2.615858432 -7.914753884e-20)
(98.51175834 3.454644044 1.615228711e-19)
(98.39873847 3.428175716 -1.213615089e-19)
(98.23166517 3.685072648 -1.286338188e-19)
(98.36753373 3.72576047 2.188044658e-19)
(98.54591387 4.647134661 -3.543201655e-19)
(98.38420039 4.675740188 -1.447036677e-19)
(98.24048848 5.027247237 -3.787987444e-19)
(98.43708393 4.999667384 1.762518981e-19)
(98.97584289 5.773684542 1.036646924e-19)
(98.78086516 5.915984132 0)
(98.72991341 6.345604168 4.034835147e-20)
(98.96280209 6.175205762 0)
(99.84179637 6.387881104 4.962907245e-20)
(99.68131568 6.688064337 -6.44643972e-20)
(99.78431236 7.097634817 -2.856204637e-20)
(99.95530387 6.743763348 -2.929982077e-20)
(100.7871599 6.121183138 1.465546646e-19)
(100.7484592 6.530816621 7.480831749e-20)
(100.9580735 6.796305358 7.950230016e-20)
(100.9719134 6.341026664 9.033943454e-21)
(101.3494349 5.124953918 -1.121353552e-19)
(101.4371593 5.529847684 -1.501451733e-20)
(101.6425047 5.630630892 4.518162484e-19)
(101.5202471 5.209957155 6.38375697e-20)
(101.4470114 3.902051331 1.156154042e-19)
(101.5915378 4.224494931 -7.871223282e-20)
(101.7390594 4.224782777 0)
(101.5706105 3.908104907 4.451509089e-20)
(101.293449 2.819989043 9.783299445e-20)
(101.4343133 3.047128909 6.177464492e-20)
(101.5290291 3.003071299 -9.498249278e-20)
(101.3750932 2.792462382 2.756546e-19)
(101.1769907 2.123440868 0)
(101.0522653 1.961903708 5.034600615e-20)
(101.237086 2.076124323 0)
(101.1046172 1.926754452 0)
(100.7668957 1.240042109 3.005366339e-20)
(100.9657328 1.456850852 1.953602765e-20)
(101.0286429 1.351711446 -1.683664651e-20)
(100.8203096 1.177642457 3.766440874e-20)
(100.5443185 0.7985768933 -3.420747171e-20)
(100.6908252 0.9433839899 -1.528770797e-20)
(100.7272257 0.8601682723 -1.541910141e-20)
(100.5777168 0.7483676066 -7.52610335e-21)
(100.3738866 0.3645157627 -9.66878775e-21)
(100.5673163 0.4497568723 -1.973319082e-20)
(100.6045465 0.612868444 -2.615540688e-21)
(100.4975515 0.5902918846 5.950687287e-21)
(100.2635705 0.2039598921 7.906448013e-21)
(100.3909879 0.2618409011 1.199518002e-20)
(100.202031 0.09071018934 -1.996965497e-21)
(100.2811906 0.1324631296 -3.520437115e-21)
(100.2301233 0.04027763844 -5.047890909e-22)
(99.85956358 0.01564058142 0)
(99.88095346 -0.003562434356 0)
(99.78038521 0.05072435237 4.555302877e-21)
(99.8203035 -0.002357825207 0)
(99.63817011 0.1260961181 1.158554084e-20)
(99.69258487 0.02967346991 -3.62008935e-21)
(99.44239517 0.2951112614 1.909907034e-20)
(99.47968063 0.1038925856 2.548000384e-20)
(99.37137748 0.2510082058 -7.664510502e-21)
(99.44359273 0.3594751613 2.696983922e-20)
(99.33281579 0.3149414736 2.157008099e-21)
(99.31223744 0.4133148417 -1.095599273e-20)
(99.14108982 0.6654613146 0)
(99.14402973 0.5657308264 -2.267358618e-20)
(98.96022864 0.6175115411 -1.865158589e-20)
(98.94423027 0.7588591319 4.624326451e-21)
(98.72366059 1.144625215 0)
(98.71089013 1.002808593 4.623831355e-21)
(98.43961114 1.098336696 -4.791426181e-21)
(98.49088275 1.309464256 2.299007094e-20)
(98.37708991 1.302053697 5.971095035e-21)
(98.25799223 1.791366611 2.632623606e-19)
(98.22985785 1.690877466 0)
(98.05401137 1.78920003 -7.190422164e-20)
(98.0848624 1.90732471 0)
(97.70071181 2.821669458 4.351054473e-19)
(97.63361083 2.696679857 4.435285017e-19)
(97.41273909 2.849975881 2.823094907e-19)
(97.48503823 3.00798579 5.784068381e-19)
(97.21297654 4.238377096 -2.878634571e-19)
(97.08001207 4.103822064 -2.681045344e-21)
(96.81270546 4.36081369 -1.490585902e-19)
(96.96979482 4.528493324 -2.926106613e-19)
(97.03280218 6.099461448 1.760242604e-22)
(96.791925 5.994920614 4.546430286e-20)
(96.5137401 6.415044125 5.682148536e-19)
(96.8120325 6.542722087 -3.385964251e-20)
(97.64673286 8.214344202 2.817842162e-19)
(97.27027832 8.263279472 5.716784311e-19)
(97.12582211 8.893848077 7.956993848e-20)
(97.59311222 8.808233518 7.979393981e-20)
(99.4774983 9.625928428 -8.384224569e-20)
(99.09656961 10.00091596 -9.007091655e-20)
(99.31022344 10.65537326 -1.246327496e-19)
(99.72367773 10.16118226 -1.386473769e-19)
(101.6661247 9.169192493 8.138821507e-20)
(101.5509183 9.783995526 8.105617515e-20)
(101.9983621 10.10957226 -6.722131884e-20)
(102.0472038 9.406364372 3.406670157e-20)
(102.8278762 7.26987045 -4.316562983e-21)
(102.9883079 7.845513844 0)
(103.3547172 7.849023544 0)
(103.1221047 7.263468041 -1.533993699e-19)
(102.8619394 5.144549451 -1.783044385e-19)
(103.1229995 5.555885614 0)
(103.3385087 5.42993551 -3.083173532e-19)
(103.0334053 5.042007661 1.041064783e-19)
(102.3898378 3.479545846 8.330466581e-20)
(102.6285214 3.734590905 3.73854817e-21)
(102.7276013 3.602524701 -1.240373114e-19)
(102.4758332 3.371702973 3.402695285e-19)
(102.0427971 2.476554205 -1.519247534e-20)
(101.8630698 2.319204661 -3.889549538e-21)
(102.0944888 2.365255058 -4.192306935e-21)
(101.9106954 2.229669172 2.316093888e-20)
(101.3188806 1.418145098 -9.597556154e-20)
(101.6018418 1.623377225 -6.069018847e-20)
(101.6320678 1.432153931 -3.389820777e-20)
(101.3519756 1.289529458 -1.729692546e-20)
(100.9255791 0.8885778266 1.178284855e-20)
(101.1309598 1.015534056 3.562217539e-20)
(101.135815 0.8794913067 -3.965679821e-21)
(100.9401998 0.7914684532 -3.890483994e-21)
(100.5715227 0.3488582595 2.028171828e-21)
(100.802106 0.3825828513 0)
(100.9095028 0.5879151535 -6.734061534e-23)
(100.7946043 0.6084052703 -1.057720243e-20)
(100.3977306 0.1880205765 4.517907104e-22)
(100.5426278 0.2130529985 2.02798898e-21)
(100.3001368 0.0811783254 -2.031312636e-21)
(100.3819511 0.1006497682 -2.033180969e-21)
(100.306686 0.02952868873 -2.031334813e-21)
(99.8486419 -0.02145043641 0)
(99.90121144 -0.02591798244 2.23469396e-21)
(99.74133087 -0.02406958364 -9.11280227e-21)
(99.82286091 -0.07091625372 -2.252756455e-21)
(99.54723623 0.009961720516 9.507498161e-21)
(99.66066455 -0.0885673398 -4.510122658e-21)
(99.26235899 0.1425169452 1.241499546e-20)
(99.38752929 -0.06817261692 3.920827193e-21)
(99.20237926 0.07390946027 -3.960175458e-23)
(99.23545876 0.2429097393 -9.184025353e-21)
(99.12705865 0.145411774 -9.329002482e-21)
(99.07083041 0.2577364 0)
(98.78321476 0.5274172837 -1.865112546e-20)
(98.82952659 0.3951948114 0)
(98.61790265 0.395071088 -1.356395981e-22)
(98.54031998 0.5717765747 -9.929624461e-23)
(98.15313501 0.9897441344 9.678489998e-21)
(98.19797353 0.8000121423 1.447613564e-20)
(97.87955388 0.8171515712 1.957715273e-20)
(97.85415948 1.13016611 -1.629040525e-20)
(97.74947274 1.053892731 -7.993902185e-20)
(97.43598487 1.645089442 1.130973972e-19)
(97.446029 1.500988716 -7.594711793e-20)
(97.23332699 1.548173969 3.259933209e-19)
(97.21551414 1.718926437 -3.301844408e-19)
(96.48778896 2.735972399 -1.839751529e-21)
(96.46429444 2.534913528 -6.820508896e-19)
(96.17537572 2.629980885 -3.418278685e-19)
(96.1976815 2.87122119 -3.411208586e-19)
(95.4490561 4.41383508 6.429839161e-19)
(95.35452277 4.154592571 3.449438359e-19)
(94.95788386 4.316261066 5.540056291e-19)
(95.06466185 4.675141493 3.270858895e-19)
(94.52887398 7.07315166 1.326569557e-18)
(94.25353453 6.714488332 4.797248191e-20)
(93.71504882 7.136069035 6.570061465e-19)
(94.05604786 7.585141964 7.359651823e-19)
(94.78192102 11.08786105 7.393031712e-19)
(94.10999673 10.84121219 -2.95369047e-19)
(93.61854051 11.83356061 2.653681127e-19)
(94.52553332 12.08708219 5.271666517e-19)
(98.48384066 14.69142723 -9.614135681e-20)
(97.57564569 15.21891814 -3.383502303e-20)
(98.06503864 16.52932345 -9.602825649e-20)
(99.07894399 15.67398551 -9.638079225e-20)
(103.5832213 13.54255078 4.105994224e-20)
(103.39585 14.62455216 -8.450292846e-20)
(104.4389612 14.93258732 -1.650413947e-19)
(104.4010851 13.69937987 -1.346852269e-19)
(105.5334804 9.591655875 0)
(105.9011539 10.42043525 0)
(106.5215782 10.14286209 0)
(105.999317 9.352833701 -6.346973658e-20)
(105.071532 6.13419944 5.365320216e-19)
(105.5427375 6.613572851 5.198356346e-19)
(105.7786331 6.285669747 3.284495818e-19)
(105.2515653 5.841760324 4.207973954e-19)
(103.8894635 3.809534673 6.419663174e-19)
(104.2654094 4.062835215 9.527279118e-21)
(104.3209346 3.806691214 5.288354845e-19)
(103.9418846 3.597597135 6.454467307e-19)
(103.0914903 2.505626563 -1.477904922e-19)
(102.8366054 2.376164894 2.055432962e-22)
(103.101073 2.330567423 -1.631156847e-20)
(102.8530191 2.224491366 -3.274936382e-20)
(101.9559944 1.384807857 2.787178959e-20)
(102.3119972 1.532284071 -2.295978598e-22)
(102.276379 1.269783423 1.680914017e-20)
(101.9386812 1.190618703 1.253954023e-20)
(101.3464974 0.8286252106 -1.641225314e-20)
(101.6062348 0.9135806681 -8.347369674e-21)
(101.5555322 0.7337323699 -8.348986859e-21)
(101.3216454 0.6912300442 1.266990155e-20)
(100.7594155 0.2519252025 0)
(101.0129772 0.2188091908 1.332907539e-21)
(101.2025487 0.4378126362 -1.119197883e-20)
(101.0979572 0.513392477 2.780741666e-20)
(100.5155819 0.1240046419 -5.100258044e-22)
(100.6631941 0.1007514331 -1.57757143e-21)
(100.3795813 0.04906134456 -2.040449692e-21)
(100.4525999 0.03422393381 -2.303017359e-21)
(100.3529492 0.00787291808 2.618919213e-21)
(99.88161067 -0.07467509968 -1.735008824e-23)
(99.97166879 -0.05539235896 9.590287506e-23)
(99.74986022 -0.1341965713 2.346475388e-21)
(99.87907752 -0.1614432814 -1.159060719e-22)
(99.51081618 -0.1645447898 -1.226491976e-20)
(99.68946201 -0.2477033108 1.87785567e-21)
(99.13540329 -0.0908752504 -1.100946805e-20)
(99.367412 -0.305497644 -1.862231934e-20)
(99.10661707 -0.1948441546 -1.592921724e-20)
(99.06393236 0.01971819392 -8.657379546e-21)
(98.99170966 -0.1280295048 -3.488062186e-21)
(98.88361572 -0.01417344026 3.248864971e-23)
(98.47384551 0.2220038275 1.415379254e-20)
(98.57682085 0.07508931298 1.444509784e-20)
(98.35905534 0.01127216555 7.131854832e-21)
(98.20831405 0.1968105319 2.464785318e-20)
(97.64338673 0.580687621 -2.480875663e-20)
(97.77175507 0.356990667 -1.996977441e-20)
(97.45127855 0.283164858 -4.049307667e-20)
(97.30058226 0.6186880618 -1.986733368e-20)
(97.21989996 0.5079816558 -1.98078753e-20)
(96.67192167 1.110399355 2.535886861e-19)
(96.73951047 0.9371055944 1.789335044e-19)
(96.51041347 0.9183382832 6.166966651e-19)
(96.42246675 1.115749741 -1.062214785e-19)
(95.28266078 2.064929391 0)
(95.34180334 1.805226487 7.720613163e-19)
(95.01799724 1.798158868 0)
(94.93274804 2.096420779 0)
(93.45452103 3.631719915 8.259107811e-19)
(93.49137518 3.228672242 4.19345397e-19)
(92.99286383 3.254725322 -5.403433618e-19)
(92.91895578 3.725192828 0)
(90.90217608 6.521772337 8.007569131e-19)
(90.82451456 5.835174911 0)
(89.93495988 5.984132938 -4.526722313e-19)
(89.98641475 6.87067997 -4.298975229e-19)
(88.09364503 13.3645743 1.969850461e-19)
(87.27980545 12.074092 6.559431299e-20)
(85.31351565 13.60463304 1.832912046e-19)
(85.56905555 12.72083778 -6.1058568e-19)
(87.16797063 14.97268466 4.288534163e-19)
(86.09667944 15.00780044 4.333162135e-20)
(93.27786007 25.43947382 0)
(94.7230969 24.98960181 -1.104499988e-19)
(93.83513905 27.32546464 0)
(95.58343228 26.42659926 0)
(109.1275102 21.58972858 6.607981248e-19)
(109.2296206 19.71828053 1.941399912e-19)
(110.9240111 19.14757317 7.59241633e-19)
(110.0795831 22.30845654 1.35670611e-18)
(112.1828097 20.92000191 -6.66636994e-19)
(111.8076203 21.79572131 4.782265088e-19)
(111.3097842 12.31509615 0)
(110.3729048 11.30967078 -6.858928122e-19)
(111.9594632 11.37090897 4.625902956e-19)
(110.855906 10.59808377 0)
(108.1310698 6.280725453 3.253881574e-19)
(108.9080432 6.716033045 6.739321216e-19)
(108.996075 6.080088608 3.254650119e-19)
(108.2046568 5.775258045 3.128837033e-19)
(105.7044658 3.518756929 0)
(106.2362773 3.701842895 0)
(106.1738639 3.318546738 -9.354778591e-19)
(105.6614686 3.202362802 0)
(104.2275279 2.089962789 5.720007729e-19)
(103.8927222 2.0215077 7.15346076e-20)
(104.156718 1.857741511 4.414289657e-19)
(103.8397772 1.810012039 1.4143459e-19)
(102.578597 1.083392759 4.385287528e-21)
(102.9958569 1.128440317 0)
(102.8483691 0.8248339944 -2.490279567e-21)
(102.485064 0.8417179058 -4.520602851e-21)
(101.748355 0.5918863659 4.491822126e-21)
(102.0454046 0.611830496 -2.543194245e-23)
(101.9233241 0.4070397267 -7.376998152e-21)
(101.6661109 0.426105126 9.056758808e-21)
(100.8999515 0.07190885711 -2.12691565e-22)
(101.1453278 -0.03743115128 -2.845934255e-22)
(101.4392779 0.1583728081 8.62441049e-22)
(101.3588567 0.2664300842 6.674076048e-21)
(100.5891125 0.01051484782 -3.371860923e-21)
(100.7209847 -0.07175463786 -2.534050922e-22)
(100.4172358 -0.006251661935 2.53257186e-21)
(100.468359 -0.06410685949 -2.219077249e-21)
(100.3470357 -0.02394111804 4.172163003e-22)
(99.9737384 -0.1409045222 1.815951703e-23)
(100.1045904 -0.08989139669 -3.314055277e-21)
(99.82432121 -0.2719715776 -6.101889331e-22)
(100.002742 -0.2673799144 1.441355984e-21)
(99.55330124 -0.3853963476 -4.772569885e-21)
(99.79653804 -0.4351294004 -3.141278511e-21)
(99.10564306 -0.4022859984 9.841771521e-21)
(99.44498358 -0.5872778753 -1.085699006e-21)
(99.11840142 -0.5327336776 1.041151924e-21)
(98.98214752 -0.2984435933 4.845049369e-21)
(98.9668317 -0.4818732221 1.000706099e-20)
(98.80592715 -0.3859115393 7.072947604e-21)
(98.28342317 -0.2303364555 -2.401639635e-21)
(98.45058715 -0.369337294 3.750240474e-21)
(98.25131993 -0.496786959 2.475197537e-21)
(98.02799612 -0.33510023 7.507858926e-21)
(97.31529208 -0.06524551494 -1.036287901e-20)
(97.53150303 -0.2822927759 2.638141875e-21)
(97.24395193 -0.4507653984 -1.261564692e-21)
(96.95551326 -0.1273478012 -1.401890305e-20)
(96.92212098 -0.2810168983 1.143089704e-19)
(96.1388882 0.2220078025 3.646886583e-19)
(96.27448153 0.05013330173 3.510951261e-19)
(96.05849464 -0.04086168273 0)
(95.89340465 0.1465699543 0)
(94.40314827 0.7952079669 0)
(94.57161337 0.5319203575 4.155379008e-19)
(94.26713207 0.4112752 0)
(94.05569469 0.6948577638 4.426080202e-19)
(91.91386177 1.716446777 -3.966151515e-19)
(92.16049061 1.304019632 -4.031461185e-19)
(91.69333144 1.113836937 4.732232028e-19)
(91.36543811 1.555097052 1.413056775e-21)
(87.68295659 3.244193784 -5.195652798e-19)
(88.14027542 2.499752234 -5.115944511e-19)
(87.33268895 2.097257894 5.13916746e-19)
(86.63547868 2.886790668 -1.189521502e-18)
(78.93967459 6.002564389 2.538457852e-18)
(79.5822574 5.014852557 6.710154806e-19)
(78.63009952 4.32809207 1.294346387e-18)
(77.66970077 5.363270184 -1.189144985e-19)
(127.1973241 24.3966903 0)
(125.183748 23.33297174 0)
(127.8144115 22.25865591 0)
(125.878129 21.6451508 -7.64605934e-19)
(119.0860617 10.25140318 -7.701775891e-19)
(117.2851109 9.781411103 6.356182238e-19)
(118.9487344 8.56247241 -9.844327611e-20)
(117.281056 8.489439707 9.214726581e-19)
(111.5696328 4.746122731 4.306690919e-19)
(112.6473919 4.875000145 5.917136263e-19)
(112.3280865 4.039467118 1.173577223e-18)
(111.3471008 4.064793657 1.049672685e-18)
(107.4820018 2.365809146 -1.106721352e-20)
(108.1296398 2.374471895 6.678309951e-19)
(107.8523743 1.933775814 -6.952151972e-19)
(107.2683933 1.987395486 1.310979415e-18)
(105.2295455 1.158377769 -2.333524772e-19)
(104.8458274 1.187003746 -2.684642105e-19)
(105.0475028 0.9057284014 3.912109331e-19)
(104.7001272 0.9549668782 3.045430637e-19)
(103.0729804 0.5007846477 -4.858924271e-21)
(103.5189496 0.425778028 -2.381524228e-21)
(103.2395102 0.120925349 7.655556295e-21)
(102.8854124 0.2486595271 1.159607462e-21)
(102.0580067 0.1819121071 -2.049583043e-21)
(102.3588096 0.1169774914 1.365123551e-20)
(102.1532248 -0.07828194489 5.055317222e-21)
(101.9072322 0.0158189694 1.004150191e-20)
(100.9548602 -0.1775148327 -3.486785451e-22)
(101.1665443 -0.3682659744 -1.06593566e-21)
(101.5580432 -0.2291779736 -1.078050487e-21)
(101.52618 -0.08039811437 -1.17822581e-21)
(100.5914776 -0.1444408472 1.090008268e-21)
(100.6896685 -0.2906604759 1.324528938e-21)
(100.3911792 -0.08053412303 -4.298571435e-21)
(100.4080168 -0.1871226458 1.689412348e-21)
(100.2710483 -0.06377550169 -2.120209691e-21)
(100.1359814 -0.214881287 -1.890816794e-21)
(100.3072905 -0.1266724784 1.047900516e-21)
(99.97776868 -0.4263332513 -1.104017201e-21)
(100.2022384 -0.3802542684 -7.763373961e-22)
(99.69162698 -0.6335215399 5.665857495e-22)
(99.99203051 -0.6348586058 -2.782851439e-22)
(99.19781336 -0.7605946115 6.427125887e-22)
(99.63347493 -0.8884999436 9.405014615e-22)
(99.25819439 -0.9059293803 5.633045923e-22)
(99.02285976 -0.6801233045 1.638799328e-21)
(99.07720821 -0.8814616128 -1.62895323e-23)
(98.8694783 -0.8180820692 -1.629184918e-23)
(98.26794288 -0.7805816893 -2.469836887e-21)
(98.49322499 -0.8889770273 0)
(98.334764 -1.073273361 -1.213899775e-21)
(98.0523232 -0.9596309958 -1.292817448e-21)
(97.24219729 -0.8595402677 -2.745538536e-21)
(97.53716818 -1.032171499 -2.684990648e-21)
(97.3122071 -1.277123928 4.309394001e-20)
(96.90543975 -1.017268391 -1.569206337e-20)
(96.9290249 -1.191254858 -9.119500187e-22)
(95.97698903 -0.878151039 -4.894686232e-19)
(96.17034532 -1.019524218 -3.948003402e-19)
(95.99982319 -1.165856968 -3.760904262e-19)
(95.76505353 -1.022660097 -3.500408953e-19)
(94.12270644 -0.7996815717 4.718658036e-19)
(94.37423918 -1.005812688 9.071024809e-19)
(94.15459444 -1.202967714 1.113057079e-18)
(93.83871339 -0.9980929651 1.368968406e-18)
(91.51874041 -0.7390749456 -4.990090887e-19)
(91.91728219 -1.020203148 2.315709637e-19)
(91.60288389 -1.323771561 -4.983126201e-19)
(91.13512566 -1.065229857 4.77042195e-19)
(87.45459906 -1.12219273 -1.777350078e-20)
(88.1687678 -1.462951074 -1.047582663e-18)
(87.75213877 -2.005957703 5.059939509e-19)
(86.93518982 -1.761699294 5.075791932e-19)
(81.83130281 -3.544086734 -5.865974999e-19)
(82.49962384 -3.552422315 -6.07098918e-19)
(82.42865469 -4.075886703 -2.791570832e-20)
(81.81540945 -4.176313224 -1.03039773e-18)
(140.6478748 6.112576811 1.421524177e-18)
(138.9007558 7.166464054 1.164255549e-18)
(139.250422 4.705840715 1.855881294e-20)
(137.7922263 5.756425487 -7.968619711e-20)
(124.2469645 2.514286644 -7.388744159e-19)
(122.4510534 3.243285137 3.070522322e-21)
(122.9600671 1.170627889 -7.453168189e-19)
(121.5483142 2.008200668 -1.384008266e-18)
(114.0047642 1.268569259 -3.397102102e-19)
(115.0962166 0.8939371248 2.378468942e-19)
(114.2969888 0.200575967 -4.722466456e-19)
(113.3901425 0.6401509366 2.416657239e-19)
(108.6776258 0.3533151018 1.857622275e-19)
(109.3282981 0.126345442 3.833070338e-19)
(108.8265764 -0.2406795733 -7.302895662e-19)
(108.2737058 0.01434213654 6.90173403e-19)
(105.8189865 -0.2150218605 2.360110975e-19)
(105.4441041 -0.0680131761 -1.594816898e-19)
(105.5189201 -0.4276900423 4.407748646e-19)