/*--------------------------------*- C++ -*----------------------------------*\
| =========                 |                                                 |
| \\      /  F ield         | OpenFOAM: The Open Source CFD Toolbox           |
|  \\    /   O peration     | Version:  v1912                                 |
|   \\  /    A nd           | Website:  www.openfoam.com                      |
|    \\/     M anipulation  |                                                 |
\*---------------------------------------------------------------------------*/
FoamFile
{
    version     2.0;
    format      ascii;
    class       volScalarField;
    location    "0.86";
    object      k;
}
// * * * * * * * * * * * * * * * * * * * * * * * * * * * * * * * * * * * * * //

dimensions      [0 2 -2 0 0 0 0];


internalField   nonuniform List<scalar> 
12556
(
36.90869383
36.90874052
36.90881245
36.90890275
36.95441071
36.95482013
36.95554098
36.9571857
36.9604535
36.96614552
36.97451139
36.98397549
36.99096447
36.99160521
36.98544961
36.97668143
36.96838815
36.96202252
36.95837227
36.95608726
36.91001808
36.90913066
36.90869901
36.90842582
36.72746505
36.72766668
36.72786967
36.72825379
36.77383098
36.77589237
36.78015245
36.80894978
36.82402729
36.85042446
36.889583
36.93494323
36.96966707
36.97632218
36.95112504
36.91038429
36.86968913
36.83833776
36.79664224
36.78362045
36.732223
36.72945319
36.72805167
36.72730684
36.54738026
36.54785916
36.54842158
36.54934931
36.5956681
36.60083607
36.61101853
36.64969559
36.68624656
36.7489364
36.83979862
36.93220811
36.99135229
37.00108106
36.96179767
36.88404817
36.791569
36.72064118
36.64903691
36.61984378
36.55999277
36.55343944
36.55032121
36.54902844
36.36869762
36.36918893
36.37005759
36.37208001
36.41978186
36.43051142
36.45183668
36.51026957
36.58638952
36.71765727
36.86911717
37.00601102
37.09041129
37.10038192
37.03884796
36.92505937
36.78498935
36.6481467
36.52844461
36.4717232
36.39450736
36.38226773
36.37621452
36.37380652
36.19189144
36.19253196
36.19411309
36.19823745
36.2485314
36.26738738
36.30797978
36.39702723
36.54727301
36.75686982
36.99262481
37.21605728
37.35029746
37.35253247
37.23534187
37.05139351
36.84607556
36.6478898
36.45005047
36.34503369
36.23890733
36.21598528
36.20513526
36.20085776
36.01662402
36.01750133
36.02009396
36.02691749
36.08257426
36.11443799
36.18506898
36.32286401
36.55996789
36.86980911
37.26252456
37.70651353
37.99360929
37.946878
37.64097553
37.3097101
36.99010156
36.70249026
36.42392138
36.24501838
36.0953067
36.05431959
36.03626059
36.02909963
35.84361274
35.84507565
35.84955023
35.86071791
35.92247031
35.97180822
36.08344097
36.289335
36.61570521
37.07243461
37.74593725
38.85367073
39.63895914
39.43063853
38.41234925
37.74782039
37.23235683
36.81576395
36.43951441
36.17723649
35.96265816
35.89764773
35.86907864
35.85781888
35.67339381
35.6756426
35.68245066
35.69852808
35.7701271
35.8411769
36.00384796
36.28000163
36.70272883
37.33721847
38.41258144
40.7983789
41.98335186
39.6939808
38.38795559
37.57439372
36.98521385
36.48511319
36.13786982
35.84324521
35.7466985
35.70412052
35.68752345
35.50756002
35.51113838
35.52143589
35.54494279
35.6274841
35.723488
35.94227926
36.28326495
36.80505583
37.60429792
38.9980239
42.47098895
46.16983313
41.29998769
39.17216118
37.9909948
37.19709862
36.55284716
36.12061255
35.73708545
35.6033525
35.54356328
35.52047468
35.34695413
35.35196313
35.36597058
35.39829143
35.49279676
35.61774175
35.89246247
36.29251302
36.90666565
37.83496961
39.4089755
43.14287218
49.21094313
42.7781778
39.96874103
38.43259485
37.42948856
36.63499685
36.12024392
35.64517336
35.47042117
35.39095988
35.36028804
35.19324579
35.20028475
35.21924123
35.26261352
35.36607788
35.52241924
35.85015216
36.30509868
37.00429188
38.03868661
39.75502452
43.06724744
50.74801299
43.89091038
40.66908162
38.84668618
37.65706025
36.72002539
36.12787159
35.56628832
35.3502788
35.24993162
35.21086849
35.04623972
35.05507382
35.07845469
35.13229965
35.24762869
35.4351061
35.81193753
36.32031325
37.09914879
38.23461591
40.097731
42.67081191
51.40514461
44.63659774
41.21932314
39.197861
37.85853567
36.798014
36.13782694
35.50060314
35.2433486
35.12253441
35.07476282
34.90675622
34.91796599
34.94769125
35.01350589
35.13586058
35.35257733
35.77357317
36.33645127
37.19237688
38.43497217
40.47841969
42.13927125
48.55259854
51.19590538
45.09260265
41.60926029
39.46893745
38.01897875
36.86119705
36.14361197
35.44204655
35.14906164
35.00853695
34.95247562
34.77325311
34.78668516
34.8221599
34.89752827
35.03631806
35.29018867
35.75831429
36.36945894
37.30861237
38.68304169
40.92292395
40.91547253
56.12631108
51.15190412
45.32008432
41.85658372
39.65312789
38.13040098
36.90667806
36.13865522
35.38489574
35.06360049
34.9054977
34.84188858
34.64522398
34.66074774
34.70149344
34.78568729
34.93564219
35.21556471
35.71644226
36.37118705
37.37674271
38.85980279
41.21291956
37.01596276
55.51227722
50.66399583
45.29254676
41.95439802
39.75195499
38.19344026
36.9280964
36.11909889
35.32693819
34.98293948
34.80971076
34.73975293
34.52010383
34.53758513
34.58299912
34.67550931
34.8364307
35.13754846
35.66559358
36.35242399
37.4144497
38.97737051
41.24981806
32.03557489
53.57008886
49.83682385
45.11823437
41.94715401
39.76825368
38.20544824
36.91866664
36.08034439
35.26119413
34.90076866
34.7165859
34.64137511
34.39763797
34.41684819
34.46600923
34.56552474
34.73609292
35.05377222
35.60295953
36.31336126
37.40682609
39.00723947
40.94457817
28.20169714
51.72796941
48.97407181
44.76985533
41.81703084
39.71361972
38.17200005
36.87088191
36.02158112
35.18763655
34.81642322
34.62288734
34.54337089
34.27469499
34.29540721
34.34765064
34.45340168
34.63282218
34.96277299
35.52692249
36.2548634
37.36164637
38.94378475
40.49386481
25.65484409
49.96559396
48.15016736
44.34942547
41.57742772
39.57169043
38.07770147
36.78594465
35.93852483
35.1001871
34.72278002
34.52471879
34.44192633
34.15244592
34.17438095
34.22881977
34.33917508
34.52542513
34.8640842
35.43782672
36.17598551
37.2914552
38.82721582
39.97633528
23.67323225
48.32627757
47.33427772
43.88890548
41.29049967
39.38455934
37.94248829
36.67516636
35.83683967
35.00158913
34.62176816
34.4209502
34.33627002
34.02736792
34.05029762
34.1065207
34.22100727
34.41347921
34.75806968
35.33719678
36.08002742
37.19504204
38.66988299
39.3962604
21.99300346
46.86724606
46.52480457
43.43538409
40.99562939
39.17588472
37.78246286
36.54537015
35.71989129
34.89193374
34.51196893
34.30970659
34.22374796
33.9027556
33.92641852
33.98371099
34.10064152
34.29701257
34.64552804
35.22693822
35.97068186
37.07867211
38.47527091
38.77723435
20.88630797
45.49705463
45.75984244
43.00634444
40.70440314
38.95856175
37.60851418
36.40189051
35.59103007
34.77393721
34.3959801
34.19329345
34.10654381
33.77389549
33.79813289
33.85644656
33.97602182
34.17655239
34.52752231
35.10904824
35.85112294
36.94724677
38.25331174
38.14856377
20.17021392
44.19835847
45.03000284
42.59604706
40.42175974
38.73961508
37.42757477
36.24916247
35.45331822
34.64770146
34.27221393
34.0694236
33.98215537
33.6468845
33.67149484
33.73025881
33.85073952
34.0527182
34.40519768
34.98532666
35.72398285
36.80427085
38.01043619
37.52809527
19.65172269
42.95778159
44.32868739
42.1986678
40.14862093
38.52284062
37.24388239
36.09072652
35.30936488
34.51709299
34.14529241
33.94279836
33.85520311
33.5143328
33.53925591
33.59875695
33.72126944
33.92638986
34.27967654
34.85738667
35.59137182
36.65229929
37.75007366
36.92559133
19.24951089
41.76401627
43.64941512
41.81059587
39.88330372
38.30995418
37.06007057
35.92924074
35.1613532
34.3806462
34.01170693
33.80925735
33.72135343
33.38635207
33.41144168
33.47111787
33.59357093
33.79818378
34.15196813
34.72663857
35.45505188
36.49314705
37.47381342
36.34683217
18.93736833
40.60378
42.98604929
41.42890897
39.6235022
38.10134464
36.87772878
35.76659525
35.010917
34.24358562
33.87866154
33.67649248
33.58832703
33.25067469
33.27595553
33.33636259
33.46095575
33.66892724
34.02288828
34.59421618
35.31635257
36.32785545
37.18710269
35.79499982
18.7007659
39.47302244
42.33482928
41.05149454
39.36739839
37.89665406
36.69766479
35.60405035
34.8593513
34.10146821
33.73872097
33.53628601
33.44774502
33.12381637
33.14917318
33.20964853
33.33345117
33.53893719
33.89309384
34.46098628
35.17616021
36.15703115
36.89549785
35.27178415
18.52924927
38.37479022
41.69260153
40.67694586
39.11379716
37.69532433
36.52022445
35.44244218
34.7074975
33.96255835
33.60380631
33.40144205
33.31253791
32.98520565
33.01072199
33.07203842
33.19856059
33.40896742
33.76308205
34.32753935
35.03497661
35.98123293
36.6029015
34.77635219
18.40689973
37.30860153
41.05938999
40.30425291
38.86191454
37.4968219
36.34547761
35.28227823
34.55610417
33.81715833
33.45941854
33.25638701
33.16694204
32.86194653
32.88752046
32.94888334
33.0738771
33.27894197
33.63323779
34.1942901
34.89310456
35.80128499
36.31061105
34.30632383
18.33713014
36.27323571
40.43651755
39.93288316
38.61134353
37.3007836
36.17341051
35.12389392
34.40548695
33.68006639
33.32642796
33.12326788
33.03332148
32.71963803
32.7453898
32.80771779
32.93628915
33.14972615
33.50388258
34.06152522
34.75073679
35.61815065
36.02011803
33.85988236
18.29435927
35.27111811
39.82371985
39.56271168
38.3619504
37.10699206
36.003972
34.96750702
34.25620121
33.5316696
33.17762391
32.97345025
32.88278545
32.60307549
32.62890615
32.69134154
32.81765872
33.02078081
33.37527185
33.92947579
34.60802299
35.43274191
35.73256559
33.43550661
18.26891744
34.30342799
39.21899405
39.1941089
38.11387344
36.91537729
35.83713001
34.81327939
34.10820399
33.40029924
33.05066246
32.84619184
32.75491648
32.45489448
32.48095051
32.54441399
32.67509373
32.89339331
33.24767056
33.79834173
34.46511102
35.2459069
35.44885979
33.03070465
18.25711884
33.37114706
38.62259994
38.82798056
37.86751826
36.7259964
35.67286129
34.66133481
33.96213776
33.24664335
32.8952203
32.68951919
32.59735935
32.34934004
32.37550996
32.43925676
32.56747925
32.76637141
33.12133323
33.6683341
34.32212097
35.05827766
35.16930297
32.64238378
18.24937679
32.47837235
38.03711627
38.46565603
37.62344359
36.53895621
35.51110608
34.51182713
33.81761451
33.12689981
32.77988679
32.57369298
32.480883
32.19110265
32.21756442
32.28231082
32.41450649
32.64214825
32.99678872
33.53979998
34.17919149
34.87029816
34.89385649
32.26750367
18.23842621
31.63200843
37.4659188
38.10872694
37.38233341
36.35444329
35.35191964
34.36519006
33.67598594
32.96142029
32.61251219
32.40502344
32.31115713
32.10259479
32.1292236
32.19449125
32.32640643
32.51908256
32.87506744
33.41385366
34.03640911
34.68230271
34.62219054
31.90281241
18.21430362
30.84000386
36.91382797
37.75903073
37.14487879
36.17264733
35.1952794
34.22270394
33.53729173
32.86421116
32.51706503
32.30887354
32.21439311
31.90109955
31.92819425
31.99485206
32.13059361
32.403651
32.75893199
33.29446024
33.89420267
34.49510165
34.35553546
31.5476369
18.16843196
30.11166053
36.38900566
37.42095756
36.91276446
35.9942139
35.04137129
34.08823052
33.40690472
32.6515337
32.30280368
32.09283542
31.99691274
42.33791389
46.60930475
42.32734781
43.11187392
50.00994703
47.04217516
43.10187695
51.66804418
50.30200366
42.73220763
52.33773438
51.78099359
42.17607672
44.29101666
47.63138
52.6201883
52.37579
41.33151403
53.85913476
44.70631405
55.83833211
53.10013154
52.64293475
40.49994104
39.5550125
41.92094059
39.37973754
49.4720669
43.64579328
45.69157624
41.66855886
40.17947458
39.31644753
42.32728353
41.66678373
54.55997588
55.10573766
48.9259551
43.52186818
42.16696673
39.6710308
42.59441748
42.3923151
43.17731476
44.65881099
45.51979498
54.06457811
53.5465489
50.62322289
44.87617523
43.91473662
40.02196114
42.49715336
42.59247366
42.94012358
41.51975962
43.23427567
55.13483322
54.54824002
40.38968645
42.26246822
42.4773875
42.45720543
37.32761372
39.4729819
39.58930406
55.75325792
55.5391797
40.83788014
41.80309105
42.22145284
41.84611087
32.31506734
34.42755092
39.9455325
54.83897959
54.15909368
46.10056301
47.59019261
42.77417972
45.76871743
54.95342208
49.77070802
44.71433563
48.96211558
53.66678616
45.62667843
46.2956166
42.90519894
46.84196431
45.6997535
47.61579874
46.97708258
53.59662366
54.42837089
48.70144493
55.06655523
54.63689708
53.89298759
55.10324414
48.46985256
43.39968216
44.51483388
43.17140344
44.24023699
42.65559778
45.62631834
44.33830383
54.43915515
54.12834929
51.20825152
55.09213248
55.27946297
54.61699782
55.04649987
51.02373464
39.59188641
41.41172963
42.8922459
40.58445643
38.36391838
42.54856197
40.70745539
55.51077273
55.19318679
34.56238408
37.17190024
42.4252072
39.883239
35.49000202
32.90288773
38.23612509
35.67528034
40.31006935
56.03526539
55.78222561
39.63005213
40.06195317
32.25553809
41.80366915
50.97613475
32.11165715
71.42139231
32.82749698
32.10722875
50.3538862
38.87177269
41.54721
40.21885538
41.60584748
44.93248836
42.42117511
58.0846911
45.68681865
42.81196806
46.37747299
46.58945677
44.12602426
51.3673489
45.73663201
45.13728046
48.52336165
50.47795554
49.21580978
53.13409722
56.2906935
56.10579496
46.46888779
45.19161388
41.8250326
52.09773904
44.43493086
50.37758402
43.3103269
48.11379874
44.13875169
48.86034927
45.55186141
52.14022562
55.42728121
55.53144917
55.29232497
55.41223239
52.07202738
40.51059243
44.08663061
47.06331672
41.04511571
40.64200408
42.40145084
43.23619971
41.11615458
41.11006744
61.79805348
46.79995313
57.70871588
45.01553075
54.85732905
46.04621602
55.41796521
55.4545809
53.76161703
53.72882963
41.32348354
42.91073487
54.93042755
41.64971152
44.10344109
44.10997055
41.63228453
54.8640596
38.49248049
42.06057802
41.74738757
52.78630272
51.15157578
45.03909491
33.55318435
40.08520849
39.63164578
40.66064897
40.24700671
33.70745579
55.56925412
52.47114606
46.85480518
52.72779524
53.64517538
49.13688138
52.45299536
47.06119498
44.14390628
48.43088124
43.9033444
53.03655911
49.06926079
44.61060145
50.9451977
55.43692824
52.88318353
52.51629475
46.30117154
43.00525408
46.22793694
47.44218216
45.91752724
48.68009239
43.34433031
45.54910948
47.34064394
54.08568947
54.16343726
54.85131587
52.29809285
51.69186667
52.92055803
52.47044089
54.81780831
54.96350094
50.37832302
49.39759845
51.46274186
50.67169368
55.05267836
43.52021002
43.41774369
45.06676766
44.98530884
54.53802641
44.59678187
54.48969129
39.70418344
39.55209205
41.69011868
41.56500433
44.63620118
48.22221824
55.34863922
44.89360199
41.46981623
36.16174197
41.17892139
40.79583854
41.63878631
41.29860987
36.29039148
39.99793485
34.69182719
34.58631938
37.33939787
37.20950813
49.50740548
42.06850949
54.29416812
53.23088832
39.45817818
39.03953717
31.99157023
33.5578408
41.73784356
40.96750354
32.44184264
60.76438568
41.06187049
54.11203311
32.37898087
48.00254549
42.43860465
40.56003329
56.11838706
39.9389113
40.03704144
41.15622302
41.40890796
41.72555319
40.45801034
32.97812075
40.95653
55.999633
52.55141818
53.02935024
49.18841103
40.18353872
41.82842329
55.26288765
54.57437683
42.95613208
56.37743127
56.32655778
53.57873223
42.53113964
42.01124232
44.0962117
45.0406759
42.3263896
42.5121288
55.00530672
57.04385759
56.23749698
55.40900163
53.88512317
46.18820468
46.77502207
48.38048386
47.6410087
53.49232402
42.29109749
43.43714953
43.20831797
43.7249104
43.510936
42.41537405
42.44723645
42.15927997
38.61773651
32.61604994
37.00074123
36.61108551
63.83061457
48.50033541
54.52499027
54.21446687
57.85224978
57.24421096
51.2243699
47.44290766
46.11723293
49.03634229
47.86274154
51.55966987
53.77832611
49.50764518
48.68415854
54.23213488
43.89896593
43.98048764
43.7923459
39.49422747
39.95104831
42.98853175
47.04490655
47.38758412
54.28271661
55.19775925
53.81652273
53.69463539
54.67994736
53.35713483
53.04322726
53.64569424
53.43864139
54.69654672
40.51386862
42.80177834
42.53864196
43.12962741
42.88605533
40.63610801
40.21605488
35.50169246
35.77842879
33.57477284
33.75393122
38.7980037
42.1914236
38.77412519
39.36219343
35.88504603
36.18621829
41.07542353
55.38835277
48.68806782
51.75314659
52.78574902
39.49709634
35.11176331
33.53808266
37.85498544
33.31114221
33.51484835
32.86015567
36.53060801
45.59563931
39.41999224
37.86195192
37.14811111
36.48552685
36.11311618
32.1490791
40.6839098
42.74956443
52.65103833
32.15107133
78.72081538
43.38303927
41.97882263
47.26964742
32.65907326
32.15183754
52.52087192
51.27120562
51.60069451
44.46485787
44.59150663
41.12913282
40.08753313
48.70931813
50.43600648
50.34469836
46.61708474
54.03550289
46.63640077
54.38390229
47.34026242
41.69809259
40.34477365
47.16455678
43.46216322
46.16376994
44.0689773
40.1525771
41.90422451
45.26103243
53.0710415
40.17011891
43.42496816
58.15955934
39.61503668
39.81913601
40.1339248
39.65835902
52.19240859
62.53789217
52.64528465
49.49558781
56.10389314
53.34026764
48.89118735
46.25750369
50.51665598
54.776673
54.2632943
55.1753
55.45663872
55.98162647
55.09068228
46.81224009
46.28197873
53.8293985
46.44520519
46.98503338
45.37231985
46.17933698
47.18225308
53.53641192
47.53142361
46.97946744
41.18563714
41.38664012
42.17788444
51.49003076
50.79201809
42.68155698
49.39341823
48.23734776
50.51981806
49.745354
42.28175957
40.57405253
43.49991697
41.77974824
37.54938964
37.11797984
32.8525148
34.0071657
38.0305574
37.6714703
54.4385779
53.98445139
53.63579731
49.37881423
49.87024163
48.47326929
49.17604365
53.90134542
51.16315256
49.96097138
49.76789748
49.96078444
49.9877093
51.39537485
51.61442095
47.40488249
48.23479844
54.0640211
54.43885612
57.52788713
57.28736868
53.88904767
58.46111696
59.06005353
59.13696967
58.06719318
56.93325434
59.23880683
57.99101926
51.34321644
56.26098276
57.54335493
41.81277778
46.40357563
45.64979658
47.11689002
46.60821814
42.29635695
44.59627204
44.07029839
45.3869115
44.77698726
47.03148352
49.06969824
48.59827004
49.64770973
49.22157425
47.4274987
44.22913175
47.78762582
47.28787752
48.43816502
47.95205713
44.55063525
50.57764733
49.70816453
53.8518063
54.24502865
51.78748395
50.89075013
39.12503747
38.67478745
39.90515035
39.28345263
37.95853238
37.52480472
38.53276592
38.08954843
43.22164182
42.71738026
43.89986138
43.39423098
41.71060098
40.29864711
42.53272604
42.02492454
46.087764
45.23471399
47.8945165
46.5873752
45.15869404
44.57334173
45.16924955
44.93668288
44.44700458
35.10325674
35.40067108
40.09233644
34.01392625
33.79631475
34.30024482
34.09253854
33.69335144
38.98287967
33.82641287
34.91233567
36.84544593
38.51221331
42.07024132
36.55800659
35.19882494
37.43223971
36.83167152
34.66933944
34.39383887
35.10644455
34.77780078
41.19748971
36.29120963
36.64022694
46.17896343
43.2134176
45.56375075
43.11989908
45.42975554
42.6822133
54.55728561
39.51958639
52.83982737
47.83635305
35.00709637
33.99058501
33.06523865
33.24965309
37.72721018
36.75054239
32.90020961
33.01527139
49.32586034
32.10933608
35.9493524
35.23934748
61.47213338
67.94465715
32.08801624
71.54417202
53.38892082
41.08737687
32.59504826
60.63876703
42.48580771
69.89295318
43.7284574
32.2540608
41.61396637
39.7248199
38.61577126
47.85238304
47.56977884
51.80811683
46.23635486
45.89807089
47.75817726
42.49268236
39.79880829
39.50279256
55.5360731
55.37356345
52.50463509
44.03444203
43.61401411
45.70095423
49.69643308
44.00390056
44.13847377
40.63889767
40.94950864
42.97235716
48.23509654
51.14908149
53.59183758
45.05547388
44.35682733
44.23956195
44.4707543
44.38951103
45.17764815
45.86244226
44.1368277
39.98351857
52.27631225
53.47851867
55.66778667
38.48760831
38.14416365
34.11766156
54.29592614
55.96502185
50.98579293
44.19360224
44.03776432
44.05812614
43.93307286
41.33653428
41.90494847
42.17771445
43.01326311
44.63170698
35.31074386
38.95762748
38.60042938
43.48597217
42.02257762
39.6840931
32.42597916
32.44396754
33.01167776
41.20102484
50.27131901
46.33718167
40.21030121
48.26642774
46.37266704
32.11631286
32.76947299
32.4090738
32.41947754
32.11004691
58.44776843
44.17117394
40.45036191
41.19564954
48.09153361
40.66901226
41.87957344
50.61672584
51.47601396
45.65959163
44.24808229
45.87434825
47.63255112
40.20537037
40.38445466
55.74900819
57.5535156
58.92926796
50.82378406
56.46098379
42.07586955
42.32755135
44.54281976
59.53373211
55.7072635
53.59499339
62.4911496
60.34789585
41.22175471
41.81034541
41.3973194
45.06229478
44.42034259
42.09266542
52.34620262
51.73210982
42.53148935
44.13012937
42.43914735
42.50335514
42.64477067
39.79966643
39.98563813
55.30888156
55.9536251
53.01566987
53.04888912
52.18868452
52.03351104
49.61702671
50.46467712
50.14127712
51.87879546
51.68975446
52.09145931
46.15342861
47.13680327
51.1547589
52.21016675
56.5158396
53.54466813
56.81277047
57.12490513
54.95541919
40.4503028
42.25850534
41.7928508
45.4019806
45.19802781
42.79875508
39.97076046
39.76507148
41.41600359
41.11691819
46.28810929
48.13151928
47.84963114
49.84086428
49.55256567
48.24818139
43.59947524
45.93230512
45.6922462
47.56525001
47.28834983
45.20908691
40.71209804
41.17666407
43.83339466
43.09376005
40.09880815
40.56010556
43.84555638
44.29112624
45.31637781
38.5204642
38.39038879
39.5789667
39.41261986
36.63987008
38.19174728
38.08190779
44.72017291
43.22055219
43.69054697
45.05616999
45.13456879
42.77570884
42.99859955
44.58472485
45.28740463
45.62479251
54.33019924
47.5585899
48.79192895
39.40422974
39.07229372
35.59722746
36.66130124
39.80241619
39.50365643
33.13202289
33.20096915
34.80407264
34.43957719
32.9825285
33.07930539
49.64267119
32.116401
32.67506743
32.18781563
107.4411477
32.68767241
41.22095307
49.75815446
45.90188817
32.24838089
32.26990686
32.47953288
59.81791345
64.34458316
62.46625166
48.80086341
32.35968984
32.22580213
32.241737
40.57925465
41.86498056
40.48418325
47.72524669
47.37355063
42.03423071
41.22079493
39.90135452
51.12735642
50.9055559
54.44865427
40.48169309
46.53234906
43.88653076
46.82283668
46.1744773
40.97586579
43.33369074
43.79232896
46.90425218
53.28615345
53.56284329
52.86055014
53.08368462
56.79777597
56.23564215
56.42170756
55.8520633
56.04991652
56.50178907
48.10737948
48.8488191
49.03143445
48.57201295
48.6660964
47.9541447
57.61280079
56.77626573
56.74206204
56.58627245
56.72380863
57.42623611
49.13758062
49.65603588
49.86200984
49.2380748
49.43816272
48.90745693
52.28665724
52.45399632
51.7423302
51.90198918
35.58148899
37.54643062
37.43080901
33.64592192
34.70336173
34.61365566
34.97769422
34.80940618
33.69733182
50.73663036
51.70048098
46.96640723
51.3146867
32.79523976
32.76694802
32.8615756
32.82957431
32.76693935
33.19956993
32.47739557
32.58180535
33.38409479
34.38439506
34.30249544
34.53753866
34.46003008
33.44656704
32.9651137
32.9098946
33.36577295
33.10413614
33.06504581
51.11200888
49.75419929
42.6621917
51.59682548
33.82251196
33.17936119
39.89889408
32.17110549
33.3272877
33.19485452
32.09637269
76.18949544
77.13185626
62.16053557
67.23487566
57.97034965
32.35750398
32.3859033
32.71655608
32.12647388
55.64435506
60.62544403
56.0824105
57.02954725
54.00477863
47.70720563
59.36648343
54.55913978
44.58712771
44.97000368
48.77131916
42.29110435
44.51643279
51.17800557
48.87069242
51.33458775
47.795042
50.27188964
55.81090495
57.25246244
51.04945333
54.75095863
57.93093694
45.82316328
46.79936779
45.54028757
48.79975484
55.35319511
55.48130492
53.78100386
40.80054143
49.73290873
45.39139951
54.42487637
55.14918681
41.98784448
43.80368937
46.29460535
57.24545772
48.04445979
41.1543416
42.10838391
59.08984204
56.133598
59.23581348
55.0325494
57.34059624
59.56980384
60.64836035
59.93647269
54.37469967
54.5758427
54.79740069
54.06043838
54.21622626
54.16953717
55.66655606
55.44846799
55.65750666
55.02197761
55.23645171
55.38605119
46.6242827
49.39852488
49.39965513
46.59682206
46.86812563
45.622654
46.40444117
46.19849837
46.08578077
47.52493591
47.82165002
47.19546665
48.80716617
48.58398664
49.3448418
49.14710601
47.10151717
44.25931778
42.82015278
41.14616326
45.31367737
44.97807133
44.89724483
41.72514399
44.4833157
44.17676354
42.63394323
42.47520234
43.19384259
54.91801521
53.45332839
51.12853899
50.80189802
50.0803706
51.83424192
51.52598455
51.29356371
57.62123806
57.28284149
53.29851999
57.63701806
59.56838488
54.80390532
57.49218395
57.61523111
57.46152405
56.25754588
56.12105232
56.53808921
56.47112191
57.40410853
58.72943983
58.86003439
57.74311778
60.27331805
60.22860005
60.02409813
60.22594115
57.53924084
59.34015848
59.90910424
61.14710044
59.31975205
44.20509529
44.06616621
41.7274755
42.43885138
44.86744121
44.7215811
40.39913057
40.178587
40.8626667
40.62480677
48.69702384
48.41213465
46.64399134
47.83449753
49.26777638
48.98233464
46.46970089
46.2137092
43.94409372
44.85650822
47.00859396
46.74258288
50.33841469
50.51930345
50.73789661
50.08117636
50.29944232
49.9935245
51.46781166
51.30412279
51.42954875
50.95478424
51.14843098
51.22686303
38.96922785
36.62987365
36.75876323
36.39326907
36.51697432
38.82319252
39.65077935
37.18266761
37.37944877
36.88460395
37.02846374
39.45622173
37.80255313
35.70333676
35.82750425
35.50222062
35.62537975
37.68710044
38.38351032
36.15526885
36.28273055
35.92018112
36.04911989
38.24402356
38.86407239
38.7152416
43.05533993
41.25938488
41.42753061
40.90939528
41.06281939
42.8790106
39.219288
39.05604867
37.53081639
37.36634858
41.47092368
39.71157288
39.78133612
37.66618868
38.09029063
40.86099321
42.38071441
40.57047428
40.69793646
40.22546777
40.31905681
42.17045459
37.87405596
37.78050707
44.50040735
44.77121744
44.84763031
43.36623997
43.79513005
44.75647753
45.66789873
45.5828957
45.97708743
45.93060397
44.96499465
44.60481879
44.53691289
44.17647243
45.31416609
45.12375133
44.45843935
35.20243414
37.04265848
36.91848939
37.30205587
37.19121444
35.32283798
33.9512797
33.86473838
34.23027611
34.14882528
33.66296632
33.74057843
33.99288531
35.85073392
35.28892553
36.68113384
36.44636404
34.60145094
35.50977438
35.00290705
35.0547775
35.31111761
37.23764621
35.30491415
35.43318742
35.11548999
35.23959793
37.1536749
34.57767435
34.47554982
34.99430962
34.87852813
45.03036104
40.78593624
41.1907832
40.38294055
40.53755837
45.27029928
44.74220668
44.61394639
41.7201803
42.95758358
45.7984278
51.97785856
42.30708713
43.89470371
40.25284649
41.1520123
52.58638458
32.67842578
32.63865399
32.74137396
32.71313836
32.69293683
32.92568547
34.27929126
32.49449598
32.40119914
32.59025715
32.53507634
33.12513473
34.06147579
33.97930348
34.22376926
34.14013421
33.18162824
32.93077864
33.72281447
33.61817243
33.89918518
33.81907963
32.97374579
48.92073282
33.1318122
32.86798323
32.08023996
59.26406482
85.91028662
91.44046022
84.47253914
85.70949361
63.94935281
32.32670065
63.11670704
47.18041309
49.91514834
32.53852943
32.28713078
32.32512238
60.83782183
67.03917588
65.65095934
53.22956594
59.32560039
71.61002486
67.32909541
45.94985559
63.53166512
56.41903668
32.63019301
32.11304402
32.21334262
36.68801317
36.70890281
36.81912962
36.71780847
36.75475737
36.84221805
36.76925105
36.82447492
36.87824584
36.84375478
36.90921222
36.92319975
36.92691547
36.97149303
36.96261332
36.98062222
36.99179771
36.97791467
36.98990967
36.96642733
36.95973499
36.95434901
36.90277188
36.92171062
36.88299768
36.82302959
36.87964407
36.80577091
36.75839727
36.84546321
36.54291691
36.58689059
36.67517583
36.60659945
36.68444105
36.73096618
36.71678925
36.82055929
36.81520105
36.85470773
36.95057178
36.91242462
36.97811501
37.0420295
36.98120846
37.05540099
37.06967886
37.00321944
37.06554332
37.02963667
36.97547381
37.01084575
36.93673491
36.90537255
36.9078738
36.81336278
36.81250628
36.78114633
36.68664364
36.73493084
36.42290723
36.51127755
36.56278662
36.55098554
36.69042434
36.67969546
36.74020694
36.89714325
36.83124018
36.95022026
37.10151466
36.97530063
37.14504287
37.24569007
37.07617828
37.2668587
37.2827403
37.1042691
37.26843047
37.20146145
37.06019807
37.17035303
37.0545559
36.95682588
37.01007617
36.87048255
36.82121416
36.82356769
36.68707359
36.6789427
36.33729712
36.49212974
36.50088838
36.55233523
36.75644182
36.70150333
36.83338334
37.08805328
36.93264278
37.1783859
37.45904591
37.16400168
37.54148724
37.74759681
37.33059394
37.79037301
37.79409485
37.35722466
37.73038494
37.57606663
37.27311638
37.51153583
37.30282166
37.10146206
37.23022714
37.01509295
36.89765709
36.94537637
36.74766976
36.69633367
36.29462614
36.51420351
36.49443852
36.59834538
36.89711023
36.78463326
37.01423826
37.43427542
37.15730304
37.60179429
38.22305571
37.58990822
38.45128995
39.29799608
37.95824073
39.31363852
39.09565191
37.95392287
38.80371836
38.33659152
37.72135252
38.17584082
37.74750608
37.39292455
37.61889514
37.26875872
37.06738325
37.16221576
36.87095876
36.77184637
36.28100622
36.56581172
36.52471868
36.67932562
37.09657984
36.94234257
37.26839116
37.93847848
37.54889287
38.2408323
39.96859502
38.49475068
39.4046184
40.03823694
39.11594177
40.65758522
40.70753059
39.63298785
40.17224636
39.54106845
39.12719786
39.32577203
38.44029719
37.89644233
38.21104838
37.6403644
37.35089638
37.47929763
37.06024449
36.9119197
36.28170212
36.63504339
36.58145546
36.77918155
37.31558536
37.15110443
37.54054243
38.44644296
38.07469941
38.57833035
39.04207072
38.83154654
41.08703784
41.74122651
41.37998315
43.54847906
42.32878498
41.17022657
40.89499319
39.33954751
38.64914635
38.97281852
38.11334696
37.75152362
37.88305256
37.30426872
37.11682225
36.2899114
36.70989645
36.65366126
36.88162833
37.51629036
37.36817442
37.78058224
38.83117741
38.55386516
39.11286913
39.69477708
39.55993687
42.58994188
43.57601909
43.44889736
47.50958349
45.09526587
44.08754196
42.438183
40.28192649
39.57518154
39.78075904
38.62644722
38.23912014
38.32366361
37.57716051
37.37070432
36.30180162
36.78413744
36.72859344
36.98015179
37.69528412
37.56268172
37.9891659
39.14008384
38.91239868
39.49818469
40.14050271
40.03657433
43.16453755
44.04084379
44.08210802
49.93695555
47.08667209
46.45484603
43.64707789
41.1125762
40.50059305
40.50997002
39.11536592
38.75153069
38.74870817
37.84918469
37.64609401
36.31626484
36.85703381
36.80254263
37.07548129
37.86433889
37.73804818
38.18548812
39.43837795
39.21299128
39.84391189
40.54461286
40.44213498
43.02841862
43.43729906
43.59176365
51.08050904
48.20436518
47.89605015