/*--------------------------------*- C++ -*----------------------------------*\
| =========                 |                                                 |
| \\      /  F ield         | OpenFOAM: The Open Source CFD Toolbox           |
|  \\    /   O peration     | Version:  v1912                                 |
|   \\  /    A nd           | Website:  www.openfoam.com                      |
|    \\/     M anipulation  |                                                 |
\*---------------------------------------------------------------------------*/
FoamFile
{
    version     2.0;
    format      ascii;
    class       volScalarField;
    location    "0.86";
    object      nut;
}
// * * * * * * * * * * * * * * * * * * * * * * * * * * * * * * * * * * * * * //

dimensions      [0 2 -1 0 0 0 0];


internalField   nonuniform List<scalar> 
12556
(
1.155888353
1.15585924
1.155829647
1.155804123
1.156026449
1.156021371
1.156029285
1.156051692
1.156096292
1.156175176
1.156291121
1.156422297
1.156520229
1.156531119
1.156442859
1.15632166
1.156206824
1.156129988
1.156068888
1.156046359
1.155823251
1.155832196
1.155856294
1.155884304
1.155146653
1.15505814
1.15496876
1.154901755
1.155110059
1.155113585
1.155167528
1.155371296
1.155581815
1.155950756
1.156497163
1.157132356
1.157613758
1.157724848
1.157359232
1.156797853
1.156229307
1.15578531
1.155401516
1.155236427
1.154946735
1.154981647
1.155051247
1.155130901
1.154367158
1.154219226
1.154077563
1.153984701
1.154201631
1.154244113
1.15438086
1.154735764
1.155258182
1.156150739
1.157446914
1.049778863
0.9585388207
0.9546845094
1.027404437
1.158043004
1.15673066
1.155740286
1.154925869
1.154534681
1.15413308
1.154131767
1.154229724
1.154365024
1.15357689
1.15337398
1.153187814
1.153085379
1.153314002
1.153436725
1.153729283
1.154376943
1.155474288
1.157362853
0.8874188527
0.7222028994
0.6535368006
0.6621571339
0.7351963892
0.8718786946
1.09111909
1.156329227
1.154832908
1.154037305
1.153371666
1.153326655
1.153425876
1.153596259
1.152755724
1.152500477
1.152285989
1.15219942
1.152474792
1.152724579
1.153339425
1.15441347
1.156568315
0.8579595573
0.6031816082
0.4518045356
0.3895869123
0.4085599059
0.4888190321
0.6171051054
0.809216564
1.105272171
1.155335312
1.153833765
1.152752038
1.152547505
1.152613757
1.152814722
1.151942166
1.15164539
1.151410196
1.151348643
1.151698447
1.152145371
1.153212249
1.155014055
1.003939267
0.648838009
0.4085720879
0.2548900682
0.193634138
0.2231438874
0.3104557551
0.4358485736
0.6095869287
0.868260855
1.156604305
1.153995996
1.152300365
1.151830724
1.151818726
1.152019557
1.151114452
1.150780347
1.150542619
1.150540777
1.151001107
1.151717221
1.153398849
1.15619389
0.8549570029
0.5291483146
0.2969550791
0.1293238067
0.06943493414
0.1080550698
0.1990111102
0.3187532565
0.4781140495
0.7026888779
1.074262299
1.154613145
1.15197205
1.151150068
1.151004667
1.151184185
1.15031676
1.149958149
1.149732199
1.14979108
1.150411105
1.151463655
1.153921947
1.157672836
0.7916753501
0.5007375498
0.2872323518
0.1127699861
0.05903687924
0.1455465385
0.255229742
0.4006890496
0.6039300707
0.9468358704
1.15563302
1.15183814
1.150559209
1.150221944
1.150352034
1.149544421
1.149163756
1.148962536
1.1491357
1.149958569
1.151394813
1.154708242
1.159239173
0.7922527967
0.5497041225
0.3974935021
0.3031591352
0.06801995072
0.1385795243
0.2333919424
0.365416304
0.5505802022
0.8701006761
1.156930062
1.151880693
1.150048019
1.149468459
1.149531179
1.14885199
1.148460016
1.148292576
1.14861115
1.149577688
1.151501292
1.155664646
1.160809286
0.8239605984
0.6258457782
0.5420268597
0.6389980073
0.09293660432
0.1539382012
0.2396604862
0.361638229
0.5325879395
0.8304715887
1.158423651
1.152142797
1.149710195
1.148847481
1.148817713
1.148209348
1.147809061
1.147695055
1.148195193
1.149287167
1.151759135
1.15673007
1.162369544
0.8592864535
0.6840271759
0.627949107
0.615198145
0.126138725
0.1831367756
0.2655160964
0.3822422336
0.5441545682
0.8251505239
1.159923963
1.15257585
1.149524909
1.148361899
1.148233899
1.147678943
1.147277889
1.14721401
1.14787367
1.149120858
1.152128017
1.15785539
1.163918931
0.8884567517
0.7091226928
0.62488745
0.5286871201
0.1633956761
0.224598182
0.3097977071
0.4255798713
0.5828556686
0.8494855171
1.161388559
1.153223752
1.149569038
1.148113277
1.147876054
1.147199925
1.146798947
1.146817116
1.147666783
1.14906219
1.152551531
1.158966548
1.16543491
0.9200461103
0.7197647376
0.5765649588
0.4624660714
0.08530105138
0.2097539481
0.2862917116
0.3794861906
0.4962660931
0.6556425015
0.9010412907
1.162776368
1.153942143
1.149762261
1.1480311
1.147704427
1.146830877
1.146434631
1.146524492
1.147518602
1.149190339
1.153268757
1.160301551
1.167059353
0.972434943
0.7547345228
0.5656287186
0.2890603668
0.1400545698
0.3090724834
0.39758699
0.4915813593
0.6030535022
0.7531073113
0.9783354739
1.163992859
1.154713233
1.150132936
1.148160286
1.14774425
1.146488602
1.146091466
1.14624689
1.147394972
1.14929534
1.153807834
1.161320762
1.168339847
1.075691455
0.8612387543
0.6631088311
0.07227343091
0.2168471009
0.5122705541
0.6072029461
0.6713019363
0.7618570974
0.8950716959
1.104152454
1.165004153
1.155434655
1.150529642
1.148371926
1.147905423
1.146233282
1.145835564
1.146041937
1.147316166
1.149412035
1.154289634
1.162195496
1.169327713
1.166662016
1.063668799
0.8867440778
0.0424084875
0.2377961438
0.5303639011
0.799197009
0.94737935
0.9856268637
1.084582129
1.167059358
1.165750937
1.156071725
1.150961216
1.148681651
1.148164229
1.145960805
1.145552466
1.145792628
1.147195082
1.149502069
1.154676817
1.16287764
1.169996887
1.167036067
1.126241275
0.8343146451
0.03800256258
0.2448966876
0.5379830441
0.8040665901
0.9912112798
1.098006961
1.148215896
1.167644704
1.166188424
1.156549957
1.151319607
1.148956406
1.148416774
1.145751311
1.145332249
1.145587001
1.147074802
1.149535834
1.154944961
1.163338039
1.170327096
1.166622676
1.119652614
0.786109958
0.03798855094
0.2458366277
0.5392351898
0.8058693554
0.9924024976
1.09838497
1.148304282
1.16761217
1.166276875
1.156854783
1.151602164
1.149223349
1.148674452
1.145488198
1.145050223
1.14530174
1.146869799
1.149497261
1.155084369
1.163576802
1.170323774
1.165440141
1.109642692
0.7325467145
0.03840002061
0.2473039918
0.5383980892
0.8075406723
0.992452081
1.097461011
1.147518816
1.167096889
1.166060136
1.156949645
1.151734767
1.14937471
1.148827775
1.145278195
1.144826844
1.145062411
1.146661254
1.149379547
1.155097101
1.163609948
1.170027464
1.163673954
1.096859166
0.6688021458
0.03848611624
0.2519149281
0.5386097266
0.8074612368
0.9909680063
1.095559529
1.146069414
1.166181154
1.165580533
1.156923069
1.151817732
1.149497305
1.148952152
1.144990274
1.144523763
1.144735793
1.146365203
1.149190956
1.154993252
1.16345832
1.169477523
1.161380554
1.082513089
0.6144810579
0.03985068328
0.2551896107
0.5371533986
0.804021226
0.9880819548
1.092865483
1.144092942
1.164928036
1.16488144
1.156719457
1.151749976
1.149481954
1.148942114
1.144759257
1.144288676
1.144477511
1.146097157
1.14894504
1.154791056
1.163145717
1.168699329
1.158579943
1.06659145
0.5747219264
0.04215211882
0.2567244241
0.5341160761
0.7976296701
0.9836710568
1.08944707
1.141666806
1.163395421
1.164004304
1.156452811
1.151666989
1.149456421
1.148916529
1.144435282
1.143962045
1.14413047
1.145756701
1.148663006
1.154513601
1.162697383
1.167708739
1.155250473
1.048063322
0.5466875747
0.04494347328
0.2568400819
0.5299149043
0.789611121
0.9775764198
1.085258699
1.138819836
1.161624733
1.162982877
1.15604225
1.151440509
1.149289133
1.14875049
1.144179931
1.143715352
1.143870538
1.145475169
1.148357371
1.154182101
1.162136304
1.166512586
1.151293
1.02609579
0.5262605761
0.04801610592
0.2557866094
0.5245596644
0.7805201108
0.9700077198
1.080227264
1.135550092
1.159638737
1.161839606
1.155615524
1.151235361
1.149143672
1.148600733
1.143819796
1.143363995
1.143510497
1.145118829
1.148039439
1.153809618
1.161476364
1.165103168
1.146506309
1.002134225
0.5109078206
0.0513080213
0.253765867
0.5181101715
0.7705192141
0.9611435614
1.074380628
1.131862205
1.157456883
1.160591496
1.155056637
1.150884407
1.148851536
1.148306199
1.143539952
1.143101868
1.143247213
1.144834945
1.147707201
1.153400314
1.16072102
1.163458494
1.140722411
0.9786505582
0.4993416206
0.05481203107
0.2509850484
0.510824531
0.7598366571
0.9513596971
1.06781036
1.127793851
1.155106546
1.159254573
1.154517159
1.15058718
1.148613337
1.148060837
1.1431463
1.142723633
1.142869106
1.144459372
1.147362861
1.152952672
1.159867667
1.161553189
1.133805635
0.9569961727
0.4906090599
0.05852190216
0.2477456704
0.5029409879
0.7486986073
0.9409590304
1.060688146
1.123419989
1.152625727
1.157846518
1.153845834
1.150135402
1.148218936
1.147661887
1.142838662
1.142438364
1.142590765
1.144162575
1.146998127
1.152463189
1.158911913
1.159366576
1.125896428
0.9374999747
0.4839542114
0.06243113511
0.2442672697
0.4947374595
0.7373213201
0.9302172145
1.053207207
1.118839184
1.150059282
1.156386768
1.153227103
1.149766425
1.147906307
1.147340578
1.142418429
1.142036079
1.14219225
1.143758992
1.146615085
1.151928242
1.157850222
1.156888851
1.117278977
0.9200897305
0.478919376
0.06658117805
0.240643499
0.4864399464
0.7259314637
0.9194060615
1.045574307
1.114158079
1.147454299
1.154895874
1.152479114
1.149240803
1.147435123
1.146863787
1.142073842
1.141715482
1.141882496
1.143433475
1.146205244
1.151345587
1.156679897
1.154119463
1.108261586
0.9045546608
0.4751504236
0.07090287583
0.2369229981
0.4782366041
0.7147773364
0.9087941819
1.037989149
1.109479822
1.144854575
1.153395512
1.151810701
1.148815387
1.147062588
1.146481552
1.141643269
1.141302569
1.141473648
1.143005171
1.145773166
1.150713491
1.155398231
1.151063876
1.099066148
0.8905845285
0.4723127498
0.07538748293
0.2331707043
0.4703187062
0.7041323689
0.8986371107
1.030627963
1.104891928
1.142296697
1.151903288
1.151037229
1.148260034
1.14655717
1.145969924
1.14124149
1.14092485
1.141107554
1.142627821
1.145311774
1.150031588
1.154001238
1.147727134
1.089806218
0.8778111807
0.4700053083
0.07997537201
0.2295491607
0.4629543367
0.6942762269
0.8891588719
1.023631486
1.100462028
1.139807818
1.150437764
1.150332733
1.14778062
1.14612784
1.145529839
1.140834415
1.140533219
1.140719655
1.142204311
1.144826727
1.14929919
1.152483047
1.144108273
1.080494628
0.8658307306
0.467830048
0.08455708897
0.2263895406
0.456372573
0.6854601392
0.88053162
1.017098229
1.096234319
1.137406356
1.149005766
1.149614905
1.147267873
1.145656885
1.145052258
1.140336397
1.140059187
1.140255655
1.141727189
1.144316189
1.148519283
1.150837153
1.140195139
1.071067726
0.8542155884
0.4653374494
0.08901098887
0.2240024119
0.4508917833
0.6778737929
0.8728645168
1.011086677
1.092236051
1.135108086
1.147627068
1.148832751
1.146702697
1.145142293
1.144525219
1.14001008
1.139744956
1.139945345
1.141385846
1.143789618
1.147700809
1.149069425
1.135971334
1.061423115
0.8425528259
0.4620548313
0.09317454807
0.2225882663
0.4466999479
0.6715659428
0.866197505
1.005616369
1.088478538
1.132940531
1.146308798
1.148320959
1.146341324
1.144809177
1.144185177
1.139319314
1.139082088
1.139292246
1.14069696
1.143286677
1.146880836
1.147244849
1.131419058
1.051507105
0.8306138731
0.4576639228
0.09688740954
0.2222485122
0.4438838736
0.6666535048
0.8605269001
1.000677953
1.084962834
1.13098722
1.145134258
1.14734446
1.145635684
1.144163351
1.143522424
0.2610757307
0.06018927604
0.05149516495
0.6258070562
0.08426028012
0.06294652185
0.6255282338
0.1183965543
0.08825997089
0.5382597436
0.1499157702
0.1234928582
0.468464222
0.06351173359
0.08002482881
0.1841567442
0.1538323782
0.3207466074
0.1008607895
0.06540692425
0.1263300815
0.2487798133
0.187261245
0.1083833813
0.07093966949
0.05343752374
0.1022045669
0.03060816744
0.02183248313
0.06570753259
0.1175308708
0.1244004855
0.5086983885
0.5882427255
0.3140181984
0.04871748971
0.04979280617
0.08962499783
0.1313061266
0.1192183756
0.6152145779
0.7272028554
0.6117234896
0.6651305243
0.2332137218
0.2728642393
0.07939797842
0.05927923247
0.1219028248
0.1589786204
0.1371712543
0.6309331585
0.6483443536
0.7179440845
0.5832131309
0.1388484079
0.1886822046
0.1276507671
0.1040398776
0.5876936882
0.5601052285
0.6387418322
0.5115341602
0.07561107274
0.1037158599
0.02586137631
0.1409449051
0.135146959
0.5578252613
0.3744017297
0.5482506425
0.4187232287
0.02765862314
0.04650979828
0.2628781204
0.1620667329
0.1148804777
0.08826328814
0.258184317
0.04024499626
0.07839623912
0.04820994497
0.03189637011
0.05296220747
0.0337159251
0.04641888604
0.2786023174
0.3220748587
0.5100785066
0.2445998026
0.2176829279
0.3004420743
0.2497839511
0.05878431821
0.04850618253
0.07417863933
0.06866492281
0.07591285295
0.04751986683
0.06904141271
0.07270156971
0.1924464171
0.2276284907
0.6553620897
0.1724321214
0.1399534293
0.2149750503
0.1751733846
0.09975049847
0.08108005326
0.1055271802
0.09778720575
0.1154183846
0.07654092381
0.09466658775
0.100983332
0.1053671451
0.136797162
0.5724036822
0.1072094601
0.07813329602
0.1381498998
0.1088379717
0.1342351495
0.1284463253
0.04748525616
0.07368026379
0.5085086966
0.01750015922
0.05025030042
0.02945641221
0.07694523788
0.05186829991
0.01501456261
0.1461906408
0.142317306
0.02928397153
0.004690071744
0.02731622013
0.4121053622
0.08525968271
0.01720879977
0.009230871591
0.02911514748
0.01753931849
0.08371917291
0.3616521069
0.2756597411
0.1325025443
0.1488207545
0.08795650876
0.04780792101
0.01578148353
0.009296888408
0.4566244729
0.3282091565
0.2849630007
0.009859679567
0.1562268416
0.1956900143
0.167382243
0.009845720655
0.08695226334
0.07638528919
0.09682275973
0.161556788
0.1495655981
0.2388645151
0.0989777869
0.1701055708
0.04366894065
0.01512536417
0.02656100568
0.02499947162
0.03201254644
0.05171211691
0.07414908962
0.05448633806
0.1384943902
0.1276484838
0.136090658
0.1166572819
0.1264019284
0.1351301512
0.0424379327
0.01164910463
0.07789785439
0.02800133388
0.04872219515
0.03906435632
0.02228183072
0.03548124715
0.02671062488
0.0141930556
0.02476152405
0.02171132709
0.01115755492
0.01777080651
0.02347005573
0.06078530214
0.06169154643
0.06966430015
0.06826194177
0.0264873826
0.01177834637
0.1218971186
0.02240964275
0.04255749599
0.0106710925
0.0189258866
0.1172430127
0.09125449869
0.2819401214
0.2653406358
0.1081290074
0.09241463791
0.01036841731
0.04145935194
0.1951882497
0.179768009
0.2166947586
0.201469794
0.04185089627
0.05591790297
0.04404949402
0.1338815405
0.0735920621
0.07239628382
0.04090079225
0.07283001816
0.1530592825
0.04950312505
0.02791675906
0.01748160024
0.06245343147
0.03095931534
0.05492095703
0.02934261068
0.07794980376
0.03927093371
0.03899623515
0.2374936728
0.03004426951
0.2362293692
0.2772845733
0.0345316561
0.03967057069
0.03054841718
0.03391396447
0.2701987973
0.05663851982
0.05624551131
0.07286381408
0.07035466661
0.06571515377
0.0769600394
0.07195004634
0.07321571349
0.05742706116
0.05826309134
0.05328164964
0.06405891002
0.0596288721
0.05901286401
0.1562893229
0.1541977524
0.1962564346
0.1937734684
0.09462127532
0.01037538893
0.09290731935
0.09617164329
0.09409230022
0.1227094962
0.120723025
0.04552414592
0.06646557944
0.132287909
0.05080565298
0.02860991107
0.06397735464
0.238243926
0.2222697572
0.2597844319
0.2435801828
0.06536771419
0.03834795991
0.04562055805
0.0446083479
0.06912319468
0.0681993662
0.00665321142
0.05182872009
0.1225804278
0.1134376979
0.173768527
0.162016588
0.02154286378
0.01117209241
0.0310858878
0.02060354342
0.02762758308
0.01011768302
0.01881788016
0.01066416627
0.02766549821
0.08137552199
0.01261208002
0.02779027281
0.003690046416
0.02695051905
0.01992957709
0.6224750504
0.3790999462
0.3538283426
0.248638623
0.007904899788
0.005297116719
0.2092015121
0.4310095856
0.2806328536
0.006218578529
0.01712165973
0.01204724475
0.1237373136
0.1234083436
0.05624905787
0.2012253951
0.1677063709
0.1001806453
0.0111974495
0.01952507501
0.01521470735
0.009654655231
0.01471144285
0.01043263667
0.05224394032
0.02351420517
0.02213595105
0.05477988115
0.07475150149
0.02344619902
0.03206175915
0.01481057005
0.0146040044
0.06165373989
0.1563273218
0.3708707945
0.3537533088
0.3940743208
0.3766354316
0.1603204931
0.3038086747
0.287232952
0.09271487839
0.03049026902
0.09295738765
0.08713637608
0.009940216921
0.01652879799
0.1345297483
0.04448996142
0.02640909001
0.02372072012
0.03891184241
0.04567947985
0.04161370763
0.05175037803
0.04708134012
0.03997290695
0.05769228484
0.01557615447
0.01490478886
0.05050719817
0.2072352595
0.4175696547
0.3998734287
0.05880762174
0.06102026359
0.1459863881
0.03401595245
0.03704928296
0.08571915796
0.107186475
0.1053930841
0.09739918661
0.0843564913
0.08479280665
0.07888794364
0.09448152725
0.08712904244
0.08573988039
0.1210100329
0.3258613946
0.3092536061
0.3481282941
0.3314230502
0.123150274
0.1025413665
0.03450045906
0.03521861614
0.01980174813
0.02057065076
0.08304041749
0.1317473979
0.05425852591
0.05836105517
0.03552526962
0.03618740883
0.113753991
0.1334569796
0.06954572397
0.09151779649
0.00675002587
0.02573430365
0.04785969088
0.03600003317
0.07352581133
0.01920321035
0.01966731745
0.01879276964
0.06142654453
0.01078940355
0.004413547802
0.1207172402
0.09987916022
0.08511956445
0.08038740663
0.0268904325
0.03005663794
0.04283671895
0.09016403574
0.01699846106
0.0103634109
0.02808609447
0.03585870694
0.002915928011
0.02860117273
0.01850995837
0.01303952401
0.006617970027
0.01276455698
0.01003948602
0.009885235312
0.04043223904
0.03034872601
0.006664619984
0.03958517825
0.04169880433
0.0176713567
0.01165492879
0.0082888202
0.01202045119
0.01930993534
0.01229022091
0.01817328622
0.06363667217
0.01054510433
0.009489155173
0.01114129002
0.01572356338
0.05155823143
0.01094596243
0.009968919884
0.01597621017
0.01114491389
0.01018367048
0.02795365655
0.01846287575
0.03983733287
0.03130940965
0.01023550346
0.02456236568
0.02249156137
0.01956969764
0.03079956807
0.02384289488
0.0191402539
0.01722580094
0.01341401334
0.02044547395
0.0159532237
0.05501287155
0.05659377269
0.02178211267
0.02052747517
0.02179723558
0.02264880169
0.07309367535
0.01274583045
0.01324049058
0.01753526238
0.01298162284
0.01346727713
0.06321212343
0.01403128677
0.02127746006
0.01775785407
0.01562040222
0.02998328351
0.07750109089
0.07097164937
0.01431029625
0.05948858628
0.05151368856
0.06858733954
0.06218058953
0.01525923912
0.01369241032
0.05451644707
0.04446829699
0.1023173626
0.09508445845
0.03397990733
0.04404036409
0.1104550197
0.1043273273
0.04892079511
0.04768582966
0.0773724352
0.1007727004
0.1319411055
0.07442435438
0.09368667765
0.07875423339
0.06539220786
0.1693067538
0.1518582846
0.149467923
0.1743645552
0.06531632637
0.04442542347
0.05448823669
0.06829755484
0.03902042737
0.04420598204
0.036273954
0.03449868926
0.04327762139
0.02518597688
0.02525848049
0.02020639472
0.03605472082
0.03246974904
0.0261531319
0.03636413285
0.03569132097
0.03757125649
0.03797572504
0.02803068742
0.1034828667
0.0886155499
0.1120787075
0.1067086525
0.02926081711
0.07802276541
0.07517655949
0.08440875621
0.07905395262
0.03640928621
0.1362185537
0.129413068
0.1475977438
0.1386874534
0.03714894617
0.03188406303
0.1193590944
0.1139884992
0.1272786389
0.121273788
0.03229248024
0.01669797445
0.01591701822
0.05739739189
0.05246288868
0.01672053645
0.01695959104
0.04163471647
0.04078177778
0.04399437952
0.04192789212
0.039248758
0.03812174311
0.04050466254
0.03953634241
0.07093583876
0.06853984
0.07430091231
0.07178776293
0.06212116272
0.04691037098
0.06752595292
0.06505397147
0.03795705726
0.03204074941
0.04919465121
0.04116922
0.009950966041
0.02010913933
0.01874754108
0.02986497211
0.0209892032
0.03352456568
0.03414803301
0.1009542366
0.01976588225
0.01956412704
0.0204192622
0.0199519754
0.01892206264
0.08566020291
0.02114176469
0.03150499665
0.03830893138
0.05220703165
0.1295518653
0.03506346728
0.02255684781
0.03797238432
0.0349603595
0.02121056288
0.02066033173
0.0221647869
0.02144427201
0.1154364185
0.03641435759
0.03727504114
0.007048124479
0.04131555425
0.009542309245
0.01067348555
0.009549360072
0.03818153026
0.006864105261
0.02896655167
0.009821121704
0.01059464739
0.04718450829
0.0406346992
0.01862171962
0.01909986193
0.0724900941
0.06373030839
0.01776688724
0.01855518671
0.009610557735
0.02580636109
0.07752792207
0.06836793341
0.01121304883
0.01079953855
0.01620263268
0.01041853984
0.01117322008
0.02600580877
0.02848506393
0.007057975289
0.01361727589
0.01021402188
0.01212566471
0.01929627647
0.0612385224
0.1319316905
0.1733199221
0.009589440496
0.009578603852
0.1916828089
0.2482621812
0.2069138362
0.006754698233
0.0545127262
0.01783939973
0.02673841995
0.1405893165
0.146219426
0.163817751
0.005382890605
0.008666770388
0.006313768611
0.005102737019
0.006499707459
0.005107944149
0.06599793855
0.04192242608
0.02555514717
0.0276649733
0.02422106136
0.0276577744
0.2501404144
0.4654085656
0.4473710207
0.4895632547
0.4714357867
0.2557526965
0.06680537851
0.05789303298
0.01593620282
0.09676161521
0.1121723668
0.1374726888
0.118685469
0.1124122159
0.04453729191
0.0291534896
0.03468899467
0.03430208168
0.4413793036
0.4234730106
0.2120897842
0.1651154637
0.0675830534
0.07198447204
0.07552963912
0.08805644491
0.1835373243
0.05524689647
0.1281164065
0.1208652108
0.01110712346
0.01160972054
0.01993174528
0.01835495425
0.01862480521
0.03026003641
0.01294230774
0.009777350944
0.01025532319
0.03900310558
0.07966039022
0.06934388346
0.01718329918
0.02888987339
0.01795299869
0.01810496558
0.0175439323
0.01372150153
0.01025996084
0.01388505999
0.01239788817
0.00989229561
0.03343323997
0.04251828994
0.08616419765
0.0419454615
0.04036302705
0.03681700464
0.02718784041
0.06647546802
0.02131270672
0.03008777194
0.01010754369
0.007003216384
0.007049578409
0.01050765309
0.00993327874
0.02681114622
0.01690741856
0.01129862061
0.02039756876
0.02030796643
0.01885693181
0.0237525368
0.02909381489
0.02416264014
0.01290215168
0.01416333508
0.00846137546
0.009805606392
0.01351488044
0.08660815854
0.07970248386
0.03278742632
0.01026948159
0.01998167407
0.01787991716
0.01153661054
0.01946232909
0.0164616504
0.05318109629
0.03972998785
0.04534878554
0.07498915683
0.1106448181
0.1084793817
0.04279454112
0.07324637225
0.06857309631
0.1068818422
0.1039123377
0.07061726988
0.04093116034
0.0494675803
0.04068309755
0.03122018528
0.03333611041
0.02695380029
0.05292145408
0.05097930049
0.06135307202
0.02219340545
0.03276392339
0.03102122115
0.05337509818
0.05291827745
0.02975989668
0.02709118422
0.02664342309
0.02993842934
0.02917900239
0.03520287021
0.06139162776
0.06056043181
0.06645412041
0.06538120315
0.03873890203
0.03093461701
0.05495239275
0.05430206896
0.05971013193
0.05888223112
0.03335033981
0.0645187858
0.06674836019
0.1628482222
0.1479296111
0.06168157065
0.06381734978
0.09649831364
0.1005340775
0.2041600478
0.02495807529
0.02482027345
0.02638645415
0.02615997795
0.01886517315
0.02452773091
0.0244325526
0.1860930639
0.09072592034
0.09499934315
0.01085398353
0.0110095211
0.01709443262
0.01623190808
0.01044158843
0.01093412829
0.01054763801
0.08737881571
0.03850226351
0.04710267197
0.137597265
0.1305381209
0.05851398949
0.0685333461
0.1461795257
0.1397171795
0.02960770494
0.0296807221
0.04599739582
0.04424833054
0.0292228735
0.02919212535
0.009679607269
0.02049815912
0.03233105223
0.03229298386
0.008051974391
0.01321986413
0.02844881689
0.01184240232
0.01215264753
0.01711848616
0.01735562883
0.02807162544
0.0103474097
0.007302981879
0.01026037927
0.01056620261
0.026192213
0.01665621018
0.01722597847
0.01819741485
0.05097730706
0.04272297751
0.009746463349
0.00984500157
0.01167515864
0.01243760248
0.02212402586
0.006973478631
0.004678033044
0.008639040713
0.01461901745
0.009536340262
0.01069748907
0.00948798483
0.009812628447
0.01281641055
0.01143281694
0.007578937277
0.005522149834
0.02027284928
0.02092254724
0.01951094852
0.0197867775
0.02289396377
0.03429905769
0.03475708338
0.03368172369
0.03410731086
0.02269686242
0.01451515151
0.02626127333
0.02620032043
0.02710748253
0.02642274165
0.0142119789
0.02520136242
0.0381868525
0.04215643733
0.03513734394
0.03618710748
0.02446563341
0.01548964442
0.02621804234
0.02618332719
0.02615596783
0.02619756432
0.01521254986
0.0187378438
0.01919960894
0.0181198781
0.01891897486
0.03465858383
0.05408827109
0.05359127301
0.02004252553
0.03323476622
0.03298923876
0.03451026647
0.03358004184
0.02022760644
0.00998588945
0.00973184283
0.01031389121
0.009935314931
0.01863656871
0.01845966945
0.01902131904
0.01882237658
0.01457211301
0.03218980903
0.01919358552
0.02007190129
0.01937636329
0.0325203265
0.03230275737
0.03284114768
0.03266032244
0.019497793
0.01987530892
0.01930928687
0.02910306438
0.02080573437
0.01490841339
0.006757816805
0.009795854582
0.01151864789
0.006611131587
0.03881227685
0.02658961325
0.00308696144
0.02688586167
0.04122479922
0.04083549201
0.01694973945
0.01023539739
0.007418290291
0.004566039009
0.01081266514
0.01098644987
0.01775337782
0.01789393905
0.02880600473
0.01795015534
0.008761132704
0.007701410369
0.01534395024
0.004081883638
0.009663300013
0.007435098266
0.00506387104
0.006344390529
0.009953736894
0.00950082185
0.009591686804
0.01159022866
0.01039543327
0.0416777221
0.03104850945
0.00919585904
0.01144212974
0.01298707317
0.01871012378
0.02114559018
0.01388575283
0.01716148031
0.01449892791
0.009714507041
0.006860908674
0.009830028265
0.01019751319
0.006774988845
0.00994245216
0.009989421165
0.01364104906
0.0106133353
0.01081546838
0.01014290018
0.009880787371
0.01220506255
0.01152154274
0.01081853564
0.0101451435
0.01077371143
0.01401174852
0.01274593758
0.02783613474
0.02205335687
0.02358689297
0.0275034638
0.03134291302
0.03012208566
0.02796165557
0.02879299601
0.01946536817
0.03051161617
0.03234623992
0.02233996814
0.03065857737
0.02066077252
0.02134044843
0.0330503145
0.03348773726
0.03233089551
0.0329137524
0.02109423045
0.02204957366
0.03874051782
0.03817641302
0.0129532233
0.01308714694
0.01499705484
0.01156049419
0.01195738865
0.01248512292
0.01340796853
0.01289300941
0.01696155242
0.03236392723
0.02896945474
0.03724038401
0.03542395347
0.01988675297
0.009678242549
0.0113760053
0.02114458629
0.007798529921
0.009613451656
0.009626995723
0.01487279908
0.009783096658
0.01006699517
0.02635151469
0.02336899367
0.01217743151
0.05073381151
0.04615254864
0.09362047652
0.08216027444
0.04507105497
0.07022246331
0.1025132484
0.09742381616
0.03846658242
0.03475873214
0.03497037412
0.02389427233
0.02909942425
0.0514239088
0.05249675625
0.0434777108
0.03617005203
0.04411607496
0.04242231507
0.04663666857
0.04698783071
0.03420377632
0.02400103061
0.0255139386
0.03741397669
0.02726871316
0.0260072635
0.02892676499
0.02757150438
0.03466398136
0.02679594991
0.02740525129
0.0219961726
0.02854628249
0.04804571312
0.04828024012
0.02962176288
0.02920480027
0.05165382565
0.05164375611
0.02784490045
0.02741195439
0.02868935598
0.02822403796
0.06295301033
0.06213623823
0.03568337561
0.03793917469
0.06455739796
0.06375755739
0.05651708983
0.05580703706
0.03146888966
0.03275916351
0.05803761706
0.05727521964
0.01631732703
0.02620396342
0.02619280454
0.02623771257
0.02624009859
0.0162117142
0.01719482805
0.02421065615
0.02110875373
0.02602281594
0.02552172925
0.01706708363
0.04133532208
0.02362989772
0.0239032305
0.0232176225
0.02341787463
0.04106528438
0.04280442776
0.02483401795
0.0252968386
0.0241640233
0.02447594028
0.04228088268
0.03883473007
0.02201183998
0.02225219387
0.02164996732
0.02187954631
0.03859036421
0.04019835846
0.02283294548
0.0230184865
0.02241198389
0.02264814913
0.03990703134
0.02541480698
0.02523311086
0.07014547508
0.04520986303
0.04557426654
0.04440698232
0.04471833188
0.06925571969
0.02588256596
0.02567405452
0.02331270387
0.02458734839
0.05979099952
0.04030784484
0.0399776638
0.02617005975
0.02756147369
0.05270166675
0.06697438591
0.04360803947
0.04382605548
0.04279735133
0.04273514976
0.06548997024
0.02408599366
0.02414457768
0.01077287076
0.01122575082
0.0102930946
0.01520556296
0.01290427871
0.01967899519
0.01176695903
0.01158098002
0.01190437833
0.0118508605
0.01928787155
0.02667157743
0.01370357969
0.01619029274
0.01186311477
0.01139229558
0.02309225771
0.03348003093
0.05136343265
0.05103966764
0.05284532755
0.05246723349
0.03404097649
0.01972315418
0.01949250545
0.0202968203
0.0200217614
0.0200599719
0.01571700665
0.02222385479
0.04145200754
0.03677496794
0.04879671745
0.04696617687
0.03155745251
0.02436021842
0.01711066224
0.02189900834
0.02321677815
0.03726011056
0.02130991518
0.0215923558
0.02068793441
0.02137629571
0.03732142422
0.02104231424
0.02080799652
0.02189887616
0.02164260241
0.009836790203
0.01443950564
0.01362125123
0.01966363176
0.01628914078
0.00967672642
0.009557844394
0.009899578719
0.01250526637
0.01105205021
0.007310152874
0.01004698212
0.0115000629
0.01118804564
0.01457164665
0.01270611515
0.009790881404
0.01805609007
0.01802339996
0.01827728326
0.01822571158
0.02773617496
0.0276364289
0.04230400582
0.01730908997
0.01827275717
0.017804609
0.01787324568
0.0188309401
0.03174392811
0.03140376227
0.03215500636
0.03188308585
0.01890947385
0.018291521
0.03072623404
0.02899764827
0.03127200599
0.03073123185
0.01828039432
0.009952007449
0.03921825867
0.0386025708
0.02568196748
0.01118292469
0.009795226469
0.01002597136
0.007214265187
0.01006916573
0.01076723513
0.01676692553
0.01071401054
0.01169140241
0.0112390581
0.02819393673
0.01745723998
0.01765022067
0.01012258284
0.01026505206
0.01026745838
0.0105622397
0.01073230201
0.00734791217
0.007304986825
0.01140079359
0.01020451091
0.0106505548
0.01419686297
0.01743107606
0.02632661697
1.154873097
1.155169661
1.155518366
1.155299176
1.155820006
1.155844996
1.156029997
1.156802173
1.156352013
1.157075054
1.158000072
1.156981681
1.131456428
1.045203402
1.157521381
1.033201961
1.021077896
1.157746052
1.025023243
1.075654488
1.15746359
1.09729827
1.157920676
1.156941828
1.157617463
1.156777274
1.15635671
1.156527961
1.155865812
1.155880861
1.154433299
1.155065815
1.155097081
1.155351104
1.156462653
1.155890378
1.156932284
1.03321407
1.15707654
0.9726075854
0.8327999253
1.08510345
0.8004527122
0.7379800619
0.9710645403
0.7281499348