/*--------------------------------*- C++ -*----------------------------------*\
| =========                 |                                                 |
| \\      /  F ield         | OpenFOAM: The Open Source CFD Toolbox           |
|  \\    /   O peration     | Version:  v1912                                 |
|   \\  /    A nd           | Website:  www.openfoam.com                      |
|    \\/     M anipulation  |                                                 |
\*---------------------------------------------------------------------------*/
FoamFile
{
    version     2.0;
    format      ascii;
    class       volScalarField;
    location    "0.86";
    object      p;
}
// * * * * * * * * * * * * * * * * * * * * * * * * * * * * * * * * * * * * * //

dimensions      [0 2 -2 0 0 0 0];


internalField   nonuniform List<scalar> 
12556
(
706.0646104
705.0994558
702.7843761
698.0907632
691.5498536
677.7663388
655.3932851
619.895574
566.8312449
490.7416745
387.5458784
256.9911791
105.1472314
-55.4568682
-209.4682186
-344.7279434
-455.1122915
-540.1478672
-602.6220013
-646.2773452
-682.6565525
-699.1525142
-708.6398848
-713.0056758
706.6686451
706.0137432
704.3231459
700.7535179
694.2471508
682.4461552
662.6096976
633.8901506
586.2420769
515.7792285
416.8188056
287.0055963
131.165394
-37.19999405
-200.2006579
-342.3091024
-456.6500882
-543.4549626
-612.7336034
-653.5780294
-689.2395677
-703.6521338
-711.9733761
-715.7991862
708.0939927
708.1236606
707.8838795
706.7659241
702.0784748
694.8070761
681.0660462
656.39505
616.64971
553.2298309
456.4920085
318.8410812
144.2984608
-46.85841208
-227.3878616
-378.2448774
-492.6125867
-574.1523865
-640.5264867
-674.2976812
-704.3756623
-714.3804154
-720.1094389
-722.6626009
709.7941028
710.7915516
712.6139241
714.7658672
713.6670301
712.707544
708.2985181
692.7924058
667.5814072
619.0774981
530.4104964
382.2685938
169.9200555
-71.44275417
-286.8938713
-448.6419914
-559.4784368
-630.5419359
-683.7171146
-705.5975403
-726.1557922
-730.1069199
-731.9531588
-732.6256825
710.7631546
712.8658553
717.0800836
723.0788836
726.3167117
733.5922466
740.9196026
740.2542133
737.1149145
716.9241757
655.329307
503.3689357
217.7378016
-129.9997332
-404.1675531
-573.9154399
-664.9802151
-710.021766
-740.4772782
-745.6245568
-751.4269767
-747.9907094
-745.1154392
-743.5367172
709.9107684
713.115789
719.7079496
729.8143773
737.7009696
754.0329876
774.6598999
791.5166526
819.4853831
848.0831882
854.0525093
748.5362781
317.8234861
-287.7969343
-638.7535429
-772.8330111
-810.2916306
-812.0439437
-806.7190169
-789.6490574
-777.1036005
-765.3217647
-757.1597501
-753.1694104
706.1904492
710.3660825
718.9858843
732.652712
745.8719769
770.0878121
803.0753051
837.6914073
897.7045358
985.8758863
1118.28401
1279.72438
644.9090726
-807.2674447
-1072.814395
-1055.022963
-990.0763032
-925.1875085
-874.3152794
-831.8630625
-799.720173
-778.9146512
-765.6310665
-759.3590334
698.6960633
703.5827135
713.6685725
729.8711338
747.6817194
777.8476154
819.5669595
868.305651
951.0618888
1078.73336
1297.002049
1752.394795
-2314.267394
-1723.785192
-1380.557844
-1169.981234
-1030.40193
-930.4079552
-864.9472113
-813.3221202
-785.3584255
-768.0783628
-759.9091796
686.7364094
691.9884169
702.8083391
720.2602631
741.5629888
774.7170691
820.4011171
876.4270932
965.6456378
1092.460327
1266.009759
1451.833601
-3746.432049
-2234.26893
-1622.297219
-1296.658155
-1100.199021
-962.0204515
-880.4937601
-814.2510759
-781.9116598
-762.2876986
-752.9560838
669.9273256
675.164163
685.9171839
703.2236882
726.6000969
759.7077748
804.6679891
861.3666474
944.8506171
1052.523237
1175.130898
1277.095654
-3591.565053
-2276.928586
-1666.302167
-1322.951713
-1112.724269
-959.5969389
-873.4964362
-800.1752
-767.0106211
-746.966418
-737.3961366
648.2367247
653.1027762
663.0327239
678.8516172
702.9886354
733.3842127
773.9336172
826.5422053
898.8806968
987.7546731
1085.765841
1176.294741
-2751.665692
-1953.42201
-1518.538136
-1244.121789
-1063.746074
-921.5163714
-843.0356643
-770.7553022
-740.4036797
-721.904624
-713.0104587
621.9581688
626.15146
634.688685
647.6782867
672.0055249
697.2306157
730.7356519
776.1353862
834.7448685
906.8374823
993.3963488
1098.87026
-1831.167511
-1478.678074
-1258.011104
-1090.793437
-966.3328863
-853.9995963
-792.3326612
-727.8049514
-703.3351056
-687.9473596
-680.4742803
591.6857738
595.0002793
601.8394138
611.657304
633.6446693
653.062292
677.6531994
714.0257104
756.1699296
808.3056842
877.934629
991.7904482
-792.3081488
-958.8481431
-1006.093214
-968.4720035
-905.87188
-842.6386096
-768.1954666
-727.185916
-675.4602307
-658.2570082
-646.7960271
-641.2075223
558.1739147
560.5143646
565.5002527
572.3405181
590.7241403
603.9922055
619.1097505
644.6591968
667.9472501
693.2292593
722.3165046
799.0636952
221.1801092
-410.3962118
-634.9605452
-711.8531923
-725.696912
-712.8856153
-676.0279414
-654.6350643
-618.3057731
-607.9598827
-600.6125131
-597.0801162
522.2915047
523.5702986
526.3885501
529.9960985
544.85584
551.1420777
557.1898209
570.6464275
574.4000537
569.7992067
545.5893302
467.0757712
179.5616346
-181.7223949
-401.381517
-517.3631127
-572.6370655
-593.8062742
-585.5962973
-581.3847232
-559.0922186
-554.9839376
-551.62778
-550.0718592
484.9361774
485.2088012
485.8898311
486.4102591
497.7381556
497.8847928
495.8599623
498.5663274
486.5640172
460.3259134
406.7018056
303.0002521
127.0443133
-94.42311853
-268.0307162
-383.2003756
-452.8841488
-492.0020543
-503.0056476
-511.3579651
-500.6168075
-501.7649852
-501.8652251
-502.0195463
447.006213
446.4175462
445.2502907
443.1190761
451.0928535
446.125344
437.6092225
431.8828751
409.1756152
370.9579182
309.5542919
216.3194038
92.49811653
-57.73325827
-189.2306718
-290.2023427
-361.2974775
-407.6139692
-430.2821674
-446.8852958
-445.0711174
-450.1725082
-453.0843379
-454.4790372
409.3210641
408.0375774
405.3779338
401.1373621
406.1325147
397.2855685
384.0547703
372.51043
344.0030378
301.8249028
242.5616608
164.0828104
69.821228
-40.31174382
-142.0944911
-227.0559801
-292.3714386
-339.5571321
-367.9382815
-389.1339748
-393.6829747
-401.492031
-406.3645756
-408.6341125
372.5432964
370.729831
366.9299341
361.1266061
363.7282438
352.2109034
335.9952084
320.9570638
290.047761
248.1308186
194.1989733
128.8045855
53.36133212
-31.75627317
-112.536531
-183.0677508
-240.5589962
-285.2016736
-315.3428936
-338.3940267
-346.9143971
-356.3505795
-362.444568
-365.3236019
337.1781416
334.9960491
330.4000694
323.5479409
324.3517081
311.2275894
293.3611456
276.7713475
245.7364165
206.0143052
157.8685244
102.3762557
40.63933547
-27.26403887
-92.36281874
-150.9375999
-200.7606637
-241.3677607
-271.09517
-294.1885396
-304.8720119
-315.0767383
-321.812068
-325.0038483
303.5867771
301.1849038
296.109904
288.6549536
288.2119162
274.3311449
255.8598742
239.0068984
209.2059478
172.6482168
130.1125665
82.51643182
31.38829456
-24.09201489
-77.51635716
-126.5361803
-169.45821
-205.6367406
-233.6844129
-255.783726
-267.3777729
-277.7046092
-284.6303232
-287.9215837
272.0006298
269.5039413
264.2207557
256.5338482
255.2799009
241.2983428
223.0420053
206.672411
178.8420801
145.768078
108.4008581
67.50102804
24.47368257
-21.57301097
-66.03619227
-107.3544876
-144.2723237
-176.1634841
-201.8496396
-222.4142689
-234.0651256
-244.0734171
-250.869762
-254.1067063
242.5344436
240.0407639
234.7636814
227.1410036
225.4028928
211.8049945
194.3278747
178.8642095
153.3595192
123.7704491
91.03890915
55.77629353
19.23655837
-19.41779375
-56.80000161
-91.82946677
-123.5802794
-151.5049532
-174.6044383
-193.3511652
-204.505398
-213.919978
-220.3780199
-223.4584823
215.2073634
212.7901322
207.6776304
200.3379319
198.3763867
185.485749
169.1901117
154.8185685
131.7605814
105.5034619
76.88628459
46.40787388
15.21281244
-17.48453048
-49.13105478
-78.95246149
-106.2614719
-130.5994954
-151.1082176
-167.9472834
-178.272871
-186.9364138
-192.9283128
-195.7890325
189.9680936
187.680521
182.8445357
175.9388171
173.9515879
161.973483
147.029762
133.9165268
113.2803869
90.13112129
65.16365445
38.79465214
12.0846333
-15.7022813
-42.60539628
-68.05429451
-91.53243455
-112.6634831
-130.6918627
-145.645228
-154.9625686
-162.7991589
-168.2549528
-170.8608048
166.7162793
164.5950544
160.1112703
153.7377283
151.8704909
140.9244964
127.410549
115.6265286
97.3206724
77.03277857
55.3149648
32.51754668
9.630024307
-14.03355331
-36.94439735
-58.67413201
-78.83018934
-97.10647449
-112.817091
-125.969215
-134.1987816
-141.1871554
-146.0778714
-148.4137899
145.3158744
143.3845149
139.3009515
133.5185071
131.8791918
122.0219247
109.9549589
99.51149681
83.412041
65.7430191
46.93328339
27.27733955
7.687868894
-12.45784715
-31.95749075
-50.48588015
-67.74234081
-83.47876249
-97.05267508
-108.5181576
-115.6388282
-121.7921682
-126.1160751
-128.1804718
125.6064208
123.8783924
120.2222594
115.0614796
113.7280427
104.9750359
94.33400837
85.20709826
71.17854703
55.90427178
39.71253407
22.84710021
6.138994558
-10.96238212
-27.50766573
-43.24924676
-57.95610267
-71.42776926
-83.04377641
-92.94742843
-98.97348614
-104.3247351
-108.0967044
-109.8962359
107.413778
105.8953831
102.6789707
98.15050518
97.18137458
89.52234168
80.2680041
72.40751756
60.31722101
47.23798028
33.41803475
19.05320421
4.893376182
-9.538473584
-23.49322765
-36.78263511
-49.22944558
-60.67322887
-70.4978635
-78.96278908
-83.92557379
-88.51767612
-91.76159539
-93.30739825
90.55735557
89.24992691
86.4753139
82.57649152
82.01595378
75.42491116
67.53594613
60.85321213
50.57925839
39.52081135
27.86552409
15.76150247
3.881757235
-8.179274125
-19.83517631
-30.94320329
-41.36774569
-50.98304967
-59.16970646
-66.30917874
-70.24643453
-74.12554518
-76.86929709
-78.17459699
74.84999432
73.75244079
71.41581872
68.13308385
68.02845461
62.46368347
55.89510553
50.33383645
41.75949948
32.57013795
22.90555768
12.86901192
3.051449971
-6.878530621
-16.47027864
-25.61610585
-34.2121669
-42.1518766
-48.85155713
-54.76352495
-57.7073827
-60.92051941
-63.19224657
-64.27005312
60.12350044
59.23147871
57.32575859
54.64275411
55.01475286
50.43784837
45.12295503
40.67099862
33.68420748
26.23303223
18.4147171
10.29162055
2.361400394
-5.630349013
-13.34622407
-20.70698884
-27.63534741
-34.04097712
-39.33982998
-44.1240119
-46.11740986
-48.70566124
-50.53207131
-51.39604234
46.13958854
45.45512414
43.97772517
41.87109082
42.82075292
39.16269873
34.97598362
31.69237427
26.19694392
20.3762467
14.28819378
7.957013768
1.776818698
-4.428920571
-10.41709499
-16.13325819
-21.52565348
-26.54236613
-30.46256824
-34.20843911
-35.23936001
-37.25031404
-38.65075364
-39.30641417
32.93525967
32.43895285
31.37699901
29.87216356
31.10144778
28.46798939
25.39013462
23.22669806
19.15673473
14.8822185
10.43327612
5.802494294
1.266934048
-3.268000757
-7.641286783
-11.81968871
-15.77396063
-19.47190221
-22.1098594
-24.8337342
-25.1091105
-26.53555001
-27.53212927
-28.00341552
19.56983844
19.32353003
18.69079609
17.78146447
19.91016037
18.20073255
16.18482218
15.1355872
12.43983214
9.645303576
6.764064129
3.76701446
0.8036912871
-2.14082965
-4.979698979
-7.696659913
-10.28218421
-12.72523162
-14.13312554
-15.92573134
-14.9526071
-15.81291449
-16.40262947
-16.63284281
9.200306489
8.987152537
8.668116585
8.169104859
8.941227549
8.1129361
7.131166783
7.290835243
5.93894729
4.570547296
3.193925677
1.778622357
0.3644032575
-1.038000179
-2.392486503
-3.699817272
-4.960477156
-6.186935393
-6.334975396
-7.167334505
-7.090355823
-7.5370628
-7.828900157
-8.034544266
1488.05283
-3985.569308
-2429.840578
1292.527815
-3905.298435
-4063.344454
1186.672541
-2990.63068
-3817.535265
1109.295077
-1992.756654
-2863.437192
1000.83613
-849.7069276
-884.6402814
-1073.588092
-1872.114185
826.6312014
308.3972894
-803.4832354
173.1338127
-424.2703704
-969.6661215
1740.482524
827.6389335
-2102.904307
-626.9489574
-5072.800491
-2925.946586
-3668.224065
-2369.638951
-1846.298431
1198.154329
1282.730046
1433.431815
-5509.686609
-5681.41709
-3664.566408
-2545.88204
-2473.756599
1107.830233
1175.739602
1267.105006
1234.464714
1264.293489
1319.233621
-4147.041202
-4883.612876
-2866.852451
-2221.75768
-2500.090487
1017.762006
1094.343305
1164.974295
1147.511878
1188.315779
1212.141796
-2783.104437
-3364.833922
910.3471724
990.7393861
1083.447643
1057.221439
1123.280421
1158.244624
-1617.874638
-1552.843676
-2079.895351
763.8573353
819.4556664
974.5427648
929.0381125
1015.42543
1067.221104
534.5173733
285.5704759
319.8985638
1803.097795
1485.021926
2395.919157
1876.274364
-5679.471857
-5142.811009
-3537.377771
-4928.218354
-5528.944941
1325.456961
1366.172632
1346.15204
1366.158267
1329.469393
1461.789092
1373.011746
-4926.542623
-5484.153497
-4030.611189
-5359.702434
-4839.409347
-5533.044989
-5383.029485
-4051.386186
1216.70298
1256.811574
1221.410202
1261.53103
1218.910374
1326.139488
1265.627695
-3450.484775
-4093.01373
-3365.432633
-3993.745233
-3380.649062
-4797.20849
-4089.831091
-3486.247138
1160.797185
1187.181583
1138.277052
1190.663495
1165.280049
1216.474947
1191.515235
-2156.552847
-2702.640144
1070.96501
1120.75699
1050.068774
-1578.154802
1126.503578
1076.30139
1162.632735
1129.043966
-1618.012762
-1008.101602
-1478.06466
-1570.51242
1033.632022
1012.91798
917.1724887
-70.52882089
1019.632404
922.1555801
1072.550125
1021.248007
-147.4265795
1285.105442
1464.67161
1657.283114
1666.87676
1855.328227
2264.732939
-5998.350254
-3386.561364
1367.913718
1374.028746
1470.756403
-3322.371286
-1943.739597
-1685.543457
-2098.009873
-2000.887435
-1933.032702
-2208.967967
-200.4918323
-499.954141
-871.166214
1494.368446
1791.263202
1620.38902
1490.203272
3229.235279
2498.357825
-2815.542964
-4769.420524
-3310.360767
-2253.925018
-2551.451573
-2361.681442
-2659.576088
-2129.370333
-3298.437691
-2737.452925
-2486.502393
-1190.321688
-355.6939259
-493.0705877
1350.185691
1865.970943
2394.995191
-2502.326743
-547.8675178
1128.879745
-6130.753026
-4416.909376
-5966.588396
-3275.129125
-5798.198353
-4093.363208
-5603.781673
-5617.817323
-4498.9901
-4548.932045
-2950.42075
-3262.074842
-3028.010614
-3237.82986
-2923.27075
-3624.008129
-3284.60967
-3111.0155
1139.600481
1109.541632
1092.759932
-1592.031977
-1847.96013
-1930.405403
1039.36024
1000.464431
974.9164541
1031.278248
1008.412558
1042.33892
1732.424309
1514.827633
1627.936904
1532.166677
1765.265569
1408.810807
1509.524981
1583.500143
2220.148485
2467.679486
3076.534984
1819.400199
2365.597387
2132.204395
2378.715802
1794.860127
-5544.668365
-5516.160152
1348.022919
1364.043912
1345.825343
1411.113354
1371.12393
1405.150117
1362.723141
1368.963937
1399.293804
-5194.266916
-5228.191023
-5134.069385
-4568.037353
-4683.300826
-4354.126078
-4520.4822
-5100.316943
-5497.246395
-4765.736448
-4726.730318
-4711.417849
-4762.107565
-5483.832172
1238.553143
1235.560769
1299.731391
1295.16458
-3714.628302
-3659.619321
-3762.000163
1179.858982
1177.849611
1201.927227
1200.29083
-2876.854763
-2572.54846
-2465.845611
-2593.713603
-2900.087965
1090.910132
1059.835271
1038.48548
1086.70432
1066.903797
1095.52539
-1238.61465
1099.961853
1094.872931
1145.680373
1143.977063
-1939.895651
-1236.815642
-1253.156106
-1507.116321
965.1630734
933.8689957
957.7780324
974.2544352
457.1859141
147.4730743
1048.811567
-346.040076
101.191411
-263.1629306
1046.537449
-401.3807102
-292.6073454
69.16989917
-3959.822454
-2135.008954
-2278.208158
587.8055476
555.6866446
784.5487912
672.4302105
682.2693585
961.9868602
192.9310917
-134.1565797
-313.6602249
4204.153137
-2311.915614
-2466.01277
-924.818711
-1168.912928
-1190.070661
-152.3281145
-395.7412228
-127.6367559
2186.435517
2616.853112
3239.747871
-2857.03913
-430.9728417
1539.196824
-5558.493962
-6153.009225
-6091.160859
-5666.48055
-4297.005698
-4488.800979
-4305.330179
-5142.060365
-4994.709895
-4747.160595
1197.914633
1179.890823
1168.081166
1197.755065
1184.099105
1199.905699
1129.799105
1114.750804
1141.601281
1024.766083
1006.707274
994.6235801
864.4826766
605.6657723
345.6235766
-5637.726177
-6109.306556
-6176.935795
-5356.298344
-4454.300725
-4127.509702
-4694.899674
-4532.971316
-5378.227815
-5048.615777
-5319.780738
-5191.002161
-5387.001492
1231.588362
1218.54921
1202.663771
1225.354637
1230.513632
1225.421575
-4248.355509
-4087.271992
-3948.595502
-3721.144776
-3480.986354
-3709.618393
-4479.125922
-4085.615312
-4291.24027
-3786.14867
-4012.62812
-4431.214499
1174.156326
1148.053489
1134.605079
1164.247375
1152.307951
1176.143758
1187.439256
1201.75971
1201.301912
1178.451762
1191.577762
1172.276542
1209.772008
1215.08432
1223.089554
1200.716564
1201.016862
1194.45534
-2388.164615
-2530.659485
-2245.351101
-1439.221923
-1433.326524
1117.420879
1076.290985
1154.317448
1162.971788
1176.444442
1155.136325
1135.290921
-1750.06736
851.6193542
923.847248
883.5759591
990.1919697
974.1756236
998.6899863
114.2919276
363.2565458
126.3954582
1008.723322
425.6896601
674.5370984
492.9877526
628.1190531
1057.490933
1032.632762
-5301.857715
-3915.621217
-4946.559621
-3447.300158
-3503.307987
-1958.502581
-2090.748832
-2111.910899
1449.984331
1436.395929
2998.669344
3366.204417
3892.545678
3158.615362
2880.925599
-2626.291285
-2471.914014
-2421.53375
-2481.677971
-2646.211821
-1207.570907
-1038.425035
-1042.759917
-1044.069869
-1212.79942
-830.1879296
-995.7282472
-604.7976077
-620.5961119
-781.2457867
-410.7227532
-567.815934
-508.3071747
-6307.741703
-5532.43662
-5052.413032
-5936.208365
-5656.729881
-4863.058883
-4165.679109
-4971.113029
-5954.808508
-5893.327746
-5568.850867
-5656.803654
-6064.344535
-5981.924829
-4711.077633
-4545.875688
-4348.344154
-4600.772617
-4779.052554
-4361.696943
-4548.067414
-4828.002404
-4698.712442
-4945.729691
-4763.647227
-3085.188666
-3139.646651
-3107.546801
-3021.244247
-3150.059494
-3478.644866
-3373.394308
-3510.281164
-3193.233119
-3328.0659
-3427.952209
-1806.773095
-1776.965703
-1911.791813
1021.752223
1010.89575
1024.67377
1049.57285
1035.843364
1025.867191
1614.362743
1586.478124
1608.588038
1665.376901
1582.945242
1814.975982
1697.887181
1639.989898
1447.499447
1487.965081
1448.951744
1560.157141
1503.616946
1461.963478
2011.174115
2020.260224
1859.911504
2076.918185
1991.194567
-6087.425373
-6092.273742
-5618.416813
-6230.927812
-6258.153862
-6218.765966
-6134.690495
-6016.068031
-6274.276773
-6150.919914
-5389.550558
-5954.150103
-6080.500389
1353.89676
1356.490025
1353.061113
1365.331835
1358.760287
1357.827536
1350.556613
1347.314647
1353.377992
1351.217591
1381.541625
1407.785644
1391.822104
1439.08784
1414.453246
1385.419801
1367.576096
1375.022444
1367.312227
1387.62934
1377.983704
1370.505007
-5471.000557
-5359.837546
-5086.957526
-5345.158707
-5628.540012
-5500.425741
1252.609855
1244.324822
1267.406046
1254.529467
1231.848579
1227.843953
1240.690328
1232.950647
1327.570142
1312.358328
1345.070719
1332.478524
1285.828167
1270.71022
1307.169116
1291.395675
-3736.827656
-3880.509459
-3556.209816
-3692.229335
-3792.46384
-4136.473069
-4300.524615
-3928.713125
-4086.199235
1190.572984
1199.874778
1185.861878
1205.553859
1193.278392
1204.43691
1207.981255
1191.688997
1173.271834
1190.540387
1188.498319
1209.234931
1212.589965
1207.436665
1215.916387
1212.410552
1225.493595
1217.506651
1202.044187
1202.999868
1207.391328
1202.535594
1195.69188
1201.735785
1206.762687
-2658.395089
-2725.976517
-2793.361429
-2645.893656
-2838.900515
-2767.635164
-1224.818992
-1388.015249
-1423.860009
-1223.436773
1114.332162
1081.925659
1155.769828
1159.907364
1151.759335
1137.911059
1158.252494
1155.952377
-1825.110355
990.3446234
967.7499639
952.3664703
630.612847
527.7684356
1002.729023
232.539864
397.5568799
287.2795693
1052.225184
-501.6045138
-58.49640802
173.4226165
-105.9505274
1024.504435
-2044.540882
-1629.824195
-1053.421606
-2267.826496
-2319.3976
-1088.742619
-1131.666312
-1543.080989
-2331.75241
-996.0651933
-991.7306305
-833.0483522
-2054.971021
-1570.407535
-1516.637259
2780.561277
3396.764447
4133.489795
-2852.373075
-232.8908089
2061.748035
-1278.361379
-849.6627119
-2462.354451
-4770.299022
-5393.882882
-5684.21887
1288.698324
1271.365973
1249.987904
1300.263995
1278.659224
1296.877186
-1597.667151
-1731.72643
-1751.591675
-2161.55053
-1911.158255
-1850.781931
1050.486029
1040.018486
1053.988278
-5766.331774
-5917.870607
-5348.15049
1243.179123
1224.324256
1237.266393
1250.935458
1254.332805
1266.354404
1270.040864
1284.048527
1277.798917
1075.330001
1063.388628
1054.3766
-1592.537073
-1548.414795
-1535.430827
1081.438985
1086.616125
1079.125849
-1682.471417
-1696.025228
-1608.118814
-1429.202733
-1414.141817
-1551.200295
1017.672318
1069.048545
1075.784572
1077.996071
1021.130735
-5853.121819
-3357.684821
-1981.639511
-2042.987977
-2051.903352
-2258.928277
-2122.601325
-2082.013861
1470.35601
-3985.312911
-3453.968396
-4108.121515
-2379.704481
-2438.674417
-2300.372243
-837.177493
-853.4242385
-679.9762744
-684.2619671
-779.2338548
-1422.328883
-809.2207578
-2829.838587
-6124.114542
-5834.459117
-5670.397496
-6337.544679
-6291.792154
-2994.661781
-3025.196153
-2979.391484
-3278.60999
-3267.143625
-3238.767156
-2848.353809
-2976.378845
-3057.876949
-3588.306676
-3539.335548
-3585.39164
-1919.295281
-1895.939389
-1929.980968
1682.489269
1725.390905
1538.736663
1555.865381
1576.187675
1551.850962
1414.573382
1432.255153
1423.276532
1529.358389
1509.376295
1490.01586
2280.289559
2087.605775
2090.871762
2271.065236
2249.945707
2390.153409
1774.861635
1825.203252
1851.483886
1350.11484
1350.6673
1357.103469
1363.807586
1362.713563
1363.47128
1359.75856
1360.398437
1358.808184
1357.145792
1375.653692
1382.184922
1378.221016
1416.126993
1408.960083
1399.342485
1361.691124
1364.528926
1363.988475
1375.352273
1374.215904
1369.999608
1242.949475
1251.547057
1247.464514
1227.910316
1232.2035
1239.801866
1309.18711
1323.485291
1311.866321
1323.881664
1318.172507
1359.849714
1355.338851
1275.212069
1312.505347
1306.884845
1282.338696
1289.192301
1304.254277
-3898.992306
-3953.903803
-3629.684779
-3680.348155
-3707.584807
-4007.043119
-4032.731645
-3898.486485
-4036.908412
-3886.627063
1077.650237
1067.202788
1078.70742
1108.318298
1092.233112
1081.867796
1104.122168
1110.745176
1105.344502
1090.291823
1094.055332
1098.492564
-1935.722565
953.7857757
956.2745375
953.8749767
707.1233855
964.4337863
330.6832944
467.6976433
597.9498827
1054.909681
1053.807961
1049.551731
-409.1482028
-256.3265142
-230.4264675
-244.1600568
1042.308448
1049.147245
1053.478012
-137.7238751
-209.6197169
-357.7255076
-2172.912523
-2213.212269
-2303.42943
-2258.182153
-2235.897201
4108.607734
4613.931494
3854.197529
-2362.663694
-2389.012677
-2319.775157
-2484.926115
-2435.074596
-2420.31766
-1543.141773
-681.35736
-2824.40899
-5810.747388
-5801.796919
-5760.213056
-5790.026723
-6131.532471
-5987.37713
-6002.414282
-5955.52028
-5972.523881
-6113.262657
-5096.500263
-5017.52134
-5063.900038
-4917.760977
-4970.072855
-5048.025351
-6158.075566
-5990.670106
-5961.797941
-6013.781787
-6010.970731
-6183.652282
-5275.502477
-5193.533016
-5234.840487
-5109.373672
-5151.832924
-5234.848838
-5712.801825
-5736.709227
-5631.402271
-5676.055727
1202.183444
1197.248048
1196.366503
1180.940683
1177.345704
1174.450431
1183.552659
1181.033766
1185.790709
-1553.673125
-1602.785621
-1432.281431
-1504.37253
1129.603379
1129.592391
1134.221834
1130.410192
1078.546041
1078.052486
1085.917052
1074.383418
1167.420517
1164.646337
1160.965629
1171.891939
1168.615335
1172.603033
1141.404872
1140.359079
1147.8307
1133.276929
1139.97248
-1758.881903
-1749.163318
-1735.486156
-1610.672247
943.660131
996.2640758
1146.092041
1004.841809
995.4920131
989.1111279
1014.42481
364.3029605
344.4371627
1121.92001
990.682063
738.4976652
1059.146428
1069.366947
1064.080729
1026.814798
-5520.722028
-5828.90276
-5617.39454
-4720.097192
-4485.884949
-3707.54249
-5285.635785
-4937.67992
-3398.240023
-3535.189372
-2103.851448
-2090.293006
-2103.927042
1458.963906
1416.98365
3579.667342
3424.215957
3265.736219
2658.464038
2517.626943
3072.678587
2842.708823
2934.990016
-2548.775438
-2494.21589
-2594.78423
-1062.051509
-1058.885876
-1047.062884
-1156.742534
-869.3822319
-853.9060046
-836.7527436
-988.8256652
-933.9944279
-929.3433962
-607.6650382
-662.6349923
-663.5294516
-485.4323986
-488.169674
-536.8640534
-6101.619862
-5979.878347
-6225.283795
-5848.973362
-6100.059801
-6176.971336
-6259.512306
-6211.042297
-5926.707312
-5826.67706
-5845.524596
-5805.301581
-5812.708416
-5902.96019
-6033.21737
-5911.451263
-5935.290133
-5866.717386
-5888.189219
-6006.592245
-4659.475648
-4585.906428
-4637.438285
-4658.749989
-4722.488694
-4418.739175
-4444.787441
-4404.813279
-4493.005479
-4881.857975
-4925.207015
-4886.861604
-4802.101048
-4861.162203
-4689.995342
-4745.504714
-4823.094134
-3121.402773
-3048.948054
-3033.164019
-3062.414072
-2995.879312
-3045.793701
-3194.418412
-3223.113622
-3169.661075
-3441.263722
-3486.251473
-3517.315689
1645.416363
1561.382343
1461.208378
1444.69611
1427.089317
1474.973713
1492.199694
1476.686663
2046.552232
2136.418818
2171.498294
2392.254784
2271.660205
1915.613122
1887.691029
1964.78828
-6092.482427
-5909.747055
-5898.110933
-5935.70336
-5921.031631
-6095.27219
-6255.316508
-6256.886763
-6114.523028
-6319.337681
-6315.701665
-6270.972856
-6309.673903
-6079.137751
-6258.483878
-6322.948192
-6349.608234
-6196.70871
1355.136767
1353.931196
1352.383937
1361.284028
1360.634183
1357.990308
1357.617111
1358.646848
1356.251717
1356.717027
1389.932472
1386.003793
1379.030244
1391.793762
1401.531249
1394.958024
1369.509281
1366.562138
1363.593772
1371.147358
1373.50752
1372.022313
-5438.460682
-5349.990131
-5383.097472
-5273.787245
-5312.478287
-5398.38458
-5580.301829
-5502.243494
-5575.927863
-5414.447712
-5450.680763
-5535.85571
1250.476843
1251.89938
1253.055538
1245.624207
1249.441237
1247.697241
1262.232576
1260.376653
1267.941775
1253.393272
1255.116292
1257.486494
1230.87841
1232.752378
1232.840516
1230.629077
1232.099956
1229.602123
1237.390841
1237.269426
1241.169651
1233.017925
1234.404055
1234.739531
1335.412814
1329.719916
1322.615527
1326.381036
1331.633171
1315.504217
1320.956864
1317.526252
1347.911278
1341.090437
1290.48182
1285.674026
1280.421867
1283.140056
1288.158618
1272.210354
1270.914
1273.607049
1301.956312
1304.649066
1310.072002
1293.873461
1299.257878
1296.711261
1301.444287
1296.069221
-3821.492793
-3854.767488
-3763.041698
-3731.689058
-3769.271774
-4185.70523
-4219.289055
-4174.075206
-4340.58567
-4274.180733
-4239.769875
-3975.385695
-4012.952053
-3973.572327
-4127.715408
-4079.710711
-4031.587629
1193.076698
1189.488212
1187.011104
1194.695903
1192.230079
1196.538527
1200.536409
1195.943849
1206.10068
1207.453836
1191.634182
1183.722945
1179.337733
1179.562806
1182.018244
1184.62582
1182.959737
1188.14879
1206.104253
1209.614255
1218.641661
1213.061218
1222.757104
1224.84581
1227.993824
1220.092311
1222.280364
1220.187047
1201.783013
1202.06008
1204.137511
1203.033494
-2745.755058
-2726.09847
-2778.432491
-2631.873544
-2677.86067
-2711.031001
-2903.058239
-2943.521073
-2820.676471
-2837.703779
-2848.863407
-1362.744465
-1360.013255
-1414.690744
-1233.571564
-1292.94909
-1303.792852
1115.804406
1107.271318
1128.578931
1123.986904
1087.040147
1089.691531
1085.727641
1092.522557
1089.946656
1100.901105
1096.506913
1156.506198
1154.379048
1153.208855
1158.116569
1155.990704
1157.868683
1158.323884
1151.912442
1150.215603
1152.527983
1152.242859
1157.086806
-1880.184034
980.888187
972.1560705
981.4242418
582.9755461
605.9533751
675.6749657
538.5699163
548.9618706
527.0301663
996.3576883
331.0193766
276.7032927
207.1078084
1050.0439
1051.882079
1052.39235
-476.9041286
35.09570186
-26.78374399
153.9120505
137.6413599
152.2914518
-48.88968539
-181.7553314
-164.0721769
-62.06306472
1035.195461
1045.752951
1038.836976
649.2680371
619.5888786
600.5957045
606.9540098
560.4247324
536.4633963
541.087196
471.5545169
444.8795123
443.4706427
346.02511
322.1821234
308.3714554
184.6454188
171.1011813
139.8580981
2.669395969
3.61762432
-43.61037709
-176.2672716
-161.6778525
-218.3721251
-332.1649116
-309.3032223
-366.3972306
-455.0571692
-430.3970229
-480.8358283
-545.5781563
-523.5316047
682.532239
662.1419653
628.5428496
652.9986035
616.0740995
571.9146837
599.7997252
535.5037204
484.4342318
507.9725661
404.3753135
357.3396564
362.4117361
216.2107153
190.6717119
162.0361808
-7.081652054
1.092928783
-63.14178912
-220.4714856
-184.3566472
-267.8702283
-391.6997882
-343.7538768
-426.8671068
-515.1563522
-467.1967301
-539.3335281
-598.468498
-556.3479035
727.6857818
721.7071499
675.5606597
718.11971
699.2695353
634.2096284
689.2463528
641.7712828
557.4389672
618.1018847
513.489209
425.7091214
465.1622102
277.21698
227.8588617
202.6076292
-33.86572336
-11.56116901
-110.2062355
-311.4650896
-237.6221388
-367.1870737
-500.7063172
-413.4150825
-535.6239532
-615.624509
-535.7127677
-635.1149272
-677.6540766
-615.9998464
778.8272058
793.6746411
739.0031071
798.561803
810.6775047
724.5353987
812.5029558
806.2418034
676.8620534
796.4325231
719.42844
553.1925482
668.9092655
407.0461211
300.5277667
284.7018458
-111.7708697
-45.84998176
-230.980174
-500.9831622
-346.2412427
-564.2201949
-690.8322713
-539.47992
-715.8339615
-761.7474345
-647.8438328
-770.2137016
-783.285713
-701.6229075
827.2195474
864.8061967
812.0711536
879.6360628
932.5506014
841.5534889
953.3679635
1025.412908
857.7734379
1051.370619
1111.702043
796.0700783
1109.282597
739.6684409
461.9536066
590.9253286
-415.8961527
-152.5566819
-609.7737773
-904.8327224
-575.5654997
-941.9907339
-978.6756001
-752.4493129
-976.6299965
-954.1410373
-805.7942637
-943.4346847
-908.6756896
-813.3727858
862.6252838
918.4174932
880.5186748
941.177561
1026.68409
960.4385143
1062.740838
1207.113588
1080.126019
1273.458985
1645.763152
1247.337036
1499.499936
1629.990783
1208.592486
889.2584946
-310.1522209
11.36549715
-1145.951735
-1183.966025
-939.7173606
-1553.205595
-1355.503864
-1067.432289
-1301.001952
-1165.080562
-1007.18747
-1127.529313
-1032.970973
-940.7839765
876.6422396
940.2138338
927.0976407
965.7036238
1058.348527
1040.946029
1095.63719
1231.432347