/*--------------------------------*- C++ -*----------------------------------*\
| =========                 |                                                 |
| \\      /  F ield         | OpenFOAM: The Open Source CFD Toolbox           |
|  \\    /   O peration     | Version:  v1912                                 |
|   \\  /    A nd           | Website:  www.openfoam.com                      |
|    \\/     M anipulation  |                                                 |
\*---------------------------------------------------------------------------*/
FoamFile
{
    version     2.0;
    format      ascii;
    class       surfaceVectorField;
    location    "0.86";
    object      Uf;
}
// * * * * * * * * * * * * * * * * * * * * * * * * * * * * * * * * * * * * * //

dimensions      [0 1 -1 0 0 0 0];


internalField   nonuniform List<vector> 
25162
(
(99.99885543 0.004752681167 -1.832372531e-21)
(99.99554904 0.004256516553 5.431431332e-21)
(99.99822664 0.01156352805 -1.808641013e-21)
(99.99362448 0.01458384255 1.835386496e-21)
(99.99700321 0.02300482778 -3.606615822e-21)
(99.98929221 0.03129109959 1.089135728e-20)
(99.99858959 0.02643952241 1.114042821e-21)
(99.98162935 0.05841360504 -7.161781032e-21)
(99.99197108 0.0588393427 -1.198615622e-21)
(99.99766836 0.04822028156 1.73462398e-21)
(99.99924636 0.02892820327 8.580034978e-22)
(99.99061814 0.08102897292 1.723748165e-21)
(99.9978448 0.04613392768 8.421874197e-22)
(99.99840704 0.03610017087 -8.699665195e-22)
(99.99732366 0.05873010732 8.421530223e-22)
(99.9854082 0.132119609 1.675918459e-21)
(99.99706374 0.07433416888 0)
(99.99688955 0.09155731147 -3.064265139e-21)
(99.98081583 0.2023384991 -3.064249191e-21)
(99.99644587 0.1120773925 -7.950097452e-22)
(99.99594325 0.1357910256 2.670142706e-21)
(99.97490694 0.2970846041 2.908615818e-21)
(99.99547154 0.1626560597 3.583309652e-22)
(99.99508767 0.1922983542 -2.354333476e-21)
(99.9703327 0.4153551487 3.381725159e-22)
(99.99484226 0.2240455025 -2.389022558e-21)
(99.9948073 0.2568348736 2.84104002e-22)
(99.96990661 0.5456801706 -1.578265903e-21)
(99.99505936 0.2890345902 2.130327212e-21)
(99.99564013 0.3187675269 1.79922913e-21)
(99.97653687 0.6638469907 -7.873659699e-22)
(99.99655058 0.3439280973 0)
(99.99775622 0.3624769126 0)
(99.99033348 0.7377949489 1.554566005e-22)
(99.99921218 0.372842008 0)
(100.0007504 0.3741926448 4.784786049e-22)
(100.0073616 0.7431385813 -8.214178574e-24)
(100.0021288 0.3663412307 9.717972719e-22)
(100.0032584 0.3506739279 -2.58405978e-22)
(100.0206528 0.6810467162 -6.039857825e-22)
(100.0041124 0.3285744971 -1.089009482e-21)
(100.0046624 0.3019765474 8.173856885e-23)
(100.0273621 0.5754633903 1.700160892e-21)
(100.0049219 0.2727249415 4.369088304e-22)
(100.0049208 0.2425007677 0)
(100.0278011 0.45526918 0)
(100.0047315 0.2127753043 0)
(100.0045425 0.1844858755 7.211198397e-22)
(100.0241976 0.3430148412 1.49328459e-21)
(100.0046402 0.1586183626 -3.652274622e-21)
(100.0045134 0.1336006904 -1.362472933e-21)
(100.020398 0.2444705948 2.963668918e-21)
(100.0039022 0.1118003312 2.963447765e-21)
(100.0029188 0.09336853137 -8.33727569e-22)
(100.0122943 0.1691623863 -4.589571555e-23)
(100.0008038 0.08023513045 1.624715069e-21)
(100.007859 0.07867021966 -7.262218305e-21)
(100.0445633 0.1928369052 4.096092552e-22)
(100.015878 0.1726833157 -2.589476029e-21)
(100.0026509 0.07977847005 -1.514280064e-21)
(100.0055836 0.04583287898 -9.135470549e-22)
(100.03071 0.1194400365 1.448025313e-20)
(100.0046679 0.02162223226 -7.339721252e-21)
(100.0227481 0.0639884122 -1.543997099e-20)
(100.0203767 0.02024243846 1.331928662e-21)
(99.98941491 0.0131231236 9.067369519e-21)
(99.98321534 0.006804516928 2.260802433e-22)
(99.98326053 0.03224469952 1.447621791e-20)
(99.9757012 0.02387241122 -1.268414948e-20)
(99.97173833 0.06412631518 7.51426665e-21)
(99.95945635 0.0526400125 -1.96683299e-20)
(99.96566671 0.103730616 -1.282561218e-21)
(99.93190044 0.1003744374 3.783145209e-20)
(99.94174034 0.130896476 -8.327349094e-21)
(99.94883081 0.1334922862 -1.785846184e-21)
(99.96091712 0.1328558569 3.512740116e-21)
(99.97608617 0.09418800283 1.747336813e-21)
(99.96208347 0.1581775556 1.704676366e-21)
(99.9497161 0.1726084834 1.735104801e-21)
(99.91552409 0.2279813854 -3.508447609e-21)
(99.93705866 0.2223809103 -1.987245356e-23)
(99.94125993 0.2570818057 1.676181474e-21)
(99.92207817 0.2838141338 -1.627188944e-23)
(99.87221264 0.3709279156 0)
(99.9140863 0.3333785007 0)
(99.89091031 0.381903956 -2.082633052e-21)
(99.91903377 0.3860867969 -4.092994878e-21)
(99.90862768 0.4065483674 -5.050884157e-23)
(99.88270705 0.4700443111 -9.205398306e-21)
(99.90106351 0.4453362795 -3.164686758e-21)
(99.87623177 0.6045617993 2.799351368e-23)
(99.8928996 0.5710437908 -2.073950698e-21)
(99.8429055 0.6992593667 -1.135587088e-20)
(99.8696221 0.6579514623 -2.767811601e-21)
(99.84884783 0.8606694937 -5.157217831e-21)
(99.87224027 0.8058606851 -4.861886583e-21)
(99.81048238 0.9926934202 5.009242782e-22)
(99.84531062 0.9266129344 -6.184412106e-21)
(99.83934166 1.15552059 -4.510360984e-23)
(99.86975378 1.070491715 -4.013814952e-21)
(99.80208898 1.327504896 -2.073624887e-21)
(99.84290256 1.227757746 -3.009107029e-21)
(99.86407218 1.440714869 -3.458550671e-21)
(99.89821324 1.317597272 -5.030791912e-21)
(99.83738309 1.645268759 -2.676480745e-21)
(99.87762293 1.505582655 -1.566695949e-21)
(99.92898862 1.642421043 -1.032217678e-21)
(99.95915775 1.480322304 -2.474839297e-21)
(99.92150248 1.858096767 5.474559773e-21)
(99.95038697 1.682532051 -8.300409093e-22)
(100.0159202 1.694802631 1.715963404e-22)
(100.0289815 1.502904904 -2.168782861e-22)
(100.0283098 1.893024105 2.009379726e-22)
(100.0369348 1.695294175 -7.011485787e-22)
(100.093421 1.589419949 -2.433925819e-22)
(100.0766866 1.385091505 -2.133881089e-22)
(100.116592 1.748238939 -7.561789775e-23)
(100.1073858 1.546522251 1.965753988e-21)
(100.1382764 1.365772585 2.238461914e-21)
(100.1011977 1.173443291 3.89188574e-21)
(100.1639271 1.480701517 3.890492293e-21)
(100.1426704 1.298525422 5.044735316e-22)
(100.1480547 1.093517322 -6.269736832e-21)
(100.1028527 0.929279464 -5.844303568e-21)
(100.1707557 1.171075126 -2.11287659e-21)
(100.145065 1.020778608 -2.07950906e-21)
(100.1322406 0.83188181 -4.969254534e-21)
(100.0866165 0.7015329419 4.560307216e-22)
(100.146857 0.8801563724 -1.330502581e-21)
(100.125225 0.76738967 5.42194521e-21)
(100.082188 0.4843584471 -1.258451132e-20)
(100.1309945 0.659484928 -1.258353353e-20)
(100.1840889 0.7143955974 1.272346977e-20)
(100.1136057 0.5504294999 -2.580273801e-20)
(100.0964226 0.4565544386 1.092701547e-20)
(100.1341632 0.4874899221 -1.578707478e-20)
(100.0790029 0.3762899574 2.258044031e-20)
(100.059074 0.3323195658 2.508669789e-20)
(100.0743696 0.2293365703 2.152096579e-20)
(100.1685335 0.3605907734 -1.916106188e-22)
(100.1286914 0.4039588752 4.510685239e-20)
(100.0758258 0.3186485783 2.452886536e-21)
(100.0539301 0.1342914645 -7.111961216e-22)
(100.1198955 0.2222797986 3.089393108e-20)
(100.0435541 0.06188799305 -7.188730694e-21)
(100.0910088 0.1191878201 -1.638120145e-20)
(100.0787525 0.0376231488 7.337303227e-21)
(99.97176835 0.01651305723 -2.17693121e-20)
(99.96762682 0.006120056673 -1.087998286e-20)
(99.95485783 0.04206629108 -4.712976922e-20)
(99.95163921 0.02307178844 1.019481745e-20)
(99.92398704 0.0864693052 9.84478857e-21)
(99.91778613 0.05573253514 -3.989565465e-20)
(99.89116428 0.1535948281 2.408911988e-20)
(99.86236219 0.1125934592 4.337034567e-20)
(99.85432899 0.1681198888 -3.832767466e-20)
(99.90696364 0.1656114029 -7.136009911e-21)
(99.85634494 0.1866924752 -5.300449742e-20)
(99.86896401 0.2077443704 -3.579110852e-21)
(99.85253425 0.2867887823 -6.99487352e-21)
(99.83537522 0.2753368349 -3.486992421e-21)
(99.77477585 0.3312574603 2.445270606e-20)
(99.79597034 0.3586189677 6.887863945e-21)
(99.77817156 0.4716886662 -6.056414422e-21)
(99.7500265 0.4609983592 4.458124518e-21)
(99.6610267 0.5540713833 -3.447418681e-20)
(99.72187685 0.5659979068 2.406026929e-21)
(99.67678211 0.6065608134 -1.498290598e-20)
(99.7065351 0.7092076833 -6.188338785e-21)
(99.68409093 0.7063969875 0)
(99.6300135 0.7789635938 6.402341039e-21)
(99.65730749 0.7881899239 -6.167463722e-21)
(99.60575547 1.074733375 3.016142636e-21)
(99.57192159 1.079627492 1.182085707e-20)
(99.50131184 1.188897855 5.85792153e-21)
(99.54374967 1.191288799 1.46862771e-20)
(99.5171104 1.554231196 7.86174936e-21)
(99.467629 1.575951946 7.927437786e-21)
(99.3850679 1.733221155 2.164424504e-20)
(99.44793075 1.717296121 -2.758329023e-20)
(99.48614614 2.12186569 1.527549498e-20)
(99.41981551 2.176781428 1.883694206e-20)
(99.3415162 2.386414742 -3.493092339e-20)
(99.42549526 2.332338688 -3.13513054e-20)
(99.57510879 2.673390036 -4.740604268e-20)
(99.50065321 2.780689964 -4.934758092e-20)
(99.45339795 3.029151038 6.626240761e-21)
(99.54608867 2.912246501 -4.284125105e-20)
(99.79834326 3.051111243 -1.594665117e-20)
(99.73670082 3.223292719 1.761239641e-20)
(99.74125816 3.477117918 -7.324727605e-21)
(99.81447877 3.285956742 -2.563643043e-20)
(100.0866609 3.11529552 -1.582141483e-21)
(100.0618755 3.338671093 3.873863416e-21)
(100.1169541 3.550789462 1.308889139e-22)
(100.1415378 3.307795374 0)
(100.3261521 2.859141746 -1.133331475e-20)
(100.34571 3.098406489 9.747991086e-22)
(100.4252071 3.244208037 -3.218910698e-20)
(100.3982431 2.993424427 -2.91248224e-20)
(100.4516294 2.398667366 4.542529168e-21)
(100.5036879 2.621215073 3.625471545e-21)
(100.5821802 2.706221469 -5.432150315e-21)
(100.5213502 2.481623973 7.619159188e-21)
(100.4626826 1.870102524 -5.809187636e-21)
(100.5292365 2.05598137 -1.351996241e-20)
(100.5941608 2.098747487 -4.708645019e-21)
(100.5199391 1.915406835 5.23554929e-21)
(100.4704803 1.523937647 -1.651335478e-20)
(100.4062407 1.381041969 -1.113431969e-20)
(100.5189532 1.539597188 -1.114933477e-20)
(100.451935 1.40326804 5.93451856e-21)
(100.3253076 0.929687313 -4.972544937e-20)
(100.4337756 1.134637528 -2.602608017e-20)
(100.5066242 1.125691735 -7.540697791e-20)
(100.3782591 0.9416335828 -3.547522071e-20)
(100.2401362 0.6306702383 -5.70955016e-20)
(100.3251935 0.7751713329 2.266562071e-20)
(100.3733255 0.7565380869 -2.709678596e-20)
(100.2755505 0.6333704857 -2.370509918e-20)
(100.2076029 0.3503237795 9.567096682e-21)
(100.3571602 0.4805603081 -2.451901844e-20)
(100.3325952 0.5809879797 -1.594290059e-22)
(100.2483994 0.5216722788 -1.403263031e-20)
(100.1521761 0.2041254819 1.446817289e-20)
(100.2574448 0.2932987183 2.575779144e-20)
(100.1222032 0.0936381401 -1.843476213e-21)
(100.1952484 0.1563950256 -3.723384736e-21)
(100.1670617 0.04908525315 0)
(99.95165532 0.01190584426 2.185777229e-20)
(99.95641212 0.001017340828 -3.646466291e-21)
(99.91973117 0.03494700477 1.838105155e-20)
(99.92994322 0.008365705139 2.552696232e-20)
(99.86234673 0.08126118326 -7.309027173e-21)
(99.87418603 0.03408364857 -3.615372263e-21)
(99.78828751 0.1686651157 0)
(99.78284534 0.0858551065 5.57064241e-21)
(99.74607407 0.1632346834 1.693096576e-20)
(99.79878756 0.1963630171 -4.949885585e-20)
(99.73618365 0.1925030392 1.272936757e-20)
(99.73934666 0.2353098496 0)
(99.68492882 0.358352159 2.260454946e-22)
(99.67381717 0.3196789544 -2.811914228e-20)
(99.5858052 0.3656664912 -2.810022575e-20)
(99.59552597 0.4257272422 5.700323726e-20)
(99.52475838 0.6125886385 -8.472823749e-20)
(99.50324715 0.5577374539 3.067657323e-20)
(99.37369468 0.6400934132 -5.665685649e-20)
(99.42651939 0.715211606 -2.82189805e-20)
(99.36501493 0.726880453 -4.630702166e-20)
(99.351305 0.9448704821 6.677019041e-21)
(99.32848969 0.9114483851 1.327027143e-20)
(99.24368862 0.9829534914 3.354555474e-20)
(99.26837367 1.026510181 6.620845877e-21)
(99.11181877 1.480812968 -1.594907224e-21)
(99.07187697 1.442661858 1.270940126e-20)
(98.95747164 1.557167775 1.948187514e-20)
(99.00344844 1.607983019 1.250270963e-20)
(98.8768901 2.226672937 1.519404355e-19)
(98.80750146 2.192821849 1.125610434e-19)
(98.67162526 2.36733764 1.429186613e-19)
(98.75422579 2.414256185 -3.589441827e-20)
(98.76964365 3.160636864 8.050205422e-20)
(98.65923934 3.15522694 8.661261683e-20)
(98.52274052 3.411932464 -8.288923431e-20)
(98.65793544 3.422829907 5.065428572e-22)
(98.94318715 4.164237222 0)
(98.79342171 4.233814035 6.667944776e-20)
(98.71235792 4.571027157 0)
(98.89359553 4.485704807 -4.838259386e-20)
(99.50266739 4.89409371 -3.086748951e-20)
(99.35822827 5.08190551 -1.604239273e-21)
(99.3952587 5.430151215 -3.155780768e-20)
(99.55588205 5.203039789 -3.085942037e-20)
(100.2561979 4.994787051 8.111717637e-21)
(100.1860771 5.281196015 1.548718062e-21)
(100.3268263 5.537511263 -1.440097185e-20)
(100.3843545 5.212336602 2.024185147e-20)
(100.8418024 4.472172847 -1.280605478e-19)
(100.8670253 4.781889697 -2.674107178e-21)
(101.032856 4.911338818 5.63250889e-20)
(100.9818641 4.583171093 -4.743342975e-20)
(101.1003239 3.632164605 -3.630274125e-20)
(101.1875817 3.905382551 -1.406395515e-21)
(101.325203 3.941919337 -3.627736893e-20)
(101.2150936 3.667979861 2.368496471e-20)
(101.0969255 2.75283754 1.235973298e-19)
(101.2063625 2.968681155 -7.208497689e-21)
(101.3038292 2.951223763 8.231959394e-20)
(101.1797966 2.746245694 2.796584122e-19)
(101.0542866 2.13713347 0)
(100.9471655 1.976677292 4.436976185e-20)
(101.1187377 2.106087725 0)
(101.0031419 1.954697363 0)
(100.7264807 1.295271329 2.753932074e-20)
(100.9078711 1.51780729 1.770932178e-20)
(100.9821656 1.430879078 -1.582113019e-20)
(100.7862247 1.245176938 3.457586572e-20)
(100.5341213 0.860544315 -3.160090276e-20)
(100.6737129 1.013201271 -1.411062155e-20)
(100.7184206 0.9390623466 -1.424142553e-20)
(100.5720518 0.8167712163 -6.872453806e-21)
(100.3949583 0.4206887554 -8.73794687e-21)
(100.5928714 0.5302218654 -1.846884563e-20)
(100.6131266 0.6854818788 -2.453524107e-21)
(100.5025699 0.6571042664 5.18079139e-21)
(100.2900168 0.2428848905 7.416951697e-21)
(100.4250828 0.3190841619 1.128072154e-20)
(100.2313672 0.1104729789 -1.879575923e-21)
(100.3201307 0.1673959548 -3.320805121e-21)
(100.271247 0.05201282716 -4.780547056e-22)
(99.93916915 -0.002805329489 0)
(99.95907338 -0.009105209152 0)
(99.89000834 0.006389162588 3.683446026e-21)
(99.92132553 -0.02218126204 0)
(99.80160259 0.04004373357 9.330042405e-21)
(99.84254008 -0.01631296539 -3.1385389e-21)
(99.67773827 0.1312738431 1.580310848e-20)
(99.71094016 0.01555172529 2.057683074e-20)
(99.63762005 0.1018545067 -6.181605335e-21)
(99.67521938 0.1740824789 2.191620595e-20)
(99.61073667 0.1402917355 1.77453023e-21)
(99.5948576 0.2001018357 -8.884710106e-21)
(99.48166353 0.3508373082 0)
(99.48804338 0.2879923798 -1.836950988e-20)
(99.3765413 0.3119380083 -1.50703581e-20)
(99.36016093 0.4002937784 3.745298786e-21)
(99.20997439 0.6328918088 0)
(99.20899532 0.5436605411 3.744897802e-21)
(99.04119935 0.5906044064 -3.861745762e-21)
(99.0607455 0.7304960126 1.86945018e-20)
(98.99272653 0.7169832481 4.823046499e-21)
(98.88850352 1.027111465 2.430396074e-19)
(98.87806871 0.9610056489 2.790512028e-20)
(98.76092841 1.017254931 6.474059985e-21)
(98.77033716 1.096639611 -7.885541835e-20)
(98.42924521 1.70065095 -6.833671862e-21)
(98.40032134 1.610253238 2.666688109e-20)
(98.23765685 1.708201569 0)
(98.26793044 1.82024418 1.352448058e-20)
(97.93900884 2.688346563 -1.962748925e-19)
(97.86835697 2.579759073 0)
(97.65416772 2.752865666 0)
(97.73703079 2.88849868 -9.350459719e-20)
(97.56744075 4.113647496 9.086750134e-20)
(97.41492842 4.007883324 -8.554840347e-20)
(97.16536766 4.314303654 -1.938306932e-19)
(97.35731691 4.444169595 -7.69154312e-22)
(97.75015747 5.893317495 -5.135448594e-21)
(97.47734925 5.880729017 4.021433929e-23)
(97.30590553 6.367679866 1.593372508e-22)
(97.65059617 6.364312656 -7.160655187e-20)
(98.94389664 7.335163792 -2.52850276e-20)
(98.63160953 7.559368609 -1.037355205e-21)
(98.73081717 8.107679291 -7.512613889e-20)
(99.08374769 7.798381512 -1.466758892e-20)
(100.6657341 7.44098848 1.165622818e-22)
(100.5208246 7.870197775 1.725310264e-21)
(100.8438328 8.197433561 1.19273777e-21)
(100.9496115 7.693167008 -4.170113648e-20)
(101.8355821 6.334724472 -6.366034516e-20)
(101.8961382 6.770558906 4.196581509e-20)
(102.2056181 6.840328105 -6.772464411e-20)
(102.0900922 6.388755182 -5.901130572e-20)
(102.2047319 4.837093765 -6.873138184e-19)
(102.3671186 5.180087567 -1.792790593e-19)
(102.58364 5.120184709 1.027368457e-20)
(102.3790304 4.789099512 6.717085732e-21)
(102.0640918 3.485013592 7.040329287e-20)
(102.2458962 3.725596077 -3.326411699e-21)
(102.364451 3.631157642 5.533609816e-20)
(102.1642461 3.408697649 -1.057620872e-22)
(101.8739651 2.576946796 -1.379925065e-20)
(101.7145294 2.412897591 -3.595910559e-21)
(101.938555 2.482935037 1.730678848e-20)
(101.7701458 2.338056845 2.1114004e-20)
(101.269626 1.52548336 -8.91344234e-20)
(101.5342546 1.744998575 -5.644701792e-20)
(101.5849216 1.571993606 -3.165214639e-20)
(101.3164177 1.409162705 -1.619028513e-20)
(100.9218407 0.9871525363 1.097796345e-20)
(101.1198218 1.129272306 3.307588617e-20)
(101.1400916 1.000942861 -3.722827112e-21)
(100.9470417 0.896788705 -3.628768044e-21)
(100.6114827 0.4286654593 1.9192407e-21)
(100.8507841 0.4904414335 0)
(100.9389647 0.6997409767 -1.003217096e-22)
(100.8159061 0.7051280002 -9.89375549e-21)
(100.444974 0.2412490581 4.257083553e-22)
(100.6018237 0.2888600971 1.919067673e-21)
(100.3510707 0.1078582066 -1.924267544e-21)
(100.4459483 0.1463249749 -1.926523364e-21)
(100.3729781 0.04467125956 -1.936312725e-21)
(99.9454839 -0.02833178904 0)
(99.98581635 -0.02421991941 1.8052514e-21)
(99.8791766 -0.04517492648 -7.379353532e-21)
(99.93728152 -0.06836511746 -1.818697337e-21)
(99.75933102 -0.03962206474 7.633605823e-21)
(99.83743942 -0.09572439523 -3.66988576e-21)
(99.58006332 0.02855677174 1.000982404e-20)
(99.66902629 -0.09944668243 2.699790512e-21)
(99.54882986 -0.018165439 5.563910823e-24)
(99.5584195 0.08968341251 -7.422808927e-21)
(99.49924805 0.0238690359 -7.493598282e-21)
(99.45975692 0.09147951827 0)
(99.27546593 0.2477749293 -1.506998607e-20)
(99.30941825 0.1670678274 0)
(99.18299129 0.1586575183 -9.041541601e-23)
(99.12798126 0.2659084574 -6.204383965e-23)
(98.87228205 0.5123331446 7.767354203e-21)
(98.90995581 0.3951589579 1.165765163e-20)
(98.71404048 0.3978589083 1.570385617e-20)
(98.68145921 0.5867948874 -2.23571769e-20)
(98.61733299 0.5415521876 -7.723844986e-21)
(98.37661251 0.9086201481 7.567740387e-21)
(98.39475993 0.8164526309 7.5528959e-21)
(98.25091869 0.8436675352 -1.295086996e-22)
(98.22513768 0.9512534304 -4.592549896e-25)
(97.64097489 1.597598222 2.994735055e-20)
(97.64664311 1.46243094 3.044036375e-20)
(97.44269924 1.515892569 -6.363745788e-20)
(97.42791331 1.676611173 0)
(96.69535561 2.731016972 -2.499341107e-19)
(96.66591522 2.524139722 -1.860475026e-19)
(96.35117132 2.645192585 -1.55193057e-20)
(96.38424885 2.89450176 -1.575662708e-20)
(95.66826635 4.682038162 -7.089093797e-22)
(95.51813903 4.39493919 5.584254922e-22)
(95.07364046 4.677052666 2.63642549e-20)
(95.26084852 5.044029382 3.127071376e-20)
(95.36935122 7.828621215 2.494141188e-20)
(94.90816264 7.564848694 3.133235562e-20)
(94.43253242 8.27048944 -9.967203857e-22)
(95.07035864 8.576372155 3.112971885e-20)
(97.74275462 11.12111638 1.553912394e-20)
(97.00043562 11.40572662 -3.167808378e-21)
(97.22187198 12.48282146 -1.436638758e-21)
(98.095836 11.96883246 -3.174152042e-21)
(101.7857748 11.00292745 -3.726351012e-20)
(101.5367026 11.79232647 -4.71623777e-20)
(102.3230891 12.17364889 -1.968808905e-20)
(102.4234849 11.2412283 5.997928583e-20)
(103.8003096 8.404191234 1.189595155e-19)
(103.9983984 9.048839066 -1.588279313e-19)
(104.545738 8.924136603 1.212808855e-19)
(104.2262362 8.292579701 -1.037110085e-19)
(103.98458 5.850095841 0)
(104.2963397 6.253765061 -2.23881257e-20)
(104.5510989 6.0272773 -1.33370241e-19)
(104.1919834 5.665010441 -1.27417881e-19)
(103.412531 3.928171728 -6.127743016e-20)
(103.7006517 4.171778993 1.25344761e-24)
(103.8076124 3.964818323 3.065856461e-20)
(103.5058246 3.758104353 3.658343642e-20)
(102.9089211 2.7248087 6.490111848e-20)
(102.6781628 2.578103487 -6.202899262e-20)
(102.9476703 2.563349007 -1.59625621e-19)
(102.7165572 2.440022545 -7.755416032e-20)
(101.9187488 1.560706488 2.590485503e-20)
(102.2611819 1.736986758 -2.191518683e-22)
(102.2572075 1.482863799 1.577160018e-20)
(101.923876 1.376300513 1.173658825e-20)
(101.3625286 0.9747942381 -1.546222783e-20)
(101.6180613 1.080910783 -7.886500063e-21)
(101.5877202 0.9044349375 -7.888027961e-21)
(101.3532662 0.8414811889 1.202649607e-20)
(100.8281785 0.3560812794 0)
(101.0979299 0.3536772635 1.278659053e-21)
(101.2618021 0.5857293762 -1.062566538e-20)
(101.1459737 0.6505381575 2.633376089e-20)
(100.5916219 0.192071653 -4.855921473e-22)
(100.7564658 0.1950020882 -1.511898703e-21)
(100.458985 0.0829663353 -1.946814728e-21)
(100.5488322 0.09024524907 -2.206872462e-21)
(100.451225 0.02635097065 2.494955902e-21)
(99.98133634 -0.06373286021 -1.287085462e-23)
(100.045947 -0.04367118466 5.857265006e-23)
(99.90007818 -0.1180248615 1.887985343e-21)
(99.98854501 -0.1279318448 -7.035079762e-23)
(99.7529438 -0.1542913474 -9.888203941e-21)
(99.8717709 -0.1998901204 1.485337499e-21)
(99.519056 -0.1250643863 -8.979982223e-21)
(99.67363704 -0.2536590742 -1.503579768e-20)
(99.50741695 -0.1927543524 -1.280245439e-20)
(99.46935914 -0.05882342774 -7.054794281e-21)
(99.43368397 -0.1545064475 -2.789924678e-21)
(99.36257929 -0.08710389242 3.064058202e-23)
(99.1044625 0.04574682698 1.136760513e-20)
(99.1733344 -0.04223270745 1.155232225e-20)
(99.04427833 -0.08910141954 5.700495333e-21)
(98.94431687 0.02167640989 1.964933505e-20)
(98.57582589 0.2469285199 1.660171864e-20)
(98.6658178 0.1107257082 2.061158001e-20)
(98.46291212 0.06149729782 1.319059321e-20)
(98.35189202 0.2667155142 -1.201812399e-20)
(98.30419928 0.197483727 -1.254702879e-20)
(97.90679659 0.5625754748 -8.877389022e-21)
(97.96416024 0.455700117 1.573282635e-20)
(97.80938811 0.441821338 2.941539269e-21)
(97.74028743 0.5605815186 -9.188975698e-21)
(96.88682539 1.122791255 3.338087765e-20)
(96.95541448 0.9583497859 3.339152195e-20)
(96.72628605 0.9440266564 7.081577633e-23)
(96.6326376 1.132763049 1.700727378e-20)
(95.35064393 2.115570343 8.94827636e-21)
(95.42925011 1.843287447 0)
(95.05455925 1.840525432 0)
(94.93864184 2.163523313 9.57639283e-21)
(93.1015345 4.036789746 0)
(93.1313402 3.539624044 2.138980421e-20)
(92.47294003 3.573225235 -2.37231458e-20)
(92.39757956 4.21538065 0)
(90.2639016 8.705997266 -8.091166488e-20)
(89.81016592 7.65409519 7.162097369e-21)
(88.16908727 8.474909997 0)
(88.48459498 7.88975829 0)
(89.33287332 9.848697815 5.955854714e-20)
(88.55582692 9.736633224 0)
(92.34608787 18.58968656 -1.560517993e-21)
(93.51296323 18.46768063 -2.895712517e-21)
(92.48478793 20.14188445 -5.321629465e-23)
(93.99064224 19.71765716 -1.59769372e-21)
(105.2529229 17.94720028 -2.644098382e-19)
(105.5325276 16.51786101 -2.659547548e-19)
(106.9915217 16.34914755 -1.411691113e-19)
(105.892021 18.78340813 2.188799268e-19)
(107.7352746 17.87693412 1.003966043e-19)
(107.3266791 18.49758603 -2.622537874e-20)
(108.1664951 11.03901289 1.935963462e-20)
(107.5341033 10.1863532 -5.610851912e-20)
(108.8194018 10.39074788 5.114021429e-20)
(108.0400122 9.691187032 0)
(106.5562944 6.211345765 -1.566447628e-19)
(107.1152469 6.597668176 8.861471791e-20)
(107.3140585 6.109759595 0)
(106.7257648 5.817217752 -8.037952299e-20)
(105.104789 3.818682933 -8.033192502e-20)
(105.5233369 4.004821017 -1.202724849e-19)
(105.5513047 3.670451939 -9.095815948e-20)
(105.1360084 3.538872599 -8.980998443e-20)
(104.0676722 2.437597348 4.21200293e-20)
(103.7640984 2.347975646 3.540343617e-20)
(104.0389892 2.213705347 2.397688653e-21)
(103.7456459 2.146678856 2.306293137e-21)
(102.5857726 1.333140303 4.148453327e-21)
(102.9981093 1.415256394 -4.591018645e-20)
(102.8898172 1.107755535 -2.409836906e-21)
(102.5200681 1.092376043 -4.342571234e-21)
(101.802069 0.7856415255 4.323811743e-21)
(102.102187 0.8312293152 -1.554113714e-23)
(102.0037665 0.62208825 -7.021488379e-21)
(101.7386686 0.6172740064 8.753645973e-21)
(101.0078962 0.1983585806 -1.796869577e-22)
(101.2746935 0.1209372843 -2.836223586e-22)
(101.5446825 0.3389684624 7.992426064e-22)
(101.4464989 0.4328258902 6.386680053e-21)
(100.702029 0.09299893867 -3.240379419e-21)
(100.8557462 0.03868226507 -2.343140882e-22)
(100.5321461 0.03444851407 2.416199896e-21)
(100.6040106 0.0008856549604 -2.170334625e-21)
(100.4837058 -0.002461690163 4.041949501e-22)
(100.0559642 -0.1070705439 1.352628149e-23)
(100.1469506 -0.06625026095 -2.676877062e-21)
(99.96366568 -0.2078092705 -4.880356645e-22)
(100.0835912 -0.1970850124 1.163668721e-21)
(99.79678594 -0.2972424058 -3.843500083e-21)
(99.9561878 -0.3214972557 -2.53104489e-21)
(99.51875486 -0.3250921144 7.879713149e-21)
(99.73944504 -0.4350429766 -8.698293742e-22)
(99.53255052 -0.408759558 8.265424912e-22)
(99.43709371 -0.2636902527 3.853820646e-21)
(99.43638049 -0.3805386961 8.00331182e-21)
(99.33334566 -0.3242471108 5.648353836e-21)
(99.00723662 -0.2416384505 -1.92108979e-21)
(99.11481629 -0.3236543997 2.977519042e-21)
(98.99595319 -0.4083015751 1.965878506e-21)
(98.85021759 -0.3115617393 5.959833543e-21)
(98.38235737 -0.1522194735 -3.433870401e-20)
(98.52844293 -0.283911986 -3.281964167e-20)
(98.33917447 -0.3869575542 -3.485762112e-20)
(98.14851614 -0.1902609381 -2.334680533e-20)
(98.12870308 -0.2841502672 -2.33440893e-20)
(97.59339675 0.009097517864 8.171098607e-21)
(97.69175474 -0.09216017684 4.07483164e-21)
(97.5501979 -0.152060389 2.873803731e-23)
(97.43777646 -0.04509387669 4.095623798e-21)
(96.3646501 0.2917470463 0)
(96.50713448 0.135762398 8.656716852e-21)
(96.29183785 0.04841049288 -3.533870131e-20)
(96.11455156 0.2150981665 4.622415811e-21)
(94.40721852 0.7735254791 -6.027578923e-20)
(94.62820275 0.5188558327 -3.168079286e-22)
(94.2927541 0.3736695616 -2.026544123e-20)
(94.00788791 0.6418118552 2.257135873e-20)
(91.21533293 1.505491763 5.08771181e-20)
(91.60155927 1.048705903 8.807581128e-21)
(91.10119639 0.7247546305 -7.798139637e-22)
(90.54361855 1.171314098 1.050558196e-20)
(84.95907168 2.249626247 1.300159236e-19)
(85.55424654 1.692053566 3.621477465e-20)
(85.05290494 1.08146136 3.879099977e-21)
(84.21434016 1.60878066 -1.397342346e-19)
(119.4795616 22.80904272 3.322161923e-19)
(117.9928252 21.65719109 -6.20737377e-20)
(120.3177138 21.16826378 2.701127887e-19)
(118.8135359 20.37338672 9.185397999e-20)
(114.7710512 10.20628967 3.263616972e-20)
(113.3673807 9.660801447 7.294697683e-21)
(114.8904734 8.831478573 4.118833123e-20)
(113.5441063 8.605328684 4.09706371e-20)
(109.6309254 5.166695672 0)
(110.4538121 5.330658095 -7.466638931e-21)
(110.3586334 4.617143752 -6.013106778e-20)
(109.5862288 4.579047729 -2.260911433e-20)
(106.8458065 2.890540159 -3.427456509e-20)
(107.3734605 2.933729059 -1.203342951e-20)
(107.2358806 2.514945247 2.860613314e-21)
(106.7479945 2.531569346 -1.194471449e-20)
(105.1476141 1.615684996 9.961292246e-22)
(104.7933222 1.616345956 -1.975139455e-20)
(105.0196584 1.355406297 -2.169228518e-20)
(104.6927652 1.379484792 -9.006046161e-21)
(103.1528481 0.8102182062 -4.710558505e-21)
(103.6078155 0.7702366173 -4.341076424e-20)
(103.3616496 0.4497200823 7.535461959e-21)
(102.9934512 0.5483764643 1.123488766e-21)
(102.1676473 0.4158035465 -1.90137359e-21)
(102.4796073 0.3774925678 1.321622759e-20)
(102.2965096 0.171074173 4.864271306e-21)
(102.0374193 0.240682067 9.656660597e-21)
(101.1100161 -0.03491148784 -3.245571702e-22)
(101.3489863 -0.1924111557 -1.025032335e-21)
(101.7189768 -0.02663726599 -1.041249528e-21)
(101.6672051 0.114724442 -1.184129092e-21)
(100.7479173 -0.05163259725 1.039353658e-21)
(100.8714247 -0.1675606783 1.277935656e-21)
(100.5477433 -0.03474716156 -4.141641151e-21)
(100.5880362 -0.1149833355 1.602960907e-21)
(100.4509144 -0.0398585996 -2.047138977e-21)
(100.1761082 -0.1553407377 -1.526700714e-21)
(100.2934849 -0.09036792226 8.456672333e-22)
(100.0779011 -0.3080732483 -8.884291383e-22)
(100.2276859 -0.2709161731 -6.302839238e-22)
(99.90096101 -0.4572245454 4.549581807e-22)
(100.0969162 -0.4513753057 -2.242669717e-22)
(99.59342856 -0.5536543597 5.071254741e-22)
(99.87438221 -0.6294762108 7.6513625e-22)
(99.63618207 -0.6467847662 4.528628703e-22)
(99.47999923 -0.5065069927 1.327782889e-21)
(99.52156034 -0.6346678373 -1.213295346e-23)
(99.38962993 -0.5976319291 -1.213467914e-23)
(99.01282148 -0.5850051382 -1.962948042e-21)
(99.15617134 -0.6493222069 0)
(99.05873823 -0.7673460604 -9.645541603e-22)
(98.874017 -0.6978814102 -1.019255472e-21)
(98.33660256 -0.635568044 9.191259219e-22)
(98.53261699 -0.7421111706 -9.80570832e-23)
(98.37531827 -0.8905060803 9.184472843e-22)
(98.11767074 -0.7308399063 -5.63442409e-22)
(98.13093646 -0.8352651749 -1.72181688e-21)
(97.5097029 -0.6646910664 -1.232781609e-20)
(97.63941854 -0.743399039 -3.180214532e-21)
(97.52579677 -0.8392152569 -1.250418459e-20)
(97.38087206 -0.761184742 8.25710284e-21)
(96.22016089 -0.7110062233 -1.791072588e-20)
(96.41673985 -0.8252025326 4.360600704e-21)
(96.24325386 -0.9623188939 -2.241265302e-20)
(96.01444973 -0.8513192162 -1.790024284e-20)
(94.24354074 -0.8149153924 2.057630515e-20)
(94.54480311 -0.9737178034 -1.722767757e-20)
(94.3063976 -1.182281056 2.973795807e-20)
(93.96117823 -1.043049996 6.797282158e-22)
(91.44162316 -1.277735222 -1.213338908e-20)
(91.91927242 -1.445593948 3.277198489e-21)
(91.67216121 -1.787490347 -1.857862204e-20)
(91.1584303 -1.690475847 -1.383271906e-20)
(88.38307708 -3.160235878 -1.064374033e-21)
(88.75727848 -3.076203366 -2.074974735e-22)
(88.78970296 -3.351553693 -2.874033585e-23)
(88.48252114 -3.504644717 3.212985046e-21)
(133.5266185 9.362657064 -1.064212625e-20)
(131.8612147 10.02649775 2.92690397e-20)
(132.5174545 7.949889236 1.495979093e-20)
(131.1244359 8.673269924 1.968305654e-20)
(120.0115147 4.305447817 -2.155544427e-20)
(118.4419379 4.739777869 6.170820809e-20)
(119.1096252 3.031268496 -7.46012782e-20)
(117.8451549 3.606833802 -1.534765974e-21)
(112.0714804 2.329200712 -2.073404237e-21)
(112.9411868 2.084093478 -1.98401761e-21)
(112.4238235 1.409989272 -4.11171988e-21)
(111.6857763 1.721422133 -3.630464679e-21)