/*--------------------------------*- C++ -*----------------------------------*\
| =========                 |                                                 |
| \\      /  F ield         | OpenFOAM: The Open Source CFD Toolbox           |
|  \\    /   O peration     | Version:  v1912                                 |
|   \\  /    A nd           | Website:  www.openfoam.com                      |
|    \\/     M anipulation  |                                                 |
\*---------------------------------------------------------------------------*/
FoamFile
{
    version     2.0;
    format      ascii;
    class       volScalarField;
    location    "2.34";
    object      nut;
}
// * * * * * * * * * * * * * * * * * * * * * * * * * * * * * * * * * * * * * //

dimensions      [0 2 -1 0 0 0 0];


internalField   nonuniform List<scalar> 
12556
(
1.155874336
1.155842917
1.155813812
1.15579338
1.156030727
1.156036922
1.156069878
1.156136855
1.156255947
1.156426662
1.156666448
1.032570251
1.002024757
1.069969092
1.156569053
1.156376142
1.1562211
1.156129432
1.1560659
1.156045161
1.155827209
1.155847219
1.155873315
1.155899192
1.155095191
1.155009611
1.154937044
1.154906666
1.155139792
1.155216225
1.155404708
1.155773137
1.156341486
1.1572255
1.093134672
0.9578236527
0.9205673722
0.9606229997
1.095252111
1.157154229
1.156333773
1.155790631
1.155382162
1.155226249
1.154969629
1.155021957
1.155099536
1.155178655
1.154289389
1.154145531
1.154036177
1.154000273
1.15430044
1.154520903
1.155004459
1.155772754
1.157139227
1.01603367
0.8412155151
0.7479522605
0.7260120425
0.7564696007
0.8660110512
1.057648612
1.157045234
1.155791274
1.154893449
1.154505018
1.154142579
1.154188197
1.154306154
1.154440035
1.153462479
1.153282191
1.153165722
1.153195847
1.153559977
1.154040343
1.155075588
1.156589542
0.9692234427
0.7388746193
0.6010424541
0.5205089021
0.4930287188
0.5223606775
0.6116700235
0.7723405453
1.024610668
1.15648084
1.154781754
1.153974643
1.153371074
1.15337971
1.153515395
1.153694
1.152618891
1.15240081
1.152296172
1.15239532
1.152978158
1.153881467
1.155824411
1.037852616
0.7297993676
0.5409096444
0.4138616736
0.3291210919
0.2944424571
0.3194083052
0.4017191405
0.544998
0.7647743675
1.092834894
1.155227612
1.153711995
1.152697537
1.152584659
1.152711044
1.1529252
1.151767285
1.151539005
1.151483553
1.151772156
1.152637683
1.154164149
1.153325517
0.8342951115
0.5833239542
0.4138102623
0.2835730259
0.1873785809
0.1478891267
0.1740532377
0.2529050981
0.3813853153
0.5811962685
0.8742108931
1.156339837
1.153789897
1.152186444
1.151838041
1.151911775
1.152140119
1.150906817
1.150683182
1.150717898
1.151282743
1.152430628
1.154930313
1.007145877
0.7137053758
0.4955558594
0.338275586
0.2047472676
0.09516016916
0.05422980356
0.08612833678
0.1622468004
0.2790506497
0.4576216644
0.7147303201
1.105630741
1.154275966
1.151792049
1.151134664
1.15110795
1.151333498
1.150102612
1.14990379
1.150068787
1.15097022
1.152520627
1.156162986
0.9104571136
0.6532830621
0.4607695874
0.3153054642
0.1875506406
0.07754766936
0.04976590192
0.1226244441
0.2249445505
0.3857113856
0.622695269
0.9850935206
1.155141744
1.151585329
1.150522726
1.150338313
1.150536052
1.149368826
1.149216685
1.149563589
1.150885946
1.152971309
1.157749269
0.8597278113
0.6279608123
0.4662491509
0.3425785488
0.2395489631
0.1688057052
0.06175439916
0.1205126669
0.2087026979
0.3535954645
0.568410241
0.9060787398
1.15632027
1.151579951
1.150026321
1.149642857
1.149794927
1.1487994
1.14871008
1.149262238
1.151052854
1.153760849
1.157975157
0.8411234164
0.6400819305
0.4957799141
0.3920380262
0.3199096274
0.3132667369
0.0874448204
0.1378344797
0.2182412771
0.3536389481
0.5540237815
0.8625408044
1.157711945
1.151816579
1.149721602
1.149098038
1.149184206
1.148401048
1.148396254
1.149207355
1.151557089
1.154866195
1.118762348
0.8420700862
0.6618228659
0.5347250142
0.4447052027
0.3907395649
0.4331589956
0.1190532574
0.1675059684
0.2468645813
0.3763074866
0.5646428583
0.8498047
1.159196917
1.152277387
1.149621807
1.148751805
1.148761239
1.148236552
1.148317898
1.149369807
1.15224568
1.156209615
1.09969509
0.8553548531
0.6931604833
0.5760687874
0.4890743338
0.4270435668
0.442637538
0.1557874889
0.2096398677
0.2930005771
0.4235288127
0.6004994792
0.8635156101
1.151524634
1.152993687
1.149772975
1.148643966
1.14857581
1.148243966
1.148433816
1.149816226
1.153293239
1.157724302
1.094930295
0.8819540703
0.73887272
0.6231713629
0.5332625867
0.4507717601
0.386687139
0.04886823059
0.2039016814
0.2730834112
0.3650196832
0.4926556927
0.6646642688
0.899576948
1.151203145
1.153819482
1.150141756
1.148782853
1.148633308
1.148464992
1.148757485
1.150425256
1.15438175
1.159385895
1.118703777
0.9461899964
0.7935002244
0.6894247297
0.5957773957
0.500999986
0.2841867526
0.09971025369
0.3023450999
0.3834003853
0.4725245529
0.593436504
0.7468269665
0.9543917481
1.163416771
1.154746098
1.150689587
1.149119161
1.148919438
1.148764016
1.149148842
1.151081017
1.155501619
1.160966706
1.168763866
1.019239161
0.8809713624
0.7804572613
0.6961016504
0.6079271586
0.1082714114
0.1431653968
0.4003628959
0.5782071258
0.6306934703
0.7248530989
0.8610842781
1.044233485
1.164649344
1.155684445
1.151342675
1.149612277
1.149354153
1.149184828
1.149654704
1.151815663
1.156630394
1.162463531
1.170534495
1.127412642
1.01051288
0.9233329743
0.8603539567
0.7651776234
0.04798997199
0.1728440476
0.4503946352
0.7609941061
0.846996863
0.899298043
1.006257708
1.167538562
1.165666953
1.156569747
1.15203157
1.15019721
1.149917687
1.149562654
1.150095303
1.152447883
1.157624519
1.163788025
1.171964658
1.171954271
1.152811021
1.093029736
0.9514330502
0.4578891602
0.02853377124
0.2542202738
0.5365999503
0.8247754797
1.019183443
1.112914955
1.153393335
1.168754826
1.166467116
1.157341229
1.152691613
1.150789792
1.150473243
1.149978555
1.15056165
1.153064088
1.158513994
1.164903035
1.173161693
1.172807881
1.152541294
1.072403922
0.792746003
0.1171904069
0.06708105836
0.3453189366
0.6290656574
0.8750504733
1.031802676
1.114962077
1.154674376
1.169389129
1.166974413
1.157966914
1.153288079
1.151371389
1.151044042
1.150271884
1.150881845
1.153494341
1.159182367
1.165781432
1.173988514
1.173385985
1.151639791
1.062080079
0.6400934963
0.05223059021
0.1627759874
0.4151517735
0.6803831885
0.8911106467
1.033808237
1.115852053
1.155159842
1.169592238
1.167218763
1.158407339
1.153746865
1.15184064
1.151507025
1.150574094
1.151205695
1.153892967
1.159726502
1.166415344
1.174508394
1.173464345
1.15022578
1.050577594
0.5768415632
0.05089503746
0.1833081726
0.4283986667
0.6826341999
0.8932268442
1.034615799
1.115935334
1.155059485
1.169448016
1.167234196
1.158733494
1.154144951
1.152261975
1.151919938
1.150721758
1.151362326
1.154096193
1.160047843
1.166828208
1.174766962
1.173240406
1.148421571
1.036917146
0.5311470691
0.05102057939
0.1899274486
0.4324594069
0.6822344803
0.8935269363
1.034517814
1.115436711
1.154533959
1.169034745
1.167064816
1.158890844
1.154386126
1.152531082
1.152181453
1.150887578
1.151544993
1.154310663
1.160302866
1.167053691
1.174814903
1.172791148
1.146279819
1.020607027
0.5006986213
0.05165282722
0.1949258486
0.4351034173
0.6808365773
0.8920599626
1.033573398
1.11447909
1.153697812
1.168416636
1.166752946
1.158980385
1.154589921
1.152761155
1.152397974
1.150889685
1.151561406
1.154350001
1.160382115
1.167136138
1.174698946
1.172167395
1.143766984
1.000421946
0.4794955121
0.05264559647
0.1986344742
0.436610537
0.6787495828
0.8892581299
1.031787408
1.113112826
1.152619921
1.167643079
1.166334144
1.15892811
1.154639171
1.152831634
1.152454928
1.150935068
1.151634104
1.15444695
1.160466261
1.167110146
1.174457548
1.171385238
1.140698405
0.9774653981
0.4643335876
0.05395979865
0.2013486125
0.4371886956
0.67613992
0.8856126018
1.029244993
1.111363635
1.151338701
1.166751437
1.165834756
1.158857119
1.154691808
1.152899746
1.152503211
1.150814005
1.151538939
1.154374625
1.160400881
1.167007235
1.174118164
1.170431441
1.136799715
0.9546537483
0.4535292142
0.05557531869
0.2031376876
0.4370456109
0.6731281489
0.8814514368
1.026103109
1.109269865
1.149881154
1.165769251
1.165274186
1.158658707
1.154591974
1.152808888
1.152392856
1.150765475
1.151527678
1.154391638
1.16038445
1.166840858
1.173697774
1.169281128
1.131884132
0.933952321
0.4461533699
0.05747356069
0.2042429187
0.4363463923
0.6698093808
0.8769568809
1.022517365
1.106884578
1.148273447
1.164717655
1.164666542
1.158486236
1.154540661
1.152760932
1.152318963
1.150550454
1.151345689
1.154234626
1.160218353
1.166627266
1.173206804
1.16790952
1.12600841
0.9158346306
0.4413597816
0.05964322973
0.2048291759
0.4352474358
0.666247045
0.8722271668
1.018606618
1.104261859
1.146541398
1.163613484
1.164023192
1.158186649
1.154331865
1.152551154
1.152084707
1.150433036
1.15127042
1.154190689
1.160132949
1.166368662
1.172652125
1.166296371
1.119373837
0.90012827
0.4384401825
0.06210900735
0.2050288048
0.4337969101
0.6624812981
0.8673188714
1.014454286
1.101448367
1.144707803
1.162469594
1.163352597
1.157954965
1.154215047
1.152428179
1.151931021
1.150155429
1.151027517
1.153971311
1.159890848
1.166077637
1.172037089
1.164431625
1.112293022
0.8866029561
0.4370461606
0.06489146449
0.204919608
0.4320284429
0.6585479248
0.8622783661
1.010124499
1.098483423
1.142791799
1.161295705
1.162661384
1.157586504
1.153932328
1.152139249
1.151614954
1.149984192
1.150899503
1.15387506
1.159752697
1.165751454
1.171362878
1.16231842
1.105043177
0.875018904
0.4370363153
0.06802444525
0.2045890182
0.4299969231
0.6544987749
0.8571572921
1.005670246
1.095398967
1.140808644
1.160098974
1.161955111
1.157321632
1.153773431
1.15196812
1.151410375
1.149678543
1.150626385
1.153621374
1.159460681
1.165402083
1.170629494
1.159975335
1.097826248
0.8651111421
0.4381480816
0.07155775057
0.204142578
0.4278013139
0.6503988927
0.8520069614
1.001133943
1.092220269
1.138770164
1.158884603
1.161236714
1.156913733
1.153453123
1.151640325
1.151055774
1.149451156
1.150441768
1.153466987
1.159269862
1.165024279
1.169837632
1.157434488
1.090780142
0.8566380245
0.4401710407
0.07551081328
0.2036012562
0.4255091046
0.646302976
0.8468686133
0.9965491461
1.088968228
1.136685689
1.157656413
1.160511112
1.156618862
1.15325171
1.151423828
1.15080443
1.1491624
1.15018082
1.153221139
1.158970347
1.164628719
1.168986901
1.154730981
1.083967329
0.8493010891
0.4426989084
0.079874389
0.2030087038
0.4231789812
0.6422486984
0.8417736075
0.9919436381
1.085661065
1.134563469
1.156417796
1.159776298
1.156217941
1.152945388
1.151111018
1.150467768
1.148852592
1.14991369
1.152981283
1.158694031
1.164211181
1.168080907
1.151899755
1.077402944
0.842818829
0.4454604417
0.0846229271
0.2024339884
0.4208703761
0.6382691977
0.8367506089
0.9873432851
1.082316327
1.132412201
1.155174375
1.159042912
1.155848887
1.15266361
1.150814703
1.150135084
1.14863867
1.149721232
1.152800511
1.158467596
1.163784722
1.167131398
1.148996434
1.071094608
0.8370500247
0.4484279773
0.08980186645
0.2018990081
0.4186211684
0.63439407
0.8318265414
0.9827716887
1.078950289
1.130239067
1.153943322
1.158312021
1.15555938
1.15245158
1.150597426
1.149898992
1.148209288
1.149341233
1.152448537
1.158052649
1.16338237
1.166183005
1.146164782
1.065073983
0.8319553157
0.4515958616
0.09532844814
0.2014166177
0.4164845437
0.6306869261
0.827048102
0.978262343
1.075582463
1.128050433
1.152793457
1.157651816
1.155045075
1.152060204
1.150193308
1.149451809
0.1508506613
0.05521728835
0.04282859167
0.2976467178
0.08037605714
0.05825565767
0.4204032651
0.1127966597
0.08420933713
0.4473421782
0.1428846338
0.1175441845
0.395989441
0.03695660759
0.04592120032
0.1796622773
0.1467898944
0.3267717435
0.07207542912
0.03793677867
0.09446328234
0.2450565303
0.1827924581
0.07543054909
0.05461911587
0.04417331701
0.08188283264
0.02793971946
0.01855214849
0.05917552688
0.1019346798
0.1032922558
0.2995680551
0.290790011
0.1738897898
0.02644418979
0.0394020477
0.08403058629
0.1180966305
0.1045141658
0.3757126892
0.4030273125
0.305389763
0.3583109957
0.2007031012
0.22529616
0.04699801751
0.03306978204
0.1149994877
0.1460622501
0.1241216903
0.4218918414
0.4408016251
0.4144010561
0.4545682372
0.1318527548
0.1702753139
0.08980137059
0.06503733185
0.4418882514
0.3971709429
0.4379467197
0.4258250487
0.0786287443
0.1032415807
0.01593873128
0.1340689697
0.1226727019
0.4857124681
0.3980318938
0.3912039099
0.3704346757
0.03108475809
0.05097006814
0.2886685626
0.1004576476
0.0737922896
0.06236728235
0.1420122657
0.02982439727
0.05661894846
0.04045931797
0.02923711351
0.04681403985
0.03096423292
0.04883901296
0.22860184
0.2521935202
0.2467284798
0.197260155
0.1840555917
0.159603484
0.1999083162
0.03272517837
0.0263040341
0.06977676573
0.03927390351
0.04477834026
0.04997725339
0.03947526967
0.06823055519
0.1729365212
0.1970172463
0.3740325673
0.1540704967
0.1305407613
0.1823849047
0.1560208843
0.06178226549
0.04819820707
0.1005419028
0.06713690887
0.08696810741
0.04525218683
0.06450725802
0.09627411846
0.1046226469
0.1302448818
0.4554874147
0.1048333962
0.0799821354
0.1291780814
0.1061531635
0.1188652209
0.09368639757
0.05194382088
0.07688139125
0.4141325889
0.01281514284
0.0541118338
0.0326550506
0.07894186409
0.05567197587
0.01213573286
0.1410123108
0.1360833156
0.01777217474
0.004754810212
0.03079131502
0.3650187206
0.05822598468
0.01927899118
0.01139741118
0.03230469735
0.0196034967
0.05582133728
0.2219278611
0.15779665
0.09032235442
0.09624592104
0.06133266793
0.0350185626
0.01461610485
0.008160141251
0.2277807143
0.2552818163
0.1553850559
0.009943154876
0.1489008771
0.1829855301
0.1543730796
0.01202394655
0.0510701264
0.04411446999
0.06997010577
0.1577699235
0.1449668657
0.1411512329
0.06830579297
0.1073412112
0.04137303627
0.01252189604
0.02196580795
0.02125815165
0.02925912821
0.04517335494
0.04273703995
0.03095209648
0.1317546082
0.1156778764
0.1307302106
0.09018647812
0.1124217963
0.1286608484
0.02546989227
0.01366982226
0.04422513605
0.02158438111
0.03666055488
0.02908671601
0.018702803
0.02856380847
0.02063966253
0.01401117142
0.02216614442
0.01804607946
0.009691305927
0.0155780063
0.02103035154
0.03383954848
0.03441269938
0.04003039047
0.03905568062
0.01613280157
0.010302017
0.07867368789
0.01358863419
0.02443924232
0.009790928737
0.01204140098
0.07502867546
0.09264659359
0.2551563426
0.2431552692
0.06559913606
0.05477952474
0.01166010783
0.04609092882
0.1902124586
0.1782226713
0.2067433737
0.1950723811
0.0464277835
0.0495044441
0.04173303006
0.09046718533
0.06489985162
0.05518255872
0.04002385445
0.06445358642
0.1018604215
0.03613767596
0.02273363971
0.01431341228
0.05081559556
0.02533485795
0.03990011844
0.02444456535
0.05632043741
0.04001178116
0.03913033221
0.1950311863
0.03142509649
0.1944458324
0.2137989367
0.03501271484
0.03902623348
0.03182656677
0.03453151627
0.2102385591
0.03128114157
0.03102864585
0.04242421069
0.06785067195
0.06326893222
0.07424676685
0.06951327905
0.04269170081
0.04729530192
0.05536281721
0.05017992069
0.06160479837
0.05681569301
0.04641882945
0.1426005722
0.1410781272
0.1704172722
0.1687768258
0.05816638883
0.009654468713
0.05695509771
0.0956941215
0.09391411097
0.1171636509
0.1156096175
0.02594117581
0.03759096359
0.1048603948
0.02899731052
0.0173141949
0.06801336009
0.2230709773
0.2109835439
0.2390783906
0.2270622925
0.06930937194
0.02299943805
0.04966987875
0.04866309179
0.07201173786
0.07117326207
0.007937786591
0.03087302759
0.08093556915
0.06947146771
0.1735448066
0.1649831146
0.0247934362
0.01238064682
0.01780377099
0.01390020191
0.03088883426
0.01287687827
0.01379266358
0.0134198819
0.03092780502
0.04731345912
0.01390407072
0.01524364264
0.003672923064
0.01677083987
0.01325018492
0.5724546475
0.3851137083
0.3889473139
0.2610948743
0.008932622181
0.005354920843
0.1377735862
0.3274937568
0.2750774059
0.005841447046
0.01215764711
0.01106482321
0.09634685144
0.08513236865
0.03300073564
0.1952026672
0.1641150608
0.07295797719
0.009021636206
0.01526909892
0.01218179563
0.008270265281
0.01204644852
0.008564594077
0.02861608609
0.01206101252
0.01138127867
0.0368810284
0.04359768048
0.01238541085
0.01711652771
0.008656269097
0.00880206941
0.03463804176
0.1455209767
0.3155669778
0.3044791504
0.3301055944
0.3192299027
0.1486714427
0.2706175924
0.2589277127
0.09390819034
0.03417490342
0.09795287107
0.09284491909
0.01235511366
0.01772546781
0.07963890824
0.04580545677
0.01365851731
0.01216338242
0.03788552346
0.04177582031
0.03732069626
0.048511092
0.04336916949
0.03978490274
0.03198908926
0.008705806563
0.00864828634
0.02750296571
0.1832842289
0.3442241119
0.3336430674
0.06022596762
0.06212022758
0.1350509275
0.01817216201
0.01982702529
0.05162183104
0.07502403539
0.1007522746
0.09328123165
0.05112724429
0.08165014752
0.07610550706
0.09056863457
0.08382080651
0.05221499319
0.1176301858
0.2858227632
0.2744040327
0.3007733577
0.2895994294
0.1193785852
0.1010062009
0.03742991341
0.03815192235
0.02167676021
0.02250759729
0.08426611051
0.1242542917
0.05612056523
0.05982644853
0.03845107372
0.03912574221
0.110107696
0.1086659541
0.03963022529
0.05459955477
0.008618891058
0.01582128883
0.05180512328
0.03982116804
0.07594287188
0.0210673124
0.02153579434
0.02067810466
0.06488497286
0.01202151963
0.004399732746
0.1275903118
0.1113951043
0.09111432991
0.08700353497
0.03047374097
0.01600492345
0.02591405899
0.06588161972
0.01905224299
0.01205414693
0.01752886205
0.02039954089
0.002824007951
0.03185090246
0.0206657552
0.01189535566
0.006291779886
0.01149603707
0.009942322344
0.009743996206
0.0246018533
0.01880006913
0.007771365816
0.03852081161
0.04010125183
0.01460180363
0.01081461625
0.006975011877
0.0114144911
0.01587431005
0.0108340935
0.01240188955
0.03598396932
0.01093680131
0.01089503011
0.01253984564
0.0128916266
0.03046206524
0.01278763883
0.01259323522
0.01316934355
0.01264390928
0.01299002521
0.01627126568
0.01374242694
0.02155067857
0.01771423054
0.01309058834
0.01352359092
0.02144117396
0.01780539419
0.02487743782
0.02230331084
0.01730245926
0.01539992744
0.01226851124
0.0104627599
0.008183700456
0.03029473861
0.03627483999
0.0111633408
0.010566413
0.01163215098
0.01210548042
0.04247161092
0.008938139303
0.008846211135
0.01039295057
0.009047411192
0.008798960802
0.03567984647
0.008653174401
0.01146888618
0.01187622764
0.01099572657
0.01780439308
0.04534142216
0.04073479913
0.01039852966
0.03289886431
0.02814055502
0.03908448456
0.03473187446
0.01058068985
0.0117475527
0.03197530131
0.02682264367
0.106168024
0.09975293857
0.03808380478
0.04858021953
0.113187199
0.1079077712
0.04478106285
0.04396216875
0.06679067973
0.07514821399
0.09051599676
0.05634137
0.07053766264
0.06761627033
0.05963066994
0.1346545111
0.1242490735
0.09784958264
0.1272670364
0.05955151324
0.03765922634
0.04144549524
0.0516621041
0.03269221558
0.0365265443
0.01923060829
0.01823059346
0.04480700436
0.01322283977
0.01320592122
0.01028605006
0.01917114322
0.02275479308
0.01363135132
0.01935143907
0.03440361117
0.02653395268
0.02014946575
0.02963309145
0.09400209806
0.08267444875
0.1000413482
0.09634084802
0.03074545028
0.07462511891
0.07251564077
0.07944025929
0.07538346955
0.0364709205
0.1152132626
0.1111351769
0.1217652576
0.1166516111
0.03704412249
0.03291544138
0.1048234865
0.1013038769
0.1098225039
0.1060407197
0.03324861324
0.008921166999
0.008768424848
0.0317805597
0.02870119941
0.008703070701
0.008974782242
0.0437318605
0.04297744003
0.04587422047
0.0439912494
0.04157979208
0.04054489347
0.04272605908
0.04184965428
0.06929690663
0.06741392745
0.07185939491
0.06994915116
0.06210570615
0.04855347303
0.06662996992
0.06460226275
0.02083723195
0.01774650971
0.02676379745
0.02249408053
0.006578173686
0.01146848379
0.01078664023
0.01657786303
0.01172501924
0.03647943726
0.03707823536
0.09969752589
0.02171042838
0.02149275829
0.02237026806
0.02189517076
0.02082046335
0.08656482735
0.02318823177
0.03431303766
0.04125931839
0.05427206184
0.1225346713
0.03777257981
0.02452611975
0.04040722637
0.03745704613
0.02314649736
0.02260507319
0.02408196811
0.02336843499
0.1114454429
0.03935274159
0.04023366571
0.00723085526
0.02418826968
0.01078291828
0.01072859813
0.01052500122
0.02255405313
0.008976730946
0.0174714543
0.01230136935
0.01269404473
0.05116293432
0.04473577198
0.02047523947
0.02095847773
0.07501751044
0.06704541038
0.01959516812
0.02041406895
0.01211057833
0.0293801511
0.08446854613
0.07623184425
0.01377600826
0.01303477612
0.01828134654
0.01247168871
0.01417944592
0.01500451589
0.03174247036
0.009364303749
0.01395782879
0.01232954722
0.01410262557
0.02151002071
0.05099520588
0.1081698589
0.1400132716
0.01160885359
0.01115446441
0.1862345691
0.2367008847
0.1941923656
0.007664319627
0.03222753
0.01343826419
0.01603110538
0.1350182793
0.1407791258
0.1582157559
0.004659921447
0.007060185541
0.005236269307
0.004831334881
0.005572513225
0.004358069762
0.05425142713
0.03386843314
0.02153349829
0.02467235106
0.022912667
0.02648454176
0.2115685489
0.3514334642
0.3611829303
0.3309839425
0.3438413545
0.215045207
0.03850185514
0.03368222515
0.01218494547
0.05823304702
0.06922237572
0.1316892173
0.1201934531
0.1148642187
0.04906340861
0.02701313951
0.02749349844
0.0326921857
0.3578054949
0.3476688941
0.1865923777
0.1489158213
0.06759523639
0.07127211113
0.07424655746
0.08465568804
0.1618625173
0.05961198815
0.1281742366
0.1220487069
0.01199120145
0.01192441951
0.01356469961
0.02036398087
0.02066250653
0.03351079574
0.01181587174
0.01235083242
0.01210392196
0.02362333648
0.04620733866
0.03987455719
0.01922503144
0.0321007658
0.01991436204
0.02009552941
0.0196365307
0.01411127931
0.01011528007
0.01148907437
0.01132639337
0.01194891695
0.02063188834
0.02562588181
0.05093173955
0.04031799971
0.03592452721
0.03275857787
0.02415608715
0.03770693591
0.01381940074
0.01869991272
0.01288069646
0.009325258164
0.009378484333
0.01313378779
0.01291798777
0.02208125772
0.01402667837
0.009756971701
0.01628760244
0.01862818347
0.01733990694
0.01263311321
0.01586702073
0.01481091811
0.01049661103
0.0108757156
0.00678404252
0.01014856403
0.01040132462
0.0516844289
0.0468196141
0.01936784503
0.009721538936
0.01211773535
0.01122892606
0.01166270227
0.01317244842
0.01214934151
0.04752219981
0.03694594815
0.042441692
0.06557303642
0.09161820208
0.09038552895
0.04154985149
0.06650334701
0.06302002666
0.08937731981
0.08781458501
0.06320951269
0.03122264772
0.03773030424
0.03415721516
0.02632322938
0.02711038251
0.02234770371
0.04628809686
0.04501464571
0.04814970598
0.02389801142
0.03423613042
0.03261272517
0.05229796083
0.05193317885
0.03117078157
0.0289771409
0.02857215416
0.03157226489
0.03087301888
0.03552397951
0.05807703727
0.05749673666
0.06148081516
0.06076150178
0.03828858968
0.03215104218
0.05347101609
0.05297334173
0.05689854772
0.05630727768
0.03408849714
0.06507445295
0.06691701744
0.1472943987
0.1364924971
0.06269030649
0.06448802822
0.0912191399
0.09421659743
0.1755577331
0.02699271359
0.02684627554
0.02833799594
0.0281207186
0.02063249293
0.02658194781
0.02647420815
0.1636187004
0.08679371262
0.09010026229
0.009418961405
0.009387708969
0.0109739426
0.01061168829
0.009622243563
0.009232365259
0.006540159503
0.05279527869
0.02063345801
0.02523420199
0.1360733223
0.1302166351
0.06283010859
0.07221114451
0.1430459204
0.137814873
0.03280290493
0.03285837253
0.05002021286
0.0483497489
0.03240863168
0.0323482437
0.0116759734
0.0234449678
0.03743103479
0.0367438177
0.008956248182
0.0149192034
0.01606688447
0.01434409969
0.01398154687
0.01898750343
0.0192296211
0.0313406089
0.01307766988
0.009509366072
0.01289338954
0.01344802723
0.0293324183
0.01847978263
0.0190746169
0.01362381969
0.02881349475
0.02382280493
0.01174863746
0.0117137074
0.01112428595
0.0112484816
0.014252256
0.006333940126
0.00409790818
0.007315854095
0.01143432585
0.01133325813
0.01127757014
0.01102383135
0.01137925882
0.01100522597
0.009825266493
0.006454680443
0.005195116903
0.01041110556
0.01071722179
0.01003874481
0.01015550854
0.01177400381
0.01800716335
0.01822968906
0.01765881079
0.01783579733
0.01165222137
0.008653772159
0.01356828873
0.01355621438
0.01402366702
0.01367369398
0.008594223944
0.01295358745
0.02026941629
0.02252357494
0.01850066751
0.01907842232
0.01254532624
0.008701859029
0.01357950456
0.01359114375
0.01352642612
0.013568373
0.008675510185
0.009718219506
0.009886254444
0.009408371758
0.009835452259
0.03759259641
0.05673415358
0.05627415284
0.02191086231
0.03647979803
0.03622433278
0.03780954911
0.0368486445
0.02212204059
0.01251635124
0.01202175043
0.01235108624
0.01260081172
0.02058118311
0.02038627618
0.0210227035
0.02079607104
0.01606554085
0.0356300966
0.02126789249
0.02219804896
0.02123970248
0.03572230432
0.03550048167
0.03606204334
0.035876531
0.02136758453
0.02195302656
0.02133705926
0.03205081398
0.02295452172
0.01648523252
0.008413092815
0.01202870813
0.0117740905
0.008314295504
0.04381001857
0.03054518114
0.002974567929
0.03047517984
0.04660180129
0.04626916517
0.01901644956
0.01196689383
0.00880901737
0.003379654956
0.01374448267
0.01417680393
0.01967179252
0.01984108355
0.03203529309
0.02005784334
0.01066342341
0.01138913113
0.01443461812
0.004711381898
0.009078572063
0.006900079649
0.00717324859
0.007568348143
0.009993968486
0.006648193815
0.0114594369
0.01135387521
0.0114322273
0.04005910169
0.03118047857
0.008125075761
0.0101369113
0.01123576693
0.01836290703
0.02055026051
0.01206537352
0.01495106405
0.01440453049
0.01120325621
0.007364128642
0.01114606767
0.0127281455
0.008925400737
0.01258430356
0.0127986803
0.01277055686
0.01310827782
0.01290498343
0.01292332559
0.01281683076
0.01280153641
0.01330072635
0.01327699858
0.01296656648
0.01334687496
0.01362201318
0.01355332724
0.01683104548
0.01866140764
0.01657426988
0.02509263331
0.0207729309
0.0160544871
0.01505294554
0.01631486319
0.01001078243
0.01592500585
0.01684468177
0.01146110621
0.01586196279
0.01066481179
0.01098018965
0.0173159842
0.01746990629
0.01692618239
0.01715669394
0.01082244211
0.01182074557
0.02040824152
0.02003744063
0.008938842467
0.00889142027
0.009510842106
0.006721790045
0.008984414746
0.008915836702
0.008676330402
0.007397930924
0.00966933333
0.01685427638
0.0150370911
0.019493113
0.01847933388
0.01080492548
0.01020254175
0.01050196219
0.01315571231
0.006928500001
0.01049848124
0.01035166721
0.01088163811
0.01020223956
0.01035086884
0.01541594135
0.01374080299
0.009934889718
0.04589508317
0.04301862106
0.08120133067
0.07307169326
0.04345916953
0.06295441673
0.08703329834
0.08378900953
0.03439785544
0.03170801181
0.02961985491
0.02250568152
0.02900590571
0.04191693855
0.04215996927
0.03733768248
0.0191590167
0.02763677027
0.02805529587
0.02511569311
0.02597222173
0.01808018113
0.01243823928
0.01334428625
0.02047653746
0.01438438889
0.01371736774
0.01539504018
0.0146332393
0.02076196406
0.01404344966
0.01464800558
0.01150330741
0.01498406977
0.04800698687
0.04818920841
0.03103238993
0.03072721104
0.05100058696
0.05099093501
0.02965545077
0.02927062374
0.0304178764
0.03000054875
0.05913814608
0.05858541667
0.03591635757
0.03764913286
0.06021318337
0.0596819095
0.05461757035
0.05409042792
0.03257340879
0.03362792723
0.05570577928
0.05515628449
0.008837318081
0.0136698383
0.01370497248
0.01362907913
0.01366505788
0.008815250756
0.008999244293
0.01275878267
0.01112418126
0.0136490475
0.01343052505
0.00901339405
0.04346875992
0.02571462026
0.02598205234
0.02529151978
0.02549710087
0.04322858376
0.04477085405
0.02692067712
0.02740793079
0.02624703111
0.02655562578
0.04430301996
0.04120579423
0.0240776785
0.0243144479
0.02371180064
0.02394029478
0.04097469851
0.04245255857
0.02489824993
0.0250883212
0.02447932105
0.02471056304
0.04218271744
0.02742568757
0.02724145059
0.06867815518
0.04642268325
0.04673445294
0.04574569327
0.04601925877
0.06799233424
0.02786540295
0.02766108196
0.02533587521
0.02658730697
0.06007973782
0.04208292165
0.04178713913
0.0283098303
0.02971643398
0.05378297529
0.06616165255
0.04506607616
0.04526157348
0.04436895899
0.0443212003
0.06497665221
0.02615164257
0.02619463048
0.009444069641
0.009545565006
0.00943665962
0.0103297214
0.009767510356
0.01115821635
0.009244475189
0.009276903931
0.009090157751
0.009167255297
0.01109452385
0.01484456858
0.009611539009
0.01034393347
0.009352611225
0.009220238648
0.01287311577
0.03639958768
0.05422693973
0.05392811186
0.05560138645
0.05524768715
0.0369813792
0.02166450991
0.02142364152
0.02224475074
0.02197179004
0.02190436593
0.0171186662
0.02441599641
0.04468292882
0.04012015255
0.05177511212
0.0500036658
0.03460297131
0.02661837686
0.01851648085
0.02380235076
0.02531045379
0.03974029091
0.02335740378
0.02364573799
0.02266563231
0.0234101587
0.03980628312
0.02297925196
0.02275488229
0.02381067774
0.02356403842
0.0109056255
0.0110950717
0.01093191616
0.01293143879
0.01169605275
0.01093606668
0.01051608254
0.0106359886
0.01067024916
0.01068200915
0.007092316933
0.0126983758
0.01216605125
0.01232835209
0.01239727093
0.01228194569
0.012662654
0.01992676563
0.01988332527
0.0201808654
0.02011552455
0.0306993217
0.03066266023
0.04634333089
0.0191139107
0.02016618918
0.01964727591
0.01971718248
0.02068774208
0.03491142538
0.03454958812
0.03533855604
0.03505868427
0.02076824926
0.02014673278
0.03385910702
0.031982424
0.03442822805
0.03383616195
0.02012996619
0.01215387982
0.04467201085
0.04412995894
0.02915991861
0.01397212263
0.01132797169
0.01102926031
0.008410849008
0.01152809452
0.01324099569
0.01884315451
0.01320549486
0.01448490859
0.01417919468
0.0314571537
0.01934436799
0.01954708473
0.01282694876
0.01263223711
0.01270524617
0.01362714967
0.0133532122
0.00899605966
0.009294475099
0.01392599124
0.01281991211
0.01341247063
0.01570298207
0.01936492553
0.02934364755
1.155708178
1.15650788
1.156177723
1.156837819
1.147194155
1.15698103
1.094516893
0.9372363876
1.116078521
0.9067394772
0.8195258348
0.9692307865
0.8060026029
0.7782969933
0.921140708
0.781713778
0.799757709
0.9496350588
0.8135190945
0.8982111459
1.073423731
0.9286240883
1.078090319
1.157397013
1.127679306
1.157110921
1.156503953
1.1567765
1.155935387
1.155901093
1.156285961
1.121139302
1.156739491
1.045227798
0.8502074505
1.07313551
0.8007616461