/*--------------------------------*- C++ -*----------------------------------*\
| =========                 |                                                 |
| \\      /  F ield         | OpenFOAM: The Open Source CFD Toolbox           |
|  \\    /   O peration     | Version:  v1912                                 |
|   \\  /    A nd           | Website:  www.openfoam.com                      |
|    \\/     M anipulation  |                                                 |
\*---------------------------------------------------------------------------*/
FoamFile
{
    version     2.0;
    format      ascii;
    class       volScalarField;
    location    "2.34";
    object      omega;
}
// * * * * * * * * * * * * * * * * * * * * * * * * * * * * * * * * * * * * * //

dimensions      [0 0 -1 0 0 0 0];


internalField   nonuniform List<scalar> 
12556
(
31.93142198
31.93236454
31.93331043
31.93412466
31.96680306
31.96783074
31.96899844
31.97130986
31.97556701
31.98193476
31.98953488
31.99577968
31.99686638
31.99384593
31.98701729
31.97980633
31.97434181
31.97037591
31.9687664
31.96745695
31.93352186
31.9324084
31.93140498
31.93048374
31.79610274
31.7987123
31.80121634
31.80339806
31.83708616
31.84096966
31.84747703
31.87246168
31.89186201
31.92158023
31.95786364
31.99069501
32.00022416
31.98537681
31.9531869
31.91879409
31.89120388
31.87308568
31.84654151
31.83983407
31.80288629
31.79934744
31.79622436
31.79349805
31.66256108
31.66720298
31.6716001
31.67538902
31.71006727
31.71868982
31.73387076
31.77162545
31.81702317
31.88237798
31.95978994
32.02705245
32.05358655
32.02412236
31.9552526
31.87842807
31.81683476
31.77399852
31.73141595
31.71655562
31.67501741
31.66902277
31.66353663
31.65894047
31.53062587
31.53657317
31.542441
31.54829383
31.58638787
31.60311462
31.63532447
31.69748673
31.78673981
31.91397628
32.06407172
32.20621218
32.27676832
32.21922739
32.07354524
31.91120467
31.78181324
31.69817721
31.62918723
31.6008397
31.5512125
31.54140724
31.53319336
31.5265668
31.40054848
31.40838731
31.41640348
31.42602887
31.46823007
31.4974775
31.55735909
31.65750909
31.82612597
32.07282298
32.3992702
32.79531219
33.0188695
32.91457259
32.5074671
32.11727471
31.82134164
31.65886685
31.54663185
31.49477682
31.43155802
31.41669883
31.40516532
31.39619528
31.27143613
31.28067688
31.29091095
31.30518353
31.35687402
31.40566297
31.50626343
31.66761096
31.96010057
32.43678499
33.26740681
34.77424563
36.01081785
35.42889395
33.81033696
32.70629799
32.00440368
31.66860898
31.48678237
31.40093206
31.31712063
31.29428548
31.27853195
31.26699884
31.14460461
31.1558804
31.16981205
31.1914138
31.2535559
31.32812391
31.48135801
31.73899862
32.22351364
33.11580112
35.29272239
42.77193182
50.41528962
46.74311186
37.45577437
34.00530124
32.41197157
31.75419331
31.45184384
31.32110322
31.20845055
31.17485199
31.15366099
31.13911387
31.01951475
31.03270242
31.05062797
31.08156507
31.15807298
31.26461227
31.48763512
31.86797563
32.60433669
34.11483729
38.74437504
63.12355409
82.03908915
45.79224001
36.35791464
33.0923801
31.92484589
31.44448344
31.25432097
31.10632598
31.05877998
31.03067856
31.01278053
30.89944157
30.91545516
30.93930545
30.98245297
31.07158067
31.21454416
31.51756097
32.03660648
33.03663966
35.12988337
41.7322369
78.46194689
161.5956468
57.75564495
39.56025084
34.0101246
32.16754681
31.45836319
31.19934878
31.01124801
30.94728657
30.91102996
30.88927536
30.78405631
30.80265363
30.83225549
30.88795657
30.99512758
31.17640074
31.56536128
32.22145286
33.44911081
35.94433301
43.4514746
84.63183231
201.8467094
67.98890718
42.70037425
34.94255275
32.43503687
31.49253164
31.15438307
30.92398023
30.84170694
30.79605695
30.77000668
30.67693952
30.69922255
30.73641489
30.80743969
30.92803355
31.14835024
31.62220165
32.40009019
33.79958499
36.55514735
44.67071537
94.33757852
200.5660481
73.60644627
44.81926067
35.6834489
32.68289234
31.53389018
31.11749911
30.8444094
30.74330858
30.68772509
30.65691303
30.57621317
30.60141815
30.64488231
30.72986315
30.86848912
31.1280502
31.68102612
32.56011514
34.09339773
37.0520269
45.84563218
105.8555486
184.4781561
75.03134141
45.76776744
36.13952897
32.87924493
31.57117608
31.08513101
30.77256569
30.65211433
30.5864798
30.55063039
30.48459078
30.51360313
30.5656674
30.66583093
30.8139569
31.11109011
31.72888776
32.70324195
34.32914087
37.47365055
47.26286842
115.1652444
874.643501
157.5493653
73.61099479
45.81348508
36.27984406
33.00139093
31.59550317
31.05364216
30.70526847
30.56797295
30.491868
30.45132347
30.39750389
30.42972151
30.48908968
30.6012317
30.77171853
31.11028535
31.81624161
32.86548905
34.58988703
37.96539278
49.33234761
159.6755429
538.0679103
146.7976285
71.23153744
45.03325592
36.20197975
33.06990334
31.60353922
31.01942191
30.63946374
30.4883954
30.40283657
30.35734526
30.31636141
30.35167936
30.41734903
30.53950098
30.72285371
31.09296318
31.86418847
33.06253506
35.04478929
38.76049888
51.31564238
385.8439931
384.0255491
134.8532333
66.77162785
43.88834398
35.98042401
33.09061062
31.59015693
30.97895566
30.57467602
30.41150087
30.3171269
30.26775104
30.23526369
30.27337215
30.34445481
30.47598065
30.67217179
31.06789015
31.8918302
33.31568872
35.86503234
40.62421236
58.54888646
756.2834686
309.8137017
115.9211055
60.8107427
42.36679026
35.71046306
33.05505063
31.55456254
30.93004178
30.50601997
30.33334917
30.23207863
30.17875821
30.15643628
30.19726206
30.2725488
30.41080886
30.61695023
31.0331638
31.89545791
33.51648363
37.0458712
45.02179042
96.71085559
993.1078554
208.0546
92.93713207
54.56482471
40.86637398
35.50604203
32.98696704
31.49989282
30.87196318
30.43414024
30.25442613
30.14674935
30.09059237
30.07322044
30.11643331
30.19523824
30.33971933
30.55546404
30.98690222
31.88273939
33.57364609
38.09660504
54.68075051
319.4167106
587.1128611
148.8845283
75.8103461
50.17781069
40.01224603
35.35053082
32.89575149
31.42788656
30.8013668
30.35418049
30.16916819
30.05770278
29.998949
29.99016499
30.0356927
30.11720463
30.2653008
30.48687839
30.92921249
31.8494586
33.59559696
38.44209174
66.77845815
548.3556541
287.5126798
119.94641
68.03927469
48.60359468
39.68927491
35.17989115
32.7865828
31.34294479
30.72077354
30.26864444
30.08044037
29.96615239
29.90585154
29.89997089
29.94734843
30.03132012
30.18333759
30.41128963
30.86121907
31.80034945
33.59424322
38.75265059
72.77805471
517.8749624
249.7024057
113.4103651
66.84316218
48.02985751
39.39283364
35.00583774
32.66656991
31.24802482
30.63122069
30.17522493
29.98456438
29.8684002
29.80718301
29.81015868
29.85913949
29.94498379
30.09859438
30.32902853
30.78436191
31.73827079
33.57487478
39.08888627
77.52131479
481.3623875
233.7036159
109.9425735
66.00617402
47.57478757
39.12609412
34.83507041
32.54066314
31.14558785
30.53396731
30.07728299
29.88589018
29.76874205
29.70706797
29.7118815
29.76184775
29.8494337
30.00578591
30.24081841
30.70010388
31.66593644
33.54247832
39.48799927
80.64007113
447.2454081
221.0269246
107.0915645
65.32197157
47.23610211
38.89472155
34.6720023
32.41256777
31.0376822
30.43045354
29.97216485
29.77985277
29.66216282
29.60048919
29.61616195
29.66679903
29.75543616
29.91201108
30.14723455
30.60978921
31.58577662
33.5029811
40.01587403
82.6000116
416.3530291
210.6947118
104.7040987
64.74858379
46.98778453
38.70218579
34.52009367
32.28522859
30.92612501
30.32209582
29.86504342
29.67332892
29.5556674
29.49422473
29.51097019
29.56173891
29.65139454
29.81002839
30.04926967
30.51466785
31.50036777
33.46539221
40.65022222
83.72116158
388.4162345
202.0118993
102.6721686
64.2618399
46.80087737
38.54635145
34.38152433
32.16087906
30.81256003
30.21025268
29.75163263
29.55937169
29.44174425
29.38076507
29.41181302
29.46251518
29.55247166
29.71016954
29.94761243
30.416
31.41242294
33.44010337
41.2849862
84.19338636
363.1055728
194.6588461
100.9157979
63.84404021
46.6559405
38.4212374
34.25675688
32.04091879
30.69831067
30.09604227
29.6393207
29.44822619
29.33104994
29.27060757
29.30130207
29.35158478
29.44204687
29.60159313
29.84344665
30.31494094
31.32427035
33.43411661
41.8405099
84.13428198
340.0881557
188.2603776
99.37257549
63.48111368
46.54164498
38.32051444
34.1449304
31.92597913
30.5843242
29.98047167
29.52059895
29.32856602
29.21153337
29.15172176
29.20148613
29.25129628
29.34157549
29.49929956
29.73725207
30.21245228
31.23764932
33.4471922
42.29550009
83.67989679
319.1438057
182.5852523
97.99897131
63.16302824
46.45135442
38.23917762
34.04468872
31.81620101
30.47126424
29.86423584
29.40665809
29.21606073
29.09957972
29.04038547
29.08664458
29.13576881
29.22627088
29.38608157
29.63015337
30.10926909
31.15374905
33.47496116
42.65419583
82.95233947
299.9595621
177.4663641
96.76345126
62.88259709
46.38073752
38.17351238
33.95461861
31.71145198
30.35956164
29.74801643
29.28436573
29.09199185
28.97553428
28.91696886
28.98883018
29.03732471
29.12740002
29.28470972
29.52213371
30.00597799
31.07328887
33.50983109
42.92336707
82.01444083
282.2885794
172.8027264
95.64195769
62.6337395
46.326164
38.12056021
33.87341234
31.61150007
30.24951254
29.63212374
29.17191896
28.98121566
28.86523764
28.80723533
28.86963772
28.91734897
29.00747831
29.16733422
29.41434893
29.90305419
30.99654942
33.5451444
43.10975665
80.89488703
265.9318035
168.4932715
94.61043192
62.40924574
46.28380345
38.07777893
33.79989942
31.51607257
30.14131332
29.51708164
29.04625942
28.85269743
28.736537
28.67906608
28.77654926
28.82362011
28.9132633
29.07017694
29.30621392
29.80087614
30.92339064
33.57620783
43.2234348
79.64520191
250.6809936
164.4382756
93.64368319
62.2010717
46.24994393
38.0430475
33.73307134
31.4248924
30.03510834
29.40290827
28.93863192
28.74696179
28.63110156
28.57405886
28.65185118
28.69811908
28.78766028
28.94741069
29.19921591
29.69977425
30.85340869
33.59993684
43.27436135
78.30641888
236.4353178
160.6155399
92.72280486
62.00250273
46.22153422
38.01462458
33.67204232
31.3376777
29.93101034
29.29017148
28.8079093
28.61236671
28.49613329
28.43948247
28.56669335
28.61239056
28.70154099
28.85854194
29.09212213
29.60007636
30.78621497
33.6152904
43.27654072
76.95293719
223.2551968
156.9876292
91.83361406
61.80864468
46.19611271
37.9910038
33.61599595
31.25414133
29.82916119
29.17864593
28.70974644
28.51592634
28.39970444
28.34331941
28.43400154
28.47889487
28.56776273
28.72689261
28.98738078
29.50226532
30.7215308
33.62256164
43.24361019
75.63060996
211.0518338
153.4962746
90.96390426
61.61547164
46.17150471
37.97082766
33.56418301
31.1740194
29.72985224
29.06937473
28.56930502
28.37156429
28.25484312
28.19870916
28.36076484
28.40522517
28.49388501
28.65231014
28.88324621
29.40710553
30.65939465
33.6220389
43.18225354
74.33992168
199.6704222
150.1312002
90.1067661
61.41962278
46.14577092
37.95286983
33.51589657
31.09699719
29.63382557
28.96241384
28.48831918
28.29027371
28.1732191
28.11716878
28.19149546
28.23503128
28.32334175
28.48357166
28.78477272
29.31618512
30.60067609
33.6138314
43.09648331
73.08415842
189.1896171
146.9090494
89.26360332
61.22014734
46.11752907
37.93612184
33.47062567
31.02294129
29.54305669
28.86115994
28.30806816
28.10542799
27.98738943
27.93142638
77.67490356
192.3976499
93.41588604
83.78349451
244.9822287
199.8427642
92.93431212
239.2143937
246.7739632
104.5435976
214.0065981
236.0296421
114.1113242
1078.523107
913.1623743
191.6838691
210.5682746
140.529473
662.5688622
1054.683228
561.9912049
186.5113139
189.5403909
59.69052922
49.80250591
85.12087857
46.223807
631.4810901
207.2492537
152.5542322
63.90219807
50.81384753
43.11251345
71.5332856
67.50045675
2177.001717
1547.131019
199.5563982
79.1530932
68.24440395
44.42042204
77.25019123
72.11209123
87.64797981
249.018748
226.6998998
1173.286753
1658.407693
202.0938408
87.37030942
81.92785964
45.62820475
85.79153013
78.18988091
98.49618619
347.3748684
282.4106701
633.7874207
857.4275703
47.00217337
96.47904903
86.83373116
107.6601561
514.5615971
418.0951689
2614.452657
404.8751453
471.4999996
49.00809224
116.7238335
98.0552059
123.2234647
1074.596926
721.5186388
153.3234272
499.7276488
652.6685088
198.3026938
229.2343097
120.6130593
191.8834051
1506.67969
667.8438804
150.1325388
530.3706093
1041.655564
223.9884089
205.8659028
81.24258982
267.8046183
278.8847836
234.92412
265.0434852
1680.21585
2177.087605
225.3400702
1493.693348
1271.710047
1076.609542
1490.385124
222.4599646
279.3329911
252.7209746
88.84115001
320.5161142
362.0315496
280.907761
317.3519545
899.155438
1145.941804
245.3599248
854.6327995
662.6868537
1256.417805
888.8388884
246.8347967
414.0100204
350.578002
99.88733942
424.976945
521.5085956
364.7535561
421.1898714
485.9676627
608.8931999
711.3342548
523.6844176
107.945919
3570.431858
702.8708235
1047.815733
526.3637416
687.4984569
3980.038624
370.7594821
397.9987507
2305.447057
8572.735341
1082.754865
124.5298072
761.7736398
1674.310365
7824.17305
1055.957864
1648.579903
783.1362538
41.14225977
66.75020182
55.67622545
71.81050811
156.3077447
104.4951507
3957.309164
695.3865381
80.75178516
203.5935389
181.9034201
6453.275694
186.9812439
89.58713792
88.44030178
6173.968873
914.5647789
1019.266519
689.0193808
327.8504595
357.8930818
179.2217487
160.1608366
73.72598459
1467.318284
293.5274909
663.4928717
171.476443
467.7782909
138.2640442
1040.920302
1343.401251
223.2156647
501.6120534
426.4981592
639.5658223
515.8475417
226.7589102
1559.415321
4809.964222
929.1018437
84.06130855
66.95137197
108.95723
179.3051338
80.5853239
86.51319888
5597.712101
438.8240995
3904.997253
507.7142053
2848.3959
394.1673504
1771.004635
1747.769402
1371.22207
1405.151036
2628.640127
5487.98459
717.573238
3204.476286
1707.102892
6211.046871
3715.948907
750.3049898
452.6351969
183.0147325
190.4475865
767.2535869
871.3111293
5621.277789
774.6440717
232.9585023
245.6726313
217.6250799
228.1460957
771.8510396
1339.103314
1469.337428
212.3415673
952.2729856
789.77292
1404.937152
952.126694
216.2146089
157.6010738
490.7220856
233.4121552
704.7365425
523.6285342
169.1796191
693.2256591
994.4464062
1055.995081
999.0119061
267.2689117
1507.890711
267.5855808
249.8078716
1471.066353
1423.070988
1503.744791
1476.481082
253.7957989
1798.102554
1818.963221
1363.358313
448.0990885
437.564499
449.2114392
449.8179274
1351.760456
1266.58754
399.0562829
365.2964222
431.8776431
409.0243851
1289.077107
339.518562
342.2110246
296.2641371
298.5004685
959.317005
6431.427471
978.2869962
453.7435879
460.263774
392.4689708
396.3304937
1609.178043
1162.831333
547.4184353
1427.528717
2427.568024
573.3475878
204.482678
214.0179358
193.1343168
201.5248067
565.0981111
1731.681456
745.5704272
757.5088293
561.4265682
565.8069975
6315.506342
1281.183581
655.7640392
735.7710198
251.1193085
261.1259008
1317.393721
2656.263123
2227.486299
3263.557204
1088.430911
6895.71484
3507.397831
5979.485496
1084.513375
881.1148306
4430.069031
2694.293535
4704.039407
2468.988162
3297.640174
50.53842192
118.9629757
119.1325351
171.5207137
4250.978095
7980.107689
402.1663562
170.8228616
182.665036
1366.804555
3728.142582
4947.040547
570.2654366
630.1151585
1199.136793
299.963312
318.0629954
670.204821
174.2953592
128.2050037
265.3419628
544.563652
158.4226263
187.7845206
2051.700266
5188.35161
5327.843928
1648.645854
1260.190855
3642.374215
2609.975389
6174.509437
6030.393362
1576.527235
321.7303672
153.4474625
158.1023078
147.7379392
151.9701758
316.0345414
174.3461254
180.8244175
448.2190988
994.3464466
411.7269001
429.3894855
6642.273373
3506.508897
607.1839703
1307.750449
4777.011775
5188.808369
716.6278559
292.0798069
243.808245
351.4423116
308.5502785
751.1367619
1734.032772
6125.320161
6187.510807
2061.67506
267.2050213
142.5078726
146.4057194
713.375685
701.1714508
353.2321738
2457.407496
2242.034956
1073.497546
766.1060075
396.6782639
413.6738858
1109.065063
438.4555575
447.4147598
419.6416317
433.960895
1085.989405
378.280915
166.6317531
172.358828
159.7221109
164.8261247
374.0619948
436.379468
1008.615061
999.8233401
1570.833209
1526.754234
501.4698749
375.3919609
748.4898537
715.3987421
996.0382621
990.1193597
410.3763575
529.1014643
1118.092244
902.4131852
6381.34931
2640.133903
724.8767003
890.627179
540.8925949
1601.794315
1577.811572
1605.759973
607.1857605
5453.07497
8655.240165
325.9777121
365.3180321
435.9059563
451.5225716
1088.512831
2486.529141
1529.079429
703.4243926
1688.773006
8443.292879
2285.834788
2099.358868
15873.09974
1065.064515
1571.250429
2401.383079
2927.530517
2179.07095
6419.166378
6520.009039
1635.277998
2176.945783
6361.943899
1510.188366
1447.037293
452.8000368
1722.972546
705.332075
1691.767078
495.9019153
4934.191086
3608.076675
1180.245133
5629.094784
6444.322115
5023.269405
3779.769447
1296.529493
5161.920932
6255.279733
3741.559674
4934.180834
6628.719319
2596.819558
3402.105559
1866.105337
2342.854101
5958.601567
5828.747375
1601.322295
967.9253595
2649.471434
1768.633149
868.0760899
536.6876508
1606.336803
5507.016947
7072.079515
1950.491666
1672.029598
5385.803544
5513.749295
4029.646132
3762.605273
1292.446616
6279.824568
6179.729877
4648.695511
6101.740975
6140.816771
1531.637666
6149.767344
4142.572716
3819.58562
4276.270655
2370.953093
1088.196634
1179.595641
4829.267817
1387.354127
1578.522652
1216.630468
1330.235422
4557.370718
4301.354148
1253.39104
1496.81586
386.0539973
405.6757143
907.5465958
746.1157291
367.2214447
381.1849948
1439.4071
1449.154198
946.0238722
360.8191941
381.0166106
335.6807999
354.8702126
939.947865
995.4492341
424.5538341
458.9725174
388.0371381
414.461252
1002.892861
641.5027778
308.9833396
329.9082774
917.1050346
948.3820692
3427.085452
3555.886043
1239.378082
5026.405031
5164.99485
6498.953829
3552.333363
2954.575312
5044.131158
3504.657814
834.8494782
2447.814424
3281.161057
1541.241637
556.33319
619.5181574
532.9389181
545.8620397
1509.003436
666.4287474
675.6951087
640.0356793
663.0819024
1456.168584
486.960128
498.8688455
467.1300004
482.7526494
1449.165449
1491.972871
517.8130408
528.7214802
502.7447858
514.0947849
1490.571681
5981.900763
6075.87648
1751.268427
1975.28032
6271.628082
5952.649792
968.1335921
971.7078494
944.7381294
967.0264091
982.213042
993.3819956
973.1277201
979.9504023
690.33091
699.5293543
678.5838781
687.2246513
737.6536585
903.5126273
704.0763386
715.6816885
2087.792246
2465.560562
1648.136692
1936.892686
6696.945206
3957.108944
4361.442951
2645.828795
3815.259262
1020.795697
1014.004845
440.5085522
1601.941337
1606.111005
1571.900371
1593.243057
1649.1743
490.8751418
1492.100071
1072.007998
962.530682
768.476299
379.356136
1039.144422
1482.358078
993.9248872
1048.83571
1539.056123
1560.929867
1501.174219
1529.850305
406.8656249
988.3774554
979.8816379
6514.33424
1709.476622
6457.873122
5621.825893
6435.870786
1838.029525
6593.388453
2346.999342
6322.50089
5539.660583
731.2239513
808.6712389
1633.342049
1606.779407
545.4514041
591.80095
1694.523515
1635.755517
6268.516206
1126.597499
462.6508969
502.9044158
6379.056472
7203.260574
1757.765979
7810.388672
5791.787333
2764.306359
1066.460279
6894.703561
4253.750726
7604.216006
4659.241365
1516.180072
75.59633147
46.99169111
38.87453398
6365.518931
6339.907369
173.6265631
88.2606424
89.49839749
6585.246736
1226.841068
3474.077982
2630.236219
415.6976612
345.6859056
202.169258
442.0299965
292.5326156
713.0360255
2606.351223
424.7118566
484.9353054
60.93622658
73.36224021
154.5915658
549.489774
1128.756026
1683.009421
238.6500765
132.7439668
136.4909645
127.5593167
131.4884031
235.5127578
1066.086409
1193.764147
3835.671499
860.9186209
755.4468577
440.7412928
350.3991846
363.0421778
741.3420801
1834.446556
2353.686552
783.7832987
137.6753492
141.2669106
263.6028953
328.8407694
670.9675991
646.8895469
625.9371971
562.3753793
308.3300745
636.1545308
333.0700038
346.1940569
5084.589077
4803.198767
3252.06321
1610.529476
1589.753853
1026.520479
4454.016079
6219.80747
5650.651208
1688.244209
937.3115552
1039.017083
1677.252357
1060.545105
1642.280985
1629.991946
1647.653262
4263.063167
6253.160483
4307.949514
4694.492533
6115.88103
1981.373588
1577.387745
927.7306695
1482.68837
226.8595403
177.7108221
331.7474324
1139.223917
3131.466402
2203.830807
6401.267019
6734.755788
6874.884256
5746.747945
6566.504197
114.3348545
149.7635605
418.432732
4537.608601
2938.275632
2252.500182
6115.929028
4665.955128
2897.673332
4933.821333
4548.714293
6763.810768
6424.434861
4890.038765
985.3491516
1063.304301
2170.166585
6366.473102
3683.420394
4070.751052
5002.90897
3347.907706
3796.372499
1386.852694
1809.843715
1464.359454
949.9608419
662.3224685
669.6390683
1370.950398
876.3318725
917.0562028
675.0016769
683.8822027
962.0249447
275.0233597
302.5745565
615.5371712
774.5011505
1351.677122
1003.901351
1479.485876
1530.833296
1001.856682
1825.174003
1353.853925
1402.020805
972.2028591
973.3646846
1510.768171
1488.609623
1499.247208
1431.18149
1449.633507
1464.688092
943.4010587
945.701827
932.6661986
936.5845982
1433.60961
1499.99748
965.0041342
967.5161772
948.3242371
951.0578587
1481.338998
684.4662837
674.6448329
331.5534233
350.5298039
697.8451214
687.6354059
534.2090386
523.641379
289.4810809
1524.293788
1525.765776
1502.618343
1505.88608
1852.631215
1531.127657
1531.683295
305.7422638
551.7510026
538.5209188
6425.05065
6361.630632
4256.672428
4495.371108
6389.368279
6427.90482
6645.973774
1051.065246
2154.909863
1787.845902
317.7614484
328.9242521
609.5947964
548.6782946
305.6984215
314.6293458
1055.047023
1055.138651
742.6652927
759.7217591
1061.873296
1066.079834
6277.941487
1392.062837
921.0253345
909.0897886
11672.13456
2171.544573
2601.954356
5272.992052
4497.024197
1704.606313
1685.154439
1075.342489
6676.629962
7246.520032
6938.311511
5540.243661
1138.867355
1746.592151
1694.502669
3522.930641
1385.482691
1682.961583
6248.714687
6173.703912
5021.201499
4707.203617
2996.614617
1529.690148
2262.688432
1965.980064
4205.588486
6333.0829
5543.628926
6416.234245
6169.661084
4647.394018
264.7623169
382.1837202
1395.02637
5321.456539
5208.140079
5452.836834
5418.610029
5266.201688
3430.460874
3413.8396
3440.284355
3431.851904
5258.835261
6203.383348
3457.625398
3488.585261
3305.268652
3408.634483
6301.255305
4960.841734
3136.419608
2828.900985
3392.342412
3311.561949
5074.526761
6104.182579
3566.6165
3596.190003
3522.971113
3541.173608
6151.831678
5591.799737
5485.497539
5696.329308
5452.43554
1007.15684
715.1327498
718.338727
1557.99791
1010.596089
1013.880654
986.1591009
1004.959406
1547.29205
6111.791429
6308.887369
5623.522382
6187.540104
1612.75999
1625.248934
1586.580639
1600.194732
2034.167509
975.9452921
1547.852752
1489.705751
1592.759835
1018.376923
1021.3121
1015.165104
1017.121268
1586.615353
1527.83057
1566.601282
1087.728906
1470.895315
2012.073407
6524.217344
6167.111663
4934.68877
6346.258905
825.885736
1142.315483
13048.85136
1090.828895
761.2828418
763.8322043
1693.529569
8130.499364
8433.260231
9782.926201
6271.454405
6031.294509
1656.735462
1646.051464
1061.043094
1615.579663
3469.399195
5189.82265
3590.972661
4576.552838
3534.223346
1473.276109
4762.688431
3536.040157
6477.080746
6726.103607
6324.106668
5032.809905
5629.878748
1479.942128
1787.553353
1619.79604
794.5312709
1009.882163
1485.82768
1565.289065
1033.532704
1460.858204
1918.677655
6269.641643
6487.443746
6187.761088
5739.188967
6511.548967
6457.630049
6324.699896
4138.708223
5624.106533
5185.712447
6271.031484
6476.008555
4531.797057
4808.260534
5232.262048
6527.224583
5408.626814
4081.318551
4378.525912
4308.019511
3039.472437
4263.091895
2236.636491
3297.063351
4500.329484
4952.438824
4519.906133
5707.816347
3617.603503
3442.20148
4941.102139
3565.527779
5291.719761
5410.211019
3449.079276
3443.812744
3467.281232
3443.975069
5443.329709
3928.382251
2283.764879
2327.333546
6213.386167
6206.424794
5389.523986
6534.952323
6328.738183
6236.983917
6224.8652
6467.695823
5203.841494
2749.5466
3075.933685
2392.224936
2516.701415
4470.168699
6439.728341
5494.177595
3330.045673
6746.400315
6464.777287
6444.711188
4474.649005
6445.507816
6233.791422
2801.100265
3180.041014
5540.169314
1421.541764
1461.391731
729.8493151
804.543571
1326.934452
959.3753701
687.3481801
710.1251036
1455.586273
1426.92186
870.5305061
1514.440299
1852.322905
949.0522387
1489.207507
1482.000365
3422.869081
2308.01648
2273.840053
2536.996263
2454.44079
3607.093158
5380.2948
5058.005638
3323.270048
5018.656615
5234.067482
4714.414409
4951.522495
3268.277446
4932.496407
4861.992112
6315.454348
4642.817394
1023.956338
1015.966636
1471.080858
1516.003336
982.1043012
978.2656765
1474.879844
1483.51277
1459.45685
1468.413954
940.6616309
942.3055297
1463.026799
1441.741456
938.0331343
939.2241041
958.8149444
961.3259862
1495.136048
1486.925639
954.0400715
956.5295416
6041.168289
3673.034591
3699.283888
3616.12387
3640.715856
6027.484668
5980.692116
4089.315869
4744.830332
3750.636077
3848.853148
5972.769824
969.4243543
1500.995243
1492.742788
1512.778979
1507.258263
970.4488693
960.5936739
1463.897702
1448.041079
1484.816672
1475.422259
965.1495582
986.2571124
1548.550968
1540.559757
1560.154644
1552.382244
988.1703157
974.9158739
1523.402145
1518.620262
1535.911985
1528.705423
976.8768152
1517.12562
1519.697373
693.267638
971.9798696
970.3833594
976.1644418
974.8918463
696.788468
1510.403086
1513.333557
1567.582958
1491.859784
757.1491703
1023.147799
1032.346807
1416.422003
1367.912255
829.9994003
705.9691002
980.9280765
980.4985743
986.1183787
989.9161127
714.54993
1539.534266
1532.968601
6334.468962
6201.188273
6490.932313
4786.240627
5504.631432
4101.444317
6313.190179
6384.806158
6306.49155
6316.876211
4187.111062
2966.861652
5488.011601
4725.963309
6185.920777
6325.919288
3454.909072
1024.843481
735.8969458
737.3552414
723.895571
726.0749815
1014.32273
1602.290795
1614.149265
1576.702485
1590.892656
1562.037361
1963.166206
1434.109485
859.4276825
940.3779559
761.3739983
782.1933218
1061.845215
1396.628814
1901.614768
1522.089469
1449.322714
1003.990792
1571.485049
1560.554474
1603.465356
1564.651894
1000.201302
1545.410091
1555.193421
1512.165065
1522.231237
6221.081808
4349.467577
4591.576858
3408.325733
3946.428131
6314.242039
6434.846024
6246.454301
4939.958404
5528.496638
6743.104188
6146.856399
4814.32462
5048.795205
3997.799057
4412.851888
6323.428882
1653.608833
1654.646491
1638.457806
1641.627538
1103.796922
1114.832773
786.500482
1710.015138
1619.800003
1670.490666
1661.932823
1620.702184
1028.834611
1035.537279
1022.871917
1027.384703
1617.369213
1651.77379
1046.908518
1098.834071
1036.783071
1049.719939
1654.937853
6086.452883
788.1477114
792.2054045
1128.331001
6247.703729
8882.645998
9173.559576
8947.082583
8834.667709
6848.571923
1708.300706
6851.574567
5081.540246
5455.948659
1073.575958
1677.726516
1663.755539
6845.114965
7459.435831
7230.720325
5978.435966
6492.775191
7919.442324
7537.421301
5021.123809
7133.884166
6227.989046
2061.931336
1665.642472
1128.288798
31.79491488
31.82164859
31.88544589
31.83212427
31.87318226
31.91226012
31.88710144
31.9381855
31.94713741
31.95322801
31.99893137
31.9818491
32.00980201
32.0284563
31.99952261
32.02935683
32.01792843
31.993632
32.0081356
31.96351719
31.96300003
31.94897305
31.89829731
31.92814057
31.88506002
31.84339505
31.89794795
31.83244203
31.8037515
31.8771681
31.71311911
31.76664636
31.80406231
31.78776997
31.86817251
31.86509978
31.89661611
31.99186961
31.94222191
32.02340631
32.11809334
32.01345803
32.14047424
32.18214449
32.05317803
32.18836225
32.17717063
32.03554483
32.15570868
32.05632133
31.97418584
32.02697058
31.92127534
31.89713503
31.89077591
31.80865171
31.83022774
31.78584907
31.72947006
31.78218904
31.66448854
31.76611048
31.75965297
31.80721517
31.95742599
31.87895778
32.01467479
32.21047446
32.02670778
32.28240088
32.52021924
32.16980291
32.56815283
32.7070063
32.27392109
32.75076477
32.72948553
32.24091967
32.65960186
32.43747927
32.1214665
32.36579262
32.10276289
31.9500236
32.02671804
31.8457285
31.8101377
31.799175
31.69224727
31.71593898
31.65979718
31.839154
31.77627539
31.91504386
32.19795318
32.0032316
32.3187651
32.77706919
32.31109303
32.97298058
33.76558492
32.66768708
33.94491549
34.71839509
33.02122079
34.82482269
34.70113156
32.94750337
34.35441494
33.64446195
32.62871403
33.38289401
32.65662983
32.21029148
32.46600463
32.04195241
31.88189409
31.93916404
31.71293911
31.69228043
31.71513816
32.01443926
31.87248247
32.14153189
32.6654618
32.29495834
32.91003691
34.03172046
33.0117927
34.61751733
37.95275144
34.22577901
39.35205997
46.58306417
35.7998755
47.01511729
43.89541398
35.57516599
41.24053546
37.27939278
34.1671086
36.23279723
34.02162514
32.94884095
33.51969892
32.50565918
32.1408789
32.28119083
31.82110486
31.73028743
31.82756752
32.2854908
32.07631051
32.48886827
33.37839867
32.83097388
33.82941318
36.25969358
34.51110498
37.82480106
53.2434817
39.5545596
48.15734704
55.68949868
44.96589489
71.5362858
68.24157121
50.44735106
54.02862998
46.8342829
43.43817327
43.20601659
36.77314387
34.63792155
35.55115651
33.34595987
32.69533959
32.89865786
32.04155024
31.86691891
31.99026548
32.63779843
32.37715029
32.92825224
34.22419227
33.60408666
34.89602783
38.64924262
36.91777769
39.63827369
42.77402635
41.57729101
66.40704015
76.65701171
72.05286399
112.8127842
77.30428244
63.44068038
54.73824534
40.91594455
37.81954171
38.54444928
34.51681615
33.62807355
33.75591701
32.36609795
32.11691855
32.17691416
32.99122651
32.72740192
33.35313503
34.94774895
34.41342159
35.76622435
40.24807555
39.11574244
42.26212703
46.24997909
45.57587668
79.33563831
94.82043451
93.47590251
182.9356261
109.4914505
97.99286326
65.85630317
45.26632043
42.20151388
41.73460094
35.80557774
34.88213367
34.7089853
32.73945199
32.45954295
32.36177928
33.30816246
33.07275819
33.72202873
35.51507505
35.09972678
36.42225848
41.32114503
40.5409044
43.80482207
48.22110717
47.75982027
85.55214386
113.8460981
110.4848145
204.5709835
126.5044762
122.1047977
72.68519868
48.54062543
46.40263345
44.26057724
36.86872379
36.1501086
35.51714585
33.08309286
32.82827548
32.53524614
33.57988814
33.37578695
34.03095322
35.96755948
35.62940776
36.94369176
42.22452246
41.53988538
45.01531292
49.91458271
49.40307568
95.72403507
130.4708625
127.2890163
195.4919905
129.0784261