/*--------------------------------*- C++ -*----------------------------------*\
| =========                 |                                                 |
| \\      /  F ield         | OpenFOAM: The Open Source CFD Toolbox           |
|  \\    /   O peration     | Version:  v1912                                 |
|   \\  /    A nd           | Website:  www.openfoam.com                      |
|    \\/     M anipulation  |                                                 |
\*---------------------------------------------------------------------------*/
FoamFile
{
    version     2.0;
    format      ascii;
    class       volVectorField;
    location    "1.28";
    object      U;
}
// * * * * * * * * * * * * * * * * * * * * * * * * * * * * * * * * * * * * * //

dimensions      [0 1 -1 0 0 0 0];


internalField   nonuniform List<vector> 
12556
(
(99.99931259 0.001690033831 -3.631862637e-21)
(99.99897989 0.005930022057 -7.997749477e-26)
(99.99815432 0.01319000449 -3.62991358e-21)
(99.99667005 0.02563727593 -3.614282928e-21)
(99.99973616 0.02083912758 3.497012596e-21)
(99.99827409 0.03534377811 0)
(99.99728908 0.05846896856 0)
(99.99691386 0.0911553763 -6.291741819e-21)
(99.99587074 0.1358839906 7.424648879e-22)
(99.99495738 0.1931858602 -5.00280831e-21)
(99.99459774 0.2589494518 5.568027239e-22)
(99.99544558 0.3226758276 0)
(99.9977026 0.3682717527 0)
(100.0006024 0.3819522531 5.481971036e-22)
(100.0032155 0.3604139675 -1.135927684e-21)
(100.0047387 0.3124572879 8.07556304e-22)
(100.0050462 0.2524926092 0)
(100.004848 0.1931417516 1.436359248e-21)
(100.0046759 0.1399230184 5.923271828e-21)
(100.0025213 0.1000219663 -1.69302958e-21)
(100.010608 0.1161887487 -1.479893263e-20)
(100.0074372 0.0724513695 0)
(100.0055669 0.03895642173 -1.870375699e-21)
(100.0054134 0.01236480429 -1.31834361e-20)
(99.99386818 0.00423009323 1.453387245e-20)
(99.99033249 0.01525668017 3.634574638e-21)
(99.98264864 0.03463802738 2.541838391e-20)
(99.96938448 0.06910921532 -1.088767728e-20)
(99.97051343 0.09733465295 3.52085709e-21)
(99.94941891 0.1673155616 -3.244761402e-23)
(99.92121982 0.2772456183 0)
(99.90464497 0.3807752811 -6.267246983e-21)
(99.86892239 0.5744772319 -5.885976778e-21)
(99.83479083 0.8282701139 -1.049364099e-20)
(99.8149633 1.12876551 -4.467275387e-21)
(99.82827968 1.432198278 -9.140919391e-21)
(99.88619672 1.663582091 9.853941691e-23)
(99.97088195 1.745708775 -2.751687242e-22)
(100.0548762 1.661673653 -3.934958415e-22)
(100.1110491 1.445411597 4.138139476e-21)
(100.1312938 1.168326772 -8.445265706e-21)
(100.1220897 0.8962116673 0)
(100.1354147 0.688593833 -2.534203271e-20)
(100.0990097 0.4770049086 4.907962079e-20)
(100.0997341 0.3338384377 1.433126582e-20)
(100.0713528 0.2074198311 2.969896075e-20)
(100.0543845 0.1118436948 -2.978689597e-20)
(100.0480482 0.03554548738 1.505485878e-20)
(99.98425832 0.004505074372 -1.450152419e-20)
(99.9743709 0.0175310314 -2.909740959e-20)
(99.95327999 0.04308839462 -6.538441962e-20)
(99.91821044 0.08964491535 8.70337902e-20)
(99.89706445 0.148124051 -7.188127104e-21)
(99.83570453 0.2654002519 -7.03986467e-21)
(99.74957419 0.4500759227 -1.22406687e-20)
(99.6951544 0.659492532 0)
(99.5812681 1.019315473 2.430870889e-20)
(99.46892253 1.505529039 -1.114765373e-20)
(99.40121263 2.119015549 -9.274483784e-21)
(99.45923599 2.763920694 -4.522468403e-19)
(99.68540264 3.261472983 2.59360476e-19)
(100.0058312 3.429167214 0)
(100.3069714 3.243228122 0)
(100.4944431 2.789999247 -1.193878308e-22)
(100.5446643 2.218164999 -9.118190082e-21)
(100.4968011 1.658982288 -2.215521323e-20)
(100.4513249 1.187477033 -1.519691347e-19)
(100.3384886 0.8105074554 -3.407892033e-20)
(100.2782296 0.5100620447 -1.476657342e-20)
(100.2011734 0.3154064971 3.359534821e-20)
(100.1541184 0.1699790177 -3.78384549e-21)
(100.133651 0.05375587405 0)
(99.9755073 0.001149551074 -7.297362521e-21)
(99.95668516 0.008388433619 5.111794111e-20)
(99.91688301 0.03144670452 -1.462107201e-20)
(99.85147626 0.07805181646 0)
(99.79726744 0.1579080518 0)
(99.67598463 0.3050038426 -5.66659412e-20)
(99.50419287 0.5439308499 -1.135245342e-19)
(99.35591094 0.8453949829 2.686092428e-20)
(99.09894371 1.354465939 2.046367387e-19)
(98.81175001 2.113836265 -7.428360451e-19)
(98.62688709 3.136145316 1.022530356e-20)
(98.73911605 4.298562994 -1.958581271e-18)
(99.30153669 5.202506308 -4.317360796e-19)
(100.1430579 5.435165039 1.213514209e-21)
(100.8320903 4.992838852 -2.796264566e-21)
(101.1896897 4.169700476 2.242900029e-21)
(101.2513142 3.217726902 1.606493579e-19)
(101.1234791 2.341569168 0)
(100.9468494 1.590857827 5.584404849e-20)
(100.7040843 1.059800083 -4.349384614e-20)
(100.5305162 0.6225179725 -3.791693436e-20)
(100.3848836 0.3792772502 1.924586985e-20)
(100.2939865 0.2024611052 -3.867759052e-21)
(100.2524339 0.06354462465 0)
(99.97613922 -0.006663079919 0)
(99.94700472 -0.01487212525 0)
(99.88602833 -0.005776053484 7.348409519e-21)
(99.7848767 0.02884359477 1.112536699e-20)
(99.68931686 0.116484179 1.840285718e-20)
(99.49212821 0.2673630021 0)
(99.21279817 0.5174242837 0)
(98.92958789 0.8812624553 2.228423661e-19)
(98.44218139 1.522493241 0)
(97.85363848 2.557074216 4.947990641e-20)
(97.34118025 4.145125998 1.227440249e-20)
(97.45280376 6.191100714 -9.374528563e-21)
(98.75322083 7.880691614 0)
(100.6647048 8.063376484 0)
(101.9581101 6.970071566 8.089285151e-21)
(102.4311818 5.476770415 1.802941855e-19)
(102.3597339 4.060912442 -4.452405797e-19)
(102.0042288 2.83513614 -6.255890071e-22)
(101.6040846 1.82978918 -9.378619629e-20)
(101.1740476 1.183954669 7.833140873e-21)
(100.8274515 0.6404930878 0)
(100.5956996 0.3849185546 3.960708132e-21)
(100.4504286 0.2013261671 -2.974040093e-21)
(100.3827393 0.06240968569 -9.86848123e-22)
(99.99572266 -0.01918951251 0)
(99.95614505 -0.05289819477 0)
(99.87437828 -0.07014149294 -1.473724983e-20)
(99.73700322 -0.06258158507 2.992125777e-20)
(99.59075944 0.01640923925 0)
(99.31566034 0.1408177325 0)
(98.91511813 0.3635397395 2.335810436e-20)
(98.46877484 0.7360987056 0)
(97.67744734 1.408825039 -1.341550124e-18)
(96.57312174 2.606107417 -2.230329305e-19)
(95.29411477 4.781568755 4.888106909e-19)
(94.8424103 8.36565495 9.80971742e-21)
(97.56809109 12.11215732 0)
(102.1618853 11.86421067 0)
(104.2531973 9.037957994 8.362144384e-19)
(104.4479986 6.471968197 -1.136464166e-18)
(103.9172789 4.522659596 -5.487919483e-19)
(103.1466504 3.029022577 6.513847506e-20)
(102.3667377 1.822306809 2.421405242e-20)
(101.697001 1.139985712 -1.631203456e-20)
(101.1352734 0.5481012357 0)
(100.8026407 0.3211565606 0)
(100.5967727 0.1606337858 -1.004898691e-21)
(100.5003589 0.04874695371 -3.021861614e-21)
(100.0434312 -0.03610351578 3.596994764e-21)
(99.99451112 -0.1045349394 -3.622033285e-21)
(99.8946925 -0.1597509424 7.380548233e-21)
(99.72554654 -0.1939096074 -2.701826676e-20)
(99.52864525 -0.1422695048 6.81453838e-23)
(99.18206268 -0.07416402951 2.296613843e-20)
(98.67229973 0.0780541844 -3.127527013e-20)
(98.05013479 0.3899478896 2.975767782e-19)
(96.95348161 0.9356647095 0)
(95.18669145 1.982343326 0)
(92.55363016 4.035086955 0)
(89.05381699 8.985812577 0)
(93.15892677 19.9249426 9.361592432e-21)
(106.8394613 17.642313 1.467881893e-19)
(108.4342376 10.57787801 8.823000856e-20)
(107.3048365 6.633746392 -4.785459381e-20)
(105.8494539 4.293875346 4.606288753e-20)
(104.4302334 2.732553464 1.586323342e-19)
(103.1362735 1.493579758 0)
(102.2053771 0.878962227 9.05108435e-21)
(101.4044565 0.3418409902 2.659456164e-21)
(100.9691581 0.1803372631 -3.141609908e-21)
(100.7050426 0.07881935965 -3.574843076e-21)
(100.5804625 0.02234256599 8.586704613e-21)
(100.127128 -0.05653639426 -3.597380639e-21)
(100.0710635 -0.1670414419 3.623343638e-21)
(99.95800445 -0.269225246 -4.591764361e-21)
(99.76579248 -0.3566549527 -3.078756796e-21)
(99.52480974 -0.3492248419 1.310235048e-20)
(99.12465256 -0.3612146577 7.772564076e-21)
(98.53472716 -0.3204719002 2.413997719e-20)
(97.77797881 -0.1403340011 -6.004186523e-20)
(96.46722767 0.1200680826 -6.293024411e-20)
(94.25774332 0.5955752588 0)
(90.72972071 1.242386937 0)
(84.27179156 1.964942933 0)
(119.871936 21.69438424 -4.465301802e-20)
(114.5442123 9.387533711 -1.30241141e-19)
(110.5396595 5.190121203 2.571320959e-19)
(107.7774633 3.103041384 -1.753398653e-19)
(105.6288049 1.820399515 3.726829454e-19)
(103.7725527 0.8165483459 -4.859145253e-21)
(102.5996863 0.4065417178 2.050731084e-20)
(101.5772487 0.02573940626 -3.259833636e-21)
(101.0572312 -0.02837620026 2.662957997e-21)
(100.7468385 -0.03910390293 -5.168764606e-22)
(100.5983896 -0.0155444274 -8.092448665e-21)
(100.2525887 -0.07917682149 -1.734799171e-21)
(100.1923934 -0.2363325084 -1.303353768e-21)
(100.0724223 -0.3908882138 -4.46082171e-22)
(99.86831574 -0.5383704622 1.348739527e-21)
(99.5949792 -0.5870299233 -2.385663825e-23)
(99.16642505 -0.6930151651 0)
(98.53764502 -0.7841788815 2.001638893e-21)
(97.71916011 -0.776998865 5.924350452e-20)
(96.35180161 -0.8562209881 0)
(94.13987938 -1.011187042 1.239795673e-19)
(91.13093999 -1.577712729 0)
(87.93654867 -3.359401701 0)
(132.9417287 8.730051765 0)
(119.2481995 3.786247648 1.043773222e-19)
(112.8792649 1.913487629 0)
(109.0997225 0.9496493294 1.245276188e-19)
(106.4115478 0.3743721375 -1.023129776e-19)
(104.1221832 -0.1334075625 -5.009155718e-21)
(102.7833397 -0.2320876406 1.161121992e-20)
(101.6086253 -0.3684723225 1.127890033e-21)
(101.0362307 -0.2855067498 0)
(100.697932 -0.1823067991 4.092677528e-21)
(100.5337189 -0.06174384838 4.039862583e-21)
(100.4227575 -0.1024451192 3.420295255e-21)
(100.3618015 -0.3075328214 4.992450045e-23)
(100.2418603 -0.515727816 0)
(100.0380311 -0.7252662586 1.783945368e-22)
(99.7462958 -0.8360611939 -1.80065489e-21)
(99.31608036 -1.038323121 1.907859699e-21)
(98.69093355 -1.261567897 -4.035802699e-21)
(97.87765633 -1.428140278 1.177997452e-19)
(96.57712842 -1.801135947 6.110317976e-20)
(94.5781741 -2.368079471 -3.533956568e-20)
(92.18927462 -3.270332192 -4.748614741e-20)
(90.13902149 -4.502468303 0)
(131.7863861 -6.450639585 -2.746680739e-19)
(119.5702748 -3.322129025 0)
(113.2373525 -2.181027998 3.041503392e-19)
(109.3331639 -1.668155812 -2.688932384e-19)
(106.5273735 -1.352029993 1.038700153e-19)
(104.0763235 -1.213855872 4.256493611e-20)
(102.6997848 -0.9538824692 0)
(101.4703209 -0.7946166014 -1.106254121e-21)
(100.8881338 -0.5629374522 -4.546595092e-21)
(100.5437895 -0.3363441711 5.070916933e-22)
(100.3742523 -0.1116149147 0)
(100.6374613 -0.124807452 -1.685350628e-21)
(100.5789557 -0.3758076692 1.699230764e-21)
(100.46544 -0.6348446962 1.659437809e-21)
(100.2745602 -0.903921717 -1.545641881e-21)
(99.97674252 -1.077009817 -1.777483182e-21)
(99.56898665 -1.36731128 0)
(98.9825354 -1.709407245 -9.588389607e-21)
(98.21985017 -2.029458508 -5.762515127e-20)
(97.04500005 -2.626649198 0)
(95.26768579 -3.439285299 1.117959806e-21)
(93.1960258 -4.427501364 2.365448711e-19)
(91.40134053 -5.365079257 -4.27377864e-20)
(124.1908647 -15.33524808 -2.982307686e-19)
(116.4309356 -8.825113413 -7.04791497e-19)
(111.6975818 -5.77348691 0)
(108.4378773 -4.098569886 1.235713639e-19)
(105.9322263 -3.002654157 1.001924052e-19)
(103.6177963 -2.242196541 0)
(102.3448644 -1.652232852 -2.766940105e-20)
(101.1586312 -1.202549627 -1.376137073e-20)
(100.6103466 -0.8292470087 1.035048771e-21)
(100.2817912 -0.4852031718 -3.268361635e-21)
(100.1175481 -0.1600343558 4.791162258e-22)
(100.8934921 -0.1448794263 6.209643002e-21)
(100.8403296 -0.4367255169 0)
(100.7382155 -0.7389804842 -1.656208434e-21)
(100.5693515 -1.066729971 0)
(100.2736736 -1.293789105 0)
(99.91174322 -1.655830172 -5.293822066e-21)
(99.38991355 -2.095849024 5.514675758e-21)
(98.70597303 -2.541906801 0)
(97.68549414 -3.306279507 0)
(96.10801283 -4.302000095 0)
(94.18437851 -5.419761041 -7.916400462e-20)
(92.3641269 -6.384221609 3.974417246e-20)
(115.6634991 -18.86860758 2.379396702e-19)
(111.8346524 -11.79714609 -2.981584924e-20)
(109.021469 -8.122420291 0)
(106.7369785 -5.874736202 -1.063100184e-18)
(104.7800992 -4.286667542 1.664267267e-19)
(102.8266476 -3.06945239 2.20165703e-21)
(101.7603793 -2.238146886 -3.347028319e-20)
(100.6983194 -1.553890811 8.152634304e-21)
(100.2169193 -1.056382721 0)
(99.92113384 -0.6147349299 3.766664255e-21)
(99.77098805 -0.2024313272 0)
(101.1853774 -0.1621897806 6.201738125e-21)
(101.1394215 -0.4896368112 9.802301659e-20)
(101.0512681 -0.8281123837 -1.974631614e-19)
(100.907127 -1.202635112 -5.570805897e-22)
(100.6413038 -1.470671532 -1.560532861e-21)
(100.3284323 -1.887381049 0)
(99.88878481 -2.401377941 -9.649980015e-20)
(99.29734597 -2.941689337 4.906846751e-20)
(98.45485817 -3.825248894 -4.944192675e-20)
(97.10499875 -4.978880911 -2.705415034e-20)
(95.37340983 -6.341972245 0)
(93.57655857 -7.603167173 0)
(104.2195346 -28.17346619 5.586727424e-20)
(107.56686 -17.81570713 0)
(107.2407204 -12.4574927 -4.578783366e-20)
(106.0264828 -9.102075855 4.392613687e-20)
(104.6910015 -6.815351455 0)
(103.3365743 -5.062404699 3.598722708e-20)
(101.8398952 -3.612667666 -6.644705794e-20)
(101.0179741 -2.654590302 0)
(100.1349213 -1.817591281 0)
(99.73390682 -1.227639571 1.172123497e-20)
(99.48030827 -0.7156507828 2.165292286e-21)
(99.35004297 -0.2356386759 -7.002085067e-21)
(101.5055869 -0.17508867 0)
(101.4680636 -0.5296064247 0)
(101.3965497 -0.8946168002 0)
(101.2791622 -1.297853547 0)
(101.0453985 -1.607652043 0)
(100.7833624 -2.0671793 0)
(100.4256532 -2.633276446 1.821411555e-20)
(99.94662142 -3.229751582 -4.47420669e-20)
(99.29496319 -4.180234637 1.782924893e-19)
(98.22895794 -5.436306027 -9.879453658e-20)
(96.91096561 -7.06681738 5.622767274e-20)
(95.53353376 -9.35987159 1.473974837e-20)
(97.18848648 -18.23869906 4.823664079e-20)
(102.5923478 -14.70003183 -3.656250255e-20)
(103.59781 -11.45915511 7.416311509e-21)
(103.3643078 -8.975196991 0)
(102.7096829 -7.012547068 -5.810795154e-19)
(101.8433103 -5.344097679 -6.414565777e-20)
(100.7896506 -3.880247941 -9.098891836e-20)
(100.2006757 -2.895981942 -3.43246357e-20)
(99.51256066 -1.97544506 -1.904918897e-20)
(99.19119341 -1.340255419 1.869867212e-20)
(98.98303609 -0.7839470407 0)
(98.87504696 -0.2580927547 1.871719284e-20)
(101.8463453 -0.1834630261 0)
(101.8180906 -0.5558059897 0)
(101.7653637 -0.9379453657 0)
(101.6765988 -1.354295007 0)
(101.4752716 -1.689042699 0)
(101.2745591 -2.169279585 0)
(101.0040375 -2.741635006 -4.442596156e-20)
(100.6468076 -3.350568214 1.579021199e-19)
(100.210999 -4.267774117 3.066791039e-19)
(99.47063198 -5.479334276 1.274808782e-21)
(98.70486089 -7.040196627 1.236573418e-19)
(98.08626936 -9.13228668 0)
(98.52789633 -11.66372762 -3.110242819e-21)
(100.5074551 -11.27729194 1.401604724e-19)
(101.2759834 -9.776524549 2.060637249e-21)
(101.338706 -8.189902644 3.602038175e-19)
(101.0328702 -6.684761252 2.313964937e-20)
(100.4980964 -5.265859466 -2.369528634e-20)
(99.77280716 -3.918983902 0)
(99.38740003 -2.986256972 0)
(98.8667672 -2.038834027 -3.511953632e-20)
(98.61807199 -1.395758593 1.732959264e-20)
(98.45390942 -0.8191632648 7.27946704e-22)
(98.36759323 -0.2697296894 -1.28695356e-20)
(102.1991861 -0.1874225749 0)
(102.1799095 -0.5681443475 0)
(102.1454777 -0.9580056609 0)
(102.0843493 -1.375502915 0)
(101.9147289 -1.723093423 0)
(101.7698265 -2.203840933 0)
(101.577776 -2.758884899 0)
(101.3267582 -3.34012984 1.256308218e-19)
(101.0554994 -4.160833985 5.353921925e-19)
(100.5870842 -5.18427042 5.045841919e-19)
(100.1334047 -6.414990608 0)
(98.06993959 -7.567014897 0)
(99.25649143 -8.876346246 1.016553017e-20)
(99.75544739 -8.852653648 -7.854648546e-20)
(99.98034119 -8.174878869 0)
(99.95283278 -7.198603225 -1.655179297e-20)
(99.7333223 -6.087564344 0)
(99.36830388 -4.953983592 0)
(98.86183904 -3.793417175 -2.884790336e-20)
(98.62100646 -2.954511131 4.443586791e-20)
(98.2290266 -2.026796904 1.086082744e-20)
(98.04175341 -1.401698975 1.857679242e-20)
(97.91540808 -0.825071774 -2.109062319e-20)
(97.84773171 -0.2717221142 0)
(102.5559407 -0.187440412 0)
(102.5446511 -0.5680254441 0)
(102.526154 -0.9570386668 0)
(102.4892379 -1.366221146 0)
(102.3483636 -1.715997727 0)
(102.2511422 -2.181518817 0)
(102.1221389 -2.702609407 0)
(101.9483873 -3.240215209 0)
(101.7887993 -3.928650902 -1.509105685e-20)
(101.4790719 -4.733578614 3.224649227e-22)
(101.1115331 -5.613141655 -7.132556918e-19)
(99.59368222 -6.223648442 -6.100337454e-19)
(99.67977854 -7.048424245 -2.271596347e-19)
(99.51320057 -7.173316034 -1.496953545e-19)
(99.29504821 -6.842415737 -1.691794787e-21)
(99.05615876 -6.218593092 1.149295077e-20)
(98.77112164 -5.40382251 -2.149721246e-22)
(98.45980276 -4.533877943 0)
(98.07893149 -3.568425013 0)
(97.92070816 -2.831054552 0)
(97.62320244 -1.957739539 3.730592403e-20)
(97.48309427 -1.368047869 -3.488632424e-20)
(97.38574819 -0.8069783972 -2.3695081e-21)
(97.33244764 -0.2662292821 2.377308832e-21)
(102.9093139 -0.1841485249 0)
(102.9047498 -0.5574965138 0)
(102.899193 -0.9384560488 0)
(102.8819647 -1.331612216 0)
(102.7661352 -1.674388936 0)
(102.7057277 -2.114024597 0)
(102.6233242 -2.591577396 0)
(102.4995348 -3.082423847 0)
(102.3964033 -3.649043803 1.05177927e-19)
(102.1584195 -4.260398343 5.609750201e-21)
(101.8022129 -4.885478288 2.936866033e-19)
(100.9215862 -5.284126088 0)
(99.61475605 -5.806827057 1.968327428e-19)
(99.49296621 -5.95205629 -9.094380123e-23)
(98.93055579 -5.76585087 0)
(98.46036297 -5.336830329 3.047030517e-20)
(98.0661821 -4.740525257 0)
(97.74426965 -4.077262292 0)
(97.41478343 -3.283198658 0)
(97.29699599 -2.647726708 0)
(97.06166164 -1.847885743 0)
(96.95450105 -1.303594572 0)
(96.87807241 -0.7716973137 0)
(96.83511432 -0.255723297 0)
(103.253407 -0.1782081574 0)
(103.2542182 -0.5387028808 0)
(103.2585179 -0.9059669177 0)
(103.2561353 -1.277704875 0)
(103.1603265 -1.606495668 0)
(103.1257913 -2.01417936 0)
(103.0736972 -2.444559725 0)
(102.9791771 -2.883118969 0)
(102.8918163 -3.359794505 0)
(102.6660561 -3.832253842 -4.875123626e-21)
(102.294223 -4.280538729 -1.23985075e-19)
(101.4572711 -4.595715119 8.80589322e-20)
(99.42925449 -4.945153438 5.365671113e-20)
(99.51556516 -5.02282561 6.087472598e-21)
(98.69023388 -4.893234901 0)
(98.03715806 -4.583804646 0)
(97.54128743 -4.144263508 0)
(97.17813656 -3.62944108 0)
(96.85958394 -2.976379343 0)
(96.75215811 -2.435311126 0)
(96.55091051 -1.715229859 0)
(96.46372338 -1.22009997 0)
(96.40014922 -0.7243381557 0)
(96.36481142 -0.2407061323 0)
(103.5837334 -0.1702887656 0)
(103.5885448 -0.5137965083 0)
(103.5996837 -0.8632970366 0)
(103.60744 -1.210458193 0)
(103.5265462 -1.520638272 0)
(103.508023 -1.893677602 0)
(103.4726641 -2.27782877 0)
(103.3907752 -2.663853425 0)
(103.2976513 -3.063087059 0)
(103.0511711 -3.440516702 0)
(102.6343274 -3.779205593 0)
(101.2796064 -3.989755225 0)
(99.62074323 -4.277711721 0)
(99.49453418 -4.290592404 0)
(98.50650629 -4.189405805 0)
(97.72547568 -3.957503934 0)
(97.14026312 -3.622119632 0)
(96.72583793 -3.21557873 0)
(96.39476765 -2.674409412 0)
(96.27953012 -2.214289205 0)
(96.09231887 -1.572738903 0)
(96.01470457 -1.126727216 0)
(95.95751466 -0.6705467605 0)
(95.92652704 -0.2233434238 0)
(103.8971339 -0.1610374616 0)
(103.9046369 -0.4848319283 0)
(103.9198378 -0.8139319651 0)
(103.9335103 -1.135199462 0)
(103.8628932 -1.424104341 0)
(103.8521914 -1.76223516 0)
(103.8229588 -2.104426862 0)
(103.7420315 -2.440160673 0)
(103.6304052 -2.774577971 0)
(103.3527936 -3.07850555 0)
(102.8900473 -3.341441441 0)
(101.0775701 -3.469575472 0)
(99.77502138 -3.709090622 -5.942845737e-35)
(99.46504738 -3.702729844 0)
(98.36373617 -3.616751003 0)
(97.48604895 -3.434270569 0)
(96.82575915 -3.170020015 0)
(96.36055558 -2.842926794 0)
(96.00335962 -2.390755379 0)
(95.87021991 -1.997784332 0)
(95.68356889 -1.429425831 0)
(95.60780163 -1.030274882 0)
(95.55214041 -0.6144033967 0)
(95.52311558 -0.2051044677 0)
(104.1916326 -0.1510294934 0)
(104.2006763 -0.4536294929 0)
(104.2175503 -0.7609042754 0)
(104.2335548 -1.056313271 0)
(104.1694122 -1.322805511 0)
(104.160105 -1.627575559 0)
(104.1287144 -1.932054543 0)
(104.0416304 -2.222489791 0)
(103.9045481 -2.50353373 0)
(103.5924564 -2.750690944 0)
(103.0863207 -2.958347218 0)
(100.9374122 -3.03416824 0)
(99.86912208 -3.235806379 0)
(99.43122313 -3.21936938 0)
(98.24703399 -3.14352141 0)
(97.29524905 -2.994392375 0)
(96.57292957 -2.780305331 0)
(96.06072312 -2.512079534 0)
(95.67208623 -2.130889333 0)
(95.51534188 -1.793503781 0)
(95.32057954 -1.291327313 0)
(95.24135767 -0.9354866621 0)
(95.18384234 -0.558807577 0)
(95.15500324 -0.1869640198 0)
(104.4662965 -0.1407393434 0)
(104.4759252 -0.4216946235 0)
(104.4925486 -0.7067401917 0)
(104.5079707 -0.9771605273 0)
(104.4474329 -1.221301416 0)
(104.4347086 -1.495202924 0)
(104.395493 -1.765893936 0)
(104.2976538 -2.01699669 0)
(104.1319727 -2.254426888 0)
(103.7856173 -2.45759546 0)
(103.2374124 -2.623972176 0)
(100.8428534 -2.668121125 0)
(99.92399551 -2.839795788 -7.722861274e-35)
(99.39476686 -2.816354194 0)
(98.14824189 -2.747933658 0)
(97.13858935 -2.622530367 0)
(96.36519585 -2.444982041 0)
(95.81086042 -2.221223308 0)
(95.38961391 -1.896947514 0)
(95.20674991 -1.605564789 0)
(94.99868404 -1.162168965 0)
(94.912612 -0.8454466715 0)
(94.85104212 -0.5056923612 0)
(94.82114298 -0.169565947 0)
(104.7210502 -0.1305398793 0)
(104.7304986 -0.3901955073 0)
(104.745415 -0.6534117099 0)
(104.7580266 -0.9002727162 0)
(104.6988012 -1.122893506 0)
(104.6793547 -1.368818469 0)
(104.6285676 -1.609302862 0)
(104.5172862 -1.827058986 0)
(104.3221745 -2.028894867 0)
(103.9435617 -2.19776428 0)
(103.3539729 -2.33270589 0)
(100.7813664 -2.358316871 0)
(99.95272641 -2.505911787 0)
(99.35681324 -2.4771511 0)
(98.06251901 -2.414547757 0)
(97.00685818 -2.306817954 0)
(96.19126823 -2.156703351 0)
(95.59974926 -1.967222756 0)
(95.14678557 -1.688956425 0)
(94.93732126 -1.435727008 0)
(94.71317399 -1.04396821 0)
(94.61824809 -0.7620055487 0)
(94.55130168 -0.4562578483 0)
(94.51951488 -0.1533136084 0)
(104.9564531 -0.120714115 0)
(104.9651249 -0.3599959875 0)
(104.9772843 -0.6023668344 0)
(104.9854844 -0.8274647366 0)
(104.9258252 -1.0298831 0)
(104.8974855 -1.25081321 0)
(104.8328838 -1.464213856 0)
(104.7065405 -1.654323398 0)
(104.4825909 -1.827024792 0)
(104.0745119 -1.968961065 0)
(103.4444148 -2.079658223 0)
(100.7435331 -2.094977693 0)
(99.96324585 -2.222786752 2.610845105e-35)
(99.31821011 -2.189908172 0)
(97.98684198 -2.132129064 0)
(96.89400143 -2.038075915 0)
(96.0433013 -1.909117887 0)
(95.41920415 -1.746547018 0)
(94.93636483 -1.505799294 0)
(94.70099313 -1.284309082 0)
(94.45954962 -0.93758409 0)
(94.35474393 -0.6861387942 0)
(94.28173136 -0.4111711451 0)
(94.24754374 -0.1384370988 0)
(105.173513 -0.1114695141 0)
(105.1809569 -0.3317106789 0)
(105.1896331 -0.554618517 0)
(105.1923326 -0.7599672442 0)
(105.1309544 -0.9437630383 0)
(105.0923851 -1.142534904 0)
(105.0129767 -1.332280186 0)
(104.8705269 -1.49912652 0)
(104.6191076 -1.648040766 0)
(104.1845327 -1.768723012 0)
(103.5154557 -1.86065425 0)
(100.7220678 -1.870597974 0)
(99.96070882 -1.981927971 0)
(99.27955252 -1.945887627 0)
(97.91919409 -1.892230105 0)
(96.79585049 -1.809068928 0)
(95.91567003 -1.696795454 0)
(95.26308737 -1.5556832 0)
(94.75259019 -1.345786701 0)
(94.49262396 -1.150775932 0)
(94.23365018 -0.8431312652 0)
(94.11859673 -0.6182193681 0)
(94.03926475 -0.3707229731 0)
(94.00239145 -0.1250438229 0)
(105.3735569 -0.1029505789 0)
(105.3794418 -0.3057555005 0)
(105.3841586 -0.5108393423 0)
(105.3806617 -0.6985618046 0)
(105.3166003 -0.8654537336 0)
(105.2670467 -1.044775181 0)
(105.172392 -1.214190493 0)
(105.0135812 -1.36132304 0)
(104.7364224 -1.490819422 0)
(104.2781656 -1.594690379 0)
(103.5723094 -1.672132681 0)
(100.7115626 -1.679356907 0)
(99.94881692 -1.776969741 0)
(99.24115867 -1.738563623 0)
(97.85812793 -1.688423103 0)
(96.70942437 -1.614095689 0)
(95.80425235 -1.515200146 0)
(95.12672983 -1.391405538 0)
(94.59086545 -1.207050512 0)
(94.30789434 -1.034164751 0)
(94.03169403 -0.760279204 0)
(93.90644195 -0.558227541 0)
(93.8208179 -0.3349508794 0)
(93.78113118 -0.1131575806 0)
(105.5581378 -0.09525109089 0)
(105.5622283 -0.2823912169 0)
(105.562697 -0.4714410838 0)
(105.5525991 -0.6436873191 0)
(105.4851469 -0.7954329395 0)
(105.4242598 -0.9578644166 0)
(105.3142981 -1.109932094 0)
(105.1393415 -1.240384336 0)
(104.8383437 -1.354074445 0)
(104.3589204 -1.444641544 0)
(103.6188644 -1.510926462 0)
(100.7083135 -1.516722073 0)
(99.93038156 -1.603014547 0)
(99.20311134 -1.56288752 0)
(97.80249974 -1.515690745 0)
(96.63247363 -1.448588344 0)
(95.7059076 -1.360530554 0)
(95.00646684 -1.250819949 0)
(94.44741545 -1.087696694 0)
(94.14309774 -0.933291523 0)
(93.85026272 -0.6884440185 0)
(93.71510674 -0.5059023837 0)
(93.62338231 -0.3037338573 0)
(93.58085577 -0.1027489137 0)
(105.7289128 -0.08842733135 0)
(105.7310483 -0.2617652087 0)
(105.7271179 -0.4366480311 0)
(105.7102245 -0.5955532636 0)
(105.6388578 -0.7338925041 0)
(105.5665586 -0.8818341717 0)
(105.4413808 -1.019030011 0)
(105.2508611 -1.135639944 0)
(104.9279526 -1.236505755 0)
(104.4295409 -1.316554567 0)
(103.6578963 -1.374245574 0)
(100.7099065 -1.379198844 0)
(99.90754313 -1.456212356 0)
(99.16536252 -1.414882013 0)
(97.75135867 -1.3700847 0)
(96.56324072 -1.308892784 0)
(95.61818216 -1.22964746 0)
(94.89937427 -1.131417607 0)
(94.31912148 -0.9859553874 0)
(93.99506251 -0.8469357377 0)
(93.68630341 -0.626943886 0)
(93.54166512 -0.4608595588 0)
(93.44411614 -0.2768662641 0)
(93.39878572 -0.09375932907 0)
(105.8876633 -0.0825066921 0)
(105.8877323 -0.2439404778 0)
(105.8793424 -0.4065482315 0)
(105.8556087 -0.554197343 0)
(105.7798748 -0.6808322119 0)
(105.6962724 -0.8164947972 0)
(105.5561634 -0.9408499403 0)
(105.350673 -1.046308978 0)
(105.0077598 -1.13682874 0)
(104.4922059 -1.208592181 0)
(103.6913707 -1.25966581 0)
(100.7146826 -1.264043006 0)
(99.88194419 -1.333425592 0)
(99.12781194 -1.291320709 0)
(97.70388091 -1.248424389 0)
(96.50028927 -1.192037915 0)
(95.53908001 -1.119941001 0)
(94.80302843 -1.031026734 0)
(94.20335688 -0.9002287208 0)
(93.8610323 -0.7739314222 0)
(93.53702393 -0.5750660955 0)
(93.38337781 -0.422661186 0)
(93.28030676 -0.254101171 0)
(93.2322369 -0.08611470863 0)
(106.0359778 -0.0775034624 0)
(106.0339188 -0.2289353547 0)
(106.0210733 -0.3811394648 0)
(105.9905593 -0.5196192889 0)
(105.9101905 -0.6361176194 0)
(105.8155144 -0.7614997691 0)
(105.6609544 -0.8750380207 0)
(105.4409549 -0.9715458751 0)
(105.0798275 -1.053826787 0)
(104.5486656 -1.119132061 0)
(103.7207104 -1.165139615 0)
(100.7214617 -1.169052532 0)
(99.85482437 -1.232126585 -4.223668783e-36)
(99.09035393 -1.189593676 0)
(97.65934554 -1.148146137 0)
(96.44241832 -1.095614133 0)
(95.46694705 -1.029273532 0)
(94.7153433 -0.9479200495 0)
(94.09786797 -0.8291840103 0)
(93.73857876 -0.7132023842 0)
(93.4000591 -0.5321810317 0)
(93.23787878 -0.3908664842 0)
(93.12958763 -0.2351934874 0)
(93.07886814 -0.0797423753 0)
(106.1762204 -0.07340441819 0)
(106.1719446 -0.2167117928 0)
(106.1546336 -0.3603568215 0)
(106.1174151 -0.4915787546 0)
(106.0317171 -0.5995652312 0)
(105.9262057 -0.7164752554 0)
(105.7579305 -0.8215430077 0)
(105.5235814 -0.9104941655 0)
(105.1458802 -0.9863959016 0)
(104.6003501 -1.046778727 0)
(103.7469704 -1.088964137 0)
(100.7294645 -1.092445752 0)
(99.82711281 -1.15029715 0)
(99.05288751 -1.107607474 0)
(97.61711331 -1.067194377 0)
(96.38860177 -1.017673645 0)
(95.40041479 -0.955889709 0)
(94.63478705 -0.8807947965 0)
(94.00052057 -0.7718000533 0)
(93.62553541 -0.6638484446 0)
(93.27269487 -0.4975689257 0)
(93.10241576 -0.3650610245 0)
(92.98914133 -0.2198884816 0)
(92.93581062 -0.07455779025 0)
(106.3078085 -0.07024839129 0)
(106.3013933 -0.2073209431 0)
(106.2797124 -0.3441700202 0)
(106.2359823 -0.4704342771 0)
(106.14623 -0.5708705605 0)
(106.0301003 -0.6810932591 0)
(105.8485883 -0.7803414934 0)
(105.6004006 -0.8623968718 0)
(105.2074151 -0.9335789686 0)
(104.6484641 -0.9903509889 0)
(103.7709598 -1.029739988 0)
(100.7381754 -1.032789538 0)
(99.79949696 -1.086335008 0)
(99.0153097 -1.043693871 0)
(97.57659366 -1.003926131 0)
(96.3379146 -0.9566393356 0)
(95.33825265 -0.8982985814 0)
(94.55994977 -0.8278700514 0)
(93.90953339 -0.7268160857 0)
(93.51984674 -0.6248211594 0)
(93.1546092 -0.4711723071 0)
(92.97668663 -0.344901148 0)
(92.85870751 -0.2080559504 0)
(92.80294618 -0.07054149868 0)
(106.4410745 -0.06788849582 0)
(106.4320974 -0.2005067003 0)
(106.4057931 -0.3323991769 0)
(106.3546936 -0.453901628 0)
(106.2560413 -0.5500105568 0)
(106.1287634 -0.6553969222 0)
(105.9341989 -0.7504773989 0)
(105.6728945 -0.8268239975 0)
(105.2656925 -0.8946051615 0)
(104.6940291 -0.9488798125 0)
(103.7933269 -0.9863465313 0)
(100.7472319 -0.9890046856 0)
(99.77248278 -1.039023019 0)
(98.97751748 -0.9965803784 0)
(97.5372325 -0.957079107 0)
(96.28950262 -0.9112908922 0)
(95.27928618 -0.8553653686 0)
(94.48900051 -0.7880883717 0)
(93.82361908 -0.6931853633 0)
(93.41988659 -0.5962140636 0)
(93.03777014 -0.4505223879 0)
(92.85167749 -0.3299741171 0)
(92.72887754 -0.19929527 0)
(92.6703265 -0.06749688911 0)
(106.5443765 -0.06677289017 0)
(106.5338377 -0.1969709983 0)
(106.5040124 -0.3258613408 0)
(106.4487022 -0.4475115388 0)
(106.3601673 -0.5363250769 0)
(106.2234511 -0.6387588084 0)
(106.01618 -0.7314878182 0)
(105.742322 -0.8032583152 0)
(105.3217828 -0.8688165913 0)
(104.7379314 -0.9215434972 0)
(103.8146483 -0.9578707161 0)
(100.7563941 -0.9602803087 0)
(99.74644787 -1.007467188 0)
(98.9393907 -0.965326682 0)
(97.49848491 -0.9257104508 0)
(96.24256057 -0.8807084275 0)
(95.222482 -0.8262562671 0)
(94.42086649 -0.7609841244 0)
(93.74138383 -0.6704556364 0)
(93.32443266 -0.5770460697 0)
(92.94504375 -0.4407167203 0)
(92.75376343 -0.3210436251 0)
(92.6273153 -0.1943296067 0)
(92.56709506 -0.06588848315 0)
(106.7444363 -0.06561599315 0)
(106.7303342 -0.1945135541 0)
(106.6934847 -0.3215467319 0)
(106.6247469 -0.4385811326 0)
(106.4579731 -0.5308225835 0)
(106.3109282 -0.6314389674 0)
(106.0923963 -0.7235792869 0)
(105.8097762 -0.7913478352 0)
(105.3765356 -0.8556784596 0)
(104.7808814 -0.9075945279 0)
(103.8355058 -0.9435379649 0)
(100.7655501 -0.9460517164 0)
(99.721689 -0.9911346844 0)
(98.90086694 -0.9492878598 0)