/*--------------------------------*- C++ -*----------------------------------*\
| =========                 |                                                 |
| \\      /  F ield         | OpenFOAM: The Open Source CFD Toolbox           |
|  \\    /   O peration     | Version:  v1912                                 |
|   \\  /    A nd           | Website:  www.openfoam.com                      |
|    \\/     M anipulation  |                                                 |
\*---------------------------------------------------------------------------*/
FoamFile
{
    version     2.0;
    format      ascii;
    class       surfaceVectorField;
    location    "1.28";
    object      Uf;
}
// * * * * * * * * * * * * * * * * * * * * * * * * * * * * * * * * * * * * * //

dimensions      [0 1 -1 0 0 0 0];


internalField   nonuniform List<vector> 
25162
(
(99.99914606 0.003402231514 -1.836235717e-21)
(99.99681379 0.002958474437 5.439296911e-21)
(99.99856665 0.008731222236 -1.815109692e-21)
(99.9950118 0.01059030798 1.832319341e-21)
(99.99741154 0.01822506754 -3.622098034e-21)
(99.9911152 0.02391046251 1.092201054e-20)
(99.99871391 0.0219087254 1.126654309e-21)
(99.98384209 0.04736569496 -7.212262231e-21)
(99.99287872 0.04908200167 -1.204695347e-21)
(99.99772492 0.0403348023 1.748643378e-21)
(99.9992905 0.02433772311 8.684550437e-22)
(99.99153184 0.06957422177 1.74035468e-21)
(99.99804793 0.03986546355 8.531440806e-22)
(99.99855904 0.03080867722 -8.763760917e-22)
(99.99755529 0.05130964133 8.531092357e-22)
(99.98663756 0.1159953471 1.699815027e-21)
(99.99728302 0.06559967015 0)
(99.99709519 0.08154484559 -3.145967659e-21)
(99.98214356 0.1809071803 -3.145951285e-21)
(99.99665666 0.1006456328 -8.171390482e-22)
(99.99613506 0.1229895953 2.742759862e-21)
(99.97604469 0.270173876 3.006518747e-21)
(99.99562166 0.148637368 3.712226021e-22)
(99.99516503 0.1773986483 -2.501501631e-21)
(99.97063725 0.3850132296 3.559973239e-22)
(99.99481351 0.2088230397 -2.585189928e-21)
(99.99463396 0.2420919233 2.137201648e-22)
(99.96846753 0.5174029608 -1.73919234e-21)
(99.99471863 0.275837972 2.279063041e-21)
(99.99514299 0.30830382 1.981918073e-21)
(99.97292331 0.6464643747 -8.831780058e-22)
(99.99593117 0.3373395725 0)
(99.99706005 0.3606397056 0)
(99.98545384 0.7392623614 2.124962449e-22)
(99.99842331 0.3762376818 0)
(99.99987333 0.3832768173 2.740947532e-22)
(100.0021869 0.7672070654 -4.536340399e-24)
(100.0013106 0.3809757904 7.955607187e-22)
(100.0026168 0.369897578 -6.18120755e-23)
(100.0174501 0.7235590022 -5.104014891e-22)
(100.0036754 0.3512337271 -8.836867724e-22)
(100.0044366 0.3267513159 8.803525047e-23)
(100.0265783 0.6264091186 1.591826402e-21)
(100.0048861 0.2983454162 4.037899437e-22)
(100.0050395 0.2678711966 0)
(100.0288306 0.5052910321 0)
(100.0049624 0.2370487905 0)
(100.0048632 0.2070699349 7.181536201e-22)
(100.0260945 0.3863973104 1.489590547e-21)
(100.0050423 0.1791765319 -3.640824029e-21)
(100.0049558 0.1518812979 -1.351540042e-21)
(100.0225311 0.2788253468 2.961862546e-21)
(100.0043259 0.127802248 2.961641527e-21)
(100.0032485 0.1072969005 -8.464439106e-22)
(100.0137649 0.1948670674 -5.334650717e-23)
(100.0008178 0.09259321074 1.643062098e-21)
(100.009031 0.09185689773 -7.405282204e-21)
(100.0508639 0.2248281626 5.209038861e-22)
(100.0178493 0.1996546563 -2.6492941e-21)
(100.0029398 0.09262095425 -1.560384025e-21)
(100.006504 0.0538488854 -9.364287988e-22)
(100.0355463 0.1398615473 1.483286574e-20)
(100.0054901 0.02545329859 -7.52864173e-21)
(100.0266806 0.07537208923 -1.581655377e-20)
(100.0239873 0.02395392605 1.436463367e-21)
(99.99209983 0.009219026505 9.084724188e-21)
(99.9881505 0.004365856362 2.096593513e-22)
(99.9864886 0.0239709646 1.452674033e-20)
(99.98118795 0.01638903954 -1.269550651e-20)
(99.97601541 0.05031514207 7.577109735e-21)
(99.96646445 0.03885235479 -1.973354532e-20)
(99.97013634 0.08570014488 -1.278585205e-21)
(99.94174895 0.07934952382 3.795051022e-20)
(99.94872581 0.1049795612 -8.367574771e-21)
(99.9552028 0.1107553745 -1.792937647e-21)
(99.9654047 0.1112999217 3.541951644e-21)
(99.97915783 0.07858229809 1.76035731e-21)
(99.96581945 0.1355600056 1.724478371e-21)
(99.95485797 0.1468544602 1.751392152e-21)
(99.92390463 0.1947211693 -3.534725388e-21)
(99.94305857 0.1916637716 -1.607121936e-23)
(99.94622791 0.2253835289 1.700081791e-21)
(99.92895963 0.247373277 -1.400363822e-23)
(99.88314736 0.3242742294 0)
(99.921453 0.2936738644 0)
(99.89989516 0.3359730403 -2.120658824e-21)
(99.92467921 0.3440563939 -4.177190824e-21)
(99.91551337 0.3611491243 -4.43481544e-23)
(99.89099192 0.4181085775 -9.396036478e-21)
(99.9080223 0.3971234284 -3.230082357e-21)
(99.88294709 0.5466705254 3.032998775e-23)
(99.89784915 0.517779439 -2.137641111e-21)
(99.8507963 0.6328668015 -1.172033671e-20)
(99.87586633 0.5969262184 -2.85368328e-21)
(99.85233906 0.7925680499 -5.416683729e-21)
(99.87355845 0.7444082587 -5.087923184e-21)
(99.81372896 0.9150505815 4.535981947e-22)
(99.84726976 0.8564655429 -6.50390704e-21)
(99.83469506 1.08749869 -6.474049382e-23)
(99.86297577 1.011076189 -4.323066786e-21)
(99.79473539 1.250839103 -2.233772196e-21)
(99.83555287 1.160374203 -3.25561063e-21)
(99.84781438 1.39193673 -5.449846634e-21)
(99.8805921 1.278117581 -7.476812551e-21)
(99.81520453 1.592770904 -4.57219331e-21)
(99.85874023 1.461711632 -3.240903039e-21)
(99.90388712 1.6344978 1.100702335e-21)
(99.93531529 1.479040523 -3.282831375e-22)
(99.889851 1.854140188 -2.555796326e-20)
(99.92458569 1.683007735 -8.798424792e-23)
(99.98892075 1.735400838 1.659179869e-22)
(100.0106075 1.547867471 -3.692269108e-22)
(99.99553634 1.947096508 -7.269483495e-22)
(100.0104068 1.751325342 -4.944620433e-22)
(100.0732055 1.677699451 -1.967634242e-22)
(100.0657571 1.469931559 -2.03359182e-22)
(100.0944331 1.85432484 -8.606571335e-23)
(100.0905769 1.646829629 1.667786918e-21)
(100.1311493 1.479988911 2.069162434e-21)
(100.0988407 1.276962191 3.596098831e-21)
(100.157397 1.611995065 3.603519192e-21)
(100.1386561 1.417206589 4.872234264e-22)
(100.1516294 1.209889589 -6.01645844e-21)
(100.1069901 1.031531281 -5.62908521e-21)
(100.176126 1.3007241 -2.024372516e-21)
(100.1505302 1.135826432 -2.003568347e-21)
(100.1414333 0.9353391139 -4.87760116e-21)
(100.0935384 0.7906531848 4.507032437e-22)
(100.1576016 0.9926673714 -1.318057107e-21)
(100.1350614 0.8667527693 5.381406723e-21)
(100.0908933 0.5531311994 -1.266731571e-20)
(100.1440665 0.7514457454 -1.266633148e-20)
(100.204046 0.8175343835 1.282492717e-20)
(100.126292 0.6303559944 -2.603302308e-20)
(100.1080985 0.5249337698 1.125658163e-20)
(100.1508668 0.563130495 -1.615302233e-20)
(100.0891058 0.4350064373 2.282012227e-20)
(100.0667248 0.383258772 2.536994701e-20)
(100.0855578 0.268327916 2.201298173e-20)
(100.1929989 0.4219726416 -2.218451294e-22)
(100.1461495 0.468700178 4.585372062e-20)
(100.0860784 0.3705375077 2.510383699e-21)
(100.0628592 0.1579490557 -7.237089556e-22)
(100.1391254 0.2614208228 3.164752616e-20)
(100.0512147 0.07302435798 -7.352989662e-21)
(100.1067481 0.1409123256 -1.678341364e-20)
(100.0928677 0.04464936704 7.526728837e-21)
(99.97931477 0.01051783927 -2.179803451e-20)
(99.9782263 0.002821256935 -1.089417668e-20)
(99.96382285 0.02935863295 -4.723828612e-20)
(99.96346246 0.01295081213 1.028726033e-20)
(99.93576114 0.06568310882 1.021922553e-20)
(99.93239811 0.03726044736 -3.999328858e-20)
(99.90407661 0.1240258222 2.41624497e-20)
(99.88185757 0.08384572379 4.350988242e-20)
(99.87185673 0.1355547657 -3.936013323e-20)
(99.9168355 0.1361436748 -7.19058335e-21)
(99.87219552 0.1514492089 -5.323180575e-20)
(99.88303058 0.1717900646 -3.593752579e-21)
(99.8672985 0.2437549946 -7.056072181e-21)
(99.852366 0.2317078865 -3.518363003e-21)
(99.7977176 0.2796352984 2.464941947e-20)
(99.81585401 0.306239994 6.960777771e-21)
(99.79756865 0.4106869494 -6.119198205e-21)
(99.77279724 0.3984712363 4.491352569e-21)
(99.69126022 0.480057233 -3.478842832e-20)
(99.7454636 0.4949081903 2.457170219e-21)
(99.70437208 0.5294322041 -1.516007775e-20)
(99.72839363 0.6278508883 -6.311469066e-21)
(99.70841155 0.6234889591 0)
(99.65806346 0.6881254126 6.506691319e-21)
(99.68227887 0.6986697053 -6.298128865e-21)
(99.62731572 0.9673906751 3.096483983e-21)
(99.59683225 0.9689401854 1.215499541e-20)
(99.52949454 1.06770618 6.029707374e-21)
(99.56754206 1.073532044 1.511369543e-20)
(99.52844782 1.423765252 -5.568491824e-21)
(99.48322847 1.438780425 -5.559758549e-21)
(99.40083277 1.584951138 -1.132418754e-20)
(99.45845612 1.576002094 -5.594184096e-21)
(99.47074163 1.993076592 -4.629222075e-21)
(99.40706915 2.038026689 -4.631608349e-21)
(99.32287329 2.245288824 2.883800845e-19)
(99.40287193 2.200632639 -2.455859156e-21)
(99.52206884 2.591310596 -2.693052358e-20)
(99.44594762 2.687111831 -2.694326827e-21)
(99.38897039 2.942679616 -2.265368204e-19)
(99.48165561 2.836660512 -2.255612632e-19)
(99.72306672 3.05139992 1.677605166e-21)
(99.65203976 3.21641651 1.141293019e-20)
(99.65693375 3.480614007 -1.361150291e-19)
(99.72313519 3.295676943 1.278808251e-19)
(100.0011085 3.20816103 0)
(99.96529653 3.424501785 4.79075456e-22)
(100.0126904 3.660286331 0)
(100.049192 3.420976307 4.562783495e-20)
(100.2676665 3.039739682 0)
(100.2756851 3.282497078 7.274023726e-22)
(100.3542501 3.452762724 1.410515249e-19)
(100.338728 3.195737703 2.254325142e-21)
(100.4346333 2.62039779 8.074573574e-22)
(100.4794262 2.856154289 2.249172119e-20)
(100.5615419 2.961539036 2.595597161e-21)
(100.5086599 2.720661938 3.68620504e-21)
(100.4800594 2.087688105 -5.614605862e-21)
(100.546008 2.292010943 -1.299494002e-20)
(100.6178163 2.347782223 -4.559376005e-21)
(100.5433357 2.144734835 5.149513194e-21)
(100.5064497 1.725333448 -1.639433873e-20)
(100.4387238 1.564719437 -1.107609707e-20)
(100.5617139 1.747743384 -1.109103363e-20)
(100.4902932 1.593673767 5.953174504e-21)
(100.3612598 1.06692969 -5.007089509e-20)
(100.4797794 1.300702315 -2.606285839e-20)
(100.5645899 1.296474349 -7.587873486e-20)
(100.4224718 1.084361687 -3.539822197e-20)
(100.2710901 0.7301340106 -5.799936275e-20)
(100.366085 0.8964787889 2.289070378e-20)
(100.4224493 0.8786301114 -2.752097026e-20)
(100.3123947 0.7353563125 -2.408490321e-20)
(100.2396909 0.4114043945 9.932049978e-21)
(100.4117112 0.5662545109 -2.496956029e-20)
(100.3798824 0.6814199729 -1.78367458e-22)
(100.2836375 0.607475468 -1.432274884e-20)
(100.1776209 0.2410485376 1.480850434e-20)
(100.2994136 0.3473385821 2.641918878e-20)
(100.1438837 0.1110222232 -1.891711015e-21)
(100.229424 0.1862162187 -3.825806531e-21)
(100.1975721 0.05864622834 0)
(99.96609725 0.004507568045 2.188104211e-20)
(99.97398899 -0.002759973801 -3.648131706e-21)
(99.93678791 0.01924501027 1.838751621e-20)
(99.9496039 -0.003249227723 2.555013012e-20)
(99.88419765 0.05521471844 -7.314347432e-21)
(99.89856081 0.01282072891 -3.630196704e-21)
(99.81536184 0.1318629309 0)
(99.81408593 0.0534202513 5.568006946e-21)
(99.77953674 0.1229722584 1.696424346e-20)
(99.82298276 0.1563580427 -4.969668979e-20)
(99.76927781 0.148995619 1.275438706e-20)
(99.76985395 0.1890570512 0)
(99.71774872 0.2994632584 2.767161459e-22)
(99.70926173 0.2630233438 -2.827419339e-20)
(99.62987995 0.3009592433 -2.825517255e-20)
(99.63664778 0.3570949668 5.735264472e-20)
(99.5688486 0.5269483726 -8.534839413e-20)
(99.55086474 0.4752073787 3.03103536e-20)
(99.43291412 0.5450367269 -5.702755469e-20)
(99.47726928 0.617313024 -2.837809877e-20)
(99.42188224 0.627212219 -4.663530634e-20)
(99.40331115 0.8278715211 6.754045413e-21)
(99.38380277 0.7955686284 1.343515381e-20)
(99.30554498 0.8584371914 3.390673106e-20)
(99.32622281 0.9001074086 6.698981959e-21)
(99.16773728 1.319281764 1.005235458e-19)
(99.13363734 1.280670652 1.082246357e-19)
(99.02484295 1.384637549 -9.499232317e-22)
(99.06366363 1.434912052 2.006548361e-19)
(98.90843409 2.041956128 -3.70553517e-19)
(98.84699349 2.004473744 1.915600634e-20)
(98.70733297 2.17979554 -4.036907682e-19)
(98.7807541 2.229133032 -3.723762261e-19)
(98.74418175 3.007463883 -3.190041975e-19)
(98.64087604 2.996538122 -3.244312493e-19)
(98.49603692 3.265103492 -5.30475956e-21)
(98.62269909 3.279825888 5.099386852e-21)
(98.84987515 4.092394916 -1.425375882e-18)
(98.7054304 4.155506661 -4.696092702e-19)
(98.61415191 4.516014828 -4.968381201e-19)
(98.78891145 4.433414412 -5.064547859e-19)
(99.40917969 4.933436694 6.694002267e-20)
(99.21042532 5.115648132 -2.222537411e-19)
(99.30332296 5.494097263 -5.146197041e-19)
(99.40530064 5.263720483 -1.215938198e-20)
(100.1134347 5.162633223 8.740985892e-22)
(100.0391157 5.440872184 6.099807276e-22)
(100.1822148 5.727036479 -1.112611714e-19)
(100.2432053 5.405623734 6.039114413e-22)
(100.7455134 4.764456824 1.663069845e-19)
(100.7609028 5.071693709 8.538725234e-22)
(100.9361789 5.229439995 -3.462620374e-19)
(100.8930707 4.901192754 -1.264158495e-21)
(101.0821963 3.997270505 -1.329335706e-19)
(101.1606771 4.28261529 1.636052644e-21)
(101.3139531 4.341968337 -2.993062132e-23)
(101.2095399 4.053521907 1.128655175e-21)
(101.1458863 3.097681197 1.212121539e-19)
(101.2552555 3.339149606 1.246740768e-21)
(101.3689349 3.332568073 -8.786449279e-20)
(101.241529 3.100483923 2.762959547e-19)
(101.1454227 2.44245203 0)
(101.0327132 2.260687545 4.403100604e-20)
(101.2220276 2.41399887 0)
(101.0984864 2.241232649 0)
(100.8125206 1.498137937 2.795944328e-20)
(101.0121336 1.755316176 1.803291091e-20)
(101.1029914 1.663152718 -1.633962262e-20)
(100.8838992 1.445646529 3.512578822e-20)
(100.6056495 1.003191696 -3.223004233e-20)
(100.7625156 1.180837966 -1.439938133e-20)
(100.8172124 1.099248826 -1.453680806e-20)
(100.6509909 0.9553782603 -6.968797856e-21)
(100.4576388 0.4982656161 -8.813973517e-21)
(100.6856127 0.6315036971 -1.894812727e-20)
(100.7031993 0.8071377744 -2.499709783e-21)
(100.5754138 0.7717403931 4.912394096e-21)
(100.339424 0.2894257686 7.616268096e-21)
(100.4963229 0.382091206 1.160284091e-20)
(100.2732089 0.132211285 -1.933753381e-21)
(100.3777016 0.2018889194 -3.420932086e-21)
(100.3222592 0.06297338137 -4.934115798e-22)
(99.96157299 -0.01079044384 0)
(99.98418142 -0.01292802339 0)
(99.91651861 -0.0105659788 3.673942091e-21)
(99.94944803 -0.03388454643 0)
(99.83545275 0.01176596808 9.259709717e-21)
(99.87759575 -0.03795060132 -3.206324868e-21)
(99.72120902 0.08483710005 1.620934035e-20)
(99.75750077 -0.01684896275 2.051778713e-20)
(99.68616814 0.05920955699 -6.173314389e-21)
(99.71783369 0.1282978571 2.196313926e-20)
(99.65959009 0.09370135358 1.788051705e-21)
(99.64449666 0.1470112249 -8.784997838e-21)
(99.53794403 0.2821268934 0)
(99.54590319 0.2240744994 -1.837250306e-20)
(99.44556534 0.2415555474 -1.505471377e-20)
(99.42798531 0.3227862086 3.745847723e-21)
(99.28657832 0.5316946038 0)
(99.28831174 0.449695333 3.74544668e-21)
(99.13627261 0.4868900264 -3.852903753e-21)
(99.1499783 0.6183938142 1.877631552e-20)
(99.08941836 0.6017948605 4.828099028e-21)
(98.98574712 0.8852096473 3.281844271e-19)
(98.97864867 0.8235760909 1.111395882e-19)
(98.87167639 0.8720207922 1.106753814e-19)
(98.87706644 0.9449811937 5.83843436e-21)
(98.53172252 1.512246694 0)
(98.5112018 1.424554858 1.316936466e-20)
(98.35035034 1.52263319 -1.028554513e-19)
(98.37062461 1.630656122 0)
(97.98937197 2.513211776 3.887803267e-19)
(97.92926807 2.404134665 2.471721891e-20)
(97.70760014 2.589901747 2.47924763e-20)
(97.77915244 2.726309775 -7.675502625e-22)
(97.5342267 4.024333306 1.166184608e-20)
(97.39020517 3.917542194 6.166103299e-21)
(97.12707512 4.256518046 4.096416141e-19)
(97.31150977 4.386414532 6.103093426e-21)
(97.65605635 5.935414568 6.106158754e-19)
(97.3896367 5.929235771 -4.35633681e-21)
(97.21691738 6.458234716 -3.464029343e-19)
(97.55811003 6.445653964 -2.536380488e-19)
(98.87083535 7.497508592 -9.681467694e-20)
(98.54226929 7.7159096 1.241466302e-20)
(98.66525599 8.308846456 1.278539881e-19)
(98.99169995 7.997216366 -5.579732094e-21)
(100.5691209 7.693792837 -1.736237713e-19)
(100.438924 8.118653485 0)
(100.7832615 8.467956191 -1.31475962e-19)
(100.8703322 7.965738367 0)
(101.7756562 6.712566373 1.083661822e-22)
(101.8404063 7.13675557 4.067886859e-21)
(102.1721003 7.227809229 4.049424755e-21)
(102.0504888 6.789755674 -5.905617203e-22)
(102.2430252 5.323407557 -1.729759091e-21)
(102.4023298 5.667756358 7.94267172e-20)
(102.6496671 5.625874153 9.485818723e-19)
(102.4436983 5.292749625 8.939187617e-20)
(102.2013322 3.968764246 -1.738776193e-20)
(102.3877444 4.231250517 -2.206799122e-19)
(102.5337248 4.141987145 3.252489737e-20)
(102.3240139 3.897781284 -1.150979918e-19)
(102.0552154 2.976064043 -1.411088105e-20)
(101.8813973 2.784261739 -3.705865623e-21)
(102.1361267 2.874948375 1.032437828e-20)
(101.9508132 2.704491196 2.163341851e-20)
(101.4315974 1.782606711 -9.137575753e-20)
(101.7233552 2.037367608 -5.792870079e-20)
(101.7919656 1.845878961 -3.248938141e-20)
(101.4913463 1.653632558 -1.671785254e-20)
(101.052178 1.161385905 1.125882331e-20)
(101.2762996 1.329890711 3.388027135e-20)
(101.305612 1.185042647 -3.826786977e-21)
(101.0850043 1.059974674 -3.720098508e-21)
(100.7115644 0.514724325 1.980530666e-21)
(100.9889785 0.5943019815 0)
(101.0835728 0.8362848888 -1.225356795e-22)
(100.9397315 0.8371467966 -1.016793636e-20)
(100.5230599 0.2919520523 4.358699903e-22)
(100.7064166 0.3530295108 1.980352113e-21)
(100.4165821 0.131324837 -1.987014985e-21)
(100.5292139 0.1809741207 -1.98936429e-21)
(100.4461251 0.05557546861 -2.00441775e-21)
(99.9759366 -0.0358971035 0)
(100.0180612 -0.02764814877 1.798698222e-21)
(99.91526724 -0.06129249281 -7.367635486e-21)
(99.97347503 -0.07872557766 -1.811572277e-21)
(99.80570046 -0.06611410015 7.588892637e-21)
(99.88228598 -0.1149633966 -3.674649569e-21)
(99.63949902 -0.0115658001 9.972201688e-21)
(99.72814183 -0.1282288121 2.62499564e-21)
(99.61457221 -0.0576607695 1.201294133e-23)
(99.61671953 0.04367236292 -7.415270985e-21)
(99.56736969 -0.02020544634 -7.460586753e-21)
(99.52843679 0.04093303499 0)
(99.35746888 0.1782953845 -1.505434212e-20)
(99.39091513 0.1048259934 0)
(99.27778408 0.09247223042 -8.148388607e-23)
(99.22459713 0.1900286559 -5.325174189e-23)
(98.9864331 0.4099876395 7.735317694e-21)
(99.02431928 0.3026350139 1.162623737e-20)
(98.84784987 0.3003590808 1.563303757e-20)
(98.81346842 0.4713569956 -2.207431602e-20)
(98.75638231 0.4300286252 -2.566569143e-21)
(98.52623681 0.7636233986 0)
(98.54689414 0.6780915123 7.452516565e-21)
(98.41236715 0.7025118233 0)
(98.38391506 0.8024020302 0)
(97.77354521 1.438075775 -6.711182417e-19)
(97.78866973 1.306209426 -6.639472578e-19)
(97.58098101 1.367878602 -4.720270749e-19)
(97.55717142 1.524848405 -2.85956804e-19)
(96.74635116 2.627070312 -4.363700611e-21)
(96.72718775 2.418947438 -1.115149672e-19)
(96.39243779 2.564793738 3.794515385e-19)
(96.41257442 2.819946861 -2.222493073e-19)
(95.59192905 4.741924755 2.437103893e-19)
(95.44479492 4.449533556 1.034538708e-20)
(94.96982704 4.778363416 2.453514812e-19)
(95.16334172 5.15709949 -7.917715069e-22)
(95.27973101 8.098520971 1.076837222e-20)
(94.8042123 7.843177326 1.719526901e-20)
(94.32570904 8.599902043 6.915180127e-21)
(94.9897261 8.898301058 1.91050966e-20)
(97.78339867 11.46442254 0)
(97.03743697 11.78118843 -5.934536258e-20)
(97.28946861 12.88176042 1.896433665e-20)
(98.17157877 12.3350918 5.433312394e-21)
(101.8893975 11.30749218 -1.235774209e-19)
(101.6742364 12.10836289 1.565137788e-20)
(102.4900454 12.48493347 0)
(102.556087 11.54574956 0)
(103.8871231 8.782704221 4.163648435e-19)
(104.1080801 9.402760969 1.167180311e-20)
(104.6815495 9.283671776 4.161991951e-19)
(104.3418049 8.682237959 -9.771838818e-20)
(104.1581567 6.37480459 -1.083787647e-18)
(104.4748892 6.759149232 -1.333105829e-20)
(104.767389 6.544691572 -1.193042479e-18)
(104.40178 6.200681955 -1.15125375e-18)
(103.7023138 4.490608764 -8.15945379e-19)
(104.0013502 4.742901709 -2.719936795e-19)
(104.1461124 4.531810828 -6.047883074e-19)
(103.8272826 4.318041415 7.048971637e-21)
(103.2494219 3.200024504 -1.154377819e-20)
(102.9917037 3.023074693 9.496794178e-20)
(103.3081469 3.018495004 3.024246257e-20)
(103.0467161 2.869634256 -3.252874972e-20)
(102.1748106 1.842125665 2.651007906e-20)
(102.557375 2.050832243 -2.534746336e-22)
(102.5652711 1.762050117 1.627465666e-20)
(102.1912012 1.634821079 1.210324511e-20)
(101.5654219 1.16305866 -1.596466041e-20)
(101.8563083 1.2918684 -8.160258464e-21)
(101.8299597 1.089816819 -8.161839399e-21)
(101.5601935 1.010641654 1.249378253e-20)
(100.9689339 0.4387518616 0)
(101.2834151 0.4449215353 1.33025391e-21)
(101.4644919 0.716146562 -1.101967383e-20)
(101.3273825 0.7856965388 2.727074251e-20)
(100.6996981 0.2399874001 -5.024922423e-22)
(100.8938427 0.2507281246 -1.57110883e-21)
(100.5485637 0.1049244646 -2.016328951e-21)
(100.6565813 0.1197203866 -2.289984255e-21)
(100.5450831 0.03554236401 2.565916913e-21)
(100.0189727 -0.07002455181 -1.230125193e-23)
(100.0841267 -0.04632075297 5.321263664e-23)
(99.94460757 -0.1313627078 1.878636887e-21)
(100.0313854 -0.1357939435 -6.406411369e-23)
(99.81013966 -0.176100216 -9.850470526e-21)
(99.9246087 -0.2145102999 1.473314352e-21)
(99.59432427 -0.1599392063 -8.923462532e-21)
(99.74344891 -0.2753726122 -1.498327029e-20)
(99.58714252 -0.224154225 -1.273356448e-20)
(99.54548816 -0.09950597399 -7.032598835e-21)
(99.51752666 -0.190620273 -2.769824522e-21)
(99.45011816 -0.1301362863 3.407754672e-23)
(99.21112919 -0.01493351574 1.131436051e-20)
(99.27683118 -0.0947146929 1.148147029e-20)
(99.1614091 -0.1422746316 5.671674149e-21)
(99.06721568 -0.04186347034 1.950134071e-20)
(98.72712059 0.1577426446 -1.158284672e-20)
(98.81233429 0.03394721319 -7.652344323e-21)
(98.62916037 -0.01587067613 -5.20801701e-20)
(98.52395042 0.1716796771 -3.148990045e-23)
(98.48231063 0.1069435837 -5.092666813e-20)
(98.0976518 0.4425424895 1.778760832e-19)
(98.15707623 0.343291842 1.46660054e-19)
(98.00683547 0.3318689966 1.198694364e-19)
(97.93383256 0.4442031639 -1.101974733e-19)
(97.03626551 1.012927579 3.520111759e-19)
(97.1158323 0.8508526188 5.886935973e-20)
(96.8768312 0.8477851464 0)
(96.76975393 1.036294006 6.088827261e-20)
(95.34933374 2.099119694 0)
(95.44366992 1.81937642 0)
(95.03594677 1.838671238 0)
(94.89823507 2.178035383 0)
(92.89228323 4.225488062 0)
(92.92238182 3.70899427 -5.057654462e-21)
(92.22007487 3.768902784 8.368043502e-20)
(92.14481461 4.446322572 0)
(90.01019811 9.164606129 0)
(89.5227409 8.080161027 -1.018450925e-19)
(87.84691467 8.974640161 0)
(88.15220751 8.362038947 0)
(89.0774138 10.33540118 -3.27100408e-20)
(88.26711031 10.26039801 3.157835955e-20)
(92.40626889 19.28754227 -1.15294163e-20)
(93.6031591 19.1346441 2.034097723e-21)
(92.58476233 20.87867486 4.687099812e-21)
(94.1203339 20.40576342 -3.206272489e-22)
(105.6303032 18.33331165 1.889922828e-19)
(105.8880312 16.86081406 -3.752601979e-20)
(107.3740706 16.65671485 3.32563074e-20)
(106.2996607 19.17620359 2.367354868e-19)
(108.1684244 18.20703718 4.819754619e-20)
(107.763419 18.85242459 -2.998744199e-19)
(108.4710235 11.26660679 2.191405398e-19)
(107.8089865 10.4530396 -7.911431223e-22)
(109.132477 10.61992916 4.433483993e-20)
(108.3356074 9.956890149 6.672019417e-20)
(106.9111463 6.671298262 -3.711111014e-19)
(107.4742019 7.019067886 -2.405890598e-20)
(107.7175692 6.539118777 -2.386956041e-20)
(107.1246046 6.283066748 -2.373961382e-20)
(105.6016126 4.365562823 1.762473694e-21)
(106.0341159 4.539585782 2.291740554e-20)
(106.1004775 4.191418432 3.776273369e-19)
(105.6697977 4.071582024 2.323146802e-20)
(104.6063779 2.900638024 7.806487342e-20)
(104.2684315 2.797562954 2.329776494e-19)
(104.5920053 2.648358962 2.479358189e-19)
(104.2632972 2.570948239 1.973234106e-21)
(102.9508604 1.597783076 4.311448969e-21)
(103.4274586 1.705040104 0)
(103.3133108 1.344624951 -2.547164559e-21)
(102.8869135 1.32020511 -4.546466998e-21)
(102.0820584 0.9592731887 4.525489638e-21)
(102.421536 1.016070763 -1.76081149e-23)
(102.3192187 0.7746762767 -7.294390505e-21)
(102.0156251 0.7645269839 9.17644705e-21)
(101.186804 0.2638869885 -1.723099403e-22)
(101.499273 0.1837841187 -3.00236289e-22)
(101.8031555 0.4409460852 8.165886179e-22)
(101.6853969 0.544818059 6.653931079e-21)
(100.8370968 0.1303240934 -3.367417249e-21)
(101.0197166 0.07598568903 -2.395460571e-22)
(100.6427503 0.05130472887 2.501693445e-21)
(100.7310618 0.01985998915 -2.283628418e-21)
(100.5934629 0.003397986656 4.346347325e-22)
(100.099096 -0.1113999804 1.295454515e-23)
(100.189214 -0.06785681742 -2.666083997e-21)
(100.0145348 -0.2169503617 -4.841522226e-22)
(100.1309699 -0.2016880401 1.159930764e-21)
(99.86189714 -0.3119964417 -3.823640802e-21)
(100.0143183 -0.3300605598 -2.518799301e-21)
(99.60514705 -0.3490484648 7.838509865e-21)
(99.81595587 -0.4475200245 -8.648353549e-22)
(99.62181147 -0.4285198036 8.165194004e-22)
(99.52654957 -0.2940711237 3.82138995e-21)
(99.53151211 -0.4045026301 7.947318734e-21)
(99.43428903 -0.3542249703 5.602394229e-21)
(99.13292029 -0.285735731 -1.911368987e-21)
(99.2342095 -0.3597896124 2.94850549e-21)
(99.12812157 -0.4422118757 1.948688057e-21)
(98.99184467 -0.3545792228 5.901895067e-21)
(98.56058248 -0.2152500209 -2.454875107e-20)
(98.69709449 -0.334810225 1.406377008e-20)
(98.52561819 -0.4339928616 2.827303186e-20)
(98.34717166 -0.2540018869 8.212344896e-21)
(98.33039118 -0.3401299646 1.820934574e-20)
(97.80194783 -0.06695109975 -4.893371989e-22)
(97.90454475 -0.1630288575 -2.959442931e-20)
(97.76045411 -0.2164220156 9.010587155e-20)
(97.64375209 -0.1145540491 -3.03810921e-20)
(96.50993649 0.2341811714 6.363100372e-20)
(96.66653805 0.07941669679 -3.134636298e-20)
(96.43591565 0.001493671738 3.730194878e-21)
(96.23982754 0.1690692281 -1.297668134e-19)
(94.33535007 0.7927418882 1.442989302e-19)
(94.58237398 0.5274145005 -1.764898543e-20)
(94.20772892 0.3918545174 0)
(93.88702584 0.6751383022 -2.004178152e-20)
(90.84531317 1.650873256 0)
(91.24487041 1.165946783 0)
(90.70611737 0.8350106308 5.340445538e-20)
(90.12445769 1.316672583 -1.348618793e-20)
(84.31652761 2.593209468 0)
(84.91769717 1.992084282 -2.365299744e-20)
(84.37124926 1.371228291 0)
(83.51711344 1.950482267 0)
(120.2487339 23.00440982 -3.405939739e-19)
(118.7076338 21.86533758 -2.239423323e-20)
(121.0629214 21.31627033 -2.236233786e-20)
(119.5160226 20.5370836 -2.232743203e-20)
(115.1943553 10.25057577 4.482533653e-20)
(113.7700414 9.748005697 -6.518051501e-20)
(115.3081114 8.868786435 -6.532174096e-20)
(113.9472702 8.677540515 1.470711655e-19)
(110.1495427 5.458548447 1.28361988e-19)
(110.9590443 5.567674619 1.220752896e-19)
(110.9124983 4.856471762 4.09311108e-19)
(110.1491323 4.867223409 -3.810607941e-21)
(107.5493231 3.298451987 -3.059584543e-19)
(108.086962 3.313739501 3.136550625e-20)
(107.9891976 2.870979417 3.064061137e-19)
(107.4901224 2.918709137 -8.147741125e-20)
(105.8807375 1.960021264 2.384758e-19)
(105.4893864 1.965260931 1.859009842e-19)
(105.7560455 1.66264896 2.80800534e-19)
(105.3935382 1.695587337 2.109671804e-19)
(103.6303106 1.006202214 -4.974331746e-21)
(104.165283 0.9717174308 -4.368832149e-20)
(103.8847027 0.5925408852 8.021057899e-21)
(103.4516881 0.701463095 1.188409993e-21)
(102.5119213 0.538514933 -1.957877872e-21)
(102.8652888 0.4974617245 1.387964133e-20)
(102.663949 0.2570419678 5.104836654e-21)
(102.3701383 0.3360668266 1.011313073e-20)
(101.3172439 -0.0003106730551 -3.232435119e-22)
(101.5984126 -0.1712404943 -1.06740125e-21)
(102.0161799 0.02437533755 -1.086711363e-21)
(101.9527965 0.185632384 -1.273982818e-21)
(100.9020305 -0.0326478927 1.079710711e-21)
(101.050118 -0.1568988944 1.331929195e-21)
(100.6726111 -0.02660159465 -4.304812244e-21)
(100.7253087 -0.1106920963 1.652037504e-21)
(100.5683545 -0.03864318726 -2.133313596e-21)
(100.2224907 -0.1573282977 -1.519074037e-21)
(100.3376228 -0.09081115187 8.415912152e-22)
(100.1324081 -0.3122082821 -8.833373246e-22)
(100.2770892 -0.2719337006 -6.269426101e-22)
(99.97036754 -0.4636616946 4.513414654e-22)
(100.1572167 -0.4533109914 -2.23030401e-22)
(99.68610298 -0.5650721789 5.04240472e-22)
(99.95329274 -0.6318266396 7.609217719e-22)
(99.72968905 -0.6533332763 4.496270251e-22)
(99.57787575 -0.5233935312 1.321220633e-21)
(99.62211947 -0.6443811156 -1.192672663e-23)
(99.49796706 -0.6118980165 -1.192842298e-23)
(99.14921484 -0.6080945498 -1.94436321e-21)
(99.2836897 -0.6658704318 0)
(99.19715158 -0.7794378382 -9.539972253e-22)
(99.02453709 -0.7165779496 -1.006171531e-21)
(98.52742507 -0.6658362887 1.727521173e-20)
(98.71052685 -0.7627372781 -5.74373098e-24)
(98.56694513 -0.9042029456 -2.311753594e-23)
(98.32496524 -0.7564177544 4.128065074e-20)
(98.3375297 -0.8532029599 3.095776541e-20)
(97.7159529 -0.6949479475 -6.070569941e-20)
(97.85069876 -0.768927195 1.403170046e-20)
(97.72922082 -0.8591342341 2.953603688e-20)
(97.58147657 -0.78505136 8.906927107e-20)
(96.34835773 -0.7327589265 0)
(96.56041041 -0.844749786 -6.215084927e-20)
(96.36592097 -0.9784865385 6.372276518e-20)
(96.11636667 -0.8684173973 6.652101735e-20)
(94.12166927 -0.817607223 9.966363133e-20)
(94.45443202 -0.9824502527 2.612603067e-20)
(94.17744163 -1.195914612 5.783254705e-20)
(93.79223989 -1.051355426 7.21571113e-20)
(91.02442418 -1.286498602 1.25676695e-20)
(91.52852755 -1.469135818 0)
(91.26199239 -1.831299595 -4.940584147e-20)
(90.71540007 -1.722203831 -9.994483277e-20)
(87.70969191 -3.23625664 5.795012649e-20)
(88.11379338 -3.160154022 0)
(88.13780131 -3.459113166 0)
(87.80099477 -3.610913844 -5.541736018e-20)
(134.2362035 9.080443792 -3.002962155e-19)
(132.562263 9.782671193 0)
(133.1881788 7.668317671 5.403665396e-21)
(131.7887868 8.423745425 0)
(120.423478 4.164514391 -4.491018084e-20)
(118.8506229 4.637346898 1.445325893e-19)
(119.5012767 2.889950615 1.499646424e-19)
(118.2362352 3.495083209 1.061699803e-19)
(112.6723915 2.389752035 -9.159777075e-21)
(113.4978409 2.092284016 0)
(113.0246794 1.411319769 1.880833181e-20)
(112.3220813 1.767003568 -7.404451809e-20)
(108.9820096 1.253044247 1.101768761e-19)
(109.504437 1.047220837 -5.965180976e-21)
(109.1836356 0.6309360002 -1.612627746e-22)
(108.7299767 0.8667697494 -1.175637681e-21)
(106.72013 0.4390397776 5.852025679e-20)
(106.3398089 0.5782064425 -4.792702678e-20)