/*--------------------------------*- C++ -*----------------------------------*\
| =========                 |                                                 |
| \\      /  F ield         | OpenFOAM: The Open Source CFD Toolbox           |
|  \\    /   O peration     | Version:  v1912                                 |
|   \\  /    A nd           | Website:  www.openfoam.com                      |
|    \\/     M anipulation  |                                                 |
\*---------------------------------------------------------------------------*/
FoamFile
{
    version     2.0;
    format      ascii;
    class       volScalarField;
    location    "2.96";
    object      omega;
}
// * * * * * * * * * * * * * * * * * * * * * * * * * * * * * * * * * * * * * //

dimensions      [0 0 -1 0 0 0 0];


internalField   nonuniform List<scalar> 
12556
(
31.93074018
31.93159491
31.93251214
31.93335385
31.96666145
31.96717184
31.96756338
31.96834585
31.96992771
31.97278343
31.97722102
31.982607
31.98708784
31.98849189
31.98571902
31.98105004
31.97615562
31.97181
31.96973445
31.96801475
31.93444206
31.93326025
31.93215037
31.93113886
31.79399984
31.79649405
31.79912444
31.80144325
31.83543201
31.83721005
31.83940597
31.85866742
31.8660623
31.87949055
31.90043581
31.92635637
31.94775636
31.95497585
31.94490355
31.92319217
31.89941884
31.88030494
31.85174751
31.84292204
31.80563177
31.80198939
31.79872985
31.79571529
31.65884797
31.6633296
31.66790274
31.67160472
31.70599823
31.7094721
31.71462082
31.73854149
31.75671914
31.78897777
31.83906304
31.89937056
31.94092062
31.95465977
31.93314247
31.88460598
31.83299455
31.78952481
31.74244298
31.72338415
31.68044003
31.67388165
31.66816058
31.66324137
31.52538683
31.53125231
31.53730287
31.54233076
31.57784268
31.58407638
31.59496147
31.62871933
31.66726048
31.73862756
31.84640153
31.97335477
32.0642954
32.07261948
32.00554315
31.91106363
31.81167469
31.7270235
31.65003163
31.61393942
31.56031279
31.54924685
31.54065048
31.53348982
31.39386058
31.40155807
31.40930303
31.41589415
31.45239066
31.46254211
31.48214128
31.53202194
31.61262645
31.76217835
32.01434457
32.33938748
32.58210509
32.54515212
32.31621926
32.07986128
31.87226189
31.7120109
31.58406427
31.51826603
31.44610817
31.42829593
31.41565293
31.40613408
31.26378816
31.27282403
31.28201207
31.29042505
31.3299783
31.34667154
31.38159387
31.45729851
31.60212174
31.91732661
32.55476887
33.6941669
34.66219509
34.24683569
33.24896183
32.55459673
32.08763392
31.76673344
31.5478279
31.43944102
31.33941712
31.30996831
31.29217388
31.27971199
31.13604485
31.14672031
31.15788028
31.16881024
31.21091599
31.23655798
31.29311485
31.40629521
31.65091557
32.27567555
33.88534101
39.05521575
45.18139936
42.30386705
35.81676558
33.61118157
32.54179576
31.92877962
31.55173485
31.37940492
31.23942865
31.19485818
31.16994336
31.15404177
31.0100639
31.0221767
31.03521563
31.0491476
31.09644865
31.1336191
31.21771393
31.37179634
31.75516779
32.80555179
36.06660255
52.49817178
68.71011341
41.81515981
35.52573231
33.29985443
32.21590584
31.59233608
31.33464081
31.1466964
31.08252147
31.04873738
31.02879606
30.88744398
30.90150948
30.91736103
30.93544109
30.98781577
31.03885086
31.15414657
31.35278461
31.89313401
33.35578567
37.87587621
62.42531682
127.4634549
50.74649815
38.19325913
34.31362184
32.60392849
31.67213976
31.30302404
31.06101594
30.97463995
30.92995577
30.90547256
30.7678827
30.78362122
30.8020837
30.82485779
30.88543914
30.95200169
31.09953602
31.34592699
32.03582434
33.81223029
38.99075105
69.50003447
159.388171
58.62775167
40.96541115
35.42450867
33.03520527
31.77288444
31.282037
30.98215376
30.87184964
30.81539247
30.78581028
30.65346697
30.67144957
30.69344576
30.7227177
30.78839745
30.87251181
31.05186354
31.35006344
32.1782429
34.20438752
39.94326638
78.74170169
159.9954552
63.28115167
43.24005895
36.42783789
33.44693982
31.87286564
31.26785002
30.90991192
30.77655618
30.70751469
30.6724857
30.54275432
30.56252495
30.58758914
30.62327815
30.69667035
30.79929155
31.00941837
31.36257331
32.31867421
34.57475209
41.0373636
89.86947919
148.4392395
65.10875363
44.73358476
37.17762304
33.77189028
31.95321681
31.25453347
30.84358423
30.68774056
30.60715022
30.56645403
30.43811311
30.46027439
30.48957789
30.5325191
30.6097604
30.73110613
30.9697956
31.38043185
32.45647011
34.94715495
42.48057964
100.3382827
663.4703113
128.1193182
65.23575017
45.47992671
37.64331298
33.98119636
32.00117266
31.23515846
30.78115051
30.60626133
30.51423627
30.46817846
30.33651671
30.36083163
30.39417493
30.44348674
30.5308955
30.67632368
30.95148231
31.41894891
32.6353515
35.44960194
44.80906961
150.4210331
415.9702611
119.5236781
64.543315
45.72323437
37.81773372
34.06730478
32.01578769
31.20650189
30.71751349
30.52857199
30.42692035
30.37589884
30.23983322
30.26636128
30.30352206
30.35846078
30.45248097
30.61578516
30.91801102
31.43464746
32.73766961
35.78627011
47.32047711
492.9201114
297.5083073
111.5317225
63.19645946
45.48301609
37.76638511
34.05450049
31.99538565
31.16607725
30.65347904
30.45364516
30.34280327
30.28759536
30.14402597
30.17267031
30.21357001
30.27459632
30.37614572
30.55508931
30.88367391
31.44697128
32.82545084
36.09434552
50.18141269
724.6867954
261.5267757
106.1987914
61.92778644
45.02781079
37.55612494
33.96172372
31.94195035
31.11225815
30.58349339
30.37598354
30.25898514
30.20012045
30.05160882
30.08242016
30.12666062
30.19261497
30.30035204
30.49284438
30.84650844
31.45727009
32.92340188
36.48139182
53.52648671
749.7621606
239.4166224
101.8953418
60.49071354
44.43082359
37.28349933
33.83230232
31.86479563
31.04621796
30.50929153
30.29710728
30.17444971
30.11239327
29.95745447
29.99023863
30.03776154
30.10918484
30.2239977
30.4280968
30.80497309
31.46167455
33.03330582
37.01846827
59.03162332
747.3315775
217.5929405
97.44169199
58.82908638
43.74980207
36.98322361
33.67758746
31.76731916
30.96502317
30.42554412
30.21062666
30.08523856
30.02073491
29.86562985
29.9003132
29.95071646
30.02626636
30.14618943
30.36038067
30.75882528
31.45876286
33.1420804
37.70431238
68.26199656
701.4683311
196.7052146
93.01237709
57.23189791
43.11309156
36.68492074
33.50842512
31.65706489
30.8730097
30.33576858
30.12021527
29.99298518
29.9271122
29.76993329
29.80616576
29.85943581
29.94002949
30.0664831
30.28968406
30.70858675
31.45003432
33.25155488
38.48769257
79.00087402
628.7170555
181.0585464
89.46238695
55.9427787
42.5446526
36.39824019
33.33353553
31.53819943
30.77217182
30.23770701
30.02196294
29.89375642
29.82717929
29.67671457
29.71426012
29.76985943
29.85390515
29.9844829
30.2161851
30.65499692
31.4374875
33.36805534
39.43764877
89.11152328
565.5219143
168.7882675
86.4288421
54.91787314
42.04216789
36.12703823
33.15814941
31.41352135
30.66430164
30.1353384
29.92089305
29.7924684
29.72561072
29.57801984
29.61645842
29.67438252
29.76312708
29.90013843
30.14012222
30.59881027
31.42293862
33.49756745
40.69301672
98.06100019
510.0244595
158.6332285
83.78161005
54.07987818
41.60808956
35.87348566
32.98534832
31.28517503
30.55098092
30.02572302
29.81206525
29.68380881
29.61717214
29.48323859
29.52230117
29.58186642
29.673206
29.81335297
30.06176683
30.54074868
31.40823798
33.64975261
42.37789231
106.1037661
460.8533971
150.0337951
81.4435288
53.35585802
41.23989703
35.63982545
32.81721201
31.15493569
30.43358794
29.91457038
29.70307968
29.57547081
29.50927444
29.38138482
29.42074912
29.48211009
29.57782324
29.72452056
29.98153536
30.48169671
31.39581635
33.84498666
44.32641984
113.3045108
417.2198795
142.6243158
79.35580445
52.70529369
40.92486429
35.42696752
32.65529383
31.02426212
30.31340675
29.7971056
29.58642936
29.45947441
29.39401097
29.2860411
29.32551498
29.38793726
29.4853617
29.63387705
29.90002337
30.42279824
31.38891077
34.11148805
46.30087053
119.6590939
378.4866968
136.1502762
77.47309115
52.1086131
40.64776331
35.23336308
32.50040149
30.89422465
30.19145966
29.68130054
29.47311863
29.34716751
29.28248383
29.181306
29.22072292
29.28463089
29.38644076
29.54216351
29.81788265
30.36527177
31.39171688
34.46578148
48.20182198
125.1443961
343.4973352
130.4254972
75.75992972
51.55493163
40.39700296
35.05591265
32.35247345
30.76546114
30.06862795
29.55896813
29.35104522
29.22582873
29.16206606
29.08695736
29.12620886
29.19083346
29.29364201
29.44959214
29.73576419
30.31028896
31.40854475
34.9001597
50.00726139
129.7272992
312.1363394
125.3132679
74.18850659
51.03687585
40.16510021
34.89137843
32.21091857
30.63829921
29.94546596
29.44201086
29.23675233
29.11261281
29.04970992
28.97941494
29.01846125
29.08448333
29.19210477
29.35700868
29.65425774
30.25898923
31.44357396
35.3929178
51.71707302
133.5804963
284.3948672
120.7059183
72.73613146
50.54847593
39.94710207
34.73695623
32.07492882
30.51284666
29.82251379
29.31637694
29.11051303
28.98700683
28.92502897
28.88788187
28.92666923
28.99326752
29.10133453
29.26432431
29.57388394
30.21249143
31.49974897
35.92214179
53.33311522
136.8221334
260.136952
116.5173733
71.38430711
50.08478489
39.73960158
34.59043643
31.94372182
30.38912545
29.6999533
29.20123446
28.9982646
28.87576332
28.81458186
28.77699007
28.81556038
28.88359848
28.99718692
29.17249942
29.49509591
30.17191999
31.57841805
36.47169846
54.85990009
139.4893012
239.1512211
112.6803588
70.11787724
49.64166176
39.54014147
34.45011022
31.81659616
30.2671102
29.57819957
29.07225863
28.86768713
28.74567667
28.68533852
28.69043947
28.72877178
28.79740174
28.91107419
29.08102195
29.41832353
30.13841419
31.67905134
37.03093288
56.30313781
141.6366742
221.1369722
109.142189
68.92438517
49.21560514
39.34684179
34.31464614
31.69295625
30.14677236
29.45717407
28.96210426
28.76068072
28.63950639
28.57982778
28.57481272
28.61299475
28.68316025
28.80306067
28.99120747
29.34402455
30.11300571
31.79990465
37.59236196
57.66181127
143.2636024
205.7035762
105.8609424
67.79335656
48.80356592
39.15816922
34.18297561
31.5722916
30.02809068
29.33737442
28.82784593
28.62400419
28.50323851
28.44430453
28.49605181
28.5340872
28.60499179
28.7251388
28.90202412
29.27266783
30.09660497
31.93879113
38.15137643
58.93858631
144.4529799
192.4804078
102.8018993
66.71541651
48.40272959
38.97279149
34.05419535
31.45412525
29.91110481
29.21851265
28.72723169
28.52638134
28.40618059
28.34775185
28.3732307
28.41121708
28.48377965
28.61016489
28.81564896
29.20483757
30.08941314
32.09347179
38.70556886
60.1406388
145.2324347
181.114149
99.93810142
65.6824703
48.01068779
38.7896257
33.92758021
31.33809181
29.79607388
29.10160709
28.58280362
28.37983485
28.26007638
28.20231877
28.30579544
28.34379434
28.41731207
28.54570076
28.73059553
29.14139899
30.09186462
32.26184205
39.25331912
61.27140725
145.6152538
171.2717282
97.25046081
64.68899005
47.62576398
38.60786353
33.80253859
31.22382897
29.68381663
28.98671215
28.49941774
28.29733609
28.1778159
28.12039248
28.14983931
28.18800061
28.26398603
28.40023524
28.65128516
29.08370808
30.1028309
32.44094143
39.78966823
62.32813682
145.672929
162.6831363
94.74034281
63.73977005
47.24995011
38.42788979
33.67906013
31.11131732
29.57655517
28.87731004
28.31345359
28.10947193
27.99035467
27.93363017
61.7993978
149.245981
77.00659284
68.42477748
190.8369412
154.8987569
77.56543241
189.2400125
192.4199818
88.51386497
171.6485888
187.135219
99.22926475
809.3002183
693.0781926
154.774963
169.0950023
129.2337691
512.4839318
793.548617
433.8783123
150.7705195
153.1250397
50.38368282
44.71775435
70.58595058
42.12868485
420.5695886
152.1996689
120.8149456
55.05962166
45.286628
38.75398484
58.67423993
54.76108719
1401.117466
985.7836664
157.5594908
66.77334867
58.31817031
39.73063915
65.28428869
59.3712416
72.96660666
211.7232785
187.0369406
818.4118482
1109.345346
161.0073313
73.29957561
68.90020659
40.81215073
73.12313856
66.18276923
82.50991877
317.9982918
248.9044722
475.2938802
621.5964029
42.17592701
83.55014757
74.1419123
92.1243979
503.6780876
396.4119479
1798.760382
311.5930206
362.5342725
44.40457605
105.2764629
85.14804759
109.16506
1134.815332
735.1403995
157.2566974
392.5254957
504.8039247
146.4250258
176.7235655
93.5405477
141.1621734
958.4334215
442.3735459
117.4881571
360.0300517
678.3694259
183.9859459
163.7884441
65.27714008
216.5050958
233.5141026
182.4837424
213.1246984
1121.113443
1403.415485
175.2858121
990.0207519
871.5464071
701.2502802
986.6111242
172.8797367
245.371721
215.7813432
74.12695726
279.6565656
326.4460309
235.796369
276.2316898
648.4288084
801.4421761
192.9576988
618.2089534
492.7309594
863.0384558
639.1502446
193.5966887
391.8184598
321.5718397
83.86403665
397.2407121
504.301168
329.5364214
392.9327654
373.1620035
458.7300106
723.6021071
513.8780228
92.5265048
2666.231756
706.5970782
1091.236605
509.8383576
689.3489073
3089.712736
286.5881778
306.3113338
1585.482221
8510.028719
1145.847351
110.6471462
585.6515369
1795.129679
7599.415053
1100.846481
1762.253433
601.373861
37.5170423
54.2224425
47.07508672
57.84742682
116.3514911
82.0213972
2384.504402
416.2482845
64.68313102
161.3485747
140.318758
5060.547365
150.2896121
75.34680402
74.11810479
5391.542755
682.6469965
757.3145283
527.5274218
254.2937379
276.8524878
136.9936238
119.3383056
59.06254448
1297.191608
202.3363767
479.9377065
128.5591172
319.920611
108.6815313
773.796407
982.4179512
178.3114339
380.0454252
323.8676575
477.208888
390.4150658
180.8284762
1112.395559
4142.691549
701.7228628
68.21636791
56.91830648
86.05458551
133.5988505
67.38374334
70.71718794
3227.851504
297.1646904
2299.389583
318.1917614
1698.944573
268.3535231
1139.755613
1124.596575
936.8022538
957.050845
1845.881395
4221.991032
530.5283295
2209.203746
1223.640364
4738.553968
2619.33802
551.871891
435.4053821
162.5297598
170.6532593
574.5287061
651.1548371
4783.150283
798.3503046
217.8189096
232.3759887
200.575873
212.3855248
794.8496663
1118.770599
1297.212276
158.2483456
800.2690278
626.1656961
1279.4782
802.7297351
161.8505744
117.1530159
339.3326614
165.0677395
545.2123675
367.9270313
124.9176398
505.6333206
797.6303998
675.2651596
640.6985539
219.153635
1461.558727
219.7546725
196.1226895
1384.80147
1302.598018
1452.358851
1395.10991
200.2408635
1182.347621
1193.504249
919.8623691
324.0779242
315.5619796
326.3965273
325.4304443
913.730081
834.1971362
287.9006845
264.2472183
311.4543596
294.8646111
850.3374478
300.9849459
304.0119872
253.0060532
255.5018796
686.2881253
4916.300052
698.6074086
429.8027096
436.9873607
360.2859847
364.6439484
1157.175212
854.1991527
416.9452629
1039.253437
1712.591906
570.5570932
186.0327042
196.5619097
173.578906
182.776468
561.1733406
1217.620099
756.4004223
770.1461233
550.1106177
555.1460212
5620.909246
943.5577931
494.3879782
551.6890069
238.7237796
251.6237349
1427.109392
2884.562599
1365.829086
2344.106339
1142.513811
6285.826883
2628.224227
5368.470113
1138.664375
669.5059487
3747.038916
1740.527067
2934.524551
1736.651751
2365.714294
46.65417041
115.6991147
108.5783457
169.5792478
4185.737645
7751.128432
310.7977229
137.9776785
147.6783756
969.7316762
2745.854984
3945.816612
435.7071834
476.4662583
887.4608732
233.8213384
247.0137626
513.8715674
132.3139629
96.53831576
185.8825996
336.2265014
119.3346449
138.0619988
1316.69421
3153.231813
3308.990292
1055.608388
870.4388158
2397.213587
1767.214155
4034.259469
3986.162193
1061.71063
290.0786801
130.2433276
135.3363923
123.9722277
128.6220238
284.1335117
153.0591719
160.1293429
430.4110106
1043.039636
406.3529697
427.0208474
6385.192639
3139.891036
469.4706599
831.3362518
2834.79347
3139.001594
476.7684931
213.6793252
180.4274517
254.6948453
225.040269
497.9856396
1149.773325
3971.403627
4039.900697
1338.586832
231.8857676
118.2232529
122.5042504
688.6410664
673.4472722
316.4868021
1673.265698
1542.344453
757.5694645
560.9995599
295.5162508
306.0724045
776.7774069
320.9523169
325.7387943
309.7577009
318.3326983
763.3259828
352.468415
144.6438802
150.8875526
137.1069181
142.676438
347.8131806
410.1944903
1021.259977
1009.885021
1644.607671
1594.055171
481.8711768
341.3988142
728.7474065
691.2140407
1004.925873
996.4796329
380.6317054
404.2026033
823.9451994
667.7635593
5816.311226
1801.245593
731.9189381
917.1527721
526.5319727
1680.623923
1652.522201
1690.991723
601.3084239
4661.593044
8814.087442
322.0540358
375.1450861
434.8594595
453.8470414
1157.800112
1587.058736
996.3819542
543.3100895
1817.521874
7891.681555
1464.399656
1287.389055
16046.88945
1113.325752
1674.607774
1444.018015
1750.67858
1298.896075
5009.362883
5081.325444
1188.214984
1546.420874
5603.601763
1365.390921
1299.519717
313.726025
1141.218614
466.2899044
1143.927512
340.5084358
3872.351146
2614.761002
870.4985604
4615.535316
5407.717919
4349.471891
2977.167794
944.7746536
4515.472986
5666.767553
2939.054124
4281.894917
5995.448623
1703.338311
2567.690633
1191.465651
1512.476704
5396.608628
3291.364966
970.4859461
604.4081433
1567.150392
1066.61902
546.475874
349.245383
963.0775127
3483.460108
4409.339567
1252.721118
1072.157997
3349.123543
3490.557547
2623.497032
2488.806533
890.3697243
4361.846836
4278.271026
3116.256877
4243.816768
4240.977724
1034.652307
4132.313707
2698.697657
2760.409294
3112.160049
1665.626861
789.0854483
850.8812542
3516.102354
989.508149
1117.408241
876.1346641
952.5297965
3291.247151
3399.174071
930.0136902
1095.684094
377.0545972
399.2029983
946.3131726
764.3856107
355.5983339
371.4899602
1234.104702
1250.392602
781.744278
270.9460449
294.2527429
244.1785888
264.2449896
773.3852827
859.8260174
336.7802012
370.6529021
302.6316712
328.0377063
865.4200105
478.9985688
220.1332973
238.4301155
704.815754
738.9716224
2035.519627
2127.200263
788.0686409
3004.069909
3024.283199
3834.459615
2078.152328
1737.83884
2918.830406
2055.833594
542.7853744
1468.697468
1945.183582
1511.332395
487.1068218
553.2196911
460.1195239
475.7031558
1470.669124
606.8013139
619.7147392
575.2216512
602.1868684
1355.36301
402.7744878
417.5055515
379.3961645
397.626523
1343.341464
1428.398193
441.1886708
454.8852622
422.3328635
436.4960913
1423.146336
3853.034423
3925.474255
1158.512965
1286.539243
4038.506675
3830.300173
951.5096022
958.2189501
922.2657665
949.340311
973.799679
988.6350069
960.6072003
970.6445913
640.0598174
652.4749361
623.7708582
635.7972449
697.2659042
876.8165019
658.3888958
673.0051519
1454.058396
1695.902716
1162.858688
1354.138875
5156.041432
2668.77914
2911.363344
1809.681456
2560.835425
1036.938898
1027.993129
414.881647
1671.310745
1676.905368
1634.74725
1660.60718
1725.922572
470.2954913
1555.741639
1093.891968
962.5884373
750.6218152
345.7657939
1041.838125
1528.139809
989.7216047
1052.255403
1594.574602
1621.337391
1549.47525
1583.302212
376.6305035
993.782962
982.2125307
5481.643276
1231.358579
5330.002687
4565.269296
5308.389598
1317.314055
6032.82094
1598.571878
5747.137913
4908.992244
739.4617186
827.3297542
1717.907777
1686.250733
531.7508827
584.2968344
1788.434445
1721.147526
5563.49868
1202.822104
467.2061627
515.1143471
5803.940241
6605.895913
1900.496123
7184.409369
5120.909413
1829.411693
1115.38095
6256.098351
3501.562442
6951.458743
3965.474066
1613.161295
63.8276087
42.55682614
36.73468049
5483.92233
5459.337409
140.3677526
74.86918872
75.34657845
5717.867682
906.0913328
2626.726391
1761.231514
315.7807954
265.0154836
162.7943934
289.1605635
208.1004899
428.5437103
1545.139239
284.4076039
309.7188376
53.31692555
62.39005048
117.6346946
367.8729288
699.0165474
1020.266783
200.3436733
107.9033325
111.6114258
103.2203455
106.7006838
196.8671018
799.9163129
888.2774876
2899.07078
637.9305796
562.1258509
338.8150815
336.5741839
350.8701495
758.7467783
1107.774767
1411.909515
512.4912843
112.8878247
116.8591932
227.8504106
288.949431
634.8359542
607.1675488
584.3996201
516.4539186
266.395233
640.1901083
317.2501075
331.8794592
4320.238696
4029.229499
2345.922323
1705.568086
1682.389375
1067.046769
3601.966876
5558.508893
4940.500053
1202.514673
707.3427608
779.9146725
1798.18072
1106.82076
1741.886662
1728.159394
1762.26499
2541.524365
4885.608431
3339.664654
3770.932159
5318.984025
1424.35626
1151.145821
691.0929988
1325.155616
168.5423837
134.4665839
231.5582756
841.6625631
2218.116862
1573.039248
5808.577493
6147.201181
6259.233326
5166.896918
5967.377218
91.81684005
114.6195659
272.0107533
2641.85354
1736.993193
1345.265491
3390.075659
2694.060971
2021.588262
3749.377021
3415.132468
5392.586812
5098.964053
3637.092786
717.3432212
771.1015094
1534.274898
4895.924261
2541.918758
2851.00866
4137.960665
2405.683274
2829.566011
1166.636775
1558.495337
1280.188882
792.8920163
535.5684242
543.8214814
1240.476938
756.0863409
798.3658067
549.0738716
560.7855711
818.275465
193.8688791
214.8487613
451.3249892
575.4481954
1038.112807
742.5526258
1220.13191
1269.795969
800.5990672
1823.886216
1314.866737
1368.902683
896.9079429
899.6001404
1466.7384
1481.064389
1495.711198
1402.321203
1425.273285
1373.068269
843.1208446
847.9882291
816.5381541
823.1743828
1318.078432
1445.074803
884.7959847
889.3252052
853.1948378
858.4475457
1404.751896
652.1844169
639.5476267
291.9750542
313.4323218
669.269838
656.2611529
484.0725338
471.1834407
245.4221727
1536.580632
1539.200753
1501.607708
1506.964923
1906.633666
1547.532351
1548.721721
263.556182
504.7996566
489.2581615
4802.514265
4747.016011
2980.444133
3166.427445
4883.414578
4792.799595
4991.873176
743.2773912
1488.062254
1245.499017
300.2482924
312.6713417
611.0644502
542.3340342
286.7468844
296.7607716
1094.751747
1094.520113
752.9422593
772.8490353
1103.306082
1107.671466
5569.422539
1505.895645
981.1299114
968.0097415
12556.70892
2369.028386
1643.815346
4563.031501
3695.387132
1815.335106
1792.559168
1126.762344
6059.191178
6601.971706
6305.756204
4927.702016
1199.679841
1863.148476
1803.996673
2660.802465
959.5353098
1114.117394
5384.110559
5293.816646
4062.4834
3756.929324
2119.661191
1179.941251
1241.966326
1341.307376
3198.268198
5395.467775
4572.84284
5451.761317
5211.086527
3658.895548
185.8072855
258.4761918
810.403652
3376.074069
3294.815676
3465.901827
3443.589797
3230.937305
2099.034733
2078.31764
2120.588379
2102.490481
3239.484552
4072.909326
2294.691877
2311.034084
2205.018396
2268.866624
4143.366999
2964.197533
1902.068591
1717.060993
2062.781061
2006.140683
3044.569435
3956.269975
2346.757241
2361.715603
2327.702645
2335.787816
3998.804313
3559.406699
3490.450207
3654.29629
3485.084071
1019.237914
703.5298933
707.4035029
1629.215964
1031.320495
1035.695699
1003.148139
1024.50123
1617.291665
5483.450205
5713.072858
4958.668156
5562.894629
1701.057339
1715.438279
1671.058991
1686.639175
2164.037109
1011.076516
1635.53738
1571.088771
1669.855326
1042.416977
1046.36862
1037.683793
1040.565476
1662.912434
1606.255745
1649.299363
1123.761177
1543.236895
2134.883827
5921.243597
5501.734659
4101.074129
5766.707377
858.969775
1217.494495
12886.37874
1159.171736
793.9479087
797.7980291
1820.347795
7511.808879
7762.546323
9202.553549
5844.074796
5403.473264
1758.289519
1746.319748
1107.953269
1724.253026
2199.804848
3083.21707
2168.030556
2905.643278
2175.207026
860.3999865
3012.05529
2187.976752
5062.871376
5266.211751
5548.973381
4105.13734
4736.755646
1324.466723
1658.510255
977.504043
502.0595659
685.4080881
1070.624486
1179.161791
714.7645481
1044.402957
1368.903852
5249.798384
5528.142639
5162.059277
5146.23145
5939.740623
5885.558951
5723.041375
3405.10312
5039.794066
4562.220614
5687.033917
5885.548012
3829.860046
4173.857571
4623.810425
5920.293002
4790.569478
3346.122244
3693.218154
2485.81804
1797.169678
2521.361412
1335.32193
1930.030539
2565.986252
2820.281767
2609.226396
3627.899017
2280.935765
2158.168519
3108.935847
2251.780989
3400.746507
3396.958935
2142.562347
2124.331733
2170.14577
2141.800674
3419.082843
2579.95889
1554.365881
1579.573329
4310.714469
4303.244746
3651.458124
4741.576919
4563.647814
4385.84856
4315.909227
4522.721207
3398.924979
1849.614648
2060.620052
1619.818483
1698.617884
2894.999693
5131.21418
4320.590373
2310.929995
5482.842544
5242.330921
5222.636773
3304.68582
5119.809683
4954.889488
1928.793633
2170.746667
4145.276541
1207.455286
1272.220972
609.7113524
683.8489385
1193.036467
817.6689756
565.5286568
589.6413218
1153.33647
1115.318793
662.088635
1133.053244
1472.023843
744.2014816
1211.512172
1193.046383
2036.866283
1407.673822
1384.638353
1546.798394
1497.051678
2152.139453
3179.23353
2976.630365
1946.488409
2846.156619
2980.070365
2682.029372
2819.75174
1912.046688
2856.0251
2798.930649
3589.528073
2673.450544
960.0757349
952.4399662
1433.100929
1477.99682
912.0320266
908.9495012
1460.601246
1473.118847
1438.325857
1451.012557
835.1762267
839.4841978
1367.579549
1330.862863
827.2673768
831.1256466
873.7244983
878.4573878
1435.26992
1415.340249
864.0054172
868.9184502
3896.621307
2396.426264
2408.840072
2369.357273
2380.955987
3886.572311
3849.437294
2641.225115
3053.634309
2435.934634
2494.305435
3842.768879
953.8915178
1530.755282
1520.116251
1545.670069
1538.696265
955.9270924
940.2656756
1484.431416
1466.430669
1510.182229
1498.343477
946.2888165
979.2085628
1592.23282
1581.924782
1607.438087
1597.418377
981.8891434
963.4621196
1559.308866
1553.178636
1575.736694
1566.303003
966.3524867
1525.135793
1529.281452
644.0568403
936.0989364
933.2107495
943.1064379
940.7364859
648.7828345
1514.019519
1518.821519
1593.73077
1509.409654
718.4828612
1000.722967
1010.359737
1430.782757
1376.916529
796.9287974
660.9666841
950.623762
949.3698387
958.5774363
962.2095192
671.2455247
1560.098835
1552.870281
4758.825074
4620.796348
4965.576191
3386.14143
3999.489255
2748.201164
4559.91406
4621.05256
4549.296374
4559.082329
2810.059709
2014.645
3855.558323
3254.644384
4475.139473
4615.77133
2323.611878
1041.152422
728.1254293
730.0071575
714.1034755
716.7745381
1028.70732
1671.75505
1686.023778
1640.670991
1657.809603
1629.617855
2070.607072
1490.367877
863.5354
952.5641075
756.6452724
779.505251
1082.832282
1432.688321
1985.37378
1568.389294
1491.506912
1001.914988
1621.75933
1608.135078
1658.644531
1614.073521
998.0767371
1602.294008
1614.339992
1562.171352
1574.228133
5120.088625
3265.293071
3506.183705
2417.131432
2923.280768
5209.549615
5229.571447
5061.79557
3824.660542
4420.229231
5584.500171
5546.144458
4079.480555
4340.884478
3182.569069
3656.509517
5729.24566
1747.850783
1748.90599
1730.601082
1733.983565
1150.125614
1162.125952
802.7699603
1811.239156
1712.525861
1767.125926
1757.643422
1702.781605
1056.091032
1064.19531
1048.467931
1054.169576
1698.896631
1740.464777
1078.107334
1135.910391
1065.909402
1080.986294
1743.687884
5351.705561
827.0124878
832.8299822
1206.801435
5633.797837
8596.733246
8960.185667
8373.621592
8411.505433
6258.664776
1849.289372
6212.279895
4384.498021
4777.654483
1124.229319
1783.318452
1766.608128
6222.020187
6843.087381
6586.15618
5353.392592
5844.83681
7249.102094
6880.564408
4362.834671
6521.028747
5594.706778
2209.060898
1775.082168
1188.371855
31.76783061
31.77814224
31.86349793
31.78252948
31.80146201
31.87499875
31.80886654
31.838774
31.89385882
31.84959355
31.88647508
31.9190508
31.89838767
31.93109278
31.94287958
31.93650955
31.94882244
31.9547253
31.94907072
31.93777568
31.94947971
31.93087432
31.90024455
31.93002674
31.89072465
31.85644882
31.90577892
31.84646714
31.81745289
31.8849253
31.6550663
31.6771259
31.75123679
31.68707739
31.72877777
31.7797076
31.74657621
31.81193886
31.82587679
31.83595422
31.9139286
31.88511791
31.93790873
31.99330098
31.93473043
32.00730303
32.02527455
31.95496056
32.01773422
31.99265904
31.94108696
31.97593954
31.9169368
31.89783858
31.89604972
31.83232907
31.84514905
31.81044186
31.75507101
31.79829586
31.55507904
31.60110068
31.65514411
31.6227521
31.71002522
31.71810872
31.74686247
31.89159182
31.8176742
31.948831
32.13835989
31.9403536
32.1794863
32.32721578
32.0513307
32.35770899
32.3858893
32.07174908
32.33792365
32.25938127
32.02356461
32.2108505
32.06878619
31.93601281
32.02126334
31.88608767
31.83634911
31.8451969
31.74019088
31.74534318
31.47353344
31.5591236
31.58700495
31.59963095
31.77702507
31.71653176
31.86156884
32.2154093
31.94178918
32.36612178
32.96341581
32.23826579
33.10001731
33.63181158
32.53332908
33.706788
33.73055894
32.53667424
33.49016946
33.10100888
32.36780363
32.93618196
32.52458275
32.13899377
32.40391499
32.09925264
31.92017326
32.01377412
31.80581586
31.74666241
31.4171405
31.55926598
31.55464596
31.6336628
31.9883387
31.81433575
32.16632203
33.0152999
32.35567231
33.45119787
35.77636275
33.2878815
36.70685831
42.56772525
34.4988872
42.67421192
40.27441747
34.32575854
38.27335657
35.62046349
33.44881976
34.95296612
33.60940351
32.70483169
33.29196551
32.58167528
32.18693607
32.40120951
31.98704636
31.83725915
31.37965438
31.60560575
31.56637527
31.72842721
32.34050894
32.0623296
32.66981277
34.43236789
33.31639443
35.50300785
45.55975403
36.83037409
42.51681467
48.96695827
40.92693994
60.87376437
58.9839754
45.2667511
47.93758391
42.39419179
39.83698597
39.94999858
35.78470082
34.01079211
34.99939414
33.42953959
32.75304373
33.07586111
32.31687794
32.05303183
31.35621191
31.68106226
31.61964633
31.85767814
32.74333683
32.43559994
33.22636295
35.87748178
34.82759048
36.61126562
38.6709566
37.9173737
54.5178597
61.8343276
58.96115294
90.94454438
65.36555545
54.90040669
48.47236852
39.12133952
36.48871084
37.56480752
34.66502719
33.70464727
34.05306058
32.78820008
32.42106328
31.34626318
31.77333076
31.703552
31.99987374
33.11142099
32.84052365
33.70600115
36.86185793
36.15941549
38.20183728
40.83924859
40.41214449
63.20951269
74.8828729
73.6510564
144.0564337
90.12629308
81.23254946
56.93792602
42.76812991
39.98318899
40.40708434
36.06002172
34.98541035
35.16147695
33.337279
32.91936298
31.34815268
31.87141911
31.79770695
32.14200747
33.43461203
33.19581846
34.10992087
37.61504583
37.05500268
39.24689573
42.23983642
41.88831616
70.61465084
93.20329513
90.46845172
162.2861441
103.6641929
100.1001202
62.40787471
45.72862178
43.52592444
42.80687611
37.35169436
36.37762082
36.2007107
33.86966263
33.46926942
31.35840904
31.97215661
31.89733194
32.2827056
33.73610292
33.51147409
34.48372719
38.36208908
37.78454373
40.24314643
43.77285987
43.28074951
79.95447734
109.5390496
106.0776376
156.4821524