/*--------------------------------*- C++ -*----------------------------------*\
| =========                 |                                                 |
| \\      /  F ield         | OpenFOAM: The Open Source CFD Toolbox           |
|  \\    /   O peration     | Version:  v1912                                 |
|   \\  /    A nd           | Website:  www.openfoam.com                      |
|    \\/     M anipulation  |                                                 |
\*---------------------------------------------------------------------------*/
FoamFile
{
    version     2.0;
    format      ascii;
    class       volScalarField;
    location    "2.48";
    object      nut;
}
// * * * * * * * * * * * * * * * * * * * * * * * * * * * * * * * * * * * * * //

dimensions      [0 2 -1 0 0 0 0];


internalField   nonuniform List<scalar> 
12556
(
1.155893424
1.155863606
1.155832316
1.155804985
1.156028347
1.156022804
1.156032473
1.156060515
1.156116946
1.156218505
1.156368098
1.156518203
1.156681594
1.147823697
1.156567377
1.156423749
1.156275013
1.156171868
1.156088599
1.15605559
1.155828004
1.155832838
1.155853461
1.155879582
1.155157524
1.155071483
1.154983091
1.154915174
1.15511691
1.155123716
1.155193013
1.155420423
1.155694733
1.15617905
1.156904618
1.15783845
1.068965101
1.049303986
1.111046065
1.157347186
1.156588668
1.155993635
1.155513899
1.155288815
1.154957577
1.154980282
1.155043572
1.155123127
1.154387631
1.154238435
1.154092471
1.153994153
1.154216971
1.154277168
1.154459042
1.154890285
1.155587427
1.156774332
1.089668956
0.9046212522
0.8342468181
0.8238342708
0.8868000792
1.023698278
1.157595226
1.156237033
1.155191441
1.154665273
1.154191559
1.154152137
1.154230698
1.154357882
1.153599014
1.153398716
1.153212345
1.15311604
1.153347198
1.153518498
1.153942333
1.154752846
1.15624276
1.016077156
0.7628589749
0.6271972036
0.555071436
0.5665307899
0.6304728779
0.7482064137
0.9396150754
1.157378366
1.155359003
1.154308378
1.153471445
1.153373283
1.153440848
1.153602195
1.152787521
1.152528961
1.152311251
1.152229207
1.152545774
1.152902229
1.153765142
1.155186913
1.071211178
0.7291162165
0.5119096382
0.3851954468
0.3358337253
0.3493553683
0.4186657351
0.5287860395
0.6936093673
0.9543738168
1.156285624
1.154328825
1.1529837
1.152646359
1.15265536
1.152830613
1.151976962
1.151679114
1.151452674
1.15143219
1.151840743
1.152484901
1.153988094
1.156432503
0.8455989871
0.5417460721
0.3402809412
0.2149573393
0.1661802646
0.1932648218
0.2682856942
0.3753651651
0.5235805093
0.7464995585
1.09684951
1.154809374
1.152643233
1.151981295
1.151881429
1.152044957
1.151152471
1.150820572
1.1506042
1.150651822
1.15126792
1.152310649
1.154723629
1.107919988
0.7068931883
0.4322019909
0.2409339113
0.1085532775
0.0608428318
0.09547165586
0.1752990857
0.2781469402
0.4136660435
0.6067029492
0.9362923313
1.155831905
1.152479955
1.151371865
1.151098704
1.151222639
1.150370031
1.150023208
1.149838868
1.150037335
1.150875921
1.15242812
1.155947982
1.008536217
0.6445894339
0.3992574031
0.2244240892
0.09144279841
0.05399695092
0.1320084741
0.2266237897
0.3505313706
0.5247180849
0.8243138684
1.157203153
1.15253604
1.150854793
1.150335206
1.150390436
1.149637404
1.149273722
1.149148932
1.149563883
1.150585937
1.152857917
1.157530728
0.9511199873
0.6376491112
0.4296406897
0.2949486436
0.2148673678
0.06479306172
0.128203602
0.2112972703
0.3237083434
0.4824704454
0.7609256424
1.125969147
1.152795627
1.150448516
1.149630562
1.149594118
1.149000388
1.148642516
1.148598577
1.149237621
1.150498963
1.153585443
1.159187214
0.935236052
0.6617086776
0.4885252634
0.3999169593
0.4176181914
0.09025195065
0.1448566727
0.2196760498
0.3270633521
0.4768893741
0.7321287667
1.067397274
1.153284253
1.150233002
1.149068784
1.148918653
1.148454195
1.148113575
1.148181041
1.14909992
1.150672564
1.154570113
1.160969339
0.938430293
0.6962480014
0.5465215561
0.485830441
0.5431849564
0.123130257
0.17458837
0.2469773897
0.3469547998
0.4874707859
0.7332465988
1.036229286
1.153966365
1.150220996
1.148709529
1.148437748
1.148060431
1.147745541
1.147926147
1.149123415
1.151044136
1.15576599
1.162746765
0.9556750073
0.7330310217
0.589488423
0.5207461543
0.4752092923
0.1608690317
0.216649429
0.2910960413
0.3903389861
0.5262662494
0.7604515518
1.035125199
1.154871209
1.150460113
1.148605973
1.148207177
1.147763771
1.147482695
1.147830782
1.149361725
1.151568143
1.157118809
1.164382303
0.9899032154
0.7756800614
0.6252060884
0.518775655
0.4239566464
0.06245967398
0.2091902942
0.2794178673
0.3597069632
0.4576806215
0.5949523593
0.8105090449
1.059534611
1.155862212
1.150901472
1.148748434
1.148246747
1.147626764
1.147383797
1.147884962
1.149699947
1.152399965
1.15859601
1.166440655
1.035353469
0.8380972735
0.6791145381
0.5456442375
0.2800154891
0.1221979485
0.3117096588
0.3918834849
0.4673904211
0.5571199516
0.6854382662
0.8802759714
1.103160831
1.156890037
1.151524336
1.149102899
1.148518208
1.147549644
1.147340456
1.14799082
1.150106725
1.153202212
1.159994491
1.167944427
1.124217053
0.938684926
0.7876375299
0.649027299
0.08416562754
0.1710156863
0.4416594821
0.6000784121
0.6352363444
0.7007436499
0.813609093
0.9875918123
1.166685257
1.157870422
1.152207093
1.149608253
1.148960918
1.147593503
1.147418666
1.148201409
1.150588478
1.154037481
1.161297958
1.169196305
1.168047063
1.093562522
0.9782858019
0.8174176668
0.04659467533
0.1918033222
0.4649991463
0.7415089342
0.8814813719
0.8965993284
0.9797598062
1.136516486
1.167831501
1.158750906
1.152906677
1.150190004
1.149506633
1.147632835
1.147481736
1.148379237
1.151040349
1.15484613
1.162443939
1.170111385
1.167974561
1.142965099
1.059172076
0.7038307548
0.02974875239
0.2232949401
0.4954768677
0.7674435485
0.9712840213
1.088119108
1.144089265
1.167923169
1.168664144
1.159463347
1.15353965
1.150760196
1.150063233
1.147748837
1.147620063
1.148608798
1.151493001
1.155581505
1.163394215
1.170649835
1.167349386
1.136880678
1.02414421
0.516465655
0.02952892026
0.2628117803
0.5310361879
0.7927130638
0.9819308712
1.092216718
1.146302492
1.168840673
1.169139528
1.159984503
1.154077878
1.151309959
1.150614923
1.147806281
1.147690805
1.148752068
1.151850855
1.156214766
1.164129319
1.170840247
1.166143039
1.130667346
0.9844848219
0.3593766615
0.03577937518
0.2955210444
0.5578984027
0.8076995492
0.987952934
1.094998958
1.147592702
1.169248126
1.169301662
1.160285858
1.154454947
1.151732663
1.151048278
1.147918242
1.147820182
1.148936212
1.152188319
1.156731092
1.164651866
1.170681104
1.164424951
1.123167975
0.9443816626
0.2950031305
0.04241333667
0.3109407157
0.5682693377
0.8160647666
0.9925708661
1.096884149
1.148238477
1.169264674
1.169206702
1.160459604
1.154767108
1.152108008
1.151431926
1.147937425
1.147855341
1.149019476
1.15242048
1.157137282
1.164981609
1.170233849
1.162257485
1.114231653
0.8946836446
0.2526770693
0.05096485574
0.3226445664
0.5768337904
0.821921163
0.9960712718
1.098131653
1.148439697
1.168989092
1.168916729
1.160457587
1.154918167
1.15232991
1.151664021
1.148010614
1.147954984
1.149163554
1.152660352
1.157448187
1.165146032
1.169540873
1.159678706
1.103651973
0.8351238214
0.2209912041
0.06156251091
0.3331043365
0.5843472311
0.8258022471
0.9984931879
1.098880367
1.148329204
1.168504127
1.168488196
1.16040064
1.155044587
1.152524272
1.151861238
1.147970095
1.147944164
1.149203654
1.152810719
1.157686235
1.165173665
1.168635919
1.156687243
1.090727551
0.7761906647
0.1963690703
0.07366410306
0.3425489768
0.5910039575
0.8284808099
0.9998703587
1.099179591
1.147981166
1.167872753
1.167966672
1.160212044
1.15502211
1.152563652
1.151902756
1.147997091
1.14801232
1.149326305
1.15300179
1.157866044
1.165088751
1.167536713
1.153205789
1.074132219
0.7245007496
0.1768846243
0.08672466145
0.3511676355
0.5969472031
0.8304748999
1.000391197
1.099056964
1.147433874
1.167138176
1.167385051
1.160029839
1.155023275
1.152617055
1.151949424
1.147895816
1.147954718
1.149332746
1.153102948
1.158001234
1.164906073
1.166239092
1.149067063
1.053217928
0.6800946514
0.161511099
0.09996862896
0.3590814106
0.602289365
0.8320378723
1.000309549
1.098567458
1.146715488
1.166330418
1.166766068
1.159733027
1.154877837
1.152515963
1.151841513
1.147882069
1.147994262
1.149439891
1.153264223
1.158093262
1.164631798
1.164721174
1.144036455
1.029056073
0.6417114678
0.1493073435
0.1128720112
0.3664115098
0.6071249136
0.8332971198
0.9998368548
1.097789174
1.145856839
1.165472782
1.166125055
1.159489779
1.154802312
1.15247491
1.151785263
1.147729837
1.147894587
1.149413722
1.153319522
1.158147129
1.164265252
1.162942517
1.137872991
1.003336221
0.6081623823
0.1388097618
0.1251307455
0.3732577103
0.6115437365
0.8343342129
0.9991192489
1.096800635
1.144891305
1.16458467
1.165473493
1.159127629
1.154570487
1.152272671
1.151569865
1.147684516
1.147910397
1.149506109
1.153451999
1.15815708
1.163801081
1.160853482
1.130426214
0.9773299682
0.5785284815
0.1294516723
0.1363962038
0.3797002753
0.6156267742
0.8352070328
0.99825067
1.095667312
1.143850263
1.163681662
1.164819452
1.158861876
1.154452775
1.152175286
1.1514518
1.147498404
1.147780187
1.149451407
1.153458527
1.158127091
1.163232167
1.158386467
1.121690252
0.9516985451
0.5520236629
0.1213803948
0.1465916469
0.3857933647
0.6194307282
0.8359530028
0.9972904117
1.094440121
1.142760871
1.162776125
1.164169119
1.158461328
1.154165181
1.151908043
1.151168382
1.147427437
1.147774791
1.149526402
1.153557914
1.158049229
1.162549176
1.155495783
1.111787469
0.926805773
0.5281754423
0.1144424849
0.1558418996
0.3915866767
0.6229971449
0.8366012105
0.9962804377
1.093158904
1.141645687
1.161877828
1.1635277
1.158194902
1.154025096
1.151778367
1.151015247
1.147232157
1.147633702
1.149455097
1.15351702
1.157927587
1.161735206
1.152118276
1.100907816
0.9028765367
0.5066997125
0.1086064561
0.1643087021
0.397127592
0.626371405
0.8371854315
0.9952564324
1.091855788
1.140523349
1.160994286
1.162898027
1.157780515
1.153713693
1.151481263
1.150701146
1.147130145
1.147599902
1.149501229
1.153570434
1.157751291
1.160776853
1.148254851
1.089253388
0.8799891324
0.4872481961
0.1036081087
0.1721904319
0.4024797573
0.6296048322
0.8377418918
0.9942485619
1.090556205
1.139408363
1.160130668
1.162284613
1.157512292
1.15354622
1.151317313
1.150511898
1.146961964
1.147479442
1.14943803
1.153496693
1.15752462
1.159659286
1.14385392
1.077007908
0.8580797942
0.4694423045
0.09954629665
0.1796494541
0.4076905669
0.6327367087
0.8382979548
0.9932788979
1.089279224
1.138311326
1.159290208
1.161684785
1.157127074
1.153259671
1.151039598
1.15021797
1.146805135
1.147393706
1.149430144
1.153473128
1.157238321
1.15837304
1.1389672
1.064347641
0.8371636349
0.4531740603
0.09639680627
0.186791525
0.412776764
0.6357907526
0.8388718521
0.9923652733
1.088040867
1.137242348
1.158477179
1.161108015
1.156809563
1.153024686
1.150805994
1.149957637
1.146703045
1.147328946
1.149403348
1.153403018
1.15689817
1.156912704
1.133664864
1.051427589
0.8172696833
0.4383731678
0.09394007463
0.1936475999
0.4177342177
0.6387826552
0.8394869022
0.9915291175
1.086857018
1.136209343
1.157705629
1.160554229
1.156558898
1.152844449
1.150628263
1.149766445
1.146508417
1.147218186
1.14937072
1.15328222
1.156515115
1.155301365
1.128135393
1.038422552
0.7984838752
0.4249250693
0.09214812773
0.200226676
0.4225584402
0.641733512
0.8401663168
0.9907902409
1.085738315
1.135214888
1.157037733
1.160089703
1.156149364
1.152536079
1.150320824
1.149427144
0.1899968953
0.05766331231
0.04676122701
0.3979991244
0.08274181675
0.06057438648
0.5514535222
0.1161869729
0.08665432752
0.4826814127
0.1474752957
0.1211723994
0.42879943
0.04651846561
0.05851004372
0.1839571382
0.1514681509
0.3273646019
0.09150957237
0.04782635291
0.1161697167
0.2515188112
0.1872196286
0.08859663146
0.0612234092
0.04834525428
0.09052896796
0.02943464825
0.02006994714
0.06231340374
0.1088084413
0.1121505217
0.3737864711
0.3840130089
0.2209918907
0.03480769105
0.05003265487
0.08686267218
0.1241332657
0.1110514772
0.4684191787
0.5329519931
0.4030810688
0.472735258
0.2122983373
0.2429711728
0.05969763412
0.04307961167
0.1189230629
0.1522395732
0.1301633201
0.5162690447
0.5647925431
0.5482017006
0.518050191
0.1335174322
0.1762313522
0.1078747558
0.08030427206
0.5175710742
0.5021625289
0.5594986265
0.4624676128
0.07663503715
0.1024720226
0.01987771935
0.1386972549
0.1337531292
0.534553264
0.4043177674
0.4924066651
0.3887917269
0.0292537638
0.04862795027
0.2674332397
0.1249349735
0.09361371235
0.07242978631
0.1789869912
0.03434034847
0.06551374065
0.04872976774
0.03066485122
0.04977457025
0.03253076347
0.04721488195
0.2472636686
0.2790012788
0.3255155136
0.2152706046
0.1964435175
0.2098973278
0.2189673948
0.04266747865
0.03462385159
0.07208949928
0.05054800718
0.05702635693
0.04848918207
0.05079022124
0.07060861446
0.1793356776
0.2078501956
0.4948041962
0.1603653247
0.1333248316
0.1943547727
0.1626269216
0.07663098066
0.06110702045
0.1034877984
0.0822721393
0.104522591
0.05756018079
0.07939444052
0.09904939024
0.1039541217
0.1317393112
0.5096241893
0.1049408053
0.07856323687
0.1317892313
0.1063765005
0.1327497003
0.1121247597
0.04960042945
0.0748282892
0.460406179
0.01406152025
0.05206467357
0.03100639587
0.07746656535
0.05363508904
0.01264344493
0.1451471552
0.1403858226
0.02252040988
0.004685889766
0.02893586937
0.383509109
0.07456646967
0.01819154594
0.01049558838
0.03065916999
0.0185293406
0.07149065643
0.2712015654
0.198316869
0.1066292788
0.1160918399
0.07222644238
0.04049155047
0.01838051921
0.008615309484
0.2986206274
0.2832396261
0.1973455177
0.009213603934
0.153750966
0.1894659128
0.1607039312
0.01050754639
0.06483054039
0.05648136159
0.08843930197
0.1618116048
0.1489983169
0.1763513525
0.08047877456
0.1306995163
0.04188190328
0.01367758861
0.02385208482
0.02300039415
0.03082979758
0.04828673883
0.0547599433
0.03947530078
0.1359957828
0.1267393081
0.1348710198
0.108092568
0.1254782242
0.1327292901
0.03203920379
0.01193310927
0.05663643557
0.02418831122
0.04147804648
0.03342077046
0.02029896923
0.03156400863
0.02302417737
0.01807034146
0.02354982447
0.02155887784
0.01028891585
0.01718628554
0.02227925364
0.04407767004
0.04477481117
0.05151898367
0.05035050313
0.01995376695
0.01015601359
0.09562942259
0.01684430593
0.03084907451
0.009442100077
0.0142711688
0.09158189362
0.09118358797
0.2624367951
0.2486060707
0.08193070266
0.06922929487
0.01042509397
0.04366725688
0.1889097188
0.1755478589
0.207382734
0.1943206271
0.04402700612
0.05147829354
0.04222836824
0.108113097
0.06778484781
0.06207427872
0.04006560992
0.06723165958
0.122359923
0.04183923309
0.02488298911
0.01561881314
0.05598956184
0.02777587453
0.04633261482
0.02651518515
0.06433707604
0.03906598646
0.03842619502
0.2109092175
0.03068149399
0.2100819078
0.2381810609
0.03458706031
0.03898511803
0.03112029886
0.03406014948
0.2333997087
0.04090433698
0.04059133588
0.05430966307
0.06927990655
0.06457074584
0.07565740406
0.07094258849
0.05462018372
0.05856146803
0.0568963601
0.05178466211
0.06291162252
0.05831223484
0.05933483542
0.1470599751
0.1453133087
0.1796808051
0.1777020186
0.07252467854
0.009260141087
0.07113023501
0.09509215596
0.09320497463
0.1184592909
0.1167429574
0.03291249935
0.04858889933
0.1243188091
0.03675936133
0.02146352633
0.06566931689
0.2257500192
0.2121436811
0.2439514365
0.2302722302
0.06699860008
0.02917199266
0.04755897776
0.04655152305
0.07020151726
0.06933267325
0.00696016935
0.03843492673
0.09949024055
0.08639611862
0.1703292832
0.1603614298
0.0230639427
0.0116735639
0.02309022665
0.01520794219
0.02919361934
0.01170845788
0.01438137969
0.01196995442
0.02922452999
0.06063110911
0.01222037158
0.01943553044
0.003502128249
0.0207688694
0.01553616953
0.6093028353
0.3712948769
0.3910874901
0.2487311564
0.008324178681
0.00531364308
0.1651088806
0.3673675902
0.2836415418
0.00606180137
0.01369434485
0.01082659121
0.1165164263
0.1041717533
0.0413614525
0.2015745374
0.1683220007
0.09188910814
0.009944668858
0.01697659286
0.01354109765
0.008886991053
0.01320108954
0.009259823953
0.03753571989
0.01619492309
0.01514114889
0.04787575948
0.05574167166
0.01654665445
0.02261248121
0.01066924642
0.01071360149
0.04499457
0.1486532142
0.3345083802
0.3209194582
0.3526689184
0.3390451456
0.1521213775
0.2804716419
0.2668177495
0.09251806474
0.03219975893
0.09444172376
0.08906095721
0.01123071252
0.01633378836
0.1015748336
0.04543168149
0.0184035375
0.0163308879
0.0379706885
0.04377877067
0.03954961652
0.05017862529
0.04527131334
0.0393028411
0.04176941549
0.01101529772
0.01072410608
0.03614368659
0.1914517441
0.3707572616
0.3571610859
0.05927404223
0.06129011326
0.1384302745
0.02398884034
0.02620327252
0.06504008925
0.09117845402
0.1037001127
0.09582046391
0.06427409794
0.08347889407
0.07765459834
0.09295496922
0.08577067048
0.06547454761
0.1179216913
0.2984601847
0.2849290272
0.3164186807
0.3029672881
0.1198155855
0.1007980078
0.03603659722
0.03676784263
0.02084080473
0.02165589929
0.08307643362
0.1262947334
0.05501098686
0.05886054177
0.03707729821
0.03776608203
0.1106917046
0.1284954873
0.05110658774
0.06882834578
0.007440737071
0.01976823812
0.04973360511
0.03786877048
0.07430727885
0.02020940054
0.02069668412
0.01978396683
0.06289369654
0.01088222628
0.004378689202
0.1221622353
0.1038724344
0.08721463609
0.08283614369
0.02854262638
0.02104293422
0.03413661997
0.08390557332
0.0179521739
0.01144992276
0.02069818895
0.02753919288
0.002849932286
0.03017215546
0.01955147649
0.01230962386
0.006365215964
0.01199622017
0.009297789233
0.009148222373
0.03041618013
0.02329616513
0.006827067006
0.03859228846
0.04037084079
0.01602528855
0.01131231062
0.00744300529
0.01185279944
0.01745282495
0.01084960122
0.01426408688
0.04632202603
0.01012518278
0.009661978043
0.01109932608
0.01309057813
0.03821852964
0.01126657881
0.01113051273
0.01330300745
0.01113455748
0.01170517186
0.02027032282
0.01455430308
0.029393708
0.02284837941
0.01154894283
0.01787090588
0.0219094097
0.01860353313
0.03036009297
0.02334023848
0.01823216475
0.01640631807
0.01264301099
0.01387836428
0.01084266268
0.03968591406
0.04711560826
0.01485975048
0.01398024794
0.01548672499
0.0160321329
0.05439005304
0.009850071406
0.01001914707
0.01292128209
0.01002661782
0.01008748586
0.04625689871
0.01031863588
0.01517557346
0.01367389487
0.01233894555
0.02226431813
0.05781704536
0.052516735
0.0113225938
0.04316489303
0.03697170194
0.05058541219
0.04536350805
0.01184896457
0.01183574079
0.03993907897
0.03315537862
0.1030665379
0.09637117793
0.03589476889
0.04619639224
0.1104931026
0.1049032234
0.04592503107
0.0449632404
0.0703772742
0.08594015954
0.1070758055
0.06439342514
0.08047007063
0.07144509029
0.06143149389
0.1476979135
0.1346794951
0.1175962273
0.1516349662
0.06134317876
0.04090665002
0.04722995742
0.05893605803
0.03515789186
0.03954575096
0.02568279409
0.02435235277
0.04405225593
0.01757607063
0.01772524019
0.01396327716
0.02559173378
0.03020860237
0.01846335326
0.02581619169
0.03466805893
0.03511070927
0.02694212821
0.02881172954
0.09724240518
0.08458194291
0.1042743816
0.09992147755
0.02996502475
0.07556593457
0.07317157986
0.08098348649
0.0764335141
0.03619719512
0.1230045114
0.1178358617
0.1314901613
0.1248569231
0.03682376
0.03229417197
0.1100415647
0.1057912005
0.1161969703
0.1115314772
0.03265752539
0.01148660633
0.01113858026
0.04152189852
0.03765509365
0.01120104225
0.01162462456
0.04263580889
0.04184374724
0.0448589114
0.04290810279
0.0404000931
0.03933252444
0.04158354196
0.04067424313
0.06955459736
0.06747143717
0.07243005425
0.07028461288
0.06174413767
0.04761938497
0.06659873345
0.06440268367
0.02702820208
0.02289810509
0.03517644534
0.02929767574
0.007337038654
0.01458392442
0.01365761753
0.02138189694
0.01506091612
0.03506694813
0.03567754106
0.09938473085
0.02077980359
0.02057867228
0.02142439781
0.02096463447
0.01994070946
0.08548638215
0.0222619206
0.03297237504
0.03993734732
0.05310358605
0.1243922092
0.03653865233
0.02352381798
0.0391935231
0.03622290186
0.02218707471
0.02165885027
0.02309599663
0.02240749909
0.1121587981
0.03800220257
0.0389051496
0.006552150429
0.03024518455
0.009551584536
0.01003593934
0.009526979741
0.02809980766
0.007722371773
0.02221756267
0.01092745965
0.01114226179
0.04907827561
0.04265990338
0.01960687698
0.0201009117
0.0733407811
0.06509483066
0.0187240817
0.01954039125
0.01042642847
0.02745835479
0.08016346609
0.07165374278
0.01272788387
0.01219970226
0.01715751169
0.01179733778
0.01281615877
0.01839209967
0.0300585851
0.00820577112
0.01289270762
0.01162149922
0.01217709236
0.02036994849
0.05555500905
0.1180310063
0.1528823059
0.01010882619
0.01004471041
0.1909252906
0.2431860933
0.2008859125
0.006718555192
0.04021898941
0.01427047751
0.01977557201
0.1392377117
0.1451300572
0.1625601706
0.004951735982
0.007774324256
0.005767548012
0.004951703937
0.005983011363
0.004678993315
0.05946190547
0.03725890068
0.02334573905
0.02631478131
0.02338308131
0.02740787087
0.2256050582
0.4064995686
0.3931953547
0.4243647423
0.4108358287
0.2299446461
0.04887012257
0.04233501657
0.01313493642
0.07306908363
0.0857807575
0.1365234865
0.1179436469
0.1122709789
0.04668639051
0.02901834272
0.03468117976
0.03330393474
0.3887280157
0.3752453686
0.1953759521
0.154361999
0.06718581356
0.0711374691
0.07431869141
0.08550175336
0.1694632302
0.05721385196
0.1264383182
0.1199138205
0.01083038559
0.01095859235
0.01557613296
0.01935642253
0.01964566592
0.03183691309
0.01160021477
0.01071849042
0.01059352815
0.02968412983
0.05884418556
0.05073210401
0.01814543199
0.03044462403
0.01892782815
0.01909461483
0.01854340539
0.01575807229
0.009468747711
0.01184214841
0.01107643066
0.01046722602
0.02545172144
0.03167506224
0.06449162161
0.04058291881
0.03821986643
0.03492789237
0.02572052348
0.04854611296
0.01653965723
0.0230578882
0.01138237041
0.008074491501
0.0082023413
0.01153050492
0.01150312746
0.02421055527
0.01527881273
0.01041018601
0.02114065873
0.02012483397
0.01838696161
0.01719208149
0.02092380198
0.01824710792
0.01087726545
0.01161632721
0.006667858741
0.009290109032
0.01105989696
0.06515080465
0.05955596598
0.02421588907
0.009233055409
0.01479144589
0.01333832885
0.0109065425
0.01522053793
0.01340413671
0.04921194352
0.0376133621
0.04316677684
0.06875387896
0.09853649406
0.09687568851
0.04169744678
0.0687033434
0.06477867501
0.09575556091
0.09360682635
0.06560604465
0.03560306127
0.04285364211
0.03719002906
0.02837323745
0.02909052956
0.02389647038
0.04828843138
0.04676066701
0.05343493788
0.02306314019
0.0334472624
0.03178328471
0.05239861718
0.05200258086
0.03042033638
0.02805167471
0.0276292508
0.03073521147
0.03001520103
0.03515685711
0.0589908723
0.05831825515
0.06300425959
0.06215832854
0.03818432009
0.03146596036
0.05371845702
0.05316698692
0.05762873046
0.05695119004
0.0335744342
0.0644540422
0.06644760896
0.1524852642
0.1400686852
0.06189477888
0.06382300748
0.09278845366
0.09619233067
0.1859192664
0.026013413
0.02587247977
0.02738671093
0.02716663212
0.01979912885
0.02559746709
0.02549644971
0.1715377568
0.08783906294
0.0915205964
0.009330568422
0.00936967477
0.012886854
0.01228182339
0.009275712651
0.00927564614
0.007892587741
0.06641026694
0.02726698129
0.03354481004
0.1349055256
0.1286142337
0.06042790075
0.06999261113
0.1424675933
0.1367848647
0.03118775416
0.03125485166
0.04791811641
0.04622575156
0.03079049827
0.0307560166
0.01048622588
0.02189210091
0.03461135332
0.03424891497
0.008503151672
0.01394431577
0.02037912163
0.01290924167
0.01218895123
0.01802326335
0.01826720308
0.02964464686
0.01177813762
0.008559514671
0.0116892271
0.01172990641
0.02769157263
0.01753150853
0.01811246818
0.01457364987
0.03747082719
0.03172467598
0.01026158542
0.01027865422
0.01071756113
0.01115084956
0.01712394791
0.006607305204
0.004256105614
0.007983618112
0.01219460046
0.009884063545
0.01043039498
0.009838810561
0.01005852167
0.01112074793
0.01048847212
0.006935383381
0.005405432723
0.01384770404
0.0142688087
0.01337909381
0.01350843129
0.01571170799
0.02401413758
0.02436345083
0.02353732043
0.02384411741
0.01556296936
0.01054859973
0.01825878127
0.01823341181
0.01885647572
0.01839732513
0.01036598259
0.01746362029
0.02696526536
0.02994685228
0.02466913704
0.0254734761
0.01692924745
0.01097925095
0.01823851932
0.01823264403
0.01818672222
0.01823134972
0.01082555656
0.01288209987
0.0131537462
0.01239572931
0.01304723985
0.03619778262
0.05531086478
0.05483676079
0.02108764393
0.03483432089
0.03459068942
0.03612338551
0.03518434221
0.02129495077
0.0109461559
0.01069886682
0.01078560471
0.01099814009
0.01965096966
0.01945921366
0.02007393589
0.01985912993
0.01531076981
0.03386773914
0.02023267301
0.02113949327
0.02039006042
0.03412298914
0.03390675899
0.03444248503
0.03426474584
0.02051893876
0.02095716455
0.0203710692
0.03058588923
0.02190498387
0.01573175433
0.007233571832
0.01064120429
0.01096026487
0.007185204146
0.04093674304
0.02829024963
0.003020953966
0.02855263567
0.04369602496
0.0433231376
0.01791846299
0.01143248023
0.008382655023
0.003867623899
0.01253816384
0.0126586367
0.01869902159
0.01885818411
0.03036898468
0.01896820149
0.01044627415
0.01008457622
0.01535622827
0.004188123567
0.009250116379
0.00718460102
0.00570438988
0.006906409039
0.009296200176
0.006905649735
0.01029051617
0.01071996752
0.01034413197
0.04033687349
0.03086245286
0.008534142981
0.01069269217
0.01194470314
0.01897502375
0.02142969207
0.01265084972
0.01556680178
0.01518576124
0.009893238426
0.006598797993
0.009902042721
0.01104832616
0.007664763666
0.0110894645
0.01130596073
0.01215869766
0.01147266022
0.01123033962
0.0114717871
0.0113503263
0.01160894099
0.01161333501
0.0114950258
0.01153442204
0.01172297021
0.01261505741
0.01209703443
0.02217469694
0.02167175336
0.02209234949
0.02738928405
0.02746327307
0.02149593323
0.02004213974
0.02141637352
0.01322335549
0.02119642262
0.02251394118
0.01532448232
0.02125927822
0.01408041472
0.01455466574
0.02306336609
0.02335865718
0.02253274308
0.02293344041
0.01435238541
0.01565686768
0.02724412435
0.02677601925
0.009936859335
0.009975709655
0.0112608544
0.009242425431
0.009517084218
0.009738250481
0.009994340671
0.009638232002
0.01229981433
0.02254281825
0.0201846781
0.02604223872
0.02470512897
0.01424985417
0.009293741962
0.01014974691
0.01601598188
0.006548884124
0.009410852129
0.009386414639
0.01186919677
0.009309272394
0.009521811174
0.01942573789
0.01727293759
0.01013251791
0.04728474713
0.04380968497
0.08557049357
0.07618255073
0.04374006342
0.06531147837
0.09259324214
0.08862703036
0.03655352183
0.03345586613
0.03185953851
0.02363334299
0.03064286584
0.04579703787
0.04659119436
0.04015629179
0.02560526086
0.03650714286
0.03704827027
0.03323340606
0.03435118849
0.02413340648
0.01670596307
0.01794523778
0.02726637224
0.01950575696
0.01855148425
0.02072575519
0.01969793183
0.02767921614
0.01893915574
0.01965564179
0.0156508168
0.02028713127
0.04773126809
0.04793789045
0.03029176415
0.02993203148
0.05094660639
0.05093838265
0.02875983622
0.02835534794
0.0295517582
0.02911758429
0.06023373124
0.05958458615
0.03558132184
0.03748542618
0.06150505208
0.06087356639
0.05501704014
0.05442395875
0.0319293567
0.03306804581
0.0562622418
0.05563533145
0.01135743451
0.0182816207
0.01830258185
0.01827125604
0.01829688595
0.01130660715
0.01167091047
0.01696304675
0.01472481519
0.01820480973
0.01788234386
0.01166312276
0.04235877001
0.02472837195
0.02499768353
0.02431281639
0.02451511427
0.04210743944
0.04372506062
0.02592782872
0.02640031239
0.02525913756
0.02556781957
0.0432358811
0.04001109283
0.02310470458
0.02334469433
0.02274098515
0.02297089487
0.03977795599
0.04129739763
0.0239255638
0.02411302778
0.02350586171
0.02374041605
0.04102122259
0.02645396738
0.0262725621
0.06886891004
0.04567118334
0.04600252131
0.04494649164
0.04523350556
0.06810442446
0.02690312276
0.0266983846
0.02437276418
0.0256258521
0.05961075634
0.04112898579
0.0408158461
0.02728560137
0.02868073672
0.05304266239
0.06610024968
0.04422182883
0.04442459393
0.04348096436
0.04342767107
0.06479893488
0.02516538563
0.02521497771
0.009280754649
0.009521126756
0.009132345438
0.0116970252
0.0103496684
0.01422928468
0.009558926138
0.009494719491
0.009553780829
0.009553233509
0.01405755744
0.01913849492
0.01065424427
0.01220635845
0.009671785236
0.009435374144
0.01656340764
0.03499266653
0.05271649781
0.05240872643
0.05413275494
0.05377066643
0.03557896566
0.02073876603
0.02050343722
0.02130537463
0.02103387842
0.02106500694
0.01659106911
0.02337302895
0.04304319452
0.03841196812
0.05023057208
0.04845430485
0.0330641814
0.02555685811
0.01776496015
0.02285412967
0.02427755825
0.038509913
0.02239530388
0.02268034592
0.02173491387
0.02245155254
0.03857922714
0.02202624318
0.0218018609
0.02283681021
0.02259529723
0.009766289486
0.01193414564
0.01144154707
0.01525032553
0.01302819048
0.009735760668
0.00942213793
0.009623072822
0.0108268177
0.01016502184
0.00651227636
0.0111581058
0.01099789318
0.01100709026
0.01241760477
0.01156670744
0.01104568636
0.0190159806
0.01897089398
0.01926054854
0.01919834756
0.029165212
0.02913676742
0.04425528749
0.01821716939
0.01923343536
0.01874421344
0.01880769519
0.01982393154
0.03334226008
0.03299206672
0.03375605927
0.03348201209
0.01990442747
0.01926590403
0.03231060227
0.03051976693
0.03286822295
0.03230319676
0.01925572005
0.01063963257
0.04172003452
0.04112608836
0.02726168199
0.01282326748
0.01063336493
0.0106320016
0.007967359426
0.01098643966
0.01232303848
0.01773553557
0.01225018664
0.01264050438
0.01250910987
0.02976695796
0.01837742907
0.0185821814
0.01146698722
0.01177389908
0.0117104798
0.01212189505
0.01216049465
0.008536605537
0.008548151398
0.01209826801
0.01180197574
0.01207115291
0.01488788903
0.01837363544
0.02774407043
1.154992604
1.155385945
1.155611935
1.155558142
1.156250613
1.156039923
1.156530798
1.157593469
1.15670988
1.157944761
1.013402398
1.15757995
0.9801835978
0.9082105765
1.076893803
0.9102263087
0.8796147465
1.047355758
0.8856836682
0.9295877175
1.097428219
0.9493373313
1.054381155
1.157558392
1.092022798
1.157574303
1.156758669
1.157224417
1.156338348
1.156121478
1.154739261
1.155593945
1.155372269
1.155978279
1.157483385
1.156431223
1.10083164