/*--------------------------------*- C++ -*----------------------------------*\
| =========                 |                                                 |
| \\      /  F ield         | OpenFOAM: The Open Source CFD Toolbox           |
|  \\    /   O peration     | Version:  v1912                                 |
|   \\  /    A nd           | Website:  www.openfoam.com                      |
|    \\/     M anipulation  |                                                 |
\*---------------------------------------------------------------------------*/
FoamFile
{
    version     2.0;
    format      ascii;
    class       pointVectorField;
    location    "2.48";
    object      pointDisplacement;
}
// * * * * * * * * * * * * * * * * * * * * * * * * * * * * * * * * * * * * * //

dimensions      [0 1 0 0 0 0 0];


internalField   nonuniform List<vector> 
26316
(
(0 0 0)
(0 0 0)
(0 0 0)
(0 0 0)
(0 0 0)
(0 0 0)
(0 0 0)
(0 0 0)
(0 0 0)
(0 0 0)
(0 0 0)
(0 0 0)
(0 0 0)
(0 0 0)
(0 0 0)
(0 0 0)
(0 0 0)
(0 0 0)
(0 0 0)
(0 0 0)
(0 0 0)
(0 0 0)
(0 0 0)
(0 0 0)
(0 0 0)
(0 0 0)
(0 0 0)
(0 0 0)
(0 0 0)
(0 0 0)
(0 0 0)
(0 0 0)
(0 0 0)
(0 0 0)
(0 0 0)
(0 0 0)
(0 0 0)
(0 0 0)
(0 0 0)
(0 0 0)
(0 0 0)
(0 0 0)
(0 0 0)
(0 0 0)
(0 0 0)
(0 0 0)
(0 0 0)
(0 0 0)
(0 0 0)
(0 0 0)
(0 0 0)
(0 0 0)
(0 0 0)
(0 0 0)
(0 0 0)
(0 0 0)
(0 0 0)
(0 0 0)
(0 0 0)
(0 0 0)
(0 0 0)
(0 0 0)
(0 0 0)
(0 0 0)
(0 0 0)
(0 0 0)
(0 0 0)
(0 0 0)
(0 0 0)
(0 0 0)
(0 0 0)
(0 0 0)
(0 0 0)
(0 0 0)
(0 0 0)
(0 0 0)
(0 0 0)
(0 0 0)
(0 0 0)
(0 0 0)
(0 0 0)
(0 0 0)
(0 0 0)
(0 0 0)
(0 0 0)
(0 0 0)
(0 0 0)
(0 0 0)
(0 0 0)
(0 0 0)
(0 0 0)
(0 0 0)
(0 0 0)
(0 0 0)
(0 0 0)
(0 0 0)
(0 0 0)
(0 0 0)
(0 0 0)
(0 0 0)
(0 0 0)
(0 0 0)
(0 0 0)
(0 0 0)
(0 0 0)
(0 0 0)
(0 0 0)
(0 0 0)
(0 0 0)
(0 0 0)
(0 0 0)
(0 0 0)
(0 0 0)
(0 0 0)
(0 0 0)
(0 0 0)
(0 0 0)
(0 0 0)
(0 0 0)
(-6.754951127e-07 8.383331833e-06 2.775557562e-17)
(0 0 0)
(0 0 0)
(-3.725749493e-07 9.390591547e-05 3.330669074e-16)
(1.720942775e-06 7.982653926e-05 2.91433544e-16)
(0 0 0)
(0 0 0)
(0 0 0)
(0 0 0)
(0 0 0)
(0 0 0)
(0 0 0)
(0 0 0)
(0 0 0)
(0 0 0)
(0 0 0)
(0 0 0)
(0 0 0)
(0 0 0)
(0 0 0)
(0 0 0)
(0 0 0)
(0 0 0)
(0 0 0)
(0 0 0)
(0 0 0)
(0 0 0)
(0 0 0)
(0 0 0)
(0 0 0)
(0 0 0)
(0 0 0)
(0 0 0)
(0 0 0)
(0 0 0)
(0 0 0)
(0 0 0)
(0 0 0)
(0 0 0)
(0 0 0)
(0 0 0)
(0 0 0)
(0 0 0)
(0 0 0)
(0 0 0)
(0 0 0)
(0 0 0)
(0 0 0)
(0 0 0)
(0 0 0)
(0 0 0)
(0 0 0)
(0 0 0)
(0 0 0)
(0 0 0)
(0 0 0)
(0 0 0)
(0 0 0)
(0 0 0)
(0 0 0)
(0 0 0)
(0 0 0)
(0 0 0)
(0 0 0)
(0 0 0)
(0 0 0)
(-4.20822761e-05 0.0001226471015 4.857225733e-16)
(-0.000242147379 0.0007693684003 3.080868893e-15)
(-3.166934915e-06 1.032205271e-05 4.163336342e-17)
(-0.0004595443971 0.002052705903 8.007483565e-15)
(-0.001140056438 0.004975129178 1.99146255e-14)
(-0.001351686129 0.006739287275 2.69784195e-14)
(-0.0006312261903 0.003218340053 1.254552018e-14)
(-0.0007660051621 0.006782018119 2.645106356e-14)
(-0.0013384646 0.01164349117 4.660161146e-14)
(-0.001112930884 0.0128652473 5.148659277e-14)
(-0.0006581483392 0.007718000358 3.010092176e-14)
(-2.300065274e-05 0.009025456705 3.520794767e-14)
(-2.247441183e-05 0.01453968221 5.821731985e-14)
(0.0003822514926 0.01435096127 5.746791931e-14)
(0.0002211920638 0.008877230904 3.463895837e-14)
(0.0007281279447 0.006804082893 2.654820808e-14)
(0.001292853753 0.01166890014 4.674038934e-14)
(0.001414428006 0.01019524634 4.082845173e-14)
(0.0007649081423 0.005695706506 2.223221607e-14)
(0.0004490801844 0.002078335502 8.10462808e-15)
(0.001115257311 0.005015034773 2.009503675e-14)
(0.0008385830484 0.003350825276 1.341982081e-14)
(0.0002622705822 0.001077668412 4.204969706e-15)
(0 0 0)
(4.414815768e-05 0.0001320795977 5.273559367e-16)
(0 0 0)
(0 0 0)
(0 0 0)
(0 0 0)
(0 0 0)
(0 0 0)
(0 0 0)
(0 0 0)
(0 0 0)
(0 0 0)
(0 0 0)
(0 0 0)
(0 0 0)
(0 0 0)
(0 0 0)
(0 0 0)
(0 0 0)
(0 0 0)
(0 0 0)
(0 0 0)
(0 0 0)
(0 0 0)
(0 0 0)
(0 0 0)
(0 0 0)
(0 0 0)
(0 0 0)
(0 0 0)
(0 0 0)
(0 0 0)
(0 0 0)
(0 0 0)
(0 0 0)
(0 0 0)
(0 0 0)
(0 0 0)
(0 0 0)
(0 0 0)
(0 0 0)
(0 0 0)
(0 0 0)
(0 0 0)
(0 0 0)
(0 0 0)
(0 0 0)
(0 0 0)
(-0.0001175284209 0.0002305078308 1.026956298e-15)
(-0.0006418870648 0.001342946415 6.009082121e-15)
(-0.0001520774413 0.0003273642965 1.415534356e-15)
(-0.002166880329 0.005838073377 2.536859611e-14)
(-0.003462927987 0.009082520116 4.060640713e-14)
(-0.004412836799 0.01264862648 5.653810753e-14)
(-0.002976320518 0.008758434196 3.805289417e-14)
(-0.004606463633 0.01874554179 8.137934771e-14)
(-0.006082160555 0.02415710457 1.078859224e-13)
(-0.006100740757 0.02779106786 1.241090564e-13)
(-0.004722174358 0.02202059137 9.559020242e-14)
(-0.003645741692 0.03012640194 1.307981501e-13)
(-0.004509325841 0.0365710267 1.633970736e-13)
(-0.003524604284 0.0385511559 1.722927356e-13)
(-0.002880778572 0.03199139537 1.389305337e-13)
(7.874865909e-05 0.03445448228 1.49769086e-13)
(0.0001487320847 0.04113467986 1.840749775e-13)
(0.001433373734 0.04083235993 1.82798221e-13)
(0.001123315623 0.0341712541 1.485755963e-13)
(0.003736669358 0.03011420598 1.310618281e-13)
(0.004711772578 0.03652431368 1.63702385e-13)
(0.005449632981 0.03403619567 1.526001547e-13)
(0.004288670195 0.02779332038 1.209865541e-13)
(0.004593198337 0.01878407117 8.179568134e-14)
(0.006112416856 0.02416752047 1.083855228e-13)
(0.005778246168 0.02036699854 9.134359935e-14)
(0.004229341103 0.01540814778 6.708522626e-14)
(0.002151507451 0.005904830768 2.570166302e-14)
(0.003442823894 0.009158275694 4.105049634e-14)
(0.002432117467 0.005979781798 2.678413047e-14)
(0.001349780818 0.003422134833 1.489086632e-14)
(0 0 0)
(0.0001166848503 0.0002330112995 1.040834086e-15)
(0 0 0)
(0 0 0)
(0 0 0)
(0 0 0)
(0 0 0)
(0 0 0)
(0 0 0)
(0 0 0)
(0 0 0)
(0 0 0)
(0 0 0)
(0 0 0)
(0 0 0)
(0 0 0)
(0 0 0)
(0 0 0)
(0 0 0)
(0 0 0)
(0 0 0)
(0 0 0)
(0 0 0)
(0 0 0)
(0 0 0)
(0 0 0)
(0 0 0)
(0 0 0)
(0 0 0)
(0 0 0)
(0 0 0)
(0 0 0)
(0 0 0)
(0 0 0)
(0 0 0)
(0 0 0)
(0 0 0)
(0 0 0)
(0 0 0)
(0 0 0)
(0 0 0)
(-5.056638657e-05 7.336407454e-05 3.60822483e-16)
(0 0 0)
(-0.002150942181 0.003851881441 1.890154699e-14)
(-0.003196068679 0.005533041479 2.806088695e-14)
(-0.004997875999 0.009253977099 4.6893045e-14)
(-0.003671102059 0.007023747236 3.444466934e-14)
(-0.008362116632 0.02013955347 9.858780459e-14)
(-0.01014098475 0.023687914 1.197375532e-13)
(-0.01131970089 0.02894253409 1.462163723e-13)
(-0.009530733315 0.025118403 1.229016888e-13)
(-0.01076682468 0.03948453772 1.930539062e-13)
(-0.01226044395 0.04364587698 2.203515148e-13)
(-0.01167281542 0.04774826759 2.411126854e-13)
(-0.01035376484 0.04362225279 2.133015986e-13)
(-0.00698904706 0.05290432512 2.589595205e-13)
(-0.007702462747 0.05665769118 2.864652959e-13)
(-0.005844840021 0.05845326502 2.957356582e-13)
(-0.005333872788 0.05484866751 2.686323386e-13)
(0.0003913904692 0.05725611361 2.810113253e-13)
(0.0004523497735 0.0606091773 3.073929999e-13)
(0.002604487129 0.06031980726 3.061717546e-13)
(0.002356984256 0.05694797684 2.797068133e-13)
(0.007619971917 0.05269146984 2.593480986e-13)
(0.008456678837 0.05637694893 2.868399962e-13)
(0.01000951223 0.0539637242 2.74752443e-13)
(0.00896807406 0.05014252569 2.469413563e-13)
(0.01104088076 0.03930099892 1.937339178e-13)
(0.01262959622 0.04333987823 2.209343819e-13)
(0.01266779934 0.03881022081 1.978694986e-13)
(0.01095356253 0.03480520653 1.715849685e-13)
(0.008338294703 0.02001556188 9.860168237e-14)
(0.01039609159 0.02398543385 1.223188217e-13)
(0.008954013797 0.01909351571 9.739431484e-14)
(0.007094708458 0.01571022081 7.741030039e-14)
(0.002455398451 0.004435820613 2.184363801e-14)
(0.003670303878 0.006405497892 3.261280135e-14)
(0.002070442596 0.003406462403 1.733335697e-14)
(0.001183025877 0.002013948523 9.908740495e-15)
(0 0 0)
(0 0 0)
(0 0 0)
(0 0 0)
(0 0 0)
(0 0 0)
(0 0 0)
(0 0 0)
(0 0 0)
(0 0 0)
(0 0 0)
(0 0 0)
(0 0 0)
(0 0 0)
(0 0 0)
(0 0 0)
(0 0 0)
(0 0 0)
(0 0 0)
(0 0 0)
(0 0 0)
(0 0 0)
(0 0 0)
(0 0 0)
(0 0 0)
(0 0 0)
(0 0 0)
(0 0 0)
(0 0 0)
(0 0 0)
(0 0 0)
(0 0 0)
(0 0 0)
(0 0 0)
(0 0 0)
(-0.0002337087701 0.0002896200725 1.637578961e-15)
(-0.0005314701624 0.0006340032839 3.719247132e-15)
(-0.001887356377 0.002370990224 1.393329896e-14)
(-0.001268950188 0.001655555189 9.36750677e-15)
(-0.007448292093 0.01158090171 6.530886942e-14)
(-0.008810100569 0.01319805975 7.727152251e-14)
(-0.01134865382 0.0181717378 1.062483435e-13)
(-0.009840616365 0.01635257309 9.212075547e-14)
(-0.01548800347 0.03244615209 1.821598428e-13)
(-0.01710165035 0.03447246251 2.009920008e-13)
(-0.01800076131 0.03969231681 2.31259456e-13)
(-0.0164563097 0.03775447286 2.117472864e-13)
(-0.01617033596 0.05182992919 2.902400542e-13)
(-0.01717309248 0.05280158935 3.070460552e-13)
(-0.01581390395 0.05588489488 3.250039127e-13)
(-0.01494221897 0.05501124125 3.081562783e-13)
(-0.00927543621 0.06133876569 3.442662821e-13)
(-0.009599887894 0.06071334605 3.537864446e-13)
(-0.007142906691 0.06123468196 3.57158747e-13)
(-0.006942027214 0.06227418885 3.498312751e-13)
(0.0004724046917 0.06306892963 3.553823902e-13)
(0.0004198349809 0.06136201047 3.59060004e-13)
(0.002951353975 0.0612829681 3.590183706e-13)
(0.002971105286 0.06291394318 3.549105454e-13)
(0.01022376898 0.06095204252 3.449879271e-13)
(0.01048999569 0.06025008253 3.542721672e-13)
(0.01277598793 0.0591843128 3.484296185e-13)
(0.01235980208 0.05945106674 3.368694212e-13)
(0.01679346543 0.05119293344 2.908784325e-13)
(0.01785175441 0.05211449655 3.081007671e-13)
(0.01868899948 0.04860713944 2.877420524e-13)
(0.01739833756 0.04716950075 2.683686606e-13)
(0.01601536049 0.03290431408 1.873362576e-13)
(0.0176502202 0.0348524667 2.063349491e-13)
(0.01615350932 0.02955696798 1.748740042e-13)
(0.01448795604 0.02758333979 1.569439023e-13)
(0.007875321761 0.01230333267 6.981915046e-14)
(0.00928350853 0.01394168035 8.225364834e-14)
(0.0066899504 0.009480935128 5.587197371e-14)
(0.00548074994 0.008079102125 4.579669977e-14)
(0.0003615640249 0.0004548902896 2.581268532e-15)
(0.0006211530343 0.0007515479845 4.413136523e-15)
(1.57678018e-05 1.817301897e-05 1.110223025e-16)
(0 0 0)
(0 0 0)
(0 0 0)
(0 0 0)
(0 0 0)
(0 0 0)
(0 0 0)
(0 0 0)
(0 0 0)
(0 0 0)
(0 0 0)
(0 0 0)
(0 0 0)
(0 0 0)
(0 0 0)
(0 0 0)
(0 0 0)
(0 0 0)
(0 0 0)
(0 0 0)
(0 0 0)
(0 0 0)
(0 0 0)
(0 0 0)
(0 0 0)
(0 0 0)
(0 0 0)
(0 0 0)
(0 0 0)
(-2.224520034e-05 1.942757108e-05 1.387778781e-16)
(-6.07011027e-07 5.559307026e-07 0)
(0 0 0)
(-0.00166837161 0.001758539401 1.169897512e-14)
(-0.002105715067 0.002122185685 1.476596623e-14)
(-0.004367683451 0.004638466246 3.222422329e-14)
(-0.003726441366 0.004138369207 2.747801986e-14)
(-0.01208667888 0.0160222735 1.059569099e-13)
(-0.01315602762 0.01668017342 1.152966611e-13)
(-0.01597087075 0.02164368092 1.49380508e-13)
(-0.01513063875 0.02144709897 1.41595069e-13)
(-0.02086136193 0.0371818771 2.447070324e-13)
(-0.0217263994 0.03700687639 2.54546384e-13)
(-0.0222771305 0.04143854129 2.849248615e-13)
(-0.02149384745 0.04184908492 2.753214323e-13)
(-0.01931189301 0.05180360868 3.409633687e-13)
(-0.0197265449 0.05043363691 3.471112286e-13)
(-0.0177200133 0.05170242023 3.561040351e-13)
(-0.01745995634 0.05355304892 3.525929548e-13)
(-0.01008397157 0.05447940816 0)
(-0.01025259557 0.05202708043 0)
(-0.008976668501 0.05201382742 0)
(-0.007630667367 0.05205414475 0)
(-0.007535903838 0.05326778672 0)
(-0.007491512197 0.05445332726 0)
(0.0002219429505 0.05428842773 0)
(0.0001892931754 0.05310924567 0)
(0.001481160439 0.05307451013 0)
(0.001506810702 0.05425377502 0)
(0.01060730601 0.0539041601 0)
(0.01061232787 0.05269201524 0)
(0.01062599265 0.05146085377 0)
(0.01191005567 0.05138822554 0)
(0.01317611006 0.0513394566 0)
(0.01318753101 0.05377303961 0)
(0.01986525334 0.05114524693 3.433087148e-13)
(0.02016034806 0.04969847835 3.491651412e-13)
(0.02168584881 0.04765870339 3.351763311e-13)
(0.02122743121 0.04875612767 3.275435478e-13)
(0.02142716058 0.03726858714 2.505357033e-13)
(0.02219302725 0.03685994679 2.595978987e-13)
(0.02106201702 0.03237991361 2.279704203e-13)
(0.02011020941 0.03238670224 2.176314684e-13)
(0.01296534737 0.01711745552 1.14713794e-13)
(0.01417927663 0.01787525712 1.25441324e-13)
(0.01116979362 0.01329344405 9.314771177e-14)
(0.01006015005 0.01253723524 8.390510509e-14)
(0.002239035585 0.002387816893 1.591782262e-14)
(0.002798742447 0.002851669522 1.988686993e-14)
(0.001002607972 0.0009742335912 6.786238238e-15)
(0.0006821563372 0.0006936454799 4.62130334e-15)
(0 0 0)
(0 0 0)
(0 0 0)
(0 0 0)
(0 0 0)
(0 0 0)
(0 0 0)
(0 0 0)
(0 0 0)
(0 0 0)
(0 0 0)
(0 0 0)
(0 0 0)
(0 0 0)
(0 0 0)
(0 0 0)
(0 0 0)
(0 0 0)
(0 0 0)
(0 0 0)
(0 0 0)
(0 0 0)
(0 0 0)
(0 0 0)
(0 0 0)
(0 0 0)
(0 0 0)
(0 0 0)
(-0.0002004402697 0.0001410333104 1.276756478e-15)
(-0.0001142253287 8.521509204e-05 7.21644966e-16)
(-9.344627793e-05 7.366502188e-05 5.828670879e-16)
(-0.003025600776 0.002626123416 2.119138198e-14)
(-0.003137897123 0.002577481812 2.198241589e-14)
(-0.005809260334 0.005029658825 4.27990976e-14)
(-0.005655664741 0.005174069569 4.168887457e-14)
(-0.01520189101 0.0166053027 1.330047184e-13)
(-0.01544643891 0.01596767675 1.350586309e-13)
(-0.01838487887 0.02030710034 1.71418435e-13)
(-0.0181232035 0.02115321628 1.691147222e-13)
(-0.0234905169 0.03437736197 2.73905898e-13)
(-0.02374109349 0.03286070025 2.764177776e-13)
(-0.02404226921 0.03628439373 3.051447983e-13)
(-0.02381415456 0.03801523584 3.027994522e-13)
(-0.02039610623 0.04452144674 3.552297345e-13)
(-0.02051236926 0.04225479883 3.561040351e-13)
(-0.01816230239 0.04254534558 0)
(-0.01809261628 0.04494484877 3.590738817e-13)
(-0.01053824118 0.04476508529 0)
(-0.01057890495 0.04354854103 0)
(-0.009320546172 0.04352109322 0)
(-0.009280045706 0.04473572388 0)
(0.01050982362 0.04422006124 0)
(0.01048372406 0.04301492612 0)
(0.01174141294 0.04297521935 0)
(0.01176878774 0.04417853424 0)
(0.02048352686 0.04367302998 3.573114027e-13)
(0.02046963208 0.04139675187 3.581718255e-13)
(0.02250923184 0.04049360273 3.508998647e-13)
(0.02244100168 0.04258575611 3.489014633e-13)
(0.02431917175 0.03478851489 2.854244618e-13)
(0.02459638897 0.03331453551 2.891575868e-13)
(0.02374372024 0.02974451479 2.580297087e-13)
(0.02341895506 0.03099392165 2.541578059e-13)
(0.01663891774 0.01804128617 1.473265954e-13)
(0.01701088089 0.01745013226 1.507266534e-13)
(0.0138117187 0.01337252498 1.152689055e-13)
(0.01345849143 0.01377498674 1.122713034e-13)
(0.00406065627 0.003560003304 2.885192085e-14)
(0.004585383961 0.003801168819 3.258504577e-14)
(0.002186782271 0.001729700121 1.480759959e-14)
(0.001800196516 0.001505677296 1.21846977e-14)
(0 0 0)
(0 0 0)
(0 0 0)
(0 0 0)
(0 0 0)
(0 0 0)
(0 0 0)
(0 0 0)
(0 0 0)
(0 0 0)
(0 0 0)
(0 0 0)
(0 0 0)
(0 0 0)
(0 0 0)
(0 0 0)
(0 0 0)
(0 0 0)
(0 0 0)
(0 0 0)
(0 0 0)
(0 0 0)
(0 0 0)
(0 0 0)
(0 0 0)
(0 0 0)
(0 0 0)
(0 0 0)
(-0.0003290361503 0.0001758899038 2.095545959e-15)
(-0.0002971849216 0.0001714103673 1.887379142e-15)
(-0.0002607152406 0.0001613910213 1.665334537e-15)
(-0.003728583987 0.002542461827 2.610411887e-14)
(-0.003855594356 0.002450184737 2.699229729e-14)
(-0.006723541902 0.004505470191 4.95159469e-14)
(-0.006564446226 0.004719505134 4.835021272e-14)
(-0.01641753902 0.01409664718 1.433020369e-13)
(-0.01661838304 0.01330172695 1.449812492e-13)
(-0.01953792893 0.01670471828 1.816324868e-13)
(-0.01933944595 0.01773840229 1.799255189e-13)
(-0.02446622074 0.02806588125 2.835232049e-13)
(-0.02462463159 0.02631682477 2.849248615e-13)
(-0.02479364455 0.02885147851 3.123196146e-13)
(-0.02465532785 0.03080545475 3.111538804e-13)
(-0.02078242516 0.03528760143 3.574918139e-13)
(-0.02085714555 0.03293757495 3.577138585e-13)
(-0.01841957037 0.03299698108 0)
(-0.01835690749 0.03537817245 0)
(-0.010815195 0.03517184386 0)
(-0.01084726673 0.03398044018 0)
(-0.009592241374 0.03394628018 0)
(-0.009560004077 0.03513767929 0)
(0.01027289345 0.03460618329 0)
(0.0102400763 0.03340778608 0)
(0.01149484738 0.03337241806 0)
(0.01152786851 0.03457020212 0)
(0.02032054335 0.03431532762 3.590183706e-13)
(0.02025406641 0.0319284289 3.59060004e-13)
(0.02250808856 0.0314993847 3.54938301e-13)
(0.02254115936 0.03381087369 3.543970672e-13)
(0.02529348243 0.02845323446 2.989275494e-13)
(0.02539964789 0.02662330505 3.007732952e-13)
(0.02481192689 0.02402366423 2.712552405e-13)
(0.0246565231 0.02562894954 2.691180612e-13)
(0.01834502649 0.0155902236 1.628974733e-13)
(0.01860653392 0.01472216484 1.653399639e-13)
(0.015444096 0.01153357167 1.291883267e-13)
(0.01517018149 0.01216805873 1.26815225e-13)
(0.005257533362 0.003615019921 3.738676035e-14)
(0.005471058044 0.003503290125 3.891331701e-14)
(0.002821387845 0.001724520728 1.910971381e-14)
(0.002659871484 0.001745561073 1.801336857e-14)
(0 0 0)
(0 0 0)
(0 0 0)
(0 0 0)
(0 0 0)
(0 0 0)
(0 0 0)
(0 0 0)
(0 0 0)
(0 0 0)
(0 0 0)
(0 0 0)
(0 0 0)
(0 0 0)
(0 0 0)
(0 0 0)
(0 0 0)
(0 0 0)
(0 0 0)
(0 0 0)
(0 0 0)
(0 0 0)
(0 0 0)
(0 0 0)
(0 0 0)
(0 0 0)
(0 0 0)
(0 0 0)
(-0.0004853796937 0.0001775827989 3.094746681e-15)
(-0.0004376002407 0.0001785537842 2.789435349e-15)
(-0.0003950600907 0.0001778555422 2.525757381e-15)
(-0.004171917535 0.002071325974 2.919886555e-14)
(-0.004300055156 0.001935896467 3.008704397e-14)
(-0.007275076851 0.003456339144 5.355438315e-14)
(-0.007117134119 0.003727955477 5.240252676e-14)
(-0.01711518213 0.01072002453 1.490613188e-13)
(-0.01731091819 0.009841133657 1.506711422e-13)
(-0.02022456028 0.01228315116 1.874195243e-13)
(-0.02003152085 0.01340261586 1.857819454e-13)
(-0.02503148925 0.02090765224 2.882694083e-13)
(-0.02518483637 0.01908913381 2.895739204e-13)
(-0.02528857691 0.02084464921 3.161637618e-13)
(-0.02515502488 0.02285605146 3.150951722e-13)
(-0.02106826493 0.02586942709 3.581718255e-13)
(-0.02113853396 0.02351098315 3.583244812e-13)
(-0.01866602635 0.02349214795 0)
(-0.01860480651 0.02586708304 0)
(-0.01106799958 0.02566111083 0)
(-0.01109922587 0.02447432306 0)
(-0.009845903695 0.02444048623 0)
(-0.009830178652 0.02503393226 0)
(-0.009814467325 0.0256268816 0)
(0.009996848995 0.02502987213 0)
(0.009960514455 0.02383610085 0)
(0.01121390553 0.02380275919 0)
(0.01125039496 0.02499613959 0)
(0.02003668909 0.02475884148 3.590461262e-13)
(0.01995923826 0.02237331629 3.589767372e-13)
(0.02217260383 0.02201095894 3.541056337e-13)
(0.02227391842 0.02439123596 3.545774785e-13)
(0.02514297236 0.02054057403 2.99538172e-13)
(0.02500033708 0.01848881213 2.984418268e-13)
(0.02440968623 0.01665888916 2.687017275e-13)
(0.02455602582 0.01851730663 2.698397061e-13)
(0.01837144284 0.01131253023 1.63702385e-13)
(0.01823943193 0.01016493722 1.626754287e-13)
(0.01510203212 0.007946302691 1.266764471e-13)
(0.01522242644 0.008848515426 1.275923811e-13)
(0.005322359349 0.002655786441 3.787248293e-14)
(0.005252550777 0.002374071295 3.738676035e-14)
(0.002661131853 0.001148781931 1.804112415e-14)
(0.002710332976 0.0012914415 1.837419106e-14)
(0 0 0)
(0 0 0)
(0 0 0)
(0 0 0)
(0 0 0)
(0 0 0)
(0 0 0)
(0 0 0)
(0 0 0)
(0 0 0)
(0 0 0)
(0 0 0)
(0 0 0)
(0 0 0)
(0 0 0)
(0 0 0)
(0 0 0)
(0 0 0)
(0 0 0)
(0 0 0)
(0 0 0)
(0 0 0)
(0 0 0)
(0 0 0)
(0 0 0)
(0 0 0)
(0 0 0)
(0 0 0)
(-0.0006951210911 0.0001370681779 4.427014311e-15)
(-0.000638302539 0.0001527771896 4.080069615e-15)
(-0.0005833486421 0.0001642236205 3.719247132e-15)
(-0.004700836248 0.001463393307 3.28903571e-14)
(-0.004842083348 0.001283251922 3.388955783e-14)
(-0.007936250734 0.0022247241 5.836997552e-14)
(-0.00776502976 0.002554631423 5.712097462e-14)
(-0.01791089352 0.00707928772 1.555977569e-13)
(-0.01811805339 0.006117457145 1.57290847e-13)
(-0.02101789826 0.007592373522 1.940947403e-13)
(-0.02081475116 0.008796503865 1.924016502e-13)
(-0.0256497852 0.01352769056 2.935013343e-13)
(-0.02580798578 0.01164006291 2.948197242e-13)
(-0.02582781623 0.01265220953 3.204519983e-13)
(-0.02569156291 0.01472132936 3.193834086e-13)
(-0.02134383602 0.01641527756 3.587130593e-13)
(-0.02141030575 0.01404541498 3.588102038e-13)
(-0.01890851953 0.01398681878 0)
(-0.01884831014 0.01636316251 0)
(-0.01131612979 0.01615764943 0)
(-0.01134666912 0.01496973811 0)
(-0.01009550078 0.01493590553 0)
(-0.01008009314 0.01552985739 0)
(-0.01006463337 0.01612369734 0)
(0.009697223988 0.01549364584 0)
(0.009657513562 0.01430162466 0)
(0.01090972557 0.01426958583 0)
(0.01094970279 0.01546126827 0)
(0.01968389344 0.0151959949 3.581301922e-13)
(0.01956708754 0.01279649769 3.574085472e-13)
(0.02155268465 0.01243798096 3.488043188e-13)
(0.02175047383 0.01483337149 3.508304758e-13)
(0.02408136954 0.01218116919 2.892269757e-13)
(0.02356679537 0.01007352078 2.835925939e-13)
(0.02291346599 0.009033361631 2.539080057e-13)
(0.0233369263 0.01088952388 2.581823644e-13)
(0.01688892908 0.006446830538 1.510042091e-13)
(0.01646006082 0.005317242068 1.47284962e-13)
(0.01335373521 0.004080900075 1.122851812e-13)
(0.01375274402 0.004962285772 1.155742169e-13)
(0.004292859781 0.001335564322 3.058664433e-14)
(0.004062313675 0.001073046709 2.894906537e-14)
(0.001806379119 0.0004563042596 1.224020885e-14)
(0.001960986529 0.0005831501325 1.329492072e-14)
(0 0 0)
(0 0 0)
(0 0 0)
(0 0 0)
(0 0 0)
(0 0 0)
(0 0 0)
(0 0 0)
(0 0 0)
(0 0 0)
(0 0 0)
(0 0 0)
(0 0 0)
(0 0 0)
(0 0 0)
(0 0 0)
(0 0 0)
(0 0 0)
(0 0 0)
(0 0 0)
(0 0 0)
(0 0 0)
(0 0 0)
(0 0 0)
(0 0 0)
(0 0 0)
(0 0 0)
(0 0 0)
(-0.0008785808007 2.506582185e-05 5.606626274e-15)
(-0.0009085929648 6.426030689e-05 5.787037516e-15)
(-0.0008294031381 9.362267738e-05 5.287437155e-15)
(-0.005303956627 0.0006697844592 3.709532681e-14)
(-0.005484596757 0.0004391085769 3.83582055e-14)
(-0.008706222515 0.0007482137565 6.397660179e-14)
(-0.008491161863 0.001142037267 6.242228956e-14)
(-0.01877940007 0.003105097665 1.626754287e-13)
(-0.01903094071 0.002056937122 1.647293413e-13)
(-0.02190795278 0.00256105446 2.015609901e-13)
(-0.02166381798 0.003852047091 1.995070775e-13)
(-0.02630249343 0.005877550261 2.989691827e-13)
(-0.0264839326 0.003922384177 3.005096172e-13)
(-0.02640212999 0.004239798769 3.250177905e-13)
(-0.02624978656 0.006363840401 3.237965451e-13)
(-0.02160359381 0.00692813355 3.590322484e-13)
(-0.02166609697 0.004552971153 3.59060004e-13)
(-0.01914745819 0.004484208154 0)
(-0.01908776072 0.00686001372 0)
(-0.0115568253 0.006655418694 0)
(-0.01158631303 0.005467588786 0)
(-0.01033751011 0.00543409768 0)
(-0.01032264977 0.006028230334 0)
(-0.01030774644 0.006621919967 0)
(0.009371018056 0.005980852789 0)
(0.00932793904 0.004792845907 0)
(0.01057973698 0.00476181264 0)
(0.01062320231 0.005949808854 0)
(0.01913298685 0.00564667763 3.537170556e-13)
(0.01894342676 0.003290756169 3.516631431e-13)
(0.02059890216 0.003121062489 3.378269886e-13)
(0.0208855363 0.005406739852 3.414213356e-13)
(0.02211815759 0.004220462785 2.676053823e-13)
(0.02173371352 0.002417758568 2.63442046e-13)
(0.02062559975 0.00213032348 2.298577995e-13)
(0.0212867262 0.003753083697 2.369077157e-13)
(0.0145378029 0.002134455696 1.303540609e-13)
(0.01362530526 0.001200283921 1.222216772e-13)
(0.01056931775 0.0008957744982 8.903988657e-14)
(0.01148440374 0.001606807917 9.671430323e-14)
(0.002882083777 0.0003551881369 2.055300374e-14)
(0.002517046621 0.0001919106449 1.795785742e-14)
(0.0008176129777 6.007680992e-05 5.551115123e-15)
(0.001029095945 0.0001217178198 6.980527267e-15)
(0 0 0)
(0 0 0)
(0 0 0)
(0 0 0)
(0 0 0)
(0 0 0)
(0 0 0)
(0 0 0)
(0 0 0)
(0 0 0)
(0 0 0)
(0 0 0)
(0 0 0)
(0 0 0)
(0 0 0)
(0 0 0)
(0 0 0)
(0 0 0)
(0 0 0)
(0 0 0)
(0 0 0)
(0 0 0)
(0 0 0)
(0 0 0)
(0 0 0)
(0 0 0)
(0 0 0)
(0 0 0)
(-0.001562167538 -0.0002187872324 9.950373858e-15)
(-0.001424178088 -0.0001392109347 9.076073226e-15)
(-0.001218826082 -6.78529763e-05 7.771561172e-15)
(-0.006065344373 -0.0003545097522 4.239664175e-14)
(-0.006517240363 -0.0006806336167 4.554689959e-14)
(-0.009888047504 -0.001065701027 7.255307466e-14)
(-0.009334616603 -0.0005558572743 6.852851619e-14)
(-0.01988086774 -0.001253778929 1.716543574e-13)
(-0.02025451417 -0.002427624513 1.747213485e-13)
(-0.02303822606 -0.002887758703 2.11053397e-13)
(-0.02272722733 -0.001477269457 2.084443729e-13)
(-0.02707570123 -0.002065984828 3.055750097e-13)
(-0.027182651 -0.00409530476 3.062550213e-13)
(-0.02706321743 -0.004422335473 3.304162499e-13)
(-0.0268913655 -0.002229773035 3.290145933e-13)
(-0.02185052403 -0.002573068109 0)
(-0.02191347144 -0.004948563011 0)
(-0.01939105271 -0.005017003632 0)
(-0.01935981118 -0.003829663989 0)
(-0.01932889773 -0.002642204828 0)
(-0.01179006291 -0.002846741846 0)
(-0.01180461988 -0.003439888752 0)
(-0.01118004676 -0.003456418128 0)
(-0.01116554955 -0.00286343526 0)
(-0.0009582502409 -0.003286803447 0)
(-0.0009733016847 -0.003582416657 0)
(-0.0009863657064 -0.003878139979 0)
(-0.0003746859442 -0.003888072403 0)
(-0.0003456389697 -0.003297203429 0)
(0.00899907515 -0.003508198939 0)
(0.00894697222 -0.004690985995 0)
(0.008894381749 -0.005873428213 0)
(0.01140534986 -0.005936526767 0)
(0.01150737109 -0.003570063888 0)
(0.01025368916 -0.003539254742 0)
(0.01825330604 -0.003575934492 3.430172812e-13)
(0.01792409237 -0.005751809817 3.381322999e-13)
(0.01914026553 -0.00543532883 3.178846075e-13)
(0.01965764397 -0.003427582303 3.255173908e-13)
(0.01986824147 -0.002546746981 2.419314749e-13)
(0.01914909594 -0.003988228469 2.334799021e-13)
(0.01777626998 -0.003376937901 1.99021355e-13)
(0.01852823973 -0.002158385624 2.072092498e-13)
(0.0112909011 -0.0009988623792 1.014188733e-13)
(0.01061100432 -0.001564513658 9.535428003e-14)
(0.007765611491 -0.001060167787 6.550315845e-14)
(0.008364465903 -0.0006784729546 7.052691764e-14)
(0.001190302102 -7.696601295e-05 8.493206138e-15)
(0.000967618224 -0.0001081174035 6.911138328e-15)
(7.672472844e-05 -8.123136993e-06 5.134781489e-16)
(0.000146586439 -8.938815957e-06 9.992007222e-16)
(0 0 0)
(0 0 0)
(0 0 0)
(0 0 0)
(0 0 0)
(0 0 0)
(0 0 0)
(0 0 0)
(0 0 0)
(0 0 0)
(0 0 0)
(0 0 0)
(0 0 0)
(0 0 0)
(0 0 0)
(0 0 0)
(0 0 0)
(0 0 0)
(0 0 0)
(0 0 0)
(0 0 0)
(0 0 0)
(0 0 0)
(0 0 0)
(0 0 0)
(0 0 0)
(0 0 0)
(0 0 0)
(-0.001481496651 -0.000459826186 9.478529073e-15)
(-0.001674242456 -0.000448511029 1.071365219e-14)
(-0.001789035356 -0.000403354184 1.144917494e-14)
(-0.007219627678 -0.001763443399 5.06539255e-14)
(-0.006987736598 -0.002032141772 4.903022433e-14)
(-0.01042817195 -0.003163817353 7.68274333e-14)
(-0.01070575954 -0.002724642013 7.88813459e-14)
(-0.02118290326 -0.006186271133 1.833394547e-13)
(-0.02084511764 -0.007282653481 1.803279748e-13)
(-0.02359898347 -0.008706537386 2.166877788e-13)
(-0.02392706078 -0.007373059425 2.198657922e-13)
(-0.02775804398 -0.01042438936 3.134992266e-13)
(-0.02754778318 -0.01239185303 3.106681579e-13)
(-0.02722412359 -0.01327823618 3.326505738e-13)
(-0.02736978372 -0.01115139332 3.350375533e-13)
(-0.02182387523 -0.01210604344 0)
(-0.0218894823 -0.0144818515 0)
(-0.01936003313 -0.01455170131 0)
(-0.01932723722 -0.01336407322 0)
(-0.01929442607 -0.01217589325 0)
(-0.01170618894 -0.01238543963 0)
(-0.01173900009 -0.01357361959 0)
(-0.01047433069 -0.01360854297 0)
(-0.01045791749 -0.01301417705 0)
(-0.01044151954 -0.01242036301 0)
(-0.01107385424 -0.01240290132 0)
(-0.001588559638 -0.01266483424 0)
(-0.001604956537 -0.01325864831 0)
(-0.001621369205 -0.01385301425 0)
(-0.0003566609487 -0.0138879387 0)
(-0.0003238497961 -0.01269975873 0)
(0.008529073287 -0.01294422895 0)
(0.008463466222 -0.01532003701 0)
(0.01095575134 -0.01532992125 3.576999807e-13)
(0.011050737 -0.01300355513 3.58796326e-13)
(0.0169626959 -0.01189701016 3.238659341e-13)
(0.01653443132 -0.01371713254 3.16940918e-13)
(0.01738798722 -0.01267477766 2.924466225e-13)
(0.01790132789 -0.01104599422 3.001765503e-13)
(0.01666566996 -0.007483762615 2.038785807e-13)
(0.01599074112 -0.008471665468 1.958710971e-13)
(0.01426821383 -0.006907979378 1.601913047e-13)
(0.01524441608 -0.006260432631 1.710853681e-13)
(0.008009197764 -0.002595552119 7.202571872e-14)
(0.006980511229 -0.002671870916 6.278311204e-14)
(0.004744915087 -0.001697702386 4.005129561e-14)
(0.005406625437 -0.001635080016 4.563016631e-14)
(0.0001992284767 -5.040414053e-05 1.429412144e-15)
(8.999069196e-05 -2.701568209e-05 6.383782392e-16)
(0 0 0)
(0 0 0)
(0 0 0)
(0 0 0)
(0 0 0)
(0 0 0)
(0 0 0)
(0 0 0)
(0 0 0)
(0 0 0)
(0 0 0)
(0 0 0)
(0 0 0)
(0 0 0)
(0 0 0)
(0 0 0)
(0 0 0)
(0 0 0)
(0 0 0)
(0 0 0)
(0 0 0)
(0 0 0)
(0 0 0)
(0 0 0)
(0 0 0)
(0 0 0)
(0 0 0)
(0 0 0)
(0 0 0)
(0 0 0)
(-0.0003460031529 -0.0001663128934 2.220446049e-15)
(-0.0006278406714 -0.0002750447587 4.024558464e-15)
(-0.0009327943862 -0.0003689039136 5.967448757e-15)
(-0.005354138882 -0.002308884795 3.758104938e-14)
(-0.004574216932 -0.002187782878 3.211320099e-14)
(-0.007453690165 -0.003731007486 5.495603972e-14)
(-0.008432200861 -0.003803014364 6.21447338e-14)
(-0.01826830451 -0.009550361455 1.579986142e-13)
(-0.01693517929 -0.009842737419 1.465355615e-13)
(-0.01967180732 -0.01209362976 1.806055305e-13)
(-0.02102745584 -0.01162388788 1.929567617e-13)
(-0.02560638409 -0.01725420754 2.880473637e-13)
(-0.02448090153 -0.01834308227 2.753908213e-13)
(-0.024712314 -0.0200335933 3.008426841e-13)
(-0.02567377824 -0.01872565515 3.126249259e-13)
(-0.02183233743 -0.02138359917 3.552019789e-13)
(-0.02151106209 -0.02335238372 3.493316747e-13)
(-0.01944359326 -0.02385747313 3.560346462e-13)
(-0.01954439067 -0.02166766034 3.588657149e-13)
(-0.01196864768 -0.02188977562 0)
(-0.01203426998 -0.02426613555 0)
(-0.009504876001 -0.02433598383 0)
(-0.009439253696 -0.0219596239 0)
(-0.01070397828 -0.021924699 0)
(-0.001851016565 -0.02216917028 0)
(-0.001916638871 -0.02454553021 0)
(0.0006127716665 -0.02461537895 0)
(0.0006783939717 -0.02223901902 0)
(0.008205933987 -0.02224651822 3.558681128e-13)
(0.008037987623 -0.0242158212 3.503308754e-13)
(0.0102275638 -0.02353007673 3.396033454e-13)
(0.0105000985 -0.0217981361 3.477218513e-13)
(0.01513371057 -0.01835167588 2.911421104e-13)
(0.014480392 -0.01938869085 2.785549569e-13)
(0.01483018494 -0.01739076356 2.49772425e-13)
(0.01559611216 -0.01657160242 2.627759121e-13)
(0.01323165869 -0.01018852262 1.62064806e-13)
(0.01229439595 -0.01044570349 1.504768532e-13)
(0.01044246369 -0.008114202955 1.171285291e-13)
(0.01136279892 -0.007999831786 1.275507477e-13)
(0.00446845368 -0.002498268714 4.01761957e-14)
(0.003839563156 -0.002372546871 3.451405828e-14)
(0.001965177259 -0.001137547318 1.657007864e-14)
(0.002669182638 -0.00139788712 2.252364961e-14)