/*--------------------------------*- C++ -*----------------------------------*\
| =========                 |                                                 |
| \\      /  F ield         | OpenFOAM: The Open Source CFD Toolbox           |
|  \\    /   O peration     | Version:  v1912                                 |
|   \\  /    A nd           | Website:  www.openfoam.com                      |
|    \\/     M anipulation  |                                                 |
\*---------------------------------------------------------------------------*/
FoamFile
{
    version     2.0;
    format      ascii;
    class       volVectorField;
    location    "2.48";
    object      U;
}
// * * * * * * * * * * * * * * * * * * * * * * * * * * * * * * * * * * * * * //

dimensions      [0 1 -1 0 0 0 0];


internalField   nonuniform List<vector> 
12556
(
(99.99919049 0.002019939916 -4.129557712e-21)
(99.99877281 0.007136790199 -1.343869853e-25)
(99.9977523 0.01602171123 -4.126999181e-21)
(99.99588162 0.0314956629 -4.108792854e-21)
(99.99968562 0.02566601773 3.976777268e-21)
(99.99787148 0.04363419993 0)
(99.99667745 0.07221129464 0)
(99.99625483 0.1122570646 -7.123530762e-21)
(99.99507514 0.1662501639 8.386975438e-22)
(99.99414595 0.2338059547 -5.621811724e-21)
(99.99399732 0.3085745368 6.340408838e-22)
(99.99531865 0.376945401 0)
(99.99816478 0.4200501232 0)
(100.0016013 0.4250662342 5.103928136e-22)
(100.0041543 0.3920847686 -1.137396036e-21)
(100.0055097 0.3330656758 8.243088484e-22)
(100.0055874 0.2648676289 0)
(100.0051882 0.2001242254 1.45375312e-21)
(100.0049074 0.1436023861 5.990510606e-21)
(100.002631 0.1019486527 -1.705016974e-21)
(100.0108403 0.117591133 -1.487047032e-20)
(100.0075592 0.07305045574 0)
(100.0056527 0.03922178498 -1.876123156e-21)
(100.0054718 0.0124318832 -1.3220915e-20)
(99.99261173 0.005140312441 1.652570434e-20)
(99.98816339 0.01866946512 4.132353164e-21)
(99.97852834 0.04268815052 2.889918519e-20)
(99.96195882 0.08612461404 -1.237879997e-20)
(99.9634059 0.1212156395 4.004062827e-21)
(99.93705632 0.2087904239 -3.851548275e-23)
(99.90251536 0.3459336079 0)
(99.88329549 0.4732646205 -7.12083144e-21)
(99.84226384 0.7092819041 -6.668643972e-21)
(99.80637707 1.011655245 -1.183071833e-20)
(99.79182868 1.356914914 -5.010150455e-21)
(99.81979047 1.684502947 -6.854623788e-21)
(99.89619868 1.901020388 9.590712464e-23)
(99.99079717 1.942364987 -3.447709065e-22)
(100.0801479 1.805583377 -4.040358756e-22)
(100.1342177 1.540002087 4.245390705e-21)
(100.1475738 1.223409835 -8.62648386e-21)
(100.1319293 0.9260697745 0)
(100.1419115 0.7030726802 -2.558571765e-20)
(100.1022679 0.4836032517 4.948881052e-20)
(100.1016732 0.3357205756 1.439966795e-20)
(100.0721375 0.2078075979 2.979605239e-20)
(100.0548135 0.1118981396 -2.98842633e-20)
(100.0482663 0.0354942511 1.509768247e-20)
(99.98080952 0.005566318438 -1.648889526e-20)
(99.96831442 0.02182963103 -3.308653888e-20)
(99.94161545 0.05408786341 -7.434987108e-20)
(99.89747739 0.1131573243 9.897367392e-20)
(99.87067362 0.1868229004 -8.183330333e-21)
(99.79405853 0.3354802625 -8.006903997e-21)
(99.68764723 0.5688141018 -1.391758171e-20)
(99.62377526 0.8298737496 0)
(99.49197838 1.275016309 2.755745686e-20)
(99.37392577 1.863227279 0)
(99.33438539 2.563934359 0)
(99.44685299 3.266422027 0)
(99.73135071 3.741913237 -2.661892129e-19)
(100.1088866 3.835915344 -3.554783701e-20)
(100.4174116 3.520276847 -1.530293845e-19)
(100.580561 2.950189896 3.415105193e-21)
(100.6046853 2.306167913 -9.34362847e-21)
(100.5323333 1.701388928 -2.252398077e-20)
(100.4707633 1.20281868 -1.535655149e-19)
(100.3480483 0.8152369812 -3.434254272e-20)
(100.281874 0.5090984977 -1.481971754e-20)
(100.2025394 0.3133109819 3.370720875e-20)
(100.1545601 0.1687025018 -3.794111163e-21)
(100.1336065 0.05322285671 0)
(99.9698001 0.001542013353 -8.298057897e-21)
(99.94587753 0.01094881332 5.812811961e-20)
(99.8951224 0.04083847199 -1.662781602e-20)
(99.81189116 0.101100728 0)
(99.74375791 0.2028466994 0)
(99.59047091 0.3921019645 -6.450716123e-20)
(99.37590885 0.6987439809 -1.292465866e-19)
(99.19687703 1.081306599 3.0603986e-20)
(98.8948561 1.723771643 5.819264044e-20)
(98.61363704 2.635845904 -2.101497332e-19)
(98.48473075 3.833809681 -7.963070081e-19)
(98.72534477 5.12171396 -1.275881703e-18)
(99.46647367 6.024083015 6.36798976e-20)
(100.4310928 6.095879347 -3.119323324e-19)
(101.126705 5.414823942 7.252131763e-19)
(101.4016093 4.379866777 6.95267451e-19)
(101.3738529 3.302064325 8.658039313e-20)
(101.1921596 2.372921745 0)
(100.9804775 1.593481441 5.632084537e-20)
(100.7197256 1.054552381 -4.374994028e-20)
(100.5342593 0.613605813 -3.802784767e-20)
(100.3855301 0.3726039117 1.928866736e-20)
(100.29316 0.1986099599 -3.874977852e-21)
(100.2509199 0.06215014432 0)
(99.97011574 -0.008051637904 0)
(99.93285271 -0.01758034854 0)
(99.8546468 -0.004501887954 8.356729918e-21)
(99.7248568 0.04216016246 1.266104523e-20)
(99.603599 0.1554165563 2.097362856e-20)
(99.35196822 0.3532973905 0)
(98.99840298 0.6810577336 0)
(98.64847954 1.153042 -6.417522333e-20)
(98.09562091 1.965468242 0)
(97.4921065 3.249849711 -9.601618472e-19)
(97.06656378 5.148567661 -8.509011491e-19)
(97.43614441 7.448464172 -3.000100337e-19)
(99.10638856 9.15240621 0)
(101.2973968 9.027120521 2.815908771e-19)
(102.5775091 7.516828137 0)
(102.8524601 5.693542591 0)
(102.5714085 4.105284581 0)
(102.1018331 2.825028565 -5.759547954e-22)
(101.6449162 1.804534635 -9.420377556e-20)
(101.1900314 1.161245779 7.855028041e-21)
(100.8278614 0.620832908 0)
(100.5928185 0.3717176653 3.96398976e-21)
(100.446093 0.1938444483 -2.976548334e-21)
(100.3777962 0.05986474832 -9.876600058e-22)
(99.99380504 -0.02361732929 0)
(99.94286726 -0.06478176688 0)
(99.83735201 -0.08420885534 -1.676417417e-20)
(99.65989644 -0.07059925425 3.406203729e-20)
(99.47229763 0.03370934762 0)
(99.11781556 0.2018567515 0)
(98.60398569 0.5018255522 2.670578285e-20)
(98.04747579 0.9959374068 1.407562645e-19)
(97.15899905 1.868756638 -1.092234511e-18)
(95.96454728 3.424546708 8.040594379e-19)
(94.74319324 6.104488735 2.719602308e-19)
(94.66507006 10.25546411 2.890571393e-19)
(98.24820474 14.12961161 -1.554347731e-19)
(103.4038397 13.17391948 -5.142397929e-19)
(105.363317 9.610888394 -4.239734829e-20)
(105.1498357 6.609076032 -5.66275592e-19)
(104.2326852 4.479093313 5.842546271e-19)
(103.2514653 2.952606458 -6.523407682e-20)
(102.3990855 1.758988107 2.430114008e-20)
(101.7041712 1.093926959 -1.632777295e-20)
(101.1267496 0.5163318073 0)
(100.7922774 0.300423124 0)
(100.5860595 0.1490725983 -1.004785085e-21)
(100.4895401 0.04493924642 -3.020530358e-21)
(100.0525638 -0.04480623331 4.085531243e-21)
(99.98922067 -0.1294368807 -4.115039838e-21)
(99.8595618 -0.196310341 8.393924783e-21)
(99.63954127 -0.2347846594 -3.07521117e-20)
(99.38505307 -0.1636752294 8.310482202e-23)
(98.93389478 -0.06429878909 2.623697873e-20)
(98.27176609 0.1504484635 -5.429403488e-20)
(97.51437689 0.5710604468 -7.189233197e-20)
(96.22787228 1.338421343 -1.144127241e-18)
(94.25146417 2.796291757 -1.648793235e-19)
(91.42102744 5.530797356 0)
(87.97895093 11.80765074 -2.208791667e-19)
(94.34372705 23.63806572 -5.892533594e-19)
(109.336464 19.0934506 -1.029296586e-18)
(110.1878558 10.91351731 -4.982348592e-19)
(108.2818533 6.542913292 -9.144182029e-20)
(106.2336102 4.101678077 -7.463496752e-19)
(104.5130284 2.578842545 -7.862338405e-19)
(103.1398057 1.392138913 0)
(102.1921007 0.8105661215 9.011505317e-21)
(101.3809038 0.2989087043 2.653004236e-21)
(100.9472065 0.1526925152 -3.135714807e-21)
(100.6849793 0.06353405255 -3.5703222e-21)
(100.5611883 0.01737142417 8.581181713e-21)
(100.1565272 -0.07054862474 -4.085960482e-21)
(100.0835142 -0.2081860115 4.116517238e-21)
(99.93571955 -0.3342411816 -5.220271644e-21)
(99.68393358 -0.4399942138 -3.505986097e-21)
(99.37031081 -0.4241944632 1.493716383e-20)
(98.84482357 -0.4259462572 8.880241737e-21)
(98.07322047 -0.3530961823 7.012156437e-20)
(97.1674607 -0.1000655486 1.041958944e-18)
(95.56409957 0.3559974469 0)
(92.99612203 1.180626521 0)
(88.83549364 2.381301687 -1.847102314e-18)
(81.06364409 4.320529444 -3.571977118e-18)
(124.1667681 21.83729894 -1.678298958e-18)
(116.7862334 8.960838212 1.263148643e-18)
(111.6582595 4.718130084 1.037542493e-18)
(108.1493558 2.741315767 -1.724469614e-18)
(105.6514635 1.604252908 -6.181464632e-19)
(103.7293336 0.6903553196 -4.821217807e-21)
(102.5563678 0.3233185795 2.039776661e-20)
(101.5340204 -0.02532718346 -3.247327009e-21)
(101.0207229 -0.06109720926 2.654686921e-21)
(100.7149768 -0.05714735726 -5.143905647e-22)
(100.568501 -0.02143991172 -8.084184734e-21)
(100.3132202 -0.09917385738 -1.966161013e-21)
(100.2343774 -0.2958154817 -1.476970891e-21)
(100.0765587 -0.4881921527 -5.062210197e-22)
(99.80733447 -0.6702128381 1.530203471e-21)
(99.44971732 -0.7256462901 -2.890427926e-23)
(98.88270322 -0.8479378709 0)
(98.06270106 -0.9493324734 3.972918625e-20)
(97.0807731 -0.9127163284 -3.710029093e-20)
(95.3546282 -0.8617974238 3.160221493e-19)
(92.72643549 -0.8154455511 0)
(88.97475604 -1.236906534 9.687304686e-19)
(84.42213376 -3.163570767 1.048389347e-18)
(136.6149483 6.279065963 -4.817486168e-18)
(121.3047845 2.415188891 0)
(113.8846614 1.044383457 2.29406365e-18)
(109.3703062 0.455477728 -2.301655837e-18)
(106.3467748 0.1327437792 -7.058412447e-19)
(104.0256388 -0.2624871411 -4.954300697e-21)
(102.7076914 -0.3195649034 1.152513902e-20)
(101.543925 -0.4225707426 1.121016929e-21)
(100.9836783 -0.320694492 0)
(100.6527297 -0.2020308168 4.085818135e-21)
(100.4918009 -0.06821886091 4.035300997e-21)
(100.5265362 -0.128643951 3.873329566e-21)
(100.4461991 -0.3860138849 5.987565817e-23)
(100.2873242 -0.6464394437 0)
(100.016535 -0.9074255681 1.983862703e-22)
(99.63310098 -1.042307314 -2.045989224e-21)
(99.06059624 -1.288861322 2.174063246e-21)
(98.25557742 -1.566282285 -1.458285671e-19)
(97.27200807 -1.743508219 0)
(95.60516059 -2.053398752 -1.584576385e-18)
(93.22480007 -2.54307154 7.441878619e-19)
(90.25177131 -3.54426041 0)
(87.41068671 -5.193490991 0)
(133.7361189 -9.637195267 -4.486690864e-18)
(120.9646734 -5.223760462 1.434662828e-18)
(113.9167264 -3.298328502 0)
(109.412643 -2.197716367 -1.845088176e-18)
(106.3714154 -1.560391492 8.464318846e-19)
(103.934125 -1.326162725 4.205763884e-20)
(102.5953118 -1.035625005 0)
(101.3856196 -0.8478043279 -1.099923063e-21)
(100.8193788 -0.5985264672 -4.538758107e-21)
(100.4846604 -0.3567620156 5.061745988e-22)
(100.3195548 -0.1183437174 0)
(100.7963151 -0.1569686013 -1.907001932e-21)
(100.7186107 -0.4725031785 1.922975026e-21)
(100.5668863 -0.7973110866 1.874268741e-21)
(100.3108976 -1.134240343 -1.751266994e-21)
(99.9179014 -1.348597569 -2.015663602e-21)
(99.37312012 -1.708624743 0)
(98.63132604 -2.142486308 -1.399513373e-19)
(97.70034103 -2.505425053 1.081962637e-18)
(96.17771241 -3.084306045 -1.219324244e-18)
(94.09620785 -3.884173634 -1.064932878e-20)
(91.6146819 -5.051897265 0)
(89.30030977 -6.378959403 -1.915947612e-19)
(124.9327928 -18.27856319 -6.79865332e-20)
(117.1509977 -10.784203 0)
(112.0328684 -6.882502422 7.424467593e-19)
(108.3883212 -4.566577771 2.144321408e-18)
(105.7259972 -3.152827681 0)
(103.4504416 -2.33049021 0)
(102.2204878 -1.724024465 -2.744924123e-20)
(101.0574362 -1.253435799 -1.374649824e-20)
(100.5263795 -0.8644585702 1.032431131e-21)
(100.2088959 -0.5058201466 -3.272754313e-21)
(100.0498427 -0.166853218 4.792777256e-22)
(101.1184593 -0.1823607635 6.996174193e-21)
(101.0471157 -0.5495901977 0)
(100.9089359 -0.9289805599 -1.870602804e-21)
(100.6790954 -1.340142824 0)
(100.2885457 -1.62303298 0)
(99.8023851 -2.075047871 -5.986008254e-21)
(99.1554441 -2.634523122 1.268654499e-19)
(98.31328605 -3.144399177 -1.056157038e-18)
(96.97383305 -3.912520276 -2.922355645e-19)
(95.1671833 -4.912402401 -1.949618423e-20)
(92.96900641 -6.215113627 1.341232945e-20)
(90.76181477 -7.528624574 0)
(115.7067804 -21.26636547 -1.025469638e-18)
(112.0704207 -13.52374958 -9.173455665e-19)
(109.0984239 -9.070005454 0)
(106.5991079 -6.225113431 1.798228767e-18)
(104.5608662 -4.376852715 6.459654463e-19)
(102.6522907 -3.140295706 2.193397596e-21)
(101.6248958 -2.302871185 -3.336224597e-20)
(100.583026 -1.602680749 8.133447608e-21)
(100.1188627 -1.092050282 0)
(99.83481751 -0.6357093657 3.770433321e-21)
(99.69021768 -0.2093942165 0)
(101.4859269 -0.2041983031 6.987222902e-21)
(101.4232432 -0.6163826593 1.102574589e-19)
(101.3017479 -1.041533396 -2.220591255e-19)
(101.1012343 -1.51016324 -4.393254168e-22)
(100.7495602 -1.845275838 -1.755594617e-21)
(100.3263696 -2.366868041 0)
(99.79165113 -3.01596048 -2.438991969e-19)
(99.05657467 -3.628796122 0)
(97.92442013 -4.520398365 1.048274498e-18)
(96.40017092 -5.665485683 -4.883553973e-19)
(94.49148943 -7.18327018 0)
(92.435511 -8.758995481 -5.015896196e-19)
(103.2874421 -29.95943861 0)
(107.360326 -19.57826808 1.452098024e-18)
(107.2292981 -13.82628015 3.484690215e-20)
(105.9878199 -9.841449252 1.235905379e-18)
(104.5330924 -7.061503132 1.148477521e-18)
(103.1338152 -5.123569919 0)
(101.6670781 -3.681298086 -6.661604083e-20)
(100.8768885 -2.71935573 0)
(100.0066474 -1.869125563 0)
(99.62233719 -1.264740868 1.1796765e-20)
(99.38052296 -0.7375714422 2.17518065e-21)
(99.25590006 -0.2429595685 -7.045149695e-21)
(101.889102 -0.2204073719 0)
(101.8365941 -0.6665817362 0)
(101.7352418 -1.125195367 0)
(101.5668115 -1.628603889 0)
(101.2531884 -2.016142552 0)
(100.8973284 -2.591407221 0)
(100.4694282 -3.299899584 2.264567699e-19)
(99.8635229 -3.964593085 8.800910025e-19)
(98.94483898 -4.917312578 4.528132289e-19)
(97.73139756 -6.13921043 -3.023255709e-21)
(96.2559265 -7.833581238 -1.207507591e-19)
(94.74267504 -10.18144859 -4.675388668e-19)
(96.76550505 -19.42674886 1.603314073e-19)
(102.3999881 -16.04644336 -2.596120667e-19)
(103.5369271 -12.53614953 0)
(103.2954336 -9.550069254 3.5104723e-20)
(102.5654681 -7.207226358 3.399515145e-22)
(101.6588513 -5.416206036 -2.932535119e-20)
(100.61865 -3.958964275 -9.213576867e-20)
(100.0519739 -2.966726381 -3.466540115e-20)
(99.37123091 -2.032842951 -1.919501059e-20)
(99.06563058 -1.380383299 1.889706554e-20)
(98.86900223 -0.80773744 0)
(98.76669962 -0.266054179 1.887155859e-20)
(102.3180431 -0.2308913275 0)
(102.2766514 -0.6992712995 0)
(102.1978951 -1.179394075 0)
(102.0638279 -1.698166626 0)
(101.7895066 -2.116593387 0)
(101.5126573 -2.716640908 0)
(101.1899311 -3.430110492 6.248157635e-21)
(100.7264335 -4.118702245 0)
(100.0287559 -5.055283049 0)
(99.13039645 -6.222508575 0)
(98.19066174 -7.769836818 3.869911557e-19)
(97.51518207 -10.00138355 -3.920316097e-19)
(98.38146348 -12.72031671 0)
(100.4377788 -12.36470399 1.484648142e-19)
(101.2295057 -10.64847384 -1.037357858e-19)
(101.2580404 -8.677737983 -1.839747179e-20)
(100.8821602 -6.880509122 -3.763777077e-19)
(100.3097317 -5.380295864 -2.446011931e-20)
(99.59278177 -4.019820536 0)
(99.22420819 -3.068939724 0)
(98.71026555 -2.104073499 -3.561563003e-20)
(98.47666593 -1.440406329 1.757422766e-20)
(98.32410061 -0.8456798894 7.361193326e-22)
(98.24363433 -0.2785718639 -1.299106325e-20)
(102.7620419 -0.235844266 0)
(102.7312774 -0.7145382856 0)
(102.6741493 -1.20427143 0)
(102.5729223 -1.724050601 0)
(102.3365155 -2.157658443 0)
(102.1305715 -2.756971114 0)
(101.8980812 -3.44471026 7.070248374e-22)
(101.5502118 -4.130017501 8.401686246e-20)
(101.0383487 -4.991830155 -1.655569456e-19)
(100.3765169 -6.005678978 -7.831439382e-20)
(99.74364371 -7.204091648 -4.616717034e-19)
(96.71618572 -8.173266355 -2.131124921e-19)
(99.32664733 -9.803901357 9.008414466e-21)
(99.79687042 -9.764948924 4.325414551e-20)
(99.9301766 -8.892848863 9.378079537e-20)
(99.81951416 -7.636129358 0)
(99.54016245 -6.315086027 0)
(99.15128429 -5.11406664 0)
(98.65756681 -3.91667976 -2.986695777e-20)
(98.43859833 -3.05171959 4.556207364e-20)
(98.05374569 -2.10060198 1.105835806e-20)
(97.88180135 -1.451780326 1.886630159e-20)
(97.76765547 -0.8547500621 -2.142701328e-20)
(97.70629088 -0.2815863881 0)
(103.2108854 -0.2359142459 0)
(103.1894014 -0.7143736686 0)
(103.1506584 -1.203030847 0)
(103.0776759 -1.712144604 0)
(102.8759702 -2.147613307 0)
(102.7286282 -2.726454979 0)
(102.5655359 -3.367623949 0)
(102.2969524 -4.017135578 7.350500285e-20)
(101.906628 -4.782770435 2.812640508e-19)
(101.367847 -5.608884445 -1.220264801e-19)
(100.8404645 -6.482121315 1.06997805e-19)
(94.87950086 -6.498332013 1.66693191e-19)
(99.86568881 -7.970578259 -8.696452579e-21)
(99.5156377 -7.971270688 0)
(99.14901822 -7.456449856 5.795764069e-20)
(98.82138953 -6.626924803 -6.682506316e-21)
(98.50176045 -5.673662255 -1.779592638e-21)
(98.19460323 -4.730342257 0)
(97.84213251 -3.715119275 0)
(97.71289453 -2.944181988 0)
(97.42517706 -2.040069923 3.814440946e-20)
(97.30174423 -1.423642783 -3.567941515e-20)
(97.21774932 -0.8398333817 -2.413511072e-21)
(97.17150582 -0.277070039 2.421567516e-21)
(103.6555647 -0.231929283 0)
(103.6417156 -0.7014685324 0)
(103.6174718 -1.180198596 0)
(103.5668983 -1.669377681 0)
(103.3947391 -2.095414743 0)
(103.2912162 -2.641050675 0)
(103.1747056 -3.22585435 0)
(102.9496105 -3.81387212 0)
(102.6112424 -4.471705304 0)
(102.0964922 -5.134300575 4.891012346e-20)
(101.6111184 -5.789438665 0)
(94.12653848 -5.510873594 -2.195487395e-19)
(100.0809186 -6.694270495 0)
(99.28697863 -6.664462988 0)
(98.60844321 -6.316306986 0)
(98.1015751 -5.739616719 -3.662288689e-20)
(97.71228865 -5.038894949 0)
(97.42122165 -4.301927416 0)
(97.1380437 -3.449647619 0)
(97.05748431 -2.773880503 0)
(96.83767203 -1.937215139 0)
(96.74928797 -1.363916981 0)
(96.68785431 -0.8073263991 0)
(96.65280216 -0.267422648 0)
(104.0888942 -0.2247362523 0)
(104.080956 -0.6785730856 0)
(104.0673031 -1.140550391 0)
(104.0330611 -1.603580994 0)
(103.8838949 -2.011862022 0)
(103.8096331 -2.517513428 0)
(103.7184481 -3.043201011 0)
(103.5117637 -3.564305782 0)
(103.1783101 -4.113830524 0)
(102.6425891 -4.643633774 0)
(102.0149569 -5.127612999 -6.29063273e-20)
(95.30040781 -5.012598688 0)
(100.130981 -5.720143251 -2.278916865e-21)
(99.08862269 -5.663467545 6.937152067e-22)
(98.21935342 -5.405469003 0)
(97.5728834 -4.983277227 0)
(97.10808195 -4.452326576 0)
(96.79722625 -3.868089268 0)
(96.53871873 -3.155072043 0)
(96.47731745 -2.570375509 0)
(96.29861283 -1.809329687 0)
(96.23276613 -1.28398073 0)
(96.18609653 -0.7620385683 0)
(96.15962144 -0.2530411136 0)
(104.5054922 -0.215181452 0)
(104.5017414 -0.6484064061 0)
(104.4949208 -1.088786824 0)
(104.4712394 -1.522286162 0)
(104.3386268 -1.907474128 0)
(104.2807676 -2.370436017 0)
(104.1983334 -2.840951113 0)
(103.9911759 -3.295598829 0)
(103.6388453 -3.753555432 0)
(103.0722031 -4.177171968 0)
(102.1979616 -4.522090668 0)
(96.49169809 -4.506880862 0)
(100.1599733 -4.936072895 0)
(98.94789564 -4.872396639 0)
(97.93278979 -4.667093578 0)
(97.17264692 -4.342284816 0)
(96.63542265 -3.927614016 0)
(96.288601 -3.456226561 0)
(96.03008449 -2.857282521 0)
(95.96814821 -2.353870558 0)
(95.81038101 -1.669445096 0)
(95.75687935 -1.192760781 0)
(95.71852904 -0.7095129866 0)
(95.69737438 -0.2360741948 0)
(104.9016385 -0.2040665541 0)
(104.9004727 -0.6135240883 0)
(104.8970859 -1.029217481 0)
(104.8788464 -1.431996232 0)
(104.7572074 -1.791175518 0)
(104.7052411 -2.211915238 0)
(104.6182164 -2.63256578 0)
(104.3994024 -3.026052722 0)
(104.0155087 -3.409300887 0)
(103.4114016 -3.752513023 0)
(102.2473959 -3.997786855 0)
(97.46454578 -4.041705891 0)
(100.1618982 -4.29825402 -4.75186106e-35)
(98.82688454 -4.230332711 0)
(97.7060877 -4.059102949 0)
(96.85827139 -3.798937985 0)
(96.25721847 -3.465965585 0)
(95.86991468 -3.080062721 0)
(95.59654488 -2.57270108 0)
(95.52252497 -2.138333687 0)
(95.37171032 -1.526750799 0)
(95.32272439 -1.09708492 0)
(95.28768768 -0.6538573532 0)
(95.26942724 -0.2179947946 0)
(105.2750652 -0.1920881561 0)
(105.2751075 -0.5761483506 0)
(105.2723172 -0.9655831881 0)
(105.2552175 -1.337833417 0)
(105.1402279 -1.670023118 0)
(105.0860176 -2.050946989 0)
(104.9850628 -2.426601994 0)
(104.7477842 -2.766763477 0)
(104.3269637 -3.089951157 0)
(103.6830169 -3.372374547 0)
(102.2099273 -3.543620472 0)
(98.26636761 -3.626704084 0)
(100.140598 -3.771838796 0)
(98.71744267 -3.700408926 0)
(97.51911422 -3.552364403 0)
(96.60341651 -3.337046402 0)
(95.94806164 -3.063032667 0)
(95.5214777 -2.741976758 0)
(95.22475948 -2.308968792 0)
(95.13241619 -1.932301246 0)
(94.97926521 -1.38758902 0)
(94.92922247 -1.001905357 0)
(94.89390347 -0.5980810294 0)
(94.87667908 -0.1998045556 0)
(105.6247616 -0.1798091034 0)
(105.6248922 -0.5380587112 0)
(105.6205047 -0.9009018105 0)
(105.6011629 -1.243749058 0)
(105.48932 -1.549284694 0)
(105.4270679 -1.893711698 0)
(105.3058963 -2.228473041 0)
(105.0465524 -2.524141114 0)
(104.5878394 -2.799158383 0)
(103.9031853 -3.03508127 0)
(102.1164892 -3.150486077 0)
(98.89741595 -3.257231773 0)
(100.104382 -3.330909268 -6.412024827e-35)
(98.61635206 -3.257325368 0)
(97.3599433 -3.126054107 0)
(96.39128081 -2.943118148 0)
(95.690346 -2.712786685 0)
(95.22742371 -2.441481831 0)
(94.90423271 -2.069003503 0)
(94.79015471 -1.740638413 0)
(94.62881103 -1.256065177 0)
(94.57401956 -0.9105532954 0)
(94.53600604 -0.5442461419 0)
(94.5184753 -0.1821841587 0)
(105.9507288 -0.1676643989 0)
(105.9500667 -0.5005981117 0)
(105.9424765 -0.8374395739 0)
(105.9184015 -1.152641249 0)
(105.806981 -1.432694577 0)
(105.7327493 -1.744168214 0)
(105.588081 -2.042140316 0)
(105.3042568 -2.301190676 0)
(104.8093406 -2.537629945 0)
(104.0829775 -2.737288019 0)
(101.9889927 -2.810311703 0)
(99.37541267 -2.929069715 0)
(100.0585017 -2.957897984 0)
(98.52185562 -2.883347945 0)
(97.22115967 -2.76488363 0)
(96.21077456 -2.606203817 0)
(95.47175016 -2.409075207 0)
(94.97605608 -2.176581028 0)
(94.62593705 -1.853650121 0)
(94.48886776 -1.565772136 0)
(94.31590526 -1.13458435 0)
(94.254087 -0.825117764 0)
(94.21185806 -0.4936821744 0)
(94.19309302 -0.1655768385 0)
(106.2536932 -0.1559796494 0)
(106.2515645 -0.4647434634 0)
(106.2396439 -0.7768195339 0)
(106.2090938 -1.066538591 0)
(106.0960187 -1.322766865 0)
(106.0072279 -1.604741256 0)
(105.837548 -1.870688113 0)
(105.5283215 -2.09903568 0)
(105.000028 -2.304623364 0)
(104.2305044 -2.475463912 0)
(101.8428922 -2.516071806 0)
(99.7266921 -2.639175694 0)
(100.0064595 -2.640272618 2.229942187e-35)
(98.43291487 -2.565736606 0)
(97.09796815 -2.457484 0)
(96.05439757 -2.31756673 0)
(95.28354802 -2.146270268 0)
(94.75870105 -1.944553483 0)
(94.38253122 -1.662431908 0)
(94.22255809 -1.40855014 0)
(94.03620635 -1.024344503 0)
(93.96609596 -0.7467947054 0)
(93.91877996 -0.4471819879 0)
(93.89817036 -0.1502525362 0)
(106.5348781 -0.1449893695 0)
(106.5307847 -0.4311797426 0)
(106.5137792 -0.7201555082 0)
(106.4755965 -0.9867745223 0)
(106.3593385 -1.221083537 0)
(106.2544221 -1.476936598 0)
(106.0591889 -1.715318379 0)
(105.7249028 -1.917796266 0)
(105.1663734 -2.098623625 0)
(104.351913 -2.246134198 0)
(101.6894284 -2.261946443 0)
(99.97927007 -2.384816438 0)
(99.950637 -2.368804412 0)
(98.34883454 -2.295026122 0)
(96.98709968 -2.195183107 0)
(95.91689128 -2.070168062 0)
(95.11938172 -1.919375329 0)
(94.56877721 -1.742415406 0)
(94.16806884 -1.494132808 0)
(93.98604688 -1.26884523 0)
(93.78561898 -0.9257370264 0)
(93.70665005 -0.6761498112 0)
(93.65383674 -0.4051503053 0)
(93.6310101 -0.1363551359 0)
(106.7958571 -0.1348526533 0)
(106.789445 -0.400359244 0)
(106.7668865 -0.6681683497 0)
(106.7203533 -0.9141570337 0)
(106.5997674 -1.128577722 0)
(106.4778839 -1.361496911 0)
(106.2572743 -1.576290828 0)
(105.8990182 -1.756949729 0)
(105.3131608 -1.917776564 0)
(104.4519348 -2.04615412 0)
(101.5366707 -2.043340291 0)
(100.1580981 -2.163260641 0)
(99.89262308 -2.136636829 0)
(98.26909211 -2.064094231 0)
(96.88623185 -1.971315183 0)
(95.79446654 -1.858368995 0)
(94.97453121 -1.724104996 0)
(94.40122474 -1.567279956 0)
(93.97774448 -1.347220201 0)
(93.77492059 -1.145999523 0)
(93.56035445 -0.838648949 0)
(93.47241899 -0.6133210262 0)
(93.41400795 -0.367719709 0)
(93.3887615 -0.1239389778 0)
(107.0384484 -0.1256689734 0)
(107.0294756 -0.3725536715 0)
(107.0011069 -0.6212798132 0)
(106.9458226 -0.8491073767 0)
(106.8200584 -1.045683655 0)
(106.6808569 -1.258626464 0)
(106.4355022 -1.453311365 0)
(106.0547796 -1.615591945 0)
(105.4440082 -1.760140451 0)
(104.5343556 -1.872673598 0)
(101.3898865 -1.856477918 0)
(100.2835211 -1.971599146 0)
(99.83346594 -1.938427732 0)
(98.19322561 -1.867395936 0)
(96.79360862 -1.780618061 0)
(95.68426759 -1.677577751 0)
(94.84536603 -1.55678576 0)
(94.25203624 -1.416462232 0)
(93.80757014 -1.22002987 0)
(93.58534397 -1.039051388 0)
(93.35693958 -0.762662445 0)
(93.26021096 -0.5581713852 0)
(93.1962932 -0.3348447203 0)
(93.16853782 -0.1129989933 0)
(107.2645704 -0.1174954077 0)
(107.2528794 -0.3479070475 0)
(107.2185918 -0.5797029647 0)
(107.1543771 -0.7917989814 0)
(107.0227941 -0.9725282853 0)
(106.8662496 -1.168226194 0)
(106.5969741 -1.345746249 0)
(106.1955531 -1.492714614 0)
(105.5617102 -1.623957309 0)
(104.6022991 -1.723333978 0)
(101.2523542 -1.69771843 0)
(100.3710508 -1.807313535 0)
(99.77387582 -1.769972446 0)
(98.12082493 -1.700568497 0)
(96.70786575 -1.618918181 0)
(95.58409199 -1.524076064 0)
(94.72904383 -1.41433527 0)
(94.11799775 -1.287580276 0)
(93.65423008 -1.110948132 0)
(93.41400598 -0.9469406175 0)
(93.17223965 -0.6972202347 0)
(93.06704692 -0.5104117826 0)
(92.99782049 -0.306378323 0)
(92.96754024 -0.1034957426 0)
(107.476281 -0.1103572727 0)
(107.461766 -0.326471362 0)
(107.4215425 -0.5435038506 0)
(107.3483675 -0.7422188951 0)
(107.2104008 -0.9090414301 0)
(107.036716 -1.090020262 0)
(106.7444096 -1.252579533 0)
(106.3240817 -1.387366312 0)
(105.6685563 -1.507689809 0)
(104.6583899 -1.596195233 0)
(101.1263812 -1.563976161 0)
(100.4316351 -1.668082051 0)
(99.71429879 -1.627896234 0)
(98.05150074 -1.560121763 0)
(96.62789108 -1.482855767 0)
(95.49217154 -1.394821031 0)
(94.62325763 -1.294163659 0)
(93.9964285 -1.178537497 0)
(93.51491954 -1.018485844 0)
(93.25800659 -0.8686162624 0)
(93.00335722 -0.6416984324 0)
(92.89010374 -0.4696766412 0)
(92.81581172 -0.2821182698 0)
(92.78302798 -0.09536970163 0)
(107.6753633 -0.1042679334 0)
(107.6579741 -0.3082553762 0)
(107.6118602 -0.5126578039 0)
(107.5297968 -0.7003342627 0)
(107.3851208 -0.8550191942 0)
(107.194667 -1.02353734 0)
(106.8805488 -1.17329917 0)
(106.4425986 -1.298465488 0)
(105.7664815 -1.409904951 0)
(104.7047933 -1.489470065 0)
(101.0136496 -1.45276164 0)
(100.4726581 -1.551709701 0)
(99.65502247 -1.50947309 -3.763764306e-36)
(97.98488773 -1.443272156 0)
(96.5527521 -1.369738262 0)
(95.40705291 -1.287340544 0)
(94.52611077 -1.194137256 0)
(93.8850509 -1.087737126 0)
(93.38719731 -0.9414246633 0)
(93.11477378 -0.8030827867 0)
(92.84782853 -0.5955341249 0)
(92.72693157 -0.4355789929 0)
(92.6478316 -0.2618533059 0)
(92.61259977 -0.08855959934 0)
(107.8646407 -0.09920831815 0)
(107.8442797 -0.2932042651 0)
(107.7922837 -0.4870754327 0)
(107.7014053 -0.6658234641 0)
(107.5490882 -0.8102230149 0)
(107.3422616 -0.9682775943 0)
(107.0079126 -1.107979012 0)
(106.5530134 -1.224904605 0)
(105.857114 -1.329255152 0)
(104.7432678 -1.401467625 0)
(100.9150863 -1.362001788 0)
(100.4992548 -1.45622277 0)
(99.59626809 -1.412522132 0)
(97.92064682 -1.347808538 0)
(96.48164411 -1.277414485 0)
(95.32751024 -1.199631566 0)
(94.43603869 -1.112479059 0)
(93.78222531 -1.013794812 0)
(93.26875013 -0.8787518954 0)
(92.98200463 -0.7494927792 0)
(92.70275461 -0.5580404641 0)
(92.57461248 -0.4077450432 0)
(92.49090769 -0.2453517475 0)
(92.45323386 -0.08298815881 0)
(108.0429617 -0.0952346782 0)
(108.0197462 -0.2813982881 0)
(107.9619957 -0.4667308779 0)
(107.862523 -0.6392308215 0)
(107.7042563 -0.7742826714 0)
(107.481462 -0.923858978 0)
(107.1280116 -1.056538947 0)
(106.6572372 -1.165804319 0)
(105.9418755 -1.264653848 0)
(104.7753134 -1.330932112 0)
(100.8311661 -1.290056993 0)
(100.5150841 -1.380102453 0)
(99.53818524 -1.335329151 0)
(97.85843895 -1.271967212 0)
(96.41383519 -1.204157427 0)
(95.25245025 -1.130067629 0)
(94.35161929 -1.047680599 0)
(93.68624026 -0.9547989595 0)
(93.1577537 -0.82910954 0)
(92.8575049 -0.7067977106 0)
(92.56792012 -0.529260099 0)
(92.43294923 -0.3858514916 0)
(92.34488809 -0.2325061717 0)
(92.30493716 -0.07864604884 0)
(108.2239263 -0.0921490756 0)
(108.197294 -0.272496174 0)
(108.1334236 -0.4513785573 0)
(108.0241024 -0.6174545455 0)
(107.8533999 -0.7472122036 0)
(107.6140045 -0.8904078477 0)
(107.2422507 -1.017822172 0)
(106.7567199 -1.120649719 0)
(106.0220452 -1.21531344 0)
(104.8022572 -1.27697906 0)
(100.76253 -1.235803198 0)
(100.5226309 -1.322203823 0)
(99.48082629 -1.276589866 0)
(97.7979243 -1.214386377 0)
(96.34866072 -1.14863093 0)
(95.18089266 -1.077395112 0)
(94.27153753 -0.9986249476 0)
(93.59517386 -0.9100032478 0)
(93.05274047 -0.7916340978 0)
(92.73953531 -0.6752481678 0)
(92.43435054 -0.5064888281 0)
(92.29193983 -0.3695154535 0)
(92.1993904 -0.2229146918 0)
(92.15675401 -0.07532827275 0)
(108.3644024 -0.09059929279 0)
(108.3356992 -0.2675914233 0)
(108.267179 -0.4423926617 0)
(108.1521567 -0.6083410854 0)
(107.9947455 -0.7282287535 0)
(107.7411949 -0.8671616287 0)
(107.3520425 -0.9912498831 0)
(106.8527074 -1.088766803 0)
(106.0987952 -1.180427165 0)
(104.8252583 -1.238677889 0)
(100.7095364 -1.198338147 0)
(100.5237479 -1.28153362 0)
(99.42415908 -1.235306279 0)
(97.73875139 -1.174045386 0)
(96.28549603 -1.109837471 0)
(95.1119431 -1.040680369 0)
(94.1946503 -0.9644914843 0)
(93.50784872 -0.8788423509 0)
(92.95218811 -0.7658910825 0)
(92.62678758 -0.6538153691 0)
(92.3281807 -0.4955319347 0)
(92.18136768 -0.359584896 0)
(92.08545038 -0.217381079 0)
(92.04128613 -0.07355161572 0)
(108.6352904 -0.08865968996 0)
(108.6017965 -0.2630737708 0)
(108.523942 -0.4346914334 0)
(108.3907169 -0.5931943036 0)
(108.126973 -0.7186786986 0)
(107.8583835 -0.8546212877 0)
(107.4539617 -0.9767796078 0)
(106.9461292 -1.069619035 0)
(106.1730427 -1.159056361 0)
(104.8455672 -1.215168659 0)
(100.6716066 -1.176940315 0)
(100.5199676 -1.257537028 0)
(99.36822007 -1.210786232 0)
(97.6806432 -1.150253609 0)
(96.22380056 -1.087092433 0)
(95.04481675 -1.019272497 0)