/*--------------------------------*- C++ -*----------------------------------*\
| =========                 |                                                 |
| \\      /  F ield         | OpenFOAM: The Open Source CFD Toolbox           |
|  \\    /   O peration     | Version:  v1912                                 |
|   \\  /    A nd           | Website:  www.openfoam.com                      |
|    \\/     M anipulation  |                                                 |
\*---------------------------------------------------------------------------*/
FoamFile
{
    version     2.0;
    format      ascii;
    class       volScalarField;
    location    "1.78";
    object      k;
}
// * * * * * * * * * * * * * * * * * * * * * * * * * * * * * * * * * * * * * //

dimensions      [0 2 -2 0 0 0 0];


internalField   nonuniform List<scalar> 
12556
(
36.90869384
36.90874251
36.90881641
36.90893013
36.95443507
36.95496361
36.95591698
36.95803049
36.96222449
36.9694611
36.97997415
36.99109506
37.00045901
37.0006483
36.99188223
36.98157715
36.97130547
36.96352142
36.95904364
36.9563615
36.91030825
36.90922018
36.9087144
36.90842563
36.72746703
36.72768143
36.72793933
36.72845739
36.77410961
36.77676957
36.78228167
36.81282595
36.83207595
36.86547303
36.91452604
36.97154645
37.0087667
37.01338835
36.98661316
36.93621974
36.88549388
36.84693967
36.80095295
36.78546283
36.73278838
36.72970228
36.7281654
36.7273562
36.54740396
36.54791332
36.54857121
36.54976221
36.59650397
36.60314196
36.61624164
36.6593728
36.70567863
36.78436092
36.89454274
36.99503762
37.05454911
37.06235711
37.02145427
36.93726879
36.82999347
36.74250317
36.65991913
36.62480571
36.56226312
36.55434908
36.55072639
36.54927566
36.36873129
36.36930082
36.37042699
36.37316521
36.42174096
36.43544152
36.46299778
36.5307138
36.62665389
36.78102553
36.95106807
37.10081281
37.18729125
37.19367245
37.12678785
37.0032242
36.84876375
36.6945843
36.55133907
36.48277675
36.39842401
36.38425129
36.37715923
36.37439088
36.19193616
36.19274208
36.19478745
36.20006681
36.25238556
36.27667843
36.32930171
36.43545256
36.61744271
36.85170768
37.1163841
37.36035906
37.50276953
37.4959545
37.36566642
37.16285972
36.93633131
36.71607641
36.49289102
36.36626778
36.24755997
36.21958509
36.20677773
36.20178943
36.01666934
36.01784751
36.02131304
36.03043127
36.08943073
36.13042246
36.22120424
36.38849072
36.65655436
37.00821174
37.45008732
37.93591314
38.25804151
38.17875259
37.83772495
37.46929143
37.11554749
36.79673316
36.49384684
36.28164001
36.10976091
36.0601613
36.0386887
36.03025309
35.84383245
35.84580964
35.85173272
35.86604998
35.93385194
35.99727153
36.1403313
36.38350163
36.74804852
37.26963608
38.03462288
39.26012045
40.03510694
39.85969621
38.71335356
37.97499689
37.40353053
36.94193706
36.5277865
36.23459251
35.98490625
35.90643163
35.87239793
35.85908318
35.67414359
35.67718531
35.6862099
35.70765515
35.78830261
35.879213
36.08645693
36.39765833
36.87655572
37.60615244
38.84638076
41.56108876
42.60857637
40.14680669
38.70129796
37.80127779
37.14833542
36.596065
36.21699926
35.87589987
35.75965927
35.70876848
35.68907891
35.50962755
35.51440239
35.52798185
35.55974711
35.65256572
35.77720302
36.05206352
36.42761389
37.02408749
37.95138434
39.58842483
43.5632172
47.14568043
41.9225983
39.58127072
38.27847308
37.40035968
36.68922085
36.22262089
35.78243138
35.62201031
35.55058591
35.52314339
35.3513837
35.35804195
35.37651623
35.41962196
35.52664487
35.68974541
36.02952426
36.46681745
37.17034448
38.25443254
40.12154035
44.46148752
50.35816852
43.54624726
40.47011432
38.78024781
37.67230286
36.79735415
36.2409411
35.70546465
35.497161
35.40215847
35.36563984
35.20141467
35.21070989
35.23553222
35.29251897
35.41169681
35.6144192
36.01431936
36.51074104
37.30986325
38.51951101
40.55057178
44.621936
51.95783529
44.76488472
41.24949319
39.2484751
37.93705939
36.90732224
36.26429071
35.64349348
35.38722445
35.26772913
35.22122053
35.05949262
35.07110919
35.10165725
35.17181441
35.30660277
35.54768268
36.00335607
36.55612973
37.44144634
38.76367764
40.95465376
44.23124414
52.64801211
45.5816216
41.86100718
39.6432448
38.17013273
37.00816149
36.28954519
35.59685847
35.29317142
35.14947769
35.09263835
34.92636075
34.94100418
34.97959844
35.06441971
35.20883296
35.4849645
35.98992126
36.59956785
37.56460548
38.99771467
41.39245274
43.66803776
47.01687443
52.46262068
46.08292128
42.2935711
39.94629606
38.35570667
37.09175581
36.31232244
35.55689084
35.21375669
35.0468898
34.98030818
34.8000281
34.81743792
34.86315398
34.95965965
35.12504162
35.44477417
35.99825184
36.65917802
37.70695863
39.27187039
41.89170204
42.27557681
56.07411804
52.44195784
46.33565698
42.56553204
40.15075497
38.48670552
37.15531077
36.3285323
35.51818874
35.14421813
34.95684382
34.88144586
34.67958735
34.6995784
34.75170698
34.85889042
35.03810119
35.3873522
35.97589733
36.6867113
37.79351283
39.45793972
42.19865888
38.50496843
55.78557766
51.93063209
46.30440522
42.67104422
40.25947046
38.56437077
37.1918034
36.33169107
35.47817143
35.0794661
34.87470404
34.79195987
34.56193244
34.58429419
34.64196417
34.75896894
34.95137144
35.32368854
35.94082188
36.69228704
37.852168
39.59032852
42.25588036
34.06375832
53.77534505
51.00299545
46.08087248
42.64848023
40.27743406
38.58673693
37.19902934
36.31281732
35.42855218
35.01221545
34.7950538
34.70625915
34.44641843
34.47083613
34.53285366
34.65794272
34.86169047
35.25113516
35.8896676
36.6716432
37.87315975
39.65609953
41.96271705
29.94592629
51.85567463
49.98830749
45.64317548
42.48908229
40.22788125
38.56748475
37.17294502
36.26995467
35.3689872
34.94147135
34.71388108
34.62016441
34.32953785
34.35569479
34.42115538
34.55316172
34.76692153
35.16811747
35.8206283
36.62229242
37.84739165
39.62374689
41.47330117
26.45254856
50.10054069
48.99349111
45.12802859
42.21877445
40.08611716
38.48380347
37.10070768
36.19873909
35.29259681
34.85916944
34.62676515
34.52934949
34.21234449
34.23987803
34.30768762
34.44458351
34.66577573
35.07429479
35.73433566
36.54645761
37.77806769
39.51135627
40.891847
23.72894797
48.50969061
48.04712769
44.60717731
41.90935794
39.89285505
38.35200388
36.99740621
36.10514713
35.2023567
34.76736028
34.53221234
34.43268065
34.0911504
34.119753
34.18933929
34.33034279
34.55790837
34.97033472
35.63286218
36.44870737
37.67609297
39.33874228
40.2508246
22.02199413
47.01151689
47.16804789
44.11412637
41.59278107
39.67531337
38.1910825
36.8713186
35.99308884
35.09855308
34.66466454
34.42834045
34.32742734
33.96937667
33.99872359
34.06924653
34.21237143
34.44353976
34.85741576
35.51876733
36.33380163
37.54990551
39.12378795
39.57855149
20.92992886
45.60331748
46.34499247
43.65018019
41.28216895
39.44841247
38.01389569
36.72883154
35.86653996
34.98421243
34.5538251
34.3175065
34.21578467
33.84224852
33.87212209
33.9434441
34.08870573
34.32345027
34.73699881
35.39468486
36.20585841
37.40582842
38.87936838
38.9102338
20.20591386
44.27494365
45.56808507
43.20962644
40.98308968
39.22037526
37.8286785
36.57524142
35.72916335
34.859812
34.43350805
34.19760999
34.09541
33.71614851
33.74630974
33.81779356
33.96325502
34.19852278
34.61060712
35.26296913
36.06829688
37.24845983
38.61307994
38.26246679
19.73014682
43.01479623
44.82932231
42.7876699
40.69643773
38.99570637
37.64048524
36.4147786
35.58408985
34.72956248
34.30857364
34.07353666
33.97108376
33.58360117
33.61394885
33.68582939
33.83253744
34.06990047
34.47971419
35.12571038
35.9238765
37.08120371
38.33011323
37.6404766
19.39025125
41.80062509
44.12199743
42.38152855
40.42073925
38.77650457
37.45246675
36.25061644
35.43393725
34.59232893
34.175786
33.94137126
33.83870404
33.45511185
33.48548379
33.5571653
33.70289178
33.9384276
34.34562638
34.98469452
35.77487655
36.9064039
38.03312761
37.04796575
19.13458685
40.62829674
43.44253302
41.98910997
40.15419801
38.56336377
37.26652306
36.08500147
35.28067635
34.45359935
34.04256454
33.80899418
33.70616428
33.31820083
33.34858875
33.42058453
33.56751438
33.80513554
34.20940047
34.84135604
35.62298108
36.72538751
37.72639072
36.4859047
18.9546781
39.50338679
42.78668482
41.60853434
39.89534095
38.35605861
37.08363226
35.91942899
35.12585402
34.30915343
33.90167661
33.66838894
33.56528811
33.18990305
33.22019279
33.29182874
33.43691823
33.67049577
34.07188552
34.69678876
35.46932604
36.5389721
37.41553027
35.95295427
18.83973985
38.42247229
42.15223403
41.23808442
39.64305142
38.1540977
36.90422093
35.75488941
34.97049444
34.16744204
33.76522046
33.53251858
33.42915105
33.04922411
33.0794647
33.15146241
33.2982426
33.53540697
33.9337307
34.55175238
35.31459495
36.34789036
37.10447778
35.44704156
18.78013774
37.38152904
41.536661
40.87579315
39.39627161
37.95688829
36.72836816
35.59198125
34.81547969
34.0188565
33.61877388
33.38590809
33.2821051
32.92398867
32.9540965
33.02567909
33.16980736
33.39988978
33.79544946
34.40680664
35.15924372
36.15308451
36.79585798
34.96668093
18.75445314
36.37954795
40.93934798
40.51990988
39.15399797
37.76383917
36.55598795
35.43107163
34.66120497
33.87838584
33.48342181
33.25088643
33.146672
32.77905734
32.80910733
32.88111559
33.02772884
33.26492685
33.65747572
34.26236932
35.00361039
35.95563836
36.49054477
34.51090594
18.76194678
35.41532704
40.35528644
40.16888206
38.91524277
37.57433213
36.38686864
35.27235881
34.5082766
33.72630927
33.33181955
33.09874148
32.99392127
32.66027607
32.69020995
32.7618533
32.90507475
33.13003085
33.52016302
34.11878248
34.84797183
35.75659217
36.18951283
34.07783248
18.79710695
34.48554206
39.78002959
39.82124684
38.67907899
37.38776916
36.22075176
35.11594852
34.35665822
33.59133852
33.20206146
32.96909016
32.86374624
32.50907233
32.53896919
32.61103576
32.75745793
32.99659463
33.38385678
33.97633334
34.69257272
35.55685482
35.89346835
33.66621612
18.85492294
33.58398881
39.21139031
39.47583013
38.44475221
37.20361034
36.05733159
34.96187117
34.20699351
33.43362227
33.04324676
32.80951042
32.70341344
32.40127102
32.43109316
32.50298863
32.64589272
32.86342504
33.24887578
33.83530249
34.53759723
35.35716811
35.60307346
33.27536206
18.93027342
32.70776046
38.64842867
39.13198475
38.21166196
37.02132132
35.89621947
34.8101398
34.05882243
33.31032168
32.92499962
32.69112821
32.58447512
32.23964102
32.26946182
32.34167191
32.48724644
32.73307845
33.11581231
33.69610589
34.38323845
35.15812942
35.31861659
32.90393043
19.02027657
31.85988646
38.0919592
38.78944231
37.97931396
36.84038924
35.73708691
34.66099945
33.91345006
33.1401822
32.75360069
32.51894465
32.41140041
32.14907545
32.17889281
32.2512229
32.39569216
32.60388455
32.98579231
33.55997261
34.2296403
34.96016635
35.04019517
32.55077025
19.12172128
31.0462509
37.54402948
38.4481555
37.74715326
36.66022305
35.57944043
34.51551944
33.77078234
33.03981926
32.65549102
32.42045797
32.31241522
31.94290743
31.97279773
32.0456007
32.19217411
32.48261659
32.86179804
33.43122404
34.07729244
34.76420013
34.76944295
32.21736381
19.23088091
30.27304937
37.0099284
38.11033621
37.5155151
36.48062083
35.42294148
34.37748946
33.63636111
32.82038159
32.43536007
32.19927816
32.09006503
43.40528768
47.6555222
42.97535394
44.38664701
51.21865955
48.10352434
44.64596903
52.90680426
51.51843447
44.29545814
53.59167534
53.020395
43.70705416
42.58360537
46.02007498
53.89566184
53.63168519
42.74871154
52.8115287
42.97774432
55.68912282
54.38358677
53.91981554
41.2093513
39.98949587
42.50302565
39.78202046
51.12381038
44.53835915
46.63532439
42.3355786
40.69099337
40.00251946
43.45309224
42.66303959
55.52992055
56.97846527
50.06083012
44.36051342
42.88243986
40.44998112
43.97603702
43.54399357
44.62202759
46.35774938
47.30021765
54.60322351
54.04687953
51.82805
45.83217796
44.78814449
40.86627606
43.99833321
44.00073935
44.50691599
42.86035362
44.77040915
55.95606918
55.18974327
41.29267467
43.78624433
43.98449513
44.00313447
38.26635664
40.61276947
39.60391668
56.71828055
56.48622652
41.8002756
43.27227979
43.74435043
43.34993622
32.50727706
35.1023438
41.27693761
54.3610098
53.17011133
47.59614392
49.35918514
43.62981707
47.19799371
56.86457057
51.45316972
45.60887405
50.50783619
55.51589265
47.41788937
48.12204697
44.06713353
48.75195878
47.48845528
49.46863269
48.89745742
54.12030145
55.34341279
49.85047477
56.26459481
55.50750084
55.73095815
56.3462247
49.60847618
44.954449
46.19805188
44.65059877
45.86451236
44.09901718
47.40638639
45.97383509
55.044778
54.68629599
52.44159228
56.02963997
56.26310784
55.47164874
55.98488218
52.25452413
40.7430582
42.74133435
44.45958178
41.81937504
39.38082867
43.9802899
41.95394809
56.44716678
56.03924075
35.25313602
38.0965572
43.96959314
40.44162879
36.22691325
33.17557063
39.24047569
36.42831299
41.24320963
56.98836149
56.74655497
39.51177959
40.07183601
32.4481863
43.30222216
49.56614509
32.0105515
76.18464141
33.09108059
32.02005039
48.85971445
39.42553587
42.51426971
40.89674474
42.52493581
46.21795833
43.22593288
61.90591091
47.18534151
43.96598944
48.20107228
48.17796081
46.8210115
52.60821451
46.76872131
46.1164152
53.79890516
49.71457894
48.23581961
52.35178424
57.29407852
57.07719826
48.02259691
46.5258003
42.78728655
54.87350398
45.64345901
52.87834325
44.15492713
49.57428543
44.99250062
47.81220118
43.9920793
53.38577705
56.43970476
56.56306754
56.28585406
56.42876196
53.31628071
39.64836832
47.47926509
45.25593465
41.5731362
41.17257662
43.18299692
43.99400211
41.65702891
41.61174828
66.3698907
48.19211302
61.49477926
46.30049378
58.08409472
47.35613958
56.83896163
56.94719774
54.25368744
54.21759609
40.92592231
44.4855834
55.67342073
41.3232996
42.66844657
45.97357814
41.46339105
55.5781484
39.54084251
43.53542588
43.19134496
52.50026555
50.52158866
48.70065747
34.15323495
41.38882968
40.89899664
42.01018419
41.56404321
34.29798581
59.0471096
55.32612936
48.49036256
55.62982366
56.61066953
51.38144412
55.30224858
48.73005602
45.2698151
50.56048761
45.03943004
55.85884909
51.31075287
45.83230724
53.56279154
58.86560873
54.86092571
54.47091553
48.15762286
44.29987789
48.07668207
49.37222816
47.64158082
50.84362282
44.68800828
47.22111768
49.27311934
54.82220988
54.93215565
55.88994613
53.79404235
53.19000639
54.395892
53.96174546
55.83155237
56.61317701
51.83963522
50.80841836
52.95850577
52.14509368
56.64919171
45.06158507
44.947452
46.78457582
46.69411664
55.19530288
46.55399006
55.13263591
40.85617559
40.68994329
43.02917842
42.89163622
43.14173641
47.0297354
56.24529316
43.31347991
40.9454184
37.00098671
42.57147428
42.15643127
43.07258051
42.70137936
37.14598566
39.44440439
35.36467843
35.23558828
38.25834224
38.11897427
55.06808547
40.66274359
54.40514421
53.05062134
40.71105157
40.24814843
32.08794152
33.11344114
41.45821309
41.59547372
32.67575436
68.97142618
41.98924234
60.42404094
32.59951981
46.23360516
44.92204335
40.559342
60.81174033
39.7950717
40.26644269
42.13874662
42.80692936
43.17654732
41.77242811
34.02525943
41.64993015
56.28736029
53.81377291
54.31730084
53.73402821
40.59469823
43.64677778
55.63181435
54.76977496
41.3747781
57.42645652
57.35192138
52.86565931
43.26623049
42.79632922
45.22085986
46.31255959
43.0135943
43.33255646
56.16632265
59.10756019
58.01009369
57.13327617
54.38231069
45.2543197
45.61031411
48.31591641
47.59979155
53.94757145
43.71314975
45.06259148
44.80804205
45.37929453
45.14428043
43.85200075
43.96205727
43.64415549
39.67712771
32.89331843
37.9993064
37.58057445
68.45061335
50.59417756
53.59600574
56.20808892
60.25671493
59.38484063
52.96708037
48.71562986
47.2723942
50.4249882
49.16906361
53.330458
54.38387995
49.50236273
48.65726871
55.04066733
45.5123529
45.65748133
45.45310575
40.54145208
41.04226134
44.4695013
45.84493137
46.1737242
54.87645658
56.14384969
55.20258311
55.10604927
55.52083246
54.80628045
54.51171927
55.06509396
54.88031154
55.53693983
41.75551749
44.35514582
44.06322022
44.72020378
44.44891014
41.88950052
41.41630878
36.13495428
36.46077775
33.66309618
33.8873611
39.85967086
43.58382184
39.74524225
40.39923729
36.59195767
36.96055109
42.35608579
56.2957176
47.61631754
51.3956772
59.09522714
39.53916342
35.81671813
34.03941239
38.82281797
33.34771534
33.58876017
32.83416376
37.37112929
49.42275814
38.85822602
38.95295788
38.1556497
37.4446485
37.04517701
32.31555329
40.57462659
41.59568787
51.47626844
31.99287536
87.45324735
43.16276023
41.56280141
46.37038338
32.91932597
32.10861912
55.49456626
54.61920827
54.40282288
46.99204031
46.9531505
40.17416769
39.79843969
54.0766381
52.90364026
52.80021792
48.4345447
58.03445322
48.5640458
58.50671118
49.32032495
43.3286335
40.65034757
45.7559086
46.37974379
50.44053155
47.11421635
41.06834198
40.51183705
48.78393643
59.33806196
41.10785202
46.30090377
65.79043464
39.59622518
40.39528132
39.65378035
39.56622023
58.03282048
66.86171338
55.098782
51.49799918
58.92282495
55.89665856
50.80623006
47.81549005
52.95630854
55.9939488
55.31146383
56.41020585
57.12096787
57.65597001
56.4453702
46.17011829
45.43618452
54.32020262
46.83389061
47.13019044
45.181606
46.57322857
47.24762052
53.99632882
47.48126246
46.4501992
41.30490658
41.62094555
41.41167573
51.17407874
50.31414912
43.06376993
48.48966971
47.07069477
49.97051468
48.95006042
42.43599584
41.79751467
41.88858001
40.58807458
38.58864568
38.12442666
33.24611854
34.63888064
39.10567271
38.71983701
57.68918355
57.13772003
56.70322771
51.44671332
52.01367544
50.43197277
51.21923463
57.00377347
53.76896199
52.24378868
52.06182418
52.14151126
52.26063029
54.04616292
54.24093418
49.21869797
50.16653922
57.24761231
57.68823602
59.89485394
59.43090268
55.88784712
61.11594663
61.91986702
62.14828941
60.7861438
59.84617765
62.14922305
60.64609425
53.19344517
58.77545462
59.95142237
42.91865999
48.24171322
47.37835006
49.05570987
48.47543665
43.49190844
46.18047722
45.5861876
47.07788459
46.3850453
48.92472042
51.28531133
50.74985977
51.93112907
51.45678932
49.38325955
45.70473311
49.82266477
49.25122169
50.56674169
50.01060127
46.07408631
50.65126703
49.68407181
54.48861415
55.05244408
52.14946288
51.02373792
40.06870548
39.57895206
40.91982525
40.24069293
38.80030483
38.32375905
39.42417752
38.9422866
44.63591024
44.07461258
45.3943235
44.82816329
42.95555761
41.36005573
43.86991716
43.30692181
44.77291987
44.08298959
46.65687656
45.24699385
47.03867426
43.93830865
44.79929462
43.89295725
43.69301516
35.69279946
36.00671267
41.28080049
34.05491154
33.84056406
34.35375472
34.1436938
33.73170319
40.06419031
33.97525898
35.40033462
37.7861586
39.45256372
43.44963889
37.41712782
35.29187378
38.22609541
37.49435368
34.72077463
34.4516569
35.14409844
34.82656324
42.48947511
37.09242634
37.53659513
50.42065289
41.88741328
49.60126242
45.7869956
49.34472139
41.48697548
61.33837637
39.43438695
59.14636427
52.33843896
35.6992249
34.62365932
33.06081556
33.27721264
38.68353397
37.61085225
32.85562296
33.00514589
54.81181643
32.2610266
36.85725333
36.1817209
69.81463693
77.18049163
31.924474
81.16218668
60.57889632
41.10545448
32.85395992
68.66943944
44.88218766
79.0343372
46.87147736
32.22436223
42.18320356
40.18256542
38.93959884
52.9302293
52.53320777
53.08105614
47.31560883
46.94518716
52.86463599
40.99217301
40.41839371
39.51752364
56.57281543
56.52692236
53.76999749
45.16546032
44.63613566
47.58724365
52.81709446
45.1044676
45.2046259
41.12919928
41.46623743
43.80469619
49.76723736
53.29684854
56.01390888
46.7950197
46.0391296
45.92746794
46.12838699
46.06809572
46.92871433
44.27609892
42.50698035
40.67285685
52.02848766
53.53039834
56.62477317
39.59655941
39.22731029
34.75547796
56.80449479
58.49968857
52.79766479
45.8808703
45.718689
45.68986956
45.52191914
42.56045405
43.18929708
43.49443864
44.43114208
46.30097803
36.06908997
40.10401366
39.71789588
46.31812533
44.24978905
39.97540923
32.39333264
32.42760037
33.30809026
42.7972963
56.01468777
50.41653114
39.56951006
46.999562
44.8260637
31.99407111
33.03154006
32.3519536
32.37519155
32.0368617
62.44334839
46.69168282
41.54283465
42.81956084
53.11687284
40.15496317
40.72597108
49.97045743
54.1406318
46.77152372
45.22185802
47.15867884
46.31511873
40.40615311
40.10500528
62.70893468
65.03273721
66.70461232
56.23267764
63.74082102
42.75539415
43.00714536
45.69492401
63.53365454
58.92154108
56.45558827
66.50631599
63.80042434
40.97648182
42.90382602
42.12597001
47.99660343
47.38017757
42.82944434
52.22876549
51.47241341
41.55247815
46.16884594
42.06090208
42.28842263
45.05637196
40.07290924
40.57387443
58.75016874
59.51762448
55.97090111
56.00813711
54.89610466
54.73770633
51.94549913
52.93591743
52.5587092
54.55984947
54.34207451
54.8719303
47.76620458
48.90996224
53.71867213
55.04810087
60.4198614
56.80580357
60.61084478
60.96746682
58.25080721
41.30071559
43.45644772
42.9349059
47.07918628
46.84510135
44.06274291
40.85293747
40.6152654
42.50256686
42.15749552
48.06358734
50.21833186
49.89170442
52.20804004
51.87185885
50.33779482
44.98379887
47.68627242
47.41014539
49.56302123
49.2426401
46.83023475
41.87501358
42.3845829
45.41077887
44.5865334
41.20378712
41.70853929
45.35853043
45.85625759
47.05734879
39.22585226
39.0798407
40.40672969
40.21867305
36.96853862
38.85953294
38.73809134
46.39928803
44.66278035
45.18574581
46.58446303
46.42542869
42.64428594
42.99395799
46.44541225
46.46418642
46.93858159
54.93829823
46.3519232
47.70930517
40.58660519
40.22780535
36.40215695
37.54334667
41.01771854
40.6940391
33.46235406
33.52872379
35.47564768
35.09944963
33.29390033
33.3854646
55.24526073
32.19026591
33.04987043
32.40880716
109.408465
32.36638426
41.15827968
55.48631788
49.66780858
32.12441268
32.15610075
32.72536687
67.58779006
73.14391941
70.71884737
54.01642128
32.54820168
32.07853732
32.10288892
41.49480772
40.59227331
39.78810125
52.82157202
52.19245323
44.08085796
42.84457271
40.04483677
55.11676737
54.82448316
58.98541038
41.30668283
51.21304697
47.08542955
51.47190282
50.57102171
42.27677205
44.21000021
44.94274401
49.05633815
53.98303681
54.34476351
53.42430783
53.70676633
58.79002523
57.93755782
58.19875663
57.38945831
57.66131492
58.37279728
48.05371274
48.15455694
48.38970059
47.77952339
47.92355608
47.9573814
59.91302997
58.7750531
58.7758533
58.44840452
58.65625832
59.65214499
49.07961372
49.18877891
49.45790191
48.65323268
48.90965137
48.84230892
52.72052533
52.90199076
52.02487765
52.21973365
36.22294053
38.46919104
38.34163786
33.75183554
35.20484703
35.10895455
35.51083848
35.31963094
33.82411837
56.43243066
57.72178936
51.2430331
57.30814973
32.78270401
32.74193395
32.88422478
32.84003576
32.53238655
33.56037708
32.47407746
32.6017262
33.43273669
34.86594249
34.77676502
35.02881205
34.94593868
33.50662968
33.00576443
32.93775616
33.68744052
33.16226587
32.94217618
57.05232878
55.24284097
45.1109268
57.61630568
34.39491304
33.57585723
39.52985098
32.35623321
33.90674172
33.76457847
31.96988942
85.6913449
87.31626747
62.71079632
76.85317053
66.42516094
32.28091151
32.32103219
32.97982439
32.068638
59.52366461
65.12788217
59.83299524
61.68382844
57.76294914
50.02516844
63.75783159
58.52043135
47.30352468
47.33300271
54.15792157
44.50355537
47.98344237
53.78005089
51.04106575
55.00005858
50.26244397
53.35020664
59.90478521
61.46437616
54.25736856
58.7597376
62.43780538
50.21997658
51.43850564
49.62722431
53.62398764
62.27294542
62.37308578
60.32552769
42.27520839
54.82291528
48.97741794
60.96650354
62.0051633
44.20461204
46.89140079
50.38930462
64.50837146
52.79402569
42.8018323
44.32118868
62.79600981
59.38096617
63.1857222
57.7711525
60.44089558
62.97128267
64.29584208
63.64146448
55.46759914
55.63468795
55.91006528
54.99147177
55.16167953
55.18642845
57.22921855
56.82293221
57.10246176
56.23555706
56.51511713
56.83729021
45.91866145
48.54737822
48.53066605
46.90632956
47.1310393
45.66319492
46.95145221
46.68702063
46.39242526
47.6315549
48.00785898
46.97922389
47.90026305
47.73195753
48.45497689
48.2295068
46.67981664
47.42052318
44.78799775
41.08712181
48.71650203
48.62073565
48.38511173
42.1520997
47.59157778
47.15919656
42.0021999
41.96878942
44.29109312
58.27039037
56.50089707
53.70657031
53.3308584
52.48724348
54.56354096
54.15720936
53.89436466
61.64711406
61.31147885
56.35082109
61.91219014
64.10046301
58.1027918
61.45126496
61.6238601
59.75953033
58.50211329
58.4079119
58.62455105
58.62342609
59.59845756
61.50444423
61.65769037
60.59072074
63.55906775
63.5080912
63.37777494
63.51824916
60.42150305
62.28295468
63.00594118
64.86238628
62.29698784
45.71343567
45.55531939
42.8660056
43.64854803
46.46900492
46.30350513
41.33957304
41.08674101
41.86759467
41.59478627
50.87486567
50.54394718
48.47750896
49.85586284
51.5398708
51.20728022
48.30183345
48.00775007
45.37665861
46.42918369
48.92065495
48.61435068
50.40435007
50.3206025
50.61194351
49.7424826
50.02895555
50.00184359
51.71218853
51.39845373
51.60299255
50.90491784
51.17162623
51.4293661
39.89965158
37.11857891
37.26925931
36.84594547
36.98657397
39.7404486
40.63861887
37.76576324
37.99004774
37.41714422
37.58485557
40.42757549
38.62951611
36.04760381
36.19226687
35.81313265
35.95472216
38.50478029
39.26165456
36.57438328
36.71747849
36.30191164
36.45077379
39.11012522
39.60852761
39.44112459
44.45038212
42.41037849
42.59786859
42.02253763
42.19346717
44.25454398
40.00387803
39.82050873
38.08966998
37.96544761
42.68793056
40.69454591
40.76203355
38.32064735
38.7884067
41.99543237
43.70105533
41.64794375
41.78941728
41.26722366
41.36933134
43.46787392
38.50200607
38.40609957
45.9460749
46.02518343
46.57305102
43.48615566
44.46713944
44.17636613
46.52270998
46.65062341
46.62125803
46.6647953
44.50980841
43.71064219
44.88647007
44.15359972
46.17708857
46.11029995
43.63413052
35.76557743
37.90358141
37.77098583
38.19459332
38.0749379
35.93316933
33.99884294
33.89765122
34.28728985
34.19604019
33.70621056
33.68762026
34.15034327
36.57414798
35.88448072
37.49884225
37.22976095
35.11683021
35.86307836
34.77055444
35.22169885
35.50872654
38.00570119
35.58263078
35.73579663
35.32950238
35.51219857
37.92714691
34.63309746
34.5302855
35.03320799
34.92179902
48.90616115
41.51938836
42.19963069
40.65454899
40.95289944
49.37084027
48.42503491
48.10887451
43.14079366
45.31946642
49.67868679
57.94810409
44.70820043
46.90984051
41.3151858
42.91037201
58.86672357
32.61802599
32.56636942
32.69929283
32.66483297
32.90314156
33.17332077
34.89802713
32.39293465
32.34500646
32.51499538
32.45244669
33.13339512
34.51642746
34.4211424
34.69316314
34.59964563
33.19695275
32.90415497
34.13601115
33.99287561
34.33711566
34.23827283
32.94948047
54.16384599
33.68016624
33.40253353
32.17164933
68.09827904
93.61234651
99.19077333
93.00506282
94.05474694
73.37276873
32.12549721
71.4196499
52.04934946
55.87839307
32.7894207
32.18061674
32.23552476
68.75760192
76.34033911
74.32649316
60.23020176
66.80547808
81.41325828
76.61822084
50.13299701
72.31110711
63.2825972
32.33363244
32.01790932
32.33499108
36.69586862
36.72242758
36.82584387
36.73369218
36.78022087
36.85512142
36.79836322
36.86719285
36.90037705
36.8922163
36.96363811
36.95608856
36.98317498
37.02860188
37.00126743
37.03740826
37.04696104
37.01506215
37.04473893
37.02105185
36.99892433
37.00805159
36.952639
36.9504514
36.93195888
36.85866151
36.89780651
36.83751689
36.77900295
36.85566212
36.5600894
36.61562904
36.6916981
36.6404137
36.73835209
36.76186754
36.77568117
36.89074391
36.86755191
36.9285972
37.0341338
36.97323291
37.06373457
37.13008661
37.04494462
37.14264143
37.15450568
37.06488429
37.14951276
37.11074068
37.03593719
37.09066651
37.01084811
36.96102131
36.9793107
36.87511176
36.85725032
36.83880488
36.73126373
36.76026697
36.45604799
36.56703429
36.5969548
36.61531375
36.76995033
36.74029129
36.82618896
37.00275738
36.90897379
37.06189183
37.22866042
37.06782918
37.27578582
37.38377478
37.17263973
37.40055011
37.41507736
37.19786927
37.39753815
37.32200088
37.14990545
37.28790903
37.16095678
37.03795439
37.11215493
36.9584274
36.88907641
36.90648004
36.75508381
36.73203783
36.39543591
36.57394736
36.56411825
36.64109877
36.87250213
36.78908294
36.95955376
37.2463638
37.04950765
37.34729526
37.65778592
37.30462625
37.74964838
37.97860092
37.47610672
38.0005384
38.00930101
37.50199463
37.93690954
37.75979336
37.40772642
37.6883176
37.45672133
37.21810432
37.37617269
37.13808338
36.9934205
37.06093313
36.84200697
36.77020725
36.38242746
36.62542107
36.58297044
36.72123853
37.06200405
36.91180502
37.19536625
37.67178171
37.33219132
37.86036186
38.55428998
37.81174722
38.81377248
39.67811001
38.19435972
39.70906556
39.49246158
38.19058029
39.15310183
38.62559171
37.92762953
38.44623067
37.97010655
37.56167966
37.82713732
37.43911615
37.20094113
37.32086274
36.99820025
36.87366145
36.39279891
36.71329645
36.64443637
36.84293776
37.32134664
37.120871
37.51896441
38.28834108
37.81120293
38.63524251
40.60109957
38.87486939
39.91630763
40.53175517
39.55245262
41.15144555
41.21743342
40.04661851
40.64000184
39.97537452
39.5131176
39.73716509
38.75605626
38.13991801
38.50203358
37.86935008
37.53493298
37.69078392
37.22687301
37.04837519
36.41893666
36.82193668
36.73806358
36.98679689
37.6063848
37.39142817
37.8683092
38.92781204
38.4571535
39.05266112
39.58451595
39.32880308
41.90394897
42.5486801
42.11135081
44.32860809
43.02559412
41.76019331
41.47541015
39.76372043
38.99032365
39.35994216
38.41061188
37.9974348
38.1556534
37.51471218
37.29391764
36.45649695
36.93769198
36.85083653
37.13428818
37.8719326
37.67558617
38.18283869
39.42858314
39.06651576
39.7376467
40.41712762
40.24147997
43.70964839
44.7881934
44.62378597
48.5706808
46.00365988
44.91811988
43.17326864
40.81205327
40.02501015
40.26301327
38.99176555
38.55273488
38.65723612
37.83176181
37.59211558
36.49964713
37.05155524
36.96650869
37.2755945
38.10856819
37.93357043
38.45581603
39.82501259
39.53424556
40.23541344
40.98531055
40.85642639
44.52560299
45.66621166
45.67215256
51.1146073
48.13748335
47.45924963
44.4975911
41.73210671
41.05313393
41.07344557
39.54240612
39.13209026
39.13810663
38.14556121
37.91124692
36.54477028
37.16069433
37.07947961
37.40913637
38.3252469
38.16427506
38.70390745
40.18529481
39.91512891
40.65745362
41.4690588
41.34473476
44.589416
45.06691694
45.23316285
52.30595456
49.34282704
49.00851653
45.40393082
42.45637047