/*--------------------------------*- C++ -*----------------------------------*\
| =========                 |                                                 |
| \\      /  F ield         | OpenFOAM: The Open Source CFD Toolbox           |
|  \\    /   O peration     | Version:  v1912                                 |
|   \\  /    A nd           | Website:  www.openfoam.com                      |
|    \\/     M anipulation  |                                                 |
\*---------------------------------------------------------------------------*/
FoamFile
{
    version     2.0;
    format      ascii;
    class       surfaceScalarField;
    location    "1.78";
    object      phi;
}
// * * * * * * * * * * * * * * * * * * * * * * * * * * * * * * * * * * * * * //

dimensions      [0 3 -1 0 0 0 0];
oriented        oriented;


internalField   nonuniform List<scalar> 
25162
(
0.0004481297352
0.9162018703
0.0005664120498
0.9165817177
0.0006799517074
0.9165364603
0.0003316007215
0.9165566016
0.000441749361
0.458338211
0.0003433896846
0.4583009301
0.0004275331578
-0.0004284632587
-0.0005389747532
0.4582740744
0.0006149003437
-0.0006883760457
0.4582206496
0.0008027264417
-0.0009270967393
0.4581957721
0.001061324664
-0.001213312759
0.4581734866
0.001374826136
-0.001535805081
0.4581776829
0.001693122137
-0.001843162247
0.4582142062
0.001960456068
-0.002048194744
0.4582878759
0.002093818847
-0.002091334817
0.4583811973
0.002045137556
-0.001961424391
0.4584488198
0.001842604548
-0.001708545767
0.4584811286
0.001562417169
-0.001402048682
0.4584823219
0.001254726804
-0.001109715107
0.4584830717
0.0009416433983
-0.0008729254682
0.4584530716
0.0007698539114
-0.000633039947
0.4584620674
0.0005209725054
-0.00172934628
0.9186440484
0.0002038310223
-0.0004685330933
-0.001081133967
0.9187017877
-2.370366398e-06
0.9157712364
0.9137976296
0.001232578432
0.9149692918
0.001973446237
0.9158408499
0.002289407242
0.9162204993
0.000714828498
0.9169824528
0.001148727562
0.4580319424
0.0008574057161
-0.4581745196
-0.4581518193
-0.001052102498
0.4579086304
0.001295291381
-0.457994344
-0.001594881285
0.4576353517
0.0009175665459
0.001036306965
-0.2289311848
-0.001110012698
0.2288372495
0.001203948034
-0.001602488645
-0.2288657891
0.2287418845
0.001726393264
-0.002221689702
-0.2288155884
0.2286573026
0.002379975548
-0.002933055129
-0.2288175867
0.2286452068
0.00310543503
-0.003610605232
-0.2288926997
0.2287578748
0.003745551004
-0.003880272992
-0.2290569149
0.2289395505
0.003997434887
-0.004180539863
-0.2292388208
0.2292420607
0.004177299938
-0.003914263584
-0.2293576235
0.2294647235
0.003807163524
-0.003366212236
-0.2294234615
0.2295904698
0.003199203865
-0.002700973099
-0.229425411
0.2296042392
0.002522144897
-0.002065316713
-0.229387122
0.2295452709
0.001907167781
-0.4588655558
-0.002875466861
0.4602827067
0.001458315908
-0.0001647875102
0.4609205395
-0.001508052194
-0.4592476998
-0.001746978348
0.9181312166
0.0005330552084
0.001726754914
-0.001072058025
0.9180268674
0.0003140001927
0.9143851782
0.9141116298
0.001567919423
0.9134013724
0.004173817221
0.9132349521
0.007062456497
0.91333186
0.002961409894
0.9146506411
0.006432858248
-0.4579617896
0.4577468397
0.003176359767
-0.4576793839
-0.00320730655
0.4582712604
0.002615430058
-0.4571462022
-0.002765506746
0.4568356714
0.00148826217
0.001587775444
-0.2283811073
-0.001838802769
0.2281829017
0.002037008378
-0.2281266345
-0.002745524177
0.2278528809
0.003019277747
-0.2279299137
-0.00368773484
0.228971087
0.002658753376
-0.2303539398
0.0008632527163
0.2313087355
-0.001763454599
-0.2301057903
0.003526725607
0.230438272
-0.003819058085
-0.2283517993
0.003872431189
0.2281267977
-0.003653654179
-0.2270241705
0.002286130204
0.2262937464
-0.00160362589
-0.2278737887
-0.001185295286
0.2266647808
0.002344808136
-0.2303374588
-0.006027800949
0.2303886224
0.005974260448
-0.2303658468
-0.004961252987
0.2307061456
0.004620954229
-0.003389649148
-0.2302602746
0.2309297614
0.002720162369
-0.4628894505
0.0002509731771
0.4616987524
0.0009397249072
-0.4600010083
-0.001099007034
0.4599733419
0.001126673382
1.127920174e-05
0.9198300592
-0.001007647995
-0.0007024738049
0.001512454699
0.9165256919
0.0007005481852
0.9151970847
0.914812178
0.000573643752
0.9128277287
0.001256694215
0.9125519016
0.002567906638
0.9120206476
0.003337231387
0.9115705593
0.002310757141
-0.456944805
0.4564649187
0.003817117733
-0.4597518971
-0.005082469692
0.4566379312
0.008196435634
-0.4582167692
-0.009533001171
0.4596799006
0.002353748167
0.005716121622
-0.2274555337
-0.002392933416
0.2272208931
0.002627573978
-0.2275735031
-0.003115746049
0.2289488331
0.001770553951
-0.2327806149
0.001699302601
0.2337683991
-0.0025526617
-0.2333238882
0.003975925032
0.2335656773
-0.004075256597
-0.2306722233
0.003530219699
0.2304018005
-0.003180982584
-0.2273547879
0.002103467117
0.2270582546
-0.001819896192
-0.224675268
0.00128154019
0.2244383678
-0.001145302953
-0.223767828
0.0004415966291
0.2231895389
-1.295442296e-05
-0.2264300296
-0.002074564418
0.2253666729
0.003020202453
-0.2342953741
-0.001703998508
0.2377284189
-0.001734173001
-0.003534566075
-0.2317881267
0.2318012257
0.00352146713
-0.4616679928
-0.005308047801
0.4628566098
0.004119430811
-0.4606815579
-0.00292953236
0.4616514918
0.001959598455
0.002782869099
0.9197568217
-0.001448320532
-0.001261311107
0.001948512075
0.9173600489
0.0008954254426
0.9162501713
0.9157076035
0.0001796495878
0.9126480791
0.0004270877922
0.9123044634
0.0008650513
0.9115826841
0.001460401254
0.9103608828
0.0006143265481
-0.4561438407
0.4553104662
0.0022937758
-0.4551406829
-0.002774497001
0.4544396212
0.003475558694
-0.4534849668
-0.004428225782
0.4526036714
0.002796320571
0.002513200663
-0.2277541598
-0.004705378364
0.22602349
0.006438002428
-0.233227273
-0.006130083902
0.2363054961
0.003214957519
-0.2353818518
0.001395792564
0.2354751214
-0.001250773264
-0.2325230241
-0.0009682779381
0.2315002851
0.002182204121
-0.2280803581
-0.006597420769
0.2266793804
0.008085361879
-0.2260281913
-0.01130480778
0.2256077904
0.01171111726
-0.2250677326
-0.01070510174
0.2259993249
0.009656116168
-0.2232193035
-0.005327026859
0.2240780366
0.004254214087
-0.232035698
0.006327064081
0.227306734
-0.001828601686
-0.2283634002
-0.003115104891
0.227526792
0.003822275923
-0.005203249562
-0.2331728454
0.2337139696
0.004662125288
-0.4644930465
-0.006169788754
0.4660595564
0.004603278913
-0.4625637439
-0.00348696735
0.463502907
0.002547804203
0.003510965858
0.9215759926
-0.003023625686
-0.002306511066
0.001903150128
0.9189678646
0.000856181779
0.9172971397
0.9165637852
-0.0001213257543
0.9127694048
-0.0001305279905
0.9123136656
0.000128915014
0.9113232411
0.000353217234
0.9098154824
0.0003210981031
-0.454388335
0.4540276169
0.000713935376
-0.4538595623
-0.001731647447
0.4530270065
0.002564203216
-0.4516707683
-0.003199909404
0.4505404836
0.002147240861
0.002182953274
-0.2278381115
-0.001881639581
0.2285060963
0.001298806197
-0.234234116
-0.0005428226909
0.2343251926
0.0007165431957
-0.2351583431
-0.00483768558
0.2325802353
0.007707337245
-0.22729622
-0.01522572851
0.2274254229
0.01526744242
-0.2204002848
-0.02366028616
0.2187124621
0.02538945419
-0.2238145856
-0.03272430569
0.2230399338
0.03349601418
-0.2326992582
-0.02727682412
0.2346549032
0.02525386583
-0.2351916214
-0.01113029363
0.234449099
0.01165887381
-0.2249705354
-0.008783597411
0.226091355
0.00736780804
-0.2265181018
-0.004728894372
0.2267187311
0.004288457847
-0.004047468821
-0.23465222
0.2345000543
0.004167001127
-0.4674222108
-0.006323756823
0.4687868823
0.00495908533
-0.4640494376
-0.003949736198
0.4645479681
0.003451205691
0.002825072074
0.9237678817
-0.002400912071
-0.002616049037
0.001508565373
0.9202843713
0.0006066284459
0.9181990766
0.9171704137
-0.0005695256852
0.9133389305
-0.0009977628443
0.9127419028
-0.001251980594
0.9115774589
-6.159811793e-05
0.9094658536
-0.0008407536791
-0.4538698904
0.4535324797
0.0002758126102
-0.4519212255
-0.0005467943482
0.4515060457
0.0009619741615
-0.4500621314
-0.001993512352
0.4496198149
0.001205481628
0.001231316096
-0.2294751686
-0.0007228172123
0.2297117598
0.000645409019
-0.2346869434
-0.001495935339
0.2331987266
0.00331603372
-0.2282642338
-0.006316529071
0.2270707868
0.00779910145
-0.2161861915
-0.01477721986
0.2123154881
0.01874675256
-0.2097345086
-0.03550415693
0.1065125403
0.1007791566
0.01681109466
0.02113587399
-0.0261057038
-0.1088914423
0.1083005219
0.02669662423
-0.0212139296
-0.2482835459
0.04040628952
-0.02164615703
0.1249274871
0.125809856
-0.02846888798
-0.2408255265
0.244920613
0.02423137637
-0.2313851391
-0.01435356815
0.2338799479
0.01154687213
-0.2285599885
-0.006177103029
0.2292093949
0.005223337724
-0.0036504059
-0.2334516409
0.2334803581
0.003504371187
-0.4701399182
-0.005266695752
0.4709521799
0.004454434026
-0.4654905077
-0.003321008238
0.4664146341
0.002396881822
0.001439620512
0.9252766861
-0.001346127977
-0.001602296979
0.0005959492638
0.9211280426
0.0001855892175
0.9186094367
0.9173560029
-0.001045465446
0.914384396
-0.002030823627
0.913727261
-0.002809411958
0.9123560472
-0.00144392816
0.9101557602
-0.002055390309
-0.4535015034
0.4534986402
-0.00144106502
-0.4513124841
0.001489925502
0.4512062373
-0.001383678695
-0.4484213043
0.001202311975
0.4483230537
-0.0004064851586
-0.0006803740645
-0.2297222384
-0.0003701541441
0.2295315266
0.0007589004207
-0.2318511841
-0.002484851233
0.2316065358
0.003076919869
-0.2238561425
-0.005624741282
0.2231291786
0.006628083413
-0.2061064886
-0.009649427855
0.2052306546
0.01055808437
-0.09384462813
-0.006930566022
0.09380272775
0.006972466406
-0.02878410091
-0.1373077746
0.1400228789
0.02606899656
-0.02913787592
-0.2583031699
0.2623813512
0.02498375289
-0.2400355481
-0.01591017747
0.2420319863
0.01361251596
-0.2322056181
-0.00816706487
0.2333031831
0.006729146851
-0.002699445294
-0.2343433882
0.2345983719
0.00227423873
-0.4721256003
-0.002951095331
0.4730721259
0.002004569767
-0.4671374298
-0.001362305974
0.4677257357
0.0007740000543
-0.0007425038879
0.9258888941
0.0003528241119
-0.0002225282603
-0.000736230208
0.9211217689
-0.0004244331635
0.9182976396
0.9169315697
-0.001518920891
0.9159033169
-0.002965404561
0.9151737447
-0.004483143686
0.9138737863
-0.002621994236
0.9115239587
-0.003229347947
-0.4537293747
0.4539506465
-0.002843266007
-0.4512992995
0.003104509756
0.4515474465
-0.003352656745
-0.4483264878
0.003583610025
0.4486540726
-0.001814275135
-0.002059027705
-0.2295873379
0.001841014279
0.2295251146
-0.00155790098
-0.2304705032
8.970306691e-05
0.2302160114
0.000525635081
-0.2217801764
-0.00225794304
0.2216449548
0.002663742529
-0.205358726
-0.002782756159
0.2059032282
0.002252809134
-0.09743870644
0.0005893202167
0.09798951915
-0.001140132928
-0.01290207835
-0.153022497
0.15365615
0.01226842537
-0.0158376181
-0.2715977291
0.273238858
0.01415321052
-0.2472260446
-0.009505866176
0.2483426685
0.008095600907
-0.235936331
-0.00426586926
0.2365721524
0.003271862417
-0.0009856776983
-0.2356574569
0.2359173674
0.0005312713594
-0.4742392298
0.0003041340578
0.475149961
-0.001214865293
-0.4679846883
0.001587774933
0.4680900974
-0.001693184035
-0.00335664336
0.9251211024
0.002320678283
0.001803756822
-0.002352713347
0.9201178389
-0.001216877939
0.9171618042
0.9157146918
-0.001953959431
0.9178572763
-0.004023829435
0.9172436147
-0.00604261374
0.9158925707
-0.003793817838
0.913683318
-0.004408155173
-0.4544096348
0.4548648404
-0.004249023408
-0.4519015529
0.004777127845
0.452505829
-0.005381403886
-0.4491795024
0.005972082071
0.4500381047
-0.003183164732
-0.003589881986
-0.2295098818
0.003408447733
0.2295738334
-0.003235958195
-0.2298114903
0.002238279528
0.2297826255
-0.001837586446
-0.2217969752
0.0008973992867
0.2219687092
-0.0007992443256
-0.2079550387
0.001568540519
0.2086740072
-0.00227917733
-0.1006198206
0.002479521605
0.1008886149
-0.001358954274
-0.001389361615
0.004535366635
-0.151748657
0.1508353817
-0.003622091344
0.001049112645
-0.2734070786
0.2722028717
0.0001082190402
-0.2494281815
-0.00128832461
0.2492664401
0.001151403767
-0.2378755402
2.45361145e-05
0.238017441
-0.0005284322415
0.001816637979
-0.2366554768
0.2367477984
-0.002104109366
-0.4750537697
0.004827325071
0.4744611293
-0.004234684708
-0.4678204953
0.004001010098
0.4680484147
-0.004228929519
-0.006219452155
0.9229177243
0.004540812569
0.003882017689
-0.004088346521
0.9179867333
-0.002065175015
0.9151386327
0.9136495168
-0.00246662943
0.9203239057
-0.00493254354
0.9197095288
-0.007560199231
0.9185202264
-0.00491525934
0.9165459283
-0.005507550266
-0.4555395955
0.4562119534
-0.00558761726
-0.453202983
0.006407510978
0.4539823434
-0.007186871325
-0.4512782419
0.008094183267
0.4527878761
-0.004646511788
-0.004871254303
-0.2299410038
0.004780632285
0.2301102217
-0.004695506786
-0.2299296708
0.004027298215
0.2300440159
-0.003757972965
-0.222732799
0.003286804071
0.2230562611
-0.00334224267
-0.2108574569
0.004457228775
0.2115957756
-0.005192363042
-0.1024755251
0.003684240462
0.1026565714
-0.001918596127
-0.001946690617
0.0141395786
-0.1426221353
0.1413121277
-0.01282957097
0.01333081611
-0.2658855947
0.2630699697
-0.01059666115
-0.2470623445
0.005444173404
0.2464834331
-0.005175018579
-0.237771339
0.0046224174
0.2374519591
-0.004663274066
0.005015309831
-0.2369062654
0.2368045533
-0.005087346277
-0.4734961187
0.009101494619
0.4722053254
-0.007810701296
-0.4681243863
0.006660853951
0.4670772158
-0.005613683375
-0.008852108593
0.9195061723
0.006362529824
0.005901130796
-0.005759116521
0.9148937412
-0.00283508373
0.9122145999
0.9108144331
-0.002926134536
0.9232500403
-0.005882852391
0.9226662467
-0.008991826957
0.9216292009
-0.00591445662
0.9197357033
-0.006267145299
-0.4570591222
0.4578953932
-0.006750727554
-0.454978467
0.007723066142
0.4560300713
-0.008774670431
-0.4543027558
0.009931070172
0.4558613427
-0.005660840402
-0.005708058827
-0.2307293789
0.005890943588
0.2309737684
-0.00586158946
-0.2305475185
0.00538727956
0.2307629172
-0.005207533013
-0.2241996835
0.005023746125
0.2246302844
-0.005190202814
-0.2139321633
0.006651981072
0.214776733
-0.007496251597
-0.1038619646
0.004928574145
0.1040451164
-0.002536895794
-0.002574830153
0.01751612839
-0.132404415
0.1311170857
-0.01622879902
0.01905381066
-0.254429291
0.2515400059
-0.01630148164
-0.2427225429
0.0113427876
0.2407556638
-0.009712374079
-0.2358645258
0.007753816743
0.2351164596
-0.00735092495
0.007595882594
-0.2360754096
0.2357152976
-0.007370694939
-0.4706436942
0.01259726774
0.4688293652
-0.01078293869
-0.4659541717
0.009198453913
0.4645848311
-0.007829113375
-0.01117705358
0.9167340138
0.007215398244
0.006733813842
-0.00720404054
0.9109207282
-0.00350243168
0.9085129911
0.9073120014
-0.007012863238
0.9302629035
-0.01421193639
0.9298653198
-0.02153097246
0.928948237
-0.006959036527
0.9275204193
-0.02235665189
-0.4589233682
0.4599542638
-0.007989932129
-0.4571223354
0.009124733972
0.4584016797
-0.01040407816
-0.4576815311
0.01168871743
0.4590733176
-0.006444618703
-0.006433168215
-0.2316749551
0.006876177407
0.2320388553
-0.006943117114
-0.231486821
0.006286823168
0.2316801249
-0.006076188504
-0.2260453449
0.005883251884
0.2267371277
-0.006313439788
-0.2175962113
0.00817694671
0.2186234674
-0.004581974258
-0.004622228585
-0.05289548918
0.003124610994
0.05296339545
-0.003192517266
-0.05793853937
0.006478502841
0.05744286985
-0.01260692272
0.006624089395
0.01592793212
-0.1234386093
0.2433119895
-0.0279497048
0.01553306344
-0.1233846709
-0.2438156626
0.01924705796
0.2408427777
-0.01647529416
-0.2362513311
0.01273731922
0.2350138925
-0.0118689222
-0.2333048726
0.01060628973
0.2327317944
-0.01035758592
0.009526811888
-0.2346520325
0.2341523575
-0.009101292709
-0.4666901712
0.01487007347
0.4645521023
-0.01273200456
-0.4631599296
0.01107558598
0.4616315598
-0.009547216119
-0.01298821377
0.9127419673
0.008721076989
0.008259183281
-0.008364134393
0.9062966488
-0.004114511507
0.9042633682
0.9031974899
-0.003465333099
0.9337282367
-0.007035373713
0.9334353605
-0.01082016985
0.9327330332
-0.007391764198
0.9316489224
-0.007556908743
-0.4630098622
0.4640957344
-0.008477636396
-0.4614749169
0.009691665196
0.4627839873
-0.01100073559
-0.4612759854
0.01243025832
0.4624013723
-0.006650899655
-0.006669324908
-0.2329262993
0.006585763069
0.233086014
-0.006433362044
-0.2326157752
0.005807682663
0.2328747523
-0.005660427355
-0.2282739731
0.00591711992
0.2289480479
-0.006348669637
-0.2223150026
0.009008251958
0.2234497237
-0.005067240509
-0.005075732562
-0.05490127092
0.007249187376
0.1102264834
-0.05485326623
-0.003853383868
-0.003867749725
-0.1113488903
0.008689270021
0.1112486922
-0.01702544468
0.008436372705
0.02720899787
-0.2362927785
0.234141254
-0.02506652856
-0.2343938133
0.01526327655
0.2330987217
-0.01423146845
-0.2325136006
0.01256385882
0.2317287871
-0.01215245906
-0.2312429693
0.01085732255
0.2312838896
-0.01116347782
0.01016480382
-0.2328867002
0.2323305798
-0.009619611776
-0.4626646128
0.01569047227
0.4609774713
-0.01400333081
-0.4600927267
0.01237010184
0.4583171801
-0.01059455518
-0.01247844338
0.9079224829
0.008585054378
0.008712873381
-0.009083064636
0.90290127
-0.004445777529
0.8996260811
0.8987517124
-0.003618446828
0.9373466835
-0.007339593213
0.9371565069
-0.01126826786
0.9366617079
-0.007701751349
0.9358950942
-0.007812688337
-0.4652664638
0.466422699
-0.008857986522
-0.4641102246
0.01010940924
0.4654429079
-0.01144209262
-0.4634414399
0.01288328159
0.4645795589
-0.006916956047
-0.00701754205
-0.2333832021
0.006821302641
0.2334472552
-0.006621982232
-0.2335214158
0.005821468248
0.2336817012
-0.005598027841
-0.2309770283
0.005584303662
0.2315754032
-0.005904596753
-0.2271511621
0.008146104444
0.2284114628
-0.009348813813
-0.1134005126
0.01314582298
0.2263014261
-0.01295353312
-0.1130932034
-0.2250296247
0.01879800575
0.2256192073
-0.01938758834
-0.2297082136
0.01822038428
0.2288050788
-0.01742297742
-0.2292946524
0.01534842787
0.2284952098
-0.01486890214
-0.2284447289
0.01404629599
0.2279221782
-0.01390371205
-0.2294100014
0.01345325385
0.2287004143
-0.01294106274
0.01168248499
-0.2317318318
0.2293871094
-0.009337762608
-0.4594887909
0.01727392827
0.456346894
-0.01413203144
-0.4565307274
0.01264008178
0.454501666
-0.01061102037
-0.01283874455
0.9032193139
0.008844294025
0.008697619568
-0.009126707522
0.899189233
-0.00464643158
0.8951458052
0.8941052808
-0.003677191543
0.941023875
-0.007447509564
0.9409268249
-0.01140317764
0.9406173759
-0.00780315281
0.9401359551
-0.007840885729
-0.4675823427
0.4687451705
-0.0089659806
-0.4667634213
0.01020197231
0.4680646677
-0.01150321866
-0.4659322575
0.01289506265
0.4674199585
-0.007201062392
-0.00718148072
-0.2336627356
0.007459289869
0.233774113
-0.007411047097
-0.2340329993
0.006853383252
0.2341219286
-0.00662698294
-0.2329556367
0.006220411604
0.233279815
-0.006253394824
-0.2312346347
0.007051108231
0.2318702155
-0.007532616566
-0.2258657196
0.009202288244
0.2257177071
-0.009022078103
-0.2266267957
0.01193231361
0.2269214813
-0.01228283424
-0.2273487258
0.01263495578
0.2271644124
-0.01264112203
-0.2270149171
0.01267685421
0.2267600361
-0.01273716441
-0.2268430937
0.01299463817
0.2266004017
-0.01305264297
-0.2275246071
0.01286894348
0.2271697058
-0.01262052643
0.01102496768
-0.2274572737
0.2268638965
-0.0104315905
-0.4556100022
0.01747761586
0.4529384366
-0.01480605029
-0.4516609885
0.01142635032
0.4500957172
-0.009861079055
-0.0119702145
0.8970926767
0.009301723597
0.008795128157
-0.006679837448
0.893898856
-0.004684453184
0.8931504209
0.8894208276
-0.003651459708
0.9446753348
-0.007382858689
0.9446582239
-0.01126957475
0.944504092
-0.00772059376
0.9442604396
-0.007673465455
-0.4698682641
0.4709923774
-0.0088447071
-0.4693312057
0.01002533242
0.4705595413
-0.01125366806
-0.4688552867
0.01254999413
0.4702248496
-0.006994517724
-0.006925039311
-0.2343434136
0.007725944058
0.2346429732
-0.008004294881
-0.2344442317
0.008293600666
0.234608114
-0.008266824259
-0.2339784661
0.008072901772
0.2341666207
-0.008027906274
-0.233146789
0.008120808078
0.2334352409
-0.008246898608
-0.2252334082
0.008642314533
0.2250456281
-0.00840960126
-0.2277346231
0.0102688326
0.227969648
-0.01058216114
-0.2270926472
0.01141965477
0.2271483731
-0.01166673316
-0.2263835332
0.01231432408
0.2263168911
-0.01248984989
-0.2260199997
0.01277112076
0.2258229981
-0.0127406063
-0.2260052868
0.01207842921
0.2255169382
-0.01159102021
0.01012553335
-0.2252807622
0.2248015386
-0.009646309757
-0.449285815
0.0164146589
0.4476030686
-0.01473191251
-0.4485526331
0.01312311401
0.4469939325
-0.01156441338
-0.01107909208
0.8901253102
0.009900711783
0.008145746772
-0.006245277356
0.8890650413
-0.004299015311
0.8912041589
0.8851218123
-0.003556730561
0.9482320653
-0.007178244606
0.9482797379
-0.01092069718
0.9482465446
-0.007481568191
0.9481866227
-0.007365312066
-0.4720609848
0.4731184514
-0.008539034839
-0.4717387316
0.009638779122
0.4728691477
-0.01076919521
-0.4715226021
0.01194486476
0.4727447287
-0.006632883845
-0.006534107498
-0.2356919816
0.007275622912
0.2360191814
-0.007602822725
-0.2353839125
0.008618531696
0.2357487003
-0.008949020856
-0.2348021412
0.009629419115
0.235072763
-0.009783954594
-0.2341406383
0.01016151669
0.2343679371
-0.01028456852
-0.2244231061
0.01041058125
0.2242168105
-0.01017328732
-0.2285256838
0.01152685175
0.2286556198
-0.01171557871
-0.2273026693
0.01222900996
0.2273111766
-0.01235884097
-0.2260545287
0.01253629589
0.225909041
-0.01250208604
-0.2250645773
0.01200467609
0.2247466417
-0.01169887557
-0.2242303184
0.01064185893
0.2238596294
-0.01027116996
0.009138535384
-0.2235352106
0.2231519896
-0.008755314392
-0.4460482193
0.0150986353
0.4446178104
-0.01366822637
-0.4455574496
0.01226793915
0.4441738463
-0.01088433579
-0.01383419776
0.8851371446
0.009283611149
0.009538752238
-0.009091895195
0.8843227387
-0.001688060292
0.883800324
0.883433752
-0.003408247961
0.9516403133
-0.00686539356
0.9517368835
-0.01040841568
0.9517895667
-0.00712277467
0.9518590554
-0.006958073797
-0.4741150064
0.475092145
-0.0080999133
-0.4739433407
0.009105821448
0.4749645565
-0.01012703721
-0.4738906826
0.01117421289
0.4749623385
-0.006181066112
-0.006064802695
-0.236923306
0.00673426693
0.2372004233
-0.007011384298
-0.2367027335
0.007844471916
0.2369797781
-0.008121516523
-0.2361159937
0.008939734199
0.2363936619
-0.009215744626
-0.2351408948
0.01017934566
0.235437227
-0.01045344317
-0.2237262933
0.01078234568
0.2236339542
-0.01068088466
-0.2288812724
0.01165873704
0.2289081229
-0.01170414212
-0.2271335092
0.01164550954
0.2270077806
-0.01154111749
-0.2252824893
0.01109314719
0.2251267698
-0.01093742774
-0.2239209938
0.01034292359
0.223686665
-0.01010859484
-0.2228901678
0.009324645308
0.2226082211
-0.009042698689
0.008158130314
-0.2221412194
0.2218316766
-0.007848587502
-0.4433041238
0.01368787607
0.4420992728
-0.01248302511
-0.4429106098
0.01127855729
0.4416991654
-0.01006711285
-0.01291301707
0.8806092403
0.00857147378
0.008869447518
-0.008529089295
0.8799388109
-0.004236650476
0.8795078852
0.8791971015
-0.003221260485
0.9548615738
-0.006476330863
0.9549919539
-0.009785111929
0.9550983477
-0.006684664552
0.9552484148
-0.006489806738
-0.4760067136
0.476897289
-0.007575239948
-0.4759280013
0.008483163495
0.476838669
-0.009393831183
-0.4759618092
0.0103145878
0.4768903932
-0.005677477801
-0.00556569401
-0.2379621812
0.00615414596
0.2381951093
-0.006387074049
-0.2377253129
0.007072297358
0.2379479758
-0.007294960181
-0.2370879191
0.007936848777
0.237290509
-0.008139438662
-0.2360824037
0.008700795401
0.2362475807
-0.008865972394
-0.223541798
0.009024777985
0.2235405797
-0.009023559706
-0.2289814363
0.009724157297
0.2290116288
-0.009754349798
-0.2268402672
0.009754714127
0.2268011304
-0.009715577339
-0.2247278925
0.009481039182
0.2246135257
-0.009366672432
-0.2230795411
0.008926944653
0.2229040744
-0.008751477876
-0.2218639121
0.008154286962
0.2216451847
-0.007935559581
0.007235156836
-0.2210201684
0.2207682271
-0.006983215501
-0.4409937423
0.01229466335
0.4399788725
-0.01127979352
-0.4405988676
0.01024811474
0.4395443449
-0.009193592048
-0.01189380849
0.8765455237
0.00782441645
0.008133108617
-0.007892086817
0.8759370893
-0.003930489878
0.8755462882
0.8752666117
-0.003010147647
0.9578717214
-0.006040859953
0.9580226662
-0.009097509204
0.958154997
-0.00620035427
0.9583432858
-0.005992025924
-0.4777263287
0.4785316864
-0.007005711938
-0.4776936795
0.007818061435
0.4784991742
-0.008623556179
-0.4777520877
0.00942768852
0.4785510493
-0.005161783807
-0.005064866284
-0.2388343925
0.005574060558
0.2390298227
-0.005769490697
-0.2385482703
0.006333660935
0.2387280268
-0.006513417444
-0.2378262943
0.007021742802
0.2379838899
-0.007179338424
-0.2366728296
0.007608959327
0.2367944095
-0.007730539196
-0.2236179733
0.007823775855
0.2236660004
-0.007871802993
-0.2290731281
0.008381804586
0.2290855573
-0.00839423378
-0.2266937011
0.008376495023
0.2266606136
-0.008343407565
-0.2243133732
0.00815933825
0.2242253018
-0.008071266871
-0.2224421188
0.007733126211
0.2223064893
-0.007597496713
-0.2210621374
0.007130891718
0.2208890894
-0.006957843753
0.006395613093
-0.2201118441
0.2199064124
-0.006190181413
-0.4390452999
0.01098049735
0.4381866198
-0.01012181722
-0.4385897562
0.009237828428
0.4376738489
-0.008321921157
-0.01084773074
0.8729223406
0.007083179352
0.007387734547
-0.007226236001
0.8723155945
-0.003607123137
0.8719271754
0.8716594885
-0.002786603037
0.9606583245
-0.005582699437
0.9608187626
-0.008382390242
0.9609546878
-0.005697307347
0.9611469394
-0.005488736478
-0.4792763525
0.4800001232
-0.006421078063
-0.4792531509
0.00714353809
0.4799620048
-0.007852391941
-0.4792912937
0.008552196096
0.4799769816
-0.004659674866
-0.004578209165
-0.2395661334
0.005016176141
0.2397302382
-0.005180280948
-0.23921422
0.005646405469
0.2393602867
-0.005792472145
-0.2384039332
0.006199306386
0.2385284296
-0.006323802743
-0.2371093195
0.006658582265
0.237199747
-0.006749009801
-0.2238614545
0.006810897444
0.2239409238
-0.006890366774
-0.2291037502
0.00726883092
0.2291043471
-0.007269427761
-0.2265677181
0.007238963677
0.2265385507
-0.007209796226
-0.2239896856
0.007059320003
0.223919329
-0.006988963374
-0.2219444624
0.006720598819
0.2218367858
-0.006612922202
-0.2204234712
0.006240145793
0.220284031
-0.006100705535
0.005642675268
-0.2193692761
0.2191996896
-0.005473088704
-0.4373958802
0.009766792656
0.436667235
-0.009038147521
-0.4368461181
0.008279209193
0.4360506482
-0.007483739357
-0.009820887504
0.8697057076
0.006374645728
0.006662874745
-0.00656410297
0.86905881
-0.003283167228
0.8686462396
0.8683763213
-0.002560992573
0.963219317
-0.005122596922
0.963380367
-0.007670858724
0.9635029496
-0.005199684193
0.9636732822
-0.004997517328
-0.4806651126
0.4813125698
-0.005847141369
-0.4806245439
0.006487468306
0.4812469412
-0.007109865625
-0.480611983
0.007718343168
0.4812001751
-0.004188410917
-0.004118124307
-0.2401810893
0.00449623659
0.240319288
-0.004634435216
-0.2397569181
0.005021578291
0.2398765483
-0.005141208509
-0.2388628345
0.005470546449
0.2389627337
-0.005570445633
-0.2374347551
0.005835330767
0.2375024771
-0.005903052724
-0.224214155
0.005946735676
0.2243156248
-0.006048205466
-0.2290924106
0.006338365959
0.2290843578
-0.006330313152
-0.2264553948
0.006290371269
0.2264289747
-0.006263951195
-0.2237282994
0.006137215787
0.2236704972
-0.006079413598
-0.2215459966
0.005860931177
0.2214585605
-0.005773495079
-0.2199056252
0.005469830372
0.2197913841
-0.005355589323
0.004977217848
-0.218754812
0.218613216
-0.004835621908
-0.4359944637
0.008670175936
0.435372834
-0.008048546298
-0.4353321147
0.007394581649
0.4346400536
-0.006702520548
-0.008846611799
0.8668560303
0.005714871511
0.005981417577
-0.005929617225
0.8661418154
-0.002970986924
0.8656876093
0.8654053344
-0.002340624312
0.9655599414
-0.004674986597
0.9657147293
-0.006983768397
0.9658117314
-0.004721420882
0.9659415714
-0.004530636752
-0.4819044023
0.4824819367
-0.005298955302
-0.4818283652
0.005865581444
0.4823745347
-0.006411750947
-0.4817463692
0.00694138376
0.4822535547
-0.003757531235
-0.003691038008
-0.2406993261
0.004020636104
0.2408160599
-0.004137369847
-0.2402026833
0.004460756914
0.2403014922
-0.004559565812
-0.2392332022
0.004829447681
0.2393146913
-0.004910936739
-0.2376793705
0.00512390954
0.237730674
-0.005175213004
-0.2246466812
0.005208742389
0.2247642605
-0.005326321702
-0.2290502076
0.00555048568
0.2290360722
-0.005536350206
-0.2263532595
0.005490795803
0.2263291821
-0.005466718398
-0.2235119179
0.005358059429
0.2234634863
-0.005309627825
-0.2212202377
0.005128282247
0.2211479369
-0.005055981458
-0.2194791528
0.004804579646
0.2193842213
-0.004709648172
0.004393236067
-0.2182406634
0.2181212345
-0.004273807148
-0.4347972091
0.00769089941
0.4342637944
-0.007157484702
-0.434014887
0.006591654796
0.4334112767
-0.005988044492
-0.007943219144
0.8643328596
0.005112294287
0.005354095527
-0.005336630161
0.8635352264
-0.002677897869
0.863028877
0.8627274365
-0.002131032167
0.9676909735
-0.004250666524
0.9678343636
-0.006336329879
0.9678973948
-0.004272352555
0.9679741842
-0.004096590116
-0.4830077794
0.4835221718
-0.004786745045
-0.4828847323
0.005287947899
0.4833642028
-0.005767418356
-0.4827248555
0.006228701437
0.4831630767
-0.0033635306
-0.003303392004
-0.2411377155
0.003589388265
0.241236798
-0.003688470836
-0.2405719463
0.003960311844
0.2406542631
-0.004042628639
-0.2395368879
0.004266438062
0.2396042921
-0.00433384225
-0.2378653104
0.004507101974
0.2379044897
-0.004546281297
-0.225129945
0.004580211304
0.2252543962
-0.004704662488
-0.2289873854
0.004875814382
0.2289693378
-0.00485776686
-0.2262603742
0.004809929542
0.2262385318
-0.004788087221
-0.2233297236
0.004694069367
0.2232886117
-0.004652957406
-0.2209494856
0.004500314406
0.2208888629
-0.004439691681
-0.2191232817
0.004228860213
0.2190434775
-0.004149056032
0.003881755594
-0.2178062461
0.2177046559
-0.003780165333
-0.4337683965
0.006824711653
0.4333079953
-0.006364310447
-0.4328657052
0.00587255477
0.4323375797
-0.0053444293
-0.007121061079
0.8620970699
0.004570698405
0.004786152439
-0.004793575799
0.8612077411
-0.002408503487
0.8606438047