/*--------------------------------*- C++ -*----------------------------------*\
| =========                 |                                                 |
| \\      /  F ield         | OpenFOAM: The Open Source CFD Toolbox           |
|  \\    /   O peration     | Version:  v1912                                 |
|   \\  /    A nd           | Website:  www.openfoam.com                      |
|    \\/     M anipulation  |                                                 |
\*---------------------------------------------------------------------------*/
FoamFile
{
    version     2.0;
    format      ascii;
    class       surfaceVectorField;
    location    "1.78";
    object      Uf;
}
// * * * * * * * * * * * * * * * * * * * * * * * * * * * * * * * * * * * * * //

dimensions      [0 1 -1 0 0 0 0];


internalField   nonuniform List<vector> 
25162
(
(99.99865023 0.005610155511 -1.968360988e-21)
(99.994746 0.005010307432 5.834401278e-21)
(99.99793244 0.01357287716 -1.942152193e-21)
(99.99254622 0.01709547466 1.973398613e-21)
(99.99653864 0.0268183421 -3.872401198e-21)
(99.98760368 0.03647181893 1.169856303e-20)
(99.99839437 0.03070553728 1.196791332e-21)
(99.97888543 0.06776477192 -7.684416044e-21)
(99.99082326 0.06806558406 -1.286787025e-21)
(99.99741578 0.05578019463 1.862823527e-21)
(99.99915177 0.03346356618 9.202779753e-22)
(99.98928405 0.09331092921 1.850446981e-21)
(99.99753888 0.05311966383 9.036447347e-22)
(99.99817942 0.04165915269 -9.344214295e-22)
(99.99695103 0.06747983085 9.036078272e-22)
(99.98340196 0.1515299474 1.797574442e-21)
(99.99666794 0.08522916591 0)
(99.9964744 0.1047504981 -3.279955095e-21)
(99.97827249 0.2311188461 -3.279938024e-21)
(99.99597362 0.1279908188 -8.517083714e-22)
(99.99541921 0.1547525718 2.857846554e-21)
(99.97176743 0.3380069464 3.107968997e-21)
(99.99490287 0.1849785943 3.829511102e-22)
(99.9944885 0.2182202926 -2.505787455e-21)
(99.96683926 0.4705812023 3.600467593e-22)
(99.99423349 0.2537050653 -2.535768366e-21)
(99.99421996 0.2902168477 3.161563399e-22)
(99.96663262 0.6156701614 -1.669965749e-21)
(99.9945338 0.3259184782 2.265705946e-21)
(99.9952054 0.3587218321 1.904133422e-21)
(99.97419039 0.7461738557 -8.308085603e-22)
(99.99622724 0.3863986255 0)
(99.99764796 0.4066805185 0)
(99.98992577 0.8252854612 1.580894268e-22)
(99.99930631 0.4174826847 0)
(100.0009573 0.4179531814 5.458937339e-22)
(100.0090786 0.8276014561 -9.4172907e-24)
(100.0025143 0.4082652972 1.076040102e-21)
(100.0038032 0.389758665 -3.071608878e-22)
(100.0238246 0.7559392392 -6.644570316e-22)
(100.0047137 0.3642635906 -1.20148234e-21)
(100.0052884 0.3340030299 8.667125673e-23)
(100.03093 0.6357999326 1.836808769e-21)
(100.005555 0.3009354589 4.741284702e-22)
(100.0055315 0.2669239921 0)
(100.0311608 0.5005561773 0)
(100.0052993 0.2336051619 0)
(100.0050658 0.2020097409 7.733588521e-22)
(100.0269323 0.3751721588 1.605511527e-21)
(100.0051542 0.173218052 -3.916488498e-21)
(100.0049965 0.1454554529 -1.459773939e-21)
(100.0225455 0.2658013757 3.176239251e-21)
(100.0042999 0.1213594401 3.176002235e-21)
(100.0032168 0.1010815857 -8.904403909e-22)
(100.0135799 0.1828376704 -4.947604779e-23)
(100.0008986 0.08657436582 1.73644583e-21)
(100.0084891 0.08397247397 -7.741216954e-21)
(100.0486195 0.2065913224 4.454210582e-22)
(100.0173514 0.1857358581 -2.756234277e-21)
(100.002886 0.08599468145 -1.60469267e-21)
(100.0059568 0.04878381283 -9.720885603e-22)
(100.0329085 0.1269564674 1.541143421e-20)
(100.0049595 0.02298668906 -7.810891255e-21)
(100.0242384 0.06782653476 -1.643264384e-20)
(100.0216623 0.02135004772 1.404151405e-21)
(99.98758196 0.01543377487 9.739370136e-21)
(99.98024053 0.008038747787 2.563806665e-22)
(99.98055217 0.03771970948 1.554459485e-20)
(99.97165646 0.02805784018 -1.362612539e-20)
(99.96741307 0.07457696376 8.079078526e-21)
(99.95311101 0.06144783062 -2.111368556e-20)
(99.96062539 0.1201075908 -1.376921075e-21)
(99.92170868 0.1165353192 4.062732467e-20)
(99.93320411 0.1513510805 -8.9439194e-21)
(99.9414347 0.1542951496 -1.919061309e-21)
(99.95527392 0.1533945753 3.773503811e-21)
(99.97258483 0.1088945252 1.876444421e-21)
(99.95670257 0.1820688652 1.829300956e-21)
(99.94253671 0.1988421158 1.863176719e-21)
(99.90355873 0.2623439928 -3.767822534e-21)
(99.92820594 0.2556530496 -2.151596979e-23)
(99.9332101 0.2947338072 1.797856549e-21)
(99.91130748 0.3256325455 -1.794617039e-23)
(99.85471552 0.4251826451 0)
(99.90231685 0.3818630375 0)
(99.87610894 0.4372575905 -2.236754792e-21)
(99.90838874 0.4411373667 -4.394081168e-21)
(99.8965032 0.4648301932 -5.893885151e-23)
(99.86730101 0.5371131131 -9.882981639e-21)
(99.88814166 0.5087003928 -3.39742387e-21)
(99.86069051 0.6882116725 2.839574311e-23)
(99.87962152 0.6497454865 -2.225957702e-21)
(99.82321032 0.7956763876 -1.2167049e-20)
(99.85347273 0.7484526595 -2.96579555e-21)
(99.8309797 0.9756739894 -5.50856622e-21)
(99.8574259 0.9130929352 -5.199666483e-21)
(99.78811665 1.124845354 5.665135756e-22)
(99.82733171 1.049677949 -6.604399223e-21)
(99.82167538 1.30438271 -4.587284004e-23)
(99.85579748 1.207829072 -4.267575191e-21)
(99.78035174 1.497785519 -6.568773047e-21)
(99.82599376 1.384922509 -3.198919651e-21)
(99.85092042 1.619404263 -3.645025278e-21)
(99.88827966 1.480492528 -5.343751414e-21)
(99.8218226 1.847117165 -1.325577721e-21)
(99.86682511 1.690264454 -3.400008734e-21)
(99.9256614 1.834580951 -1.929523902e-21)
(99.95863839 1.653134094 -2.150656323e-21)
(99.91828812 2.073803114 -5.346355012e-23)
(99.95016852 1.877565998 -1.276560893e-21)
(100.0215268 1.883630385 1.831767075e-22)
(100.0354846 1.670651077 -2.099480882e-22)
(100.0350293 2.103025952 -1.38726258e-21)
(100.0442183 1.883865565 -7.870079522e-22)
(100.1071323 1.763243003 -2.691403652e-22)
(100.0877516 1.536358034 -2.313184224e-22)
(100.1326783 1.937116524 -8.301874238e-23)
(100.1225223 1.714950073 2.16184606e-21)
(100.1566174 1.510554619 2.433948444e-21)
(100.1146854 1.296885251 4.227629078e-21)
(100.1855895 1.636563598 4.230153457e-21)
(100.1611373 1.434545253 5.484131654e-22)
(100.1661327 1.20371308 -6.781529197e-21)
(100.1155961 1.022079814 -6.316684668e-21)
(100.1916694 1.288128157 -2.284877987e-21)
(100.1624715 1.122222969 -2.248086257e-21)
(100.1473632 0.9109432202 -5.354298599e-21)
(100.0967592 0.7675692056 4.897378254e-22)
(100.1637942 0.9630459024 -1.431645065e-21)
(100.1392931 0.8391774346 5.830248625e-21)
(100.0908733 0.5264979571 -1.346692688e-20)
(100.1451342 0.7179889887 -1.346588053e-20)
(100.20359 0.7761756063 1.362197809e-20)
(100.1253952 0.5973548162 -2.755153487e-20)
(100.1060649 0.4936236769 1.191764216e-20)
(100.1471143 0.526445083 -1.683345857e-20)
(100.0865143 0.4058665734 2.414283335e-20)
(100.0650219 0.3591243534 2.682227592e-20)
(100.0805202 0.2447015393 2.291611754e-20)
(100.1837372 0.3858309759 -1.948892364e-22)
(100.1403546 0.4340934424 4.815529934e-20)
(100.0827111 0.342991364 2.610379591e-21)
(100.0576561 0.1427406338 -6.918029466e-22)
(100.1285783 0.2355891831 3.288440969e-20)
(100.0462981 0.06548522683 -7.65448723e-21)
(100.0970723 0.1261562924 -1.743358834e-20)
(100.0834311 0.03959880719 7.805655209e-21)
(99.9669113 0.01950137413 -2.33845962e-20)
(99.96183047 0.007343684359 -1.168758894e-20)
(99.94759785 0.04932117454 -5.06185287e-20)
(99.94357498 0.02740079995 1.089299213e-20)
(99.91237974 0.1006714943 1.050210631e-20)
(99.90491774 0.06540515652 -4.28481321e-20)
(99.87518242 0.1779589847 2.586542058e-20)
(99.84171519 0.1311041057 4.657486572e-20)
(99.83299406 0.1945171385 -4.118712054e-20)
(99.89337693 0.1914296091 -7.671037907e-21)
(99.83552197 0.2158782859 -5.695659078e-20)
(99.85003105 0.2398481357 -3.846244684e-21)
(99.83165283 0.3300009925 -7.510945555e-21)
(99.81190627 0.3171293732 -3.743679622e-21)
(99.74286881 0.3812419561 2.625730492e-20)
(99.76732264 0.4122185901 7.388995905e-21)
(99.74780157 0.5406978849 -6.500735901e-21)
(99.71551601 0.5289025375 4.791477265e-21)
(99.61459377 0.6352190181 -3.701150261e-20)
(99.68415647 0.6481715976 2.593047946e-21)
(99.63296695 0.6945498352 -1.61029385e-20)
(99.6678536 0.8101904871 -6.644838238e-21)
(99.6422078 0.8073565881 0)
(99.58120158 0.8899460688 6.878383831e-21)
(99.61238364 0.8999765394 -6.620346009e-21)
(99.55625837 1.222878383 3.233395212e-21)
(99.51781802 1.229073988 1.267153235e-20)
(99.4386517 1.352900215 6.278553151e-21)
(99.48685976 1.354805538 1.574091912e-20)
(99.46011516 1.760938322 -2.895699007e-21)
(99.4043665 1.786470428 5.586674107e-21)
(99.31261251 1.964189785 2.610455029e-20)
(99.38347668 1.944659501 -5.063694288e-20)
(99.43276285 2.390774521 -4.939116865e-21)
(99.3589752 2.453978332 -5.111730474e-21)
(99.27609485 2.687937159 9.167537039e-21)
(99.3686722 2.624634051 1.31716835e-19)
(99.53929872 2.998098352 1.529258467e-21)
(99.45804348 3.121563916 1.20638167e-19)
(99.40801954 3.402414148 9.858719553e-20)
(99.50959027 3.267016914 -5.855168593e-21)
(99.79033155 3.411561351 3.427596749e-22)
(99.72429925 3.607352964 5.080347881e-21)
(99.73538363 3.891485604 -3.598936356e-20)
(99.81131689 3.671921599 -4.369230219e-22)
(100.1095366 3.465258043 3.747490526e-23)
(100.0860351 3.716902855 6.527704583e-23)
(100.150897 3.951575953 -1.270450088e-20)
(100.1738874 3.677788457 -3.810982644e-22)
(100.3717498 3.165133601 1.977044855e-20)
(100.3966701 3.43249473 3.892321505e-20)
(100.4870873 3.592128794 1.315426769e-19)
(100.4529877 3.312010297 -4.059705144e-21)
(100.5065434 2.644088577 3.075672091e-21)
(100.5653762 2.88927267 3.753415185e-21)
(100.6525966 2.981023205 -4.005128537e-20)
(100.5845587 2.733149403 6.408149633e-21)
(100.5186863 2.055971892 -6.27982308e-21)
(100.5935646 2.261248083 -1.463011823e-20)
(100.6655308 2.306239786 -5.088716291e-21)
(100.5822845 2.104240724 5.644204774e-21)
(100.5244306 1.66729384 -1.77698009e-20)
(100.4524976 1.510007621 -1.197640529e-20)
(100.5780734 1.682708945 -1.199255596e-20)
(100.5027996 1.532848394 6.395314821e-21)
(100.3595395 1.00934795 -5.326113321e-20)
(100.4802302 1.233624331 -2.78675279e-20)
(100.559822 1.220853485 -8.074006574e-20)
(100.4174448 1.020394975 -3.806378547e-20)
(100.2635062 0.6801843364 -6.100025572e-20)
(100.3575941 0.8371883435 2.422296964e-20)
(100.4096485 0.8144725696 -2.895297756e-20)
(100.3014437 0.6815824097 -2.532122006e-20)
(100.2242283 0.3737890455 9.910475699e-21)
(100.3859829 0.5116031887 -2.621241091e-20)
(100.3627751 0.6189459239 -1.595443206e-22)
(100.2703432 0.5597055384 -1.49612629e-20)
(100.1628491 0.2162372741 1.541877464e-20)
(100.2768011 0.309412111 2.741067283e-20)
(100.1297686 0.09878001024 -1.961005387e-21)
(100.2078862 0.1646670718 -3.959301528e-21)
(100.1765891 0.05132948121 0)
(99.94325658 0.01437678085 2.347948185e-20)
(99.94828732 0.001574409956 -3.917694332e-21)
(99.90680001 0.04145863094 1.975371947e-20)
(99.91807228 0.01076480623 2.74227361e-20)
(99.84136661 0.09512515036 -7.852196225e-21)
(99.85439346 0.04097444445 -3.881900765e-21)
(99.75712673 0.1952248953 0)
(99.75047021 0.1008259033 5.986515845e-21)
(99.70854266 0.1893799082 1.820188156e-20)
(99.7694518 0.227238672 -5.319181541e-20)
(99.69741321 0.2230694067 1.368489217e-20)
(99.70153735 0.2719088707 0)
(99.64022397 0.4126079152 2.404083228e-22)
(99.62718957 0.3685480129 -3.020959516e-20)
(99.52691428 0.4213694852 -3.018927233e-20)
(99.53855797 0.4897610875 6.123107954e-20)
(99.45934787 0.7026594838 -9.099499645e-20)
(99.43434555 0.6403645314 3.315791129e-20)
(99.2872971 0.734886191 -6.085635087e-20)
(99.34861392 0.8198024643 -3.02970801e-20)
(99.27866593 0.8328642848 -4.975284743e-20)
(99.26539077 1.080150696 7.17900154e-21)
(99.23905958 1.042558585 1.426580836e-20)
(99.1433275 1.124037781 3.607335285e-20)
(99.17194156 1.173064939 7.11914138e-21)
(98.99975016 1.68649099 -8.114122523e-21)
(98.95396405 1.643947096 6.814727129e-21)
(98.82575118 1.774733377 -4.940883751e-20)
(98.87876508 1.831031811 -4.645332106e-20)
(98.7518934 2.524306613 -5.535199618e-21)
(98.67309876 2.487932566 -2.47525614e-19)
(98.52433587 2.688245855 -1.959960482e-19)
(98.61820405 2.738273014 -1.087496657e-21)
(98.64732076 3.583700543 0)
(98.52313108 3.582963962 1.093404377e-20)
(98.37532297 3.882231191 0)
(98.52729683 3.886800163 1.221227059e-21)
(98.86495982 4.709094407 -5.01089445e-19)
(98.7003824 4.797223427 -1.845872975e-20)
(98.62164792 5.183816046 -4.973108591e-20)
(98.82003979 5.075275605 -4.49889884e-19)
(99.51623962 5.496988926 1.208638127e-19)
(99.3565572 5.715723201 -3.472001852e-22)
(99.41853441 6.107128033 5.754143191e-20)
(99.58028173 5.841288893 1.288599e-19)
(100.3491387 5.561894948 4.046629193e-20)
(100.2837043 5.886567935 -8.000800775e-21)
(100.4516981 6.165562452 4.333809262e-20)
(100.5004071 5.798078761 9.927786842e-20)
(100.9793944 4.947772332 1.568496154e-20)
(101.0181067 5.292256212 1.099902776e-19)
(101.2073003 5.428791884 1.590547502e-20)
(101.1381781 5.06533371 -9.213470766e-20)
(101.2418638 3.998494772 -8.556732813e-22)
(101.3453225 4.30082526 -2.096526665e-19)
(101.4990036 4.33634624 -2.509965316e-19)
(101.3698376 4.034563799 1.586438073e-19)
(101.2215207 3.012831046 9.16503839e-20)
(101.3454505 3.251197162 4.02789113e-20)
(101.4528993 3.228297641 -4.715426827e-20)
(101.3125799 3.002474214 2.601372432e-19)
(101.1725512 2.331859601 0)
(101.0535694 2.156780605 4.778508559e-20)
(101.243182 2.295022623 0)
(101.1146137 2.130221043 0)
(100.8024031 1.402688258 2.945098313e-20)
(101.0041522 1.645454865 1.897032992e-20)
(101.0840697 1.546357745 -1.687046954e-20)
(100.8668014 1.345101116 3.692843948e-20)
(100.5861996 0.9246844309 -3.374102346e-20)
(100.7403668 1.090426942 -1.506330711e-20)
(100.7876843 1.007140049 -1.521470403e-20)
(100.6270111 0.8756669659 -7.358574205e-21)
(100.4259273 0.4453221928 -9.393237979e-21)
(100.6414354 0.5592042974 -1.965746116e-20)
(100.6683267 0.7328413416 -2.59924205e-21)
(100.5482466 0.7010443875 5.446039506e-21)
(100.3100518 0.2553272969 7.890413423e-21)
(100.4559264 0.3337304254 1.199427149e-20)
(100.2450972 0.1156123082 -1.997942581e-21)
(100.3396537 0.1741759835 -3.528608137e-21)
(100.2856205 0.05368678492 -5.074934588e-22)
(99.92822006 -0.002345583768 0)
(99.9505171 -0.009953111611 0)
(99.87208402 0.008998021121 3.959326552e-21)
(99.90743498 -0.02406032916 0)
(99.77125056 0.04828042149 1.003914183e-20)
(99.81745259 -0.01646241476 -3.326938153e-21)
(99.63010774 0.1541658862 1.688506115e-20)
(99.66723353 0.02053386523 2.212334023e-20)
(99.58427325 0.1195462573 -6.654010061e-21)
(99.6272746 0.2022086164 2.356181225e-20)
(99.55391627 0.1636707995 1.905681696e-21)
(99.53585001 0.2324679424 -9.567755887e-21)
(99.40778365 0.404812292 0)
(99.4145603 0.3330273153 -1.975684777e-20)
(99.28745151 0.3606349 -1.621359828e-20)
(99.26954757 0.4615724432 4.028313964e-21)
(99.10051319 0.7274850161 0)
(99.09850911 0.6255083408 4.02788268e-21)
(98.90778097 0.679862132 -4.155924283e-21)
(98.93169574 0.838302806 2.012695909e-20)
(98.85402635 0.8239759408 5.196418089e-21)
(98.73976421 1.176260938 2.313390465e-19)
(98.72682382 1.101623458 0)
(98.5941927 1.165901202 -1.567279502e-20)
(98.60626036 1.256380616 0)
(98.23562345 1.942544234 2.018069869e-19)
(98.2005606 1.841073617 2.629431544e-19)
(98.02242407 1.953630056 -8.759493826e-20)
(98.05855323 2.079295394 -5.717221717e-20)
(97.69877089 3.087505666 2.761849078e-19)
(97.61616738 2.966146558 -5.720468681e-20)
(97.37454999 3.177266963 -2.35252853e-19)
(97.47299693 3.3284563 1.160063489e-19)
(97.31849693 4.743562557 -5.969841074e-19)
(97.14110239 4.633391585 -2.042812216e-19)
(96.86974934 5.00213492 -2.039491927e-19)
(97.09362439 5.13677599 -2.63575417e-20)
(97.60847685 6.753330695 -1.117962534e-19)
(97.30145842 6.761780001 -1.684840738e-19)
(97.13750841 7.327456535 1.35481471e-20)
(97.52437809 7.295043145 -3.336027135e-20)
(99.02510212 8.281412919 -1.870537369e-19)
(98.6949759 8.559268569 -1.073955596e-21)
(98.84282019 9.165598885 -9.022176745e-20)
(99.2119636 8.789528931 -9.61346806e-20)
(100.9404523 8.270948868 -4.715676733e-20)
(100.8102183 8.760270713 -1.312680092e-20)
(101.1913089 9.101287814 -1.528672369e-20)
(101.2720424 8.531636065 -2.061082613e-20)
(102.1666362 6.968045268 4.886228619e-21)
(102.2592763 7.446852272 1.494661619e-19)
(102.606545 7.505264495 1.595037192e-19)
(102.4517058 7.014195735 -1.120433289e-20)
(102.5053165 5.295449302 3.95507865e-19)
(102.6994757 5.667296436 4.463265177e-19)
(102.937845 5.590734291 2.148952582e-19)
(102.6970981 5.235028648 -1.824280947e-19)
(102.3058436 3.802016617 1.664031936e-19)
(102.5140447 4.063868399 2.375863094e-19)
(102.6426459 3.954832538 -1.495127729e-19)
(102.4149025 3.714237693 3.061580282e-20)
(102.0740968 2.792184636 -1.489276323e-20)
(101.8953932 2.612881977 -3.864399852e-21)
(102.1431887 2.685227412 1.094808092e-20)
(101.9564056 2.527933054 2.275661612e-20)
(101.3996485 1.644152328 -9.518426728e-20)
(101.690896 1.880296547 -6.027864171e-20)
(101.7437738 1.686556729 -3.374115337e-20)
(101.4483109 1.513703211 -1.72529141e-20)
(101.0090911 1.055560223 1.170764901e-20)
(101.2278129 1.207881196 3.531254116e-20)
(101.2466044 1.065261387 -3.957761823e-21)
(101.0342834 0.9548517636 -3.867000902e-21)
(100.6581779 0.4483909865 2.038086469e-21)
(100.9179099 0.5088140074 0)
(101.0197675 0.7372765841 -9.843206481e-23)
(100.8868715 0.7464888379 -1.054272516e-20)
(100.4742055 0.2500520155 4.489439647e-22)
(100.6429589 0.2963302137 2.037902728e-21)
(100.3703517 0.1110507312 -2.043350605e-21)
(100.4707591 0.1484281801 -2.045224897e-21)
(100.3903617 0.04483571642 -2.052250817e-21)
(99.93462044 -0.03147862294 0)
(99.98023087 -0.02720221555 1.940288304e-21)
(99.85894141 -0.04988168336 -7.931076919e-21)
(99.92487148 -0.07681238549 -1.95488278e-21)
(99.72216207 -0.04285880851 8.213028404e-21)
(99.81098413 -0.1072813951 -3.942523348e-21)
(99.51801063 0.03580322378 1.076400982e-20)
(99.61872729 -0.1110337571 3.026096962e-21)
(99.48206552 -0.01779938584 -5.445261515e-24)
(99.49367303 0.1058350742 -7.985147863e-21)
(99.42568681 0.03049806687 -8.066760936e-21)
(99.38101882 0.1080984717 0)
(99.1715973 0.2873891576 -1.621319803e-20)
(99.2098074 0.194890312 0)
(99.06545389 0.1853655949 -1.000126139e-22)
(99.00353593 0.3083353321 -6.915021173e-23)
(98.71467512 0.5907638612 8.363697329e-21)
(98.75619081 0.4567590474 1.254651528e-20)
(98.53273779 0.4599729719 1.691004415e-20)
(98.49780106 0.6773802901 -1.343776308e-20)
(98.42452138 0.624753987 8.110349572e-21)
(98.15565447 1.04566959 5.729305954e-22)
(98.17516359 0.9399952801 -4.7858116e-20)
(98.01261171 0.9724640627 6.614730903e-22)
(97.98665324 1.095206324 9.571550872e-20)
(97.33927051 1.846721771 -3.903366838e-19)
(97.34466278 1.690303791 -3.277804238e-19)
(97.10817353 1.76152901 -1.311011325e-19)
(97.09358593 1.948130802 -2.634231419e-19)
(96.27188295 3.21261884 5.287843714e-21)
(96.22862931 2.974221627 1.966664279e-19)
(95.86620009 3.136658079 1.282531337e-19)
(95.91505742 3.424904856 1.301414466e-19)
(95.17251972 5.539180076 -8.490349245e-20)
(94.9832209 5.218667208 -1.021140494e-19)
(94.48173297 5.580897945 -1.097366447e-19)
(94.72595822 5.989288933 -3.35500178e-20)
(95.0476177 9.149982552 -5.201606429e-20)
(94.50174967 8.89263857 5.600210547e-20)
(94.01506809 9.733016435 1.821291921e-19)
(94.76665572 10.02132729 1.124844425e-19)
(97.97374389 12.62642384 3.124654131e-20)
(97.16683434 13.01371966 1.054908635e-19)
(97.49580853 14.19371099 -4.740161935e-20)
(98.43574941 13.54304321 4.32493117e-20)
(102.4495511 12.14402326 0)
(102.2380744 13.04090601 -3.404793194e-20)
(103.1338099 13.3968616 -8.354898065e-20)
(103.1711667 12.35586058 0)
(104.4733354 9.125102722 -2.175072438e-19)
(104.7377103 9.819385564 1.224393041e-19)
(105.3314083 9.644310539 -2.169363531e-19)
(104.936168 8.974424634 -3.036164364e-20)
(104.525068 6.320341755 -3.129659767e-19)
(104.8907691 6.743123192 -2.48403645e-19)
(105.1606764 6.481877796 -2.479573684e-19)
(104.7459816 6.10719136 1.838354398e-19)
(103.8133056 4.24477532 -2.076150205e-19)
(104.1406365 4.500698208 -7.258674784e-20)
(104.252573 4.268868967 -6.018368514e-22)
(103.9113512 4.054026404 -7.314962517e-20)
(103.219624 2.932059401 -6.264574328e-20)
(102.9601822 2.774416124 -6.71221922e-20)
(103.2570938 2.751292632 8.227138501e-21)
(102.998642 2.619484225 -2.710027682e-20)
(102.1049983 1.663402851 2.763635183e-20)
(102.4794338 1.846977401 -2.492728451e-22)
(102.4681401 1.567322703 1.682224736e-20)
(102.1065496 1.459932762 1.25271554e-20)
(101.4877948 1.030638629 -1.646027583e-20)
(101.7686401 1.141973446 -8.393906183e-21)
(101.7309768 0.9474264724 -8.395532384e-21)
(101.4738477 0.8833930926 1.278409874e-20)
(100.8882436 0.3629243869 0)
(101.1796251 0.3522203645 1.354857702e-21)
(101.3662569 0.6033029984 -1.129633164e-20)
(101.2421348 0.6775914509 2.800857029e-20)
(100.62725 0.1926522228 -5.148760695e-22)
(100.8034939 0.1892124239 -1.601691823e-21)
(100.4810432 0.08210603497 -2.063597985e-21)
(100.5749962 0.08454231552 -2.336026734e-21)
(100.4677955 0.02406385429 2.635537915e-21)
(99.97477786 -0.07192764686 -1.397632337e-23)
(100.0480932 -0.04940579003 6.740722478e-23)
(99.88214665 -0.1331931126 2.03067673e-21)
(99.9827199 -0.1448419355 -8.141335611e-23)
(99.71431739 -0.1741236557 -1.06332921e-20)
(99.84973225 -0.2264647918 1.604647414e-21)
(99.44761846 -0.1406759685 -9.611766025e-21)
(99.6238822 -0.287707408 -1.616420275e-20)
(99.43417388 -0.2178832131 -1.377538629e-20)
(99.3913094 -0.06429522619 -7.558783496e-21)
(99.3500016 -0.1740844016 -3.004486867e-21)
(99.26918725 -0.09672689726 3.268575872e-23)
(98.97523402 0.05582188803 1.223529557e-20)
(99.05342129 -0.04522522787 1.24443515e-20)
(98.90610721 -0.0991541023 6.142026951e-21)
(98.79247943 0.02817616982 2.117567668e-20)
(98.37384735 0.2870620755 -2.128654612e-20)
(98.47543493 0.1305494496 -1.702249182e-20)
(98.2439215 0.07378079662 -3.242278101e-20)
(98.11955363 0.3098981274 4.379465215e-21)
(98.06505355 0.2304870349 -8.482628349e-20)
(97.62528764 0.6500068658 8.456277251e-20)
(97.68722876 0.5277388255 1.018775815e-19)
(97.51671555 0.5110418937 5.520857442e-20)
(97.44106829 0.64799485 1.540486113e-20)
(96.45042974 1.331484616 -1.803163973e-19)
(96.52955722 1.136096979 -1.797667063e-19)
(96.25721192 1.130795071 3.103426075e-22)
(96.15070301 1.356496938 -1.257691318e-19)
(94.66960715 2.585378382 -1.778160284e-20)
(94.75024087 2.260837623 -1.902487369e-20)
(94.30607717 2.281181772 6.413385041e-20)
(94.18440509 2.66913657 -3.939684931e-20)
(92.14065779 4.993393419 2.381545544e-19)
(92.13762956 4.411427785 1.884915443e-19)
(91.36435247 4.498423879 2.767875313e-19)
(91.32754116 5.256158107 1.699089477e-20)
(89.25174254 10.61937525 -4.94473855e-21)
(88.65222712 9.429158861 2.721939477e-19)
(86.85946691 10.56183656 -1.962620804e-20)
(87.13633992 9.852922621 5.150032465e-20)
(88.3037042 11.89399383 -1.921599726e-20)
(87.39526571 11.92323536 -1.941013532e-20)
(92.60393551 21.47621326 3.01779656e-20)
(93.89241655 21.23131221 -3.243096042e-20)
(92.90745585 23.17874945 1.190604065e-19)
(94.52221138 22.56065671 -2.413327275e-21)
(106.8032081 19.54123778 -3.342915681e-19)
(107.0022014 17.93300123 9.118345796e-20)
(108.5713883 17.61422231 -1.157704278e-19)
(107.5686953 20.38638021 8.397544046e-20)
(109.5203722 19.23744701 -7.650685445e-20)
(109.1275174 19.96043543 3.827890781e-19)
(109.4526667 11.70094146 -1.275327869e-19)
(108.7001851 10.81443138 -2.075317542e-19)
(110.1186535 10.94674681 -2.822810061e-20)
(109.2184479 10.23914663 -1.014604244e-19)
(107.3788834 6.56237548 1.004592135e-20)
(108.013791 6.945913447 -1.471943079e-20)
(108.2049457 6.404380148 2.251575739e-19)
(107.5459891 6.125172457 3.46520973e-20)
(105.6781759 4.048225731 -1.658706736e-19)
(106.1461507 4.228831766 0)
(106.1640769 3.862785136 0)
(105.7031659 3.740848218 0)
(104.4905929 2.577788783 0)
(104.1520292 2.488511071 -3.759322322e-20)
(104.4518682 2.331248396 -4.091933887e-20)
(104.1260304 2.265537894 1.971186239e-20)
(102.8202718 1.391450153 4.42420227e-21)
(103.276015 1.471320314 0)
(103.1451363 1.13270717 -2.566456502e-21)
(102.7431636 1.126261975 -4.614266263e-21)
(101.9600876 0.8109922902 4.588962491e-21)
(102.2849594 0.8521789354 -2.188493953e-23)
(102.1725822 0.6250768664 -7.468905707e-21)
(101.8857085 0.6267338299 9.285600963e-21)
(101.0749988 0.1847241787 -1.899141215e-22)
(101.3613449 0.09134043765 -2.979079777e-22)
(101.6645065 0.3243954984 8.520993531e-22)
(101.5614727 0.4306864974 6.780571956e-21)
(100.7386108 0.08089725343 -3.430445965e-21)
(100.9013143 0.01440887953 -2.505032501e-22)
(100.5520452 0.02738983389 2.560170149e-21)
(100.6254116 -0.01525160456 -2.295327314e-21)
(100.4936161 -0.008046677331 4.331242707e-22)
(100.0592745 -0.121404162 1.468044606e-23)
(100.1626183 -0.07514479129 -2.876816929e-21)
(99.95427648 -0.2358161567 -5.253308084e-22)
(100.0906668 -0.2237049829 1.251089613e-21)
(99.76428452 -0.3377692802 -4.132666333e-21)
(99.945967 -0.365398638 -2.721320088e-21)
(99.44726527 -0.3698804308 8.490150044e-21)
(99.69948541 -0.4953884259 -9.364629872e-22)
(99.46337261 -0.4657698698 8.909000135e-22)
(99.35409256 -0.2994324484 4.155964673e-21)
(99.35350268 -0.4335944076 8.619430709e-21)
(99.23579161 -0.3691534269 6.083398795e-21)
(98.86373865 -0.2747089733 -2.070410606e-21)
(98.98655563 -0.3689083498 3.210593282e-21)
(98.85130691 -0.4667091317 2.120238611e-21)
(98.68472112 -0.3555791207 6.426519976e-21)
(98.15173421 -0.1728739454 -8.878715353e-21)
(98.31811888 -0.3244896869 2.845747542e-24)
(98.10338197 -0.4443848941 -1.140381996e-20)
(97.88879171 -0.2178798259 -1.472386279e-21)
(97.86796177 -0.3262646196 7.861440496e-20)
(97.27578223 0.01033153272 -4.306730137e-21)
(97.38472935 -0.107331865 1.38669782e-19)
(97.227715 -0.1769508907 1.482652724e-19)
(97.09515224 -0.05080014106 -1.429848918e-19)
(95.81241005 0.3833324153 0)
(95.98052505 0.1936146078 0)
(95.72014272 0.09947756258 0)
(95.51141632 0.304461513 1.577072022e-19)
(93.48100325 1.054341533 2.225932563e-20)
(93.73528567 0.7385287844 1.981367244e-20)
(93.32464553 0.5804652237 -4.210201663e-20)
(92.99297282 0.9191141582 -9.97962572e-21)
(89.6869638 2.135264305 -9.543957623e-20)
(90.11290707 1.558027432 2.317506358e-19)
(89.47802116 1.195027009 2.26742122e-19)
(88.84932344 1.786424879 1.146575714e-19)
(82.3451594 3.685787281 4.381326605e-19)
(82.96244419 2.948517854 -1.042738992e-19)
(82.27778579 2.29580353 1.014710633e-20)
(81.37543094 3.036923181 -1.522335879e-20)
(122.6499118 23.62812113 -1.084101517e-19)
(120.9426445 22.50873435 -2.96891725e-19)
(123.401625 21.77976546 -3.70467009e-19)
(121.7173492 21.05267118 -1.40049851e-19)
(116.5568431 10.33394221 0)
(115.0025635 9.835902623 0)
(116.5896512 8.839510637 0)
(115.1221359 8.682835287 -1.36890225e-19)
(110.6817019 5.231333137 0)
(111.5819518 5.353873779 0)
(111.4422786 4.590703742 0)
(110.6040515 4.599819911 -1.19501597e-19)
(107.553038 2.942343612 2.489135254e-21)
(108.130149 2.959058599 -1.744588644e-19)
(107.9644328 2.511972561 -1.514950294e-19)
(107.4340189 2.557770746 -9.241260302e-21)
(105.6531614 1.633237203 2.668830235e-19)
(105.2637507 1.647362681 2.849586232e-21)
(105.5036916 1.351862533 -1.80528759e-19)
(105.1459721 1.390215009 8.8254156e-20)
(103.4241147 0.7971538148 -5.009009386e-21)
(103.9258875 0.7447091753 2.860910162e-20)
(103.641826 0.3947884325 7.989198456e-21)
(103.2399455 0.5133313781 1.197138154e-21)
(102.3416284 0.3921396757 -2.030948514e-21)
(102.6748624 0.3401768213 1.401510295e-20)
(102.4703585 0.1177621738 5.174698042e-21)
(102.1945761 0.203483304 1.025092862e-20)
(101.1743321 -0.07444122247 -3.553927786e-22)
(101.4282573 -0.255524416 -1.085411879e-21)
(101.8388805 -0.08188055072 -1.101556066e-21)
(101.7887401 0.07531788388 -1.235911102e-21)
(100.7776554 -0.07962131659 1.103755969e-21)
(100.9060915 -0.2136533009 1.351559522e-21)
(100.5586605 -0.04928143878 -4.37620181e-21)
(100.5967382 -0.1432569044 1.699376384e-21)
(100.4471119 -0.04933125584 -2.164160416e-21)
(100.1957594 -0.1763879682 -1.640371323e-21)
(100.3290066 -0.1025504059 9.085963227e-22)
(100.0844233 -0.3501712012 -9.55381566e-22)
(100.2546217 -0.3076431789 -6.76318983e-22)
(99.88365739 -0.5205966041 4.891894136e-22)
(100.106768 -0.5133009013 -2.410606423e-22)
(99.53375039 -0.6319581996 5.488693258e-22)
(99.85483435 -0.7173439877 8.21410391e-22)
(99.58341763 -0.7384871067 4.868829348e-22)
(99.40408017 -0.5781768425 1.425123117e-21)
(99.45254771 -0.72508851 -1.32935092e-23)
(99.30167129 -0.6832455281 -1.329539995e-23)
(98.87171351 -0.6703394788 -2.116222616e-21)
(99.03582306 -0.7438083977 0)
(98.92609284 -0.8803357773 -1.039653721e-21)
(98.7145001 -0.8013213636 -1.1001558e-21)
(98.10318158 -0.7325228402 8.13370414e-22)
(98.32713268 -0.8547338853 8.922452967e-21)
(98.15240418 -1.028386408 1.058607069e-20)
(97.86417805 -0.8458393137 6.733651412e-21)
(97.88248799 -0.9672981852 6.733897397e-21)
(97.18529637 -0.7736828172 8.128130088e-21)
(97.33490039 -0.8657021301 -3.518064053e-19)
(97.20580599 -0.9776387932 -1.410760533e-19)
(97.02855392 -0.8846593642 -2.842314127e-19)
(95.61923408 -0.796135653 -5.041237819e-22)
(95.85363491 -0.9371610296 -9.336210293e-21)
(95.64367049 -1.095400524 -1.365135473e-19)
(95.36709242 -0.95714291 6.018624022e-20)
(93.21964807 -0.860395427 -5.580275037e-20)
(93.58226585 -1.063447153 6.110712762e-20)
(93.2885409 -1.313300702 1.039885766e-19)
(92.86716283 -1.131881269 -6.422799395e-20)
(89.74844731 -1.334215285 -1.093718654e-19)
(90.33156434 -1.569832106 -2.738662695e-21)
(90.01437473 -2.003147906 1.084497277e-19)
(89.36682696 -1.848501336 1.273893965e-19)
(85.61166172 -3.490950529 4.998653379e-19)
(86.10945173 -3.441843269 3.727751276e-19)
(86.1024699 -3.822072812 2.472362359e-19)
(85.66897405 -3.957626152 2.45913494e-19)
(136.5369643 8.182643904 5.401392755e-19)
(134.827963 9.004175161 5.643247873e-19)
(135.3671018 6.762788189 0)
(133.9395718 7.619512523 -5.407547299e-19)
(121.7919735 3.664743416 4.272635438e-19)
(120.1366029 4.22347275 -5.710177271e-19)
(120.7436152 2.357253928 -5.698784112e-19)
(119.4230878 3.040372421 -2.097479457e-19)
(113.1693693 2.011768612 -2.87435125e-19)
(114.0871603 1.694052107 1.677757744e-20)
(113.499208 0.9997132136 -1.103518849e-19)
(112.7249405 1.379438356 -1.124302562e-19)
(108.8863976 0.9061546902 -1.389987697e-19)