/*--------------------------------*- C++ -*----------------------------------*\
| =========                 |                                                 |
| \\      /  F ield         | OpenFOAM: The Open Source CFD Toolbox           |
|  \\    /   O peration     | Version:  v1912                                 |
|   \\  /    A nd           | Website:  www.openfoam.com                      |
|    \\/     M anipulation  |                                                 |
\*---------------------------------------------------------------------------*/
FoamFile
{
    version     2.0;
    format      ascii;
    class       volScalarField;
    location    "0.02";
    object      omega;
}
// * * * * * * * * * * * * * * * * * * * * * * * * * * * * * * * * * * * * * //

dimensions      [0 0 -1 0 0 0 0];


internalField   nonuniform List<scalar> 
12556
(
31.93070101
31.93151328
31.93236427
31.93314219
31.96673369
31.96725889
31.96767621
31.96850498
31.97015112
31.9729658
31.97706103
31.98160243
31.98491357
31.98500266
31.98198034
31.97774405
31.97377991
31.97044961
31.96898308
31.96766924
31.93363404
31.93251612
31.93149343
31.93050894
31.79573309
31.79840286
31.8010466
31.80314088
31.83580861
31.83750404
31.83977916
31.85919181
31.86663772
31.87955605
31.89850727
31.92000167
31.93607422
31.93808232
31.92573531
31.90612583
31.88698836
31.87248112
31.84720078
31.84065459
31.80501399
31.80172719
31.79853104
31.79566063
31.66122636
31.66576543
31.67016011
31.6733627
31.70670631
31.70999018
31.71518402
31.73909488
31.75677225
31.78686698
31.8297533
31.87495688
31.90972573
31.9135564
31.88645164
31.84584274
31.80334047
31.77046868
31.73184795
31.7178956
31.67803099
31.6723812
31.6669474
31.66208469
31.52551986
31.53142856
31.5370934
31.54163407
31.57844146
31.58456255
31.59532996
31.62870783
31.66527597
31.72750178
31.81439829
31.9087272
31.96962877
31.97490841
31.91586378
31.83466693
31.75259786
31.68847779
31.6281642
31.60228714
31.5522713
31.54302174
31.53508863
31.52840337
31.3933897
31.40076199
31.40784539
31.41397708
31.45276917
31.46278292
31.48179177
31.53050044
31.60293612
31.72361456
31.91542875
32.1666836
32.31504018
32.31186341
32.1273795
31.92810323
31.75884835
31.64014464
31.54310769
31.49630896
31.43289955
31.41828266
31.4071825
31.39814498
31.26764156
31.27638795
31.2847494
31.29200385
31.33060565
31.34667595
31.37985063
31.45140474
31.57249588
31.81406006
32.29040528
33.17287158
33.86132832
33.63866346
32.83121777
32.2564008
31.87373179
31.63936238
31.48135822
31.40279036
31.32242087
31.30094153
31.28586713
31.27427739
31.1456714
31.1559984
31.16612163
31.17528867
31.21063438
31.23396219
31.28696469
31.39186194
31.58838145
32.04829659
33.2264287
37.30869541
43.08927283
40.09214089
34.87249969
33.03435016
32.15807521
31.70465581
31.44269497
31.32198279
31.2191496
31.18820436
31.16800306
31.1534864
31.02140865
31.03305442
31.04472526
31.05629465
31.0955502
31.12850094
31.20536222
31.34478642
31.64222034
32.39745475
34.72792168
47.29146273
62.09710997
39.76050317
34.49620191
32.65875558
31.85343552
31.4320949
31.25437327
31.1183989
31.07381292
31.04713522
31.02938508
30.89195707
30.90519515
30.91920851
30.93483366
30.98577907
31.03138083
31.134308
31.30712257
31.71249462
32.73321797
35.86250208
54.54679873
111.4894287
47.13195791
36.56714226
33.35204839
32.07164383
31.44362032
31.19899021
31.01692377
30.95536259
30.92076289
30.89950735
30.7598389
30.77443723
30.79063226
30.81088671
30.87664791
30.93591907
31.06543174
31.27434423
31.77757269
32.98328426
36.48776716
60.9420683
138.8069822
53.62503281
38.7066881
34.11193811
32.3260405
31.47141789
31.14795522
30.91580796
30.835332
30.79196234
30.76684558
30.62983441
30.64628482
30.66556562
30.69237457
30.76563651
30.83984163
30.99481968
31.23888902
31.82652431
33.17007015
37.02534286
68.49708246
139.3557042
57.37593859
40.38263534
34.78157046
32.56658764
31.49752688
31.09618011
30.81817015
30.71928459
30.66649132
30.63712653
30.50560749
30.52357824
30.54547691
30.57815604
30.65719082
30.74682188
30.9262813
31.20365147
31.86773463
33.3421075
37.72775019
78.73361195
129.3926931
58.65954061
41.38970997
35.25963695
32.75285566
31.51268842
31.0439334
30.72760689
30.61070447
30.54887517
30.5151802
30.38873073
30.40866945
30.43425935
30.47395535
30.5541857
30.65913953
30.86134541
31.17497838
31.91142108
33.52976508
38.74911674
88.93394931
554.3511289
112.0378394
58.39383905
41.79843417
35.52578886
32.87017022
31.51025818
30.99122613
30.64353816
30.51087848
30.44013409
30.40198627
30.27874022
30.3004494
30.32931263
30.37410916
30.46103087
30.58474939
30.8134302
31.15969424
31.97901573
33.80187104
40.50569938
137.9215478
349.2106472
104.3364673
57.42059301
41.77024693
35.61272929
32.91819922
31.4926725
30.93700602
30.56277617
30.41799905
30.33938078
30.29747084
30.17375358
30.19716358
30.22908235
30.27839198
30.36945366
30.50563504
30.75157942
31.13030173
32.01010402
34.00747621
42.50873202
486.751085
250.3342626
96.82856918
55.76918152
41.42093079
35.54995618
32.90098621
31.45249123
30.87793056
30.4836756
30.32946611
30.24312987
30.19740819
30.07187802
30.0969595
30.13161103
30.18481114
30.27976367
30.42553262
30.68564245
31.09382749
32.03438306
34.24482662
45.62490682
747.9641828
218.3806498
90.51465954
54.10569085
40.91383769
35.38665996
32.82639348
31.39328125
30.81065612
30.40201602
30.24082794
30.14907551
30.10023679
29.97147473
29.99817767
30.03526423
30.09172569
30.18999323
30.34275585
30.61390977
31.04670134
32.05404485
34.59480881
50.62539822
834.2470832
193.243106
84.87856571
52.46118818
40.39153157
35.20218678
32.72509176
31.31603759
30.73484366
30.31743025
30.15135394
30.05437759
30.00284265
29.87137121
29.89960848
29.93888504
29.99803895
30.09891564
30.25634492
30.53559973
30.98618881
32.05297487
35.03409459
58.43542091
785.8798381
173.512803
80.30468467
51.1004129
39.94886712
35.01155782
32.60562845
31.22455761
30.64790668
30.22688543
30.05781085
29.9579662
29.90423731
29.77082214
29.80044457
29.84169781
29.90305852
30.0059803
30.16625854
30.45091206
30.91507648
32.02118582
35.4663684
68.17466227
691.9653999
160.8214493
77.66516878
50.28959543
39.61823327
34.82225201
32.47559054
31.12314703
30.55275507
30.13107424
29.96042948
29.85844118
29.80351588
29.66932604
29.70011744
29.74312038
29.80632349
29.91081206
30.07254502
30.36060697
30.83532432
31.9816807
35.9066245
75.92390896
621.3634994
156.3818183
76.64890545
49.75710845
39.32257924
34.63468338
32.33838813
31.01377453
30.4505171
30.03019281
29.85913687
29.75589152
29.70021368
29.56687961
29.59855229
29.64304468
29.70779211
29.81333134
29.9756373
30.26584046
30.7495937
31.94427933
36.43716399
82.0856783
561.7170839
152.223764
75.52152373
49.25699478
39.03066098
34.44552913
32.19600958
30.8982715
30.3425414
29.92478354
29.75411584
29.65035555
29.59434595
29.46302449
29.49524204
29.54091712
29.60713432
29.71382219
29.87642713
30.16806126
30.66032241
31.91404323
37.08263487
86.31828441
514.9325056
147.5080591
74.42287952
48.85614077
38.75972166
34.26029712
32.05178071
30.77855259
30.23014055
29.81541404
29.64554617
29.54183799
29.48585776
29.35904565
29.39152533
29.43804328
29.5052806
29.61256049
29.77554565
30.06875734
30.5700576
31.89444176
37.90493872
89.05221776
478.3725477
144.4347944
73.78465506
48.64404512
38.54723836
34.08972306
31.90992596
30.6565644
30.11451048
29.7029975
29.53415208
29.43087153
29.37522035
29.25256261
29.28500923
29.33218106
29.4007797
29.50978826
29.67341098
29.96924428
30.48280916
31.8986588
38.82887806
89.70472017
451.4283907
142.8065754
73.51983272
48.58905058
38.40615687
33.94126039
31.77428236
30.53437832
29.99684337
29.58759515
29.41959172
29.31689692
29.26181109
29.14902815
29.18130035
29.22880617
29.29759529
29.40588369
29.57062183
29.87065778
30.40192424
31.95800118
40.03803302
91.46131156
427.6425485
141.0118469
73.37499978
48.60896631
38.32513367
33.81651818
31.64695262
30.41369486
29.87817141
29.47135161
29.30443684
29.20237907
29.14796344
29.03892545
29.0708404
29.11884495
29.18958897
29.30136789
29.46785357
29.77405904
30.33076573
32.11351763
41.63976044
96.17566141
401.3245232
138.8285977
73.21470613
48.64906862
38.28485428
33.71364316
31.52850884
30.29539546
29.75931052
29.35182062
29.18497267
29.08334211
29.02965886
28.93859387
28.97014367
29.01816386
29.08795799
29.19652753
29.36555055
29.68002368
30.2722919
32.37181785
43.33403006
101.1393368
374.8721624
136.5273952
72.96707435
48.67001918
38.26413934
33.62746688
31.41816625
30.17968077
29.64083621
29.23572997
29.07024247
28.96911187
28.91609437
28.82407832
28.85512148
28.9036936
28.97647352
29.09186862
29.26381342
29.58856428
30.22827574
32.70009876
44.87077536
104.8748607
350.5838454
134.0346525
72.60948391
48.65939571
38.24801683
33.55202566
31.31435685
30.0663763
29.52317121
29.11258145
28.9456119
28.84447523
28.79211918
28.72772609
28.75832548
28.80676621
28.87775066
28.986981
29.16260599
29.49969621
30.19943912
33.06026483
46.18315322
107.3588025
328.7742376
131.329833
72.15642482
48.61715486
38.22984188
33.48325171
31.21566685
29.95521742
29.40638342
29.00030148
28.83540018
28.73466637
28.68285251
28.61040152
28.64042413
28.68927098
28.7635362
28.88277167
29.06196006
29.41378406
30.18626526
33.42557588
47.28328028
108.8194258
309.3528748
128.5101871
71.63317615
48.55003772
38.20771357
33.41885796
31.12103242
29.84595952
29.29077071
28.87373321
28.70582085
28.60475108
28.55345443
28.51786178
28.54742791
28.59619071
28.66862368
28.77831066
28.96202725
29.33148527
30.1879027
33.78041295
48.19786496
109.5012856
292.1160553
125.6819612
71.061523
48.46190417
38.18121644
33.35754216
31.02969354
29.73845329
29.17613235
28.76681863
28.60108675
28.50021112
28.44929092
28.39630313
28.42525506
28.47422732
28.54995492
28.67497284
28.8630612
29.25350678
30.20270353
34.11649748
48.95411301
109.562527
276.6514458
122.8778727
70.45617676
48.35528136
38.15003731
33.29845031
30.94114619
29.6326544
29.06292907
28.63674916
28.46757906
28.36635339
28.31583829
28.31260496
28.34112346
28.38997661
28.46369402
28.5716044
28.76541607
29.1804598
30.22824099
34.43002373
49.57738612
109.2246299
262.6190617
120.1033681
69.82684789
48.23196056
38.1136607
33.24083607
30.85502606
29.52863308
28.95089297
28.53906026
28.37165509
28.27038313
28.22012095
28.1827537
28.21065286
28.25957529
28.336122
28.47047738
28.66965361
29.11282626
30.26209474
34.719651
50.08929107
108.5839956
249.8109799
117.3739241
69.18036909
48.0935265
38.07157937
33.18396502
30.77104051
29.42666219
28.84091895
28.39937652
28.22855773
28.12689208
28.07692506
28.11095693
28.13854176
28.18746921
28.26380689
28.36986771
28.57666049
29.05117325
30.30196165
34.98548086
50.50778023
107.7410329
238.0779938
114.7089333
68.52213205
47.94143512
38.02348478
33.12714686
30.68885912
29.32748143
28.73304147
28.31904598
28.14827117
28.04638032
27.99652985
27.94578298
27.97269786
28.02170498
28.10058411
28.27486644
28.48820325
28.99670328
30.34561119
35.2270969
50.84544926
106.7584532
227.2998618
112.1319333
67.86128148
47.77824016
37.96963365
33.07004976
30.608347
29.23303248
28.6305634
28.14002242
27.96575062
27.86323315
27.81359725
54.05029499
129.2700279
68.97080549
60.06416309
164.9413959
134.1171949
67.46889553
164.0863549
166.4035806
77.45871025
149.2063321
162.3211192
87.86254423
679.7123586
579.7520669
134.6368408
146.9932494
117.2026142
431.1137788
666.1335224
363.9590239
130.9226338
133.2108999
45.71127473
42.09724322
64.07995214
40.0529073
341.1400578
129.0224766
105.9439723
50.64280398
42.58137097
36.35774675
51.90223525
48.50723177
1090.954179
763.4972384
137.2460464
60.42246034
53.38439679
36.90441786
57.37497303
52.53742402
63.63515355
187.6474785
163.3693473
664.0016663
879.6543767
140.2421615
65.80418506
62.2186572
37.58337985
64.10887073
58.10774613
71.9290816
294.3624271
224.8446363
395.9360218
511.624056
38.52980569
73.71129369
65.03049676
80.95819911
489.7862149
375.9822432
1490.5862
260.5447095
302.9130257
40.20994448
94.47487063
75.22940266
97.5612262
1170.710837
738.8192637
145.8307263
330.615393
424.6206456
122.5778628
150.1077412
80.82724833
118.2833025
741.7456502
357.4786147
102.3818358
295.0049137
533.8298938
160.3716872
140.7819511
57.15786317
187.6964137
205.8599302
155.331063
184.3211338
887.8839897
1092.845317
151.7987603
782.2822866
702.5188065
550.8986007
778.5027088
149.6838252
221.2610627
191.6565153
64.55744377
251.9975792
299.9580711
208.1327256
248.5717987
532.4554247
651.0508998
167.1187985
507.7958187
407.4632218
696.5110295
524.2566084
167.5856108
371.1270938
298.0453206
73.17840061
373.7179051
486.7656333
303.1510044
369.1721414
311.832458
382.5741469
726.3260853
500.7087284
81.38914241
2215.103294
704.258502
1119.866951
492.7381101
685.5614041
2618.936275
240.7610359
256.3639336
1318.111564
8575.499777
1183.144201
99.02124314
492.130603
1873.211129
7767.151417
1130.50248
1838.255572
505.4118569
35.65012158
48.1340159
43.08937926
51.1657438
98.21918677
71.63629071
1811.140555
321.6689471
56.51157113
138.4022073
119.5178354
4388.417569
131.0173797
67.32720795
66.495748
4854.636859
564.9027971
627.2122825
441.5051087
215.0924844
233.0050828
116.1074619
100.6576561
52.05009904
1179.984422
167.0324302
392.0957406
110.0577673
262.7719331
94.93329771
641.5870751
814.1028075
154.8714377
315.614882
269.7042271
394.8721273
324.1870027
157.0206386
930.2458139
3725.380506
588.8927899
62.60678358
52.04477628
75.17335074
115.1207901
60.33659168
63.96461874
2393.624553
242.3844973
1707.112191
251.5100193
1265.491365
219.2070446
889.3777511
876.9318235
752.0424919
766.9294258
1517.49895
3556.44991
439.8969816
1806.922476
1008.661691
4043.491029
2137.869919
456.7434015
417.4203322
145.768805
153.7868523
475.1531609
538.6110292
4273.969453
808.5867796
201.1922289
216.0903191
183.6739163
195.6605288
804.6775839
979.3356405
1177.910125
132.3298287
705.9640445
534.915999
1190.133146
709.7718363
135.6015871
99.0533817
273.2560163
134.9398896
459.9494348
297.9832898
105.1242429
414.336778
681.2785545
529.2687832
503.7368347
191.0372342
1425.385284
191.7678128
167.6746576
1320.878801
1216.304958
1412.440341
1334.535276
171.7034788
930.2654023
938.1370014
734.6747339
269.9387805
262.9584734
272.1946372
271.1642925
730.722065
654.4190963
240.4856496
221.2588798
259.5824137
246.1198544
667.7625841
273.7507304
276.8451859
225.3223739
227.8158917
562.5224067
4204.613156
572.3906907
408.1365155
415.6750444
334.8380459
339.3959093
954.3998856
706.4406139
348.4666629
860.3476924
1410.193017
562.017293
169.0649237
179.6270101
156.6909906
165.8160111
551.8633204
1016.154334
759.1784918
774.2740531
536.4218545
541.8937966
5110.748981
791.006145
411.6653569
456.8968429
222.6027037
236.198405
1486.059558
3005.754289
1078.100009
1845.008054
1177.661573
5986.678819
2115.589259
5037.149404
1173.729094
562.2943449
3302.861806
1342.978675
2108.926405
1442.400211
1953.772267
41.96258198
105.5122062
97.68937641
158.0617336
4189.162192
7775.041705
261.6639023
119.5791351
128.1831048
585.5324062
2281.84274
3398.339635
364.9720441
397.5346921
744.2806576
198.9242962
209.3218762
430.1481887
113.5023506
82.75082758
154.2549693
266.162914
103.1396389
116.9909534
1026.169581
2357.775163
2464.200425
819.6214047
702.6441294
1912.516333
1417.297832
3168.726596
3165.887172
844.9743447
266.0124215
114.4064162
119.2972044
108.4073625
112.8518557
260.0878736
136.4777181
143.4056114
412.0949919
1071.351322
393.6672194
415.7753145
6443.005656
2933.417662
396.0622663
644.6450157
2132.658354
2345.368607
384.7994338
180.1111215
152.8348579
213.5317439
189.3226681
400.601431
907.8523273
3081.280734
3168.024671
1045.719506
207.7250231
102.9395006
107.0074762
667.0768167
649.9709621
289.6829845
1343.823977
1243.221373
617.7875843
462.3051748
248.6187374
256.7919365
632.9681548
268.2201826
271.7530817
259.6572807
266.2119205
622.9847886
330.0881592
128.2853295
134.3562555
121.0006041
126.3792656
325.2617218
387.40046
1029.083888
1015.622308
1704.396641
1648.958081
462.7927965
315.3751295
710.5825019
669.9980425
1009.702639
999.2299264
356.2153939
337.9437664
681.6839028
550.3484525
5402.205483
1494.020923
731.9828648
932.3281968
510.8335805
1744.282319
1713.101376
1758.657895
591.5031827
4157.799836
8952.872326
308.5750598
365.3523557
424.2387282
444.7565353
1197.452934
1229.979308
821.841104
456.5602624
1897.724193
7624.055064
1167.360071
1025.123349
16252.48191
1145.057665
1744.861042
1070.820807
1254.665512
963.4514854
4341.030018
4423.312278
990.5708194
1285.871888
5067.776222
1261.911133
1195.137476
251.2306667
879.7471274
363.1675325
880.3784517
273.3055664
3316.994156
2156.928657
721.7164782
4044.482171
4784.07167
3893.526358
2489.146455
792.1521168
4071.45097
5269.721624
2449.722962
3835.451302
5679.572429
1378.517387
2091.553254
981.5518997
1232.886001
5057.522496
2457.094368
738.3677334
469.7758973
1179.166402
808.8212582
426.8458607
275.9937233
721.9485878
2593.91389
3286.500668
977.9597937
833.2607794
2491.826696
2598.559036
2085.357155
1983.900109
717.7862496
3538.007332
3442.421058
2512.331718
3456.290619
3396.630055
824.9135945
3285.402293
2144.01574
2253.935273
2573.911087
1368.400793
646.8449611
696.7588095
2904.622215
808.2142186
911.2783268
717.1035831
778.8126869
2694.517393
2896.869936
777.2274373
915.19581
362.5895668
386.0074044
967.5462093
771.1187929
339.8901596
356.6828655
1098.38985
1117.929718
682.7041236
226.969441
250.2640448
201.8407589
220.5029798
673.8004792
772.0072853
289.7114093
321.9370105
258.3175972
281.4322786
776.3761145
397.84226
180.3623926
196.5104658
588.2612734
620.6547404
1547.012475
1619.082935
612.3416743
2262.227522
2278.768812
2844.868644
1571.314615
1308.280245
2208.148216
1555.901712
432.3373137
1113.616012
1478.652982
1487.001831
441.8390166
508.4202867
413.8979676
430.236037
1440.110446
564.9885527
579.7546379
530.9846306
559.7790859
1281.944504
354.1118307
369.2802995
330.4873911
348.8435716
1266.74139
1379.867922
393.9585816
408.3736275
374.2788563
389.018794
1371.984941
2934.70036
3026.930914
913.802023
1007.130461
3000.58333
2907.186983
936.2748851
945.2079823
903.0547788
933.3810153
964.5701773
982.2226611
948.2960123
960.7475637
603.0852876
617.1807147
584.4202627
598.2050152
665.7647997
854.6474316
623.8802057
640.1810189
1180.763685
1372.164615
947.3237344
1100.634722
4441.505095
2151.866106
2338.858944
1462.129425
2055.443982
1047.630328
1036.928708
392.3581834
1729.360579
1736.316122
1687.348067
1716.901776
1790.296548
450.5838399
1607.401985
1109.532684
960.291337
733.8708149
319.8540032
1041.48942
1565.521476
983.7215989
1052.472034
1641.073993
1671.947448
1589.356817
1628.03192
352.0021531
995.7642438
981.7531621
4854.398614
1018.186835
4692.473171
3957.892253
4675.739724
1088.062367
5658.583685
1328.393735
5321.758281
4451.487688
740.3895407
836.1884705
1785.772875
1750.529792
516.4815823
573.2626826
1862.843409
1789.505551
5061.951598
1246.167365
459.1742786
510.7582073
5478.566691
6297.648763
1985.827183
6874.718839
4756.231998
1375.340337
1147.492856
5988.827207
3056.969204
6630.644146
3550.57316
1678.599649
58.42379656
40.33810961
35.63842363
4914.146954
4890.533078
122.4150496
66.6367266
67.29231523
5134.88061
759.6744443
2166.342375
1437.641395
263.2528759
223.8839758
141.5795521
228.606196
169.1857385
318.9257541
1089.227376
227.6622275
247.9062623
49.50622691
56.96672295
99.81062955
299.0931413
540.8125255
776.3425399
176.4469495
93.23649192
96.702598
88.92235262
92.12572258
173.0276449
668.6822838
742.7095577
2442.509899
525.774813
464.2279788
282.7367151
319.8471314
334.8997796
764.9253516
841.1582189
1070.258318
410.0305936
97.90120116
101.6467688
203.6734098
261.4411091
606.3387344
576.6220173
552.7968526
482.6617728
238.7244536
636.6844995
299.6331876
314.927511
3849.68796
3552.735331
1936.294735
1776.336208
1751.429709
1093.459886
3111.459857
5075.444689
4450.380938
1004.444539
589.9342648
651.2755165
1876.239377
1137.393913
1815.055393
1800.245506
1838.063362
1906.191279
4218.337029
2846.352868
3249.722684
4788.85376
1184.151253
959.2691379
571.760798
1214.380388
143.08487
114.8144315
190.5344846
697.7129773
1834.015532
1306.302454
5475.187942
5853.448798
5986.44689
4786.501368
5648.159489
79.9759345
99.35077242
218.4608433
1964.236613
1294.666487
1007.100438
2566.214825
2020.17964
1659.061601
3160.957883
2846.055882
4749.456887
4448.835
3030.587586
588.4550381
631.8758023
1262.096781
4207.830324
2063.524132
2308.831913
3626.825694
1989.709747
2362.834117
1025.18733
1391.475357
1155.580424
696.9096015
463.8537277
471.7147081
1148.148227
679.6853976
721.7184882
477.3974178
489.3334839
727.2050964
158.3223932
175.7667784
371.9939437
474.6240696
859.0506561
605.8894221
1057.240688
1103.921989
681.6825906
1820.544341
1284.379263
1342.244036
842.6068984
846.1736256
1432.283584
1472.826058
1490.235074
1378.756678
1404.910828
1305.74339
774.8761855
781.0705534
740.48236
748.4100027
1234.870743
1402.74832
827.5863398
833.2782453
787.6571291
794.2591328
1347.349447
625.9443979
611.6459912
264.5107006
286.5396757
645.2859241
630.5579541
448.4720903
434.6300033
217.7422641
1543.025299
1546.494823
1498.036675
1504.898949
1947.304536
1557.234415
1558.88381
235.8889174
470.5512589
454.0225406
4053.91741
4003.048112
2433.449827
2574.692733
4176.7722
4043.060563
4222.253443
606.6019055
1200.762329
1007.513771
281.9310543
294.8697134
605.5898099
531.4265429
267.8437016
278.2981259
1122.058225
1121.600634
755.3346951
777.3094281
1131.849689
1136.389972
5058.107181
1568.854379
1009.431821
995.1605464
12627.47106
2475.889772
1260.077162
4169.873039
3242.148921
1893.334413
1868.892881
1160.31588
5756.78811
6314.094422
5998.250194
4576.381423
1239.366499
1944.325689
1881.150906
2160.269934
801.4895044
923.8450502
4820.890215
4736.856594
3524.327141
3241.710093
1754.541781
864.8526702
892.2406081
973.937567
2701.952441
4799.446906
4029.384387
4856.459615
4627.477224
3122.82017
154.2824793
203.8790628
584.3438074
2544.080925
2478.055098
2621.634001
2595.717181
2408.415068
1596.553914
1581.377652
1613.970243
1600.068798
2417.000277
3216.183693
1801.765968
1812.573688
1736.193055
1784.293634
3274.320306
2224.509891
1449.429072
1313.193856
1569.048385
1527.819513
2283.668274
3075.700386
1833.890294
1843.875558
1823.121767
1827.472654
3117.474091
2699.335353
2643.516204
2763.990616
2654.568764
1026.61835
690.8291819
695.1774973
1687.358678
1045.218037
1050.404925
1014.070417
1037.483289
1674.336946
5016.809448
5248.632005
4487.592719
5102.158869
1769.816902
1785.163423
1737.478864
1754.024332
2262.697479
1033.233725
1701.228567
1631.496207
1732.300707
1058.761481
1063.473019
1052.907028
1056.46727
1724.650774
1667.556317
1713.846184
1149.466007
1599.069852
2232.654087
5421.035738
5012.400399
3633.216243
5300.479751
867.5202098
1241.496689
12993.40395
1198.608876
806.8268228
811.2182957
1900.278732
7211.085814
7442.381028
9245.579663
5568.554458
5047.148277
1832.492549
1819.624119
1138.870804
1797.76197
1632.396103
2328.969113
1613.452221
2129.76699
1590.196753
626.3516307
2289.540995
1581.298578
4391.189096
4604.427262
5011.409529
3577.434043
4210.109095
1215.387655
1562.21656
720.9089532
382.2208181
528.9515946
852.3586335
962.4681768
556.226115
826.7250658
1096.612813
4636.613956
4930.45465
4552.297743
4727.843907
5598.90332
5533.169521
5331.226839
2919.921985
4630.05651
4136.125868
5317.364588
5537.219915
3374.371585
3740.731337
4225.336981
5609.421352
4407.026655
2870.713915
3241.204343
1852.66896
1339.559532
1874.884289
1006.54793
1446.115604
1929.171112
2112.265795
1945.632038
2702.582817
1737.903346
1647.270025
2344.674784
1718.300891
2538.157776
2527.741188
1632.140249
1617.450367
1654.808768
1632.488857
2543.902815
2052.972989
1238.56816
1256.717015
3492.680495
3475.500144
2955.022639
3902.051715
3758.692669
3587.549065
3432.882186
3590.311213
2701.578844
1462.925102
1625.785087
1286.580838
1346.652601
2300.225162
4490.66464
3678.15702
1891.731089
4843.694943
4597.499802
4583.168733
2730.447141
4465.796086
4306.576813
1572.914715
1766.519354
3459.130099
1067.774381
1144.456748
537.6545793
609.3968502
1099.705514
727.7652059
494.5008938
518.174537
971.1004408
932.072053
550.6275837
918.7907354
1242.03643
627.0364827
1037.972723
1015.948589
1549.559211
1075.266711
1056.756465
1183.213739
1144.587943
1636.427223
2383.093529
2249.414149
1468.919578
2154.841919
2257.857203
2023.931099
2130.710148
1441.420341
2158.632548
2132.082662
2711.272952
2027.588971
912.6963435
905.3946834
1403.349466
1447.790566
860.8908815
858.2781034
1447.618697
1462.828239
1420.421753
1435.814556
764.2365717
769.9114774
1297.786456
1250.526064
753.7184402
758.886987
813.7195499
819.697264
1389.375003
1361.328602
801.2310258
807.4846253
2989.418932
1866.277275
1875.083145
1847.97248
1855.727182
2988.823048
2899.725024
2050.414256
2356.676326
1895.32959
1939.54853
2907.591098
939.4207139
1552.514209
1539.868743
1570.407119
1562.005183
942.1659767
922.5371257
1498.350722
1478.360485
1528.183156
1514.287494
929.5361537
971.0280312
1626.574002
1614.286475
1644.927427
1632.991431
974.2903724
951.9493372
1586.937574
1579.430898
1606.735562
1595.401286
955.5279668
1528.285966
1533.580202
607.6280144
907.307726
903.592732
916.1678733
913.0911911
613.0307836
1513.877356
1520.036537
1611.3213
1520.178821
688.0577891
981.1508258
991.0601296
1439.491233
1381.593006
770.2938183
626.8355366
925.5127376
923.7222625
935.3228893
938.870793
638.0645614
1573.155604
1565.396425
4037.316501
3895.253278
4263.416752
2775.387358
3306.308287
2207.831898
3780.977351
3835.241461
3759.700278
3774.370319
2263.171872
1624.523152
3162.304764
2653.183633
3722.802963
3862.921649
1869.396726
1052.011968
718.2598368
720.4463016
702.7198419
705.7443842
1037.953468
1729.974951
1746.290879
1694.189114
1713.655919
1686.610704
2160.61514
1536.09316
863.5878441
959.42685
749.1578408
773.7462062
1097.723479
1461.333511
2056.302296
1605.992239
1525.42851
997.6127489
1662.375697
1646.217974
1703.787814
1654.073987
993.7096139
1649.990519
1663.884964
1603.744712
1617.600624
4495.783729
2756.029844
2947.760911
1997.218336
2419.471602
4599.188405
4601.635679
4425.135404
3260.146814
3803.069398
4941.192237
5114.542206
3612.591589
3856.856187
2696.948365
3167.020594
5314.512701
1820.347732
1821.446235
1801.658873
1805.237153
1182.508002
1195.328215
809.6806895
1888.41573
1783.524326
1841.136256
1830.890356
1769.011813
1074.851401
1084.028718
1065.97714
1072.572644
1764.642036
1810.674271
1099.848211
1162.474829
1086.079534
1102.815352
1814.253639
4845.536252
843.2006004
849.7100779
1250.788419
5291.444213
8448.338724
8839.634916
8128.449444
8213.709414
5940.253926
1933.033617
5886.266599
3994.038485
4407.368825
1157.37829
1859.179475
1841.189669
5944.053747
6528.958448
6262.386873
5013.648152
5511.236962
6927.402749
6554.361089
3979.016126
6215.276804
5269.697014
2309.819672
1851.222506
1227.350419
31.76841124
31.77858878
31.86408444
31.78281984
31.80075423
31.87530182
31.80758001
31.83418451
31.89268761
31.84328738
31.87386221
31.91411471
31.88266771
31.90496016
31.93271886
31.90946177
31.91479858
31.93902755
31.91325709
31.8994354
31.93036972
31.8932654
31.86643706
31.91189382
31.85786257
31.82976165
31.89197616
31.82194041
31.79995633
31.87592167
31.65528663
31.67646674
31.75151633
31.68586715
31.72320831
31.77840816
31.7383504
31.7903911
31.81879406
31.8111009
31.87032525
31.86511597
31.88814925
31.93111518
31.90410334
31.94245871
31.94983445
31.91537559
31.94306941
31.91389941
31.89512792
31.89913459
31.84855181
31.85643682
31.83088931
31.77749947
31.81289454
31.76139214
31.7184208
31.77701588
31.55407427
31.5966064
31.65400299
31.61554542
31.68683309
31.7098064
31.71794286
31.82835917
31.79124844
31.87202915
32.01916837
31.88480168
32.05204016
32.15716207
31.96415333
32.1961402
32.20032555
31.97657709
32.16606589
32.08993338
31.93305302
32.04986739
31.92890582
31.85529556
31.88916407
31.78078029
31.77077362
31.75024793
31.67107045
31.70236548
31.4691717
31.54333155
31.58067813
31.57583187
31.71479777
31.68808132
31.77964929
32.04374216
31.86076229
32.15855604
32.61785795
32.0878976
32.72771994
33.14595113
32.31628898
33.29558595
33.22780439
32.31199641
33.04724793
32.7180274
32.17191506
32.58248219
32.2403438
31.97745015
32.14182044
31.89769334
31.7965787
31.83169994
31.67545362
31.66572613
31.40526869
31.52277423
31.53507265
31.5801951
31.84494895
31.73689799
31.97598116
32.59593556
32.1419467
32.92025497
34.70545754
32.85449453
35.43902262
40.3521072
33.84363433
40.36252309
38.44677721
33.70429055
36.86941603
34.71274273
32.99873926
34.16605958
33.04306778
32.38182523
32.78115711
32.20761207
31.95345066
32.06788869
31.75707524
31.68723671
31.35555878
31.53365819
31.52330333
31.62629062
32.07075758
31.8939972
32.3052767
33.56493613
32.80651163
34.34572075
41.97458471
35.49371556
39.85674978
45.42801397
38.7447156
55.74696545
54.23041754
42.48460458
44.88806425
40.23961516
38.13996259
38.20746641
34.71729202
33.36762311
34.05891673
32.78842544
32.3255862
32.51196068
31.9384515
31.79232049
31.31571491
31.56434204
31.53990769
31.69490115
32.32267474
32.13529825
32.65701774
34.48925356
33.82978317
35.08434573
36.6060784
36.09375644
48.76138417
54.8804171
52.77020596
80.63412226
59.49903684
50.67366059
45.24174392
37.3388837
35.29914832
36.01692955
33.64655807
32.98090491
33.16687014
32.21679098
32.00008675
31.282651
31.5992554
31.57324402
31.76266504
32.52931156
32.37949884
32.92845524
35.04695502
34.65571362
36.04905221
37.95099031
37.7030704
55.17121601
64.79565879
63.82113333
125.666548
80.55175324
72.98731551
52.23233222
40.21002028
38.07082466
38.19745867
34.63132434
33.88869322
33.92488653
32.55207173
32.29717456
31.24823942
31.6253826
31.60691194
31.81580238
32.6850065
32.57222371
33.12733418
35.43998247
35.14838596
36.63005378
38.77547918
38.56121952
61.82659653
80.33947626
77.90971667
141.3243022
92.0274914
89.02303766
56.68972753
42.50798329
40.86342521
40.02065833
35.52925814
34.87179444
34.6304358
32.88113929
32.63662014
31.21227972
31.6430849
31.62999442
31.85759463
32.8174173
32.71826118
33.29964354
35.84914303
35.52615778
37.21341276
39.83429419
39.47799199
69.58347506
95.65199765
92.39186063
136.3363574