/*--------------------------------*- C++ -*----------------------------------*\
| =========                 |                                                 |
| \\      /  F ield         | OpenFOAM: The Open Source CFD Toolbox           |
|  \\    /   O peration     | Version:  v1912                                 |
|   \\  /    A nd           | Website:  www.openfoam.com                      |
|    \\/     M anipulation  |                                                 |
\*---------------------------------------------------------------------------*/
FoamFile
{
    version     2.0;
    format      ascii;
    class       pointVectorField;
    location    "0.02";
    object      pointDisplacement;
}
// * * * * * * * * * * * * * * * * * * * * * * * * * * * * * * * * * * * * * //

dimensions      [0 1 0 0 0 0 0];


internalField   nonuniform List<vector> 
26316
(
(0 0 0)
(0 0 0)
(0 0 0)
(0 0 0)
(0 0 0)
(0 0 0)
(0 0 0)
(0 0 0)
(0 0 0)
(0 0 0)
(0 0 0)
(0 0 0)
(0 0 0)
(0 0 0)
(0 0 0)
(0 0 0)
(0 0 0)
(0 0 0)
(0 0 0)
(0 0 0)
(0 0 0)
(0 0 0)
(0 0 0)
(0 0 0)
(0 0 0)
(0 0 0)
(0 0 0)
(0 0 0)
(0 0 0)
(0 0 0)
(0 0 0)
(0 0 0)
(0 0 0)
(0 0 0)
(0 0 0)
(0 0 0)
(0 0 0)
(0 0 0)
(0 0 0)
(0 0 0)
(0 0 0)
(0 0 0)
(0 0 0)
(0 0 0)
(0 0 0)
(0 0 0)
(0 0 0)
(0 0 0)
(0 0 0)
(0 0 0)
(0 0 0)
(0 0 0)
(0 0 0)
(0 0 0)
(0 0 0)
(0 0 0)
(0 0 0)
(0 0 0)
(0 0 0)
(0 0 0)
(0 0 0)
(0 0 0)
(0 0 0)
(0 0 0)
(0 0 0)
(0 0 0)
(0 0 0)
(0 0 0)
(0 0 0)
(0 0 0)
(0 0 0)
(0 0 0)
(0 0 0)
(0 0 0)
(0 0 0)
(0 0 0)
(0 0 0)
(0 0 0)
(0 0 0)
(0 0 0)
(0 0 0)
(0 0 0)
(0 0 0)
(0 0 0)
(0 0 0)
(0 0 0)
(0 0 0)
(0 0 0)
(0 0 0)
(0 0 0)
(0 0 0)
(0 0 0)
(0 0 0)
(0 0 0)
(0 0 0)
(0 0 0)
(0 0 0)
(0 0 0)
(0 0 0)
(0 0 0)
(0 0 0)
(0 0 0)
(0 0 0)
(0 0 0)
(0 0 0)
(0 0 0)
(0 0 0)
(0 0 0)
(0 0 0)
(0 0 0)
(0 0 0)
(0 0 0)
(0 0 0)
(0 0 0)
(0 0 0)
(0 0 0)
(0 0 0)
(0 0 0)
(0 0 0)
(-1.581688198e-07 1.370832139e-06 2.775557562e-17)
(0 0 0)
(0 0 0)
(-8.754128666e-08 1.535531817e-05 3.330669074e-16)
(4.027376109e-07 1.305317813e-05 2.91433544e-16)
(0 0 0)
(0 0 0)
(0 0 0)
(0 0 0)
(0 0 0)
(0 0 0)
(0 0 0)
(0 0 0)
(0 0 0)
(0 0 0)
(0 0 0)
(0 0 0)
(0 0 0)
(0 0 0)
(0 0 0)
(0 0 0)
(0 0 0)
(0 0 0)
(0 0 0)
(0 0 0)
(0 0 0)
(0 0 0)
(0 0 0)
(0 0 0)
(0 0 0)
(0 0 0)
(0 0 0)
(0 0 0)
(0 0 0)
(0 0 0)
(0 0 0)
(0 0 0)
(0 0 0)
(0 0 0)
(0 0 0)
(0 0 0)
(0 0 0)
(0 0 0)
(0 0 0)
(0 0 0)
(0 0 0)
(0 0 0)
(0 0 0)
(0 0 0)
(0 0 0)
(0 0 0)
(0 0 0)
(0 0 0)
(0 0 0)
(0 0 0)
(0 0 0)
(0 0 0)
(0 0 0)
(0 0 0)
(0 0 0)
(0 0 0)
(0 0 0)
(0 0 0)
(0 0 0)
(0 0 0)
(0 0 0)
(-9.85406119e-06 1.914106315e-05 4.857225733e-16)
(-5.671996204e-05 0.0001200697628 3.080868893e-15)
(-7.415379752e-07 1.631652738e-06 2.775557562e-17)
(-0.0001077524279 0.0003244603227 8.007483565e-15)
(-0.0002678388791 0.0007763211874 1.992850329e-14)
(-0.0003181396996 0.001051573188 2.69784195e-14)
(-0.0001481711542 0.0005086958587 1.255939797e-14)
(-0.0001810034057 0.001071967181 2.646494135e-14)
(-0.0003183069661 0.001816854904 4.661548925e-14)
(-0.000266582575 0.002007609469 5.151434834e-14)
(-0.0001562340265 0.001219946079 3.011479954e-14)
(-8.297888041e-06 0.001426789953 3.522182546e-14)
(-1.291631679e-05 0.002269407 5.823119764e-14)
(8.204652007e-05 0.00224013873 5.74817971e-14)
(4.897428196e-05 0.001403430083 3.463895837e-14)
(0.0001688348611 0.001075769603 2.656208586e-14)
(0.000297788782 0.001821776789 4.675426712e-14)
(0.0003274220564 0.001591739315 4.085620731e-14)
(0.0001779423055 0.0009005330747 2.223221607e-14)
(0.0001049971555 0.0003285700405 8.118505868e-15)
(0.0002602253385 0.0007829008695 2.009503675e-14)
(0.0001959466334 0.000523066458 1.34336986e-14)
(6.136882922e-05 0.0001703644815 4.204969706e-15)
(0 0 0)
(1.033660866e-05 2.061351806e-05 5.273559367e-16)
(0 0 0)
(0 0 0)
(0 0 0)
(0 0 0)
(0 0 0)
(0 0 0)
(0 0 0)
(0 0 0)
(0 0 0)
(0 0 0)
(0 0 0)
(0 0 0)
(0 0 0)
(0 0 0)
(0 0 0)
(0 0 0)
(0 0 0)
(0 0 0)
(0 0 0)
(0 0 0)
(0 0 0)
(0 0 0)
(0 0 0)
(0 0 0)
(0 0 0)
(0 0 0)
(0 0 0)
(0 0 0)
(0 0 0)
(0 0 0)
(0 0 0)
(0 0 0)
(0 0 0)
(0 0 0)
(0 0 0)
(0 0 0)
(0 0 0)
(0 0 0)
(0 0 0)
(0 0 0)
(0 0 0)
(0 0 0)
(0 0 0)
(0 0 0)
(0 0 0)
(0 0 0)
(-2.752116229e-05 3.384874863e-05 1.026956298e-15)
(-0.0001503655967 0.0001971881089 6.009082121e-15)
(-3.561278174e-05 4.889131021e-05 1.429412144e-15)
(-0.0005086516086 0.0008715995051 2.53824739e-14)
(-0.0008139706405 0.001332916974 4.062028491e-14)
(-0.001039329701 0.001855948061 5.655198532e-14)
(-0.0006997802155 0.001307410902 3.805289417e-14)
(-0.00109177704 0.00279746123 8.140710328e-14)
(-0.001446258495 0.00354362635 1.079414336e-13)
(-0.001457766408 0.004076798409 1.241645675e-13)
(-0.001123877023 0.003286208192 9.5617958e-14)
(-0.0008876908925 0.004497108652 1.308536612e-13)
(-0.001106581579 0.005366937283 1.634525848e-13)
(-0.0008816642005 0.005658828716 1.723621246e-13)
(-0.0007129275389 0.004776350107 1.389860449e-13)
(-2.612752357e-05 0.005147378328 1.498245972e-13)
(-2.941995283e-05 0.006042943219 1.841443664e-13)
(0.0002722997588 0.006000198139 1.828676099e-13)
(0.0002191758581 0.005106201517 1.486449852e-13)
(0.0008408620604 0.004502316417 1.311173392e-13)
(0.001052550979 0.005370753649 1.637717739e-13)
(0.001231985261 0.005005605717 1.526556659e-13)
(0.0009751583368 0.004155762062 1.210420653e-13)
(0.001062231034 0.002808672846 8.182343691e-14)
(0.001409007005 0.00355449169 1.084410339e-13)
(0.00133719792 0.002995229862 9.137135493e-14)
(0.000981373194 0.00230366799 6.711298184e-14)
(0.0005024632061 0.0008823723821 2.570166302e-14)
(0.0008029457701 0.001346038604 4.106437412e-14)
(0.0005681188849 0.0008786628854 2.679800826e-14)
(0.0003156097729 0.0005112790046 1.489086632e-14)
(0 0 0)
(2.731956149e-05 3.421673878e-05 1.054711873e-15)
(0 0 0)
(0 0 0)
(0 0 0)
(0 0 0)
(0 0 0)
(0 0 0)
(0 0 0)
(0 0 0)
(0 0 0)
(0 0 0)
(0 0 0)
(0 0 0)
(0 0 0)
(0 0 0)
(0 0 0)
(0 0 0)
(0 0 0)
(0 0 0)
(0 0 0)
(0 0 0)
(0 0 0)
(0 0 0)
(0 0 0)
(0 0 0)
(0 0 0)
(0 0 0)
(0 0 0)
(0 0 0)
(0 0 0)
(0 0 0)
(0 0 0)
(0 0 0)
(0 0 0)
(0 0 0)
(0 0 0)
(0 0 0)
(0 0 0)
(0 0 0)
(0 0 0)
(-1.184027368e-05 9.902276212e-06 3.747002708e-16)
(0 0 0)
(-0.0005042209878 0.0005327190771 1.891542478e-14)
(-0.0007495629436 0.0007471432506 2.807476474e-14)
(-0.001173622073 0.001249326568 4.690692279e-14)
(-0.0008615133056 0.0009711161137 3.447242491e-14)
(-0.001973822377 0.002781996411 9.862943795e-14)
(-0.002396589238 0.003195060085 1.197791866e-13)
(-0.002683462388 0.003903003033 1.462718835e-13)
(-0.002256247104 0.003469023374 1.229572e-13)
(-0.002581897007 0.005452378507 1.931232951e-13)
(-0.002945721815 0.005885596704 2.204486593e-13)
(-0.002822891006 0.006440066934 2.411959521e-13)
(-0.00249860797 0.006024617948 2.133848653e-13)
(-0.001745815196 0.007313002332 2.59056665e-13)
(-0.001929941562 0.007649859089 2.865763182e-13)
(-0.001503172404 0.007895990833 2.958605583e-13)
(-0.001366483434 0.007584863364 2.687294831e-13)
(-3.66244158e-05 0.007928400905 2.811084698e-13)
(-3.899589633e-05 0.008199555853 3.075040222e-13)
(0.0004662396312 0.008164456643 3.062827769e-13)
(0.0004249395762 0.007889251938 2.798039578e-13)
(0.001675402303 0.00730787996 2.594313653e-13)
(0.001854524773 0.007640543655 2.869510185e-13)
(0.002228602144 0.007315843197 2.748634653e-13)
(0.002001300992 0.006956280241 2.47024623e-13)
(0.00252462975 0.005454096289 1.938171845e-13)
(0.002882910732 0.005878247275 2.210315264e-13)
(0.002906572718 0.005263626383 1.979527653e-13)
(0.002517251499 0.004829855464 1.716543574e-13)
(0.001936696817 0.002775232456 9.864331574e-14)
(0.002411482587 0.003248650979 1.223743329e-13)
(0.002082157339 0.002583762842 9.74359482e-14)
(0.001651543218 0.002176680422 7.743805597e-14)
(0.0005741579956 0.0006134916072 2.184363801e-14)
(0.0008577767678 0.0008654931909 3.262667914e-14)
(0.0004843335566 0.0004600894758 1.734723476e-14)
(0.0002768453174 0.000278446484 9.908740495e-15)
(0 0 0)
(0 0 0)
(0 0 0)
(0 0 0)
(0 0 0)
(0 0 0)
(0 0 0)
(0 0 0)
(0 0 0)
(0 0 0)
(0 0 0)
(0 0 0)
(0 0 0)
(0 0 0)
(0 0 0)
(0 0 0)
(0 0 0)
(0 0 0)
(0 0 0)
(0 0 0)
(0 0 0)
(0 0 0)
(0 0 0)
(0 0 0)
(0 0 0)
(0 0 0)
(0 0 0)
(0 0 0)
(0 0 0)
(0 0 0)
(0 0 0)
(0 0 0)
(0 0 0)
(0 0 0)
(0 0 0)
(-5.472600094e-05 3.585910194e-05 1.637578961e-15)
(-0.0001244592444 7.577250929e-05 3.719247132e-15)
(-0.0004421476865 0.0002832877638 1.393329896e-14)
(-0.0002972330411 0.0002049360087 9.36750677e-15)
(-0.001749376729 0.00143155432 6.5336625e-14)
(-0.002069850533 0.001574425936 7.729927809e-14)
(-0.00267049288 0.002166492628 1.062899768e-13)
(-0.002314866797 0.002020319923 9.214851104e-14)
(-0.003668570705 0.004006502316 1.822292317e-13)
(-0.004051860674 0.004105219506 2.010752675e-13)
(-0.004277861657 0.004727230027 2.313566005e-13)
(-0.003910179529 0.004663270396 2.118305531e-13)
(-0.003893596749 0.00641146416 2.903510765e-13)
(-0.004132571186 0.006303629913 3.071570776e-13)
(-0.003827749641 0.006677130226 3.251288128e-13)
(-0.003619639649 0.006808362099 3.082811784e-13)
(-0.002322336127 0.00760521631 3.443911822e-13)
(-0.002395412891 0.007270212921 3.539252225e-13)
(-0.001822717456 0.007338205506 3.572975249e-13)
(-0.001780659454 0.007726199065 3.499700529e-13)
(-4.87715833e-05 0.007839669315 3.555211681e-13)
(-5.27135629e-05 0.007368182235 3.592126596e-13)
(0.0005403684199 0.007363168986 3.591571485e-13)
(0.0005370091325 0.007825063185 3.550493233e-13)
(0.002244763574 0.00759312337 3.45126705e-13)
(0.002310400971 0.007250304716 3.54410945e-13)
(0.002850728057 0.007124798765 3.485683964e-13)
(0.002752113418 0.007408971226 3.369943213e-13)
(0.003826854879 0.006382121829 2.909894548e-13)
(0.004070753631 0.006270530034 3.082256672e-13)
(0.004280990337 0.005844541806 2.878530747e-13)
(0.003984375144 0.005876019353 2.684796829e-13)
(0.003706470953 0.004093115432 1.874056466e-13)
(0.004083937225 0.00418763694 2.064182159e-13)
(0.003747206666 0.003549854287 1.749433931e-13)
(0.003361772458 0.003429775365 1.570132913e-13)
(0.00183792328 0.001527151762 6.983302825e-14)
(0.002165917427 0.001671284688 8.228140391e-14)
(0.001562835945 0.00113572596 5.589972929e-14)
(0.001280693145 0.001002192438 4.582445534e-14)
(8.46515077e-05 5.634322881e-05 2.581268532e-15)
(0.0001454196168 8.983701266e-05 4.427014311e-15)
(3.69199941e-06 2.171666594e-06 1.110223025e-16)
(0 0 0)
(0 0 0)
(0 0 0)
(0 0 0)
(0 0 0)
(0 0 0)
(0 0 0)
(0 0 0)
(0 0 0)
(0 0 0)
(0 0 0)
(0 0 0)
(0 0 0)
(0 0 0)
(0 0 0)
(0 0 0)
(0 0 0)
(0 0 0)
(0 0 0)
(0 0 0)
(0 0 0)
(0 0 0)
(0 0 0)
(0 0 0)
(0 0 0)
(0 0 0)
(0 0 0)
(0 0 0)
(0 0 0)
(-5.208702219e-06 1.783264239e-06 1.387778781e-16)
(-1.421309455e-07 5.469224362e-08 0)
(0 0 0)
(-0.0003907687324 0.000183473875 1.169897512e-14)
(-0.0004932243925 0.0002087087354 1.476596623e-14)
(-0.001023517608 0.0004559556629 3.223810108e-14)
(-0.0008732144441 0.0004315744783 2.750577544e-14)
(-0.002840159243 0.00166790508 1.059985433e-13)
(-0.003091198866 0.001636552037 1.153521723e-13)
(-0.003757628782 0.002122362129 1.494360191e-13)
(-0.003560876392 0.002231337227 1.416505802e-13)
(-0.004938918556 0.003864129675 2.448041769e-13)
(-0.005140045085 0.003625430388 2.546574063e-13)
(-0.005282413891 0.004059634959 2.850358838e-13)
(-0.005101489523 0.004348873536 2.754185768e-13)
(-0.004627208121 0.005390457944 3.410882687e-13)
(-0.004717096449 0.004946334747 3.472361287e-13)
(-0.004252281447 0.005075200342 3.56242813e-13)
(-0.004200847019 0.00557918528 3.527178549e-13)
(-0.002477838117 0.00570457589 0)
(-0.002505175891 0.005129590738 0)
(-0.002206384333 0.005132804883 0)
(-0.001891451931 0.005148908093 0)
(-0.001875274087 0.005433520729 0)
(-0.001870750416 0.005711304743 0)
(-6.402422745e-05 0.005710886324 0)
(-6.583031935e-05 0.005434649123 0)
(0.0002367995906 0.005432912596 0)
(0.000236966514 0.005709134536 0)
(0.002369347467 0.005672336809 0)
(0.002376524429 0.005388568714 0)
(0.002385819061 0.005100391149 0)
(0.002686809408 0.005089744375 0)
(0.002983465368 0.005084594486 0)
(0.002974090841 0.005654412737 0)
(0.004548558588 0.005375068982 3.434474927e-13)
(0.004625273185 0.0049253032 3.493039191e-13)
(0.004990138104 0.004723884683 3.353012312e-13)
(0.004876896469 0.005125117438 3.276823257e-13)
(0.004962535631 0.003915267046 2.506328478e-13)
(0.005144118124 0.003648339084 2.596950432e-13)
(0.00489125077 0.003202817791 2.280675648e-13)
(0.004667548796 0.003400167054 2.177147351e-13)
(0.003024309319 0.001791908042 1.147415496e-13)
(0.003307750015 0.00176417775 1.254829574e-13)
(0.002608584922 0.001310966687 9.317546734e-14)
(0.002349397904 0.001311364613 8.393286066e-14)
(0.0005240436994 0.000249246578 1.591782262e-14)
(0.0006550089072 0.0002806279744 1.990074772e-14)
(0.0002347229215 9.582826274e-05 6.800116026e-15)
(0.0001597072282 7.237490637e-05 4.62130334e-15)
(0 0 0)
(0 0 0)
(0 0 0)
(0 0 0)
(0 0 0)
(0 0 0)
(0 0 0)
(0 0 0)
(0 0 0)
(0 0 0)
(0 0 0)
(0 0 0)
(0 0 0)
(0 0 0)
(0 0 0)
(0 0 0)
(0 0 0)
(0 0 0)
(0 0 0)
(0 0 0)
(0 0 0)
(0 0 0)
(0 0 0)
(0 0 0)
(0 0 0)
(0 0 0)
(0 0 0)
(0 0 0)
(-4.693340848e-05 8.107033148e-06 1.276756478e-15)
(-2.674595651e-05 5.754589713e-06 7.21644966e-16)
(-2.188052299e-05 5.632973564e-06 5.967448757e-16)
(-0.0007086757719 0.0002007539281 2.120525977e-14)
(-0.0007349433562 0.0001740313807 2.198241589e-14)
(-0.00136102655 0.0003395098004 4.282685317e-14)
(-0.001325180011 0.000395369809 4.170275236e-14)
(-0.003568943258 0.001266980278 1.330463517e-13)
(-0.003624832039 0.001076759585 1.351141421e-13)
(-0.004317870425 0.001368962644 1.714878239e-13)
(-0.004258861623 0.001613274782 1.691841112e-13)
(-0.005540869373 0.002619926355 2.740169203e-13)
(-0.005593305605 0.002214221164 2.765149221e-13)
(-0.005671368616 0.002445040382 3.052558206e-13)
(-0.005625706269 0.002897521988 3.029104745e-13)
(-0.004843766081 0.003398120534 3.553685124e-13)
(-0.004859654597 0.00284959958 3.56242813e-13)
(-0.00431008981 0.002870522886 0)
(-0.004305655282 0.003432733507 3.592126596e-13)
(-0.002536099079 0.003427964653 0)
(-0.002539596467 0.003142940362 0)
(-0.002244847799 0.003142744176 0)
(-0.00224137917 0.003427319637 0)
(0.002394469544 0.00340456818 0)
(0.00239432551 0.003122287157 0)
(0.00268897803 0.003119217528 0)
(0.00268942964 0.003401078705 0)
(0.004731837177 0.003359751211 3.574501806e-13)
(0.004740035817 0.002810118059 3.583244812e-13)
(0.005219986898 0.002748370889 3.510386426e-13)
(0.005193411628 0.003276270538 3.490402412e-13)
(0.005653566689 0.002676124923 2.855216064e-13)
(0.005725089382 0.002260656762 2.892686091e-13)
(0.00553234431 0.002017963596 2.581268532e-13)
(0.005451173131 0.002383609738 2.542549504e-13)
(0.003884989835 0.001385436511 1.473821065e-13)
(0.003973662351 0.001182477032 1.507821645e-13)
(0.003228456321 0.0009054894568 1.153244167e-13)
(0.003144872472 0.0010570743 1.123268145e-13)
(0.0009503676557 0.0002726059968 2.886579864e-14)
(0.001073211878 0.0002567988044 3.259892356e-14)
(0.0005119391082 0.000116815804 1.480759959e-14)
(0.0004214368911 0.0001152425884 1.21846977e-14)
(0 0 0)
(0 0 0)
(0 0 0)
(0 0 0)
(0 0 0)
(0 0 0)
(0 0 0)
(0 0 0)
(0 0 0)
(0 0 0)
(0 0 0)
(0 0 0)
(0 0 0)
(0 0 0)
(0 0 0)
(0 0 0)
(0 0 0)
(0 0 0)
(0 0 0)
(0 0 0)
(0 0 0)
(0 0 0)
(0 0 0)
(0 0 0)
(0 0 0)
(0 0 0)
(0 0 0)
(0 0 0)
(-7.70433096e-05 2.821350387e-07 2.095545959e-15)
(-6.958573198e-05 3.1928985e-06 1.90125693e-15)
(-6.104659879e-05 5.380734914e-06 1.665334537e-15)
(-0.0008731506645 8.49307483e-05 2.611799665e-14)
(-0.0009028308497 4.591644753e-05 2.700617507e-14)
(-0.001574476818 8.483153342e-05 4.954370247e-14)
(-0.001537430423 0.0001578852263 4.83779683e-14)
(-0.003847600603 0.00047396588 1.433714258e-13)
(-0.00389279055 0.0002544696013 1.450506382e-13)
(-0.004577402894 0.0003210471163 1.81687998e-13)
(-0.004533834148 0.0005973014128 1.799949079e-13)
(-0.005742822211 0.0009476222096 2.836342272e-13)
(-0.005772638309 0.0005099103915 2.850358838e-13)
(-0.005813600545 0.0005592240415 3.124306369e-13)
(-0.005789997888 0.001040297394 3.112787805e-13)
(-0.004888173331 0.001189774866 3.576305918e-13)
(-0.004893997142 0.0006348716364 3.578526364e-13)
(-0.004323049484 0.0006337419266 0)
(-0.004320167624 0.0011915477 0)
(-0.002553445509 0.001180579437 0)
(-0.00255505576 0.0009014837134 0)
(-0.002261054297 0.000899699534 0)
(-0.002259405262 0.001178795007 0)
(0.002386595802 0.001152549601 0)
(0.002384845656 0.0008718128289 0)
(0.002678793567 0.0008697445629 0)
(0.002680594507 0.00115033879 0)
(0.004740418441 0.001135203062 3.591571485e-13)
(0.004736687498 0.0005752252845 3.592126596e-13)
(0.005264847218 0.0005650875997 3.550770789e-13)
(0.005261076307 0.001116834076 3.545358451e-13)
(0.005910633886 0.0009379880822 2.990385717e-13)
(0.005943657641 0.0004748667258 3.008843175e-13)
(0.005806685998 0.0004288942534 2.713662628e-13)
(0.005763689382 0.0008450618184 2.692290835e-13)
(0.004291803589 0.0005155964492 1.629529844e-13)
(0.004355437703 0.0002656470723 1.654093529e-13)
(0.003615401893 0.0002092405601 1.292299601e-13)
(0.003549816093 0.0004030547259 1.268568584e-13)
(0.001230836647 0.0001203297808 3.738676035e-14)
(0.001280954871 6.463072367e-05 3.89271948e-14)
(0.0006606028721 3.195401121e-05 1.91235916e-14)
(0.0006227566488 5.817529381e-05 1.801336857e-14)
(0 0 0)
(0 0 0)
(0 0 0)
(0 0 0)
(0 0 0)
(0 0 0)
(0 0 0)
(0 0 0)
(0 0 0)
(0 0 0)
(0 0 0)
(0 0 0)
(0 0 0)
(0 0 0)
(0 0 0)
(0 0 0)
(0 0 0)
(0 0 0)
(0 0 0)
(0 0 0)
(0 0 0)
(0 0 0)
(0 0 0)
(0 0 0)
(0 0 0)
(0 0 0)
(0 0 0)
(0 0 0)
(-0.0001136473292 -1.876122338e-05 3.094746681e-15)
(-0.0001024612402 -1.259178351e-05 2.789435349e-15)
(-9.250152643e-05 -7.466477729e-06 2.525757381e-15)
(-0.0009766723452 -8.612714806e-05 2.921274334e-14)
(-0.001006582018 -0.0001353925994 3.011479954e-14)
(-0.001702600753 -0.000240196917 5.356826094e-14)
(-0.001665905013 -0.000153863168 5.241640455e-14)
(-0.004003131631 -0.000431404759 1.4911683e-13)
(-0.004046800352 -0.0006694285084 1.507266534e-13)
(-0.004725541514 -0.0008303698255 1.874889133e-13)
(-0.004683659362 -0.0005353795377 1.858513343e-13)
(-0.005845329716 -0.000824593561 2.883804306e-13)
(-0.00587345146 -0.001276890372 2.896849427e-13)
(-0.005893227674 -0.001393980224 3.162886619e-13)
(-0.005871196455 -0.0009011142021 3.152061945e-13)
(-0.004908334022 -0.001030248498 3.583106034e-13)
(-0.004913055152 -0.001585896054 3.584632591e-13)
(-0.004333693323 -0.001592793737 0)
(-0.00433111834 -0.001036459859 0)
(-0.002565546503 -0.001047368971 0)
(-0.002566981666 -0.00132537981 0)
(-0.00227338056 -0.001327096758 0)
(-0.002272637039 -0.001188078577 0)
(-0.002271894269 -0.00104917675 0)
(0.002369378454 -0.001090867319 0)
(0.002366781898 -0.001370538461 0)
(0.002660396684 -0.001372139138 0)
(0.00266303144 -0.001092558745 0)
(0.004721276448 -0.001103946973 3.59184904e-13)
(0.004714918693 -0.001661630348 3.591155151e-13)
(0.00523229342 -0.001642085428 3.542444116e-13)
(0.005244627858 -0.001093341406 3.547162564e-13)
(0.005908261953 -0.0009267667001 2.996491943e-13)
(0.005882850182 -0.001386935015 2.985667269e-13)
(0.00573900597 -0.001247803785 2.68798872e-13)
(0.005766820301 -0.0008340946952 2.699507284e-13)
(0.004307781868 -0.000501509535 1.637578961e-13)
(0.00427920965 -0.0007506892207 1.627309398e-13)
(0.003541213761 -0.0005828423367 1.267319583e-13)
(0.003567992475 -0.0003891592004 1.276478923e-13)
(0.001246536066 -0.0001139158429 3.788636072e-14)
(0.001230310151 -0.0001704554391 3.740063814e-14)
(0.0006232006048 -8.201999606e-05 1.804112415e-14)
(0.0006346938698 -5.502914118e-05 1.837419106e-14)
(0 0 0)
(0 0 0)
(0 0 0)
(0 0 0)
(0 0 0)
(0 0 0)
(0 0 0)
(0 0 0)
(0 0 0)
(0 0 0)
(0 0 0)
(0 0 0)
(0 0 0)
(0 0 0)
(0 0 0)
(0 0 0)
(0 0 0)
(0 0 0)
(0 0 0)
(0 0 0)
(0 0 0)
(0 0 0)
(0 0 0)
(0 0 0)
(0 0 0)
(0 0 0)
(0 0 0)
(0 0 0)
(-0.0001627469116 -5.433895711e-05 4.440892099e-15)
(-0.0001494467581 -4.35920329e-05 4.066191828e-15)
(-0.0001365824481 -3.407558812e-05 3.719247132e-15)
(-0.001100075772 -0.0003009114566 3.291811268e-14)
(-0.00113300631 -0.000362425009 3.388955783e-14)
(-0.00185601163 -0.0006236347539 5.83977311e-14)
(-0.00181631309 -0.0005217886889 5.714873019e-14)
(-0.004180232843 -0.001414539986 1.556532681e-13)
(-0.00422618791 -0.001673635248 1.573463582e-13)
(-0.004896842266 -0.002062985417 1.94178007e-13)
(-0.004853076501 -0.001746752889 1.924710391e-13)
(-0.005958116613 -0.00265874096 2.936123566e-13)
(-0.005986802018 -0.003127674779 2.949446243e-13)
(-0.00598126674 -0.003399544897 3.205768984e-13)
(-0.005959109685 -0.002893109856 3.194944309e-13)
(-0.004925820304 -0.003255892734 3.588518371e-13)
(-0.004929594427 -0.003813066326 3.589628594e-13)
(-0.004343406916 -0.003819425915 0)
(-0.00434107548 -0.003262767244 0)
(-0.002576589111 -0.003273591766 0)
(-0.002577857879 -0.003551862256 0)
(-0.002284761058 -0.003553588873 0)
(-0.002284094353 -0.003414453837 0)
(-0.002283414888 -0.003275344741 0)
(0.002346441862 -0.003325016132 0)
(0.002343046263 -0.003604294246 0)
(0.002636378551 -0.003605595735 0)
(0.002639838289 -0.003326395608 0)
(0.004685443532 -0.003327260402 3.582828478e-13)
(0.004669460868 -0.003875702661 3.575473251e-13)
(0.005130405784 -0.003784724518 3.489569744e-13)
(0.005166453039 -0.003261850006 3.509692537e-13)
(0.005688798168 -0.002690867759 2.89337998e-13)
(0.005573695535 -0.003078348982 2.836897384e-13)
(0.005409655621 -0.002755143727 2.540051502e-13)
(0.005504245459 -0.002400929812 2.582795089e-13)
(0.003968049537 -0.001399593745 1.510597203e-13)
(0.003868946391 -0.001593358673 1.473404732e-13)
(0.003135353299 -0.001213179635 1.123268145e-13)
(0.003228075362 -0.001069594708 1.156158502e-13)
(0.001005712523 -0.0002817471876 3.058664433e-14)
(0.0009517500446 -0.0003115131246 2.894906537e-14)
(0.000423062323 -0.0001317267372 1.226796442e-14)
(0.0004592652975 -0.000122374968 1.329492072e-14)
(0 0 0)
(0 0 0)
(0 0 0)
(0 0 0)
(0 0 0)
(0 0 0)
(0 0 0)
(0 0 0)
(0 0 0)
(0 0 0)
(0 0 0)
(0 0 0)
(0 0 0)
(0 0 0)
(0 0 0)
(0 0 0)
(0 0 0)
(0 0 0)
(0 0 0)
(0 0 0)
(0 0 0)
(0 0 0)
(0 0 0)
(0 0 0)
(0 0 0)
(0 0 0)
(0 0 0)
(0 0 0)
(-0.0002056834525 -0.0001033884976 5.606626274e-15)
(-0.0002127113797 -9.794481645e-05 5.800915304e-15)
(-0.0001941774921 -8.121760448e-05 5.287437155e-15)
(-0.001240625557 -0.000569259613 3.712308239e-14)
(-0.001282699271 -0.000647978046 3.837208329e-14)
(-0.002034355369 -0.001079867456 6.400435737e-14)
(-0.001984556556 -0.0009567969892 6.243616735e-14)
(-0.004372686172 -0.002486919168 1.627448176e-13)
(-0.004428491541 -0.002773451694 1.647987302e-13)
(-0.005088530409 -0.003391095671 2.016442568e-13)
(-0.005035824835 -0.003047562858 1.995903443e-13)
(-0.00607656533 -0.00456116771 2.99080205e-13)
(-0.006109969405 -0.005050321854 3.006206395e-13)
(-0.006075319017 -0.005462399851 3.251565683e-13)
(-0.006050011815 -0.004939982303 3.239214452e-13)
(-0.004939476985 -0.005484500639 3.591710263e-13)
(-0.004942325416 -0.006041577965 3.591987818e-13)
(-0.004352301768 -0.006045404019 0)
(-0.004350087521 -0.005488873878 0)
(-0.002585897165 -0.005499489627 0)
(-0.00258692013 -0.005777735848 0)
(-0.002294378804 -0.00577939423 0)
(-0.002293841131 -0.005640219573 0)
(-0.002293291198 -0.005501148426 0)
(0.002317166005 -0.005553810243 0)
(0.002312961862 -0.005832165188 0)
(0.002606192227 -0.005833233301 0)
(0.002610486868 -0.005554878941 0)
(0.004600251981 -0.005480926018 3.538697113e-13)
(0.004565728884 -0.005993591003 3.518019209e-13)
(0.004943478049 -0.005759776886 3.379657665e-13)
(0.005002545316 -0.005292051168 3.415462357e-13)
(0.005247934969 -0.004147761365 2.677025268e-13)
(0.005162101388 -0.004491313141 2.635391905e-13)
(0.004885109663 -0.003917279313 2.299410662e-13)
(0.005038288253 -0.003670774371 2.370048602e-13)
(0.003420261643 -0.002015631899 1.303956942e-13)
(0.003205991144 -0.002079119232 1.222771884e-13)
(0.002483073006 -0.001513388948 8.906764215e-14)
(0.002697981602 -0.001494228496 9.67559366e-14)
(0.0006752360731 -0.0003166640416 2.055300374e-14)
(0.000589697673 -0.000304404633 1.795785742e-14)
(0.0001914750233 -9.406354435e-05 5.551115123e-15)
(0.0002410076864 -0.0001075561749 6.980527267e-15)
(0 0 0)
(0 0 0)
(0 0 0)
(0 0 0)
(0 0 0)
(0 0 0)
(0 0 0)
(0 0 0)
(0 0 0)
(0 0 0)
(0 0 0)
(0 0 0)
(0 0 0)
(0 0 0)
(0 0 0)
(0 0 0)
(0 0 0)
(0 0 0)
(0 0 0)
(0 0 0)
(0 0 0)
(0 0 0)
(0 0 0)
(0 0 0)
(0 0 0)
(0 0 0)
(0 0 0)
(0 0 0)
(-0.0003656322589 -0.0002455320268 9.964251646e-15)
(-0.0003333546128 -0.0002097340641 9.076073226e-15)
(-0.0002853079433 -0.000167475852 7.771561172e-15)
(-0.001417854319 -0.0009131737164 4.241051954e-14)
(-0.001523116976 -0.001051390213 4.556077737e-14)
(-0.002307960283 -0.001674180266 7.258083023e-14)
(-0.002179591063 -0.001475182855 6.855627177e-14)
(-0.004617087753 -0.003687508152 1.717237463e-13)
(-0.004700433193 -0.004023787236 1.747768597e-13)
(-0.005332996487 -0.004858067951 2.111366637e-13)
(-0.00526563989 -0.004475162628 2.085137618e-13)
(-0.006219909944 -0.006555500694 3.056999098e-13)
(-0.006235879198 -0.007044270028 3.063660436e-13)
(-0.006186748386 -0.007600465798 3.3054115e-13)
(-0.006157642659 -0.007058550367 3.291533712e-13)
(-0.004950216101 -0.007711068807 0)
(-0.004953192779 -0.008267542304 0)
(-0.004362293597 -0.00827107767 0)
(-0.004360857598 -0.007992937549 0)
(-0.004359499001 -0.00771477107 0)
(-0.002593459491 -0.007725334128 0)
(-0.002593931019 -0.007864276495 0)
(-0.002447621237 -0.007865054223 0)
(-0.002447162888 -0.007726150558 0)
(-5.528671749e-05 -0.007774736054 0)
(-5.734707664e-05 -0.007844020904 0)
(-5.894158623e-05 -0.007913321694 0)
(8.431688262e-05 -0.007912618748 0)
(8.819215538e-05 -0.007774137962 0)
(0.002277064454 -0.007777272367 0)
(0.002270721748 -0.008054449898 0)
(0.002264263189 -0.008331549108 0)
(0.002852455049 -0.008333890456 0)
(0.002864624586 -0.007779338126 0)
(0.002570954243 -0.007778331813 0)
(0.00442992202 -0.007438198977 3.431421813e-13)
(0.004358822268 -0.007855326412 3.382710778e-13)
(0.004624882675 -0.007386399005 3.180095076e-13)
(0.004743373941 -0.007060655085 3.256422909e-13)
(0.004729762555 -0.005246997128 2.420286194e-13)
(0.004560981967 -0.005424433345 2.335770466e-13)
(0.004218359916 -0.004622132044 1.990907439e-13)
(0.004395265624 -0.004492610464 2.072925165e-13)
(0.00265731594 -0.002195623091 1.014605067e-13)
(0.002497368051 -0.002211619927 9.539591339e-14)
(0.001824344862 -0.001518436139 6.553091403e-14)
(0.00196507739 -0.001525996758 7.055467321e-14)
(0.0002788023046 -0.0001834482761 8.493206138e-15)
(0.0002266334628 -0.0001598419648 6.911138328e-15)
(1.796538701e-05 -1.206174986e-05 5.273559367e-16)
(3.432434268e-05 -2.14985828e-05 9.992007222e-16)
(0 0 0)
(0 0 0)
(0 0 0)
(0 0 0)
(0 0 0)
(0 0 0)
(0 0 0)
(0 0 0)
(0 0 0)
(0 0 0)
(0 0 0)
(0 0 0)
(0 0 0)
(0 0 0)
(0 0 0)
(0 0 0)
(0 0 0)
(0 0 0)
(0 0 0)
(0 0 0)
(0 0 0)
(0 0 0)
(0 0 0)
(0 0 0)
(0 0 0)
(0 0 0)
(0 0 0)
(0 0 0)
(-0.0003467240299 -0.0002927608541 9.492406861e-15)
(-0.0003918195618 -0.0003142111356 1.071365219e-14)
(-0.0004186814682 -0.0003179969597 1.146305273e-14)
(-0.001686190805 -0.001405764154 5.068168107e-14)
(-0.001631944737 -0.001436566432 4.904410211e-14)
(-0.002431387728 -0.002249786891 7.685518888e-14)
(-0.002496392032 -0.002187653341 7.890910148e-14)
(-0.004904347468 -0.00507674488 1.834088437e-13)
(-0.004824096908 -0.005272783672 1.803834859e-13)
(-0.00544381234 -0.00633395369 2.167849233e-13)
(-0.005522639884 -0.006085687756 2.19949059e-13)
(-0.006337471239 -0.008672879976 3.136241267e-13)
(-0.006282332235 -0.009076204763 3.107791802e-13)
(-0.006181898435 -0.009719118789 3.327754738e-13)
(-0.006223495501 -0.009269197029 3.351624533e-13)
(-0.004896780057 -0.009942841136 0)
(-0.004900377875 -0.01049940112 0)
(-0.004307825719 -0.0105032316 0)
(-0.004306027229 -0.01022501625 0)
(-0.004304227902 -0.00994667162 0)
(-0.002526597292 -0.009958162906 0)
(-0.002528396619 -0.01023650754 0)
(-0.002232133469 -0.0102384227 0)
(-0.002231233388 -0.01009918574 0)
(-0.002230334143 -0.009960078065 0)
(-0.002378465717 -0.009959120486 0)
(-0.0001564278802 -0.009973484591 0)
(-0.0001573268779 -0.01011259227 0)
(-0.0001582268351 -0.01025182923 0)
(0.0001380454176 -0.01025374444 0)
(0.0001398447441 -0.009975399811 0)
(0.002213742382 -0.009988806281 0)
(0.002210144565 -0.01054536626 0)
(0.002792244163 -0.01050878618 3.578387586e-13)
(0.002804127625 -0.009984720629 3.589351039e-13)
(0.004148878971 -0.009023807947 3.239908342e-13)
(0.004050192106 -0.009318662444 3.17065818e-13)
(0.004223551768 -0.008599157965 2.925576448e-13)
(0.004343762821 -0.008364463345 3.002875726e-13)
(0.003972413648 -0.005680612645 2.039618474e-13)
(0.003812437547 -0.0057592886 1.959404861e-13)
(0.003386481269 -0.004709240175 1.602468158e-13)
(0.003618828209 -0.004765515486 1.711408792e-13)
(0.001884061599 -0.002004153854 7.20534743e-14)
(0.001641456045 -0.001843594642 6.279698983e-14)
(0.001113853046 -0.001175774486 4.00651734e-14)
(0.001269448602 -0.001269096808 4.56440441e-14)
(4.665250448e-05 -3.953214793e-05 1.415534356e-15)
(2.107194578e-05 -1.885567126e-05 6.383782392e-16)
(0 0 0)
(0 0 0)
(0 0 0)
(0 0 0)
(0 0 0)
(0 0 0)
(0 0 0)
(0 0 0)
(0 0 0)
(0 0 0)
(0 0 0)
(0 0 0)
(0 0 0)
(0 0 0)
(0 0 0)
(0 0 0)
(0 0 0)
(0 0 0)
(0 0 0)
(0 0 0)
(0 0 0)
(0 0 0)
(0 0 0)
(0 0 0)
(0 0 0)
(0 0 0)
(0 0 0)
(0 0 0)
(0 0 0)
(0 0 0)
(-8.100534148e-05 -8.215527754e-05 2.220446049e-15)
(-0.000146973774 -0.000142819632 4.024558464e-15)
(-0.0002183400909 -0.0002028959082 5.967448757e-15)
(-0.001250793821 -0.001276199008 3.759492717e-14)
(-0.001068855447 -0.001140549673 3.212707878e-14)
(-0.001738863397 -0.00195073677 5.496991751e-14)
(-0.001966549476 -0.002109359519 6.217248938e-14)
(-0.004227032686 -0.005356474727 1.580541253e-13)
(-0.003919954706 -0.005195902923 1.465910726e-13)
(-0.004537246642 -0.006401872394 1.806749195e-13)
(-0.00484835894 -0.006539873642 1.930400284e-13)
(-0.005828454962 -0.009757520054 2.88158386e-13)
(-0.005572302877 -0.009757003484 2.755018436e-13)
(-0.005595597215 -0.01065824891 3.009537064e-13)
(-0.005814485267 -0.01058990836 3.127359482e-13)
(-0.004857267168 -0.01203822763 3.553407568e-13)
(-0.004779207799 -0.0123815687 3.494704526e-13)
(-0.004284903447 -0.01262226198 3.561734241e-13)
(-0.004316004011 -0.01216594485 3.590044928e-13)
(-0.002540990233 -0.01218466141 0)
(-0.002544588886 -0.01274135067 0)
(-0.001952049659 -0.01274518107 0)
(-0.001948451006 -0.01218849181 0)
(-0.002244727083 -0.01218657656 0)
(-0.0001708203957 -0.01219998309 0)