/*--------------------------------*- C++ -*----------------------------------*\
| =========                 |                                                 |
| \\      /  F ield         | OpenFOAM: The Open Source CFD Toolbox           |
|  \\    /   O peration     | Version:  v1912                                 |
|   \\  /    A nd           | Website:  www.openfoam.com                      |
|    \\/     M anipulation  |                                                 |
\*---------------------------------------------------------------------------*/
FoamFile
{
    version     2.0;
    format      ascii;
    class       surfaceScalarField;
    location    "2.82";
    object      meshPhi;
}
// * * * * * * * * * * * * * * * * * * * * * * * * * * * * * * * * * * * * * //

dimensions      [0 3 -1 0 0 0 0];
oriented        oriented;


internalField   nonuniform List<scalar> 
25162
(
0
0
0
0
0
0
0
0
0
0
0
0
0
0
0
0
0
0
0
0
0
0
0
0
0
0
0
0
0
0
0
0
0
0
0
0
0
0
0
0
0
0
0
0
0
0
0
0
0
0
0
0
0
0
0
0
0
0
0
0
0
0
0
0
0
0
0
0
0
0
0
0
0
0
0
0
0
0
0
0
0
0
0
0
0
0
0
0
0
0
0
0
0
0
0
0
0
0
0
0
0
0
0
0
-2.045388505e-09
2.310847847e-08
-2.587877616e-07
0
4.424378778e-09
2.200165569e-07
0
0
0
0
0
0
0
0
0
0
0
0
0
0
0
0
0
0
0
0
0
0
0
0
0
0
0
0
0
0
0
0
0
0
0
0
0
0
0
0
0
0
0
0
0
0
0
0
0
0
0
0
0
0
0
0
0
0
0
0
0
0
0
0
0
0
9.650875571e-09
-3.365508619e-07
-8.484044653e-07
2.124688263e-06
3.217312608e-06
-1.884793415e-05
-7.248193902e-06
2.666566523e-05
4.335229371e-06
-4.959212709e-05
-7.556829708e-06
5.56358744e-05
-4.225392695e-07
-6.473667065e-05
5.835276216e-07
6.417936291e-05
-4.62610953e-06
-5.176864529e-05
8.355997984e-06
4.466767742e-05
-2.235581366e-06
-1.995183345e-05
6.240106257e-06
1.241887581e-05
0
-3.636715035e-07
1.353996901e-07
0
0
0
0
0
0
0
0
0
0
0
0
0
0
0
0
0
0
0
0
0
0
0
0
0
0
0
0
0
0
0
0
0
0
0
0
0
0
0
0
0
0
0
0
0
0
0
0
0
0
0
4.584131441e-07
-6.282504646e-07
-2.223861936e-06
4.48628135e-06
1.423680769e-05
-3.875203701e-05
-2.130688624e-05
5.525978219e-05
2.64325759e-05
-0.0001104935364
-3.441103335e-05
0.0001288008935
2.142161307e-05
-0.0001762010046
-2.705350695e-05
0.000188078357
-3.331924572e-07
-0.0002075253666
-1.304897873e-07
0.00020793381
-2.409032588e-05
-0.000189677293
3.010252581e-05
0.0001772670967
-2.925925913e-05
-0.0001248202051
3.977144132e-05
0.0001040769898
-1.154676841e-05
-4.338122018e-05
1.980046743e-05
2.686047728e-05
0
-6.354330606e-07
3.593844362e-07
0
0
0
0
0
0
0
0
0
0
0
0
0
0
0
0
0
0
0
0
0
0
0
0
0
0
0
0
0
0
0
0
0
0
0
0
0
0
0
0
0
0
0
0
0
-1.533734991e-07
2.016704175e-07
1.568817467e-05
-2.417872202e-05
-2.151191814e-05
4.142212069e-05
4.578232383e-05
-0.0001096218842
-5.420610504e-05
0.0001351197612
6.007641091e-05
-0.000210686977
-6.855480135e-05
0.0002335366705
4.463836323e-05
-0.0002883935486
-5.007160744e-05
0.0003011924561
2.562207557e-06
-0.0003221555661
-3.526992708e-06
0.0003234393708
-4.679876498e-05
-0.0003093207095
5.115379533e-05
0.0002979550173
-7.447062335e-05
-0.0002417182007
8.565664583e-05
0.0002163392892
-5.374803779e-05
-0.000131636716
6.767482902e-05
0.0001042027291
-1.212097183e-05
-3.119678206e-05
1.957185012e-05
1.536644528e-05
0
0
0
0
0
0
0
0
0
0
0
0
0
0
0
0
0
0
0
0
0
0
0
0
0
0
0
0
0
0
0
0
0
0
0
0
0
0
0
0
0
0
4.303552696e-06
-2.461494038e-06
-6.782849762e-06
1.054482951e-05
4.229076529e-05
-6.217113099e-05
-4.840747524e-05
8.587431332e-05
7.819559211e-05
-0.0001677094357
-8.654456361e-05
0.0001958282504
9.3029431e-05
-0.0002686879535
-9.788706302e-05
0.0002859368305
6.256214484e-05
-0.0003238879002
-6.517108939e-05
0.0003299076035
5.734323588e-06
-0.0003357483921
-5.979195064e-06
0.0003360318997
-5.821804929e-05
-0.0003337365301
5.816369768e-05
0.000329753125
-0.0001094545969
-0.0003007488674
0.0001143192558
0.0002826716953
-0.0001120369821
-0.0002005378874
0.0001246997077
0.0001692138167
-4.813179557e-05
-7.652782534e-05
5.835971776e-05
5.067803222e-05
-3.332458323e-06
-1.123596564e-06
2.005635329e-06
4.953008711e-08
0
0
0
0
0
0
0
0
0
0
0
0
0
0
0
0
0
0
0
0
0
0
0
0
0
0
0
0
0
0
0
0
0
0
0
-1.35272227e-07
1.488696739e-09
5.337365957e-08
1.442681706e-05
-1.011455237e-05
-1.706098704e-05
2.25609215e-05
6.123462891e-05
-8.15393304e-05
-6.680144858e-05
0.0001090378628
0.0001060147963
-0.0001869958345
-0.0001103038733
0.0002109682576
0.0001130269335
-0.0002673156419
-0.0001187831393
0.0002800447354
6.490467309e-05
-0.0002910428894
-2.570894495e-05
-3.446940207e-05
0.0001437344766
0.0001425820867
-0.0001433502188
4.832959124e-06
-4.838264811e-06
0.0001433555245
-0.0001461345133
-5.173009674e-05
0.0002895905476
-0.0001445902161
2.955098919e-05
2.331328935e-05
-0.0002790602278
-0.000128093846
0.0001283456707
0.0002698098633
-0.0001532512754
-0.0002129206981
0.0001580893045
0.0001878574806
-8.633990938e-05
-0.0001017102604
9.595143974e-05
7.443953322e-05
-1.454462199e-05
-9.708899566e-06
1.279575859e-05
4.559184322e-06
0
0
0
0
0
0
0
0
0
0
0
0
0
0
0
0
0
0
0
0
0
0
0
0
0
0
0
0
0
0
0
0
0
5.667483397e-07
0
-1.214170585e-06
4.205256465e-07
5.938792818e-07
2.227079811e-05
-1.362889242e-05
-2.288130583e-05
2.660193309e-05
7.495201401e-05
-8.398914976e-05
-7.595168738e-05
0.000106742955
0.0001200631527
-0.0001731212576
-0.0001213571489
0.0001918437303
0.0001264776304
-0.0002276056946
-0.0001276693593
0.0002308836703
3.628582691e-05
-0.0001187371262
-3.61416629e-05
0.0001185929622
-0.0001177788675
-2.663810396e-05
2.682084986e-05
0.0001175961216
-0.0002297995254
-0.00012635852
0.0001255315802
0.0002261689056
-0.0001746286336
-0.0001883275521
0.0001767077012
0.0001683860978
-0.0001158010591
-9.822211273e-05
0.0001187900826
7.493324854e-05
-2.050379571e-05
-2.022457567e-05
2.354941284e-05
8.904891074e-06
0
0
0
0
0
0
0
0
0
0
0
0
0
0
0
0
0
0
0
0
0
0
0
0
0
0
0
0
0
0
0
0
0
1.578208892e-06
0
-1.988873294e-06
8.574269308e-07
8.865344712e-07
2.602607983e-05
-1.274120438e-05
-2.667934988e-05
2.341287922e-05
7.991327843e-05
-6.873917476e-05
-8.06962992e-05
8.626691064e-05
0.000125212885
-0.0001364182337
-0.0001259230044
0.0001500117303
0.000129339573
-0.0001733467338
-0.0001295671965
0.0001742704462
3.673884754e-05
-8.886677534e-05
-3.673316553e-05
8.886109333e-05
-8.939651158e-05
-2.719899717e-05
2.724294659e-05
8.935256216e-05
-0.0001750298728
-0.0001237346873
0.0001233333253
0.0001733984028
-0.0001812566468
-0.000148402158
0.000181957551
0.0001342907497
-0.0001297591531
-8.224244277e-05
0.0001318883783
6.42153107e-05
-1.900844974e-05
-2.783021496e-05
2.923467888e-05
9.198720206e-06
0
0
0
0
0
0
0
0
0
0
0
0
0
0
0
0
0
0
0
0
0
0
0
0
0
0
0
0
0
0
0
0
0
2.383877065e-06
0
-2.92283827e-06
8.732710576e-07
8.573842511e-07
2.828906562e-05
-9.686583172e-06
-2.893281708e-05
1.723355252e-05
8.256428352e-05
-4.854607485e-05
-8.331575471e-05
6.051134136e-05
0.0001275543307
-9.447587521e-05
-0.0001282311206
0.0001035918172
0.0001300101577
-0.0001188052008
-0.0001301589615
0.0001192101185
3.668032358e-05
-6.122546071e-05
-3.665125641e-05
3.101131952e-05
3.018507401e-05
-6.145951442e-05
-2.727656472e-05
2.727925784e-05
6.14568213e-05
-0.0001194040478
-0.0001234759675
0.0001237273024
0.0001174588095
-0.0001808055241
-9.840691226e-05
0.0001800260124
8.850472315e-05
-0.0001302307387
-5.359666552e-05
0.0001292170764
4.181074757e-05
-1.246944395e-05
-2.827415246e-05
2.782898958e-05
6.0496585e-06
0
0
0
0
0
0
0
0
0
0
0
0
0
0
0
0
0
0
0
0
0
0
0
0
0
0
0
0
0
0
0
0
0
3.506626942e-06
0
-4.170574902e-06
6.903906583e-07
5.915283647e-07
3.092308759e-05
-5.802251782e-06
-3.161573532e-05
9.958905863e-06
8.561220521e-05
-2.678480742e-05
-8.64037707e-05
3.316979553e-05
0.0001303108517
-5.139112534e-05
-0.0001310350294
5.631633843e-05
0.0001305479262
-6.451086561e-05
-0.0001306505901
6.465609943e-05
3.658259588e-05
-3.397427785e-05
-3.656531356e-05
1.740307464e-05
1.655392089e-05
-3.391785427e-05
-2.716003631e-05
2.713560626e-05
3.394228431e-05
-6.382609715e-05
-0.0001251794479
0.0001258189142
6.112024714e-05
-0.0001749266034
-4.564089544e-05
0.0001702162855
4.185210589e-05
-0.000118599421
-2.419995085e-05
0.0001151477866
1.864777633e-05
-5.111494802e-06
-2.169638584e-05
2.028437967e-05
2.24184351e-06
0
0
0
0
0
0
0
0
0
0
0
0
0
0
0
0
0
0
0
0
0
0
0
0
0
0
0
0
0
0
0
0
0
4.962138302e-06
0
-5.253576576e-06
1.313010266e-07
-4.480099617e-08
3.385029179e-05
-7.310470321e-07
-3.471320987e-05
1.128616848e-06
8.894072288e-05
-2.721521934e-06
-8.991863277e-05
3.460725358e-06
0.0001333819439
-6.362622393e-06
-0.0001342972723
7.440517615e-06
0.000130880132
-9.972236651e-06
-0.000130925915
1.001416182e-05
3.64609345e-05
-6.681518038e-06
-3.644614099e-05
3.758293913e-06
2.908430609e-06
-6.509073566e-06
-2.691808326e-05
2.68679334e-05
6.559223426e-06
-8.184769709e-06
-0.0001270263924
0.0001273019523
6.265636029e-06
-0.0001607881687
-3.534616848e-06
0.0001600585496
-4.712746619e-08
-9.981588075e-05
1.604761922e-06
9.258401788e-05
-1.145759984e-06
-2.757390299e-07
-1.322632632e-05
1.118320115e-05
1.433657142e-07
0
0
0
0
0
0
0
0
0
0
0
0
0
0
0
0
0
0
0
0
0
0
0
0
0
0
0
0
0
0
0
0
0
7.228981581e-06
0
-9.195871951e-06
-1.142082754e-06
-1.626059921e-06
3.7460206e-05
6.445117172e-06
-3.954664896e-05
-1.067664361e-05
9.32481383e-05
2.456428707e-05
-9.508533454e-05
-2.904889683e-05
0.000137428912
3.902352663e-05
-0.0001367616148
-4.302306927e-05
0.000130983971
4.477466067e-05
-0.0001310240513
-2.065368268e-05
-2.408089768e-05
1.867004636e-05
9.874399287e-06
-1.867258307e-05
-9.871862567e-06
2.350183006e-06
4.977405693e-06
-2.382037497e-06
-1.01270659e-05
5.1815147e-06
2.052569771e-05
-2.655831941e-05
5.671265129e-05
-4.423886989e-05
2.389958746e-05
-3.034074716e-05
-0.0001265257465
4.57255574e-05
0.0001262853176
-4.59151702e-05
-0.0001465935788
3.657173328e-05
0.0001409559722
-3.15817536e-05
-7.430265328e-05
1.501353334e-05
6.906218975e-05
-1.011302227e-05
9.956557034e-07
-4.325699172e-06
3.351771713e-06
-8.941247542e-08
0
0
0
0
0
0
0
0
0
0
0
0
0
0
0
0
0
0
0
0
0
0
0
0
0
0
0
0
0
0
0
0
0
1.046360824e-05
0
-8.734978292e-06
-2.998649154e-06
-3.073983857e-06
4.267126267e-05
1.321657059e-05
-4.162374687e-05
-2.046885053e-05
9.844933303e-05
4.719576234e-05
-9.699110867e-05
-5.670310959e-05
0.0001416712224
8.259067668e-05
-0.000139709543
-8.932378187e-05
0.0001295851446
9.971431697e-05
-0.0001295851446
-4.816059901e-05
-5.155371798e-05
1.835813916e-05
4.8160599e-05
-3.574825689e-05
1.739011772e-05
-2.364188145e-05
-2.451871756e-05
4.770822044e-06
2.364187584e-05
-4.770813648e-06
-4.8160599e-05
2.451871475e-05
9.971431699e-05
-5.637910961e-05
5.671561039e-05
-9.996221605e-05
-0.0001222770662
9.18478424e-05
0.0001200667177
-8.627186336e-05
-0.0001213657466
6.022691975e-05
0.0001175728494
-5.258576714e-05
-4.945535277e-05
2.150415607e-05
4.225912052e-05
-1.29396989e-05
2.77997971e-07
-6.163088646e-07
2.768614922e-07
0
0
0
0
0
0
0
0
0
0
0
0
0
0
0
0
0
0
0
0
0
0
0
0
0
0
0
0
0
0
0
0
0
0
5.577781605e-06
0
-2.099741423e-06
-2.051052473e-06
-1.39623455e-06
3.400468585e-05
1.358136889e-05
-3.016720539e-05
-2.226664164e-05
8.671766252e-05
5.526838546e-05
-8.150810995e-05
-6.755134464e-05
0.0001262954132
0.0001048019198
-0.0001197395453
-0.0001164813002
0.0001247227712
0.000144707333
-0.0001197161543
-0.0001507410243
3.574825688e-05
0.0001544186195
-6.762573448e-05
-0.0001544186195
3.187747762e-05
5.669307106e-06
0.0001544186195
-5.669307055e-06
-0.0001544186195
-5.819221779e-05
0.0001534256473
5.809678273e-05
-0.0001510153534
-0.0001122263038
0.000130505688
0.0001075849151
-0.0001188789988
-9.487102622e-05
7.3915753e-05
8.716898014e-05
-5.778900697e-05
-2.48489591e-05
1.710440516e-05
2.024954373e-05
-9.001921747e-06
0
0
0
0
0
0
0
0
0
0
0
0
0
0
0
0
0
0
0
0
0
0
0
0
0
0
0
0
0
0
0
0
0
0
0
0
0
5.200648726e-08
0
0
-1.529329086e-08
0
1.63776192e-05
6.289286687e-06
-1.167150019e-05
-1.366112041e-05
6.145080572e-05
4.648115078e-05
-5.357188395e-05
-5.956621721e-05
9.56945164e-05
0.0001011641737
-8.656392236e-05
-0.0001150370108
9.967753137e-05
0.000152955776
-9.157805725e-05
-0.0001633720813
6.308115522e-05
0.0001849912593
-5.928475078e-05
-0.0001889169118
5.588984794e-06
0.0001927103197
-5.004798439e-06
-0.0001916548091
-5.374523038e-05
0.0001799800649
5.075358705e-05
-0.0001723326895
-8.677851319e-05
0.0001354179832
7.774773858e-05
-0.0001188123194
-5.874745278e-05
6.339502831e-05
4.844984902e-05
-4.585590654e-05
-7.835288591e-06
7.928646031e-06
4.537285378e-06
-2.103189397e-06
0
0
0
0
0
0
0
0
0
0
0
0
0
0
0
0
0
0
0
0
0
0
0
0
0
0
0
0
0
0
0
0
0
0
0
0
0
0
0
0
0
0
1.376204943e-06
1.875554052e-08
-2.34094413e-07
-1.378934259e-06
2.843318804e-05
2.189753162e-05
-2.040259601e-05
-3.25909882e-05
5.704430901e-05
6.99533821e-05
-4.690465375e-05
-8.307006245e-05
6.447103033e-05
0.0001206309157
-5.493695803e-05
-0.000131718492
4.337004659e-05
0.0001574755858
-3.721767799e-05
-0.0001629579942
2.172118478e-06
0.0001683395483
-1.225621915e-06
-0.0001661230188
-3.75463298e-05
0.0001463017956
3.21089411e-05
-0.0001352520096
-4.730685931e-05
9.125155856e-05
3.715218623e-05
-7.448382386e-05
-2.006840287e-05
2.770319074e-05
1.266172567e-05
-1.590544626e-05
-5.969201255e-08
6.238763834e-08
0
0
0
0
0
0
0
0
0
0
0
0
0
0
0
0
0
0
0
0
0
0
0
0
0
0
0
0
0
0
0
0
0
0
0
0
0
0
0
0
0
0
0
0
0
0
0
0
2.671355007e-06
7.418376143e-07
-4.340546459e-07
-3.375950391e-06
1.874465851e-05
2.233975198e-05
-1.125880831e-05
-3.079307454e-05
2.738747713e-05
5.722977235e-05
-1.937205555e-05
-6.537127387e-05
1.919474528e-05
8.414781987e-05
-1.398299463e-05
-8.78101793e-05
-4.6201702e-07
8.883069532e-05
5.795624482e-07
-8.560003793e-05
-1.541049496e-05
6.585463478e-05
1.053601467e-05
-5.661341514e-05
-1.186534001e-05
2.639437431e-05
6.23533312e-06
-1.72997963e-05
-5.641494126e-07
9.43292188e-07
1.540819861e-09
-1.003536065e-08
0
0
0
0
0
0
0
0
0
0
0
0
0
0
0
0
0
0
0
0
0
0
0
0
0
0
0
0
0
0
0
0
0
0
0
0
0
0
0
0
0
0
0
0
0
0
0
0
0
0
0
0
0
0
6.767811947e-08
0
0
-1.4351815e-07
2.686995667e-06
3.859171318e-06
-4.317014432e-07
-5.96993401e-06
2.835011045e-06
1.1695926e-05
-9.422199286e-07
-1.275575784e-05
-2.070127709e-07
1.203486836e-05
6.551752879e-08
-1.054092794e-05
-1.076937572e-06
4.200132886e-06
8.830417327e-08
-2.305096344e-06
0
0
0
0
0
0
0
0
0
0
0
0
0
0
0
0
0
0
0
0
0
0
0
0
0
0
0
0
0
0
0
0
0
0
0
0
0
0
0
0
0
0
0
0
0
0
0
0
0
0
0
0
0
0
0
0
0
0
0
0
0
0
0
0
0
0
0
0
0
0
0
0
0
0
0
0
0
0
0
0
0
0
0
0
0
0
0
0
0
0
0
0
0
0
0
0
0
0
0
0
0
0
0
0
0
0
0
0
0
0
0
0
0
0
0
0
0
0
0
0
0
0
0
0
0
0
0
0
0
0
0
0
0
0
0
0
0
0
0
0
0
0
0
0
0
0
0
0
0
0
0
0
0
0
0
0
0
0
0
0
0
0
0
0
0
0
0
0
0
0
0
0
0
0
0
0
0
0
0
0
0
0
0
0
0
0
0
0
0
0
0
0
0
0
0
0
0
0
0
0
0
0
0
0
0
0
0
0
0
0
0
0
0
0
0
0
0
0
0
0
0
0
0
0
0
0
0
0
0
0
0
0
0
0
0
0
0
0
0
0
0
0
0
0
0
0
0
0
0
0
0
0
0
0
0
0
0
0
0
0
0
0
0
0
0
0
0
0
0
0
0
0
0
0
0
0
0
0
0
0
0
0
0
0
0
0
0
0
0
0
0
0
0
0
0
0
0
0
0
0
0
0
0
0
0
0
0
0
0
0
0
0
0
0
0
0
0
0
0
0
0
0
0
0
0
0
0
0
0
0
0
0
0
0
0
0
0
0
0
0
0
0
0
0
0
0
0
0
0
0
0
0
0
0
0
0
0
0
0
0
0
0
0
0
0
0
0
0
0
0
0
0
0
0
0
0
0
0
0
0
0
0
0
0
0
0
0
0
0
0
0
0
0
0
0
0
0
0
0
0
0
0
0
0
0
0
0
0
0
0
0
0
0
0
0
0
0
0
0
0
0
0
0
0
0
0
0
0
0
0
0
0
0
0
0
0
0
0
0
0
0
0
0
0
0
0
0
0
0
0
0
0
0
0
0
0
0
0
0
0
0
0
0
0
0
0
0
0
0
0
0
0
0
0
0
0
0
0
0
0
0
0
0
0
0
0
0
0
0
0
0
0
0
0
0
0
0
0
0
0
0
0
0
0
0
0
0
0
0
0
0
0
0
0
0
0
0
0
0
0
0
0
0
0
0
0
0
0
0
0
0
0
0
0
0
0
0
0
0
0
0
0
0
0
0
0
0
0
0
0
0
0
0
0
0
0
0
0
0
0
0
0
0
0
0
0
0
0
0
0
0
0
0
0
0
0
0
0
0
0
0
0
0
0
0
0
0
0
0
0
0
0
0
0
0
0
0
0
0
0
0
0
0
0
0
0
0
0
0
0
0
0
0
0
0
0
0
0
0
0
0
0
0
0
0
0
0
0
0
0
0
0
0
0
0
0
0
0
0
0
0
0
0
0
0
0
0
0
0
0
0
0
0
0
0
0
0
0
0
0
0
0
0
0
0
0
0
0
0
0
0
0
0
0
0
0
0
0
0
0
0
0
0
0
0
0
0
0
0
0
0
0
0
0
0
0
0
0
0
0
0
0
0
0
0
0
0
0
0
0
0
0
0
0
0
0
0
0
0
0
0
0
0
0
0
0
0
0
0
0
0
0
0
0
0
0
0
0
0
0
0
0
0
0
0
0
0
0
0
0
0
0
0
0
0
0
0
0
0
0
0
0
0
0
0
0
0
0
0
0
0
0
0
0
0
0
0
0
0
0
0
0
0
0
0
0
0
0
0
0
0
0
0
0
0
0
0
0
0
0
0
0
0
0
0
0
0
0
0
0
0
0
0
0
0
0
0
0
0
0
0
0
0
0
0
0
0
0
0
0
0
0
0
0
0
0
0
0
0
0
0
0
0
0
0
0
0
0
0
0
0
0
0
0
0
0
0
0
0
0
0
0
0
0
0
0
0
0
0
0
0
0
0
0
0
0
0
0
0
0
0
0
0
0
0
0
0
0
0
0
0
0
0
0
0
0
0
0
0
0
0
0
0
0
0
0
0
0
0
0
0
0
0
0
0
0
0
0
0
0
0
0
0
0
0
0
0
0
0
0
0
0
0
0
0
0
0
0
0
0
0
0
0
0
0
0
0
0
0
0
0
0
0
0
0
0
0
0
0
0
0
0
0
0
0
0
0
0
0
0
0
0
0
0
0
0
0
0
0
0
0
0
0
0
0
0
0
0
0
0
0
0
0
0
0
0
0
0
0
0
0
0
0
0
0
0
0
0
0
0
0
0
0
0
0
0
0
0
0
0
0
0
0
0
0
0
0
0
0
0
0
0
0
0
0
0
0
0
0
0
0
0
0
0
0
0
0
0
0
0
0
0
0
0
0
0
0
0
0
0
0
0
0
0
0
0
0
0
0
0
0
0
0
0
0
0
0
0
0
0
0
0
0
0
0
0
0
0
0
0
0
0
0
0
0
0
0
0
0
0
0
0
0
0
0
0
0
0
0
0
0
0
0
0
0
0
0
0
0
0
0
0
0
0
0
0
0
0
0
0
0
0
0
0
0
0
0
0
0
0
0
0
0
0
0
0
0
0
0
0
0
0
0
0
0
0
0
0
0
0
0
0
0
0
0
0
0
0
0
0
0
0
0
0
0
0
0
0
0
0
0
0
0
0
0
0
0
0
0
0
0
0
0
0
0
0
0
0
0
0
0
0
0
0
0
0
0
0
0
0
0
0
0
0
0
0
0
0
0
0
0
0
0
0
0
0
0
0
0
0
0
0
0
0
0
0
0
0
0
0
0
0
0
0
0
0
0
0
0
0
0
0
0
0
0
0
0
0
0
0
0
0
0
0
0
0
0
0
0
0
0
0
0
0
0
0
0
0
0
0
0
0
0
0
0
0
0
0
0
0
0
0
0
0
0
0
0
0
0
0
0
0
0
0
0
0
0
0
0
0
0
0
0
0
0
0
0
0
0
0
0
0
0
0
0
0
0
0
0
0
0
0
0
0
0
0
0
0
0
0
0
0
0
0
0
0
0
0
0
0
0
0
0
0
0
0
0
0
0
0
0
0
0
0
0
0
0
0
0
0
0
0
0
0
0
0
0
0
0
0
0
0
0
0
0
0
0
0
0
0
0
0
0
0
0
0
0
0
0
0
0
0
0
0
0
0
0
0
0
0
0
0
0
0
0
0
0
0
0
-9.243826942e-05
9.2437782e-05
3.673933496e-05
2.326165028e-05
9.272076215e-05
-2.32042844e-05
-4.603162458e-05
-4.674650346e-05
-2.214535664e-05
-0.0001182685273
2.263501644e-05
-6.463816822e-05
3.670544611e-05
3.275058835e-05
3.186245733e-05
2.348645169e-05
6.498573706e-05
-2.347316433e-05
-3.206366758e-05
-3.293535684e-05
2.340761407e-05
-4.434231302e-05
-4.520016235e-05
-3.738323211e-05
3.660046464e-05
1.911381481e-05
1.825154854e-05
2.335386818e-05
3.729522342e-05
-2.340664696e-05
-1.818793899e-05
-1.905450565e-05
2.348950612e-05
-3.025947078e-05
-3.120309808e-05
-1.009022125e-05
3.647757457e-05
5.463013221e-06
4.610567969e-06
2.312726273e-05
9.923054501e-06
-2.315211375e-05
-9.898203489e-06
-3.39012792e-05
2.333729311e-05
9.029139032e-06
-9.029575107e-06
1.867048244e-05
-4.765870951e-06
-1.517998529e-06
1.514190957e-06
4.769678524e-06
4.554264131e-06
-9.288104168e-06
2.318152094e-06
2.267856023e-05
-1.720659464e-05
-2.273160023e-05
1.725963465e-05
-6.43497537e-06
2.305316453e-05
2.280898936e-05
-2.280898936e-05
1.835813916e-05
-2.280897377e-05
-3.837574042e-06
3.837633887e-06
2.280891393e-05
4.982634515e-06
-1.523227351e-06
-4.47427301e-05
2.067888833e-05
3.613743498e-06
2.411946559e-06
3.954312114e-05
-8.396760964e-05
4.445192627e-05
4.072317597e-05
-1.854428686e-05
-2.220632687e-05
2.059111003e-05
2.26131479e-05
-0.0001222240664
0.0001222128212
3.629707216e-05
8.684414699e-06
-0.0001433771931
-8.657440359e-06
0.0001217996506
-2.226202443e-05
-0.0001216829828
-2.082964026e-05
-0.0001453424906
2.003761755e-05
2.436562639e-06
2.665185917e-05
-2.411000026e-06
-2.667742178e-05
6.027432796e-05
-3.650268501e-06
-6.046137564e-05
3.837316182e-06
9.269083623e-05
-2.716907125e-05
0.0001043194965
0.0001885459438
-0.0001041590838
-0.0001887400717
-0.0001046905442
-0.0002304817839
0.0001046780252
-0.0001323925078
0.0001328687099
0.0001298799897
-4.051139596e-05
4.05235049e-05
-6.465027716e-05
4.056984391e-05
-8.886352489e-05
-4.057309436e-05
2.680338108e-06
1.940584188e-05
-2.696810342e-06
-1.938936965e-05
-2.604540198e-06
2.265523425e-05
-2.2593205e-05
2.542510951e-06
6.498501746e-05
-2.727584512e-05
0.000104347785
0.0001334360907
-0.0001043388444
-0.0001334582599
-0.0001750650612
0.0001043475277
-7.813152986e-05
7.83181328e-05
0.0001304378105
-4.042074885e-05
4.043309895e-05
-3.739558222e-05
-6.123911815e-05
-4.049773851e-05
-3.66261607e-05
-5.105827055e-05
3.664108085e-05
2.594493702e-05
2.509841337e-05
-1.217157989e-05
1.245691072e-05
1.213406441e-05
-2.510580167e-05
1.268640643e-05
1.214921584e-05
1.558092923e-05
-3.098679726e-05
-1.212973821e-05
1.53863904e-05
2.435478423e-06
1.24273559e-05
-2.447891479e-06
-1.241494284e-05
-2.443809618e-06
1.573651895e-05
-1.574714944e-05
2.454440102e-06
3.733362252e-05
-2.719843541e-05
0.000104802604
7.779038308e-05
-0.0001045598825
-7.827826745e-05
-0.00011946798
0.0001043771822
-2.357831742e-05
2.367595783e-05
0.000130777983
-4.031584825e-05
4.032945451e-05
-1.010382752e-05
-3.398701222e-05
-4.040801448e-05
-3.653058826e-05
-2.373765356e-05
3.654042967e-05
1.22919856e-05
1.143582655e-05
-5.96989916e-06
5.5689714e-06
5.987687189e-06
-5.58675943e-06
1.205718314e-05
8.785144638e-06
-1.738651582e-05
-1.20498604e-05
8.594048437e-06
4.523165105e-06
1.129282058e-05
-4.533842571e-06
-1.128214311e-05
-4.577147359e-06
1.732710935e-05
4.606772422e-06
-8.575894645e-06
-8.780839769e-06
3.106766521e-05
0.0001309623362
-1.382010653e-05
-1.722592397e-05
-4.026180236e-05
-8.17908155e-06
4.024585473e-05
1.722416819e-05
-6.693276606e-06
-4.030408969e-05
-1.86846184e-05
2.202891636e-06
-2.206793577e-06
1.868852033e-05
-6.266203581e-06
-1.11490007e-06
6.21759646e-06
1.163507189e-06
6.143671045e-06
1.896770742e-06
-1.936030645e-06
-6.104411142e-06
1.322824334e-06
-1.215542596e-06
-1.333593154e-06
1.226311421e-06
4.335617845e-06
-2.368785256e-06
-4.353300347e-06
2.386467755e-06
-4.441527865e-06
3.592611002e-06
-3.583081797e-06
4.431998654e-06
7.504030382e-05
0.0001304185543
-3.113098346e-05
-4.474273009e-05
-3.962215608e-05
-2.193374074e-05
3.962215607e-05
4.47427301e-05
-1.07546825e-05
2.06293168e-05
-4.026203738e-05
-1.867128073e-05
1.588989736e-05
-1.588891681e-05
1.867030018e-05
-5.97907233e-06
-8.360135746e-06
6.075353656e-06
8.26385442e-06
6.320281366e-06
-5.024800914e-06
4.943937274e-06
-6.239417725e-06
7.208250638e-05
-7.208250639e-05
3.574825688e-05
-7.208250639e-05
-8.643134781e-06
8.643134776e-06
7.208250639e-05
2.364184373e-05
-3.83754194e-06
1.120679749e-05
-5.197470144e-05
-1.117283559e-05
2.605053693e-05
2.58902026e-05
-1.129154721e-05
-4.575716664e-05
1.126159452e-05
2.304707889e-05
2.274004044e-05
-6.025725863e-05
1.008198691e-05
-9.989793995e-06
6.016506571e-05
-5.298392492e-05
5.302691557e-05
1.116380685e-05
2.291457376e-05
-2.647985923e-06
-2.287112804e-05
2.63618482e-05
-2.63814102e-05
2.456124636e-06
-2.300683089e-05
0.0001035391729
2.312466892e-05
-5.148175416e-05
-5.217525681e-05
-5.288017306e-06
-2.605563939e-05
5.381566817e-06
5.232393808e-05
2.765635437e-06
2.293682677e-05
-2.787888441e-06
1.578200137e-05
1.217027015e-05
-3.183730044e-05
1.603424474e-05
3.786350334e-05
1.213687762e-05
-3.787000835e-05
-1.213037262e-05
3.671951299e-05
-7.495947609e-05
-3.670861307e-05
7.494857618e-05
1.11767618e-05
-1.114072005e-05
1.901810488e-05
1.880935671e-05
-5.751742853e-06
1.577918817e-05
5.75455606e-06
-4.482889505e-05
-1.126910262e-05
2.252099678e-05
2.228545369e-05
-3.875173127e-05
1.118264207e-05
1.948842421e-05
1.925742679e-05
1.592807577e-05
-2.436139063e-06
-1.593574632e-05
1.920496169e-05
-1.917511386e-05
2.650490274e-06
-1.220060851e-05
3.82004666e-05
-3.820417928e-05
1.22043212e-05
-2.905060698e-06
2.889058254e-06
1.922096414e-05
2.678062033e-06
1.592057505e-05
-2.670561319e-06
2.730926282e-06
2.268994341e-05
1.941365879e-05
-2.912877612e-06
3.901169851e-05
-1.220256624e-05
-3.900974078e-05
8.99649132e-06
1.208282247e-05
-1.822310409e-05
9.200973433e-06
1.226636296e-05
-2.426088825e-05
-1.219438278e-05
1.201732818e-05
-4.765882166e-05
-3.662724112e-05
2.426216161e-05
2.339774047e-05
5.826225055e-06
-5.836895837e-06
1.227703374e-05
-5.644581526e-06
8.979105548e-06
5.661967296e-06
-5.740794724e-06
1.556998111e-05
1.25030698e-05
5.780065976e-06
1.816150189e-05
-4.591129899e-06
-8.966676573e-06
-9.180842779e-06
1.222631325e-05
-1.221711139e-05
2.426276559e-06
-2.349183434e-05
4.759937426e-05
2.345517152e-05
-2.333409838e-05
-2.422861306e-05
-5.557270634e-06
-1.19819771e-05
5.567877147e-06
2.419768385e-05
5.517602001e-06
1.816734234e-05
-5.523442452e-06
2.685070475e-06
1.572951051e-05
-1.263202211e-05
2.507639677e-05
-2.683755662e-06
-2.890533734e-06
5.104660528e-05
-2.345826818e-05
-2.510785949e-05
-2.597231196e-05
2.121223933e-06
6.176188141e-06
-2.153741027e-06
5.354591368e-06
-5.373363405e-06
-5.951127126e-06
-2.031266677e-05
-3.650950665e-05
1.057509061e-05
9.716494558e-06
5.786523438e-06
-5.751062352e-06
5.319130285e-06
-6.040764994e-06
2.067343018e-06
6.09464591e-06
-5.636923828e-06
8.77748694e-06
5.535614566e-06
5.819880271e-06
4.455266337e-06
-4.456608067e-06
-4.44018613e-06
1.043429965e-05
-1.042746891e-05
4.51633437e-06
-4.711142044e-06
6.371232079e-06
4.66019133e-06
-1.456950559e-06
1.44202168e-06
-6.251274697e-06
3.056697868e-06
-1.868249608e-05
-3.058820185e-06
1.428907668e-06
-1.556350438e-06
1.57101138e-06
-1.44356861e-06
6.134739353e-06
-6.091231368e-06
-1.500458546e-06
-5.975836554e-06
-4.810471021e-06
6.07516553e-06
-5.98043296e-06
1.836438709e-06
-1.070566825e-06
6.090406111e-06
1.451285106e-06
1.300446895e-06
7.466185387e-06
-1.741590832e-05
-7.533151519e-06
9.158835189e-06
8.324039256e-06
-3.214352733e-06
3.22952614e-06
4.320444439e-06
-1.216685285e-06
-1.555207752e-06
-2.297074446e-05
-1.162343555e-05
2.291393458e-05
5.999281107e-06
5.68096433e-06
-8.592932016e-06
8.513381562e-06
-5.899521875e-06
1.674361905e-05
-1.867595761e-05
-1.673894217e-05
3.582821785e-06
-1.682610307e-05
1.687722324e-05
-3.633941953e-06
5.008799865e-06
-4.989726407e-06
-8.612005475e-06
-1.059095027e-05
-2.290961025e-05
5.416194572e-06
5.113621475e-06
-5.885050817e-06
-5.11558665e-06
5.068416885e-06
-8.419752769e-06
-1.600594869e-05
3.527849628e-06
1.606092085e-05
-0.0001869601302
0.0001882141213
0.0001289676622
4.056698435e-05
-9.243540987e-05
4.01633813e-05
-0.0001185540202
-4.034648728e-05
-3.663556753e-05
-0.0001068864458
0.0001068850669
3.663694643e-05
-1.213530086e-05
1.212539232e-05
-5.297401638e-05
1.178250155e-05
-6.040430166e-05
-1.163545852e-05
-3.176961375e-06
2.796902676e-05
-2.090430708e-06
-2.270163467e-05
3.120618645e-05
2.397109152e-07
-3.166091464e-05
2.150172759e-07
-7.842057993e-05
7.841915057e-05
3.672094235e-05
1.214394125e-05
-3.87587949e-05
1.217882091e-05
-4.482858122e-05
-1.217913473e-05
-1.242453468e-06
7.278514808e-06
1.080570175e-07
-6.144118358e-06
9.949705332e-06
-2.69447341e-05
0.0001072558849
2.209501973e-05
-0.0001064719752
-2.353496207e-05
-6.46087749e-05
0.0001052047765
-1.65395407e-06
3.869444257e-07
1.321133439e-06
-5.412379571e-08
6.540835656e-07
9.804009903e-07
-6.67024844e-07
-3.766526424e-07
-5.908070669e-07
-4.688123159e-07
1.879307966e-06
-1.876072135e-06
4.65576486e-07
-2.663344917e-06
-1.595174544e-05
2.609141658e-06
7.310722715e-06
-3.081300702e-05
-7.311336338e-06
3.081362064e-05
-2.077461722e-05
7.396738696e-06
1.084017871e-05
1.00038852e-05
1.21704317e-05
-4.574877743e-05
-5.197651457e-05
-1.213348772e-05
-0.0001028073813
-3.669817794e-05
0.0001028699917
3.365287632e-06
-2.406485037e-05
-3.401085437e-06
2.410064818e-05
-3.124812818e-05
2.605514314e-06
-3.028938951e-06
3.167155281e-05
-2.861978932e-05
-3.447192142e-06
2.861812134e-05
3.44886012e-06
-4.277720372e-06
4.764647437e-06
5.978740089e-05
-2.679264035e-05
5.331832586e-05
-5.161843645e-06
0.0001069681521
-2.317134708e-05
-5.299801269e-05
-5.380562326e-05
2.09569299e-06
-4.699704727e-07
-2.094534835e-06
-4.60212906e-07
3.594889489e-06
-3.601195541e-06
4.665189593e-07
-2.325845879e-05
2.014325996e-05
-2.011080268e-05
2.322600149e-05
-5.463665097e-06
5.453924143e-06
1.04440406e-05
5.382442596e-06
4.468600075e-06
-5.395776333e-06
5.522483219e-06
1.732222813e-05
1.129891888e-05
-5.469763395e-06
2.359465369e-05
-2.329402409e-05
-2.355908838e-05
1.487805848e-06
-3.27593324e-06
3.274310146e-06
-1.486182757e-06
6.54225958e-06
-3.253044688e-06
-6.50668513e-06
3.217470237e-06
-3.396807659e-06
-1.268013472e-05
3.363363144e-06
6.454253427e-06
6.259325807e-06
6.541823489e-05
3.605314215e-06
-6.540804389e-05
-3.615505219e-06
-0.0001375915728
1.810004397e-05
-6.837899827e-06
-9.411273396e-06
6.782096368e-05
6.791973833e-05
-6.064505767e-05
6.18398806e-05
8.887163978e-06
6.104924242e-05
-3.543367627e-06
-6.115614329e-05
0.0001352070242
-3.492157117e-06
-6.73531862e-05
-6.603269838e-05
2.363305909e-06
-6.922884361e-07
3.690165612e-06
-3.764835701e-06
6.549290498e-05
3.607589105e-05
-3.925285242e-05
-4.189065845e-06
5.63307718e-05
4.336777382e-06
-2.8103479e-05
-2.837500434e-05
-5.716064774e-08
7.437121894e-06
2.86959298e-05
-3.224537878e-07
5.662346984e-07
3.096240554e-05
2.875866822e-05
-8.468021089e-07
5.703401829e-05
-4.336479301e-06
-2.83720715e-05
-2.851453333e-05
-2.252136319e-06
2.097635451e-05
-2.09804433e-05
2.256225108e-06
2.117289774e-05
-2.268975966e-06
-2.115605809e-05
-2.432739288e-06
1.400037777e-05
-1.401092895e-05
2.443290466e-06
1.422999831e-05
-2.426658578e-06
-1.423607902e-05
5.520047755e-06
4.577739234e-07
-4.816175007e-07
-5.496204178e-06
7.114958929e-06
-8.901048192e-06
5.436357953e-07
-4.554612152e-06
1.385137839e-05
-1.38462257e-05
4.549459461e-06
-6.507293064e-07
7.136392356e-07
7.052048999e-06
7.07999922e-07
5.523528312e-06
-7.1148048e-07
-5.747414455e-07
7.851327096e-08
8.743454842e-06
-8.247226666e-06
7.250828223e-06
-6.230427212e-07
1.472008954e-05
-4.560419251e-06
-7.246122282e-06
-7.46816016e-06
2.020341141e-07
5.819281476e-06
-2.368277215e-07
-5.78448787e-06
1.484605933e-05
-3.403656168e-07
-1.483967186e-05
3.339781546e-07
-1.483077148e-05
2.217430621e-06
-2.221527616e-06
1.483486847e-05
5.900576318e-07
-2.43081748e-06
-6.077239082e-07
2.448483756e-06
1.267792381e-07
6.400761467e-07
5.044870876e-08
-1.632205297e-07
-7.077624099e-07
-1.172348712e-06
2.261570529e-07
5.610706447e-06
-6.674982875e-06
6.58796785e-06
-5.523691423e-06
1.47534511e-05
1.330624619e-05
-1.476029918e-05
-1.32993981e-05
-1.476290098e-05
1.589044049e-05
1.476156277e-05
-7.829636873e-06
-8.059465398e-06
1.480333919e-05
9.880756606e-06
-1.479353613e-05
-9.890559671e-06
1.245391246e-05
-1.246243668e-05
1.476197531e-05
-6.539097951e-06
5.700799901e-06
6.4490045e-06
-2.727327039e-05
3.148881827e-06
-1.102222391e-05
3.514661248e-05
-2.415915209e-05
3.393553002e-06
2.413088672e-05
-1.117620065e-05
-4.931810804e-05
1.120301111e-05
2.47184608e-05
2.457283678e-05
-3.978976728e-06
4.074948067e-06
-2.425512343e-05
3.993095566e-06
-2.681054341e-05
-4.455822546e-06
-4.131226135e-06
5.804448213e-06
-2.293796368e-05
2.12647416e-05
-2.414723162e-05
-3.896595484e-06
-4.849700111e-05
-1.122348217e-05
2.440670909e-05
2.413757354e-05
-1.102205039e-05
-5.754523319e-05
5.759689042e-05
1.097039316e-05
-3.948762387e-06
3.975806793e-06
-2.864683372e-05
2.227218412e-06
-3.032258323e-05
-3.152763358e-06
2.697481436e-05
3.825600616e-06
-2.680731942e-05