/*--------------------------------*- C++ -*----------------------------------*\
| =========                 |                                                 |
| \\      /  F ield         | OpenFOAM: The Open Source CFD Toolbox           |
|  \\    /   O peration     | Version:  v1912                                 |
|   \\  /    A nd           | Website:  www.openfoam.com                      |
|    \\/     M anipulation  |                                                 |
\*---------------------------------------------------------------------------*/
FoamFile
{
    version     2.0;
    format      ascii;
    class       volScalarField;
    location    "2.82";
    object      omega;
}
// * * * * * * * * * * * * * * * * * * * * * * * * * * * * * * * * * * * * * //

dimensions      [0 0 -1 0 0 0 0];


internalField   nonuniform List<scalar> 
12556
(
31.93141249
31.93235307
31.93330054
31.93411937
31.96678802
31.96780796
31.96895488
31.97124584
31.97548041
31.9818493
31.98947064
31.99549957
31.9973677
31.9940014
31.98725749
31.98000235
31.97446886
31.97044758
31.96881226
31.96747543
31.93353118
31.93242132
31.93141725
31.93049458
31.79605563
31.79866835
31.80117363
31.80334603
31.83705063
31.84092732
31.84742627
31.87242759
31.89190708
31.9218463
31.95855509
31.9920096
32.00178105
31.98678479
31.95457134
31.91989096
31.89188093
31.87347168
31.84675707
31.83993454
31.8029746
31.79940063
31.79626439
31.79353037
31.66251209
31.6671468
31.67155218
31.67536447
31.71003599
31.71868791
31.73393914
31.7718753
31.81772102
31.88396089
31.9623153
32.0308074
32.05808619
32.0281204
31.95875777
31.88132616
31.81854743
31.77496649
31.73191135
31.7167999
31.67513963
31.66912021
31.66362077
31.65901445
31.53050149
31.53646591
31.54235832
31.54823635
31.58639584
31.60324083
31.6357398
31.69842057
31.78886723
31.9180135
32.0711076
32.21482908
32.28334002
32.22984727
32.08157796
31.91686903
31.78551561
31.70018364
31.6302011
31.60135379
31.55150118
31.54159413
31.53333127
31.52667731
31.40046622
31.40829958
31.41634616
31.42604809
31.46836832
31.49790636
31.55853459
31.65940787
31.83069517
32.08217066
32.41524849
32.8137726
33.03114978
32.94279298
32.52643375
32.12928484
31.82819715
31.66242154
31.54852955
31.49574779
31.43197846
31.41697345
31.40538054
31.39638464
31.27124098
31.28053308
31.29086111
31.30529301
31.35727529
31.40665577
31.50873792
31.67181293
31.96966235
32.45612925
33.30410824
34.83214936
36.01584495
35.50876531
33.85752817
32.73309952
32.01765983
31.67507908
31.48987606
31.40257966
31.31786696
31.29469915
31.27880749
31.26720576
31.14450965
31.15582123
31.16987761
31.19178964
31.25431935
31.32997215
31.48582769
31.74684916
32.24076356
33.15343536
35.37858312
42.99222878
51.11655719
47.03492363
37.57602765
34.06259358
32.43693607
31.7654691
31.45644159
31.32375139
31.20953072
31.17538465
31.15400328
31.13938523
31.01944456
31.03270646
31.05084052
31.08226391
31.15941361
31.26766479
31.49391708
31.88118896
32.63276301
34.18043254
38.92557072
63.7986048
82.88711508
46.07304237
36.46715776
33.13548258
31.9430299
31.45206676
31.25818385
31.10788893
31.05952344
31.03108757
31.01304087
30.89940874
30.91559563
30.93981724
30.98373192
31.07380006
31.21908123
31.52762376
32.05722528
33.08004397
35.23041158
42.01929381
79.67450164
164.0933656
58.26744469
39.73824238
34.07696715
32.19444843
31.46913696
31.20460789
31.01339828
30.94826429
30.91152733
30.88962408
30.78430172
30.80309509
30.83317747
30.88993875
30.99846999
31.18289781
31.58026053
32.25048467
33.50856744
36.0775459
43.81838973
86.0827602
205.2223766
68.71412162
42.95019799
35.0326387
32.47101392
31.50710887
31.16128029
30.92688722
30.84303217
30.79675983
30.77041558
30.67764933
30.70017094
30.7380092
30.81045205
30.93274996
31.15725264
31.6423423
32.43854565
33.87507735
36.71659283
45.09932921
95.91660606
203.9500047
74.46596512
45.11901398
35.79483903
32.72818548
31.55256238
31.12622625
30.84823279
30.74512799
30.68859186
30.65751819
30.57752367
30.60301405
30.64726482
30.73401126
30.87479846
31.13983301
31.70657827
32.60759936
34.18280012
37.23715341
46.32570461
107.5167617
187.5902789
75.95212203
46.09580779
36.26668834
32.93301697
31.59413749
31.09597185
30.77751191
30.65459417
30.58793244
30.55159518
30.48666295
30.5160501
30.56911678
30.67146519
30.82204614
31.1265066
31.75983584
32.75973964
34.43133676
37.67790405
47.79378695
116.8061234
899.0322633
160.1626331
74.52720977
46.1546602
36.41582058
33.06236068
31.62269931
31.0667406
30.71150064
30.57127754
30.49386957
30.45279835
30.40047524
30.43316393
30.49372989
30.60843383
30.78193586
31.12856438
31.85409687
32.93208289
34.70629716
38.19071825
49.92338693
161.42166
551.310405
149.2909199
72.12739709
45.36621061
36.34176978
33.13749793
31.63470667
31.03495868
30.64711233
30.49271536
30.40549068
30.35941169
30.3203774
30.35626803
30.42331853
30.5483879
30.73514128
31.11457603
31.90811151
33.14479764
35.19255563
39.0329816
51.97406634
385.4541094
392.6396218
137.1389053
67.58286119
44.20484628
36.1212184
33.1644846
31.62490826
30.99693715
30.58386079
30.4170129
30.32072625
30.27077725
30.24041942
30.27920175
30.35183653
30.48660329
30.68660702
31.09256256
31.94143361
33.41960985
36.07793143
41.02837787
59.67239794
759.6711715
315.7727073
117.6357948
61.45183221
42.65149462
35.85185179
33.13415023
31.59280033
30.95045517
30.51680917
30.34011199
30.23673995
30.18255426
30.16279833
30.2043921
30.28138025
30.42315915
30.63349799
31.06080939
31.95118816
33.63986072
37.36183715
45.74260166
101.1020195
998.2476182
210.3367735
93.92749293
55.03325603
41.11586212
35.65126608
33.07041848
31.54134775
30.89477139
30.44656545
30.26250973
30.15254231
30.09510537
30.08079013
30.12485699
30.20549748
30.35374565
30.57405401
31.01745845
31.94313324
33.70554857
38.50090669
56.34316489
345.2526718
576.5390632
149.8737624
76.37512505
50.54716223
40.25268181
35.50156388
32.98290971
31.47219525
30.82640949
30.36820334
30.17859565
30.06462983
30.00468979
29.99892627
30.04538249
30.12884222
30.28090776
30.50741765
30.96251381
31.91466267
33.73538614
38.85787187
69.51413568
565.0792521
282.0079793
120.4115353
68.51565498
48.97668814
39.94158042
35.33520014
32.87686662
31.38978683
30.74789399
30.28419453
30.0911816
29.97424939
29.91281896
29.9098495
29.95822127
30.04424767
30.20041546
30.43359855
30.89691637
31.86978438
33.74130757
39.18321845
75.44552439
529.4417433
247.7637694
114.1140812
67.43195809
48.43242271
39.65260931
35.16443642
32.75951447
31.29710676
30.66023648
30.19220683
29.99654864
29.87762457
29.81526339
29.82108392
29.87111434
29.95910836
30.11702125
30.35293312
30.82222015
31.81167146
33.72973941
39.53708524
79.97333408
489.5815078
233.2279704
110.8253403
66.65214018
47.99755672
39.39149711
34.99645806
32.6359255
31.19667044
30.56470252
30.09557304
29.89900602
29.77899911
29.71612635
29.72373433
29.77479875
29.86462987
30.02543203
30.26618217
30.74001157
31.7431374
33.70482662
39.96450533
82.90217904
453.6555716
221.3531362
108.0674414
65.9961509
47.67327025
39.16507366
34.83596004
32.50991151
31.09056433
30.46274061
29.99165317
29.79401652
29.67338198
29.6104558
29.6288552
29.68062927
29.77159164
29.93273113
30.17390376
30.65159086
31.66658522
33.67290177
40.52842246
84.74020605
421.6764344
211.4078898
105.7249093
65.4357903
47.43330848
38.97699392
34.6865903
32.38450093
30.98063996
30.35578286
29.88560601
29.6884375
29.56776108
29.50503658
29.524379
29.57631815
29.66837799
29.83169196
30.07708244
30.55819795
31.5846286
33.64337374
41.19456534
85.77467724
393.1284736
202.9199353
103.7052678
64.95315693
47.25089339
38.82527579
34.55060455
32.26198499
30.86858162
30.24521272
29.77317259
29.57535569
29.4546567
29.39238523
29.42586898
29.47776618
29.57018901
29.73266024
29.97645289
30.46118259
31.50010335
33.62681498
41.84615284
86.16268845
367.3897602
195.6800107
101.950865
64.53815981
47.10945008
38.70394878
34.42838341
32.14378712
30.75574203
30.13216557
29.66172331
29.46497765
29.34468176
29.28294102
29.31589607
29.3673961
29.46039173
29.6248302
29.87324831
30.36178149
31.41546048
33.62972478
42.40675409
86.00960396
344.025671
189.4000553
100.4136548
64.17967897
46.99839602
38.60655591
34.31898036
32.03054502
30.64308147
30.01765695
29.54378163
29.34601201
29.22580927
29.16468302
29.21657889
29.26762165
29.36048664
29.52320421
29.76797425
30.26097905
31.33250391
33.65207754
42.86031258
85.45524988
322.8166161
183.8546638
99.04784698
63.86578868
46.9106852
38.52801638
34.22099694
31.92239764
30.53126682
29.9023872
29.4305118
29.2340839
29.11438075
29.05384371
29.10214255
29.15251542
29.2456658
29.4106038
29.66175571
30.15949494
31.25240687
33.68794722
43.21361235
84.62160195
303.4494286
178.8069625
97.81560015
63.58743566
46.84161455
38.4645896
34.13299743
31.81920622
30.42072968
29.78704386
29.30882198
29.11052768
28.99078804
28.93084198
29.00472057
29.05447324
29.14724203
29.30977802
29.55456812
30.05788064
31.17580194
33.7297028
43.47564906
83.58140926
285.6418578
174.1512229
96.69021402
63.33802034
46.78753205
38.41335984
34.05366811
31.72073559
30.31177131
29.67194508
29.19687885
29.00015926
28.88084567
28.82142311
28.88583564
28.93481741
29.0276991
29.19292076
29.44755828
29.95658187
31.10282735
33.77061525
43.65452457
82.37346777
269.206011
169.8288697
95.64987827
63.11104417
46.74491888
38.37189946
33.98185545
31.62671917
30.20459867
29.55762578
29.07167501
28.87200255
28.75245152
28.69352135
28.79306357
28.84140963
28.93384268
29.09621219
29.34015623
29.85597965
31.03320631
33.80583912
43.75939914
81.03995499
253.8529683
165.786935
94.67377366
62.89944791
46.7103439
38.33816096
33.91656083
31.53688521
30.09936565
29.44411404
28.96441674
28.76654408
28.64724754
28.58871637
28.66859685
28.71615189
28.80854104
28.97390329
29.2338612
29.7564244
30.96651316
33.83258639
43.80188212
79.63054939
239.5656583
161.9937661
93.74446704
62.69682786
46.68074066
38.31038261
33.85688905
31.45094973
29.99619108
29.33198635
28.834035
28.63218675
28.51246689
28.45430058
28.5836992
28.63068526
28.72271378
28.88540155
29.12745193
29.6582425
30.90237192
33.85037469
43.79786015
78.22577085
226.3770269
158.3728754
92.84533583
62.49778754
46.65345542
38.28702507
33.8020252
31.36862854
29.89522327
29.22102346
28.7361355
28.53592251
28.41617652
28.35825967
28.45118257
28.49737944
28.58918626
28.75417578
29.02335921
29.56188721
30.84046044
33.85957087
43.75935083
76.85805573
214.1629063
154.8691042
91.96302469
62.2979325
46.62627822
38.26677822
33.75124792
31.28966466
29.79675873
29.11227654
28.59595076
28.39169485
28.27139915
28.21371381
28.3781266
28.42389424
28.51551842
28.67986365
28.91983712
29.46808309
30.78073143
33.86028985
43.69177559
75.52109873
202.7640062
151.4865737
91.09161767
62.09438457
46.59755804
38.24854244
33.70388899
31.21375192
29.70153852
29.00580581
28.51512452
28.31049057
28.18983161
28.1322197
28.20910884
28.25396752
28.34531007
28.51166976
28.82190088
29.37838855
30.72396753
33.85268314
43.59869163
74.21946527
192.1632177
148.2394237
90.23442869
61.88735798
46.56630881
38.23142775
33.65946304
31.14076407
29.61151243
28.90498958
28.33514008
28.12574815
28.00404115
27.94649376
78.84797185
195.7216533
94.45470784
85.21308888
249.4830579
203.3244472
94.51103923
243.5552103
251.3247024
106.1925177
217.7636207
240.2967929
115.7497406
1114.19579
938.5540257
195.0244748
214.2605071
142.188537
678.4261097
1088.551465
575.878834
189.8121877
192.8421683
60.28515241
50.25854185
86.09569607
46.47272143
647.0123114
211.3647611
154.8425627
64.52186887
51.18307995
43.4627822
72.66751114
68.44922809
2243.945324
1591.546237
202.8811363
80.07570628
68.94319783
44.83579097
78.53032196
73.26702431
89.15695414
252.8030516
230.474091
1206.73572
1708.652315
205.5010975
88.48026953
82.90721456
46.09833487
87.18126796
79.48425569
100.1010499
350.9870437
286.1215433
649.2144955
880.2198762
47.52367669
97.97581183
88.24383249
109.3005765
517.1246822
421.307898
2725.313748
413.7370737
481.8749261
49.58535506
118.2212672
99.56080505
124.867228
1072.721659
722.5279548
154.714876
510.4978438
668.2376453
202.1361088
233.807189
122.6327255
195.5744476
1549.764197
684.5563839
152.545199
543.0292631
1070.114354
227.7592644
209.53867
82.59245828
272.4476259
283.2767245
239.5310866
269.6950726
1731.251476
2244.138182
229.3447839
1537.063195
1307.797818
1106.058023
1533.574678
226.4042669
283.0580329
256.5037018
90.37036886
324.8059801
366.0942516
285.2952728
321.6470637
923.3419622
1178.515421
249.8563523
876.3745153
678.6540959
1291.955623
911.8019758
251.370311
417.2530223
354.1743277
101.5031719
428.6241917
524.5148175
368.7991553
424.8672444
496.7479533
623.4945144
712.4319628
526.1813167
109.580798
3661.470502
704.5122689
1046.773388
529.3245585
689.2643519
4064.521499
378.9047518
406.6983259
2414.675785
8564.478965
1080.730669
126.1647217
781.0511716
1668.638271
7847.547078
1054.811689
1643.188161
803.4595114
41.40512661
67.66413957
56.22620982
72.73684507
159.1288725
106.193623
4055.004898
713.2109925
82.07796543
207.2560826
185.3790882
6571.267657
190.1263092
90.78560818
89.57482777
6235.223876
938.9286892
1046.836824
706.1576946
335.2011781
365.8356091
182.6385819
163.0719234
74.72483285
1480.529087
302.2655686
675.8209779
174.5816855
478.5962887
140.4224158
1069.060835
1383.04974
227.1802757
512.8282835
436.0580135
654.8356433
527.4501246
230.7996923
1632.012336
4875.584658
957.4493452
85.05220501
67.55469448
110.4732776
182.5457245
81.45211987
87.39087577
5765.864568
448.8385991
4012.796931
520.6459575
2920.624497
403.031559
1823.72844
1799.576232
1411.62287
1446.728127
2722.133049
5601.505503
735.7791702
3316.505294
1760.26993
6339.587732
3827.08918
769.6063146
455.5820835
185.5271886
192.9626349
787.4680322
894.3542674
5688.167142
775.0445844
235.4021325
248.0633654
220.1156297
230.6046397
772.2926183
1354.575309
1482.582526
216.5598509
963.7334335
801.5663102
1415.79265
963.5454194
220.5350446
160.5449315
499.8083935
237.696504
716.0455723
533.1793549
172.3787058
705.8133966
1008.511356
1085.188369
1026.312427
271.7789947
1514.019525
272.0794419
254.4359694
1479.587544
1433.602536
1510.165544
1484.678879
258.4267343
1852.871991
1874.429979
1402.588227
458.7120254
447.7546242
459.928361
460.5020909
1390.61383
1301.578403
407.9142844
373.1248971
441.8552682
418.2223563
1324.684536
343.7137804
346.392882
300.611231
302.8421458
985.4413938
6565.325222
1005.050617
457.1646244
463.6448026
396.3771912
400.210648
1658.748758
1195.385442
560.0209578
1470.603806
2512.207786
575.4151368
206.9940695
216.5155283
195.649149
204.0384815
567.2339821
1818.932486
746.750351
758.5674514
564.0498642
568.3847704
6367.116822
1328.099886
672.9312485
755.1063656
253.4851522
263.3824946
1313.185444
2645.66562
2351.495467
3369.072564
1086.757921
6940.62647
3601.642895
6033.759967
1082.842547
907.3013359
4500.308022
2808.404502
4784.330389
2569.721378
3409.158167
51.14679811
120.1788488
120.6001953
173.1028461
4255.401685
7983.928638
411.3343722
173.8960904
185.9387195
1391.870393
3836.369704
5045.470822
584.7314167
646.5112562
1241.74644
306.662759
325.248416
686.8193869
176.8506438
129.9655863
269.9972024
559.1265521
161.0243891
190.4907555
2114.172089
5335.073885
5473.359763
1696.567093
1296.755889
3770.706144
2696.52687
6368.537119
6220.095694
1624.011427
325.4059715
155.8757456
160.5567788
150.123773
154.388834
319.7088866
176.8498352
183.3358015
451.2013771
993.1631348
413.9290617
431.4453946
6659.761665
3511.455086
622.2242854
1344.630542
4919.676654
5335.778858
735.0406102
297.8998432
248.4799808
358.8509921
314.8143862
770.6350466
1786.810704
6319.944378
6381.7969
2125.018529
270.9597427
144.8476426
148.7801099
717.1127144
705.1242785
357.3486416
2537.632327
2313.838001
1103.509725
785.2308081
405.9485594
423.4242278
1139.375577
448.8983672
458.1021573
429.5564113
444.2828419
1115.437873
381.7206693
169.1190418
174.8595753
162.1843207
167.3078999
377.5238772
439.9345225
1009.730871
1001.129943
1567.843272
1524.206373
504.6298021
379.3797686
751.8717676
719.0936755
997.42621
991.6955998
414.1412149
541.1709464
1148.933902
926.5831027
6445.615484
2744.348286
726.3075732
890.7419096
543.7136837
1598.408504
1574.727609
1601.955809
609.4522072
5515.070822
8641.013081
328.0813104
366.9227533
437.8998269
453.3551698
1086.223008
2602.829815
1616.485915
720.1308758
1682.798497
8444.200071
2404.791545
2220.059935
15850.38201
1063.724628
1566.379301
2457.469055
3008.055047
2231.14841
6539.968871
6645.105077
1694.502688
2269.263125
6419.506782
1522.121264
1458.940934
462.6246929
1756.457696
722.1795105
1721.467868
506.2587341
5034.174088
3719.497623
1213.53212
5722.690989
6526.471149
5087.531517
3862.132505
1347.605932
5226.732969
6314.238402
3827.25526
4997.662023
6682.373584
2703.003812
3492.119177
1973.417765
2450.825652
6007.790793
6036.928899
1644.981436
992.6587212
2731.19374
1817.932563
889.9481415
549.2838188
1645.759763
5678.397006
7313.796817
2009.498009
1720.91725
5535.37218
5683.867774
4171.922398
3891.47724
1330.045098
6454.830659
6353.990097
4798.880843
6271.56714
6315.391427
1577.553687
6338.101067
4287.030532
3936.541384
4389.847872
2449.999189
1117.986075
1212.510206
4950.387183
1427.7271
1625.844438
1250.737487
1368.330101
4680.808126
4391.904513
1292.702104
1548.753391
388.4301144
407.9239279
906.9990858
746.838876
369.7261086
383.5951496
1454.1388
1463.611642
958.0710711
368.2890682
388.5052215
342.9935708
362.3210394
952.1186472
1006.224634
431.9388405
466.4281253
395.5211682
421.8506873
1013.785317
652.4435093
315.880883
337.1765538
931.4525753
962.7710758
3535.32773
3667.078129
1274.16771
5161.215439
5320.128558
6688.077381
3669.577503
3049.04467
5201.94887
3620.212269
856.8955153
2524.000664
3385.323419
1546.410504
562.9804692
626.0654469
539.7591108
552.5484019
1514.662003
672.613469
681.6601955
646.5152567
669.3496744
1465.577214
494.2935448
506.0873579
474.5816573
490.1214969
1458.826714
1499.125987
524.8197412
535.5899127
509.9224081
521.1456334
1497.963647
6175.135671
6269.811624
1804.638303
2035.770693
6469.809441
6145.606922
971.5184197
974.8338634
948.5533741
970.4937875
984.9269054
995.8099559
976.1743299
982.7345989
695.9310055
704.9119057
684.4760519
692.8988255
742.5981313
907.5945234
709.3702687
720.7686672
2154.222765
2546.971434
1698.100205
1997.613598
6838.707729
4089.382663
4499.744578
2734.369385
3936.435996
1021.651233
1015.024539
444.0307543
1599.337931
1603.38194
1569.736125
1590.778908
1646.039567
494.0963646
1489.837468
1072.480004
964.5701239
771.7249324
383.3266943
1041.007045
1481.291937
996.306027
1050.665874
1537.35239
1558.915443
1499.921246
1528.257846
410.6593505
990.022297
981.7526281
6595.222517
1763.821163
6551.555795
5722.717623
6529.35421
1897.648544
6653.949627
2457.187425
6384.903027
5600.129682
732.5775407
809.3190915
1629.577462
1603.33106
548.2274638
594.1748272
1690.153521
1631.940235
6328.322267
1123.945266
464.3783192
504.2756889
6403.006843
7223.602891
1751.17679
7837.949079
5841.587061
2874.561062
1065.061816
6947.249711
4332.539673
7638.168385
4727.31407
1511.786799
76.40700478
47.29262524
39.02034876
6429.623806
6403.745717
176.5767721
89.47791865
90.70500482
6642.515589
1271.825965
3560.654688
2737.316907
425.0486694
353.5837687
205.6916194
455.6566358
298.0516497
731.1852215
2665.779783
432.6567786
498.5711609
61.39657134
74.0424652
157.2166179
562.5560237
1159.205621
1731.578947
242.4332581
134.9936422
138.7669633
129.7689657
133.727213
239.2948284
1096.769865
1230.374777
3924.863909
883.8883005
775.4848848
450.3493041
353.011976
365.573873
742.1222532
1888.417408
2426.38842
804.1457968
139.9602628
143.5925428
267.3682034
333.0928779
675.5163387
651.6784777
630.8322327
567.5159982
312.6453489
637.7847823
335.7777688
348.8301502
5148.330751
4872.332488
3349.075568
1605.881493
1585.284349
1025.675597
4530.185147
6281.999328
5711.61221
1767.578099
962.6690125
1068.524692
1671.579872
1059.31714
1637.416817
1625.232494
1642.218402
4373.842515
6370.369777
4389.064633
4785.904938
6178.195864
2054.805069
1630.348857
952.4685546
1495.279102
231.1283991
180.9451259
338.9620464
1171.041786
3243.342447
2289.425231
6454.759382
6788.470075
6928.550899
5800.622583
6618.861815
115.9335038
152.2077598
428.5456877
4674.778112
3019.768761
2310.876542
6339.163706
4830.790458
3003.509899
5037.040176
4658.575645
6875.865128
6535.366251
5005.641944
1012.088415
1092.453961
2241.393262
6496.675579
3796.415155
4193.702524
5082.777513
3453.777424
3901.630446
1402.279444
1826.915081
1478.124739
961.6545931
672.1073063
679.3550663
1381.892677
886.18666
926.9194633
684.6706661
693.506698
973.1479873
281.2343804
309.3772186
626.3431296
787.8346671
1370.72169
1019.78394
1496.344836
1547.956022
1016.161647
1828.687268
1359.318038
1407.190309
979.6297476
980.7108257
1516.814495
1492.129523
1502.509962
1436.104665
1454.294604
1473.53799
952.3096437
954.4594951
942.404946
946.1951043
1443.854551
1506.587549
972.7146014
975.1106517
956.9106495
959.5167266
1489.286807
688.7490734
679.126522
335.7947642
354.6618611
701.8618243
691.8530308
539.5996531
529.1721236
293.8463232
1526.281243
1527.642518
1505.675635
1508.779139
1851.56608
1532.762915
1533.253461
310.0626674
556.9497234
543.8612921
6574.600562
6511.065796
4378.490266
4624.156777
6523.208373
6582.965147
6805.0126
1080.382988
2223.156811
1842.659162
320.5484524
331.6516086
611.3910219
550.9667705
308.5599009
317.433789
1054.22562
1054.339066
743.8829169
760.7468235
1060.930345
1065.126863
6332.087738
1387.424792
919.6085511
907.7939686
11396.60002
2162.43126
2728.161998
5331.307218
4570.099649
1699.17896
1679.920735
1073.816925
6726.197336
7292.02116
6983.97681
5595.051113
1136.778746
1740.853446
1689.160694
3616.793493
1456.703431
1781.609788
6312.251569
6241.079475
5108.429099
4804.052692
3105.361033
1548.792135
2313.856461
2023.582254
4305.876005
6401.96689
5631.99946
6487.871373
6245.933183
4748.595827
269.6666561
388.9610232
1433.197942
5500.072435
5376.387539
5644.543988
5603.755282
5411.767981
3533.991837
3517.303078
3543.401211
3535.116108
5403.923769
6397.062216
3577.461211
3610.09466
3418.107996
3526.126851
6496.354989
5107.221347
3232.837864
2916.538565
3495.446583
3412.932606
5222.167943
6299.121904
3692.711964
3723.789429
3646.180462
3665.729993
6345.746588
5792.853093
5680.101984
5894.140338
5649.926066
1008.31759
717.8794976
721.0338943
1555.194428
1011.135917
1014.33829
986.964527
1005.591104
1544.57826
6174.168092
6372.010207
5684.95795
6250.0234
1608.632098
1621.025307
1582.699477
1596.210715
2027.170432
975.458646
1543.62477
1485.985523
1589.495509
1018.67027
1021.533858
1015.569789
1017.463321
1583.424196
1524.415907
1562.902834
1087.185008
1467.942454
2005.816662
6583.101207
6227.631615
5003.703747
6412.037726
826.0425148
1140.599296
13037.44448
1088.56912
761.3156145
763.8074589
1687.602183
8144.899722
8456.710084
9825.991262
6277.641759
6066.182108
1651.828448
1641.158862
1059.769224
1610.464616
3536.639367
5324.986313
3674.013976
4647.735119
3605.743062
1512.521892
4859.396619
3599.868279
6597.583578
6852.93111
6381.041351
5108.352836
5708.056882
1492.375634
1798.87708
1664.828514
809.0085386
1025.475614
1508.776861
1587.486314
1049.423758
1483.66738
1951.382866
6352.149036
6556.190396
6273.325564
5795.242791
6569.232595
6514.239921
6385.24483
4213.6047
5679.756627
5247.037747
6326.482727
6530.910818
4603.89071
4871.835692
5289.992635
6579.401232
5466.15959
4159.642717
4448.778929
4448.02158
3125.125698
4386.52458
2302.580571
3401.909563
4657.524464
5127.108107
4669.469423
5898.4497
3727.891769
3545.794883
5102.163329
3673.954193
5474.562163
5563.991466
3552.230792
3546.886952
3571.53861
3546.917074
5600.574965
4064.190713
2356.240132
2401.603725
6387.383769
6380.575449
5550.657108
6706.593579
6497.203688
6410.898547
6399.492092
6644.465273
5378.867853
2840.096415
3179.144634
2468.953267
2598.360689
4627.263315
6546.251324
5606.568575
3436.779361
6851.661755
6568.724388
6548.706704
4594.675458
6556.532365
6343.12995
2897.573414
3292.067082
5662.323501
1436.663789
1475.436645
739.4656222
814.3241901
1338.076687
970.3894175
696.9298944
719.7159527
1474.225825
1445.864041
884.5791782
1536.227135
1874.967089
963.3878807
1507.220353
1500.072731
3530.990926
2378.695035
2343.296941
2615.451463
2530.141127
3719.799681
5534.730723
5210.204926
3432.120786
5190.137633
5407.406837
4879.498908
5122.237347
3375.086942
5085.547167
5022.324999
6508.471498
4795.970784
1030.740258
1022.699783
1476.690381
1521.662593
989.229411
985.3358321
1478.871329
1487.258143
1463.899149
1472.617307
949.8569219
951.3510337
1472.146846
1451.700252
947.5062105
948.5580943
966.8291319
969.1902604
1502.0591
1494.582957
962.3295071
964.6771775
6235.91196
3805.518265
3833.436105
3745.26556
3771.374261
6222.495658
6174.031028
4241.019184
4921.101949
3887.50634
3990.352964
6165.939025
972.7212098
1501.273421
1493.176448
1512.782577
1507.400483
973.6628955
964.2570088
1464.912703
1449.231117
1485.415258
1476.217235
968.706238
988.8659195
1547.715713
1539.91755
1559.07847
1551.477493
990.713724
977.8709546
1523.143236
1518.494971
1535.343683
1528.336309
979.7580831
1519.468159
1521.901086
698.7960636
976.8406941
975.3415556
980.8164824
979.6312152
702.238751
1513.102254
1515.874692
1568.43423
1493.232217
761.9829757
1027.022985
1036.218904
1417.91971
1369.765432
834.4813139
711.2142616
985.3765106
985.0130728
990.3552095
994.1767241
719.6841511
1540.813131
1534.269223
6478.469614
6344.408581
6629.999231
4914.721649
5638.609305
4231.307515
6474.265736
6546.977221
6470.951216
6481.312081
4325.557563
3068.309508
5636.736775
4862.036736
6341.086333
6478.239186
3575.781194
1025.693567
738.369906
739.7951374
726.5117402
728.6543072
1015.309913
1599.684528
1611.360271
1574.46526
1588.474607
1559.505274
1958.056911
1432.268156
861.0829092
941.507408
763.6370034
784.3135998
1062.36506
1396.23715
1898.067308
1520.995541
1448.518552
1006.211124
1570.17845
1559.455776
1601.806867
1563.394456
1002.416092
1543.611276
1553.258551
1510.787113
1520.732423
6315.876495
4455.56074
4700.083509
3515.396201
4060.909872
6405.578245
6533.620263
6350.513457
5044.575248
5637.868791
6833.114442
6207.87738
4882.140149
5112.404988
4075.487459
4483.527277
6383.595148
1649.079305
1650.106293
1634.080125
1637.231691
1102.508599
1113.485401
787.3152751
1704.955015
1615.354772
1665.756989
1657.253724
1617.089455
1028.89768
1035.504507
1023.049813
1027.484405
1613.794872
1647.771855
1046.699106
1098.229373
1036.716807
1049.509043
1650.914294
6144.351579
787.866925
791.8499569
1125.600624
6280.05148
8832.262735
9104.987473
8936.75901
8802.173447
6872.574637
1701.880105
6888.771943
5142.353944
5513.493973
1072.08763
1672.563531
1658.734616
6895.695617
7493.947016
7271.795333
6025.289349
6540.044867
7956.746029
7577.612101
5085.558675
7176.016119
6277.89267
2054.389444
1660.375012
1126.255048
31.79506482
31.8220162
31.88545597
31.83259788
31.8740858
31.91243639
31.88803489
31.93988011
31.94771994
31.95520467
32.001731
31.98271596
32.01304968
32.03201025
32.00108988
32.0338864
32.02151489
31.99504699
32.01150681
31.96659914
31.96434649
31.95190604
31.90054385
31.92934101
31.88707937
31.844972
31.89872548
31.83383019
31.80465796
31.87762417
31.71382809
31.76795389
31.80461398
31.78918563
31.87072218
31.86619003
31.89966301
31.99687655
31.94440484
32.02908087
32.12572131
32.01712258
32.14940788
32.18891301
32.05837887
32.20045032
32.18555538
32.03965339
32.16308977
32.06318598
31.97819088
32.03345554
31.92628007
31.90033282
31.89522978
31.8122008
31.83213707
31.78861566
31.7314568
31.78329881
31.66624435
31.76903412
31.76114638
31.81096594
31.9639762
31.88238518
32.02236086
32.22205942
32.03295779
32.29552435
32.53820855
32.17925005
32.59168084
32.73471119
32.28724387
32.79000831
32.75272769
32.2511423
32.68024939
32.45370975
32.1306384
32.38119611
32.11358656
31.95614857
32.03614443
31.85213825
31.81406382
31.80481253
31.69621057
31.71825867
31.66317965
31.84574482
31.77997903
31.92303057
32.21175027
32.01123707
32.33503045
32.80256207
32.32526215
33.00263009
33.81086307
32.68935514
34.00253312
34.7636462
33.03626818
34.9550677
34.76786315
32.97520572
34.40927177
33.6874653
32.65120212
33.42247059
32.68150313
32.22367744
32.48664146
32.05487104
31.88988582
31.95014943
31.71979654
31.69658722
31.72192314
32.02671215
31.88028106
32.15654139
32.69209003
32.31123001
32.94212803
34.08889543
33.04319606
34.68651473
38.07966771
34.28168399
39.51663362
46.79844946
35.90528989
47.3101769
44.11665375
35.66116608
41.43754879
37.39658201
34.22322342
36.33236121
34.07670483
32.97976771
33.56435521
32.53104671
32.15702393
32.30231541
31.8330605
31.73817158
31.83924224
32.30630097
32.09049245
32.51429979
33.42524633
32.8617922
33.88746066
36.37724269
34.58079405
37.97900399
53.72871599
39.73213386
48.48440324
56.13601746
45.22184146
72.30239783
68.66019858
50.7879947
54.42648423
47.13527982
43.67716784
43.4409655
36.886351
34.70652154
35.64099445
33.39232851
32.72620543
32.93620513
32.06138899
31.88057624
32.00906705
32.67076876
32.40046406
32.9680089
34.29699281
33.65675121
34.987024
38.84310418
37.05414996
39.84761819
43.04977128
41.81643272
67.16630716
77.66192763
72.94510181
114.300561
78.14271137
64.03682365
55.19346191
41.11477133
37.95537071
38.69933698
34.5929288
33.68235116
33.81632386
32.39643318
32.13919774
32.20369568
33.03711473
32.76338271
33.40836262
35.04847304
34.49356509
35.89168133
40.5098835
39.32757084
42.57208061
46.65784768
45.95341027
80.59261713
96.43121373
95.02910875
185.888652
110.8978817
99.18899458
66.53838608
45.56053291
42.42769643
41.96244809
35.91219603
34.96742323
34.7931899
32.78157343
32.49288673
32.39774756
33.36773175
33.12230275
33.79302459
35.64083924
35.20704664
36.57732715
41.6365353
40.81695104
44.18922507
48.72722225
48.24101188
87.02356828
115.8103866
112.4086553
208.0142466
128.2672601
123.7604281
73.52237046
48.90758193
46.72178705
44.5459839
37.00361141
36.26493413
35.62361097
33.1364257
32.87288562
32.58070066
33.65301817
33.43941905
34.1170241
36.11473199
35.76079035
37.12358228
42.58396938
41.86699523
45.45931599
50.49933053
49.96545854
97.30969408
132.5858484
129.3642973
198.7823843
130.9566644