/*--------------------------------*- C++ -*----------------------------------*\
| =========                 |                                                 |
| \\      /  F ield         | OpenFOAM: The Open Source CFD Toolbox           |
|  \\    /   O peration     | Version:  v1912                                 |
|   \\  /    A nd           | Website:  www.openfoam.com                      |
|    \\/     M anipulation  |                                                 |
\*---------------------------------------------------------------------------*/
FoamFile
{
    version     2.0;
    format      ascii;
    class       volScalarField;
    location    "2.82";
    object      p;
}
// * * * * * * * * * * * * * * * * * * * * * * * * * * * * * * * * * * * * * //

dimensions      [0 2 -2 0 0 0 0];


internalField   nonuniform List<scalar> 
12556
(
1019.52164
1017.281832
1012.168408
1002.335545
989.3337647
962.7098449
921.1186602
857.4332189
765.6554986
639.7172177
477.7041065
284.4869182
75.0229774
-131.0551444
-315.5242178
-467.5584452
-585.4624723
-672.4035762
-733.9060523
-775.3772034
-808.7786635
-823.302113
-831.440989
-835.1117358
1020.922026
1019.237146
1015.212326
1007.348159
994.1722307
970.923209
933.2795868
880.9140941
796.4919477
676.6654359
516.4455101
319.6247742
102.1887071
-115.0653022
-310.0288482
-468.9408923
-589.6272219
-677.2080519
-744.6117097
-782.7800467
-815.0603797
-827.4094226
-834.3579181
-837.4740612
1024.283442
1023.807233
1022.321016
1018.771061
1008.489525
992.8547721
964.9475827
917.800312
843.1995014
728.0890664
563.3053823
349.7484954
103.2751431
-143.2739299
-355.1522797
-517.4167665
-633.0452139
-711.6294204
-773.6403646
-803.4824487
-829.3690088
-837.137612
-841.4082408
-843.2420507
1028.647582
1029.884796
1032.029894
1034.224984
1030.104599
1025.298571
1013.03588
979.4426385
924.5121558
825.0990341
664.0576794
426.2432391
120.3609567
-193.4437013
-443.2695409
-608.5316512
-710.4701342
-772.3582382
-817.575591
-834.2190405
-849.4047095
-851.1121765
-851.4510956
-851.4013091
1032.184949
1035.390829
1041.816213
1050.746157
1054.683967
1064.183769
1072.454345
1063.645072
1040.866194
976.871408
843.363821
584.4999193
163.561951
-291.5733533
-603.9386104
-761.0386795
-826.9842138
-854.7000604
-873.2417833
-872.12492
-872.2101462
-866.5065544
-862.1084765
-859.8422788
1032.946504
1038.121565
1048.859266
1065.309522
1077.074368
1103.515729
1135.961883
1158.974207
1182.067403
1185.400579
1133.672001
900.9723261
233.6210793
-546.1647851
-915.1878857
-998.8449327
-981.1186445
-953.8169355
-935.5491564
-912.2882112
-894.3227653
-880.4230088
-870.9423341
-866.3671263
1029.049988
1035.976011
1050.35218
1073.259643
1094.77283
1135.931309
1192.51199
1247.457857
1321.672401
1410.51466
1535.827672
1607.967966
404.3887081
-1358.114415
-1481.392865
-1322.789099
-1164.669871
-1058.518389
-995.4297032
-948.7587592
-912.0474455
-889.7499125
-875.5738661
-868.8595623
1018.882045
1027.044117
1043.961928
1071.347442
1101.103594
1153.19229
1227.294751
1308.1098
1419.880099
1577.39186
1870.368797
2496.489882
-3360.838168
-2262.216432
-1678.283463
-1338.866565
-1150.484844
-1041.209076
-974.6657992
-920.208736
-891.4105645
-873.7011285
-865.2678477
1001.219892
1009.944419
1027.990081
1057.32863
1093.032159
1150.19079
1231.683665
1326.455144
1451.389256
1617.274382
1884.863009
2264.309801
-4725.631645
-2763.796536
-1907.609429
-1448.232701
-1204.820584
-1062.570793
-982.5555167
-915.5317095
-883.1162245
-863.4119343
-853.9794329
975.4330669
983.9934628
1001.624437
1030.175633
1068.904303
1124.977717
1203.465153
1296.755095
1410.60176
1550.34512
1736.552735
1930.231636
-4196.846902
-2678.507718
-1898.769778
-1448.783934
-1203.888646
-1052.054087
-969.2106064
-896.2530645
-863.5161557
-843.6091954
-834.0462221
941.5643421
949.2993401
965.1025563
990.3390597
1029.403357
1079.094573
1146.837814
1230.140749
1323.720578
1430.465168
1558.964417
1685.885354
-3069.855537
-2209.302633
-1687.840277
-1348.706718
-1147.802516
-1009.576608
-934.2297258
-862.3924583
-832.5675857
-814.2270864
-805.365654
900.2659324
906.6514675
919.6403993
939.2629597
977.4115866
1016.301023
1068.306033
1136.840895
1207.495499
1283.908959
1372.528958
1482.246203
-1955.881691
-1618.451474
-1377.791695
-1184.630147
-1050.414551
-940.7873448
-880.6609897
-815.5949806
-791.5716005
-776.156179
-768.6633176
852.7136181
857.4260513
867.1513874
880.919563
913.4830963
940.9722549
974.5833237
1026.84713
1073.819419
1120.169794
1166.013736
1246.525398
-697.9957793
-974.9150554
-1075.640121
-1063.009867
-998.7731722
-930.965651
-855.1388878
-813.2231134
-760.336554
-742.8171751
-731.0219725
-725.3244495
800.3313766
803.2767985
809.5485645
817.9129453
843.6009435
859.3521102
875.5460718
909.1434068
933.5692634
949.7975413
945.2589639
935.1665889
316.8208944
-376.4982092
-674.7842271
-799.3651557
-823.0882899
-805.2710229
-762.7737994
-738.7094884
-699.8553874
-688.7056815
-680.8498283
-677.1210916
744.6923413
745.8244458
748.3231549
751.1524166
770.5948599
774.191263
774.5315076
788.4502909
791.2792173
781.6238474
735.8693952
605.2062723
298.268269
-130.3832393
-435.6628336
-604.6656532
-672.4098573
-686.3080244
-670.4155998
-662.608302
-636.8724579
-631.7161557
-627.7551532
-625.9279461
687.3423817
686.8507996
685.8742007
683.6774149
697.3257686
691.0677688
679.0242199
673.3904733
654.6203771
623.8562279
559.6017223
446.2355752
222.4143752
-68.59380275
-315.9912393
-471.8716157
-549.7700182
-580.3541018
-584.0026813
-588.705314
-574.1833388
-574.2000053
-573.6908347
-573.5212455
629.7486373
627.9444119
624.1623907
617.9521488
626.2055083
612.5381149
591.2770659
571.7056828
531.1491374
480.9168679
407.7598925
300.2803067
124.7028634
-75.96329626
-255.8015009
-380.3674639
-450.5675515
-489.7163784
-505.9174162
-519.4108132
-513.9128874
-518.0494164
-520.3151408
-521.4338731
573.1796086
570.3776324
564.4659934
555.2869127
559.1359745
540.2863083
513.0565712
486.6275841
432.7166791
368.0409365
287.6944397
192.3763098
54.69009278
-88.62643438
-214.7071292
-307.1244264
-369.2809083
-412.6973855
-436.930634
-455.9798993
-457.3728827
-464.4833261
-468.8422443
-470.9057698
518.6042442
515.0978356
507.6833669
496.4878181
497.1066855
475.1587033
444.7348041
415.796847
362.2326259
295.6754659
214.6300196
125.6877656
20.00801634
-84.09350318
-174.0459742
-247.8803587
-305.6686069
-349.194655
-377.1594931
-399.1354281
-405.2332648
-414.2793737
-420.0611382
-422.8214583
466.7146952
462.7763195
454.4425459
442.0662328
440.5161207
417.132592
385.6512397
356.5962223
306.0123079
245.4152599
175.6264294
101.8200034
16.06461092
-65.70351401
-139.760585
-203.3304601
-255.4837016
-296.8865999
-325.7655836
-348.7721248
-357.7962315
-367.9127244
-374.5409998
-377.7042959
417.9627524
413.8260548
405.0794476
392.2337896
389.2787203
365.7335543
334.7953473
306.8371286
260.3913632
206.8456558
147.6292031
84.53147629
14.94084048
-52.40834738
-114.3884963
-169.0111979
-215.3345184
-253.4984796
-281.7120188
-304.4256668
-315.0107003
-325.5343967
-332.5385027
-335.8844157
372.5935906
368.440425
359.6732078
346.9083567
343.1478175
320.3065236
291.0365455
264.7255387
222.8099026
175.717002
124.875213
71.29808977
13.43888019
-42.71993858
-94.99710276
-141.942431
-182.7143923
-217.1849329
-243.8689546
-265.4748897
-276.6474854
-287.0813431
-294.1052919
-297.4654994
330.6775941
326.6410526
318.1341461
305.8390614
301.7330586
280.154483
253.0246603
228.8255522
191.400594
150.1010681
106.3071467
60.60639645
11.91486448
-35.38241512
-79.75025177
-120.1321642
-155.8211185
-186.5865073
-211.1916602
-231.2705387
-242.3523381
-252.3524993
-259.1474544
-262.4028769
292.1531599
288.3270062
280.2738018
268.7073031
264.5942193
244.6132921
219.8644381
197.9565581
164.8024445
128.672331
90.88703523
51.75183028
10.46955884
-29.63762767
-67.45940619
-102.2192905
-133.3410355
-160.5713374
-182.8422006
-201.1817414
-211.7238606
-221.0727756
-227.4751
-230.5457595
256.869221
253.3159533
245.8432973
235.1662669
231.2818713
213.0686135
190.7746957
171.1933442
142.0104591
110.4900693
77.86790225
44.28720322
9.135781774
-25.01395151
-57.33750556
-87.25670264
-114.3070212
-138.2458119
-158.1299524
-174.6438877
-184.361946
-192.9341424
-198.8425781
-201.6779693
224.6165231
221.3737508
214.5568904
204.8577695
201.3595438
184.9748973
165.10928
147.8028169
122.2661655
94.86363619
66.72081513
37.90366449
7.921102534
-21.20428313
-48.8458917
-74.56764958
-97.99576791
-118.9110597
-136.4590554
-151.1535442
-159.8840362
-167.6180844
-172.9766004
-175.5483553
195.1461018
192.2327998
186.1087731
177.4246026
174.4204578
159.8550715
142.332232
127.2015836
104.9930364
81.28028513
57.06084078
32.37869505
6.821974298
-18.00147838
-41.60623573
-63.65998362
-83.86170515
-102.0197232
-117.3385629
-130.2729475
-137.9289175
-144.8068712
-149.5917229
-151.8875358
168.1852092
165.6074771
160.1869911
152.5206255
150.0816513
137.2844499
121.9885359
108.9139123
89.73936682
69.34624191
48.59705099
27.54423684
5.829409585
-15.26022861
-35.34335504
-54.16490281
-71.48251415
-87.13268883
-100.3534804
-111.6153662
-118.1607408
-124.1925779
-128.4018208
-130.4202316
143.45193
141.2076545
136.484548
129.8173059
127.9924444
116.8900248
103.6937081
92.54857738
76.146231
58.7567714
41.10276253
23.26997551
4.932581189
-12.87593847
-29.85270791
-45.80127352
-60.52678661
-73.89381201
-85.1562162
-94.84376255
-100.2719436
-105.4843636
-109.1295723
-110.8758056
120.6638012
118.7458198
114.7038332
109.0050669
107.8284248
98.33961003
87.12947585
77.77016422
63.91758395
49.26451917
34.39902042
19.45243055
4.119928604
-10.77068359
-24.97714067
-38.34839853
-50.72739028
-61.99666611
-71.45270534
-79.66089196
-83.98202102
-88.41014369
-91.51056575
-92.9937283
99.53675872
97.93623864
94.55467409
89.78527371
89.2977524
81.33164925
72.04806642
64.30089977
52.80879767
40.66694694
28.33927322
16.00725143
3.379786577
-8.884833755
-20.5930091
-31.63021509
-41.87070165
-51.2071087
-58.97190761
-65.80255556
-69.02922053
-72.7134221
-75.29147232
-76.5217312
79.81649983
78.52202183
75.77892867
71.90232091
72.10886975
65.58915616
58.11939174
51.92586216
42.61478641
32.79195918
22.8041048
12.86395148
2.70076051
-7.171384994
-16.60012249
-25.50205513
-33.78126724
-41.3553521
-47.47077126
-53.02883281
-55.19207074
-58.17043042
-60.24926041
-61.23872952
61.16329923
60.17303897
58.05508283
55.02375803
56.06294594
50.86429875
45.00643197
40.43553659
33.1501362
25.49027407
17.68480762
9.960069488
2.071418819
-5.591691764
-12.91356191
-19.83815138
-26.2973997
-32.23697911
-36.7758283
-41.12506175
-42.19481089
-44.51519517
-46.1108701
-46.8630157
43.59422171
42.88065323
41.36705701
39.21171936
40.67158432
36.92933148
32.62585468
29.60730783
24.24460727
18.62856067
12.8818892
7.238768541
1.480658472
-4.113108716
-9.46004694
-14.52809823
-19.27364187
-23.66128423
-26.71399808
-29.87344607
-30.08798701
-31.73174134
-32.86463367
-33.40588946
25.87291508
25.5123591
24.6166608
23.32308643
26.01319596
23.58233135
20.76565727
19.26651365
15.74305019
12.08052587
8.30376551
4.647595314
0.9177861191
-2.706548804
-6.174170893
-9.473261272
-12.58124106
-15.48463639
-17.10372306
-19.18033288
-17.94024675
-18.92652102
-19.59241915
-19.85380903
12.05568524
11.77237536
11.34431805
10.71594237
11.70235494
10.49828723
9.143268709
9.253521297
7.496458451
5.719221943
3.851735685
2.14018398
0.3742691423
-1.3430092
-2.995891527
-4.584784934
-6.101895586
-7.550891151
-7.708283138
-8.667716224
-8.592961863
-9.072176059
-9.39684902
-9.635942751
2316.806508
-5102.014701
-3598.185021
1965.40259
-4585.829818
-5125.70641
1712.958497
-3344.869822
-4448.5935
1508.303336
-2133.24423
-3185.413984
1265.049353
-746.3880289
-794.0179329
-1087.45778
-1991.968516
964.4061286
401.1601551
-697.6498014
262.2493284
-383.6368038
-972.4127997
2430.904938
680.2430975
-3203.366644
-1153.009414
-7118.295793
-4906.246082
-4690.575927
-2996.055184
-2464.281819
1778.644271
1943.728784
2214.914328
-6578.33273
-7141.574225
-4313.801516
-3031.646802
-3076.056924
1604.035467
1700.524616
1910.283932
1831.094076
1870.583703
1999.853422
-4681.865996
-5633.327405
-3215.363938
-2532.945351
-2941.464881
1420.528219
1494.325184
1673.650429
1608.920563
1650.482052
1735.707184
-3007.706656
-3709.736759
1219.466152
1262.554465
1468.135964
1389.611553
1452.07471
1550.512924
-1582.884904
-1573.127174
-2177.270591
1000.550163
974.0227196
1229.034385
1117.747489
1148.450578
1312.483954
675.6674024
417.9265373
416.43397
2898.997663
2447.901847
3284.552551
2980.799702
-7171.818968
-7157.382944
-4775.523717
-6818.930944
-6990.249882
2018.014532
2154.01078
2079.927003
2160.646517
2021.934876
2403.221531
2183.348522
-5692.555438
-6533.338572
-4867.476137
-6396.302123
-5598.788362
-6963.955027
-6440.261619
-4917.169129
1749.05367
1853.420006
1800.039686
1862.712835
1750.748678
2012.361222
1872.130236
-3814.927527
-4616.448009
-3826.622173
-4506.285089
-3742.248745
-5540.810029
-4626.579894
-3987.103813
1557.095208
1645.216529
1583.998896
1649.092713
1561.872604
1743.62871
1654.151556
-2266.511127
-2911.802736
1321.626872
1445.045913
1374.138946
-1532.01079
1450.804122
1327.242286
1555.149907
1457.904511
-1574.652924
-975.9264505
-1491.711746
-1530.059619
1030.043224
1135.006246
1097.544278
23.85345621
1140.560602
963.4131329
1318.117765
1153.280649
-49.17628692
1905.815677
2258.337571
2367.726335
2506.899826
2915.49404
3129.068056
-9545.819279
-6493.567711
2122.036354
2177.316115
2397.939124
-3604.918637
-2089.134428
-1853.406369
-2369.411252
-2012.653967
-1975.740839
-2294.043695
-107.7117463
-441.7747465
-829.1927108
2440.728
2846.187824
2469.413886
2621.420467
4147.53802
3857.909278
-4624.395262
-6703.988578
-4560.932135
-2346.836981
-2691.913684
-2571.785584
-2868.251488
-2241.660384
-3641.049671
-2961.336549
-2722.093159
-1106.295677
-203.8072605
-382.4750304
974.8170341
2196.246932
3206.888043
-4364.446154
-1542.243356
591.5609687
-9610.187091
-6605.701569
-9152.913902
-6134.848133
-9011.229742
-6265.341015
-6836.2901
-6875.873133
-5128.180001
-5192.875852
-3167.149122
-3518.082331
-3301.12035
-3502.854069
-3138.647681
-3967.947691
-3558.565646
-3401.644266
1498.668521
1465.403437
1423.298631
-1591.19368
-1879.389587
-1923.508458
1233.922027
1198.89401
1132.001278
1276.36407
1219.250755
1243.943952
3009.677779
2662.964011
2672.86902
2667.133152
3024.12728
2424.286739
2627.637543
2608.991889
3280.228303
3776.803374
4003.982478
3090.525124
3687.725704
3219.732346
3749.498053
3092.559374
-7275.936853
-7283.661579
2094.027339
2181.819928
2084.223557
2292.292515
2282.747649
2406.039481
2190.078686
2269.334007
2261.585106
-6082.017922
-6135.803161
-6031.62653
-5407.754256
-5622.428369
-5072.923528
-5328.693306
-5979.340614
-6736.036789
-5889.601323
-5971.900942
-5685.338065
-5847.106308
-6698.395277
1806.915969
1798.88478
1946.793417
1936.574146
-4145.685098
-4014.915696
-4203.270858
1609.359515
1603.285509
1698.455601
1692.591696
-3082.099433
-2722.137769
-2630.033523
-2740.235912
-3102.745585
1378.404117
1345.293718
1294.160908
1408.496228
1361.741112
1387.838389
-1157.775801
1392.43277
1382.485971
1509.141649
1503.231479
-1928.550032
-1163.260671
-1217.095299
-1496.762282
1107.960645
1034.685307
948.7807259
973.848893
524.6248422
249.0302612
1250.147343
-190.9093742
210.0438923
-105.8093467
1240.696058
-293.1155205
-141.6657059
178.4833145
-8465.21108
-2181.829426
-2350.111202
784.6683199
718.7294915
936.9464852
821.4666834
841.6461618
995.8790648
308.9386245
-64.89209316
-264.9413527
4897.925973
-2382.637151
-2570.462779
-864.0749138
-1125.908256
-1113.148784
-82.00244202
-334.6496314
-37.29403551
1427.775639
2826.204686
4051.445657
-5774.118538
-2103.604001
362.371808
-6699.600473
-7710.244566
-7539.862506
-7035.153759
-4869.852404
-5067.266378
-4851.291717
-5911.331673
-5718.306697
-5449.588464
1689.659938
1665.419484
1629.059447
1716.697397
1677.894594
1695.841537
1518.363203
1478.864378
1504.815828
1187.234589
1173.359677
1135.501252
919.6939589
733.2066887
467.0733361
-7225.966263
-7796.343275
-7776.131672
-7075.362369
-5899.27103
-5665.154063
-5981.266538
-5940.212634
-7063.804174
-5865.143396
-6159.655308
-5979.030464
-6375.427109
1790.79982
1771.859385
1730.108137
1758.736774
1777.58584
1770.423998
-4784.396134
-4575.095108
-4434.759413
-4164.727945
-3910.429327
-4201.945938
-5118.520081
-4696.41793
-4981.692214
-4300.749241
-4598.379104
-5056.677022
1599.263272
1568.769426
1531.22228
1617.124375
1581.041054
1605.280897
1633.352989
1648.413993
1660.72786
1575.731305
1599.994386
1581.055171
1724.117838
1730.922304
1751.993066
1664.465181
1677.683355
1669.782302
-2538.246293
-2673.252395
-2343.464705
-1349.479042
-1369.0923
1428.518585
1344.516035
1534.481536
1543.820464
1569.689164
1497.878991
1477.744081
-1714.835458
782.4436194
1010.172038
963.8792286
1121.82196
1075.874661
1082.554872
218.0042966
438.8500088
212.2206606
1089.570507
468.1245284
756.1317746
563.275593
578.457329
1285.14243
1191.510162
-8799.994545
-8165.521157
-8403.572825
-3761.970579
-3832.737889
-1983.634629
-2131.255211
-2131.239994
2528.991755
2500.24464
4195.871923
4741.698038
4690.512306
4601.011654
4141.20202
-2765.776061
-2574.491855
-2540.004522
-2572.493662
-2781.611388
-1105.171466
-923.6699018
-949.336512
-925.2041546
-1102.58912
-696.9306243
-874.9083599
-447.7156425
-485.5814808
-648.3067269
-280.4047899
-433.1621006
-347.2450482
-9408.849802
-8120.344349
-7688.588255
-8354.308754
-8212.209433
-7502.766324
-6753.854952
-8167.577381
-7240.044793
-7108.639972
-6732.447921
-6996.654255
-7476.652803
-7297.655794
-5351.728631
-5140.555371
-4934.629136
-5200.743237
-5417.672106
-4918.281345
-5135.397371
-5493.929882
-5386.127638
-5658.028538
-5430.027767
-3313.444663
-3384.111794
-3353.640239
-3272.964851
-3425.477297
-3807.717514
-3694.63907
-3858.745808
-3476.405895
-3640.717063
-3748.521023
-1791.980935
-1778.578879
-1929.630783
1218.562072
1185.979777
1196.269153
1271.027921
1258.547059
1229.490308
2841.487137
2792.279864
2797.333119
2799.565969
2675.89041
2997.361455
2845.238365
2847.957476
2501.412907
2512.170339
2436.436778
2638.789654
2540.815334
2531.317374
3326.411615
3229.889065
3055.207775
3447.66151
3347.957477
-7960.290403
-7816.69677
-7240.355012
-8017.096509
-8229.503483
-7963.401937
-8313.226686
-8411.40306
-8313.007897
-8274.566528
-7269.00396
-8019.946572
-8019.360395
2137.158794
2134.22347
2107.731573
2176.170577
2144.469793
2149.247414
2068.521447
2045.017344
2100.285519
2076.246068
2329.198704
2337.18527
2288.819586
2414.703873
2355.116123
2345.647148
2224.023205
2222.130134
2186.955651
2274.236113
2234.647184
2237.2052
-6382.082768
-6218.157546
-5920.842714
-6313.966018
-6629.030146
-6430.337901
1838.115436
1815.364794
1872.620736
1845.066174
1779.465592
1761.613169
1807.070465
1785.28258
1995.164606
1963.29239
2036.380213
2005.820153
1910.686918
1881.155702
1952.726314
1921.282524
-4133.228627
-4321.803629
-3917.06529
-4080.854852
-4168.053875
-4626.982633
-4842.789906
-4378.253834
-4563.277416
1620.772779
1642.367969
1627.650204
1648.308124
1623.536323
1664.163432
1654.865933
1617.903416
1586.322092
1602.91476
1614.644901
1707.374331
1724.06397
1717.138016
1727.329387
1710.108886
1754.768314
1733.570667
1679.13083
1667.074268
1701.66142
1683.983526
1675.262693
1682.736578
1700.683132
-2780.279732
-2899.633585
-2963.199541
-2769.650208
-3018.295143
-2947.257842
-1112.182613
-1320.998844
-1338.157578
-1114.441658
1420.846253
1354.698271
1519.884404
1536.618427
1527.777246
1484.57051
1505.231922
1515.813659
-1806.844683
1059.010888
1059.015719
1006.559373
632.5091743
556.4600495
1067.619023
317.5113574
453.7477606
367.9492924
1273.585999
-338.6442824
71.89551454
269.0335149
31.53977884
1195.24088
-3035.984616
-2218.086591
-1499.146669
-2329.752889
-2386.551037
-1113.826923
-1204.170688
-1682.401409
-2388.961736
-898.4729635
-875.1838482
-707.8994265
-2155.044803
-1607.759407
-1583.026096
1404.044451
3282.754245
4501.737423
-7064.79009
-2845.552679
148.2007129
-2115.148357
-1828.714778
-4172.34844
-6898.489073
-7825.216202
-8007.406887
1925.090278
1899.145998
1848.479871
1970.522629
1916.660151
1943.824956
-1576.788961
-1727.189506
-1726.209332
-2247.386024
-1960.693456
-1913.208995
1296.446654
1268.876437
1281.713644
-8043.411152
-8037.625119
-7267.406476
1832.30074
1786.436022
1805.644746
1838.08961
1843.941148
1870.524321
1879.344879
1908.092803
1898.70201
1342.990782
1330.843432
1305.821257
-1542.698951
-1494.502516
-1485.87123
1332.592418
1342.332425
1335.511108
-1650.262712
-1658.266807
-1552.960415
-1372.192262
-1374.210681
-1526.628189
1125.906309
1308.889084
1316.085645
1324.062718
1162.705983
-9450.644123
-3643.750427
-1996.087397
-2071.39528
-2074.180326
-2333.539834
-2175.27016
-2147.63973
2584.912127
-5541.443977
-5025.055121
-6102.664775
-2491.876618
-2542.378763
-2379.157104
-690.1606492
-704.2750829
-522.2380868
-529.5673277
-632.4272956
-2864.852536
-2442.684911
-5541.884181
-9335.758893
-8798.025745
-8636.372356
-9030.014834
-9089.798824
-3216.800595
-3251.076612
-3198.766258
-3532.321378
-3536.29662
-3511.108312
-3067.147547
-3218.562311
-3290.805694
-3929.388038
-3870.878466
-3929.396936
-1921.210186
-1900.685114
-1933.291372
2946.861046
3029.752373
2704.741516
2708.515991
2712.467788
2671.75965
2442.785181
2453.550555
2430.98538
2633.340186
2597.946114
2591.65931
3473.649841
3295.026289
3416.005918
3644.554606
3667.230021
3809.992928
3097.117086
3168.658876
3168.982613
2118.141818
2115.516539
2113.610773
2179.548126
2169.446056
2172.005381
2065.36102
2059.211991
2108.149095
2099.316567
2298.777819
2300.712176
2285.303363
2409.729774
2388.99142
2385.872214
2198.651052
2199.162266
2189.121472
2271.302768
2259.213079
2258.753275
1813.409931
1836.294026
1829.463043
1777.811134
1783.929787
1805.572522
1959.252002
1990.16527
1974.930398
1981.713813
1970.558089
2051.988195
2041.446614
1892.600053
1959.511139
1948.569967
1908.73164
1918.268761
1948.951465
-4319.685946
-4396.722074
-3989.97384
-4061.548766
-4083.380375
-4467.820547
-4476.775273
-4373.344357
-4512.210831
-4333.098266
1365.061966
1339.885911
1351.41951
1414.69699
1398.365142
1374.093444
1396.758084
1408.145626
1402.582623
1372.992364
1376.820948
1386.247671
-1931.053106
982.6277648
998.2067041
964.2873127
665.6240336
989.5631663
407.2807946
514.9281744
619.6931209
1256.771791
1262.509958
1257.93431
-254.155544
-98.71334617
-80.24649773
-96.12325083
1229.077822
1236.123008
1248.056889
-4.09669148
-89.60873241
-230.086728
-2214.220348
-2262.795777
-2374.009695
-2324.047493
-2304.501829
5080.070702
5084.463011
5070.158117
-2445.046829
-2469.670952
-2378.669484
-2586.077588
-2527.693647
-2519.325271
-3899.839994
-3226.670717
-6675.903819
-6962.946813
-6982.15193
-6869.603652
-6919.724722
-7650.60537
-7461.761462
-7512.593339
-7363.952003
-7413.381723
-7595.406749
-5851.287447
-5763.726055
-5826.404765
-5627.626849
-5698.900742
-5788.585728
-7836.70609
-7619.122008
-7624.381193
-7564.056702
-7603.887574
-7827.512781
-6095.783915
-6007.258558
-6066.498637
-5889.2365
-5948.847498
-6039.963874
-6778.54723
-6823.892695
-6654.083812
-6717.254811
1653.060856
1647.94079
1642.869981
1582.403111
1578.583572
1571.66189
1592.723096
1586.166048
1591.055454
-1490.918072
-1547.749144
-1346.470435
-1433.440894
1445.876834
1441.290152
1459.042145
1451.156494
1348.062251
1340.376191
1346.647073
1342.7097
1552.440208
1549.465332
1541.648147
1564.984714
1557.55964
1561.782845
1473.750258
1468.562116
1490.03951
1472.346486
1480.284471
-1718.941048
-1714.39449
-1707.72151
-1552.405575
987.6191473
1001.082625
1066.579162
1102.411727
1097.013629
1077.944666
1109.658035
420.5652988
411.2806929
1028.246115
924.1301245
721.2334369
1286.766904
1303.54832
1297.908033
1176.88019
-9411.773701
-9690.722274
-9147.299121
-9059.822706
-8517.743523
-7581.951374
-9386.45546
-9048.269919
-3695.076997
-3847.309262
-2132.792028
-2124.863337
-2128.380158
2555.708605
2468.302186
4794.965081
4604.061054
4554.517994
4135.641118
4002.3283
4433.776972
4268.272128
4408.700734
-2663.135712
-2583.140039
-2721.481943
-938.4646833
-932.965946
-921.1725685
-1043.670044
-734.4165211
-708.1652774
-697.5798972
-860.7004007
-798.0652559
-800.1018858
-457.4583049
-512.7361787
-506.0581805
-331.2055191
-339.58605
-384.9996397
-9001.770599
-8918.466013
-9394.543926
-8316.392716
-8706.433549
-8705.007085
-9148.144305
-9132.327279
-7179.700652
-7062.869671
-7107.536073
-7004.992002
-7019.339119
-7123.616106
-7411.660019
-7257.629924
-7311.622908
-7156.152567
-7205.674383
-7353.787884
-5281.651804
-5205.488446
-5275.066311
-5268.133383
-5343.780239
-4960.425887
-4990.571813
-4967.602605
-5071.20688
-5576.300911
-5608.024334
-5561.680762
-5477.42631
-5552.537797
-5347.853051
-5416.621867
-5507.751436
-3353.493516
-3256.185409
-3253.739761
-3270.288173
-3209.291898
-3269.881597
-3458.878204
-3480.948499
-3409.789121
-3764.977742
-3807.959242
-3829.498058
2893.499177
2746.895796
2506.622152
2478.284033
2467.124998
2560.553863
2565.80041
2535.742091
3452.019847
3553.991273
3546.258615
3862.954543
3730.795899
3253.491676
3251.831797
3348.756741
-7900.876758
-7689.937339
-7724.022743
-7635.463846
-7659.364675
-7853.91102
-8082.666241
-8150.066526
-8372.04974
-8735.629163
-8637.884701
-8834.030592
-8835.274959
-8419.058327
-8338.75009
-8575.739058
-8522.188525
-8260.7992
2136.774074
2127.192334
2127.71634
2161.059428
2158.755001
2147.759383
2077.536423
2071.328903
2091.007317
2084.000807
2332.470122
2316.370976
2314.264917
2364.915345
2368.743367
2349.790284
2223.168735
2210.623159
2210.284118
2248.699738
2247.551819
2235.643466
-6332.756589
-6235.845497
-6286.603069
-6123.677084
-6180.232943
-6273.119353
-6575.513739
-6478.615744
-6561.5765
-6337.998069
-6401.901316
-6498.256404
1831.03664
1833.365121
1839.481333
1817.41004
1826.009021
1823.446387
1862.508898
1861.494189
1873.320182
1844.840493
1851.542905
1852.95503
1773.822917
1776.313613
1781.092788
1764.894832
1770.978485
1767.929066
1799.103804
1799.641661
1808.242413
1785.924351
1791.992034
1791.810221
2004.329033
1993.05671
1984.556445
1989.139793
2000.061597
1967.210998
1978.144834
1973.916967
2028.218937
2015.675517
1916.532103
1906.706813
1900.326249
1903.375405
1913.622405
1882.218423
1886.750553
1889.270176
1942.213229
1945.63256
1956.379619
1924.404716
1934.988371
1931.744379
1937.864119
1927.253397
-4225.795756
-4262.701731
-4154.60785
-4122.834611
-4143.87086
-4687.254645
-4717.986702
-4666.860142
-4879.861949
-4787.105113
-4757.853355
-4423.951276
-4455.405216
-4432.311468
-4611.143256
-4556.172166
-4492.846598
1627.405079
1623.63982
1617.065573
1637.051194
1630.476149
1634.940189
1639.105791
1630.325276
1661.48273
1658.561837
1613.727981
1603.383861
1597.941229
1597.961389
1595.824366
1610.677619
1604.897874
1609.864807
1713.954293
1718.810736
1730.549159
1714.804076
1747.587044
1750.046372
1757.723123
1736.382522
1742.964316
1740.562632
1674.529006
1670.471899
1694.406683
1688.904134
-2899.603904
-2884.919304
-2954.360118
-2768.224665
-2821.987345
-2856.871577
-3092.152611
-3140.587898
-3003.027976
-3003.882295
-3013.993127
-1272.148458
-1280.658316
-1335.82494
-1135.041086
-1202.115412
-1206.696509
1413.473477
1400.003989
1435.633384
1426.47141
1359.474422
1367.509202
1363.560121
1370.527751
1362.890093
1388.750714
1379.451109
1524.867334
1522.456007
1517.052899
1534.627239
1528.297678
1530.431353
1509.565191
1502.883595
1496.97113
1512.136424
1507.573225
1512.651841
-1870.976553
1056.008632
1031.525936
1032.358749
598.7815687
603.0879768
647.8419081
556.6547442
560.1779258
550.0671982
1043.426067
406.3162555
361.7828032
300.3978887
1265.052526
1266.891147
1273.466725
-318.9782255
153.7288354
100.8530415
255.5728274
248.399763
256.8939024
86.28580189
-40.06139246
-21.46422687
76.29744006
1208.698086
1225.073302
1217.458892
905.9815063
851.0728207
821.3466
828.1166096
745.1356883
710.8380351
711.2749969
592.9269332
560.3359652
547.0256441
394.722543
370.4409542
338.5356818
162.5373763
155.2118381
101.5710573
-76.89933855
-63.48561688
-134.5901727
-292.3590012
-264.6289835
-340.2610218
-465.202904
-432.5812711
-501.6908784
-593.0645204
-562.1525526
-618.9614908
-682.6280266
-657.2787941
961.8423246
919.5545571
865.2514621
900.8412588
827.1542276
761.5657136
795.9530327
679.6812622
609.4718974
632.6416667
465.5120509
407.4242994
401.2664118
188.9232643
166.5479896
113.9409891
-108.2267777
-83.52170565
-178.0379477
-363.4764203
-306.4657308
-416.1284528
-546.1098036
-481.2627393
-581.0200223
-665.1182183
-607.9312868
-687.5466841
-741.1105585
-694.7313548
1040.79598
1019.933215
941.7066422
1008.665201
957.5569741
855.0807971
933.5528174
834.0351628
711.0689159
789.4928107
610.9103325
493.2414261
534.2435802
254.8439346
200.7705016
149.920891
-163.8087644
-118.8426883
-259.2124384
-494.1432784
-388.9166093
-553.9272895
-684.5210332
-574.3040712
-715.2464883
-779.8600729
-689.1819835
-794.4019511
-825.0208846
-760.0120975
1135.051906
1145.029888
1049.852005
1146.436533
1137.466486
997.9046756
1129.097966
1078.140908
885.8033793
1048.836688
888.4409591
664.6800838
799.3021267
390.3365138
280.5852518
215.690524
-309.1062061
-186.5232399
-454.8494086
-755.6054057
-542.688941
-816.7133915
-916.5887953
-732.2713217
-929.4615562
-941.4734735
-815.7849904
-939.6700593
-930.8522155
-849.6063064
1227.241331
1273.5387
1178.280345
1289.173121
1338.414821
1187.41462
1356.237207
1413.002873
1155.642349
1429.428893
1424.714307
991.1193231
1368.024524
616.5843631
440.7074683
391.7734972
-851.6864123
-384.2370838
-1056.95238
-1302.149296
-857.7227857
-1312.487959
-1262.401502
-991.7691844
-1233.675935
-1144.628059
-988.3872187
-1117.525852
-1050.624148
-959.9739755
1296.602461
1372.716045
1302.55284
1401.011984
1503.181664
1385.55751
1546.363949
1726.238084
1501.142811
1812.847328
2313.221769
1620.543066
1953.809125
1959.924196
1394.793212
407.7126234
-1115.482654
-433.2424455
-1867.844754
-1775.729781
-1452.150655
-2067.189243
-1694.298305
-1366.686236
-1594.56966
-1359.181485
-1199.610139
-1299.33519
-1163.75118
-1080.587047
1325.486602
1415.999171
1389.446491
1449.704425
1569.992529