/*--------------------------------*- C++ -*----------------------------------*\
| =========                 |                                                 |
| \\      /  F ield         | OpenFOAM: The Open Source CFD Toolbox           |
|  \\    /   O peration     | Version:  v1912                                 |
|   \\  /    A nd           | Website:  www.openfoam.com                      |
|    \\/     M anipulation  |                                                 |
\*---------------------------------------------------------------------------*/
FoamFile
{
    version     2.0;
    format      ascii;
    class       surfaceVectorField;
    location    "2.82";
    object      Uf;
}
// * * * * * * * * * * * * * * * * * * * * * * * * * * * * * * * * * * * * * //

dimensions      [0 1 -1 0 0 0 0];


internalField   nonuniform List<vector> 
25162
(
(99.99744917 0.0110449443 -2.348949339e-21)
(99.98965614 0.01011624858 6.967790491e-21)
(99.99638202 0.0256117227 -2.311068272e-21)
(99.98636378 0.03341470289 2.376027391e-21)
(99.99426046 0.04826591494 -4.602441369e-21)
(99.97879714 0.06797382011 1.395042625e-20)
(99.99756251 0.05329426187 1.409105147e-21)
(99.96539581 0.1209822587 -9.097736926e-21)
(99.98576312 0.117203513 -1.527377821e-21)
(99.9968629 0.09545106925 2.202527576e-21)
(99.99884031 0.05663946036 1.078353498e-21)
(99.98356827 0.1540808168 2.181222712e-21)
(99.9962668 0.08677994838 1.058825362e-21)
(99.99723082 0.06920717939 -1.106372646e-21)
(99.9954556 0.1084939853 1.058782116e-21)
(99.97539619 0.2422448544 2.100840431e-21)
(99.99512065 0.1348022055 0)
(99.99495965 0.1632025588 -3.748749742e-21)
(99.96919298 0.3581747927 -3.748730231e-21)
(99.99441294 0.1961507845 -9.676403003e-22)
(99.99385018 0.2329420393 3.26339759e-21)
(99.96260244 0.5051455538 3.505783863e-21)
(99.99342169 0.2729765718 4.304686873e-22)
(99.99323848 0.3150230031 -2.697398039e-21)
(99.96046336 0.672649334 3.892361904e-22)
(99.99340809 0.3573169311 -2.630518387e-21)
(99.9935226 0.3978145912 5.013108498e-22)
(99.96596124 0.8325445619 -1.693466036e-21)
(99.99368617 0.4342106458 2.441354136e-21)
(99.99492313 0.4634551406 1.935332395e-21)
(99.98215247 0.9471274457 -8.225993545e-22)
(99.99713322 0.4825927511 0)
(99.9997374 0.4905753642 0)
(100.003893 0.9786416301 1.047271494e-22)
(100.0023599 0.4863986822 0)
(100.0046923 0.4709480292 8.039404555e-22)
(100.0239046 0.9173751138 -1.555874302e-23)
(100.0061631 0.4453671897 1.331177498e-21)
(100.0064704 0.4121678213 -5.612285489e-22)
(100.0353001 0.7881688371 -8.093765982e-22)
(100.0064846 0.3743740815 -1.485020206e-21)
(100.0065867 0.334705613 8.031679604e-23)
(100.0374771 0.6294207225 1.998004626e-21)
(100.0064942 0.2946220661 5.268972781e-22)
(100.006146 0.2558448064 0)
(100.0338433 0.4747254156 0)
(100.0056564 0.2196496655 0)
(100.0052096 0.1866446014 7.888032588e-22)
(100.0272167 0.3435482645 1.641399866e-21)
(100.0051354 0.1575447829 -3.991315277e-21)
(100.0048602 0.1301791066 -1.491132928e-21)
(100.0216466 0.235791561 3.22464239e-21)
(100.0040869 0.1070415437 3.224401763e-21)
(100.0030421 0.08794070338 -8.842913854e-22)
(100.0127726 0.1577535175 -4.194549407e-23)
(100.0009862 0.07429418481 1.733590368e-21)
(100.0073639 0.06958546189 -7.625523589e-21)
(100.0427608 0.1716547209 3.123042846e-22)
(100.0159384 0.1576547622 -2.698114113e-21)
(100.0026679 0.07281389191 -1.548702388e-21)
(100.0050084 0.03952371118 -9.498500147e-22)
(100.0281123 0.1034136371 1.50749454e-20)
(100.0040118 0.01828156546 -7.619101182e-21)
(100.0199573 0.05414107943 -1.60728715e-20)
(100.0172282 0.01688761876 1.288274428e-21)
(99.97632503 0.03105217206 1.162229453e-20)
(99.96046853 0.01730666356 3.805805318e-22)
(99.96559548 0.07259926948 1.849953316e-20)
(99.94740905 0.05788470937 -1.62883821e-20)
(99.94538325 0.1365952643 9.70487786e-21)
(99.91889853 0.1191790749 -2.511861751e-20)
(99.93692308 0.2103164088 -1.654007955e-21)
(99.87035121 0.2149768162 4.838615643e-20)
(99.89292636 0.2661528094 -1.062804641e-20)
(99.907669 0.2684394672 -2.285625445e-21)
(99.92979744 0.2623649912 4.470522515e-21)
(99.95638088 0.1875189927 2.220495476e-21)
(99.93327925 0.3023852051 2.148366514e-21)
(99.91077628 0.3338275171 2.197922728e-21)
(99.85071268 0.439377597 -4.458983531e-21)
(99.89007589 0.4220847441 -3.218064722e-23)
(99.90078278 0.4739571019 2.101170132e-21)
(99.86658692 0.5291746248 -2.679431028e-23)
(99.78247227 0.689685098 0)
(99.85522848 0.6104256893 0)
(99.81686719 0.7008999961 -2.604423821e-21)
(99.86958414 0.6891585352 -5.094031771e-21)
(99.85089957 0.7304190773 -8.020015213e-23)
(99.80984715 0.8431974848 -1.145522508e-20)
(99.84093759 0.7941835434 -3.937920785e-21)
(99.81120505 1.044286417 3.042927813e-23)
(99.83980156 0.9794171255 -2.538813418e-21)
(99.76216345 1.205772488 -1.380379367e-20)
(99.80527897 1.12716322 -3.37229793e-21)
(99.79191947 1.419161746 -6.048650068e-21)
(99.83011038 1.317837653 -5.747304804e-21)
(99.74205826 1.632816849 8.03077902e-22)
(99.79413728 1.513120079 -7.236568599e-21)
(99.81199384 1.795931479 1.362111389e-23)
(99.85629276 1.647855087 -4.489861784e-21)
(99.77298599 2.053178921 -1.683013561e-22)
(99.8265287 1.884759943 -3.342276521e-21)
(99.88206888 2.089388217 -4.741957171e-21)
(99.92526925 1.892626595 -7.438070626e-21)
(99.86408117 2.371426209 -2.554578499e-21)
(99.90823199 2.154467417 -1.446244173e-21)
(99.99054169 2.210162561 1.152660494e-21)
(100.0181835 1.971445059 -3.679816969e-22)
(99.99935478 2.480385855 -2.783169531e-21)
(100.0185281 2.229992801 -2.184194938e-22)
(100.1000378 2.124474093 1.426828371e-22)
(100.0884206 1.859953618 -3.183207542e-23)
(100.1273564 2.345010367 3.865090119e-22)
(100.1218818 2.082447776 -1.083791018e-21)
(100.1732008 1.861187053 -3.376868402e-22)
(100.1301908 1.604471164 -2.571220155e-22)
(100.2063933 2.022986514 -7.879141984e-23)
(100.1815175 1.779368616 2.605656556e-21)
(100.1970303 1.510044279 2.71818747e-21)
(100.1390258 1.284970643 4.726197399e-21)
(100.2296922 1.620150702 4.71748271e-21)
(100.1952595 1.412867955 5.722787859e-22)
(100.1843648 1.14955234 -7.262380535e-21)
(100.1258065 0.9691928448 -6.743381927e-21)
(100.2106023 1.219903339 -2.452434365e-21)
(100.1761171 1.058726288 -2.392148373e-21)
(100.1508933 0.8378335366 -5.585683518e-21)
(100.0985622 0.7022586425 5.044772744e-22)
(100.167288 0.8797157106 -1.476899317e-21)
(100.1402515 0.7642609356 5.995857427e-21)
(100.0870991 0.4653513114 -1.353745685e-20)
(100.1408335 0.6385939111 -1.353640502e-20)
(100.1944228 0.6821372024 1.367862524e-20)
(100.1188347 0.5237144925 -2.754634881e-20)
(100.0986508 0.4268625972 1.195567899e-20)
(100.1354404 0.4502905047 -1.653141308e-20)
(100.0792722 0.346052304 2.413321113e-20)
(100.0598742 0.308789358 2.679086211e-20)
(100.0695849 0.2010030076 2.246594079e-20)
(100.1601869 0.3159823042 -1.50528771e-22)
(100.1259953 0.364254004 4.772162787e-20)
(100.0741299 0.287830655 2.5535812e-21)
(100.0481915 0.114749404 -7.132490336e-22)
(100.109032 0.189009697 3.216637717e-20)
(100.0373465 0.05199106797 -7.504198013e-21)
(100.0791174 0.09893868499 -1.704786907e-20)
(100.0662678 0.03077312758 7.618430513e-21)
(99.93552393 0.04249488152 -2.79334914e-20)
(99.92033879 0.01887672252 -1.396182911e-20)
(99.90585672 0.1009922159 -6.036558137e-20)
(99.89227703 0.06494575793 1.265191573e-20)
(99.85153415 0.1929454615 1.174458092e-20)
(99.83252905 0.1389346978 -5.108757715e-20)
(99.79800126 0.3224763722 3.079807307e-20)
(99.7347787 0.2579430202 5.54620648e-20)
(99.72877977 0.3532231045 -4.72135042e-20)
(99.82909671 0.3377111516 -9.166398156e-21)
(99.73699479 0.3881094553 -6.774523274e-20)
(99.7615979 0.4209719529 -4.582315066e-21)
(99.73789804 0.5589391241 -8.870237441e-21)
(99.70462079 0.5448955619 -4.417710293e-21)
(99.59704212 0.6551214127 3.104025484e-20)
(99.63969239 0.6957195513 8.669341216e-21)
(99.61972883 0.8866579866 -7.651408539e-21)
(99.56642614 0.8783769221 5.684024115e-21)
(99.41462703 1.054973044 -4.366236823e-20)
(99.52748724 1.057542192 3.026760293e-21)
(99.44967422 1.137839146 -1.895714718e-20)
(99.51827064 1.291732754 -7.711914337e-21)
(99.47703399 1.295661439 0)
(99.38979941 1.427906238 8.030758777e-21)
(99.44051524 1.43295355 -7.659325761e-21)
(99.39497436 1.88432756 3.692278163e-21)
(99.33532314 1.907809287 1.444841399e-20)
(99.23111679 2.098086449 7.147021105e-21)
(99.3065647 2.08293434 1.792078374e-20)
(99.33950991 2.588992872 -5.668038234e-20)
(99.25877137 2.64909673 -5.028316034e-20)
(99.15712531 2.899693876 -2.998635771e-20)
(99.25889502 2.843445674 -3.176931153e-20)
(99.40835947 3.307284774 -6.027168015e-20)
(99.31571817 3.425126255 -1.097082123e-19)
(99.23895563 3.728372937 1.621155696e-19)
(99.35702858 3.604613546 -2.023331858e-21)
(99.6426278 3.87561781 4.347631304e-20)
(99.55531957 4.072443745 -1.297267086e-19)
(99.53538308 4.402879997 2.046453032e-20)
(99.64521608 4.186452192 -1.614824598e-20)
(100.0053484 4.097357061 4.661960426e-20)
(99.9592632 4.375632779 -3.909900422e-21)
(100.0073394 4.678738671 1.60140066e-20)
(100.0677125 4.373443359 2.739584641e-20)
(100.3652629 3.868234342 -2.792103224e-22)
(100.3765512 4.192186801 -1.439835091e-20)
(100.4783346 4.416320735 8.179455258e-20)
(100.4610934 4.069988185 -6.139108774e-20)
(100.5717776 3.284914774 -2.669340587e-21)
(100.6361792 3.59370867 -1.727897396e-20)
(100.7442663 3.724744193 -1.178057804e-20)
(100.6675719 3.407211076 -4.489816855e-21)
(100.6186234 2.587296946 2.162273767e-21)
(100.7025292 2.839611555 4.121472966e-21)
(100.7931455 2.902180143 -7.19002862e-21)
(100.6992666 2.652738303 5.849853915e-21)
(100.5635994 1.925074316 -6.691907566e-21)
(100.6513138 2.123740813 -1.569785713e-20)
(100.7198997 2.14863718 -5.410653513e-21)
(100.6245293 1.956599104 5.886044824e-21)
(100.5319474 1.50939109 -1.829424243e-20)
(100.4560474 1.364143094 -1.22959335e-20)
(100.5802749 1.512934859 -1.231251506e-20)
(100.5019752 1.376360736 6.520709763e-21)
(100.3416998 0.8802757563 -5.355007199e-20)
(100.4607199 1.080284316 -2.808032197e-20)
(100.5284476 1.054373573 -8.124689004e-20)
(100.3919851 0.8812544071 -3.876320291e-20)
(100.2410867 0.5775324514 -6.056675321e-20)
(100.3295625 0.7133153267 2.418992211e-20)
(100.3727456 0.6847808832 -2.875453267e-20)
(100.2730811 0.5730770401 -2.512622811e-20)
(100.1921242 0.3001526929 1.015193855e-20)
(100.3336122 0.407954162 -2.562445639e-20)
(100.3218474 0.5055452918 -1.228135584e-22)
(100.2400654 0.4645226008 -1.473305721e-20)
(100.1347982 0.1703209622 1.508213764e-20)
(100.231149 0.2413684946 2.676301428e-20)
(100.1038722 0.07659280198 -1.913084303e-21)
(100.167538 0.1250689155 -3.854588496e-21)
(100.1384999 0.03859594461 0)
(99.884667 0.04001288111 2.80509408e-20)
(99.88262293 0.01264544357 -4.686803619e-21)
(99.82818906 0.09997066205 2.365090551e-20)
(99.83576333 0.04750883741 3.278043644e-20)
(99.72676845 0.2021246456 -9.389889354e-21)
(99.73628325 0.1154604956 -4.616428818e-21)
(99.60020638 0.3713384621 0)
(99.57497113 0.2315326348 7.177781361e-21)
(99.51737742 0.3731149453 2.176575904e-20)
(99.62473217 0.4191040953 -6.335998986e-20)
(99.50445837 0.426367799 1.636435577e-20)
(99.51728081 0.4993019326 0)
(99.43188824 0.7223937297 1.875014413e-22)
(99.40559201 0.6589349174 -3.588782651e-20)
(99.24694866 0.7562401012 -3.586368376e-20)
(99.27427326 0.8565090848 7.264490066e-20)
(99.169701 1.186286357 -1.07714724e-19)
(99.12265443 1.098860892 4.099473723e-20)
(98.89601022 1.267590554 -7.214556851e-20)
(99.00935625 1.380208072 -3.593994097e-20)
(98.89889983 1.408178313 -5.895998949e-20)
(98.91281874 1.773437982 8.452729051e-21)
(98.86542029 1.725203175 1.677069144e-20)
(98.72536438 1.861484452 4.254625266e-20)
(98.77957165 1.925577963 8.383952001e-21)
(98.61733009 2.662960855 2.97046386e-20)
(98.53703445 2.618044952 4.102758115e-20)
(98.3716368 2.817918202 1.51178849e-19)
(98.46713929 2.879994231 -1.118703034e-19)
(98.44767007 3.765078745 2.414139742e-19)
(98.32272523 3.744964027 2.40879937e-19)
(98.15346287 4.022027679 -2.812907342e-19)
(98.30368673 4.055605591 -3.493721908e-19)
(98.54031807 4.986098922 3.638793862e-19)
(98.36789477 5.028656182 3.691643234e-20)
(98.23040304 5.397860857 -2.430043604e-20)
(98.439574 5.354520211 3.28425453e-19)
(99.04753816 6.093949781 -1.566002419e-20)
(98.84573086 6.258336655 5.805362131e-20)
(98.80902642 6.702379243 -5.887130051e-22)
(99.04882326 6.506548822 1.172839442e-19)
(99.97621481 6.633857958 6.11553803e-20)
(99.81972888 6.963320982 -3.917506794e-20)
(99.94107187 7.37904064 7.252142661e-20)
(100.1057887 6.992466271 7.276289777e-20)
(100.9348114 6.252136973 -1.528765789e-20)
(100.9115906 6.688751952 -2.665354625e-20)
(101.135126 6.948845314 7.429927614e-22)
(101.1304721 6.465542375 -8.839634354e-21)
(101.4542109 5.140173591 3.019693037e-21)
(101.560998 5.561094154 7.975097069e-21)
(101.7702095 5.650568385 -5.501355952e-20)
(101.6274983 5.215286487 1.889423949e-21)
(101.4897807 3.849209835 -1.523032341e-19)
(101.6468563 4.174512789 -1.532154087e-19)
(101.7907763 4.165461663 -5.603422156e-19)
(101.6108382 3.847551222 -2.350358307e-19)
(101.2989726 2.753447095 -5.345495988e-23)
(101.442734 2.975528545 -3.698713619e-20)
(101.533062 2.926772012 -1.085161871e-19)
(101.3773579 2.722202573 1.736406854e-19)
(101.1662013 2.060031821 0)
(101.0415271 1.903352549 4.927595066e-20)
(101.2231698 2.0107901 0)
(101.0914156 1.866694147 0)
(100.7515716 1.196787195 2.928389406e-20)
(100.9475248 1.405646214 1.904260381e-20)
(101.0061348 1.30026833 -1.636184852e-20)
(100.802134 1.134079484 3.670154842e-20)
(100.5303031 0.7680155255 -3.330547281e-20)
(100.6735628 0.9068104618 -1.488834564e-20)
(100.7073236 0.8244519284 -1.501144063e-20)
(100.5618408 0.7180573886 -7.334286717e-21)
(100.3610552 0.3472689383 -9.421285226e-21)
(100.5477014 0.4263893314 -1.91890189e-20)
(100.5858306 0.5847775802 -2.543253718e-21)
(100.4826621 0.565221247 5.87350618e-21)
(100.2534741 0.1936625349 7.686731163e-21)
(100.3759386 0.247351932 1.166031188e-20)
(100.1935456 0.08590674168 -1.9411606e-21)
(100.2691549 0.124456806 -3.421403467e-21)
(100.2195141 0.03779566947 -4.904817394e-22)
(99.84176789 0.01962381457 0)
(99.86413802 -0.002554008127 0)
(99.75396838 0.06097549447 4.760327434e-21)
(99.79683915 0.001615336346 0)
(99.59621059 0.1474939279 1.2118923e-20)
(99.65482172 0.04043890368 -3.722748746e-21)
(99.38004072 0.3376197639 1.993253725e-20)
(99.41810075 0.1267635274 2.663961061e-20)
(99.29968029 0.290976364 -8.021544299e-21)
(99.38251597 0.4080521182 2.81897764e-20)
(99.25791985 0.3618662558 2.251875787e-21)
(99.2364331 0.4705593067 -1.144366986e-20)
(99.04904944 0.7515570375 0)
(99.05066606 0.6421007068 -2.370961939e-20)
(98.84558466 0.7035225725 -1.95185739e-20)
(98.83060806 0.859344558 4.837930955e-21)
(98.59251081 1.288873903 0)
(98.5749897 1.133659841 4.837412991e-21)
(98.27523151 1.244676045 -5.01814278e-21)
(98.33843889 1.475011332 2.404648017e-20)
(98.21310551 1.46900598 6.256347776e-21)
(98.10041531 2.001946514 3.119144647e-19)
(98.06546357 1.893538727 3.611569392e-20)
(97.87426528 2.004951744 -7.627570742e-22)
(97.91192926 2.133399133 -1.048794738e-19)
(97.52404671 3.137497442 -3.106696092e-19)
(97.44367529 3.00582069 -2.115078181e-20)
(97.20980499 3.176823983 -9.587594117e-19)
(97.29820708 3.343832648 -3.050521894e-19)
(97.08100921 4.644458642 3.384362542e-19)
(96.92862343 4.509628907 1.570348078e-18)
(96.65829229 4.785306774 6.32075008e-19)
(96.83738633 4.953720816 1.055008879e-18)
(96.99285074 6.562795366 -6.484025192e-21)
(96.73095425 6.466645245 -5.639481819e-19)
(96.45643866 6.907724254 -5.67172528e-19)
(96.77890772 7.026030044 -7.940885991e-20)
(97.73122032 8.695187663 -1.533004082e-18)
(97.3345247 8.765726098 -9.676233775e-19)
(97.20382651 9.421737562 -6.091233838e-19)
(97.69457678 9.309081971 -1.061081565e-18)
(99.69971368 10.04083038 -9.928981991e-20)
(99.31112935 10.45589347 -3.60554125e-20)
(99.55304989 11.12657391 -3.445369306e-21)
(99.97093639 10.58440614 4.756823347e-20)
(101.9489375 9.408367085 -6.775578151e-19)
(101.8510656 10.06782409 -4.183218738e-19)
(102.3237947 10.38573269 -4.461724671e-20)
(102.347809 9.635608406 -2.925955911e-19)
(103.0442944 7.311664512 -5.789216795e-19)
(103.2369846 7.915460806 -3.867560706e-19)
(103.6078876 7.900131032 -2.731846729e-19)
(103.3398035 7.288335816 -3.651483327e-20)
(102.9487247 5.066752982 -9.257579303e-20)
(103.2344813 5.485300551 -7.120023519e-20)
(103.4404706 5.346528961 2.184638384e-21)
(103.1127613 4.953879533 -2.800081493e-19)
(102.3892266 3.374363436 0)
(102.6361009 3.62449267 0)
(102.7259525 3.488137708 -1.141065015e-19)
(102.4682509 3.262355622 1.174550457e-19)
(102.0144615 2.385007316 -2.955339952e-20)
(101.8364225 2.234905675 -3.78165202e-21)
(102.0610659 2.274198917 2.623011503e-20)
(101.8797593 2.14532307 2.258584054e-20)
(101.287378 1.358852272 -9.339006034e-20)
(101.5651324 1.554273354 -5.903834636e-20)
(101.5897168 1.366208081 -3.295788373e-20)
(101.3166982 1.231937072 -1.680434114e-20)
(100.8987178 0.8481445433 1.146228946e-20)
(101.0986122 0.9682587089 3.466227109e-20)
(101.100747 0.8351846699 -3.855594254e-21)
(100.9112533 0.7529190788 -3.784600523e-21)
(100.55 0.3282600753 1.970632062e-21)
(100.7713659 0.3566504257 0)
(100.8783685 0.5547669018 -6.24104639e-23)
(100.7683025 0.5767585187 -1.028572254e-20)
(100.3810337 0.1758982694 4.394334458e-22)
(100.5195811 0.197000107 1.970454402e-21)
(100.2862459 0.07558471134 -1.973245963e-21)
(100.3637558 0.09190266058 -1.975323254e-21)
(100.2908004 0.02684459022 -1.973076375e-21)
(99.82687842 -0.02044984295 0)
(99.8834539 -0.02681473329 2.334148161e-21)
(99.70746379 -0.01965148473 -9.523043821e-21)
(99.79617818 -0.07278716577 -2.353388625e-21)
(99.49133044 0.02251280868 9.947562577e-21)
(99.61524115 -0.08780080119 -4.712032188e-21)
(99.17521153 0.1742404247 1.298193178e-20)
(99.31041184 -0.05963835019 4.252804187e-21)
(99.10618833 0.1003218148 -5.335468018e-23)
(99.1469495 0.2852524667 -9.606717672e-21)
(99.02360277 0.1802877747 -9.763962963e-21)
(98.96265938 0.3053341779 0)
(98.64528285 0.6087297177 -1.951809206e-20)
(98.69452085 0.4621831607 0)
(98.45682153 0.4668437115 -1.464195823e-22)
(98.37420886 0.6634611963 -1.072500154e-22)
(97.95572992 1.129664432 1.01341797e-20)
(98.0001631 0.920845268 1.516783622e-20)
(97.65065015 0.9437453619 2.052483258e-20)
(97.631247 1.287257321 -1.712815094e-20)
(97.51248401 1.205617392 -8.427608199e-20)
(97.17856448 1.866901702 -3.30008526e-19)
(97.18550575 1.707789735 -1.702375831e-19)
(96.94913123 1.765228329 6.156333839e-21)
(96.93612411 1.954880201 3.720697772e-19)
(96.21100873 3.07433237 3.607058949e-19)
(96.16556937 2.86876204 -3.64082723e-19)
(95.85704531 2.966770999 -3.971825624e-19)
(95.90528728 3.247701816 0)
(95.20982492 4.870787227 0)
(95.09238955 4.597037071 0)
(94.68782824 4.773856081 1.022565578e-18)
(94.81922517 5.145918335 -1.872089361e-19)
(94.38894963 7.644286413 2.532234906e-18)
(94.08184314 7.279192231 -3.75013573e-20)
(93.53461716 7.729032681 6.770952113e-19)
(93.91364627 8.18523268 -3.889970816e-19)
(94.80551557 11.78516779 4.980888034e-19)
(94.09061978 11.553189 5.831108474e-19)
(93.60853995 12.60400761 3.739192926e-20)
(94.56908012 12.83213601 -3.895028093e-19)
(98.79857066 15.38280962 1.149813119e-19)
(97.86561788 15.97071552 -5.004730517e-19)
(98.42377167 17.31919205 1.431689972e-19)
(99.44938865 16.38144975 0)
(104.0753417 13.94545892 -2.159901922e-19)
(103.9138977 15.09425993 -3.238547607e-19)
(105.0097384 15.37550405 4.659180233e-19)
(104.9266559 14.07549182 -3.265625761e-19)
(105.9222012 9.664237785 8.039880998e-19)
(106.3414466 10.53277301 4.544415079e-19)
(106.9661086 10.21605217 4.22826243e-19)
(106.384071 9.394386992 5.476043938e-19)
(105.2462125 6.035327749 -2.227276091e-19)
(105.7473629 6.48087379 -1.06243125e-19)
(105.9489066 6.174254098 -4.985060296e-19)
(105.3968508 5.712592256 -2.320440962e-19)
(103.878593 3.666073059 4.989885332e-19)
(104.2681221 3.916451692 4.879009367e-19)
(104.3080377 3.656205405 -4.597257059e-19)
(103.9170326 3.453193133 2.08607181e-20)
(103.0273671 2.386717096 2.811817504e-20)
(102.7764977 2.265488114 -4.937746811e-20)
(103.0303512 2.215230919 -3.505059514e-20)
(102.7880107 2.116679568 -6.566806964e-20)
(101.9012559 1.314154807 2.712316141e-20)
(102.2490495 1.451912086 -2.187248925e-22)
(102.2082799 1.196452025 1.633547327e-20)
(101.880178 1.124446474 1.218836887e-20)
(101.3023066 0.781651848 -1.594874485e-20)
(101.5537997 0.8598369135 -8.10859343e-21)
(101.5012818 0.685492217 -8.110164356e-21)
(101.2759438 0.6481680292 1.230168185e-20)
(100.7277182 0.2303130893 0)
(100.9699652 0.1933609188 1.293344975e-21)
(101.1565636 0.4031279766 -1.086769801e-20)
(101.0575603 0.4788508105 2.700839083e-20)
(100.4914396 0.1113562879 -4.95387983e-22)
(100.6316902 0.08511323492 -1.531150458e-21)
(100.3596937 0.0432674333 -1.981861906e-21)
(100.4279386 0.02576578896 -2.236212013e-21)
(100.3315986 0.005322063363 2.545363706e-21)
(99.85956459 -0.0783989764 -1.84962147e-23)
(99.95742537 -0.059010324 1.044557305e-22)
(99.71245556 -0.1396005455 2.454019371e-21)
(99.85398527 -0.171660514 -1.265139969e-22)
(99.44531198 -0.1675467812 -1.282808854e-20)
(99.64178576 -0.2616315096 1.970508073e-21)
(99.02693646 -0.07924782159 -1.14919271e-20)
(99.28111518 -0.3189326331 -1.9466456e-20)
(98.99185515 -0.192975757 -1.665630137e-20)
(98.94929448 0.04385300248 -9.033149815e-21)
(98.86498184 -0.1172971982 -3.649816975e-21)
(98.74621347 0.01026113392 3.504145432e-23)
(98.29139127 0.2791293537 1.480029521e-20)
(98.40391141 0.1147148711 1.513523829e-20)
(98.15898523 0.04848087535 7.469920856e-21)
(97.99695391 0.2550694611 2.584690937e-20)
(97.38494613 0.686136727 -3.687788973e-20)
(97.51987299 0.4364734899 -3.176612301e-20)
(97.16461543 0.358687869 -8.606403441e-20)
(96.99988736 0.7333805284 -1.429033068e-19)
(96.90590168 0.6127451594 -8.643402425e-20)
(96.31017865 1.294929906 0)
(96.37871479 1.101396475 -2.675995666e-19)
(96.12554477 1.086049875 0)
(96.03711013 1.307674404 8.12469262e-19)
(94.8748587 2.37232135 0)
(94.91985981 2.089269848 0)
(94.5816124 2.087115548 0)
(94.51112959 2.412614155 4.437343853e-19)
(93.07921986 4.074363521 0)
(93.09211112 3.645446569 0)
(92.58004834 3.681778168 9.617801175e-19)
(92.52887753 4.178785374 7.004874197e-21)
(90.56230473 7.160985848 -1.078814476e-18)
(90.45504454 6.435765776 -5.415560272e-19)
(89.52722309 6.621295424 4.125074044e-19)
(89.61429934 7.542382703 1.702706943e-18)
(87.87445101 14.43669574 -9.072837614e-19)
(86.95757623 13.08489563 1.707712864e-19)
(84.95188319 14.81100021 2.545084308e-19)
(85.18268788 13.87199685 1.133585304e-19)
(86.96211535 16.15303851 -5.733971141e-19)
(85.83139437 16.19861166 -9.67886991e-19)
(93.78008235 26.82863292 -4.314258319e-19)
(95.27057094 26.28785605 7.103168661e-20)
(94.44151075 28.76925015 -2.849384355e-19)
(96.22817039 27.75785473 -4.254442604e-20)
(110.1218858 22.15549965 -1.578705852e-18)
(110.1708294 20.19373173 4.610565172e-20)
(111.8976096 19.5176736 -7.714427996e-19)
(111.1429284 22.81773037 3.084609342e-19)
(113.2872727 21.32736049 5.805515367e-19)
(112.9237271 22.2611535 -5.10876276e-19)
(112.0268844 12.37946947 2.37310628e-18)
(111.0068482 11.34199344 7.622361298e-19)
(112.6564462 11.36430322 1.609797045e-18)
(111.4714095 10.58536349 -3.635113643e-19)
(108.3689837 6.122251899 -5.79616999e-19)
(109.2016979 6.563290175 6.671005924e-19)
(109.2476392 5.902384653 1.002669445e-18)
(108.4060642 5.602818856 3.053516624e-19)
(105.6786054 3.346802504 2.74325483e-19)
(106.2315044 3.523844652 1.399540191e-18)
(106.143256 3.14117333 2.732783333e-19)
(105.6145088 3.033437193 5.365636085e-19)
(104.1203548 1.95993811 6.912426181e-20)
(103.7891487 1.898846221 1.991939215e-19)
(104.0415539 1.735078954 -9.419767018e-22)
(103.7301612 1.693680228 -8.134552433e-21)
(102.4963497 1.009997586 4.256368991e-21)
(102.8992972 1.047436455 -1.825490973e-20)
(102.7512269 0.7549440649 -2.408321667e-21)
(102.4005165 0.7765019603 -4.381645556e-21)
(101.6837143 0.544127087 4.353818206e-21)
(101.9706244 0.5590210819 -2.458149336e-23)
(101.8482706 0.3617064589 -7.162690296e-21)
(101.601531 0.3843244536 8.772356191e-21)
(100.857821 0.05206949136 -2.11454542e-22)
(101.0909406 -0.05886479291 -2.753787315e-22)
(101.3779418 0.1270103534 8.409937447e-22)
(101.3030783 0.2339949479 6.47496647e-21)
(100.557525 -0.0007145155815 -3.276099864e-21)
(100.6813603 -0.0847800338 -2.464814522e-22)
(100.3914996 -0.01140355204 2.459442009e-21)
(100.437966 -0.07111799678 -2.153861331e-21)
(100.3208255 -0.02601365609 4.045672481e-22)
(99.95686354 -0.1508945136 1.934115555e-23)
(100.0997712 -0.09683275254 -3.460562754e-21)
(99.7894847 -0.2904293611 -6.386931977e-22)
(99.98564004 -0.2877956601 1.506650571e-21)
(99.48554662 -0.4094101262 -4.988275151e-21)
(99.75411056 -0.4671958994 -3.282734964e-21)
(98.98493466 -0.4199522607 1.03188937e-20)
(99.35899144 -0.6281633058 -1.137377861e-21)
(98.99571249 -0.5637187179 1.087446551e-21)
(98.8492672 -0.3038759578 5.0759874e-21)
(98.82768111 -0.5052446721 1.047409856e-20)
(98.64974625 -0.3969165231 7.404163102e-21)
(98.07077022 -0.2176827506 -2.51374459e-21)
(98.25400936 -0.3728603329 3.931954042e-21)
(98.03186315 -0.5122037425 2.595258759e-21)
(97.78902691 -0.3313909521 7.874608659e-21)
(97.00478688 -0.0261236715 -3.079481682e-21)
(97.24095246 -0.2687154212 4.390216962e-20)
(96.91637804 -0.4523679919 -1.92013676e-21)
(96.59343305 -0.0865070729 3.314052735e-19)
(96.55195192 -0.2570919889 6.467701349e-19)
(95.69459737 0.3233453786 -9.922558676e-20)
(95.83666449 0.1285929735 -4.65273795e-20)
(95.5981203 0.03358845747 8.322619272e-19)
(95.42587559 0.2474629985 -8.748431179e-19)
(93.89327001 1.007019148 -4.722249194e-19)
(94.05378053 0.7133875987 9.278411686e-19)
(93.73597516 0.590181798 1.019869696e-18)
(93.53172026 0.9062943613 1.540068482e-20)
(91.39389295 2.062071857 -1.863196923e-22)
(91.62848949 1.613146312 1.267688593e-19)
(91.14273661 1.421743791 1.283089146e-19)
(90.82579048 1.901065045 1.303826328e-19)
(87.05066269 3.796404921 1.068914833e-18)
(87.50884576 2.992834632 -1.035294178e-18)
(86.63804294 2.590763418 5.613746047e-19)
(85.92763643 3.452871627 8.450311202e-19)
(77.87760381 7.071419032 1.25898942e-18)
(78.51620352 5.994479961 2.571831152e-18)
(77.46681049 5.310201042 1.313419939e-18)
(76.49277713 6.453988208 -8.59002509e-19)
(128.9705717 24.32633325 -6.574675812e-21)
(126.8405579 23.3040998 4.040591302e-18)
(129.515525 22.08334714 1.802739339e-18)
(127.4871802 21.53227797 9.667118078e-20)
(120.0112381 10.0013979 -2.609860097e-18)
(118.1192059 9.562818311 1.014668265e-19)
(119.7956262 8.253381666 -2.485586092e-18)
(118.0580026 8.229964343 1.449648463e-19)
(111.852155 4.497782455 5.967827986e-19)
(112.9956319 4.611694244 6.029168154e-19)
(112.6064431 3.765581247 -2.701355445e-19)
(111.5745569 3.811877487 2.010776285e-19)
(107.4264581 2.177477519 -3.019124571e-19)
(108.0969091 2.174843579 -3.362149154e-19)
(107.7836955 1.744981398 9.623257526e-21)
(107.1833473 1.80856952 6.155492692e-19)
(105.0745044 1.037829673 -2.995513254e-19)
(104.694609 1.072625781 3.235149176e-20)
(104.8852788 0.7969632197 -6.244869822e-21)
(104.5430917 0.8506887711 -5.714642257e-19)
(102.9610397 0.4379567729 -4.700228788e-21)
(103.3874249 0.3586047992 -7.428797086e-21)
(103.1141338 0.06815039393 7.391779777e-21)
(102.7753545 0.1957379714 1.121579821e-21)
(101.9738571 0.141140928 -1.994675977e-21)
(102.263926 0.07394540694 1.322831532e-20)
(102.0613966 -0.1125635672 4.902849744e-21)
(101.8253469 -0.01906802108 9.710767139e-21)
(100.9036387 -0.1924158918 -3.381283174e-22)
(101.1031525 -0.3823540095 -1.034227921e-21)
(101.4835424 -0.2516191069 -1.04554069e-21)
(101.4561642 -0.1068540215 -1.145944747e-21)
(100.5535141 -0.1530390722 1.05773831e-21)
(100.6440989 -0.2991343934 1.285020716e-21)
(100.3605455 -0.08442242462 -4.173828221e-21)
(100.3731809 -0.1916488535 1.642025053e-21)
(100.2411701 -0.06508645164 -2.057964323e-21)
(100.1310675 -0.2321016941 -1.973209475e-21)
(100.3187156 -0.137237869 1.094430054e-21)
(99.95323631 -0.4599415029 -1.153096658e-21)
(100.2005985 -0.4117965542 -8.070480083e-22)
(99.63117789 -0.6820859092 5.916449815e-22)
(99.96371621 -0.6867361244 -2.9060537e-22)
(99.0775096 -0.8139996448 6.79128054e-22)
(99.55924911 -0.9593818435 9.756960317e-22)
(99.14116542 -0.9745849891 5.882267677e-22)
(98.88437085 -0.7233645474 1.709757516e-21)
(98.93996588 -0.9452064422 -1.756464556e-23)
(98.71002724 -0.8727952763 -1.756714379e-23)
(98.04778699 -0.8261490964 -2.588567329e-21)
(98.29374198 -0.9466889276 0)
(98.11966967 -1.14983907 -1.270868892e-21)
(97.80925302 -1.022690638 -1.357719592e-21)
(96.90485287 -0.904915751 2.864165564e-21)
(97.23303328 -1.09851704 4.471739631e-20)
(96.97352503 -1.367338977 4.590689519e-20)
(96.51560946 -1.07069593 5.342448501e-19)
(96.53866758 -1.265419894 -4.751013741e-19)
(95.49115949 -0.8907429991 -6.639518692e-21)
(95.69674422 -1.053899689 -8.617350845e-19)
(95.51122407 -1.208772311 2.158546606e-20)
(95.25877708 -1.041883113 -1.743892071e-18)
(93.55937739 -0.7254023382 2.041834091e-18)
(93.80999502 -0.9612693503 1.030336282e-18)
(93.58757363 -1.164121152 -5.536402977e-19)
(93.26519054 -0.9280518567 1.543799681e-18)
(90.91816767 -0.5576386145 -4.798699818e-19)
(91.32079129 -0.8718276118 6.617830537e-20)
(90.99854218 -1.184182281 5.799870128e-19)
(90.52229689 -0.8919490677 6.846342612e-20)
(86.66523122 -0.8416713555 -5.483933527e-19)
(87.4187002 -1.224040464 1.468989401e-20)
(86.96057191 -1.794445185 -5.48212579e-19)
(86.09007827 -1.511125525 -4.163033272e-19)
(80.51311628 -3.265306923 6.219340867e-19)
(81.23858329 -3.303956852 6.215636194e-19)
(81.13726772 -3.868786772 6.08899417e-19)
(80.45871763 -3.952223924 -1.431447207e-18)
(142.0186159 4.94689749 2.371807492e-18)
(140.2778164 6.097949208 2.370229375e-18)
(140.5305783 3.568799933 2.478889883e-18)
(139.079284 4.698697257 -4.46526653e-18)
(125.0555902 1.866560194 1.853807413e-19)
(123.2221121 2.671642352 -2.981036738e-18)
(123.6751837 0.5307370589 -1.674089889e-18)
(122.2439872 1.436777201 -2.89153197e-18)
(114.2530737 0.9252648086 -2.162965503e-20)
(115.4035441 0.5135225756 4.459316638e-19)
(114.5271693 -0.1602328855 -1.900157979e-21)