/*--------------------------------*- C++ -*----------------------------------*\
| =========                 |                                                 |
| \\      /  F ield         | OpenFOAM: The Open Source CFD Toolbox           |
|  \\    /   O peration     | Version:  v1912                                 |
|   \\  /    A nd           | Website:  www.openfoam.com                      |
|    \\/     M anipulation  |                                                 |
\*---------------------------------------------------------------------------*/
FoamFile
{
    version     2.0;
    format      ascii;
    class       volScalarField;
    location    "1.21";
    object      k;
}
// * * * * * * * * * * * * * * * * * * * * * * * * * * * * * * * * * * * * * //

dimensions      [0 2 -2 0 0 0 0];


internalField   nonuniform List<scalar> 
12556
(
36.90869193
36.90873453
36.9087903
36.908837
36.95438008
36.95463604
36.95510031
36.95631178
36.95885869
36.96373211
36.97178356
36.98233223
36.99166395
36.99662704
36.99351507
36.9856557
36.97558409
36.96681887
36.9610955
36.9573798
36.9109744
36.90951017
36.90881109
36.90842485
36.7274333
36.72762235
36.72778656
36.72803966
36.77348023
36.77483717
36.77784496
36.80505453
36.81702374
36.83979233
36.87742152
36.92780682
36.9786187
37.0012566
36.99268278
36.9555843
36.90655013
36.86333433
36.81226128
36.79137442
36.73629426
36.73122801
36.72879555
36.72768006
36.54733258
36.54777527
36.54821969
36.5487741
36.59471965
36.59834268
36.60580767
36.64082058
36.67073862
36.72625388
36.82180884
36.93348063
37.01055746
37.04585599
37.0315943
36.97224812
36.87774413
36.7801153
36.68555371
36.63912548
36.56945882
36.55839723
36.55302876
36.55088272
36.36862283
36.36903106
36.36964796
36.37102556
36.4177177
36.42561105
36.44176535
36.49285071
36.55632221
36.68761003
36.86978476
37.04223372
37.14797669
37.17716336
37.13942766
37.05093683
36.91754116
36.76654442
36.60204068
36.51196725
36.41444013
36.39303898
36.38256748
36.37846726
36.19191459
36.19238844
36.19347196
36.19629075
36.24485835
36.2589774
36.28947825
36.36560635
36.50312072
36.74802501
37.04074079
37.30514291
37.47735199
37.47890952
37.37602553
37.22118945
37.0334506
36.81758503
36.58918148
36.42053993
36.27627862
36.23546189
36.21647105
36.20909849
36.01695975
36.01752786
36.01931147
36.0242708
36.07678297
36.10116332
36.15580962
36.27304902
36.52409944
36.90374534
37.38844522
37.89229082
38.21143054
38.1381036
37.8356635
37.53560762
37.24680853
36.9438255
36.62150572
36.37299484
36.15571932
36.08455187
36.05310267
36.04067879
35.8445481
35.84553698
35.84874207
35.85704337
35.91414118
35.95264621
36.04086987
36.2226517
36.59456086
37.1656781
37.98156892
39.19232706
39.97698225
39.7807961
38.68078853
38.04968583
37.57976975
37.14742577
36.69823008
36.37336007
36.05333784
35.94069044
35.89117865
35.87166832
35.67521034
35.67679806
35.68185888
35.69432584
35.75903997
35.81577151
35.94710478
36.2032214
36.69534535
37.48891012
38.78457494
41.43087389
42.52944874
40.07960071
38.78496679
38.0395314
37.42787279
36.81860243
36.39506984
35.96912968
35.80433324
35.73101938
35.70239396
35.51057346
35.51328319
35.52129014
35.53982841
35.61370034
35.69221408
35.87351559
36.20472568
36.81546765
37.82138846
39.51343341
43.39852151
47.0206992
41.83137813
39.68486061
38.58494288
37.76415695
36.96907461
36.43350857
35.90268197
35.67801844
35.57582053
35.53625519
35.35139415
35.35534054
35.36658334
35.39259797
35.47806381
35.58184307
35.81649335
36.21618022
36.93836469
38.11798573
40.04661043
44.30800459
50.21292088
43.44642609
40.61450944
39.17858326
38.12677006
37.13405159
36.48307148
35.85220823
35.56525568
35.43108685
35.37897962
35.1993716
35.20516356
35.22089549
35.25737147
35.35118871
35.48387987
35.77222448
36.23687184
37.06569057
38.38983226
40.48957639
44.403579
51.80420771
44.68211207
41.48609392
39.75918696
38.48287209
37.29517711
36.53838198
35.81505271
35.46936831
35.30240272
35.23682837
35.05434128
35.06181003
35.08179847
35.12840542
35.23292929
35.39641002
35.73664255
36.26538011
37.19444724
38.65072298
40.91747508
44.02452836
52.48326829
45.55806803
42.22458491
40.27273739
38.79370507
37.43816253
36.59251202
35.79179284
35.39071935
35.19293904
35.11374895
34.9172585
34.9270054
34.95319748
35.01151172
35.1231444
35.3167641
35.70721583
36.29820756
37.32412821
38.91005534
41.38210038
43.45935385
46.7928197
52.27961207
46.16356048
42.79296254
40.70464441
39.04111736
37.55297717
36.63837067
35.77433486
35.32800864
35.10195952
35.01028725
34.78675827
34.79873175
34.83077242
34.89899539
35.02656113
35.25863942
35.69946017
36.34896622
37.48182422
39.22216236
41.91190467
42.05895038
55.7692315
52.23668187
46.5305394
43.26259682
41.01151116
39.20374957
37.6377499
36.67189234
35.75505585
35.2757681
35.02555094
34.92295787
34.66247433
34.67662654
34.71422851
34.79202979
34.93141823
35.19237429
35.66779295
36.34629048
37.51896561
39.35646071
42.24410996
37.94786295
55.43270981
51.7600039
46.73997938
43.5344356
41.2013177
39.28891035
37.6853387
36.68994693
35.73169122
35.22766857
34.95775271
34.84648404
34.54202049
34.55830613
34.60105778
34.68827504
34.83979611
35.12571716
35.63231817
36.31761975
37.48932369
39.32513477
42.1438847
34.22994053
53.27931337
51.20844481
46.8692252
43.71274614
41.25690214
39.30393107
37.69685631
36.68792652
35.69510908
35.17525396
34.89220057
34.77410847
34.42515967
34.44342478
34.49058048
34.58624617
34.74907939
35.05611874
35.59022276
36.28293932
37.40834688
39.15850696
41.67181938
36.03072655
50.00005658
50.76990517
46.82975422
43.66843345
41.17757608
39.27064478
37.67581088
36.6553273
35.64540976
35.11756542
34.82403491
34.70073044
34.30881753
34.32891158
34.37996194
34.48357607
34.65733596
34.98185288
35.5379042
36.25219518
37.34191521
38.95891973
41.14996205
37.89184297
44.87385055
50.13281437
46.54848426
43.38704854
40.97487607
39.16313128
37.60037215
36.58792098
35.575114
35.04542213
34.7484327
34.62152434
34.19399591
34.21568815
34.26985683
34.38003376
34.56311462
34.90196128
35.47494346
36.20546512
37.31158242
38.86575235
40.74923019
37.68458064
40.51900519
49.03394691
45.95883397
42.97922909
40.72811327
39.00456021
37.48870161
36.49366557
35.48829213
34.96166016
34.66369757
34.53516015
34.07713181
34.10025315
34.15722844
34.27364675
34.46566029
34.81622894
35.40200976
36.1437299
37.26135907
38.8071356
40.43194668
35.65768932
39.72924587
47.88131765
45.31318981
42.58238808
40.46522456
38.81832866
37.35192362
36.3784365
35.38593517
34.86524688
34.56822484
34.43897814
33.96122414
33.98553208
34.0446446
34.1657742
34.36466394
34.72494392
35.32029877
36.0696568
37.19383329
38.71439003
40.04197342
33.27420596
39.18363493
46.82868236
44.71545416
42.20551242
40.20002579
38.61870984
37.19836338
36.24742431
35.27172761
34.75934974
34.4646265
34.33533436
33.84153686
33.86691913
33.9281891
34.05429535
34.26033822
34.62872981
35.2312196
35.98584539
37.11314728
38.59344
39.60024741
30.98021662
38.52187406
45.86648498
44.1573022
41.84946665
39.93941374
38.41381756
37.03427824
36.10500068
35.14658533
34.64294383
34.35102113
34.22207046
33.72381556
33.75005992
33.81292154
33.94235482
34.15304792
34.52843646
35.1362655
35.89459512
37.02228357
38.44825907
39.11272722
28.8411269
37.82090283
44.98181804
43.63307827
41.51150441
39.68652113
38.20836762
36.86417175
35.95470427
35.01510329
34.5211982
34.2325085
34.1041343
33.60077295
33.62786257
33.69267307
33.82656092
34.04344475
34.42496703
35.03688143
35.79792688
36.92336752
38.28014849
38.59247801
26.88380668
37.12105193
44.163388
43.13814138
41.18857939
39.4420819
38.0050398
36.69118499
35.79936443
34.87630508
34.39100724
34.10530062
33.97756353
33.48212032
33.50987376
33.57604363
33.71235039
33.93199551
34.31917372
34.93439706
35.6975812
36.81769812
38.08921235
38.05087402
25.16991655
36.43350217
43.40657583
42.66864594
40.8785554
39.20567134
37.80522855
36.5174415
35.6410506
34.73588488
34.25997646
33.97739502
33.85033039
33.3558957
33.38439668
33.45258119
33.59348326
33.81941162
34.21179232
34.82992508
35.59486039
36.70562263
37.87754474
37.4950957
23.69869417
35.76356236
42.69990138
42.22135582
40.57987127
38.97651091
37.60947888
36.34428506
35.48133646
34.58958118
34.12085994
33.8408225
33.71435094
33.23808428
33.26715845
33.33662707
33.47923981
33.70597116
34.10343772
34.72434115
35.49061959
36.58691078
37.64816532
36.93097773
22.4230605
35.12367321
42.03523604
41.7936125
40.29128474
38.75386356
37.41790222
36.17255483
35.32122473
34.44600446
33.98590663
33.70860441
33.58270086
33.10871829
33.1385424
33.21022729
33.35804568
33.59237757
33.99459868
34.61827289
35.38530692
36.46130277
37.40314987
36.36327951
21.31726614
34.51651569
41.40605513
41.38315815
40.01168129
38.53704739
37.23036319
36.00271041
35.16155552
34.29535927
33.84057313
33.56527385
33.43982326
32.99407971
33.02445748
33.09742667
33.24622299
33.47858723
33.88568001
34.51218314
35.27910155
36.32884681
37.14643578
35.79623028
20.35832578
33.94198772
40.80837775
40.98816504
39.74011857
38.32548563
37.0466498
35.8350045
35.00266534
34.15288221
33.70615904
33.43320298
33.3081754
32.86084154
32.89204011
32.96747308
33.1223973
33.36543086
33.7770391
34.40641494
35.17201193
36.18988087
36.88189078
35.23326898
19.5452931
33.39717047
40.24008497
40.60715116
39.47577015
38.11865729
36.86650153
35.66955
34.84511228
33.99846219
33.55504283
33.28365145
33.1589481
32.75240827
32.78417539
32.86095074
33.01608283
33.25245196
33.66897154
34.30122834
35.06397481
36.04490163
36.6112936
34.67658894
18.88646815
32.87818089
39.69840225
40.23893755
39.21794735
37.91611353
36.68966843
35.50640015
34.68880648
33.86134318
33.42573946
33.15630945
33.03190239
32.61330132
32.64600928
32.72547333
32.88766446
33.14086988
33.56176907
34.19682494
34.95490173
35.89450378
36.33519102
34.12714298
18.35187137
32.38542096
39.18172662
39.882563
38.96610857
37.71748302
36.51593162
35.34558263
34.53438929
33.70085441
33.26675331
32.99865846
32.87448784
32.51528039
32.5485727
32.62950416
32.79151282
33.02962932
33.45570385
34.09331434
34.84471674
35.73923923
36.05451923
33.58542746
17.92158353
31.9202608
38.68885933
39.53733789
38.71979763
37.52242119
36.34501175
35.18716227
34.38139729
33.57539995
33.14859566
32.88198148
32.75801768
32.36655841
32.4009462
32.48474667
32.65375455
32.92100533
33.35128085
33.99096048
34.73337366
35.57973782
35.77059726
33.05235778
17.58351183
31.48371847
38.21920703
39.20279412
38.47869683
37.33068631
36.17679645
35.03152213
34.23124864
33.40188443
32.97636073
32.71114071
32.58736474
32.28431872
32.31932467
32.40471565
32.57528196
32.81347518
33.24940879
33.89062594
34.62086735
35.41653813
35.48441034
32.52905629
17.32543965
31.0765657
37.77218969
38.87850268
38.24257577
37.14209054
36.01112385
34.87998448
34.08395114
33.29965411
32.87794353
32.61356713
32.48991785
32.09601387
32.1325733
32.22184743
32.40024362
32.71279313
33.15232462
33.79535336
34.50758504
35.25080471
35.19891978
32.01930685
17.13692189
30.70043763
37.35090102
38.56681257
38.01225111
36.95694439
35.84807076
34.73674488
33.94523787
33.07594375
32.65647545
32.3937081
32.27027673
43.23974426
47.52255327
42.89433203
44.23768643
51.0669995
47.96953452
44.4312573
52.75114571
51.36615908
44.0879029
53.42691253
52.86458585
43.49897058
42.36650509
45.81004848
53.71111282
53.46613763
42.54045229
52.5135299
42.75757256
55.39867773
54.16827225
53.7323911
41.0881139
39.92506992
42.42495717
39.71154317
50.88349615
44.42994873
46.51472662
42.22147916
40.60348144
39.92624673
43.31991367
42.51512414
55.36514073
56.69579573
49.91727433
44.22645287
42.76582729
40.38372934
43.80946656
43.41264925
44.44175511
46.16034391
47.08123527
54.48728103
53.94649721
51.67508145
45.69089963
44.65679283
40.82194328
43.79675931
43.82590889
44.29030545
42.71181744
44.60390991
55.7824692
55.04340455
41.27408469
43.58051465
43.7816224
43.7973043
38.09076919
40.45914569
39.37999115
56.51291837
56.29515754
41.81141862
43.07507164
43.53808795
43.1354912
32.29032028
34.88465016
40.97582042
54.03787044
52.86696198
47.38210173
49.12686469
43.52388532
46.9935009
56.57710341
51.20774426
45.49807679
50.2933075
55.25163079
47.19392604
47.87389182
43.91540165
48.50501475
47.27758306
49.2185911
48.64532605
54.01733622
55.18648545
49.70496073
56.07944566
55.36750939
55.46716753
56.15555037
49.46423702
44.78503965
46.00446512
44.45768373
45.68553895
43.9428472
47.19808989
45.7930551
54.90295334
54.5674752
52.28751693
55.87402494
56.09396934
55.33350462
55.83102801
52.10053174
40.59031177
42.59328783
44.24523878
41.67335307
39.22646587
43.8252575
41.80790213
56.25766693
55.86266804
35.03745109
37.91939257
43.76405366
40.17254755
36.04847165
32.98737574
39.08521812
36.25082858
40.94813082
56.76569224
56.53869902
39.29028084
39.7580629
32.22785724
43.08819231
49.28348692
31.82928594
74.76131555
32.90165976
31.837984
48.57667453
39.35272204
42.36818303
40.7885172
42.37093192
46.03620665
43.12544962
61.10094756
46.93689189
43.80808091
47.95093422
47.97782398
46.27531444
52.44385959
46.63763458
45.98494165
53.13032764
49.581497
48.14249438
52.07989985
57.05278712
56.85003225
47.81896612
46.33704242
42.62886502
54.48653293
45.45839995
52.48189237
44.05328315
49.37954093
44.8878568
47.72791923
43.95469314
53.22638291
56.25880173
56.37310079
56.11575157
56.24886215
53.1573937
39.42792228
46.9248326
45.00051418
41.52604916
41.09551319
43.07983595
43.90377788
41.59021421
41.5741957
65.35789676
48.00293379
60.72627681
46.10687772
57.46935533
47.1799402
56.61572186
56.71640349
54.14900442
54.11433612
40.78536683
44.08752707
55.51131837
41.1784987
42.64183747
45.51168421
41.29573757
55.41974609
39.37846117
43.36138079
43.01533693
52.30678522
50.37201408
48.1835647
33.91732769
41.17396628
40.66844906
41.81233946
41.35403203
34.06683258
58.52039793
54.9241197
48.26203931
55.20146236
56.15774602
51.08205347
54.88736683
48.50063626
45.12143747
50.22399929
44.87272089
55.43919029
50.95595931
45.66424038
53.1486288
58.33165947
54.56736439
54.18068843
47.92724482
44.13778877
47.84925303
49.10287622
47.42122295
50.55691606
44.52001684
47.00877346
49.00804789
54.69256911
54.7980978
55.72802043
53.60135516
52.9952372
54.20974398
53.77123334
55.67342066
56.37691374
51.65169312
50.62857462
52.76400007
51.95460327
56.41590175
44.89460045
44.78210945
46.58946071
46.50083617
55.05615834
46.06798771
54.99599177
40.70789925
40.54113773
42.87984342
42.74311102
43.12212354
46.98905884
56.06257424
43.27564724
40.80996086
36.80525836
42.38599388
41.96221624
42.8945752
42.51843533
36.95254449
39.21756892
35.16916801
35.03831563
38.09458482
37.95386186
54.3845011
40.47569904
54.18036874
52.84819195
40.47346899
39.99866213
31.8684275
32.97314521
41.00434275
41.12635801
32.47432873
68.0603839
41.50408286
59.65274123
32.39497116
45.96449345
44.41210029
40.14933534
59.90191448
39.60840022
40.05701594
42.18441702
42.59974628
42.98143661
41.53478018
33.69956403
41.21398823
55.9411313
53.54630415
54.08741501
53.27091705
40.35826617
43.27820248
55.39671343
54.53973468
41.18959771
57.16496934
57.1057386
52.59128919
43.17907978
42.69505019
45.05050526
46.11114233
42.92336754
43.22748818
55.97487888
58.70770969
57.68008901
56.87378554
54.27300187
45.26037275
45.6524193
48.20830924
47.47123625
53.85105379
43.55996181
44.86425276
44.61789599
45.16980585
44.94314311
43.69770836
43.7867291
43.47010028
39.51607507
32.67190881
37.7589253
37.32977396
67.27355321
50.13649011
53.24515347
55.91161657
59.77920482
58.96600201
52.71709579
48.55424969
47.12648069
50.24855278
49.00334123
53.0763366
54.27099528
49.40811896
48.54795502
54.8992521
45.33319414
45.43512643
45.24054776
40.40506706
40.90580307
44.30964266
45.89679048
46.23222565
54.75042042
55.98205863
55.02607492
54.92651139
55.38198812
54.62315101
54.32698615
54.88451421
54.69796217
55.3975776
41.60684532
44.1753298
43.88711216
44.53268767
44.26744847
41.74115707
41.26983763
35.99710621
36.32173201
33.55500218
33.77818094
39.70794513
43.43168389
39.6086645
40.26338334
36.45217913
36.81843756
42.2093676
56.11180854
47.56315412
51.26190434
58.37573204
39.30154315
35.63085302
33.83386676
38.66407501
33.23796671
33.48023502
32.71396485
37.1992083
48.89737506
38.69121274
38.68958879
37.88157779
37.1905247
36.78033835
32.09754354
40.16464367
41.19959946
51.18591426
31.81553137
86.07955417
42.62204832
41.11382887
46.22327209
32.72261583
31.92643328
54.94179809
53.98605836
53.88591423
46.45003177
46.42434474
40.02288561
39.61650744
53.39422194
52.56675856
52.46963464
48.14966842
57.37438103
48.3025836
57.84824484
49.00672628
42.96347215
40.43159391
45.70827296
45.89084299
49.79209766
46.65214653
40.73976756
40.30013655
48.28042682
58.62846097
40.76063188
45.84357262
64.96406969
39.29222953
40.06808351
39.33542203
39.25512612
57.34071144
65.87204482
54.68004565
51.18642694
58.39952206
55.4597974
50.51451363
47.59676151
52.53595917
55.7733535
55.10243761
56.21054441
56.86622829
57.34342383
56.19945565
46.14051036
45.44219633
54.2130934
46.58539587
46.94147728
45.04427863
46.32487638
47.08101261
53.89869899
47.34775766
46.40997521
41.10749615
41.41743348
41.30646943
51.09328765
50.26035414
42.81369081
48.49271651
47.1006621
49.9296051
48.93964828
42.23681522
41.48442611
41.77020419
40.45116635
38.36319179
37.88813055
33.01366566
34.41247605
38.89253763
38.4976937
57.22450762
56.69260871
56.23537947
51.15129012
51.715264
50.14006628
50.92407641
56.52993209
53.40325668
51.91342835
51.73924644
51.83398674
51.93091598
53.67150838
53.83288813
48.94378581
49.87725428
56.7544952
57.19179546
59.43199651
59.00981553
55.59051505
60.56836838
61.32056154
61.54804629
60.23676539
59.28404127
61.5319923
60.11101045
52.91929777
58.3224204
59.48234669
42.78198599
48.03225632
47.18647331
48.82656147
48.26084764
43.34345896
46.00883911
45.42301071
46.89142907
46.21021416
48.67934033
50.9889754
50.47062711
51.61365112
51.15485738
49.12857824
45.51883043
49.5721697
49.0170462
50.29365234
49.75467227
45.88140761
50.57044263
49.60211475
54.37169392
54.9119521
52.02909039
50.93724228
39.94409507
39.45457864
40.79297085
40.11575056
38.6761881
38.19866316
39.30005313
38.81818775
44.48222716
43.9257919
45.23349947
44.6729618
42.81369511
41.2306094
43.72227881
43.16347487
44.80224601
44.08068207
46.69369824
45.28434
46.56399724
43.86280655
44.68902985
43.87280605
43.63571463
35.55138905
35.86843937
41.13412444
33.96950043
33.74964166
34.27597694
34.06025419
33.63972732
39.91318891
33.86606437
35.26681135
37.6354989
39.31730259
43.29845441
37.28190849
35.22704159
38.10084579
37.36733521
34.65006856
34.37604409
35.08119014
34.75797422
42.34241821
36.94913348
37.38773841
49.77449789
41.82198856
48.95795423
45.31118195
48.70848936
41.40697525
60.58005897
39.19791336
58.42830144
51.76838832
35.51127622
34.41758703
32.94856837
33.16643371
38.52375786
37.44068162
32.73878382
32.89154678
54.13983302
32.03317488
36.58764794
35.90200453
68.49207659
75.79350504
31.74520505
79.9084672
59.4504987
40.66033306
32.65507525
67.77759725
44.32952627
77.72589
46.27907263
32.04215915
42.10297298
40.10225744
38.88910323
52.25352057
51.86570962
52.89568337
47.22987199
46.83488297
52.18272715
40.78077471
40.10827523
39.23462271
56.38201553
56.33160424
53.59630892
45.03013621
44.49899073
47.27235167
52.24469726
44.95243867
45.08634009
41.05685103
41.39319504
43.71338746
49.5502964
52.95555056
55.60767573
46.58704595
45.79890233
45.6919357
45.88649666
45.82677456
46.71749664
44.14631159
42.38775122
40.40398149
51.87964377
53.3477224
56.42727486
39.3948274
39.01726384
34.5318443
56.37619028
58.04902884
52.52942114
45.64787418
45.49332218
45.50718421
45.34836859
42.41969146
43.04512972
43.34820962
44.27760682
46.11446478
35.8637804
39.91221339
39.51895646
45.87628057
43.85795836
39.72101198
32.23922918
32.2734013
33.11981183
42.45098151
55.33265704
49.87540083
39.36252217
46.84264202
44.69196797
31.81358321
32.83965691
32.19735761
32.22112273
31.85475199
61.58038152
46.16059052
41.24312621
42.47872653
52.46835359
39.98810886
40.60076523
49.84231246
53.7711129
46.63138264
45.10171625
47.0007991
46.25842858
40.20108812
39.92837159
61.9413157
64.22429755
65.85525625
55.58469007
62.95477535
42.67542309
42.91887614
45.52845486
62.66073306
58.29711551
55.92529577
65.61000096
63.02913141
40.80981934
42.57347115
41.85127561
47.41354971
46.8108437
42.54992634
52.11681435
51.38256859
41.47248704
45.6837406
41.93229645
42.14570263
44.64230795
39.83746027
40.31889435
58.23863482
58.99796091
55.55597356
55.56720179
54.49258269
54.33386339
51.63186389
52.59475479
52.22877206
54.16431188
53.95449921
54.47134808
47.52498975
48.64176546
53.31859332
54.6043349
59.80661325
56.30687573
60.050627
60.38727551
57.7453773
41.19369509
43.31412221
42.79774301
46.8805707
46.65197835
43.90532867
40.74467235
40.50994912
42.37171349
42.03218878
47.8345929
49.9508069
49.63256674
51.8878319
51.5605872
50.06239993
44.80969017
47.47588325
47.20611659
49.31187086
48.99926831
46.62559608
41.73662591
42.24477653
45.23909483
44.4253969
41.06685091
41.57074494
45.19685552
45.68909854
46.85977536
39.12960885
38.98495975
40.30282974
40.11711131
36.90352479
38.76531919
38.64478016
46.21106015
44.50746746
45.02577365
46.13101792
46.00137903
42.48692482
42.82604858
45.9728657
46.05288883
46.50459938
54.80942832
46.41014477
47.76448459
40.40370186
40.03838342
36.1975546
37.3573451
40.84274848
40.5132922
33.28374023
33.35248411
35.28293878
34.89889561
33.11265284
33.20686426
54.56173337
31.97925318
32.79724176
32.16760683
108.3158142
32.19941744
40.7124623
54.49158242
48.82562728
31.9642105
31.99736126
32.52320468
66.70299812
72.13712973
69.73685626
53.32207764
32.34780596
31.91552049
31.94047917
41.05305941
40.26780985
39.46830766
52.15704373
51.54828429
43.68593692
42.49919859
39.84373395
54.65121729
53.63617987
58.49701722
41.03400474
50.56543813
46.58615882
50.8056534
49.94400002
41.95801383
44.09401009
44.75864303
48.68008286
53.84336326
54.19261904
53.30464073
53.57975188
58.41099688
57.62219553
57.87099133
57.10594088
57.36616763
58.01979408
47.93805143
48.19167257
48.42207847
47.82667252
47.96607154
47.82257425
59.45722979
58.40772401
58.40952732
58.10196795
58.29905722
59.21427806
48.9912011
49.20226466
49.46402818
48.67925622
48.930095
48.74768586
52.6117871
52.79766765
51.93486088
52.12704114
36.08477158
38.32206673
38.19433036
33.64350496
35.06190918
34.96455656
35.36988256
35.17814079
33.71477723
55.76065377
57.01373919
50.6908088
56.61529526
32.64916062
32.60870016
32.75075476
32.70649611
32.39747469
33.36740354
32.31988353
32.44799096
33.3233954
34.71662276
34.62637379
34.88269833
34.79832335
33.39787177
32.87330138
32.80481838
33.52819561
33.03140217
32.83082551
56.34576343
54.58032251
44.69860532
56.90924919
34.11596244
33.325282
39.28574
32.13106381
33.64600446
33.49767484
31.78898317
84.25029334
85.95180991
61.96386797
75.33643413
65.06480168
32.12460755
32.16566064
32.785268
31.88726859
58.75800318
64.09691424
59.0830387
60.76561748
57.04213581
49.62412686
62.85546122
57.74942168
46.74003795
46.81689808
53.47188888
44.09985535
47.4733576
53.42413729
50.75446092
54.43671674
49.85282026
52.86389386
59.24842395
60.75844819
53.74690197
58.10527708
61.69415165
49.58178008
50.76910741
49.01329741
53.03218912
61.51334062
61.62224237
59.59990445
41.9004466
54.20628607
48.46217902
60.2348633
61.25682843
43.78901187
46.38779696
49.83026491
63.7052592
52.16457057
42.37186098
43.86396918
62.02912886
58.74826652
62.38083643
57.28049077
59.82990218
62.2502168
63.47326313
62.82857253
55.26470533
55.4372532
55.71177677
54.81765197
54.99443156
54.9988198
56.94335392
56.57035561
56.84068298
56.01156056
56.28561926
56.56865392
45.90519094
48.61410956
48.60290155
46.67849306
46.91503064
45.48859588
46.68060055
46.43140558
46.15272151
47.4595204
47.82873073
46.87910113
47.97366424
47.79092822
48.53220556
48.31012513
46.61457738
46.83245996
44.35922091
40.91145065
48.10983124
48.0030776
47.77699044
41.89893146
47.00618167
46.58947518
41.90858662
41.85855653
43.94917264
57.78318885
56.07526154
53.34124868
52.97781553
52.15905001
54.17430138
53.77697736
53.52273751
61.01002178
60.67694867
55.87907652
61.22232912
63.31419646
57.59290317
60.83730311
60.99292309
59.30904917
58.11995907
58.01333012
58.2602563
58.25444179
59.16479834
60.93514906
61.07968455
60.03144941
62.83569917
62.78811018
62.6600314
62.80143006
59.85614161
61.65416588
62.32375134
64.05072067
61.66424705
45.53738766
45.38319928
42.72399949
43.49781881
46.28149871
46.11926608
41.2256627
40.97618302
41.74659205
41.47772744
50.59053759
50.26826709
48.24063865
49.59118154
51.2376097
50.91394239
48.07889176
47.79145468
45.19721332
46.23051584
48.68461007
48.38516951
50.31698291
50.30165631
50.58343496
49.74122535
50.01902417
49.91961955
51.6153223
51.33939527
51.5303559
50.8662526
51.12316564
51.33314945
39.77526712
37.03078409
37.18074618
36.75963578
36.89985848
39.61622627
40.51296138
37.67303396
37.89528861
37.32739545
37.49411841
40.30236385
38.50488291
35.96422958
36.10852232
35.7306978
35.87219993
38.38015377
39.13739769
36.48906852
36.63213926
36.21727173
36.36622975
38.98617175
39.51037051
39.34436472
44.29863176
42.27634958
42.46199947
41.89116981
42.06038765
44.10404385
39.90409452
39.72197446
38.00530942
37.87125482
42.54808836
40.57075142
40.63755467
38.22258079
38.68865583
41.86149297
43.55516659
41.51868778
41.65874761
41.13940123
41.24109394
43.32276129
38.4103722
38.31382937
45.52238248
45.62439955
46.10983558
43.2986833
44.17313977
44.0953496
46.18803002
46.28188746
46.3273334
46.36413632
44.41091145
43.68162545
44.65080268
44.01337768
45.85417549
45.75359991
43.58402413
35.62839698
37.75466952
37.62145337
38.04667483
37.92641814
35.79450371
33.91206932
33.80950838
34.20755643
34.11441251
33.61382081
33.60123868
34.04367199
36.42457768
35.74144183
37.34907316
37.08068793
34.97697982
35.76303807
34.76683953
35.15444541
35.43291117
37.88031463
35.50154533
35.65354719
35.25434806
35.43102837
37.80005449
34.56062286
34.45607884
34.96900987
34.85535823
48.28871286
41.24419521
41.89891105
40.44476925
40.72907552
48.72767948
47.79835877
47.50679427
42.79206856
44.85577008
49.02914431
57.25996262
44.30219419
46.45359748
40.9906116
42.54319061
58.16210671
32.4813689
32.42858923
32.56435893
32.52913003
32.72708975
32.99622613
34.6955652
32.25109363
32.20011021
32.37581629
32.31129637
33.02117344
34.36183785
34.26673416
34.54110153
34.44699007
33.08593102
32.78845398
33.97610487
33.83787249
34.18003269
34.08258433
32.83574616
53.50995384
33.41791158
33.12418717
31.96444759
66.76871522
92.1874185
97.61769574
91.50322109
92.56645275
72.01380852
31.96109379
70.15845152
51.22372957
54.99565416
32.58961953
32.02269599
32.07907049
67.87862505
75.16202844
73.20312128
59.29407842
65.79385496
80.10563572
75.47434467
49.49116301
71.29018875
62.40377731
32.18681052
31.84712657
32.1351808
36.68065364
36.69744386
36.81303795
36.7048716
36.73692068
36.83248773
36.75009928
36.80407015
36.86603698
36.82479981
36.90085725
36.91396514
36.92272067
36.98273516
36.96595415
36.99543801
37.0240131
36.99737833
37.02818182
37.02381274
36.99924951
37.01710449
36.97983434
36.96846855
36.9630774
36.89976879
36.91927102
36.87698585
36.81261286
36.87359343
36.5280449
36.56410701
36.66146098
36.58077007
36.65269948
36.70970256
36.68688148
36.80578263
36.79370249
36.84781982
36.97010486
36.90799347
37.00302438
37.08262018
36.99602756
37.10088637
37.13234087
37.0418384
37.13209458
37.11525892
37.03916726
37.1031482
37.04812854
36.99092204
37.02409524
36.93513268
36.90247691
36.90124075
36.79652784
36.80072056
36.39552261
36.47117451
36.53600798
36.50914037
36.66459783
36.64689605
36.72415724
36.91772694
36.82274574
36.98379748
37.16536186
37.00457087
37.21698659
37.35014588
37.12824951
37.37040988
37.38686708
37.17846103
37.37229453
37.32514984
37.15393097
37.29984183
37.20574265
37.07731023
37.16842005
37.04215798
36.95491041
36.99611745
36.84934044
36.80274294
36.29215012
36.44308518
36.4566961
36.51267795
36.7594722
36.68116474
36.85434114
37.17182829
36.96606592
37.28138341
37.6088498
37.24535335
37.70248276
37.93480116
37.44632193
37.97396893
37.97181641
37.48031532
37.89291412
37.74984951
37.4076272
37.69097673
37.50417705
37.26480634
37.44020739
37.24798822
37.08342394
37.18177344
36.97922139
36.87358041
36.23131564
36.47320311
36.44640577
36.57403248
36.94511422
36.79760149
37.09137742
37.60956929
37.26055142
37.80783083
38.5003313
37.7657869
38.75191406
39.62182806
38.15166893
39.64785936
39.42119945
38.1480376
39.08570556
38.58289852
37.9122604
38.42139288
38.01688905
37.60832601
37.89848954
37.58496663
37.31846293
37.48406537
37.19040528
37.0227356
36.20735174
36.53550765
36.48628297
36.67221928
37.19353385
37.00053602
37.40976862
38.22804521
37.75004167
38.57782317
40.49991131
38.8148789
39.82953607
40.45998244
39.48005352
41.0735285
41.15042802
39.98333362
40.56358499
39.88987079
39.43872207
39.67832576
38.80344003
38.18362513
38.58798687
38.05863102
37.69092255
37.90610028
37.48817074
37.25493084
36.20343283
36.6111267
36.54982466
36.78515221
37.45693793
37.25445475
37.74137558
38.85696483
38.39291157
38.98721085
39.50845681
39.25821777
41.76473654
42.4235732
42.00191255
44.23230731
42.91158846
41.65752135
41.3870856
39.82365139
39.03107758
39.47785753
38.67017691
38.20536708
38.44896321
37.85874407
37.57279916
36.21245659
36.69822111
36.63243823
36.90707331
37.7087419
37.52204062
38.04659498
39.35487684
38.9940865
39.66149495
40.32579318
40.15293271
43.54600172
44.61847116
44.45450743
48.43557972
45.86773843
44.7911224
43.06957687
40.90223627
40.07272412
40.43112789
39.33257128
38.81959583
39.03818832
38.2678638
37.95655475
36.23088522
36.79244937
36.72127283
37.0330619
37.94432743
37.76905658
38.32307899
39.76086929
39.46189044
40.16241722
40.89734888
40.76576368
44.36699321
45.42806327
45.44480896
50.9652633
47.98587643
47.31400149
44.39673693
41.87367812
41.13026909
41.30738552
39.98940778
39.48316646
39.62504978
38.67933147
38.3699447
36.25641264
36.89100547
36.81742844
37.16094324
38.17052214
38.00216452
38.58495539
40.14134556
39.85527179
40.60112785
41.40196645
41.27304331
44.37034455
44.85730316
45.01587214
52.14808264
49.18057475
48.84970181