/*--------------------------------*- C++ -*----------------------------------*\
| =========                 |                                                 |
| \\      /  F ield         | OpenFOAM: The Open Source CFD Toolbox           |
|  \\    /   O peration     | Version:  v1912                                 |
|   \\  /    A nd           | Website:  www.openfoam.com                      |
|    \\/     M anipulation  |                                                 |
\*---------------------------------------------------------------------------*/
FoamFile
{
    version     2.0;
    format      ascii;
    class       volScalarField;
    location    "1.21";
    object      nut;
}
// * * * * * * * * * * * * * * * * * * * * * * * * * * * * * * * * * * * * * //

dimensions      [0 2 -1 0 0 0 0];


internalField   nonuniform List<scalar> 
12556
(
1.155907157
1.155878992
1.155848363
1.155819147
1.156031846
1.156021708
1.156024014
1.156039518
1.156074123
1.156141671
1.156253629
1.156398268
1.156527026
1.156580382
1.15654262
1.156443426
1.15630672
1.156201079
1.156104968
1.15606581
1.155815194
1.155820366
1.155839945
1.155866223
1.155196076
1.155114703
1.155023746
1.15494166
1.155128355
1.155107593
1.155136757
1.155316289
1.155482284
1.155799234
1.156321312
1.15701812
1.157776319
1.12556851
1.138516883
1.157419064
1.156741002
1.156133853
1.155613851
1.155344099
1.154986764
1.154962043
1.155004626
1.155080563
1.154462614
1.154317794
1.154162936
1.154036176
1.15422055
1.154218738
1.154307217
1.154604968
1.155029774
1.155816695
1.15717638
1.031161146
0.9247266933
0.875177992
0.9074592055
1.008402669
1.157936445
1.156564386
1.155430908
1.154806223
1.154217447
1.154137494
1.154180465
1.15429401
1.153701936
1.153505176
1.153297457
1.153143631
1.153320273
1.15337537
1.153581027
1.154114204
1.155021497
1.156906056
0.9107242851
0.6963916523
0.6067557676
0.599328123
0.643833674
0.7328409135
0.8855196552
1.139111403
1.155849556
1.154605895
1.153627649
1.153398538
1.153394936
1.15352998
1.152935421
1.152671594
1.152412014
1.152248216
1.152456941
1.152607917
1.153044023
1.153932647
1.155881112
0.8950521309
0.5923001243
0.4278138631
0.355514956
0.3691064752
0.4283480712
0.5151558744
0.6436051474
0.8619221085
1.157333805
1.154896742
1.153257507
1.152736848
1.152634955
1.152759798
1.152156724
1.151844789
1.151551519
1.151394402
1.151645401
1.151948741
1.152759818
1.154233655
1.083441856
0.6496048779
0.3837617996
0.2340674039
0.1791853637
0.2057878539
0.2769460637
0.366121476
0.480765161
0.6607394203
0.9655698076
1.155801129
1.153117956
1.152165976
1.151895459
1.151976902
1.15137633
1.151015533
1.150693449
1.150565545
1.150902064
1.15141916
1.15271755
1.155121402
0.900174212
0.5082838982
0.2684394853
0.117965302
0.06474964737
0.1014879485
0.1831553191
0.2738234678
0.3776493101
0.5295904788
0.8119395658
1.157375139
1.153228879
1.151670523
1.151147567
1.151150411
1.15061806
1.15022116
1.149892951
1.149810576
1.150254965
1.151049318
1.152982903
1.156420665
0.8093643849
0.4662506178
0.2524253481
0.1009819939
0.05644920206
0.1375746055
0.2246321626
0.3204948389
0.4530555281
0.7073198948
1.063023126
1.153601378
1.151291809
1.15042057
1.150306431
1.149899631
1.149466394
1.149132586
1.14912052
1.149738176
1.150857751
1.153526928
1.157934542
0.7895885329
0.4991784126
0.3393253019
0.2511056396
0.06651108564
0.1328275227
0.2099406473
0.2974842523
0.417542604
0.652542411
0.9810691902
1.15422471
1.151038176
1.149747671
1.14948867
1.149245246
1.148789402
1.148473371
1.148571556
1.149334454
1.150845751
1.154292535
1.159464846
0.8061254899
0.5634662743
0.4641038461
0.5102320853
0.0919416309
0.1488940876
0.2183114126
0.3001479676
0.4118396963
0.6313887922
0.9326222426
1.155074981
1.15100462
1.149237417
1.148801315
1.148650986
1.148172963
1.147880708
1.148137249
1.149014179
1.150998282
1.155219973
1.160975563
0.8352763257
0.622948788
0.5578088842
0.5668655853
0.1250479038
0.1781782393
0.243252731
0.320680259
0.4268393826
0.6388017268
0.9127461357
1.156084197
1.151191245
1.148945644
1.148324743
1.148159429
1.147668949
1.147412274
1.147811159
1.148799912
1.15128046
1.15624652
1.16243762
0.8673260045
0.661546579
0.5825873118
0.4904463675
0.1629555183
0.2193812499
0.2847540777
0.3598338292
0.4664340885
0.6720482283
0.9234393798
1.157303699
1.1516606
1.148955307
1.148141098
1.147719162
1.147213713
1.147019712
1.147584903
1.148713465
1.151642035
1.157330057
1.163807768
0.9060304389
0.688631337
0.5579635773
0.4324857716
0.07095710053
0.210626959
0.2803251091
0.3485088856
0.4247230005
0.5373746393
0.7275851992
0.9592282387
1.158567701
1.152331564
1.149221938
1.148248447
1.147390171
1.146876875
1.146739905
1.147435203
1.148811363
1.152284809
1.158500698
1.165109277
0.9664304597
0.7372936873
0.5669954506
0.2778527063
0.1345579439
0.3129371242
0.3904779588
0.4550502842
0.5235318616
0.6326670293
0.8087418691
1.01423893
1.159847166
1.153197003
1.149734654
1.148612437
1.147091789
1.146566955
1.146482959
1.147321954
1.148914823
1.152799135
1.159416064
1.165914612
1.080736215
0.8531740591
0.6715548218
0.07529249364
0.1866235921
0.4608443669
0.6050453004
0.6327265953
0.6812931669
0.7729871204
0.9308986395
1.107144549
1.161033279
1.154083289
1.15036869
1.149163178
1.146886755
1.14635334
1.14630991
1.147267138
1.149046519
1.153280699
1.160219237
1.166445851
1.160848068
1.068202259
0.872568882
0.05350840629
0.1947553127
0.454241674
0.691247715
0.8853783086
0.9061411456
0.9604581899
1.094699496
1.168226489
1.162080452
1.154967258
1.151081543
1.149808608
1.146671141
1.14612269
1.14610592
1.147186223
1.149170289
1.153692697
1.160858978
1.166679876
1.161466427
1.117724305
0.8985937627
0.09534337617
0.1619312027
0.4232150334
0.6672305242
0.8780079781
1.032736078
1.11881718
1.160929757
1.169169952
1.16290239
1.155736733
1.151746932
1.150439578
1.146525663
1.145965986
1.145960841
1.147123365
1.149257651
1.154010112
1.161287851
1.166622371
1.160664615
1.119463313
0.9247474138
0.1688010142
0.1178843666
0.3885092133
0.6487342911
0.8788130008
1.036774751
1.120899475
1.161855478
1.169713632
1.163483698
1.156368356
1.152374424
1.151054321
1.146329949
1.145755024
1.145749728
1.146994061
1.149292528
1.154219655
1.16149933
1.166220731
1.158379871
1.113544054
0.9155703718
0.2033116792
0.101492196
0.3757563773
0.6507582976
0.8852212681
1.039452668
1.122001795
1.162200922
1.169878617
1.163798
1.156799725
1.152848192
1.151535706
1.146193573
1.145611755
1.145598846
1.146879892
1.149268375
1.154320301
1.161504591
1.165505825
1.155534314
1.10299946
0.8648930755
0.1683663199
0.1150994838
0.3854956519
0.6573818067
0.8900704959
1.041211673
1.122451773
1.162117347
1.169746078
1.163954575
1.157146418
1.153265658
1.151963672
1.145978725
1.145390293
1.145368046
1.146694616
1.149193709
1.154322167
1.161325809
1.164523186
1.152226446
1.09073361
0.8023633886
0.1367792029
0.1304484274
0.3944502474
0.6621000547
0.893278903
1.042295365
1.122463839
1.161728057
1.169394088
1.163911922
1.157314689
1.153519852
1.152232545
1.14582682
1.145243707
1.145215625
1.146552321
1.149081014
1.154244923
1.160992927
1.163317537
1.148483065
1.076525229
0.7370301924
0.1161687476
0.1437660356
0.4024282661
0.6659069549
0.8948090107
1.042757311
1.122156453
1.161127365
1.168889175
1.163807073
1.157458275
1.153751106
1.15247049
1.145576087
1.145000268
1.144972846
1.146345353
1.148948944
1.15411229
1.16053831
1.161925563
1.144287769
1.059371836
0.6796664445
0.102120396
0.1554474351
0.4096234693
0.6691739092
0.8950778081
1.04256127
1.121574953
1.160375835
1.16828253
1.163566072
1.157450512
1.153827177
1.15255161
1.145401614
1.144845214
1.144827363
1.146208873
1.148806847
1.153943978
1.159989185
1.160365478
1.139527716
1.037786986
0.6317672055
0.09211649972
0.1657610403
0.4161903603
0.6720240636
0.8946180798
1.041744416
1.120731545
1.159507352
1.167609299
1.163335045
1.15747377
1.153926473
1.152646189
1.145112828
1.144576199
1.14457498
1.145999683
1.148664971
1.153751569
1.159361869
1.158635178
1.133978268
1.011927167
0.5913391956
0.08516582877
0.174983991
0.4222747443
0.6745207184
0.8937859841
1.040443983
1.119646445
1.158544493
1.166892957
1.16299308
1.157353327
1.153873992
1.152587936
1.14491924
1.144413007
1.144438173
1.145880724
1.148521748
1.15353963
1.158662077
1.156711114
1.127347827
0.9838197961
0.556727414
0.08046821367
0.1833958118
0.4279134605
0.6767205485
0.8927692384
1.03881892
1.118359898
1.157508033
1.166149226
1.162709293
1.157310953
1.153892316
1.15259282
1.144600858
1.144122296
1.144176647
1.145670238
1.148382011
1.153308216
1.157888468
1.154558467
1.119403813
0.9554060945
0.5268494249
0.07718766399
0.1912442851
0.4331501572
0.6786748189
0.8916614557
1.036996601
1.116920892
1.156418412
1.165389756
1.162313462
1.157116701
1.153752684
1.152440939
1.144394878
1.143953831
1.144048282
1.145569782
1.148239323
1.153055375
1.157034427
1.152126143
1.110083688
0.9277142514
0.5008690874
0.07507546292
0.1986588476
0.4380434543
0.6804434614
0.8905193815
1.035066958
1.115374947
1.155293669
1.164623039
1.162014969
1.157041809
1.153727721
1.152398145
1.144062389
1.143652811
1.143783756
1.145357331
1.148098974
1.152778508
1.156090399
1.149361926
1.099509791
0.9012253033
0.478097051
0.07384540869
0.2057322125
0.4426627923
0.6820824565
0.8893835369
1.033092168
1.113760174
1.154148582
1.163855225
1.161589713
1.156799621
1.153532086
1.152187896
1.143845326
1.143478107
1.14366018
1.145273219
1.147952966
1.152475725
1.155045706
1.146208724
1.087912275
0.8761418832
0.4580197963
0.07332972896
0.2124522548
0.4470821775
0.6836352211
0.8882806545
1.031114438
1.112106767
1.152994549
1.163091285
1.161293974
1.156707357
1.153483612
1.152120699
1.143522164
1.143187371
1.143409071
1.145065946
1.147808635
1.152144847
1.153887557
1.142622848
1.075531321
0.8524069659
0.4400504064
0.07349400645
0.2188206193
0.4513454199
0.685137265
0.8872320613
1.029163969
1.110438581
1.151840333
1.162333268
1.160859789
1.156443464
1.153261668
1.151885041
1.143282259
1.142993978
1.143275996
1.144987234
1.147656596
1.151783627
1.152601085
1.138582607
1.062596284
0.8299225805
0.4237907041
0.07420181243
0.2248770395
0.4554862185
0.686620982
0.8862570518
1.027263617
1.108774879
1.150692885
1.1615858
1.160562525
1.156327929
1.153188409
1.15179452
1.143006382
1.1427491
1.143071042
1.144809312
1.147504882
1.151388286
1.151168793
1.134087748
1.049310165
0.8086519213
0.409063401
0.07539157288
0.2307012564
0.4595529735
0.6881178208
0.8853712175
1.025430959
1.107130563
1.149557833
1.160846342
1.160159374
1.156085782
1.152983707
1.151579389
1.142712496
1.142506168
1.142896122
1.144701222
1.147345303
1.150957044
1.149575374
1.129146124
1.035821424
0.7885132732
0.3956469076
0.07698768729
0.2363682789
0.4635842451
0.6896510929
0.884589061
1.02368155
1.105520324
1.148442826
1.160125675
1.159810743
1.155907794
1.152852013
1.151432519
1.142532487
1.142353953
1.142781674
1.144606534
1.147188067
1.150491746
1.147821465
1.123777015
1.022226166
0.7693894285
0.3833330701
0.07879162838
0.2419077344
0.4675834711
0.6912361356
0.8839252617
1.022028988
1.103955784
1.147366579
1.159424404
1.159539963
1.155759137
1.152732273
1.151306702
1.142177057
1.142064136
1.142580464
1.144476289
1.147052882
1.150012642
1.145964249
1.118029937
1.008676794
0.7513492865
0.3720972207
0.08089189565
0.2473407073
0.4715410964
0.6928780939
0.8833825089
1.020480042
1.10244284
1.146395239
1.158809198
1.159082334
1.155515169
1.152550521
1.151111601
0.2201418818
0.0590479996
0.04912651777
0.4894865002
0.08368355539
0.06190346925
0.5759269726
0.1177873076
0.08769394824
0.4988601225
0.1493632331
0.1228511076
0.4377946155
0.05274835131
0.06652181534
0.1849714572
0.1533425222
0.3276257404
0.09877571795
0.05428090197
0.1255303515
0.2522390996
0.1882371507
0.09739588122
0.06568088736
0.05089029077
0.09603931361
0.03009616817
0.02095081612
0.06410302703
0.1129372143
0.1177694375
0.4335972679
0.4672696013
0.2598017393
0.0406033944
0.05033013042
0.0885470284
0.1275721262
0.1149398525
0.5403324476
0.6405181916
0.4899216045
0.5719835204
0.2188713601
0.2533384476
0.0677619235
0.04970835845
0.1208009886
0.1555313509
0.1335554082
0.5815204405
0.6005620432
0.6568000526
0.5387352898
0.1342555081
0.1794349494
0.1187264437
0.08981183152
0.563667345
0.5217566775
0.5919594879
0.4754038287
0.07539599755
0.1018645874
0.02219702015
0.1404712074
0.1353077441
0.5568515396
0.3963887739
0.5112965557
0.3940336997
0.02829022924
0.04724979725
0.2573257296
0.1378848182
0.1050701757
0.07946152215
0.2106905453
0.03712163456
0.07130640547
0.04879971191
0.0313600123
0.05142485241
0.03321825186
0.04684159814
0.258257227
0.2952584224
0.395444351
0.2260863894
0.2036485296
0.2568608444
0.2304520084
0.04926478443
0.04039679287
0.07333365809
0.05806781733
0.06483587832
0.04807572313
0.05836575014
0.07184298929
0.1827983383
0.2139590438
0.5986321929
0.1638221433
0.1347094429
0.2012984819
0.1662707822
0.08591160002
0.06928059007
0.1049333828
0.09186554317
0.1152945929
0.06542046043
0.08882405818
0.1004105361
0.1033999713
0.1323806088
0.5291952584
0.1048010209
0.07760627174
0.1330744858
0.1063017978
0.1343925532
0.1231513044
0.04821584486
0.07356028815
0.4729241578
0.01528519605
0.05083484368
0.03008433402
0.07648243899
0.05240423453
0.01344110844
0.1464968233
0.1420908095
0.02510987723
0.004670240724
0.0279596737
0.3882816659
0.082910752
0.01762036832
0.009828845833
0.02974290177
0.01795722325
0.08098496348
0.3105427205
0.2309692156
0.1182216906
0.1302807644
0.07939403578
0.04404052033
0.01713663698
0.008915496228
0.3602090185
0.3003621969
0.2321518227
0.009281386281
0.1557447878
0.1924130763
0.1639925279
0.009943771063
0.0732597723
0.0641820949
0.09547190631
0.1626427812
0.150147307
0.2028993645
0.08873562975
0.147623671
0.04235545072
0.01437553936
0.02507332055
0.02404525009
0.03151838783
0.05003875959
0.06228100778
0.04526814241
0.1378473822
0.1279875679
0.1363377689
0.1166857999
0.1267451824
0.1345255727
0.03583082166
0.01141790763
0.06451808461
0.02590855403
0.04481953258
0.03608071668
0.02126222619
0.03342906571
0.02468606829
0.01675525861
0.02419543483
0.02206195958
0.01072932261
0.01760269355
0.02290414582
0.05107258053
0.05186738546
0.05894286631
0.0576757392
0.02244655254
0.01061917588
0.1059558855
0.01896416853
0.03533194266
0.009762443601
0.01605246615
0.1017289857
0.09021431303
0.2664448704
0.2515923469
0.09174378367
0.07800744117
0.01017273894
0.04227963732
0.1882552129
0.1742022728
0.207747917
0.1939591048
0.04265448899
0.05298266366
0.04270133261
0.1197143912
0.06971096048
0.06709819666
0.04014250585
0.0690827001
0.136112442
0.04533745297
0.02628661341
0.01647149076
0.05917193126
0.02925330359
0.05039414171
0.0278162266
0.0714527161
0.03912110468
0.03867092382
0.2203264922
0.03022353812
0.2193391282
0.253441525
0.03434797584
0.03901140204
0.03068750481
0.03378912578
0.2475865897
0.04738973665
0.04704929131
0.06196394825
0.07002760389
0.06546871659
0.07662760064
0.07162945056
0.06230065396
0.05839183587
0.05780789636
0.05273717178
0.06374128266
0.05920337252
0.05993213422
0.1494214424
0.1475429801
0.1849456166
0.1827586099
0.08148465549
0.009520792513
0.07997197856
0.09456244623
0.09261920201
0.1189908171
0.1171821145
0.0377686525
0.05562281519
0.1321149598
0.0421508197
0.02419773941
0.06427436494
0.2272128741
0.2127900627
0.2466171488
0.2320245002
0.06561566668
0.03258345994
0.04631245001
0.04531271141
0.06905492366
0.068172853
0.006631867704
0.04329369922
0.1103643567
0.0965202882
0.1687081825
0.1580709381
0.02216886702
0.0113480321
0.026777754
0.01723704659
0.02827474793
0.01088318267
0.01599026244
0.01117132765
0.02830056569
0.06903501665
0.01196167794
0.02294605824
0.003556390644
0.02312853453
0.01720156806
0.6292128825
0.3649939697
0.3764049469
0.2427004992
0.008055695724
0.005323115924
0.1805775276
0.3887605575
0.2847765248
0.006294854227
0.01491634106
0.011113936
0.1234063286
0.1152557383
0.04682197775
0.2029769657
0.1690755026
0.09899487191
0.01055621888
0.01821928806
0.0143205495
0.009243234054
0.01392118308
0.009817495093
0.04369481332
0.01931981253
0.01808074703
0.05489453338
0.06351341621
0.01927945909
0.02633673019
0.01228254685
0.01221203758
0.05180190139
0.1502344898
0.3452839613
0.3302017225
0.3656387023
0.3503478586
0.1538854673
0.2859345389
0.2711672098
0.09158602647
0.0311539745
0.0925031028
0.08699967503
0.01054482672
0.01610018192
0.1137168509
0.04505554994
0.0218902953
0.01950008602
0.03848203346
0.04489734931
0.04072017921
0.05116247132
0.0463532114
0.03967853284
0.04830308787
0.01281560195
0.01235544132
0.04209203724
0.1959587582
0.3861519735
0.3707107533
0.05860302306
0.0606831088
0.1401600173
0.02795351067
0.03052215469
0.07348721484
0.1013131104
0.1050751116
0.09706176835
0.07262000672
0.08447104475
0.07856346064
0.09414347285
0.08680456438
0.0738990519
0.1178913339
0.3055198699
0.2907741266
0.3252316976
0.3104496647
0.1198652671
0.1004837489
0.03513442743
0.03585445822
0.02030891508
0.02109460539
0.08223444486
0.1272531429
0.05426761657
0.05817796165
0.03616321029
0.03684085205
0.1108196391
0.1335010528
0.05835052018
0.07752332184
0.006936980379
0.022131585
0.0484996414
0.03672885067
0.0732445744
0.01968435153
0.02016659295
0.01925033197
0.06166875292
0.01059277544
0.004381600817
0.1194086998
0.1001679078
0.08509898276
0.08061272686
0.02754934567
0.02494300278
0.03830833386
0.0884264031
0.01739087437
0.010972293
0.02387339285
0.03151624922
0.002876698064
0.02924480015
0.01895443051
0.01263493923
0.006476949329
0.01241619232
0.00941196245
0.009269587115
0.03407471611
0.02596323358
0.00656251441
0.03874886715
0.0406519572
0.01667338857
0.01149126083
0.007911229247
0.01192016914
0.01823157442
0.01124630424
0.01571013894
0.05307315911
0.01006066407
0.0093162051
0.01082390981
0.01387693303
0.04305525373
0.01077947085
0.01039882127
0.01406547851
0.0107981702
0.01088551271
0.02348681275
0.01587392448
0.03347055469
0.02638605996
0.01067754331
0.02084280837
0.02216990442
0.01914088731
0.03106531275
0.02359743266
0.01872956829
0.01684289645
0.01306216498
0.01659112263
0.01294465414
0.04611617806
0.05459510179
0.01776073908
0.01668414719
0.01798007349
0.01865030825
0.06204008391
0.01091895938
0.01122526975
0.01475795117
0.01115152908
0.01136355631
0.05318517833
0.01174380954
0.01758755903
0.01515900706
0.01353244962
0.02519059727
0.06557209223
0.05984954162
0.0124022537
0.0497163014
0.04279622186
0.05775526856
0.05210479384
0.01307516519
0.01236386139
0.04534726264
0.0373263475
0.1013275079
0.09449962568
0.03470507582
0.04481573445
0.1089573441
0.1032141825
0.04687414646
0.04581303414
0.0728099258
0.09290258099
0.1185087304
0.06943269398
0.08673742929
0.07400668479
0.06262983432
0.1561003416
0.1411351613
0.1319267166
0.1603670242
0.06254330919
0.04268746565
0.05071737391
0.06359281931
0.03702422514
0.04176847478
0.03024360495
0.02871680602
0.04371914384
0.02094427352
0.02106614246
0.01670823779
0.03005762316
0.03263921023
0.02189301464
0.03031193692
0.03520119849
0.037621354
0.03167656973
0.02830421172
0.09909075724
0.08561692021
0.1067462764
0.1019805293
0.02948342484
0.0760125272
0.07344339563
0.08179661668
0.07694409248
0.03605621264
0.127759185
0.1218895001
0.1374862293
0.1298759333
0.03672328422
0.03192399851
0.1131404862
0.108425203
0.1200392239
0.1148088901
0.03230337328
0.01356634697
0.0130307881
0.04804113183
0.04378370926
0.01338551918
0.01375539778
0.04191845513
0.04110642762
0.04418456819
0.04219788035
0.03963953596
0.03855523391
0.04084133806
0.03991600955
0.0695893421
0.06738884169
0.07265061121
0.07036556871
0.06142055421
0.04698663355
0.06646386987
0.06417003393
0.03132991397
0.02645578199
0.04078008335
0.03399202376
0.008621279297
0.01676516585
0.01566843517
0.02468528563
0.0173789955
0.03416992641
0.03477731148
0.09901290305
0.02023358611
0.02003516223
0.02087675917
0.02041965717
0.01939985059
0.08470176494
0.02167123252
0.03212516144
0.03899822629
0.05229309771
0.125246026
0.03569723531
0.02296599248
0.03841345733
0.03542306001
0.02164153198
0.021112624
0.02255414409
0.0218650813
0.1123599511
0.03707416658
0.03796318008
0.00655304762
0.0344186447
0.009301605258
0.01005239585
0.00929208002
0.03186907702
0.007134695312
0.02485383995
0.01022363159
0.01062782521
0.04784011642
0.04142544848
0.01908587807
0.01957616025
0.07225902206
0.06388259719
0.01821281916
0.01901658893
0.00980889445
0.02645931649
0.07787955468
0.06927179694
0.01188934083
0.01155122126
0.01658890573
0.01119171936
0.01170533837
0.02156482189
0.02913004865
0.007564960181
0.01279429527
0.01091874198
0.01177244885
0.01974787667
0.05827810775
0.124261204
0.1610292037
0.00962444528
0.009596642744
0.1923595216
0.2450505309
0.2038166137
0.006535105153
0.04540720777
0.01552009605
0.02266274341
0.1407425909
0.1465741825
0.1639204415
0.005151765047
0.008213239605
0.006104107553
0.005035961048
0.006202775359
0.004881435515
0.06261454498
0.03946143567
0.02455301499
0.02704001232
0.02384771494
0.0275267348
0.2336837667
0.4276539633
0.4120363661
0.4486055198
0.4328660531
0.2385617225
0.05564887443
0.04816275145
0.01412651901
0.08210653136
0.09575060617
0.1378497132
0.1166344715
0.1107866516
0.04530678981
0.02915365701
0.03493699203
0.03384399398
0.4068371647
0.3912864405
0.2002498243
0.1573093028
0.06681373031
0.07091887311
0.07421867998
0.08584472413
0.1737096383
0.05580167625
0.1253967799
0.118664173
0.01072978319
0.01099477609
0.01720287858
0.01880224671
0.01908220558
0.03089269907
0.01192700991
0.01002931888
0.01018017779
0.03310630802
0.06671295011
0.05777331755
0.01758209472
0.02952459551
0.01838485037
0.01854475522
0.01796701929
0.01471631094
0.009592979596
0.01251692321
0.01140367022
0.009954938503
0.028444209
0.03568280058
0.07277823294
0.04088148124
0.03941387488
0.0359677216
0.02652770847
0.05553625361
0.01840319036
0.02573229712
0.01064021066
0.007412244023
0.007512415623
0.010818243
0.01059225664
0.02550379917
0.01606665242
0.0108709676
0.02222355146
0.02018880326
0.0185778522
0.02011073701
0.02429871763
0.02051965603
0.01153747642
0.01245096872
0.007205042808
0.009313229501
0.01189729165
0.07353569844
0.06747276207
0.0274432221
0.009479379936
0.01681519786
0.01508003048
0.01090482463
0.01681771697
0.01445076516
0.05054871571
0.03827770755
0.04379789848
0.07086505236
0.1030326786
0.1011572717
0.04186982478
0.07011692245
0.06590083399
0.09983592864
0.097306615
0.0672051361
0.03786263754
0.04588988513
0.03893920668
0.02970342403
0.03094163193
0.02520200483
0.04990740701
0.04819380189
0.05771650683
0.02256060825
0.03295053314
0.03126132558
0.05243233554
0.05201349349
0.0299544425
0.02747406227
0.02704358495
0.03020513734
0.02947414884
0.03495485965
0.05956161518
0.05882892548
0.0639890521
0.06304985298
0.03816103773
0.03104846043
0.05384873264
0.05326108246
0.05807912061
0.05734488581
0.03327343089
0.06396172347
0.06603981663
0.1552803776
0.1419123942
0.06130643877
0.0633058959
0.09355968529
0.09720655672
0.1918720578
0.02541304742
0.02527528478
0.0267973008
0.02657664958
0.01929602225
0.02499453697
0.02489730434
0.1759778567
0.08829932201
0.09220219632
0.009778062415
0.009865451394
0.0145360843
0.01380084583
0.009565083707
0.009780269115
0.009477891919
0.07496398743
0.03174732482
0.03900437292
0.1341621519
0.1276428459
0.0590097134
0.06864946224
0.142032673
0.1361134928
0.03026580092
0.03033506859
0.04667673065
0.04497373205
0.02987516308
0.02984200679
0.009878238506
0.02108415272
0.03320063463
0.03300502213
0.008229560587
0.0134892828
0.02387908836
0.01196104643
0.01163211049
0.01750819881
0.01775049376
0.02871612517
0.01102686562
0.007887269483
0.01090994988
0.01088807185
0.02681800066
0.01703062568
0.01760576543
0.01568557105
0.04239995903
0.03586470886
0.009783729102
0.009834763777
0.01088080197
0.01145054852
0.01908387093
0.006817622548
0.004487606833
0.008338155179
0.0130162483
0.009472424474
0.01030330976
0.009420748802
0.009688548633
0.01162173577
0.01094591053
0.007236607072
0.005475702839
0.01647886049
0.01700384084
0.01587970641
0.01607618702
0.01876113254
0.02838307291
0.02879994458
0.02782502035
0.02820553944
0.01857982983
0.01208684238
0.02147167799
0.02142654124
0.02216567158
0.02160933754
0.01185297242
0.02081727445
0.03176566113
0.03517198236
0.02913826678
0.03006640874
0.02018421983
0.01275062271
0.02145173955
0.02143356596
0.02139054737
0.02143003791
0.01254646105
0.01525467255
0.01561446804
0.01468475176
0.0154223092
0.03529042302
0.05434514752
0.05386553127
0.02055617811
0.0338720471
0.03363368245
0.03513382519
0.03421191309
0.02075188388
0.01023927506
0.0100440529
0.01030469193
0.0102451364
0.01909733804
0.01891308886
0.01950231889
0.01929494303
0.01488988846
0.03285060032
0.0196590114
0.02054884582
0.01986285973
0.03317732232
0.03296456294
0.03348993344
0.03331495821
0.01999063421
0.02036598945
0.01979198907
0.02971139739
0.02130125968
0.01529663316
0.006819089496
0.009995974438
0.0110138076
0.006727721221
0.03949292938
0.02719432553
0.003049705635
0.02754737514
0.04213452821
0.04174230704
0.0173511241
0.01092841795
0.008037855004
0.00421062246
0.01164508529
0.01167505652
0.0181711583
0.01831946284
0.02944478058
0.01838308257
0.009519420273
0.008639243331
0.01532275272
0.004093990401
0.009476754483
0.007346574555
0.005333666096
0.006591425282
0.009370158422
0.007778470505
0.009723037782
0.01087166727
0.01012528263
0.04063041908
0.03075915132
0.008885716884
0.011023801
0.01238567852
0.0190282478
0.02138774373
0.01325154001
0.01638139902
0.01491721939
0.0095553369
0.006506885136
0.009606497852
0.01037047621
0.007106584671
0.01043036391
0.01046640198
0.01244950254
0.01082301812
0.01070552348
0.01064177148
0.01045352592
0.01155153791
0.0112030216
0.01085124093
0.01075579549
0.0109554114
0.01280899966
0.01199969498
0.02596631418
0.02205734998
0.0253769431
0.02762357628
0.03057244428
0.02521301388
0.02339672932
0.02505544505
0.01577759377
0.02507610505
0.02663367162
0.01822172303
0.02518950275
0.01674298003
0.01737952268
0.02726417134
0.02764484085
0.02663598806
0.02713099353
0.0171542752
0.01818428026
0.03190815517
0.03140050932
0.0110707432
0.01114964571
0.01272237218
0.01004669033
0.01038296912
0.01074539278
0.01126578772
0.01083620743
0.01412550859
0.02649141231
0.02369534481
0.03058425855
0.0290397499
0.01647529085
0.009255521829
0.01042350018
0.01800696964
0.006863333864
0.009281713007
0.009272679603
0.01290240527
0.009314211481
0.009539430818
0.02210999661
0.01963703362
0.01079393364
0.04841774528
0.04449837561
0.08834668793
0.07815643869
0.04400397159
0.06687428541
0.09613999444
0.09170301403
0.037046095
0.03374453565
0.03337123048
0.02371549249
0.02982643824
0.04867379268
0.04738716366
0.04090101525
0.03015274678
0.04269783776
0.04271715911
0.03893574464
0.04023061774
0.02846744243
0.0199235129
0.02130712346
0.03199571578
0.02291584264
0.02187869314
0.02425505763
0.02312494156
0.03248575624
0.022414629
0.02309492397
0.01856179618
0.02393666687
0.04752716975
0.04774592625
0.02982015862
0.02944033097
0.05087934365
0.05087019652
0.02819600739
0.02778220159
0.02900364088
0.02855961167
0.06092780537
0.06021315484
0.0353992784
0.0374306152
0.06232849242
0.06163096542
0.05524735305
0.05461132169
0.03154001333
0.03273815775
0.05659774654
0.05591926833
0.01332909025
0.02148824902
0.02149884823
0.02148673832
0.02150357713
0.01325196729
0.01389866495
0.01991423367
0.01732818676
0.0213789293
0.02098849505
0.01382690484
0.0416339228
0.02412245668
0.02439214421
0.02371190914
0.02391144807
0.0413764648
0.04303517597
0.02531567602
0.0257789699
0.02465119008
0.02495934468
0.04253454618
0.03924288137
0.02251066548
0.02275008738
0.02214973266
0.02237873137
0.03900781556
0.04054918447
0.02332874118
0.02351368019
0.02290979221
0.02314453859
0.04026974148
0.02585671995
0.02567724549
0.06886451395
0.04515634626
0.04549817084
0.04440493823
0.04469902574
0.06805333299
0.02630991226
0.026105645
0.02378601693
0.02503335134
0.05922752933
0.0405046775
0.04018255683
0.02665286837
0.02803804968
0.05251209985
0.06594730557
0.04365474799
0.04386180153
0.04289022669
0.04283402
0.06457925381
0.02456243783
0.02461559528
0.00973192053
0.0100532129
0.009429758211
0.01304400546
0.01126320259
0.01637206269
0.01033771819
0.01022076751
0.01039292134
0.01037912352
0.01612815874
0.02208878037
0.01182262247
0.01380343691
0.01045378813
0.01010323489
0.01912083839
0.03410491475
0.05171887733
0.0514025186
0.05314911959
0.05278221037
0.03468110145
0.02019392822
0.01996130123
0.02075918221
0.02048665261
0.02053300309
0.01614714981
0.02274531992
0.04205231589
0.03739459032
0.04922711964
0.04743592145
0.03218821874
0.02487596426
0.01743651249
0.02233432976
0.02367024837
0.03772250258
0.02181050176
0.02209186911
0.02117377638
0.02187125
0.03778767997
0.02148077966
0.02125428832
0.0222980679
0.0220537668
0.009549937422
0.01282594043
0.01212848766
0.01701225005
0.01414676643
0.009469935435
0.009263526029
0.009512859336
0.01135469152
0.01028678544
0.006632645468
0.01038799599
0.01096875306
0.01080333501
0.01304843184
0.0117640722
0.01020769559
0.01848832905
0.01844725774
0.01872118056
0.01866452379
0.02832240593
0.02825966719
0.04304044528
0.01771298237
0.01870654565
0.01822653211
0.01828864611
0.01929939538
0.03240939638
0.03207174522
0.03281735937
0.0325491093
0.01938184008
0.01874491333
0.03138707622
0.02966380816
0.03193876567
0.03140133445
0.01873730841
0.01008425694
0.04016147331
0.0395258572
0.02631243135
0.01194482154
0.01025942954
0.01038607358
0.007634102206
0.01060262759
0.01158748225
0.01716329753
0.01137146305
0.01178868758
0.01160361966
0.02884062684
0.01785731912
0.01805927155
0.01072858966
0.01105025149
0.0109548492
0.0111533148
0.01133222934
0.007972715968
0.00791954522
0.01142611586
0.01099476199
0.01121999838
0.01448244453
0.01783833467
0.02689537247
1.154765653
1.15500262
1.155430866
1.155109841
1.155559461
1.155705403
1.15574925
1.156500322
1.156176422
1.156794658
1.157879786
1.156843513
1.123993135
1.02411291
1.157587142
1.019085498
0.9433996136
1.128379763
0.9419814464
0.9603496932
1.132221409
0.971509966
1.048661766
1.157597999
1.076735421
1.157860688
1.156902774
1.157517001
1.156620305
1.15626959
1.154210924
1.15472507
1.154895814
1.154964916
1.155978325
1.155577927
1.156485964
1.07917426
1.156758283
1.004406916
0.8180630568
1.078515589
0.7765834382