/*--------------------------------*- C++ -*----------------------------------*\
| =========                 |                                                 |
| \\      /  F ield         | OpenFOAM: The Open Source CFD Toolbox           |
|  \\    /   O peration     | Version:  v1912                                 |
|   \\  /    A nd           | Website:  www.openfoam.com                      |
|    \\/     M anipulation  |                                                 |
\*---------------------------------------------------------------------------*/
FoamFile
{
    version     2.0;
    format      ascii;
    class       surfaceScalarField;
    location    "0.8";
    object      phi;
}
// * * * * * * * * * * * * * * * * * * * * * * * * * * * * * * * * * * * * * //

dimensions      [0 3 -1 0 0 0 0];
oriented        oriented;


internalField   nonuniform List<scalar> 
25162
(
0.0004264011278
0.9162235989
0.0005188905143
0.9166075106
0.0005959203848
0.9165729701
0.000288737059
0.9166077015
0.0003494817751
0.4583397602
0.000298976906
0.458312504
0.0003632488385
-0.0003757528499
-0.0004606713154
0.4582906969
0.0005199744125
-0.0005762877773
0.4582405586
0.0006707291329
-0.0007738233283
0.4582179122
0.0008859111128
-0.001016123744
0.4581934204
0.001157703326
-0.001302387919
0.4581880912
0.001449296722
-0.001596329637
0.4582093061
0.001718523512
-0.001819038045
0.4582666397
0.0018858983
-0.001912841918
0.458347175
0.001900666945
-0.001851530993
0.4584164909
0.0017650401
-0.001658864542
0.4584581384
0.001535726172
-0.00139330928
0.4584691326
0.001259176674
-0.001123254257
0.4584774237
0.0009608305405
-0.000895734543
0.4584517146
0.0007940199682
-0.0006572203413
0.4584621879
0.0005450324098
-0.001662905368
0.9186612067
0.0001471822377
-0.0004954835404
-0.001037738991
0.9187248336
1.900606373e-05
0.9157932549
0.9138190061
0.001171654856
0.915051944
0.001839258206
0.9159399073
0.002053509712
0.9163587186
0.0005481971164
0.9171891534
0.0009238607189
0.4581027096
0.0006538487266
-0.4582083612
-0.4581986001
-0.0008011883582
0.4580127291
0.0009870594424
-0.4580610414
-0.001218578139
0.457780473
0.0007057861143
0.0007933604434
-0.2289727301
-0.0008611953213
0.2288976458
0.0009362795795
-0.001263363042
-0.2289124202
0.2288124558
0.001363327454
-0.001782769638
-0.2288574213
0.2287235917
0.001916599306
-0.002411419838
-0.228837548
0.2286843487
0.002564619164
-0.003058504113
-0.2288759369
0.2287636223
0.00317092348
-0.003182873534
-0.2290016413
0.2288425863
0.003341755887
-0.00380165431
-0.2291767974
0.2291455287
0.00383292299
-0.003678711923
-0.2293015881
0.2293683227
0.003611977345
-0.003261083771
-0.2293816192
0.2295167686
0.003125934379
-0.002686910227
-0.2294011223
0.2295610297
0.002527002858
-0.002100156122
-0.2293765344
0.2295255757
0.001951114875
-0.4588605669
-0.002996925432
0.4602736693
0.001583823061
-0.0002877919573
0.4609308233
-0.001390528937
-0.4592525024
-0.001547053021
0.918204515
0.0003902322578
0.001613512397
-0.0009413015219
0.9181190821
0.0003795239082
0.9144724295
0.91419853
0.00147993531
0.9135720087
0.003979243565
0.913440599
0.006724068675
0.9136138935
0.002703936662
0.9150616458
0.006147639602
-0.4580812574
0.4579352167
0.00284997743
-0.4578612942
-0.002798153556
0.4585508042
0.00210864354
-0.4573994878
-0.002142939669
0.4572249053
0.001122877981
0.001194644213
-0.2285349758
-0.001401037305
0.2283779703
0.001558042856
-0.228307666
-0.00212768851
0.2280838683
0.002351486225
-0.2281301629
-0.002561933942
0.2307765251
-7.73721845e-05
-0.2331997636
0.009187696321
0.2357165715
-0.01167449273
-0.232274321
0.0170684547
0.2333718273
-0.01814437496
-0.2278540808
0.01917391943
0.2275032513
-0.01882742462
-0.2241442236
0.01564132245
0.2223670758
-0.01389146876
-0.2252307387
0.006694339402
0.2222346246
-0.003726034129
-0.2301504638
-0.005561850101
0.2298242366
0.005886572195
-0.2302580605
-0.004981238229
0.2305728318
0.004666466932
-0.003485588086
-0.2302143823
0.2308741803
0.002825790157
-0.4628774223
-6.378127957e-06
0.4616915931
0.001192207328
-0.4600239443
-0.00133814579
0.4600147503
0.001347339861
0.0003323098792
0.9200463035
-0.001273024495
-0.0009010738703
0.001727744041
0.916723648
0.0008076327432
0.9153925408
0.9150061627
0.0004772450917
0.9130947636
0.001040601851
0.9128772422
0.00218227319
0.9124722222
0.003033797779
0.9122168952
0.001993226015
-0.4572172379
0.4568307058
0.003420329816
-0.4601450668
-0.004578107946
0.4571577993
0.007565375438
-0.4587728906
-0.008751752324
0.4604150417
0.001875271987
0.00523432915
-0.2278038327
-0.001809849267
0.2276299285
0.001983753467
-0.2288876756
-0.001608463209
0.2325823441
-0.002069523033
-0.2410295703
0.01261699174
0.2441395777
-0.01565288911
-0.2423258323
0.02258619686
0.2439145286
-0.02409735293
-0.2356849495
0.02647144549
0.2359495358
-0.02669477982
-0.2264361182
0.02632417437
0.226084549
-0.02598260447
-0.217869206
0.0242052905
0.2168757178
-0.02327005217
-0.213929533
0.01879641944
0.2116912377
-0.01664261099
-0.219135861
0.008190707466
0.2157268707
-0.004847558519
-0.2340792798
-0.001165335223
0.2368049038
-0.001562890491
-0.003740841767
-0.2317091954
0.2317181
0.003731937257
-0.4616754919
-0.005745404981
0.4628932709
0.004527626062
-0.4607467333
-0.003303010931
0.461756009
0.002293735177
0.003242241547
0.9201305383
-0.001764337118
-0.001562139191
0.00224817842
0.9177177111
0.001042343064
0.9165983762
0.9160485058
9.693857161e-05
0.912997825
0.0002368229897
0.9127373578
0.0005129372586
0.9121961079
0.001129535578
0.9112736106
0.0003266862616
-0.4566033569
0.4558443005
0.001888591971
-0.4557972765
-0.002259842925
0.4552352066
0.002821912777
-0.4544204593
-0.003602443162
0.4537481357
0.002280989182
0.001993777585
-0.2283688617
-0.004050494351
0.2269600526
0.005460125311
-0.2439091609
0.0009351466022
0.249228208
-0.006163929079
-0.2514422907
0.01710627293
0.2530806206
-0.01861364196
-0.2457509398
0.01968831006
0.2451850238
-0.01901895386
-0.2343699998
0.01500347255
0.2328355736
-0.01342411568
-0.2250360148
0.01005274836
0.2246613915
-0.009689327273
-0.2163479669
0.01121246957
0.2173656664
-0.01229862109
-0.2077954515
0.01542600208
0.2077987791
-0.01555075159
-0.2173258388
0.02335237993
0.2098727336
-0.01602164036
-0.2200904923
0.004084692123
0.2168902693
-0.000954535271
-0.005570431839
-0.2330925434
0.2336444616
0.005018513661
-0.4645780852
-0.006822333211
0.4662087249
0.005191693517
-0.4627243195
-0.004005308317
0.4637309856
0.002998642176
0.004098082216
0.9221893869
-0.003457673042
-0.002699257823
0.002277848187
0.9195379451
0.001038615228
0.9178376091
0.917087121
-0.0001656671947
0.9131634922
-0.0002426623565
0.912814353
-9.478670295e-05
0.9120482322
0.0001287251983
0.9109171829
0.0001329158865
-0.4550072153
0.4547385523
0.0003973882549
-0.4547921498
-0.001310741176
0.4540884064
0.002014484639
-0.4530284481
-0.002485895822
0.452110449
0.001669591761
0.001734303167
-0.2338940895
0.000144213663
0.2363214845
-0.002525390062
-0.2528111985
0.008867078915
0.2545215411
-0.01043421526
-0.2552591284
0.01040439638
0.2533264773
-0.008315649363
-0.2396395045
-0.0001234743092
0.2399682446
-0.0001142543128
-0.2246514979
-0.01221689847
0.2217681529
0.01512188503
-0.2234399117
-0.02439043877
0.2229613265
0.02486681736
-0.226299127
-0.0155741626
0.2296207121
0.01221384804
-0.218491348
0.004880234801
0.2189360326
-0.005443518213
-0.2029099274
0.006592361976
0.2029355636
-0.006778984282
-0.2094084844
0.004298212041
0.2077480085
-0.002768157484
-0.003283604542
-0.232859259
0.231500911
0.004623472878
-0.4676625325
-0.007202164325
0.4691470041
0.005717692738
-0.4643576595
-0.004604448199
0.4649499051
0.004012202632
0.003512461591
0.9246827396
-0.002909368504
-0.003096445751
0.001941059634
0.9211093471
0.0008162367708
0.918962432
0.9179033578
-0.0005539759808
0.9137174682
-0.0009839728039
0.9132443498
-0.001272642468
0.9123369019
-0.0001503184339
0.9106630462
-0.0008681873459
-0.4546412259
0.4543684265
0.0001224809737
-0.4530949311
-0.0003209380218
0.4527720148
0.000643854329
-0.4518160199
-0.001558816323
0.451624239
0.0008917301217
0.0008589634893
-0.2414188812
0.00192513075
0.2429117014
-0.00333356025
-0.2599368869
0.006491585603
0.2575999203
-0.003975207122
-0.2498379182
0.003458861609
0.2486895838
-0.002154229748
-0.2253109325
-0.006147904968
0.2200327011
0.01147944718
-0.2117699687
-0.02915592167
0.1077287934
0.1020940698
0.01347421436
0.01762881276
-0.02194550498
-0.1088534811
0.1082477603
0.02255122578
-0.01799519214
-0.246362711
0.03448285115
-0.0183580458
0.1236651966
0.1245679012
-0.01952864489
-0.227425375
0.2324357522
0.01444008441
-0.2060401559
-0.005073354641
0.2091024128
0.001840613826
-0.2057058565
0.002350404838
0.2050034469
-0.001807153827
-0.001254314118
-0.2254135886
0.2240803469
0.002526261177
-0.4706485288
-0.00631002542
0.4716303108
0.005328243359
-0.4659961912
-0.004063128027
0.4670356404
0.003023678749
0.002178360548
0.9265172795
-0.001886993182
-0.00212590727
0.001059747635
0.92222796
0.0004111728808
0.9196110067
0.9183145307
-0.0009537777016
0.9146712459
-0.001856533135
0.9141471052
-0.002567480765
0.9130478495
-0.00134199092
0.911313905
-0.001876348712
-0.4543587049
0.4543802235
-0.001363509586
-0.4526424004
0.001435040307
0.4525678533
-0.001360493237
-0.4508552813
0.001224087589
0.4513116451
-0.0005743377956
-0.001099052332
-0.2453887037
0.0005001491159
0.2455571626
-0.0005630862232
-0.2582833409
0.0004593535797
0.2584349163
-0.0004259625526
-0.2450920565
-0.0008799652715
0.2444416174
0.001677306352
-0.211226787
-0.004928920448
0.2099477405
0.006225373205
-0.09633366978
-0.004232100104
0.09642559159
0.004140178287
-0.02596427194
-0.1349224364
0.1374914349
0.02339527344
-0.02427913195
-0.2490817067
0.2538263569
0.01949448902
-0.2143675113
-0.01032102213
0.2161295033
0.008400603615
-0.2051452995
-0.004752824699
0.2056951425
0.004024095625
-0.0002660150415
-0.222138972
0.2214838875
0.0008373248992
-0.472979815
-0.004006586287
0.4741009851
0.002885416192
-0.4678717799
-0.002103651123
0.4685744867
0.001400944333
-2.709098646e-05
0.9274549175
-0.0001634115508
-0.0007471354563
-0.0002795072465
0.9224803762
-0.000203219286
0.9195347188
0.9181113114
-0.001342916339
0.9160141622
-0.002612758925
0.9154169478
-0.003949147205
0.9143842378
-0.002302729238
0.9124924582
-0.002824971106
-0.4545858213
0.4547816743
-0.002498582228
-0.4526572812
0.002722805325
0.452865512
-0.002931036217
-0.451609081
0.003117901735
0.452218828
-0.001770962349
-0.001939567189
-0.2469485521
0.002507892806
0.2471885081
-0.002641391934
-0.258039538
0.002489098988
0.2579848166
-0.002259637258
-0.242767573
0.001287597131
0.2425763726
-0.000964752849
-0.209231402
0.0004979636854
0.2095363769
-0.0007958725364
-0.09998461472
0.001862974871
0.1004478993
-0.002326259494
-0.01167778599
-0.1504086974
0.1511243293
0.01096215409
-0.01272685863
-0.2649445137
0.2670502442
0.0106000241
-0.2215555481
-0.005482852465
0.2227249149
0.004171416375
-0.2071495547
-0.001269482121
0.2075168943
0.0007302790156
-1.584896818e-05
-0.2211187433
0.2209638199
7.822000115e-05
-0.4754298309
-0.0006149117315
0.476483997
-0.0004392542863
-0.468937953
0.0009260571989
0.4691369485
-0.00112505267
-0.002687410092
0.9269609122
0.001860391801
0.001321023584
-0.001924823621
0.9217177898
-0.001008302379
0.9186181975
0.917103009
-0.001694370088
0.9177085323
-0.003494655981
0.9172172337
-0.005220138229
0.91610972
-0.003255723193
0.914315718
-0.003787674917
-0.4551664935
0.4555457018
-0.003634931478
-0.4531435629
0.004067260869
0.4536382046
-0.00456190254
-0.4529704489
0.005022948636
0.4541341166
-0.002889536232
-0.003273532748
-0.2479371554
0.003803447567
0.2482761383
-0.004039868423
-0.2581075354
0.004320477984
0.2582370928
-0.004287979051
-0.2425369908
0.004011669194
0.2425857396
-0.003942240437
-0.2107927446
0.004099622449
0.2112018337
-0.00450509617
-0.1024053328
0.003193299775
0.102583803
-0.001673386957
-0.001698383065
0.005100083903
-0.1499308006
0.1491196155
-0.004288898793
0.003285362965
-0.2672548293
0.2658501107
-0.001901791176
-0.2233096508
3.276187855e-05
0.2230509565
9.10946909e-05
-0.2083871953
0.0002910791561
0.2084901615
-0.0005575286019
0.001375444316
-0.2217308772
0.2218824047
-0.001615116261
-0.4764941074
0.004164096966
0.4759728047
-0.003642794254
-0.4689426763
0.003476594168
0.4692325023
-0.003766420206
-0.005648566889
0.9249616066
0.004168916568
0.003478955854
-0.003713814088
0.919783037
-0.001880291576
0.916784675
0.9152227174
-0.00213265133
0.9198411836
-0.004246857656
0.91933144
-0.006484974929
0.9183478373
-0.00418173659
0.9167145388
-0.0047020591
-0.4561025628
0.4566550521
-0.004734225795
-0.4541948499
0.005409193914
0.454806835
-0.006021179044
-0.4556889789
0.006730056396
0.4575633951
-0.004187791452
-0.00438498636
-0.2494591965
0.005044999831
0.2499020157
-0.005389307021
-0.2588155102
0.006030216889
0.2590618704
-0.006127199592
-0.2428968198
0.006261722372
0.2430435024
-0.006303516171
-0.2124505981
0.00661852887
0.2128830332
-0.00704975371
-0.1035971764
0.004212939756
0.1037021409
-0.002145764466
-0.002172139868
0.01460973518
-0.1415587734
0.1403326912
-0.01338365296
0.01469816049
-0.2579103505
0.2541242385
-0.01094588191
-0.2197529691
0.002632194795
0.2204315168
-0.003441985922
-0.2084277949
0.002645889761
0.2083962974
-0.002765671444
0.003741721466
-0.2235492101
0.2238738068
-0.004139327256
-0.4750448148
0.00870185252
0.473760563
-0.007417600745
-0.4693496441
0.006285934772
0.4683268591
-0.005263149753
-0.008391114193
0.9216945338
0.006073736778
0.005584450211
-0.005446702539
0.9168386253
-0.002678310492
0.9140162829
0.9125444069
-0.002533795649
0.9223749793
-0.005074573878
0.9218722182
-0.007721708351
0.9209949718
-0.005026788873
0.9193688437
-0.005349224357
-0.4573533636
0.4580403766
-0.005713801914
-0.4556136806
0.006505665466
0.4564583396
-0.007350324437
-0.4595490615
0.008263158106
0.4611392347
-0.005178313515
-0.00463373594
-0.2513724726
0.00627910235
0.2519303968
-0.006743517222
-0.2599357955
0.007690358233
0.2602666641
-0.007885338661
-0.2435762554
0.008227046028
0.2437608088
-0.008320155325
-0.2143426568
0.008722965811
0.2149150236
-0.009295246483
-0.1043755578
0.005408482735
0.1044804218
-0.002737719829
-0.002775626924
0.0181368813
-0.1319470295
0.1307262966
-0.01691614837
0.01930660834
-0.2427744962
0.2387393571
-0.01532274049
-0.2159814588
0.009811166678
0.2115321124
-0.005489742946
-0.2077833214
0.001915672996
0.2073640208
-0.001635422828
0.005541474853
-0.2255835472
0.2261496961
-0.006160895249
-0.4721814641
0.01239132913
0.4703342515
-0.01054411649
-0.4672125973
0.00894613278
0.4658440577
-0.007577593183
-0.01081257704
0.9189774761
0.007043954998
0.006485679794
-0.00694856623
0.9129746145
-0.003372345464
0.9104400622
0.9091720614
-0.006577344549
0.9289523238
-0.01331643525
0.9286113089
-0.02012637781
0.9278049143
-0.005967190169
0.9265578113
-0.0213481553
-0.4588829604
0.4597439088
-0.006828138641
-0.4573308724
0.007761362716
0.4583807139
-0.008811204286
-0.4645242318
0.009832026603
0.4675656294
-0.006586428737
-0.006230774548
-0.2532651293
0.008876794392
0.2544281372
-0.009955807199
-0.2613086235
0.009627465083
0.2612525253
-0.009450745127
-0.2443158906
0.008658807636
0.2456140286
-0.009876700403
-0.216985548
0.01048716933
0.2177811036
-0.005599658495
-0.00568306644
-0.0528124128
0.003401271258
0.05285519813
-0.003444056591
-0.05805908486
0.006603077218
0.05757515475
-0.01287373511
0.006754587998
0.01682655715
-0.1234254289
0.243465018
-0.02997196736
0.01647879954
-0.1233729785
-0.2283173464
0.01729385959
0.223061904
-0.01210719026
-0.2062191763
0.007402489719
0.2052342111
-0.006545497866
-0.2073599164
0.006365039342
0.2076273682
-0.006745567968
0.008263758132
-0.2290992003
0.2295081356
-0.008698619831
-0.4681549369
0.01475175296
0.4659769416
-0.01257375767
-0.4644200403
0.0108957688
0.4628826568
-0.009358385314
-0.012682903
0.9150570507
0.008532832437
0.008070495903
-0.008151996754
0.9084437082
-0.004005572393
0.9062936378
0.905166489
-0.003017460861
0.9319697846
-0.006113797736
0.9317076457
-0.009372247363
0.9310633639
-0.006365589079
0.9300738333
-0.006522680289
-0.4626142162
0.4635202127
-0.007271585524
-0.4612292479
0.00828196319
0.4623089227
-0.009361638023
-0.4708644019
0.01052779866
0.4701378862
-0.005083269433
-0.004649305973
-0.2565856691
0.004672099857
0.2564937868
-0.00449034283
-0.2627353839
0.004325645846
0.2630356282
-0.00450854069
-0.2450281539
0.006188041144
0.2461377823
-0.007227221848
-0.2208897213
0.01186968716
0.2218690109
-0.00641133606
-0.006437640676
-0.05444703601
0.008353717775
0.109284114
-0.05437722252
-0.00438513481
-0.00442843848
-0.1118795549
0.009200133481
0.111813394
-0.01809197602
0.008958003484
0.02978462437
-0.2366172038
0.2336122966
-0.02678239799
-0.2139236839
0.01180313961
0.2119865891
-0.009944834086
-0.2042627952
0.007405317341
0.2009422938
-0.00420097649
-0.2089685319
0.003497151092
0.2121531174
-0.006769326845
0.009493473966
-0.2324141839
0.2325135762
-0.009596840929
-0.4640537303
0.01557072356
0.4623408886
-0.01385788191
-0.4613329383
0.01221028668
0.4595536286
-0.01043097708
-0.01221503434
0.9102891359
0.008429500041
0.008553448981
-0.008899551503
0.9051282253
-0.004351100325
0.9017451866
0.9008153887
-0.003175655054
0.9351454397
-0.006430571579
0.9349625623
-0.009846171388
0.9344789637
-0.0066934797
0.9337322044
-0.006811062825
-0.4645161223
0.4654943401
-0.007671697483
-0.4634122475
0.008729341962
0.4645309731
-0.009848067623
-0.4679295626
0.01104948741
0.4655217334
-0.004206435786
-0.004404998516
-0.2543396266
0.001322821588
0.2529988824
9.508479243e-05
-0.2630563847
-0.003403656796
0.2626432016
0.003930641669
-0.2506906806
-0.002855158602
0.252201971
0.001428210807
-0.228407888
0.006509352787
0.2322744282
-0.01035759133
-0.1122803691
0.01646673346
0.2233434824
-0.01591818947
-0.1116116573
-0.2262698792
0.02199649243
0.2268692363
-0.02259584957
-0.2233997007
0.01656799247
0.2202082666
-0.013403948
-0.2048494931
0.006887819801
0.2036671433
-0.005792113509
-0.1985908915
0.005318274638
0.1990623556
-0.005894939586
-0.2145870262
0.008793895791
0.2135852652
-0.00785000432
0.01161552668
-0.232448629
0.2300972646
-0.009264162249
-0.460839176
0.01710975171
0.4576930238
-0.01396359955
-0.4577689856
0.0124759714
0.4557466692
-0.01045365508
-0.01259785847
0.9056419827
0.008696313095
0.008548698617
-0.008959667156
0.901490034
-0.004561534962
0.8973470544
0.8962538537
-0.003258814207
0.9384042539
-0.006591143577
0.9382948916
-0.01007091014
0.9379587303
-0.00685536978
0.9374369316
-0.006920267584
-0.4664956056
0.4674956817
-0.007855445912
-0.465649758
0.008917646721
0.4667626372
-0.010030526
-0.4646966079
0.01121559173
0.4659125609
-0.006188501411
-0.006242857386
-0.2472271482
0.001693824216
0.244787665
0.0007931702669
-0.2595851834
-0.007640719287
0.2579031632
0.009418300316
-0.2550976414
-0.01218288998
0.2552687419
0.01210326967
-0.2410874662
-0.008961872031
0.2429148163
0.007186864103
-0.225528005
-0.001735754061
0.2268248385
0.0004546916147
-0.2239040795
0.001099821308
0.2231659139
-0.0003708379962
-0.2135531612
-0.003246498554
0.2124438533
0.00430972192
-0.2023430253
-0.005384593328
0.2027781407
0.004866978455
-0.2025998999
-0.00085273828
0.2044878643
-0.001116765072
-0.2185461632
0.007791984612
0.2207014479
-0.009976665326
0.01089639803
-0.2281784469
0.2275942422
-0.01031219336
-0.4569698956
0.01726755023
0.4543139422
-0.01461159682
-0.4529147654
0.01124380442
0.4513665085
-0.009695547495
-0.01173702762
0.8995798755
0.009150762965
0.008648371856
-0.006520262577
0.8962732689
-0.004606645185
0.895433437
0.8916472085
-0.00327286532
0.9416771192
-0.006610234082
0.9416322604
-0.01007373368
0.9414222298
-0.006866730644
0.9410923402
-0.006862411582
-0.4684779235
0.4694619595
-0.007850766606
-0.4678561709
0.008883692068
0.4689272993
-0.009954820451
-0.4671483302
0.0110827898
0.4683414619
-0.006157274814
-0.006118646609
-0.2364403581
0.006746097471
0.2341264908
-0.004425527247
-0.2509524795
-0.004804032419
0.2481154595
0.007699787435
-0.2530624657
-0.01476446984
0.2514900671
0.01641181226
-0.2451994469
-0.01907891567
0.2450248793
0.01931094447
-0.230408232
-0.0188931092
0.2313128876
0.01801324894
-0.2226821118
-0.01721057528
0.2229384941
0.01694357585
-0.2123007285
-0.01531824896
0.213178755
0.01439593776
-0.2067453693
-0.009828613023
0.2088455555
0.007666476094
-0.2119464495
0.0003457797351
0.2148772197
-0.003320948879
-0.2266585887
0.01166276132
0.2263555559
-0.01136004652
0.009956058654
-0.2260471036
0.2255833106
-0.009492265693
-0.4506810627
0.01616507968
0.4490292595
-0.0145132765
-0.4498437459
0.01293145528
0.4483098864
-0.01139759582
-0.01085185908
0.8926814401
0.009752114474
0.007998179975
-0.00609053288
0.8915119427
-0.00422526318
0.8935681672
0.8874219453
-0.003228821272
0.9449059404
-0.006511151103
0.9449145902
-0.009894169753
0.9448052485
-0.006746742622
0.9446275538
-0.006682640809
-0.4704124926
0.4713544677
-0.007688717655
-0.4699659853
0.008668964845
0.4709719579
-0.009674937371
-0.4694859893
0.01072104059
0.4705771381
-0.005939591241
-0.005872598162
-0.2345199055
0.006513841033
0.2348145663
-0.006808501839
-0.2388434358
0.006062120093
0.2357442621
-0.002952236689
-0.2449762946
-0.005899578976
0.2424410429
0.008472700318
-0.2424432299
-0.01448314971
0.241100815
0.01586322685
-0.2328540907
-0.01820038135
0.2329727456
0.01810010187
-0.2243929067
-0.01683231158
0.2250340358
0.0161836316
-0.2177782006
-0.01186081377
0.2197393915
0.00987211722
-0.2166606038
-0.002414519059
0.2195209944
-0.0004738585655
-0.2241273876
0.009638406218
0.2258044612
-0.01131858672
-0.2251483856
0.01037432881
0.2248021717
-0.01002811488
0.008953713248
-0.224363216
0.2239943253
-0.0085848225
-0.4475109322
0.0148323669
0.4461192683
-0.01344070297
-0.4468998023
0.0120730731
0.4455453072
-0.01071857796
-0.0136303727
0.8877678989
0.009142981285
0.009400932586
-0.008957879966
0.88683945
-0.001614350821
0.8862246381
0.8858075945
-0.003137906517
0.9480438469
-0.006317291266
0.9480939749
-0.009570238193
0.9480581954
-0.006520736257
0.9479907212
-0.006412669307
-0.472257113
0.4731435728
-0.007407196108
-0.4719378876
0.008321341835
0.4728659162
-0.009249370444
-0.4716125483
0.01020223227
0.4725916769
-0.005633148156
-0.00554821272
-0.2356394995
0.006140351309
0.2358956726
-0.006396524455
-0.2353166545
0.007168920345
0.235573827
-0.007426092838
-0.2349111643
0.008189958624
0.2348959103
-0.00817435564
-0.2364952516
0.003408629415
0.2349605993
-0.001865806441
-0.2324121675
-0.001075929055
0.2319708095
0.001523070936
-0.2272879755
-0.0002560536913
0.2281495259
-0.0006077834757
-0.2259306412
0.0050265906
0.2278808376
-0.006981475242
-0.2266340718
0.01064752416
0.2265081004
-0.01052155274
-0.2250774603
0.01001112301
0.2248686236
-0.009802286306
-0.2238981687
0.00908518771
0.2236351957
-0.008822214734
0.007985116728
-0.2230266195
0.2227292207
-0.007687717877
-0.4448439706
0.01343958566
0.4436754481
-0.01227106309
-0.4443098596
0.01109803697
0.4431263009
-0.009914478295
-0.01273378543
0.883310597
0.00844885372
0.008742233671
-0.00841248944
0.882518154
-0.004179305592
0.8819914542
0.8816282889
-0.003011830073
0.951055677
-0.006053261591
0.9511354064
-0.009142555561
0.9511474894
-0.006220233876
0.9511509622
-0.006082562642
-0.4739879123
0.4748114174
-0.007043738893
-0.4737509579
0.007885669499
0.4745966995
-0.008731411084
-0.4735159251
0.009589387104
0.4743865049
-0.005274803121
-0.005185163876
-0.2366087305
0.005718652486
0.2368294135
-0.00593933547
-0.2362753036
0.006591416935
0.2364876958
-0.006803809157
-0.235560332
0.00741936165
0.2357566752
-0.007615704813
-0.2344653472
0.008169193346
0.234634668
-0.008338514165
-0.2308246167
0.008706120212
0.2306308288
-0.00851233234
-0.2294549967
0.009231412019
0.2295573077
-0.009333722999
-0.2285264904
0.009361504296
0.2285056281
-0.009340641941
-0.2261788435
0.009160294234
0.2260820562
-0.009063507012
-0.2243234397
0.008675232977
0.2241642624
-0.008516055654
-0.2229392092
0.007963553698
0.2227338018
-0.007758146288
0.007093066032
-0.2219531847
0.221712143
-0.006852024261
-0.4426022785
0.01209098106
0.4416153673
-0.01110406983
-0.4420509135
0.01009831844
0.4410199172
-0.009067322155
-0.01175088017
0.8793041093
0.007728408621
0.008028959237
-0.007799277707
0.8785665515
-0.003884978664
0.8780771552
0.8777433102
-0.002862058999
0.953917736
-0.005742937163
0.9540162846
-0.008648822141
0.9540533744
-0.005873027429
0.9540934679
-0.005718300458
-0.4755925498
0.4763512392
-0.006631716866
-0.475399654
0.007400831379
0.4761645933
-0.008165770657
-0.4752042889
0.008932735008
0.4759720197
-0.004890328928
-0.00481013694
-0.2374428837
0.005282296434
0.2376327719
-0.005472184675
-0.2370678545
0.00602319277
0.2372439577
-0.006199296033
-0.2362822747
0.006699769209
0.2364388263
-0.006856320854
-0.2350811402
0.007290570858
0.2352120032
-0.00742143386
-0.2301191661
0.007635131055
0.2299702138
-0.007486178728
-0.229793185
0.008088296983
0.2298516823
-0.008146794309
-0.2284370955
0.008135882871
0.2284127446
-0.008111531943
-0.2258208448
0.007954680468
0.2257418159
-0.00787565155
-0.2237398928
0.007565112192
0.2236134227
-0.007438642089
-0.2221827434
0.006998266096
0.2220178444
-0.006833367067
0.006293538456
-0.2210812496
0.2208829488
-0.006095237618
-0.4407063121
0.01083393635
0.4398679881
-0.009995612388
-0.4400845431
0.009130252379
0.4391858348
-0.008231544088
-0.0107508184
0.8757199313
0.007020748834
0.00731424755
-0.007163210631
0.8749789438
-0.003576232829
0.8744901774
0.8741670774
-0.002698130182
0.9566158662
-0.005405787315
0.9567239417
-0.008119216191
0.9567668033
-0.00549914102
0.9568141126
-0.005340719878
-0.4770681362
0.4777643928
-0.006195397686
-0.4768889965
0.006894682424
0.4775780756
-0.007583761573
-0.4766924391
0.008267764685
0.4773685237
-0.004506317976
-0.004437531385
-0.2381607618
0.004852523248
0.2383243801
-0.00501614154
-0.2377266607
0.005483681014
0.2378737224
-0.00563074277
-0.2368612061
0.006042186259
0.236988028
-0.006169008133
-0.2355591602
0.006516752528
0.2356613688
-0.006618961173
-0.2295787134
0.006736288316
0.2294646283
-0.006622203218
-0.2299821739
0.007130288185
0.2300133563
-0.007161470529
-0.2283363122
0.007126841647
0.2283099207
-0.007100450202
-0.225523788
0.006959303846
0.2254565576
-0.006892073495
-0.2232702109
0.006633949727
0.223166224
-0.006529962875
-0.221569808
0.006168521032
0.2214341064
-0.006032819404
0.005585615711
-0.220360731
0.2201949199
-0.005419804554
-0.4390930912
0.009687510824
0.4383756132
-0.008970032822
-0.4383704765
0.008221504049
0.437584976
-0.007436003543
-0.009777346733
0.8725209508
0.006350681472
0.006625645804
-0.006535522035
0.871737119
-0.003269139209
0.8712237945
0.8708979382
-0.002528890799
0.959144757
-0.00505962805
0.959254679
-0.007581058047
0.9592882332
-0.005121378693
0.9593197549
-0.004965321658
-0.4784190586
0.4790559121
-0.005758232179
-0.4782300641
0.006392590281
0.4788500935
-0.00701261966
-0.4780033137
0.007622736643
0.4785996603
-0.004138983328
-0.004080099896
-0.2387801238
0.004445251194
0.2389217164
-0.004586843844
-0.2382786893
0.004986243747
0.2384026616
-0.005110216065
-0.2373331802
0.005452900359
0.2374377487
-0.005557468784
-0.2359334346
0.00584132938
0.2360137822
-0.005921676989
-0.2291644122
0.005978955185
0.2290770443
-0.005891587288
-0.230078767
0.00632453441
0.2300927692
-0.006338536602
-0.2282286484
0.006287820613
0.2282009995
-0.006260171683
-0.2252681861
0.006130390947
0.2252093071
-0.006071511946
-0.22287988
0.005850518067
0.222791947
-0.005762585096
-0.221061217
0.005458393795
0.220947063
-0.005344239781
0.004966729984
-0.2197553885
0.2196145647
-0.004825906179
-0.4377093967
0.008662617791
0.4370897595
-0.008042980579
-0.4368714099
0.007391149876
0.4361818129
-0.006701552849
-0.008861273769
0.8696658553
0.005732216864
0.005984152421
-0.0059386226
0.8688144679
-0.00297536128
0.8682605332
0.8679225769
-0.002360784957
0.9615055419
-0.004717280076
0.9616111741
-0.007053153159
0.9616241063
-0.00475239966
0.9616225992
-0.004603597749
-0.4796524968
0.4802342455
-0.005334148371
-0.4794368056
0.00590947863
0.4799951465
-0.006467819432
-0.4791603766
0.007013012391
0.4796878322
-0.003796402018
-0.003744066024
-0.2393170623
0.004067933302
0.2394403164
-0.00419118736
-0.2387457483
0.004535116788
0.2388513583
-0.004640726789
-0.2377248715
0.00493017676
0.2378126739
-0.005017979138
-0.2362283181
0.005253521444
0.2362919105
-0.005317113823
-0.2288483431
0.005336756326
0.2287823134
-0.005270726642
-0.2301165741
0.005642390626
0.2301194081
-0.005645224643
-0.2281168361
0.005583529693
0.2280884789
-0.005555172519
-0.2250425185
0.005434157169
0.2249898609
-0.005381499618
-0.2225470217
0.005187984684
0.222470983
-0.005111945911
-0.2206304027
0.004850553498
0.2205325545
-0.00475270526
0.004428726905
-0.2192389943
0.2191177223
-0.00430745494
-0.4365117603
0.007755714816
0.4359717467
-0.007215701156
-0.4355542172
0.006644090635
0.4349457328
-0.006035606149
-0.008018483066
0.8671138093
0.005171987609
0.005398541476
-0.00538490785
0.8661808927
-0.00270153494
0.8655771603
0.865221042
-0.002198914088
0.963704456
-0.004388782311
0.9638010423
-0.006549905762
0.9637852298
-0.00440174504
0.9637383973
-0.004263958876
-0.4807777853
0.4813093742
-0.004933333987
-0.480524
0.005455857166
0.4810279846
-0.005959841727
-0.4801851608
0.006448855505
0.4806547003
-0.003482915319
-0.003435479665
-0.2397853007
0.003722704428
0.2398932101
-0.003830613784
-0.2391451065
0.00412920311
0.2392360492
-0.004220145823
-0.2380557458
0.004468118955
0.2381307081
-0.004543081237
-0.236462271
0.004741205559
0.2365129687
-0.004791903323
-0.2286113992
0.004787955781
0.2285627332
-0.004739289754
-0.2301158359
0.005059992226
0.2301112277
-0.005055383973
-0.2280028818
0.004986402034
0.2279742371
-0.004957757276
-0.2248395399
0.004843919477
0.224791732
-0.004796111663
-0.2222573067
0.004623751008
0.2221903933
-0.004556837542
-0.2202590081
0.004328409894
0.2201738156
-0.004243217356
0.003961256883
-0.2187924898
0.2186867955
-0.003855562522
-0.4354657689
0.006960042392
0.4349909717
-0.006485245193
-0.4343906637
0.005980373536
0.4338507326
-0.005440442389
-0.007257213347
0.8648262047
0.004672368894
0.004872449004
-0.004881496512
0.8638051758