/*--------------------------------*- C++ -*----------------------------------*\
| =========                 |                                                 |
| \\      /  F ield         | OpenFOAM: The Open Source CFD Toolbox           |
|  \\    /   O peration     | Version:  v1912                                 |
|   \\  /    A nd           | Website:  www.openfoam.com                      |
|    \\/     M anipulation  |                                                 |
\*---------------------------------------------------------------------------*/
FoamFile
{
    version     2.0;
    format      ascii;
    class       volScalarField;
    location    "2.54";
    object      k;
}
// * * * * * * * * * * * * * * * * * * * * * * * * * * * * * * * * * * * * * //

dimensions      [0 2 -2 0 0 0 0];


internalField   nonuniform List<scalar> 
12556
(
36.9086924
36.90873589
36.90879224
36.90883811
36.95437551
36.95462129
36.95506577
36.95623889
36.95870529
36.96342836
36.97122215
36.98144502
36.99051555
36.99419168
36.99227364
36.98441002
36.97470831
36.9662936
36.96085993
36.95731177
36.91097499
36.90949366
36.90880491
36.9084235
36.72743429
36.7276201
36.7277772
36.72801419
36.77345159
36.77476615
36.77768848
36.80476922
36.81642809
36.83858861
36.87510754
36.92386055
36.9717242
36.99505111
36.98546886
36.94806789
36.90133478
36.86018918
36.81054638
36.79067165
36.73588499
36.73113199
36.72876607
36.72767057
36.54733345
36.54777411
36.5482088
36.54874037
36.5946539
36.59819647
36.60550482
36.64025345
36.66954975
36.72379047
36.81635944
36.9257837
37.00087799
37.0341467
37.01866321
36.95783756
36.86420127
36.77135038
36.68086894
36.63692975
36.56860282
36.5579822
36.55286724
36.55079977
36.36862409
36.36902096
36.36961434
36.37094632
36.41760184
36.42536573
36.44128311
36.49191784
36.55433481
36.6830824
36.8611489
37.0294949
37.13150358
37.15810655
37.11861911
37.02839199
36.89630824
36.74902407
36.59181194
36.50662233
36.41208929
36.39205697
36.38213413
36.37821877
36.19192608
36.19238462
36.19343833
36.19619839
36.24468251
36.2586367
36.28875474
36.36427195
36.49959182
36.74027272
37.02529167
37.28271491
37.44904806
37.4490152
37.34467813
37.18783556
37.00101541
36.790594
36.56786885
36.40955592
36.27131059
36.23336226
36.21555967
36.20860057
36.01698327
36.01752755
36.01926233
36.02413681
36.07656143
36.10074437
36.15494442
36.27143698
36.51905071
36.8893578
37.3598837
37.85080996
38.16048491
38.09124809
37.78997591
37.48862837
37.19987896
36.90331939
36.59038257
36.35321932
36.14706577
36.0809419
36.05156739
36.03991822
35.84459029
35.84555167
35.84870374
35.85691684
35.91390102
35.95220214
36.04006545
36.22060594
36.58655147
37.14072719
37.93145389
39.11493595
39.90136368
39.69772726
38.61502651
37.98592687
37.51415462
37.08903015
36.65466466
36.34087565
36.03877526
35.93469027
35.88881307
35.87064646
35.67526404
35.67681579
35.68181022
35.69418661
35.75883913
35.81542965
35.946562
36.2009156
36.68371821
37.45131741
38.70469198
41.28426811
42.39077568
39.98359879
38.69966906
37.9502785
37.34750292
36.75926683
36.35263797
35.94749291
35.79521802
35.72754801
35.70103287
35.51062374
35.51329959
35.52125505
35.5397248
35.61360672
35.69213736
35.87361986
36.20282863
36.79997388
37.76991149
39.40175372
43.18038131
46.80332424
41.69952512
39.57329068
38.46844939
37.65755924
36.89144186
36.3794495
35.87125933
35.66456587
35.57063469
35.53418218
35.35141285
35.35532305
35.36651681
35.39254931
35.47813147
35.58224579
35.81768907
36.21495396
36.9193659
38.05326836
39.90791362
44.0415114
49.9615116
43.28175219
40.47360285
39.02895108
37.99029956
37.03640813
36.41514848
35.81046226
35.54618605
35.42321539
35.37541922
35.19932285
35.20509156
35.22083132
35.25746882
35.35148627
35.48503048
35.77503522
36.23648985
37.04322508
38.31262635
40.33030908
44.09777186
51.54611049
44.48973294
41.30877143
39.57185171
38.31475888
37.17685823
36.45561193
35.76148228
35.44310343
35.29043291
35.2305345
35.05419562
35.06165678
35.08171248
35.12862677
35.23363414
35.39863511
35.74167624
36.26615222
37.16896263
38.56240538
40.74140548
43.71720679
52.22709376
45.3391311
42.00569051
40.04493614
38.59465837
37.29959811
36.49478801
35.72502138
35.35572914
35.17531723
35.10321022
34.91699609
34.92676879
34.9531349
35.01201348
35.12441979
35.32044098
35.71515549
36.30097796
37.29609555
38.81235502
41.19051314
43.16527078
47.45071694
52.0292502
45.91487981
42.53044825
40.43196552
38.81296926
37.39508107
36.52566725
35.69410042
35.28275516
35.07711913
34.99392741
34.78637518
34.79841958
34.83076258
34.89984111
35.02868557
35.26432255
35.71006361
36.35370974
37.4508169
39.11452644
41.70620675
41.8168996
56.01963053
51.99299592
46.25113406
42.94248929
40.69623628
38.95112676
37.46200034
36.54453548
35.66117564
35.21945868
34.99221171
34.8994228
34.66197172
34.67625034
34.71430611
34.79331056
34.93451987
35.2002258
35.68258948
36.35827829
37.50042222
39.2633344
42.03512653
37.7468076
55.58963263
51.53219637
46.40806201
43.16197864
40.85008802
39.01634212
37.49428596
36.54799617
35.62393379
35.15981055
34.9151358
34.81483486
34.54141363
34.55789346
34.60127529
34.69009093
34.84403692
35.1359597
35.65145119
36.34090206
37.49361759
39.27150854
41.97341994
33.67348684
53.53259497
50.93216162
46.46098859
43.28217708
40.87477938
39.01604631
37.48957446
36.52999241
35.57412173
35.09589805
34.83988349
34.7338017
34.42445642
34.44299054
34.49097038
34.58867544
34.75459642
35.06890917
35.61359968
36.31681195
37.44387995
39.17110163
41.56631392
34.34835628
50.85926613
50.39935794
46.32755955
43.1891783
40.78423746
38.96840414
37.45195872
36.48160317
35.51183674
35.02682491
34.76203411
34.65164331
34.308038
34.32848622
34.3805733
34.48669817
34.66422887
34.99729757
35.56560733
36.29229216
37.40165355
39.03183053
41.10281571
35.82812469
47.44131265
49.73391007
45.98033353
42.89321746
40.57945977
38.85087103
37.36294427
36.4002105
35.43013336
34.94409407
34.67699401
34.56377374
34.19314133
34.21527557
34.27070435
34.38389622
34.57146175
34.92014299
35.50700904
36.25156424
37.38070477
38.96341011
40.70541966
35.47501786
44.69802543
48.75829262
45.39178679
42.49262769
40.32980684
38.68406295
37.23998084
36.29392487
35.33295141
34.85046534
34.58334892
34.4691155
34.07622695
34.09988736
34.15836357
34.27832091
34.47552982
34.83722192
35.43846701
36.19583442
37.33911891
38.90564321
40.31220332
32.29804987
43.70059386
47.68340321
44.77228184
42.09969435
40.06290973
38.49011722
37.09336354
36.16807939
35.22119011
34.74489199
34.47946896
34.3650471
33.96026438
33.98520765
34.04607109
34.17129526
34.37612515
34.74880747
35.36115734
36.12784491
37.27983492
38.8087677
39.8475127
29.08370569
42.84131643
46.70727572
44.20044416
41.72410919
39.79260633
38.28277913
36.93077845
36.02749425
35.09845418
34.63057242
34.36805274
34.25403977
33.84056079
33.86668673
33.9299822
34.06075542
34.27346681
34.65553219
35.27651493
36.05021423
37.20670921
38.67889375
39.31241988
26.32599309
41.97140965
45.81440658
43.6668698
41.36828719
39.52589725
38.06998111
36.75809457
35.87627435
34.96548965
34.50634428
34.24711081
34.13384354
33.72281326
33.74990708
33.81507772
33.94979046
34.16793039
34.55826338
35.18610349
35.96532359
37.12252059
38.51989481
38.72782819
23.98485232
41.11458995
44.99099019
43.1651815
41.0306688
39.26618888
37.85633154
36.57960577
35.71777108
34.82683814
34.3774148
34.12182452
34.00950182
33.59980352
33.62786822
33.69530687
33.8351052
34.06017575
34.45791736
35.09141012
35.87521171
37.02911461
38.33243399
38.11227243
22.01954761
40.28204338
44.22605898
42.6911704
40.70845279
39.01464001
37.64452223
36.39834949
35.55467761
34.68133148
34.24046822
33.98820629
33.87686046
33.4811624
33.51001121
33.57913236
33.72202658
33.95067745
34.35534934
34.99374626
35.78144742
36.92732736
38.11773575
37.47705727
20.46416948
39.49138317
43.5127004
42.24169212
40.39941159
38.77117842
37.43605413
36.21640281
35.38895601
34.53469324
34.10323299
33.85441007
33.74405428
33.35503274
33.38477942
33.45628876
33.60447118
33.84014149
34.25128748
34.8942013
35.68516093
36.81707438
37.87713425
36.82978368
19.34566039
38.74815229
42.84589067
41.81397471
40.10190751
38.53520334
37.23160099
36.03509748
35.22210341
34.38242952
33.95815991
33.71215784
33.60269472
33.23727238
33.26772957
33.34088533
33.4915144
33.72884867
34.14634202
34.79363683
35.58707239
36.69784689
37.61530183
36.17489456
18.57740193
38.05286602
42.22041162
41.40549841
39.81467458
38.30604013
37.03137761
35.85528121
35.05506974
34.23331978
33.81778484
33.57478374
33.46616887
33.10807316
33.13946091
33.2152682
33.37185606
33.61749676
34.04101256
34.69267064
35.48747196
36.56932211
37.33864439
35.51442416
18.0369564
37.40509155
41.63280028
41.01406641
39.53662292
38.08302434
36.83531818
35.67742715
34.88866126
34.07721901
33.66709021
33.42633566
33.31844172
32.99352227
33.02561701
33.10310236
33.26144948
33.50605231
33.93571263
34.59173283
35.38636801
36.43162212
37.05080717
34.8499898
17.59478598
36.79656722
41.07886567
40.6379579
39.26685198
37.86558349
36.64325613
35.50180173
34.72318663
33.92976065
33.52792836
33.28975383
33.18252644
32.86053614
32.89366805
32.9741225
33.13941469
33.39533276
33.83080008
34.49111702
35.28361397
36.28530889
36.75251322
34.18699466
17.28872885
36.22209706
40.55405952
40.27572678
39.00455734
37.65319246
36.45495867
35.32853243
34.55919333
33.77021435
33.37188461
33.13550573
33.02884263
32.75222481
32.78609238
32.86830133
33.03460232
33.28489793
33.72656523
34.39101957
35.17903571
36.13108674
36.44536377
33.53059455
17.11699634
35.67801528
40.05502851
39.92611869
38.74904384
37.44539701
36.27019732
35.15769221
34.39658065
33.62863349
33.23845929
33.0042547
32.8980911
32.61347179
32.64853981
32.73402609
32.90828916
33.1759437
33.62329287
34.29158206
35.07245193
35.96968798
36.13064807
32.87815935
17.03493616
35.15934836
39.57868346
39.58816985
38.49977973
37.24183869
36.08877951
34.98933335
34.23599901
33.46316617
33.0748109
32.84218026
32.73647279
32.51560508
32.55143566
32.63880317
32.81365404
33.06744073
33.5212342
34.19283003
34.96367891
35.80149032
35.80859098
32.22595888
17.01743822
34.66465306
39.12386831
39.261178
38.25635562
37.04220887
35.91047119
34.82355469
34.07698374
33.333843
32.95316565
32.7222003
32.61685662
32.36733897
32.4045757
32.49550124
32.67839655
32.9616055
33.42085303
34.09489775
34.85253868
35.62701722
35.47995562
31.5738711
17.07329524
34.19676507
38.68958134
38.9446612
38.01849761
36.84630289
35.73517703
34.66077331
33.92097937
33.15523542
32.776317
32.54701405
32.44206955
32.28531215
32.32335171
32.41626958
32.60137199
32.85694935
33.3229885
33.99849647
34.73891321
35.44676108
35.14626592
30.92473308
17.20715666
33.75866104
38.27542406
38.63825697
37.78598266
36.65395529
35.56276224
34.50238827
33.76801696
33.05003276
32.67524327
32.44692898
32.34221498
32.09762048
32.1376585
32.23541905
32.42980957
32.75908598
33.22978236
33.90648978
34.62315044
35.26179079
34.81150942
30.28357519
17.40313739
33.35326685
37.88435838
38.34360082
37.55944196
36.46543758
35.39330075
34.35284161
33.62409045
32.81987569
32.44810924
32.22174245
32.11747268
43.02784872
47.29134862
42.74938894
43.97883608
50.80530156
47.7353425
44.12740121
52.48869511
51.10304521
43.77984581
53.16883682
52.60245322
43.20392804
43.0737728
46.48038323
53.46060564
53.20874716
42.27963514
53.07940325
43.47302946
55.66743465
53.93059708
53.4843834
40.95222605
39.83988225
42.29733297
39.63282598
50.52099339
44.22564595
46.30349549
42.08527133
40.49841163
39.79360524
43.09101819
42.31959213
55.18907663
56.31107084
49.66743979
44.0538115
42.61854284
40.2289637
43.53577691
43.17860478
44.15370774
45.79912062
46.70008972
54.44737693
53.90124393
51.41745875
45.49245258
44.47497885
40.649573
43.50564067
43.54850972
43.9822376
42.43699615
44.28028371
55.68493563
54.99145814
41.08584676
43.28813943
43.48971823
43.495705
37.92830413
40.23978458
39.65529732
56.3794736
56.16328064
41.60783228
42.79833118
43.24658857
42.85184722
32.2960435
34.7941212
40.76706685
54.42664588
53.42170285
47.05800934
48.74236246
43.33787677
46.68411259
56.18431222
50.83827556
45.29815607
49.94858157
54.86599641
46.81111516
47.48790343
43.67692944
48.09582693
46.89095141
48.82026713
48.2343278
53.96497684
55.02361726
49.45396563
55.85372995
55.22991781
55.08309348
55.9187674
49.21528768
44.45711512
45.6469533
44.16292952
45.33870356
43.640147
46.81308413
45.4433976
54.8623425
54.52703768
52.02383052
55.73591009
55.94529661
55.20002726
55.68804791
51.8365599
40.36781355
42.32147834
43.93683448
41.42511187
39.03666862
43.5254191
41.55641592
56.12736695
55.75849727
34.94313441
37.76106746
43.46304485
40.29977613
35.93285922
32.96969092
38.89868293
36.13165242
40.97687303
56.6443364
56.40644252
39.59071958
39.76429451
32.2341009
42.80598443
49.95609277
31.88585165
73.78768693
32.88600692
31.89261463
49.27609856
39.24867719
42.17930781
40.65918626
42.19210362
45.76010248
42.95133652
60.24556067
46.6067808
43.57276557
47.56596393
47.63500659
45.80855593
52.18694131
46.42000416
45.77924853
52.0479973
49.95496483
48.56960262
52.54462696
56.93152973
56.72837155
47.48117461
46.05050589
42.44050476
53.91571469
45.18025529
51.93260921
43.85342667
49.05032007
44.69654495
48.17106783
44.52283634
52.96588701
56.09371057
56.21365221
55.96197857
56.0805469
52.89628344
39.90545509
46.27436937
45.76224441
41.40662705
40.98755043
42.91466085
43.74561856
41.47245158
41.46435854
64.32051912
47.69184165
59.9244774
45.81906518
56.81507478
46.88953022
56.33219685
56.41987251
54.11076007
54.07556675
41.08292891
43.88902957
55.43113425
41.43325692
43.15577438
45.24385483
41.51359441
55.34688947
39.18480603
43.06476629
42.72840567
52.56792609
50.71363983
47.5178709
33.84639307
40.93860493
40.447458
41.55930713
41.11356693
33.99859179
57.80607252
54.33751199
47.90622732
54.59491234
55.52710288
50.61353621
54.28874268
48.13687488
44.87588823
49.75093894
44.61848964
54.82837478
50.46206703
45.39942751
52.57601575
57.62702768
54.15002515
53.76596825
47.52798426
43.87121684
47.45122621
48.69040303
47.06288677
50.1056972
44.24311304
46.66156558
48.59509937
54.58217261
54.67900331
55.54362402
53.278019
52.6680194
53.89286218
53.44941596
55.49568386
56.04368076
51.32601662
50.3115391
52.43567277
51.62757178
56.08932148
44.56826869
44.45857512
46.21899243
46.13258731
55.00141428
45.77765074
54.94388517
40.48295534
40.32005218
42.60346153
42.46988077
43.65246518
47.45405361
55.94188778
43.84653955
41.1225967
36.67310123
42.11705093
41.70497536
42.61122245
42.2457669
36.81631274
39.62104676
35.07285371
34.94635129
37.93097192
37.79309914
53.2471237
41.07671067
54.34009422
53.07974606
40.25875244
39.79887509
31.89480221
33.09304274
41.49143842
41.33404539
32.4697898
66.19435801
41.61788431
58.30279478
32.38952226
46.73029873
44.03304805
40.55743905
58.86520129
39.90256758
40.25306864
41.97356596
42.35120296
42.71018794
41.31243627
33.50234438
41.05941674
56.09065176
53.34518547
53.86022928
52.63715603
40.50818677
43.07599058
55.47120118
54.67539114
41.83952335
57.0373828
56.98003425
53.03567419
43.01297473
42.51118782
44.79335415
45.82582347
42.7766597
43.04999987
55.7518125
58.32779662
57.37499842
56.52428169
54.23735233
45.61995293
46.04992184
48.37211717
47.63555101
53.81847374
43.26324723
44.53065964
44.28964402
44.83066035
44.60797147
43.39726902
43.47890417
43.17057123
39.31918987
32.66047324
37.60565443
37.18616332
66.32289614
49.89241237
53.80709575
55.49749482
59.31080927
58.56750487
52.33908186
48.26525993
46.86385291
49.93553505
48.7072683
52.69419898
54.19582692
49.54981813
48.70222285
54.76673717
44.99185058
45.09283048
44.90037996
40.19592507
40.68654296
43.99788927
46.301584
46.64386561
54.70577503
55.84679901
54.73466952
54.62820809
55.25499638
54.3139235
54.01201681
54.58400769
54.3908653
55.27146746
41.35972535
43.85771715
43.57672079
44.20639497
43.94755674
41.49076374
41.03138817
35.88579946
36.1978639
33.5494403
33.76416918
39.50662696
43.14152419
39.41293406
40.05811116
36.32286997
36.67341554
41.94841086
55.98810001
47.99923581
51.51493878
56.98299516
39.5876346
35.52433559
33.77449376
38.48726006
33.24282906
33.47751661
32.7344423
37.05668411
48.18718241
38.83370628
38.52226434
37.73750645
37.05010394
36.64965678
32.11056325
40.60955722
41.89101118
51.78792876
31.88401214
84.15531582
43.11101365
41.6361814
46.42380021
32.71009342
31.97103075
54.33631976
53.26029514
53.31504675
46.02109078
46.03300672
40.47149443
39.93021351
52.30202682
52.05912436
51.96196894
47.72015659
56.53646209
47.86153295
56.99439434
48.54835244
42.7718368
40.60058749
46.24274497
45.3919731
48.96686337
46.12278972
40.79291838
40.9130234
47.62463921
57.2502906
40.80828096
45.35723279
63.24732609
39.64392079
40.22945685
39.79095812
39.63944435
56.10006873
64.92065777
54.16881234
50.7552294
57.81570445
54.92737714
50.09872174
47.24657785
52.04604566
55.6002575
55.01033048
55.96832978
56.52577664
57.06137507
55.99645553
46.42963792
45.77738601
54.17755382
46.6574456
47.06980223
45.24851493
46.4016256
47.22247182
53.86552305
47.51311105
46.67105477
41.27635874
41.55006249
41.65112542
51.29649436
50.49835061
42.88168576
48.82769763
47.49904703
50.17993801
49.24963334
42.38669957
41.42136283
42.39095416
40.96633562
38.19569425
37.73173255
32.98088085
34.33304037
38.71268625
38.32716871
56.55066029
56.03746434
55.60009717
50.69232743
51.24042505
49.70390687
50.47053147
55.88687233
52.85212462
51.41724285
51.24067219
51.35385649
51.4357904
53.11225636
53.26529576
48.5351893
49.44585844
56.08598824
56.5102088
58.94690568
58.573933
55.17340467
60.04886228
60.74942903
60.99211981
59.67171658
58.67048135
60.94528147
59.55890334
52.52036518
57.79733428
58.98833046
42.55381458
47.63682029
46.8145225
48.40953459
47.85914081
43.09747859
45.66652807
45.09467578
46.52741322
45.86310515
48.28373457
50.50847246
50.00511137
51.11738909
50.6697524
48.72033713
45.21409174
49.13355941
48.59455784
49.83343988
49.31064624
45.56649369
50.68043579
49.74424433
54.28809124
54.78105937
52.06475713
51.02961854
39.75379942
39.27552227
40.5830007
39.92146576
38.51278803
38.04432333
39.12455917
38.6520924
44.17650887
43.63373864
44.90968418
44.36261701
42.55017428
41.00950282
43.43538196
42.89066047
45.24055473
44.48440715
47.10875257
45.72575954
46.31346307
44.16624394
44.93338706
44.25455182
43.96799865
35.45275983
35.7624881
40.89896394
33.96867609
33.74993351
34.27098257
34.05811301
33.64212509
39.70688918
33.84894147
35.18439894
37.45703745
39.13954963
43.0115972
37.12461605
35.21412373
37.94831035
37.23338066
34.64325056
34.37021498
35.07341523
34.75098114
42.07837289
36.79852554
37.21772986
48.958994
42.32284621
48.20104599
44.88118378
47.97480939
41.87567538
59.06215759
39.49051692
57.04067161
50.8553271
35.40783036
34.33222109
32.96266893
33.17303657
38.35003014
37.29296228
32.76245088
32.90633328
53.00397839
32.04936954
36.46141764
35.78166134
66.61434964
73.64292887
31.81256152
77.74970693
57.86857304
41.07595705
32.6425949
65.98837838
44.00778563
75.69657912
45.71168258
32.08416111
41.98154715
40.00860259
38.82134684
51.23436775
50.87361118
52.64489108
46.99351151
46.61011867
51.16427567
41.42431854
40.23927342
39.56831923
56.221605
56.1364709
53.34174668
44.76235125
44.28612321
46.84194411
51.55419826
44.72584179
44.82246
40.94901376
41.28639891
43.52502585
49.21188722
52.49794166
55.10598281
46.21594944
45.45744436
45.34903531
45.55027721
45.48615435
46.34354856
44.76712109
43.01446441
40.49756607
52.10635723
53.5025305
56.28996221
39.20312065
38.83454928
34.45101909
55.85347143
57.5259553
52.13743676
45.30480236
45.15059915
45.16166359
45.01037259
42.16554207
42.77509188
43.07007414
43.97439832
45.75631352
35.75214899
39.70793193
39.32426748
45.41373165
43.54818861
39.91438877
32.27420367
32.30509183
33.09718306
42.29585379
54.12454926
49.08817643
39.76749632
47.38001334
45.30410049
31.87510684
32.8251689
32.23641987
32.25805682
31.90599159
60.68791063
45.73065152
41.22458981
42.32129363
51.45291848
40.32745487
41.09602089
50.18145815
53.22342072
46.37869119
44.88178093
46.70500995
46.77069216
40.41445399
40.2323576
60.38240722
62.53988889
64.08776643
54.45094011
61.28773541
42.52127565
42.77039315
45.27009442
61.79446111
57.62799506
55.33438898
64.76300213
62.27731522
41.06170156
42.50794319
41.85581879
46.89731042
46.28757544
42.5466998
52.2809057
51.57485487
41.87385804
45.36968743
42.19657587
42.38469968
44.26778757
40.02900942
40.4297368
57.53116713
58.26270431
54.94564318
54.95140345
53.91021929
53.75363236
51.14567976
52.06636587
51.71258115
53.58795171
53.38401863
53.88551901
47.15416586
48.24116892
52.76330054
53.99386456
59.00200335
55.6147329
59.25719105
59.5913962
57.06229455
41.01836417
43.06519997
42.56093117
46.52910987
46.30670994
43.64518202
40.55644446
40.32763298
42.14611589
41.81531535
47.46409219
49.50732756
49.1991659
51.38276619
51.06620082
49.62678314
44.52402071
47.10754324
46.84555383
48.88841698
48.58571484
46.2895458
41.4989195
41.99492785
44.90389726
44.11079887
40.84404456
41.33684431
44.8691524
45.34870273
46.48256667
38.97595328
38.83496454
40.12474138
39.94244015
36.824964
38.62005939
38.5024582
45.85039798
44.19799029
44.70258883
45.93244996
45.85081186
42.70057707
43.02017724
45.70758508
45.93571722
46.33724816
54.76258314
46.81925678
48.13979012
40.18724453
39.83102413
36.07605468
37.21233306
40.61500465
40.29405356
33.25108563
33.31817123
35.18515232
34.8072026
33.08560118
33.17758134
53.40862161
32.00738818
32.77658908
32.17326111
107.6467893
32.29983605
41.14135604
53.31558742
48.19667643
32.01848756
32.04984407
32.51378362
64.98968482
70.14162794
67.9348896
52.13938455
32.35416286
31.97595559
31.99899433
41.15263478
40.92292547
39.97215412
51.14067142
50.59622484
43.39995542
42.34127526
40.07657091
53.93268617
53.06052832
57.77014081
41.06626042
49.63431099
46.03285483
49.8708202
49.08767288
41.87332198
43.90060265
44.53013121
48.23553043
53.78066983
54.10875988
53.27493708
53.53439041
58.05308403
57.29003249
57.51730374
56.81206653
57.04889924
57.68869497
48.10249459
48.45741992
48.67679594
48.11627243
48.24701117
47.97613843
59.0182864
58.00711967
57.99539466
57.73350052
57.91139489
58.79644872
49.14642452
49.41101736
49.65845197
48.91753193
49.15567918
48.90749246
52.61985081
52.79740346
51.97942463
52.16169901
35.97055647
38.14952115
38.02514952
33.63445079
34.98128041
34.88561817
35.28223424
35.09536411
33.7020163
54.55452844
55.72018585
49.84148722
55.32181951
32.67261125
32.63503024
32.76670454
32.725104
32.45284961
33.33313391
32.34878094
32.47151886
33.32554663
34.64179986
34.55335331
34.80503952
34.72216622
33.39796358
32.88498336
32.81943616
33.48883964
33.0385968
32.86930973
55.10305403
53.44883688
44.32677015
55.61138807
34.05771736
33.30270139
39.39190203
32.13994533
33.58683082
33.44200174
31.85149039
82.15763823
83.63901217
61.74471191
73.25466699
63.08498375
32.16970225
32.20670958
32.77072151
31.9347149
57.94411895
63.03755233
58.28741735
59.73258563
56.23326419
49.16230748
61.88359839
56.91098006
46.2689826
46.45314237
52.36654177
43.78429677
46.85207604
52.88835064
50.30944687
53.655318
49.28556502
52.17468681
58.38275578
59.863832
53.03530366
57.25729816
60.7584978
48.73967979
49.83268225
48.24103882
52.02931374
59.96559899
60.08377486
58.15261642
41.80088707
53.14180755
47.78396215
58.78893483
59.72401765
43.48858651
45.80886141
48.95361788
62.12411294
51.11894071
42.23794898
43.54572178
61.24023415
58.07113693
61.5134623
56.70998489
59.17952969
61.52797131
62.6884346
62.04130135
55.12439781
55.26369443
55.50155232
54.69358776
54.83327288
54.86381581
56.68944076
56.31483333
56.55937831
55.79575851
56.03977741
56.34024723
46.20671969
48.91341699
48.90474614
46.77353578
47.01459358
45.64543346
46.7308653
46.49782433
46.24259336
47.59519806
47.94538797
47.07681118
48.28508768
48.0932818
48.83643753
48.62111762
46.85566617
46.26333848
44.06758159
41.10963035
47.47725464
47.32965536
47.13806114
41.97687298
46.44573533
46.05534912
42.23134142
42.15365692
43.86557102
57.08913191
55.444585
52.78761761
52.43622505
51.65612476
53.59780345
53.21040344
52.96324496
60.17719945
59.84182923
55.22934424
60.31915846
62.36776423
56.90710565
60.01656835
60.16322825
58.83823006
57.65971636
57.53676497
57.83270575
57.81616842
58.71830677
60.3961757
60.52795762
59.44379515
62.14939483
62.10958287
61.95284882
62.10455669
59.25855388
61.05623466
61.6768949
63.30952039
61.05851899
45.22217466
45.07132943
42.49020479
43.24899694
45.94622677
45.78793505
41.02690728
40.78327483
41.53619651
41.27372906
50.12687047
49.81486777
47.8588613
49.16930155
50.75349198
50.44016293
47.69292908
47.41399677
44.90124338
45.90401602
48.280483
47.99010986
50.43269272
50.44495158
50.70996151
49.9181145
50.18029082
50.05124879
51.67602208
51.41735369
51.59609805
50.97453854
51.2157477
51.40819453
39.58883964
36.93126211
37.07656769
36.6676311
36.80445683
39.4335494
40.30965434
37.55269702
37.76851956
37.21817937
37.37952331
40.10386415
38.34451894
35.89497873
36.03528861
35.66809969
35.80630777
38.22223924
38.96535639
36.4037794
36.54379059
36.14003986
36.28471249
38.81717009
39.34810267
39.18610299
43.99734799
42.02974038
42.21125563
41.65331095
41.81858748
43.80759626
39.73299826
39.55513903
37.88477227
37.74302595
42.29136777
40.36611117
40.43135422
38.08629656
38.54184348
41.62371311
43.27238616
41.28962369
41.42634469
40.91962423
41.01893643
43.04606915
38.27437245
38.17906072
45.34833575
45.49613892
45.87479631
43.4619842
44.18294501
44.38769322
46.15867967
46.20101585
46.34993118
46.37911992
44.67314179
44.04988625
44.75486563
44.22038258
45.84494749
45.68669771
43.92762715
35.53160549
37.59776323
37.46736374
37.88186537
37.76444719
35.68950858
33.9113268
33.8113276
34.20303841
34.11162391
33.62005948
33.61786904
34.02396425
36.29991119
35.64153368
37.20249665
36.94173026
34.89538535
35.69764939
34.82895903
35.12556696
35.40226963
37.73234369
35.44548943
35.59271963
35.21233203
35.37671823
37.65202543
34.55440249
34.45007087
34.9620337
34.84821127
47.56145077
41.26000404
41.864392
40.6240538
40.86324924
47.92136104
47.09900317
46.86183051
42.63718952
44.4928854
48.30726427
55.96826528
43.94529433
45.93897853
40.99807297
42.34766139
56.77940805
32.51531692
32.46568328
32.5945906
32.56074534
32.72168851
32.97719345
34.61140144
32.29558103
32.2438943
32.41389528
32.35022473
33.03200688
34.29403671
34.20161577
34.46955153
34.37765526
33.09552401
32.80768641
33.91901
33.78710623
34.116678
34.02269848
32.8547864
52.44255953
33.36574884
33.07767199
31.99099047
64.72713404
90.60499189
96.06850829
89.70674759
90.89615857
69.81212514
32.03773109
68.31951559
50.24401096
53.71419071
32.58036366
32.07328186
32.12561058
66.16748718
73.06189564
71.29092694
57.7213772
64.1545854
77.89774598
73.37429422
48.62912783
69.3134118
60.91144047
32.27265123
31.89925262
32.14620293
36.68016598
36.6965872
36.81254632
36.70385059
36.73514696
36.83148545
36.74799641
36.80050447
36.86407502
36.82052707
36.89456841
36.91045496
36.9161214
36.9744791
36.96003591
36.98682574
37.0141142
36.9905188
37.01796459
37.0128324
36.9926879
37.00578835
36.96703118
36.95970059
36.95043565
36.88715819
36.91347189
36.86548465
36.80474792
36.8699405
36.52720691
36.56264838
36.66046804
36.57900972
36.64951178
36.70763895
36.68273789
36.79912463
36.78911362
36.84020737
36.95961333
36.90082425
36.99225531
37.06922505
36.98688339
37.08699529
37.11589256
37.03070688
37.11518231
37.09718226
37.02661588
37.08453727
37.02804759
36.97657876
37.00383762
36.91561611
36.88880478
36.88228971
36.77998138
36.79080783
36.39427696
36.46890803
36.53437269
36.50621939
36.65883772
36.64292982
36.71745967
36.90627807
36.81526707
36.9705799
37.1475483
36.99238535
37.19714351
37.32666292
37.11284008
37.34783223
37.3606008
37.15975935
37.34602376
37.2972853
37.13369237
37.27135673
37.17560678
37.05496728
37.13797216
37.0121788
36.93306441
36.96679439
36.82348759
36.78428289
36.29060509
36.43949809
36.45411334
36.508089
36.74959029
36.67465266
36.84209487
37.15030877
36.95271002
37.256797
37.57503922
37.2246692
37.66588
37.89276695
37.41893978
37.93231259
37.92880554
37.45087624
37.85144776
37.70886149
37.37675693
37.64950906
37.46120138
37.23168995
37.39689879
37.20451823
37.05034423
37.13893995
36.9401743
36.84484874
36.22937255
36.46810478
36.44248168
36.56679531
36.92756902
36.78614921
37.06940062
37.57137664
37.23561641
37.76390335
38.43915272
37.72691822
38.68398369
39.54578134
38.10575236
39.56751097
39.34693436
38.10095042
39.01674671
38.52217278
37.86657821
38.36197192
37.95719195
37.56188499
37.83887123
37.52425354
37.27125655
37.42363359
37.1339962
36.9799168
36.20514363
36.52794178
36.48067098
36.66113384
37.16611557
36.98089546
37.3749543
38.16618837
37.70662551
38.50589271
40.37965804
38.74416035
39.73223512
40.36209348
39.39695284
40.97464022
41.04502513
39.90267489
40.46995601
39.80474659
39.36078914
39.59127822
38.72201173
38.11987495
38.50700318
37.97607203
37.62537015
37.82361027
37.40986326
37.19366147
36.20129317
36.60137547
36.54198339
36.77057426
37.41941592
37.22507208
37.69334899
38.76854966
38.32461629
38.89915152
39.40637315
39.16551896
41.60700597
42.26036193
41.85271179
44.05599348
42.76924464
41.53890405
41.26519864
39.7152812
38.94504975
39.36970589
38.55964596
38.11662014
38.33859024
37.7544605
37.4886848
36.21108097
36.68635728
36.62212971
36.88896334
37.66100623
37.48190325
37.98515867
39.2418646
38.8991687
39.54227723
40.18639831
40.02196949
43.32121626
44.36850519
44.21291089
48.20073686
45.67904546
44.61912275
42.91415008
40.76401318
39.95987339
40.2912043
39.19076397
38.70382648
38.89632127
38.13420418
37.84541684
36.23027808
36.77864314
36.7088938
37.01153432
37.88667255
37.71876923
38.24895495
39.62731463
39.34334583
40.01795343
40.73047094
40.60493957
44.09254182
45.10231116
45.12498693
50.71021152
47.76796433
47.10498459
44.21362493
41.70436849
40.98817719
41.13559692
39.81007573
39.33444295
39.44643714
38.51214737
38.22779433
36.25714939
36.87560234
36.80307793
37.13634312
38.10374134
37.94201144
38.49940931
39.99124373
39.71730282
40.43721037
41.21418838
41.09062787
44.06350909
44.52691477
44.68402533
51.88916794
48.94707433