/*--------------------------------*- C++ -*----------------------------------*\
| =========                 |                                                 |
| \\      /  F ield         | OpenFOAM: The Open Source CFD Toolbox           |
|  \\    /   O peration     | Version:  v1912                                 |
|   \\  /    A nd           | Website:  www.openfoam.com                      |
|    \\/     M anipulation  |                                                 |
\*---------------------------------------------------------------------------*/
FoamFile
{
    version     2.0;
    format      ascii;
    class       volScalarField;
    location    "2.45";
    object      nut;
}
// * * * * * * * * * * * * * * * * * * * * * * * * * * * * * * * * * * * * * //

dimensions      [0 2 -1 0 0 0 0];


internalField   nonuniform List<scalar> 
12556
(
1.155886338
1.155855608
1.155825145
1.155802589
1.156028156
1.156025684
1.156041153
1.156080816
1.156156131
1.156284618
1.156448747
1.156667555
1.088475349
1.107205885
1.156577206
1.156412127
1.156258613
1.156156806
1.156079246
1.156051637
1.155828459
1.155838464
1.155860649
1.15588642
1.155135434
1.155048326
1.154962897
1.15490005
1.155118569
1.155145604
1.155245798
1.15551729
1.155881244
1.156493216
1.157359915
1.093423909
1.000996109
1.003701793
1.095895704
1.157310827
1.156512346
1.155925995
1.155465307
1.155265269
1.154958068
1.154994301
1.155064918
1.155145554
1.154348185
1.154199063
1.154063814
1.153993023
1.154232921
1.154339676
1.154590727
1.155142455
1.156054588
1.157567058
0.9810703591
0.839986174
0.7812470111
0.7923503833
0.8730259359
1.028368854
1.157423063
1.156088707
1.155082788
1.154605326
1.15417525
1.154165486
1.154259556
1.154389695
1.153544624
1.153347531
1.153180384
1.153112788
1.153396348
1.153658564
1.154279257
1.155295633
1.157234537
0.8951981477
0.6918506555
0.5783204719
0.5309467136
0.5462791422
0.6198353586
0.7524586575
0.9647089975
1.157063628
1.155147133
1.154184304
1.153424627
1.15337314
1.153469728
1.153640614
1.152714307
1.152465855
1.152283138
1.152274395
1.1526541
1.153173462
1.154360828
1.156217883
0.9242008166
0.6476723404
0.4698210615
0.3612972374
0.3167330635
0.3363668596
0.4103835329
0.5322931941
0.7165450864
0.9998212408
1.155885253
1.154099191
1.15287122
1.152621609
1.152677766
1.152869478
1.151886509
1.151607252
1.151434329
1.151488729
1.152044998
1.1529609
1.155035048
1.092512241
0.7300530537
0.4866236182
0.3164836109
0.2032111686
0.1582752562
0.1849766362
0.2613244839
0.3766065063
0.5426661962
0.7891674738
1.157411799
1.154423943
1.152461757
1.151921049
1.151893302
1.152086715
1.151041851
1.150742201
1.150603954
1.150805726
1.151631783
1.153078312
1.156315213
0.9383457837
0.6150326446
0.3917554285
0.2255959428
0.1028628463
0.05804919996
0.09155003537
0.1695979009
0.2776577775
0.4290403779
0.6440185505
0.9969184069
1.155234053
1.152206177
1.151275846
1.151104175
1.151270663
1.150252725
1.149948331
1.149876484
1.150310624
1.151341877
1.153570129
1.157997541
0.8487881622
0.5649838489
0.3629304763
0.2081194489
0.08556310113
0.0522934371
0.1281243258
0.2255759178
0.3630898419
0.559301783
0.8819687844
1.156418568
1.152153336
1.150717311
1.150336053
1.150453701
1.149508872
1.149214245
1.149243782
1.149943693
1.151268261
1.154421695
1.106489061
0.8063878749
0.5637757915
0.3913194074
0.2701352532
0.1942336888
0.06360356433
0.1250460071
0.2101500013
0.3344606858
0.513916789
0.8134880228
1.157866638
1.152304261
1.150274934
1.149636226
1.149679718
1.148893955
1.148625023
1.148778519
1.149783727
1.151500229
1.155595256
1.069616426
0.8022110879
0.5899393775
0.4467908279
0.3645615723
0.3698016351
0.08923947858
0.1420338939
0.2193396587
0.3365316974
0.5062529577
0.7802998959
1.126095676
1.15268721
1.150017678
1.149078756
1.149030279
1.148394322
1.148166353
1.148483301
1.149862285
1.15200058
1.157012321
1.05325133
0.8139847899
0.6268522678
0.5033756292
0.4451759278
0.5118622029
0.1217503597
0.171974032
0.2470539573
0.3578567064
0.5160099004
0.7768603349
1.088370253
1.153278587
1.149968635
1.148722186
1.148572278
1.14807866
1.147899355
1.148376764
1.150123426
1.152723006
1.158645897
1.052613816
0.8381181735
0.6662752645
0.5483263167
0.4833021103
0.4589700624
0.1593079425
0.2143247934
0.2922060491
0.4031031179
0.5539698557
0.799771619
1.081682135
1.154101819
1.150164708
1.148616895
1.148361844
1.14788341
1.147767222
1.148473185
1.150650125
1.153594742
1.160245373
1.062971179
0.8785627926
0.7116171709
0.5889760743
0.4951632879
0.4122408231
0.05570800082
0.2080451242
0.2778920109
0.3624683705
0.4712803068
0.6209852265
0.845418397
1.097580875
1.155026669
1.150575524
1.148752746
1.14840504
1.147874364
1.147823283
1.14873416
1.151270635
1.154804179
1.162033656
1.118517937
0.928472981
0.7758476221
0.6468790439
0.5326822236
0.2781620577
0.1111085141
0.3101440426
0.390560774
0.4701466655
0.5714697096
0.7084205762
0.9094313097
1.134873981
1.156015107
1.151161135
1.14910164
1.14868986
1.147931452
1.147938899
1.149046036
1.151951051
1.155921337
1.163596698
1.168359021
1.013096965
0.8722328227
0.7519792941
0.6370358912
0.0901872777
0.1567816145
0.4203907119
0.5951809564
0.6340188331
0.709010943
0.8305401882
1.00927775
1.166197559
1.156983557
1.15183689
1.149604154
1.149127788
1.148121901
1.148186186
1.149466133
1.152693418
1.157026389
1.164958492
1.16922405
1.149376232
1.02131554
0.9328896347
0.7772223269
0.04496629549
0.1814756413
0.4551915637
0.7483774646
0.8649784535
0.8940368112
0.9875542012
1.149928312
1.167327753
1.157873697
1.152535522
1.150193899
1.149694933
1.148291944
1.148397297
1.149825564
1.153368089
1.158048619
1.16601046
1.16963129
1.158747215
1.117247305
1.003844835
0.5842684138
0.02739314127
0.2365874208
0.5114714705
0.7937520491
0.9966859625
1.103195197
1.150797255
1.169477949
1.168194763
1.158623728
1.153189097
1.15078492
1.150254567
1.148537293
1.148679181
1.150225405
1.154012232
1.158934883
1.166810177
1.169502261
1.156714962
1.103112393
0.924000448
0.2776163367
0.03688200276
0.3016355699
0.5761027446
0.8341587489
1.010160482
1.107212452
1.153037014
1.170444612
1.168738298
1.159205364
1.153764612
1.151363433
1.150830407
1.148693213
1.148856134
1.150492962
1.154505571
1.159647787
1.167288364
1.168927424
1.153886288
1.09165678
0.8379645094
0.1417722815
0.07161459049
0.3516648421
0.6185937943
0.8525684098
1.015831034
1.109980824
1.154409252
1.170939041
1.16899713
1.159587238
1.15419365
1.151824794
1.151295338
1.148898744
1.149084913
1.150788041
1.154942755
1.160172744
1.167468476
1.167888288
1.150348399
1.078252221
0.7640937981
0.1143477726
0.09655579059
0.3695250868
0.628372861
0.8605094418
1.020202915
1.111898032
1.155164114
1.171066131
1.169017486
1.159852118
1.154562973
1.152239963
1.151711427
1.148975007
1.149177285
1.150930089
1.155211285
1.160518761
1.167375911
1.166431327
1.146141534
1.062255144
0.6860801453
0.09611427524
0.1167462475
0.3812642153
0.6360063057
0.8664134601
1.023606443
1.113211853
1.155487444
1.170917315
1.168854784
1.159951114
1.154778895
1.152506855
1.15198094
1.149104669
1.149334207
1.151128658
1.15546022
1.160704155
1.167044808
1.164648897
1.14129584
1.042799403
0.6187572623
0.08321246685
0.1352814718
0.3916999578
0.6428058622
0.8705124763
1.026109882
1.114063378
1.155508862
1.170569197
1.16856147
1.159995885
1.154969117
1.152745749
1.152216821
1.149083808
1.149338872
1.151171144
1.155557886
1.160758656
1.16650888
1.162558463
1.135749945
1.017819915
0.5645421516
0.07397731572
0.1515944667
0.4011200545
0.6489213009
0.8733406007
1.027725651
1.114515619
1.155307654
1.170082783
1.168180286
1.15991337
1.155014797
1.152833944
1.152301709
1.149138103
1.149432081
1.151303496
1.1556822
1.160702071
1.165797741
1.160169128
1.129272037
0.9867589962
0.5204117545
0.0674763836
0.1658301779
0.4096888267
0.6544112932
0.875383124
1.028565387
1.11460138
1.154927534
1.169502204
1.167742361
1.15983135
1.15507625
1.152928776
1.15238498
1.1490289
1.149358473
1.151266527
1.155654611
1.160551942
1.164920385
1.157402204
1.121454548
0.9523983877
0.4834864665
0.06332433507
0.1779905704
0.4175594214
0.6593351014
0.8769222665
1.028814744
1.114366359
1.154399852
1.168858811
1.167269197
1.159636926
1.154992936
1.152868728
1.152311691
1.149022958
1.149399955
1.151347692
1.155685403
1.160310937
1.163882179
1.15428384
1.111891988
0.9178405585
0.4520153192
0.06095073916
0.1884164828
0.4248057013
0.6637580935
0.8781038064
1.028649085
1.11387428
1.15375593
1.16817554
1.166774067
1.159483122
1.154965058
1.152854845
1.152276446
1.148844043
1.149260981
1.151240837
1.155547861
1.159990118
1.162680344
1.150672307
1.100444708
0.884656985
0.4250057124
0.05957580461
0.1975792702
0.4314949987
0.6677373497
0.8790083251
1.028201056
1.113191197
1.153025964
1.167468379
1.166264549
1.159211151
1.154783532
1.152680495
1.152081164
1.148791285
1.149259719
1.151277968
1.155501039
1.159589321
1.161318345
1.146505714
1.087320455
0.8534762061
0.401701722
0.05890560043
0.2058967407
0.4376735226
0.6713100752
0.8796922312
1.027569267
1.112373059
1.152231655
1.166743631
1.165742436
1.159011503
1.154693654
1.152591929
1.151965582
1.148564078
1.149072356
1.151115544
1.15527249
1.15912791
1.159815117
1.141794906
1.072973942
0.8244972738
0.3813926424
0.05882423415
0.2135576485
0.4433756086
0.6745355662
0.8802280648
1.026833089
1.111457089
1.151378638
1.165996091
1.16520412
1.158676048
1.154438821
1.15233767
1.151687717
1.148468094
1.149030572
1.151113134
1.155170619
1.158612761
1.158195065
1.136578024
1.057945456
0.7977352969
0.3636142442
0.05924188713
0.220694197
0.4487351577
0.6775712963
0.8807294294
1.026052267
1.110453593
1.15045348
1.165211149
1.164642825
1.158435051
1.154298938
1.152195652
1.151517805
1.148222235
1.148823158
1.150926896
1.154896006
1.158072979
1.156485559
1.130926868
1.042666708
0.7730786508
0.3480488108
0.05997098934
0.2275228116
0.4539849629
0.680638268
0.8813103959
1.025253302
1.109346031
1.149429406
1.164369997
1.164048491
1.15804632
1.153997786
1.151897255
1.151197896
1.148076777
1.148736431
1.150886688
1.154766549
1.157518409
1.154714585
1.124929696
1.02743659
0.7503960336
0.3344625569
0.0608051904
0.234215576
0.4593351947
0.6838872513
0.8820173075
1.024419795
1.108100162
1.148275843
1.163455417
1.163415613
1.157746954
1.15379783
1.151700034
1.150975544
1.147862591
1.14856006
1.150736009
1.154525504
1.156978188
1.152898972
1.118662352
1.01245288
0.7295784558
0.3225786293
0.06190617304
0.2408431112
0.4648590962
0.6873401305
0.8828142154
1.023502621
1.106678608
1.146969227
1.162457428
1.162735125
1.157338682
1.153494847
1.151405548
1.15066511
1.14765437
1.148418474
1.150653481
1.154372036
1.156455406
1.151041302
1.112173496
0.9977784903
0.7103692449
0.3120043327
0.0633763634
0.2474121649
0.4705407557
0.6909447033
0.883626535
1.022448509
1.105058082
1.145503441
1.161379033
1.162016897
1.156926793
1.15319218
1.151115763
1.150353559
1.147535576
1.148338311
1.150610633
1.1542723
1.155967243
1.149133837
1.105520636
0.9833843314
0.6924764246
0.3024903233
0.06527942722
0.253957308
0.4763780916
0.694647948
0.8843825648
1.021217036
1.103234694
1.143888399
1.160244605
1.161265559
1.156601273
1.152962069
1.150898002
1.150126366
1.147335557
1.148232995
1.150602411
1.154186571
1.155535063
1.14719726
1.098846707
0.969275949
0.675762452
0.293906077
0.06768806514
0.2606374322
0.4823682907
0.6983289099
0.8849653505
1.019751539
1.101207577
1.142141414
1.159135258
1.160558343
1.155992073
1.152516975
1.150481676
1.149689291
0.1725451761
0.05670715581
0.04518597214
0.3517797086
0.08189379821
0.05967047269
0.4966890574
0.1150704382
0.085791511
0.4658791297
0.1460601224
0.1199828776
0.4167147959
0.04167367466
0.05222554488
0.1830250001
0.1500477881
0.3231022598
0.08173329705
0.04281084992
0.1054842933
0.2506549165
0.1862733529
0.08308327724
0.0583432279
0.04666996229
0.08691098495
0.02891171236
0.01946266182
0.06107674663
0.1060251463
0.1084117036
0.3407814509
0.3410433158
0.1995026683
0.03100308838
0.04590060978
0.08581629932
0.1218209377
0.1084474842
0.4282400704
0.475323144
0.3581511588
0.4209431023
0.2060000869
0.2339897244
0.05387250893
0.03849747421
0.1175821906
0.1499193927
0.1278734427
0.4779833628
0.5139103017
0.4893292657
0.4986735503
0.1319371498
0.1724891354
0.09943167053
0.07323337672
0.4893988092
0.4625871951
0.5100674627
0.4474146377
0.07704280723
0.1021537046
0.01784349096
0.137242991
0.1322473126
0.5196331017
0.396652847
0.4547750543
0.3798721975
0.02989854652
0.04938935524
0.2715410077
0.1129269137
0.0836553398
0.0681332288
0.1618227416
0.03248352638
0.06186837197
0.04712112998
0.03014058946
0.0486200136
0.03200209799
0.04776881134
0.2378543499
0.2661720022
0.2888615382
0.2065332141
0.1900596113
0.1859050218
0.2097813003
0.03811751817
0.03083451734
0.07123989403
0.0454722699
0.05145472018
0.04911442265
0.04570418997
0.06973938636
0.1753903663
0.2018934864
0.4403083619
0.1567395634
0.1313356805
0.1881555363
0.1588570665
0.06976227496
0.05518627732
0.1024889229
0.07532884699
0.09642582048
0.0519571727
0.07258520888
0.09809926377
0.1035813324
0.1302422687
0.4908650036
0.1042825727
0.07874925306
0.1298824917
0.1056597972
0.1299124591
0.1035180749
0.05035532698
0.07527428047
0.4456469717
0.01321057618
0.05269926483
0.0315916474
0.07768420951
0.05425707477
0.01216392862
0.1439457133
0.1391171934
0.02024586223
0.004699401342
0.02958969135
0.375028059
0.06634504378
0.0185901086
0.0109386012
0.03124248827
0.01892286611
0.06360324391
0.2491159944
0.1799168181
0.09952924655
0.1074465239
0.06740306911
0.03817323564
0.01783237997
0.008418056117
0.2656660083
0.2698170042
0.1779951699
0.009324946358
0.1522607791
0.1872810397
0.1583851125
0.01101785068
0.05825596675
0.05057690664
0.07932734002
0.1607841757
0.1478223559
0.1605450647
0.07514163841
0.1204735286
0.04157676372
0.01328545552
0.02303978625
0.02230514791
0.03031219013
0.04707130742
0.04901230587
0.03527850684
0.1346326268
0.1256070684
0.1337165128
0.09981020402
0.1234216137
0.1314213964
0.02889752131
0.01250458356
0.05037525406
0.02309594646
0.03935558346
0.0316621595
0.0196511482
0.03029769595
0.02195526588
0.01629854398
0.02307587654
0.02053879182
0.01002260359
0.01673696525
0.02184000566
0.03947757533
0.04012809797
0.0462520012
0.04516991224
0.018062726
0.009997279432
0.08772207687
0.01522039313
0.02767452314
0.009379364685
0.0130347719
0.08387420619
0.0912453301
0.2568009336
0.2438257464
0.07410639679
0.06233339282
0.01078621027
0.04448238212
0.1874473551
0.1747790148
0.2049378819
0.1925765147
0.04483656146
0.05049409078
0.04192889647
0.1004766876
0.06632494215
0.05907694149
0.03996694493
0.06582377363
0.1133791489
0.03947521619
0.02396302977
0.01512977091
0.0539299213
0.02674264039
0.0436406584
0.02563692683
0.06055628317
0.03930538267
0.03853412736
0.2029993213
0.0309514679
0.2022765528
0.2265541918
0.03470100957
0.03892359098
0.03137238629
0.03419709641
0.2224138151
0.03651353893
0.03622966655
0.04893569619
0.06875004377
0.06406690569
0.07518118484
0.07042042674
0.04922093647
0.05454042713
0.05629601027
0.05114181291
0.06241117356
0.05772958108
0.05353358186
0.1442818246
0.14263894
0.1746949308
0.1728689723
0.06593019976
0.009220549173
0.06463137886
0.09479845574
0.09297168211
0.1172015909
0.115567082
0.02945379588
0.04332038189
0.1152181714
0.0328907281
0.01943092862
0.06629618392
0.2222960555
0.2094397411
0.2394507339
0.2265618634
0.0676035971
0.02626056077
0.04823948592
0.04723566555
0.0706092406
0.06975823937
0.007306081596
0.03468305433
0.09054535208
0.07827289131
0.169827042
0.1605207862
0.02369015219
0.01192824893
0.02027337386
0.01407453409
0.02979368655
0.0122638533
0.01357282671
0.01264089984
0.02982840801
0.05390969966
0.01259983938
0.01708866094
0.00352031724
0.0188261291
0.0143198377
0.5985706398
0.3716206264
0.3858883461
0.2503738928
0.00856100592
0.005312225382
0.1512324224
0.3470221654
0.2823628954
0.005872418039
0.01280888996
0.01074975691
0.106802137
0.09497788239
0.03716660271
0.2000633787
0.1673107031
0.08255438424
0.009560665241
0.01622326784
0.0129860046
0.008620735801
0.01273233667
0.008964626458
0.03348807505
0.01426774838
0.01335640073
0.04294435346
0.0501717176
0.01458814768
0.02001300252
0.009619038444
0.009689371204
0.04024925665
0.1463557831
0.323694371
0.3111849517
0.3403282231
0.3278578053
0.1496633816
0.2736552526
0.2608996079
0.09253913297
0.03289038524
0.09517142977
0.08995099574
0.01174612729
0.01666663228
0.09070706743
0.045865077
0.01621320731
0.01438335959
0.0377777299
0.04298739678
0.03869441348
0.04951028957
0.04451436894
0.03929803306
0.03729906619
0.009892695671
0.009664693461
0.03220288587
0.186694388
0.3567657758
0.3444246504
0.05945378216
0.06140947287
0.1361575665
0.02123938906
0.02317893478
0.0588869113
0.08377413805
0.1026916226
0.09495190878
0.0582724815
0.08284851438
0.07711815755
0.09213828151
0.08510184911
0.05941807886
0.1170285431
0.2903938325
0.2778081846
0.3070294044
0.2945770168
0.1188464181
0.1003001936
0.03653060863
0.03725651874
0.02114619391
0.02196923974
0.08313024013
0.1246676033
0.05528041718
0.05904857749
0.03756088737
0.03824069526
0.1097930875
0.1192065639
0.04563588459
0.06210494124
0.00786382764
0.01767375661
0.05038865868
0.03854728868
0.0746140667
0.02052896461
0.02100594591
0.02012651982
0.06342700106
0.01120549061
0.004377495315
0.1231980924
0.1059412345
0.08816718139
0.08393097979
0.02922717207
0.01832222564
0.03045468675
0.07484434062
0.01835098767
0.0117304504
0.0186953671
0.02361320334
0.002835136656
0.03076696281
0.01995778116
0.01213938679
0.006311067237
0.01174385895
0.009353982132
0.009186065956
0.0275726729
0.02114246102
0.007154557667
0.03849044427
0.04017525287
0.01540410097
0.0111660265
0.007238288474
0.01173672618
0.01679917948
0.01062332942
0.0132562639
0.04130012945
0.01027937051
0.01008399402
0.01153850169
0.01270182343
0.0344128329
0.01177126418
0.01169083999
0.01294504683
0.01162800586
0.01224999049
0.0179420471
0.01386154438
0.02562145299
0.01996173508
0.01223597677
0.01603965876
0.02180855891
0.01827560106
0.02908168362
0.02313823235
0.01787619506
0.01604335931
0.01245920737
0.01225070052
0.009542469887
0.03544461789
0.0422449191
0.01310618824
0.01235862275
0.01369246702
0.01417685485
0.04892277403
0.009184500759
0.00925883033
0.01158647719
0.009341603399
0.009283904195
0.04140862389
0.009396538359
0.01344709883
0.01268436985
0.01154381458
0.0200828176
0.05203276094
0.04705359003
0.01068284216
0.03833838615
0.03274799086
0.04524541918
0.04038327763
0.01108973869
0.01149504762
0.03593000194
0.03002789237
0.1035478527
0.09703295589
0.03666350684
0.04698603138
0.1107362447
0.1053262596
0.04532262348
0.04442627904
0.06856625043
0.08128009033
0.09987220842
0.06099573372
0.07618339638
0.06953204213
0.06047706916
0.1414175911
0.1296217763
0.1088742457
0.1450488989
0.06039275378
0.03970574912
0.04481714526
0.05579213444
0.03408131584
0.03823553824
0.02278387977
0.02158021223
0.04439975535
0.01550975466
0.01562719524
0.01225492061
0.02276808278
0.02697120873
0.01627004171
0.02297028505
0.03446403331
0.03133705804
0.02391822042
0.02911892735
0.09545199438
0.08343947283
0.1020188717
0.09796930034
0.03025329444
0.07487622022
0.07261432764
0.08001689719
0.07569952662
0.03624338681
0.1191226265
0.1144424152
0.1267487269
0.1207915367
0.03684124199
0.03250229473
0.1073277859
0.1034175725
0.1129512098
0.1086913274
0.03285342214
0.01027606478
0.01000575043
0.03707145107
0.0335713495
0.01000505432
0.01038551419
0.04298680677
0.04221053659
0.04517090609
0.04325370223
0.04078888436
0.03973833603
0.04195430215
0.04106044503
0.06918485978
0.06719970028
0.07191213952
0.06987771942
0.06168390238
0.04788446712
0.06636974883
0.06425812932
0.02398613382
0.02036689681
0.03113265895
0.02596322019
0.006752416212
0.01300283526
0.01216749311
0.01901627155
0.01336731924
0.03556924429
0.03617502914
0.09894019284
0.02113736707
0.02092880948
0.0217878084
0.02132159088
0.02027706694
0.08547233388
0.0226036982
0.03342400433
0.04038740659
0.0534128587
0.1228553604
0.03696876984
0.02390728696
0.03960055497
0.03665040108
0.02255695227
0.02202248339
0.02347423953
0.02277800834
0.1111951328
0.03847211566
0.03936170898
0.00671437247
0.02724810907
0.009910848565
0.01016151727
0.009872587584
0.02537040261
0.008221735383
0.01989687204
0.01138732349
0.01165645495
0.04974105002
0.04336472269
0.01993510671
0.02042344703
0.07367141118
0.06559883084
0.01905611819
0.0198723244
0.01104231651
0.02813515705
0.08133653966
0.07301764973
0.01318085997
0.01257321712
0.01756510439
0.01212104269
0.01345424929
0.01632998303
0.03065525697
0.008715963988
0.01302358736
0.01198501549
0.01282466976
0.02078665589
0.05371335885
0.1138630908
0.1473855652
0.01060962176
0.01038680499
0.1899017406
0.2414414719
0.1986891437
0.007018019338
0.0362263156
0.01358938048
0.01760007499
0.1379989247
0.1438988964
0.1613819078
0.004828387354
0.00745702486
0.005511124552
0.004893933372
0.005812555245
0.004546097793
0.05736880428
0.03583843627
0.02258762428
0.02575768867
0.02319942392
0.02727198104
0.2182175716
0.3888037437
0.3769555102
0.3887064921
0.3928040909
0.2221750623
0.04370194236
0.03798304735
0.01244652112
0.06604855655
0.07790039317
0.1354435109
0.1179314323
0.1124548656
0.04747184994
0.02863372061
0.03247387664
0.03300501541
0.3729529668
0.3608176149
0.1903388474
0.1511281094
0.06710605614
0.07092326186
0.073995766
0.0847745333
0.1652339771
0.05793117271
0.1261275149
0.1198341893
0.01117136132
0.01113917253
0.01435092959
0.01973551079
0.02002805843
0.03243141843
0.01143124396
0.01133479524
0.01109034329
0.02683294084
0.05265913142
0.04533640189
0.01853989229
0.03103167981
0.01929885706
0.01947098794
0.01894197797
0.01563737751
0.009532354475
0.01147720039
0.01091821408
0.01096889054
0.02311669702
0.02868955618
0.05805884414
0.04039395779
0.037343963
0.03411097723
0.02516261931
0.04330623468
0.01505753312
0.0209274176
0.0119704639
0.008576762128
0.008695871149
0.01219145236
0.01210345369
0.02330696122
0.01476553758
0.01012034352
0.01903739355
0.01981124071
0.01814513773
0.01524826314
0.01879905567
0.01651918582
0.01050174056
0.0110940004
0.006531992134
0.009442088843
0.01055845014
0.05886211456
0.05364068297
0.02183260294
0.009236486483
0.01332670487
0.0121940701
0.0109565189
0.0141421357
0.01260558888
0.04835880073
0.03725089979
0.04276306344
0.0671629733
0.09510466118
0.09364212271
0.04154563277
0.06753443432
0.06381852335
0.09259355583
0.09071975072
0.06437182141
0.03381879911
0.04064722819
0.03599338375
0.027517729
0.02816271712
0.02322106835
0.04729322809
0.04588060819
0.05109617072
0.02339047195
0.0337251921
0.0320815015
0.05220845093
0.05182879824
0.03069619702
0.02840187521
0.0279869823
0.03104223302
0.03033259155
0.0352448334
0.05840669316
0.05777714733
0.06215005219
0.06135903554
0.0381518221
0.03170684259
0.05345671959
0.05293241668
0.05713079568
0.05649539607
0.03373250098
0.06447315274
0.06639678815
0.149368318
0.1377032718
0.06199687961
0.06386295748
0.09170810605
0.09491796227
0.1804365188
0.0263895192
0.02624673261
0.02774822785
0.02752960798
0.02012831841
0.02597671519
0.02587319992
0.1671630422
0.08701142018
0.09051124041
0.009170146052
0.009173788309
0.0117807428
0.01132980902
0.009215404099
0.009062137077
0.007022254996
0.06016369181
0.02411897998
0.02965739077
0.1342735672
0.1282257047
0.06111976161
0.07053992211
0.1415119605
0.1360764074
0.03176155048
0.03182509676
0.0485927119
0.04692015285
0.03136467027
0.03132628927
0.01094255962
0.02243934761
0.0355990785
0.03510141723
0.008621872084
0.01429837117
0.01793235835
0.01356768535
0.01295450054
0.01838164128
0.0186248785
0.03024628008
0.01235941435
0.009027012335
0.0122600348
0.01246616917
0.02827037722
0.01788326842
0.01846650805
0.0136795495
0.03323080936
0.02792824004
0.01077420691
0.01074345749
0.01070288233
0.01098359626
0.01562742438
0.006452542826
0.004164927042
0.007753232083
0.0116587219
0.01035656027
0.01062165549
0.01029480199
0.01047362696
0.01086309213
0.01020381382
0.006755671983
0.00530937124
0.01222025871
0.01257997583
0.01183508522
0.01193027106
0.01385217825
0.02125829652
0.02155649005
0.02083305951
0.02108480929
0.01372273783
0.009540074218
0.01609414851
0.01607539495
0.01661768461
0.01620858412
0.009407348503
0.01537385109
0.02392392889
0.02660668603
0.02184901738
0.02256188637
0.01489935663
0.009860259867
0.016103014
0.01610514927
0.01604346107
0.01608885595
0.009752044181
0.01143729966
0.01164409127
0.01103244807
0.01159225709
0.03669222622
0.05569963766
0.055233801
0.02138746496
0.0354426521
0.0351925466
0.03674865221
0.0358007109
0.02159264808
0.01155558881
0.01114509685
0.01130874776
0.01163273225
0.02001695645
0.01982215046
0.02044986391
0.02022986427
0.01560179669
0.03448856318
0.02061961425
0.02153226058
0.02070662378
0.03470761425
0.03448746118
0.03503772448
0.0348550386
0.02083215453
0.02134269091
0.0207508505
0.03112502157
0.022294335
0.01602263388
0.007665264247
0.01115922945
0.01106908297
0.007573482247
0.0418753038
0.02905015297
0.002997601033
0.02923070389
0.04467558632
0.04432516335
0.01831984372
0.01169509374
0.008586084059
0.003603591912
0.01310762886
0.01333267678
0.01906202736
0.01922706818
0.03095930165
0.01936824165
0.01080496017
0.0109247166
0.01511915855
0.004332614038
0.009158302726
0.007074862047
0.006217718875
0.007196725987
0.009374746942
0.006569157139
0.01074713072
0.01078787107
0.01060270939
0.04014532519
0.03095125461
0.008364228751
0.01045814791
0.01164278063
0.01885314202
0.02120145672
0.01234455086
0.01525033359
0.01508682503
0.01031326397
0.006820415479
0.01028007394
0.01169672659
0.008153864375
0.01165880064
0.01192725325
0.01216550993
0.01207601107
0.01184137297
0.01206550758
0.0119785308
0.01189066055
0.01215489605
0.01216513616
0.01212393585
0.01236589215
0.01267810275
0.01239586169
0.01986236214
0.02084048277
0.01998751144
0.02695874356
0.02455730251
0.01913819487
0.01792791935
0.01924353501
0.01170450987
0.01876006284
0.01989375524
0.01351251801
0.01875830081
0.01257759978
0.01285042873
0.02041419637
0.02064676463
0.01994603146
0.02027208317
0.0126675421
0.01385632725
0.02405430325
0.02363163657
0.009239744513
0.009241087998
0.01025616235
0.007809646225
0.009066566223
0.009137601828
0.009192495469
0.008925402169
0.01098846118
0.01990526193
0.01778644254
0.02297741311
0.02179641192
0.01263667477
0.00947915673
0.01010560381
0.01452597431
0.006544238246
0.009686782482
0.009648457989
0.01123014141
0.009475805116
0.009669007736
0.01748413299
0.01554130291
0.009814653308
0.04656605225
0.04337017439
0.08335413483
0.07457829532
0.04353125887
0.06409633285
0.08981209474
0.08618666348
0.03572081674
0.0328300015
0.03093740303
0.02329403053
0.03026712972
0.0440917996
0.04483323185
0.03900953014
0.02271068521
0.03256570564
0.03305298424
0.02960186698
0.03061531524
0.02138922964
0.01471277938
0.01582402749
0.02429702503
0.01727266795
0.01639399947
0.01844313086
0.01747502037
0.0246584579
0.01672175429
0.01743763209
0.01375925741
0.01792236391
0.04772585409
0.04792151683
0.03056478078
0.0302270442
0.05083111316
0.05082195208
0.02909730358
0.02870111448
0.02987534152
0.02944969431
0.05956583801
0.05896061592
0.03565457903
0.03748029668
0.06075098046
0.0601627412
0.05468008619
0.05412027642
0.03215134313
0.0332473147
0.0558481987
0.0552603652
0.01017263231
0.01617293099
0.01619969146
0.016148549
0.01617743606
0.01012527295
0.01041526774
0.01504205365
0.01307910138
0.01612094044
0.01584483129
0.01041756688
0.04271558394
0.02510526744
0.0253736041
0.02468689778
0.02489042717
0.04246894791
0.04405407719
0.02630632941
0.02678368238
0.0256363756
0.02594465725
0.04357466242
0.04040724491
0.02347771815
0.02371585459
0.02311379301
0.0233423395
0.04017586228
0.04167369836
0.02429754673
0.02448585482
0.02387848024
0.0241113273
0.04140065862
0.02682579357
0.02664372989
0.06853189944
0.04586755183
0.04618861952
0.04516710137
0.04544656718
0.0678053124
0.02726999617
0.02706589205
0.0247453059
0.02599385325
0.05960941725
0.04143302686
0.04112840908
0.02767387095
0.0290703809
0.05319637554
0.06588715062
0.04446522778
0.04466368922
0.04374606125
0.04369563021
0.0646428422
0.02554619184
0.02559280476
0.009131348218
0.009314059315
0.00906188148
0.01084087127
0.009861037906
0.01265667941
0.009181900527
0.009155332989
0.009122606964
0.009150985069
0.01254270135
0.01702116201
0.009962536294
0.01112448091
0.009292202218
0.009102597699
0.0147137612
0.03549477391
0.05315317866
0.05285265372
0.05454555277
0.05418901244
0.03607702219
0.021094158
0.02085707425
0.02166584774
0.02139415641
0.02138094689
0.01678867541
0.02375050956
0.04362392787
0.03903841758
0.050694348
0.04892610037
0.03367799448
0.02595938168
0.0180543342
0.02321327962
0.02467163051
0.03892686239
0.02276539759
0.02305078412
0.02209509397
0.02281979417
0.03899404871
0.02239333808
0.0221684327
0.02321131154
0.02296845426
0.01008643956
0.0113375346
0.01102794726
0.01397157486
0.01225817996
0.01008143847
0.009693761395
0.009869678601
0.01054245558
0.01021997444
0.006610822792
0.01178061347
0.0112718396
0.01142507988
0.01213936515
0.01161111093
0.01172456941
0.01936790365
0.01932219095
0.01961894804
0.01955438772
0.02970591218
0.02969244397
0.04493930116
0.01855813583
0.01958786876
0.01909072446
0.01915563055
0.02015103307
0.03391220533
0.03355572291
0.03433201745
0.03405424526
0.02022859426
0.01960026331
0.03287577833
0.03104887244
0.03343550327
0.03285657043
0.01958761764
0.01118949954
0.04272186741
0.04216136167
0.02793667694
0.01333043324
0.01095150885
0.01074584178
0.008187147287
0.01123468032
0.01272763427
0.01813543255
0.01271821253
0.01353841286
0.01328071123
0.03036600449
0.01873803731
0.01894190216
0.0120678035
0.01218560146
0.01221210483
0.01283183899
0.01272257073
0.008765924694
0.008945637801
0.01278845529
0.01229071062
0.01264386413
0.01519174856
0.018739723
0.0283055891
1.155195143
1.155714942
1.155773179
1.155937836
1.156811108
1.156321219
1.157146785
1.106238999
1.157129331
1.060582749
0.9314874243
1.111614663
0.9077499791
0.8460247771
1.005301814
0.8466108193
0.844521992
0.9992961491
0.8522423469
0.9109675131
1.078612479
0.9347926033
1.054561714
1.157541092
1.09707356
1.157435522
1.156686211
1.157091987
1.156206344
1.156049251
1.155192896
1.156314078
1.155776749
1.156803031
1.043329351
1.157107941
0.9722134394
0.8011906177