/*--------------------------------*- C++ -*----------------------------------*\
| =========                 |                                                 |
| \\      /  F ield         | OpenFOAM: The Open Source CFD Toolbox           |
|  \\    /   O peration     | Version:  v1912                                 |
|   \\  /    A nd           | Website:  www.openfoam.com                      |
|    \\/     M anipulation  |                                                 |
\*---------------------------------------------------------------------------*/
FoamFile
{
    version     2.0;
    format      ascii;
    class       surfaceVectorField;
    location    "2.09";
    object      Uf;
}
// * * * * * * * * * * * * * * * * * * * * * * * * * * * * * * * * * * * * * //

dimensions      [0 1 -1 0 0 0 0];


internalField   nonuniform List<vector> 
25162
(
(99.99951531 0.001689123322 -1.867638232e-21)
(99.99841819 0.001309746869 5.527357875e-21)
(99.99896023 0.005248028924 -1.848913618e-21)
(99.99666901 0.005601590338 1.854075263e-21)
(99.99788168 0.01269749163 -3.692296583e-21)
(99.99302905 0.01523016988 1.111484857e-20)
(99.99883227 0.01679038421 1.157267951e-21)
(99.98623615 0.03452254617 -7.363031356e-21)
(99.99355833 0.03802955143 -1.229054933e-21)
(99.99756461 0.03170317843 1.78987632e-21)
(99.99929034 0.01939173983 8.928744947e-22)
(99.99225881 0.05807435019 1.784220975e-21)
(99.99820935 0.03362321895 8.775868647e-22)
(99.99867475 0.02534361645 -8.963739171e-22)
(99.99773278 0.04417700394 8.775510214e-22)
(99.98755702 0.1009189119 1.750622788e-21)
(99.99743339 0.05748458645 0)
(99.99722178 0.07255017285 -3.278159491e-21)
(99.98306346 0.1621632297 -3.27814243e-21)
(99.99677794 0.09066805346 -8.523344215e-22)
(99.99622232 0.1121359651 2.859413304e-21)
(99.97668941 0.2479590089 3.153676012e-21)
(99.99565585 0.1370943745 3.901121522e-22)
(99.99512333 0.1655028832 -2.690585753e-21)
(99.97049347 0.361498208 3.79264515e-22)
(99.99468757 0.1970841606 -2.822987648e-21)
(99.99443669 0.2311470907 1.487341713e-22)
(99.96706723 0.4972083158 -1.932168678e-21)
(99.99447801 0.2663967969 2.474012414e-21)
(99.99486865 0.3010604847 2.201450406e-21)
(99.97018191 0.6352207665 -9.970133958e-22)
(99.99557943 0.3330360942 0)
(99.99655565 0.3601469553 0)
(99.98088473 0.7434647789 2.782141635e-22)
(99.99768422 0.3806449135 0)
(99.99891557 0.3931175735 2.759784505e-23)
(99.99664055 0.7929354378 -5.674832383e-25)
(100.0003924 0.3967655227 5.745948714e-22)
(100.0018997 0.3906859675 1.704786923e-22)
(100.0138251 0.7696805375 -3.927199113e-22)
(100.0031339 0.3759105007 -6.281934634e-22)
(100.0041006 0.3540606255 9.419905063e-23)
(100.0253477 0.6828498278 1.440467016e-21)
(100.0047619 0.3269798849 3.588937106e-22)
(100.005096 0.2966345761 0)
(100.0296236 0.5621515661 0)
(100.0051582 0.2649694028 0)
(100.0051767 0.2334139306 7.049272338e-22)
(100.0279979 0.4370397164 1.464947164e-21)
(100.0054573 0.2034884783 -3.577948979e-21)
(100.0054283 0.1738305797 -1.321001158e-21)
(100.0248421 0.3201095384 2.91998216e-21)
(100.0047961 0.1472831115 2.919764267e-21)
(100.0036109 0.1244489591 -8.509110028e-22)
(100.0153632 0.2264483106 -6.246800151e-23)
(100.0007257 0.1080389517 1.644577945e-21)
(100.0104593 0.1088664998 -7.48475011e-21)
(100.0581674 0.2656210686 6.586652291e-22)
(100.0199972 0.2325980158 -2.689018065e-21)
(100.0031575 0.1092706338 -1.594923205e-21)
(100.0077127 0.06443266745 -9.528188904e-22)
(100.0415568 0.1660708338 1.507852564e-20)
(100.0066037 0.03049922892 -7.664711639e-21)
(100.0318843 0.09037788824 -1.607933907e-20)
(100.0287429 0.02890141909 1.569096415e-21)
(99.99541599 0.004319799899 9.236569232e-21)
(99.99436104 0.001245220529 1.99633607e-22)
(99.99010914 0.01392193582 1.479564524e-20)
(99.9876777 0.00693638988 -1.289335194e-20)
(99.98034443 0.03448564049 7.689825867e-21)
(99.97379206 0.02254552603 -2.008955807e-20)
(99.97383052 0.06565267594 -1.29258276e-21)
(99.95084268 0.0550098185 3.864191103e-20)
(99.95463414 0.07905016745 -8.536419527e-21)
(99.95985094 0.08619375623 -1.828025144e-21)
(99.96889861 0.08881174257 3.622129724e-21)
(99.98151996 0.06162030827 1.800847822e-21)
(99.96879375 0.1130919494 1.771443338e-21)
(99.95899215 0.1209382927 1.796178876e-21)
(99.93052456 0.1620155018 -3.616454533e-21)
(99.94773015 0.1618528718 -1.173280246e-23)
(99.94989681 0.1961188752 1.750897527e-21)
(99.9340943 0.2132889309 -1.18900079e-23)
(99.89099222 0.281723975 0)
(99.92703366 0.2580853364 0)
(99.90637314 0.2944697377 -2.193155725e-21)
(99.92829496 0.3074613731 -4.329073217e-21)
(99.92054881 0.321416103 -4.100328686e-23)
(99.89655 0.3730560485 -9.739702855e-21)
(99.91301242 0.3553213197 -3.347825632e-21)
(99.88744303 0.4990738783 2.904111213e-23)
(99.90023438 0.4740942289 -2.236332791e-21)
(99.85535098 0.5786644567 -1.227635183e-20)
(99.87989879 0.5470190345 -2.985902175e-21)
(99.85383632 0.7399223812 -5.76462396e-21)
(99.87199318 0.6969361103 -5.396599028e-21)
(99.81368333 0.8552503504 3.927044915e-22)
(99.847437 0.8022071636 -6.929917e-21)
(99.82920249 1.039148282 -1.058022444e-22)
(99.85317151 0.9684650467 -4.705282305e-21)
(99.78581811 1.195934202 -7.271655674e-21)
(99.82798911 1.111088389 -3.557710339e-21)
(99.83418851 1.361766908 -4.529067871e-21)
(99.86325202 1.252668749 -5.941551563e-21)
(99.79763182 1.55932059 -3.537874526e-21)
(99.84324375 1.431808037 -3.537609766e-21)
(99.8821306 1.635593358 2.655279016e-21)
(99.91337767 1.484191857 -2.254534432e-22)
(99.86246167 1.858958096 -1.506654891e-21)
(99.90097365 1.689975665 9.641015355e-22)
(99.9620872 1.782437257 1.454030342e-22)
(99.99034346 1.596673122 -5.437907031e-22)
(99.96412599 2.006754477 -3.936248822e-22)
(99.98424306 1.810305799 -2.456100644e-22)
(100.0504525 1.770727512 -1.390117772e-22)
(100.0535483 1.560328767 -1.889664333e-22)
(100.0690536 1.966659595 -9.667682291e-23)
(100.0709114 1.753966323 1.293035333e-21)
(100.1218135 1.604962842 1.839715774e-21)
(100.0956024 1.391050323 3.192665847e-21)
(100.1482996 1.755996483 3.213585152e-21)
(100.1325994 1.548451111 4.6498539e-22)
(100.1537985 1.340444471 -5.637135449e-21)
(100.1108468 1.147065998 -5.294792972e-21)
(100.1800944 1.44676275 -1.891131945e-21)
(100.1548898 1.266257043 -1.890737703e-21)
(100.1503681 1.05445418 -4.701611858e-21)
(100.1008515 0.8940014675 4.381772317e-22)
(100.1681619 1.122713037 -1.285148709e-21)
(100.1448902 0.9823891586 5.259769194e-21)
(100.1003037 0.6352895122 -1.259799726e-20)
(100.1579032 0.8602411071 -1.259701842e-20)
(100.2255879 0.9399541018 1.276873179e-20)
(100.140186 0.726178683 -2.598620529e-20)
(100.1212102 0.6083912389 1.122473708e-20)
(100.1699199 0.6548541665 -1.638686045e-20)
(100.1006817 0.5073560998 2.280790243e-20)
(100.0753695 0.4453860115 2.537612596e-20)
(100.099005 0.318049441 2.233656029e-20)
(100.221236 0.4990550647 -2.58023047e-22)
(100.1664925 0.5474943923 4.615999394e-20)
(100.0979463 0.435717218 2.549069701e-21)
(100.0742825 0.1886244138 -6.864587081e-22)
(100.1630173 0.3113395403 3.217007359e-20)
(100.0613183 0.08768015245 -7.460227948e-21)
(100.1270581 0.1692191627 -1.706559548e-20)
(100.1114475 0.05387561632 7.665869651e-21)
(99.98858626 0.002882423705 -2.214799495e-20)
(99.99165154 -0.001523842142 -1.106874537e-20)
(99.97384986 0.01371719864 -4.80525847e-20)
(99.97751415 -0.0002523641506 1.051995998e-20)
(99.94743435 0.0413848481 1.075999765e-20)
(99.94788316 0.0147145502 -4.069018853e-20)
(99.9159427 0.09373809818 2.459958957e-20)
(99.90010655 0.05023110864 4.430548381e-20)
(99.88777276 0.09777142618 -3.934496547e-20)
(99.92552086 0.1045408038 -7.346580232e-21)
(99.88711973 0.1136834636 -5.420808255e-20)
(99.89523778 0.1348441321 -3.662975335e-21)
(99.87888601 0.2016923719 -7.228838031e-21)
(99.86609148 0.1884066715 -3.605530208e-21)
(99.8155637 0.2291794833 2.524366982e-20)
(99.83101008 0.2562469145 7.146343236e-21)
(99.81140398 0.3555986901 -6.279305938e-21)
(99.78932586 0.3411277611 4.598059697e-21)
(99.71255663 0.4137720739 -3.565748662e-20)
(99.7620537 0.4323688435 2.547045873e-21)
(99.72367358 0.4613413024 -1.558037842e-20)
(99.74306322 0.5588160894 -6.537819969e-21)
(99.72488681 0.5527984092 0)
(99.67679736 0.6116091076 6.717976506e-21)
(99.69881932 0.6236404757 -6.532012355e-21)
(99.64010452 0.8819586753 3.227592521e-21)
(99.61194405 0.8805901649 1.26881288e-20)
(99.54625891 0.972179856 6.300500677e-21)
(99.58131932 0.9809409207 1.578848693e-20)
(99.53141935 1.325729809 2.350541891e-20)
(99.48922888 1.335297432 5.713996875e-21)
(99.40602194 1.474963354 2.358861583e-20)
(99.45993793 1.470830383 2.369708401e-20)
(99.45163571 1.906305148 -6.041166848e-19)
(99.38803971 1.941908751 -6.13578112e-19)
(99.29931106 2.153585767 -3.025159885e-20)
(99.37540883 2.113619846 -4.017875015e-20)
(99.48187285 2.552881735 -7.450325914e-21)
(99.39859099 2.643892003 -5.410781214e-19)
(99.33913428 2.914049494 2.544618594e-21)
(99.42857527 2.811595751 -1.247213447e-20)
(99.67160356 3.062666697 -3.756825152e-19)
(99.56443745 3.215921279 6.272568998e-19)
(99.58520532 3.509375293 9.07129e-19)
(99.63009168 3.325374622 -2.12731847e-19)
(99.92045493 3.32012268 3.540081299e-20)
(99.87285898 3.534680586 3.574192621e-20)
(99.91594266 3.798692676 3.609091904e-20)
(99.95907492 3.557071667 7.278950395e-21)
(100.2045474 3.236150165 -3.912639804e-20)
(100.2022909 3.485266523 1.004117106e-19)
(100.2798171 3.682841521 1.921177591e-19)
(100.274409 3.416215548 -7.478280785e-20)
(100.4102468 2.860230066 1.337054026e-20)
(100.447793 3.111167521 3.73151357e-21)
(100.5333115 3.239359394 6.049967569e-21)
(100.4881333 2.979991004 1.599041237e-20)
(100.4935263 2.329965662 -5.302738629e-21)
(100.5567753 2.551888033 -1.21864709e-20)
(100.6351765 2.622062824 -4.316589938e-21)
(100.5627706 2.400463314 4.973590076e-21)
(100.5419424 1.954942469 -1.602075891e-20)
(100.4711187 1.775114282 -1.085119918e-20)
(100.604453 1.985618269 -1.086583246e-20)
(100.5291176 1.81222502 5.883772273e-21)
(100.4000286 1.228872354 -4.977083652e-20)
(100.5284463 1.49427348 -2.608572059e-20)
(100.626758 1.497063312 -7.539626215e-20)
(100.4706099 1.253154394 -3.479298187e-20)
(100.30628 0.8502245705 -5.833289759e-20)
(100.4117601 1.041859224 2.290216463e-20)
(100.4777795 1.025581127 -2.766098413e-20)
(100.3547664 0.8593290934 -2.422456969e-20)
(100.2782683 0.4879562882 1.035984301e-20)
(100.4760858 0.672958685 -2.514214832e-20)
(100.4345623 0.805590959 -2.017191969e-22)
(100.3248913 0.7133569831 -1.449179587e-20)
(100.2097043 0.2883576049 1.503396493e-20)
(100.3508352 0.4159509822 2.689498793e-20)
(100.172117 0.1336218993 -1.92730441e-21)
(100.273049 0.2248496579 -3.904184455e-21)
(100.237466 0.07112765677 0)
(99.9839704 -0.005330021016 2.222955692e-20)
(99.99669295 -0.008041708155 -3.703077374e-21)
(99.95599267 -0.0008478191039 1.867347148e-20)
(99.97333814 -0.01936773954 2.594895541e-20)
(99.90596375 0.02390707078 -7.427404704e-21)
(99.924637 -0.01458817115 -3.700287556e-21)
(99.83924333 0.09092725165 0)
(99.84375976 0.01338813646 5.648329833e-21)
(99.80837672 0.07703010956 1.726146966e-20)
(99.8434836 0.1131241712 -5.065136034e-20)
(99.79728908 0.1012694035 1.297785343e-20)
(99.79512337 0.1401549645 0)
(99.74290826 0.241702819 3.532602797e-22)
(99.73699102 0.2060656863 -2.887454141e-20)
(99.66320839 0.2370705409 -2.88551167e-20)
(99.66715752 0.2914698319 5.862464963e-20)
(99.59978025 0.4505259887 -8.73325368e-20)
(99.58460442 0.4001638484 3.032437819e-20)
(99.47362109 0.4601203415 -5.831032206e-20)
(99.5116744 0.532262646 -2.898611987e-20)
(99.46028124 0.5412414796 -4.771438799e-20)
(99.43736547 0.7312702204 6.942762819e-21)
(99.42019771 0.6992132257 1.382251841e-20)
(99.34579571 0.7562402204 3.483174285e-20)
(99.36358736 0.7971342204 6.887633703e-21)
(99.20107278 1.195982418 -2.327255141e-21)
(99.17101017 1.156351127 3.263395722e-20)
(99.06481961 1.254760081 2.622470373e-20)
(99.09914911 1.304891671 2.557626004e-20)
(98.92201255 1.915622628 1.098465832e-18)
(98.86612939 1.874930405 0)
(98.7227005 2.057680022 -7.252203221e-19)
(98.79033241 2.107197991 4.478742755e-20)
(98.70916944 2.932840595 -1.959981309e-20)
(98.61359608 2.917199685 -2.051617911e-20)
(98.45871878 3.210279696 -1.283876631e-18)
(98.57910342 3.220540311 -9.884554403e-21)
(98.79909924 4.124882779 2.018712462e-18)
(98.59731306 4.16928113 -1.081287663e-18)
(98.55977933 4.591085255 1.084564404e-18)
(98.67503065 4.479850595 -8.566888162e-19)
(99.29965406 5.065641851 -1.318677872e-19)
(99.10750701 5.247291068 7.558269605e-19)
(99.20072037 5.671583089 9.853436944e-20)
(99.29957716 5.425560185 3.572910106e-19)
(100.0044792 5.407625754 0)
(99.934812 5.68855726 -3.818050084e-21)
(100.0883021 6.011426244 0)
(100.1420982 5.678844003 0)
(100.6647833 5.105040315 -3.377039623e-19)
(100.6801767 5.417792779 -1.490083634e-20)
(100.869006 5.606570454 -2.709277096e-19)
(100.8229935 5.26933445 1.562140391e-19)
(101.059433 4.398746245 4.787595898e-19)
(101.1337787 4.699407906 0)
(101.3035999 4.783930432 0)
(101.1998797 4.477807433 5.36672234e-20)
(101.1892591 3.480466424 3.982539556e-20)
(101.298039 3.749818992 2.402815394e-21)
(101.4288679 3.756151969 4.325295401e-20)
(101.2988673 3.494796576 1.908297907e-19)
(101.2327009 2.781596491 0)
(101.1166112 2.579703023 4.297756312e-20)
(101.3218934 2.757410225 0)
(101.1925026 2.563495905 0)
(100.905375 1.73533351 2.807393148e-20)
(101.1230739 2.029657805 1.81265009e-20)
(101.2328405 1.933192045 -1.673671077e-20)
(100.9901206 1.680607821 3.528017757e-20)
(100.6856918 1.174221033 -3.255782007e-20)
(100.8608806 1.379920675 -1.454542657e-20)
(100.9274908 1.290377957 -1.469321232e-20)
(100.7398282 1.122272725 -6.981920792e-21)
(100.5326563 0.5952582841 -8.745911536e-21)
(100.793952 0.7575614925 -1.929203437e-20)
(100.8061227 0.954179527 -2.529923145e-21)
(100.6589845 0.912068138 4.519608605e-21)
(100.4010926 0.3489222101 7.767129717e-21)
(100.5831114 0.4620673636 1.185364268e-20)
(100.3272496 0.1604148168 -1.976530406e-21)
(100.4508446 0.2467404051 -3.50221799e-21)
(100.3887526 0.07735224245 -5.065308459e-22)
(99.98988155 -0.0222678445 0)
(100.0177113 -0.01886419147 0)
(99.94684846 -0.03389142402 3.716759517e-21)
(99.98436262 -0.05198356535 0)
(99.86942162 -0.02455713774 9.351335852e-21)
(99.9159391 -0.0686889774 -3.30792975e-21)
(99.75907115 0.03408218433 1.655908203e-20)
(99.80119823 -0.06089431185 2.075811733e-20)
(99.72867459 0.007571070723 -6.261370331e-21)
(99.75327625 0.07690110691 2.234383891e-20)
(99.70139636 0.03964495084 1.832472517e-21)
(99.68492999 0.08948128291 -8.93065921e-21)
(99.58006313 0.213392424 0)
(99.59027639 0.1579715252 -1.866123837e-20)
(99.49681008 0.1694576737 -1.527872731e-20)
(99.47701008 0.2469617579 3.806518271e-21)
(99.33828303 0.4409847499 0)
(99.34260152 0.3629031921 3.806110733e-21)
(99.19895481 0.3932593372 -3.907567456e-21)
(99.20926359 0.521581411 1.91703913e-20)
(99.15351073 0.50163435 4.913259715e-21)
(99.04716346 0.7697657456 2.21355776e-19)
(99.04295441 0.7108260795 0)
(98.94127928 0.7539645695 -8.804814873e-20)
(98.94394748 0.8236545895 0)
(98.59001014 1.378084524 1.017835479e-18)
(98.57553393 1.290015339 1.773548877e-19)
(98.41277382 1.393465841 6.16286964e-19)
(98.42767212 1.500864882 4.220455403e-19)
(98.00473334 2.43307833 -2.389632733e-21)
(97.95004785 2.321693971 -7.616335415e-19)
(97.7191066 2.533376226 1.07807985e-19)
(97.78503097 2.671282509 -5.685120579e-19)
(97.48596614 4.082900919 -5.412595766e-23)
(97.34712355 3.978752829 5.929948713e-21)
(97.07056874 4.368697895 1.125086742e-20)
(97.25669649 4.495955282 1.112709732e-20)
(97.5986316 6.162886768 -6.585170129e-20)
(97.3450554 6.184575841 -7.5526546e-20)
(97.17464864 6.767335551 6.182094462e-19)
(97.5256238 6.740461433 -7.375788847e-20)
(98.89785515 7.860089005 -1.712119023e-19)
(98.52448831 8.12008079 -1.00880618e-19)
(98.78640821 8.752816931 -2.705322742e-19)
(99.01428164 8.376919213 -2.240309837e-20)
(100.6026431 8.093036188 3.355235782e-19)
(100.5012531 8.525818826 4.794312356e-21)
(100.8895905 8.898875925 2.895022467e-19)
(100.935865 8.379233022 0)
(101.8147774 7.174886924 0)
(101.9055996 7.594807951 4.433965267e-19)
(102.2693049 7.702183723 1.456230463e-18)
(102.1170621 7.269905317 -7.086138117e-19)
(102.3197163 5.863554551 -4.301147625e-20)
(102.493458 6.211465378 0)
(102.7741875 6.185854351 -8.54378952e-19)
(102.5489752 5.84958242 8.848247876e-19)
(102.3419285 4.505980832 -2.2135211e-19)
(102.5388049 4.790998569 -5.431019648e-20)
(102.7132365 4.708203736 -5.506888423e-20)
(102.4886152 4.442041185 -5.650789872e-20)
(102.2433566 3.428218406 -1.773632551e-20)
(102.0547681 3.205852333 -3.778554553e-21)
(102.3432233 3.32038559 -4.067058499e-21)
(102.1385837 3.120747838 2.195926613e-20)
(101.603735 2.078406757 -9.276539658e-20)
(101.9214482 2.368879145 -5.890693473e-20)
(102.0099298 2.158966384 -3.317405478e-20)
(101.6791 1.936462448 -1.719704511e-20)
(101.1976708 1.368498475 1.144922163e-20)
(101.4490243 1.566576596 3.438053198e-20)
(101.4901531 1.403675942 -3.897844218e-21)
(101.2402067 1.255127955 -3.783017751e-21)
(100.8305859 0.6224306932 2.032137731e-21)
(101.1496094 0.724286567 0)
(101.2488055 1.003041094 -1.50920566e-22)
(101.0815419 0.9967479508 -1.036757242e-20)
(100.6199712 0.3571470847 4.479722782e-22)
(100.8333106 0.4353413846 2.031954526e-21)
(100.5008902 0.162033997 -2.040620599e-21)
(100.6348921 0.2268550592 -2.043054966e-21)
(100.541585 0.07016186729 -2.06659543e-21)
(100.015858 -0.048409713 0)
(100.063396 -0.03399220571 1.816096649e-21)
(99.95781806 -0.08661179521 -7.462629955e-21)
(100.0204796 -0.09794882451 -1.828755818e-21)
(99.85304799 -0.1047278932 7.653980933e-21)
(99.93318518 -0.1474087963 -3.734808986e-21)
(99.69169351 -0.06417721062 1.007893914e-20)
(99.78555557 -0.1742349673 2.538807607e-21)
(99.67193564 -0.1113302522 1.284382645e-23)
(99.66621565 -0.01224187048 -7.521492615e-21)
(99.62444702 -0.07706682206 -7.539915051e-21)
(99.5843829 -0.01971876743 0)
(99.41792707 0.1044420839 -1.527835014e-20)
(99.45278423 0.03509263921 0)
(99.34725364 0.01835282397 -7.463869201e-23)
(99.29333692 0.1106978928 -4.517501865e-23)
(99.06132146 0.3157953592 7.838194059e-21)
(99.10101098 0.2125008832 1.178753839e-20)
(98.93498043 0.2071998212 1.582011611e-20)
(98.89772151 0.3660913908 -1.189027156e-20)
(98.8443109 0.3289511857 -2.421935827e-21)
(98.61715827 0.6455018401 1.770710451e-22)
(98.64009952 0.5627742281 -6.131157621e-20)
(98.5091458 0.587095781 2.838629177e-19)
(98.47880752 0.6840438427 0)
(97.84112015 1.340875914 -2.068972162e-19)
(97.86296834 1.207873204 0)
(97.64678151 1.284244166 2.127033749e-19)
(97.61695485 1.444703151 0)
(96.72910742 2.657985659 0)
(96.71685745 2.443286355 0)
(96.35597766 2.629025148 0)
(96.37014749 2.898146468 8.447992977e-19)
(95.48056869 5.047245903 -4.663029605e-19)
(95.32223111 4.746737365 -8.610022745e-20)
(94.82310601 5.154434177 -5.277522579e-19)
(95.03560523 5.542167273 4.246702661e-19)
(95.26318906 8.717779688 0)
(94.75561225 8.485325941 0)
(94.2918225 9.330526784 0)
(95.00728957 9.602359877 -1.963217393e-19)
(98.07822419 12.1563486 1.279610895e-20)
(97.33129748 12.53146563 1.423328985e-19)
(97.64569431 13.67648037 0)
(98.54367047 13.05319901 2.938279513e-20)
(102.3012503 11.79138907 1.092967845e-19)
(102.1454538 12.62375531 -1.084483727e-19)
(103.0209887 12.97351657 1.644579784e-19)
(103.0166884 12.00749389 -2.848800558e-19)
(104.2168677 9.225355334 8.20512017e-19)
(104.4915106 9.821447948 -3.173985525e-19)
(105.0990385 9.687673225 9.549156869e-19)
(104.7050756 9.118494162 -3.669128466e-19)
(104.4619847 6.931064063 -1.339849251e-18)
(104.8112418 7.287941491 -8.436462974e-20)
(105.139039 7.077157883 8.098356033e-20)
(104.739605 6.761435405 -7.752490135e-21)
(104.0332516 5.10398465 4.282773761e-19)
(104.3581295 5.357856262 8.809114543e-19)
(104.5358541 5.144306303 -8.724019446e-19)
(104.1900761 4.931226343 -3.373301788e-19)
(103.6118839 3.733701128 1.99094601e-20)
(103.3254086 3.525727061 4.117193071e-20)
(103.6918153 3.532180852 4.627067455e-19)
(103.3997427 3.356625404 1.084010535e-19)
(102.4458632 2.163543788 2.688648323e-20)
(102.8758756 2.411671939 -2.75302369e-22)
(102.8976303 2.081500216 1.664800709e-20)
(102.4766915 1.93044137 1.237812752e-20)
(101.7902352 1.386727716 -1.637540223e-20)
(102.1150678 1.538620227 -8.385984417e-21)
(102.0962311 1.309273583 -8.387609084e-21)
(101.7915495 1.213360832 1.292047302e-20)
(101.135375 0.5437262344 0)
(101.4975116 0.5613878801 1.378112808e-21)
(101.6953605 0.8762460647 -1.136077445e-20)
(101.5342062 0.9488613759 2.806298857e-20)
(100.833585 0.3029891691 -5.17680927e-22)
(101.0603323 0.3248138762 -1.626194949e-21)
(100.6639962 0.134415914 -2.079283665e-21)
(100.7938686 0.1606616428 -2.369086201e-21)
(100.6683603 0.04844428428 2.629443556e-21)
(100.0711625 -0.08308333391 -1.208094998e-23)
(100.1417805 -0.05288519652 4.900958595e-23)
(99.99974325 -0.1576015919 1.896257115e-21)
(100.0908265 -0.1555576318 -5.910993391e-23)
(99.87074824 -0.2157507569 -9.964236961e-21)
(99.98816799 -0.2474912158 1.483105088e-21)
(99.6613285 -0.2129043979 -9.100979791e-21)
(99.81376243 -0.3215324454 -1.514410607e-20)
(99.65873548 -0.2777892029 -1.28434161e-20)
(99.61023505 -0.1565770934 -7.101349539e-21)
(99.58967523 -0.2473931154 -2.787983376e-21)
(99.52160993 -0.1909146723 4.003737834e-23)
(99.2889402 -0.08806952141 1.143378458e-20)
(99.35494899 -0.1634466456 1.158917437e-20)
(99.24666917 -0.2135080925 5.734165466e-21)
(99.15339003 -0.1184531565 1.966321012e-20)
(98.82387569 0.06721336674 -1.574627034e-20)
(98.9083987 -0.05085647496 -1.180699468e-20)
(98.73434826 -0.10212838 -2.011477206e-20)
(98.63025797 0.07689866418 -7.40833261e-20)
(98.59174428 0.01410589599 1.463396447e-19)
(98.20758174 0.3410708079 2.256396459e-19)
(98.26982856 0.2434274467 5.651860271e-19)
(98.1189068 0.2362490378 2.341248884e-19)
(98.04276791 0.3478944475 3.18363235e-20)
(97.08866172 0.967832749 0)
(97.17817853 0.7989687925 0)
(96.92208748 0.8145339823 -4.432188527e-19)
(96.80258879 1.014185155 2.252970245e-19)
(95.23110424 2.252241334 4.958391554e-19)
(95.33636755 1.951000778 0)
(94.88490437 2.010644255 0)
(94.73123005 2.384463933 -2.862161457e-19)
(92.5639653 4.763383208 -1.125158477e-19)
(92.57905564 4.210025504 1.560226547e-19)
(91.81312301 4.329759474 0)
(91.7608073 5.064531252 -5.509668343e-19)
(89.74055644 10.21964951 0)
(89.16717305 9.09230397 0)
(87.45289236 10.16247228 0)
(87.72333617 9.491436656 0)
(88.82636801 11.46215975 0)
(87.96179571 11.47787256 0)
(92.90090403 20.70125715 2.522962238e-19)
(94.1452103 20.46570666 1.459260309e-19)
(93.18691111 22.35033062 2.579689444e-19)
(94.75492553 21.7599053 0)
(106.6396906 18.89015785 3.319246993e-20)
(106.8269029 17.33704857 0)
(108.3549909 17.03717432 0)
(107.3817231 19.7310776 3.86290574e-20)
(109.274885 18.60857933 0)
(108.8888846 19.30753375 0)
(109.2039977 11.44182847 -2.016344446e-19)
(108.4833306 10.66131974 -5.686754299e-19)
(109.8571646 10.74392305 -4.195182412e-19)
(109.0073738 10.16877652 4.468516494e-19)
(107.4890786 7.077554468 1.002246533e-19)
(108.0822688 7.365674964 1.1627567e-19)
(108.3533806 6.885362797 1.149537559e-19)
(107.7331765 6.690397357 2.321574385e-19)
(106.1898222 4.922629449 -2.425084613e-18)
(106.6531606 5.06914436 1.007673737e-19)
(106.7515198 4.706684897 -2.765453895e-18)
(106.2895494 4.617589433 -1.409502678e-18)
(105.1915925 3.414428591 -2.237617582e-19)
(104.8130078 3.301950849 4.54355504e-21)
(105.18992 3.133868574 1.704410436e-19)
(104.8232648 3.0504009 5.980612268e-20)
(103.3489719 1.904023376 4.446882101e-21)
(103.8944546 2.041305964 3.164856851e-22)
(103.7770975 1.623256121 -2.67338377e-21)
(103.2853632 1.586816739 -4.736732981e-21)
(102.3871749 1.164199277 4.713553209e-21)
(102.7663986 1.232085892 -1.966974279e-23)
(102.6600387 0.9563045428 -7.538668365e-21)
(102.320593 0.9426976529 9.548110085e-21)
(101.3981538 0.3508275599 -1.613435585e-22)
(101.7605627 0.2699258242 -3.183536967e-22)
(102.0922985 0.5700305536 8.154425544e-22)
(101.9558598 0.6896904621 6.897706285e-21)
(101.0048235 0.182634757 -3.489591763e-21)
(101.2188625 0.1307243938 -2.420523149e-22)
(100.7863508 0.07565346359 2.581133123e-21)
(100.8947192 0.05010611934 -2.407262538e-21)
(100.7397066 0.01277078712 4.639087762e-22)
(100.1638025 -0.1246929659 1.274060093e-23)
(100.259407 -0.07453645815 -2.689616778e-21)
(100.0821887 -0.2434506814 -4.873055138e-22)
(100.2028698 -0.2216960737 1.172767733e-21)
(99.93499866 -0.3514748062 -3.856049828e-21)
(100.0901208 -0.3630501223 -2.54070126e-21)
(99.68493814 -0.4010672597 7.9273788e-21)
(99.8980934 -0.4930244279 -8.734241236e-22)
(99.70524222 -0.4805237599 8.154220045e-22)
(99.60477715 -0.3500821689 3.844024491e-21)
(99.61580421 -0.459493609 8.004739439e-21)
(99.51874255 -0.4126727016 5.63397034e-21)
(99.22466773 -0.3544898993 -1.931593831e-21)
(99.3252717 -0.424331121 2.964407326e-21)
(99.22517681 -0.5081709587 1.961102868e-21)
(99.09082832 -0.4247490436 5.934257762e-21)
(98.67200477 -0.2960252187 -2.27203063e-21)
(98.80582767 -0.4101101228 1.053920287e-23)
(98.64104682 -0.5088231828 -2.012996137e-21)
(98.46684125 -0.3350538129 -1.389363173e-21)
(98.45109228 -0.4182074723 1.562875741e-19)
(97.91587119 -0.1447158548 5.598043395e-20)
(98.02310211 -0.2410744171 0)
(97.87410358 -0.2886849002 -1.12147248e-19)
(97.7517543 -0.1847897644 0)
(96.52637614 0.2281447223 1.8547448e-20)
(96.69903959 0.06230537132 2.569251788e-19)
(96.443965 0.0003132505742 -2.195417399e-19)
(96.22653761 0.1832189797 2.150547128e-19)
(94.0816739 0.9829148708 7.060446326e-20)
(94.35541033 0.6860924654 0)
(93.924721 0.5741230665 -2.859968183e-22)
(93.56595912 0.8981353595 1.982910649e-20)
(90.19574804 2.156096612 -1.027908727e-18)
(90.60595695 1.610693746 -4.306296907e-19)
(89.99253339 1.284488376 1.45543451e-20)
(89.38572151 1.841425643 -4.133514085e-19)
(83.20748396 3.606945112 0)
(83.80374417 2.916026257 0)
(83.16229047 2.293669927 0)
(82.29706638 2.98317254 0)
(122.0382127 22.90623472 1.59885075e-18)
(120.3793884 21.81305001 1.473486282e-18)
(122.7774108 21.11127389 3.964155928e-19)
(121.1369269 20.39810346 4.187740338e-19)
(116.1154234 9.991122945 -8.237219266e-19)
(114.6323733 9.568303893 -2.01047721e-19)
(116.1777965 8.57672408 -4.694177539e-19)
(114.7777441 8.462530561 -5.964785296e-19)
(110.9143831 5.561195448 2.920452503e-19)
(111.7297702 5.584467562 -2.159337178e-21)
(111.7044986 4.873568761 0)
(110.9354475 4.96522724 0)
(108.3671608 3.645203795 2.646950625e-19)
(108.9271546 3.606803399 -2.744392924e-19)
(108.8547279 3.148556608 -2.783273552e-19)
(108.3364385 3.252319371 -1.523023111e-19)
(106.6760225 2.323046325 1.974936404e-19)
(106.2413628 2.34438202 4.067454153e-19)
(106.5508332 1.990250731 4.223319176e-19)
(106.1488908 2.042237258 1.520033695e-20)
(104.1532399 1.240726913 -5.221317728e-21)
(104.7709151 1.207324382 5.465351169e-20)
(104.4549738 0.7680261424 8.498081364e-21)
(103.9535107 0.8868098697 1.226914946e-21)
(102.8828375 0.6885454865 -1.998515362e-21)
(103.2849985 0.6438882806 1.452274304e-20)
(103.0604949 0.3680407284 5.331253521e-21)
(102.7312858 0.4552942502 1.05239047e-20)
(101.5628494 0.05506522049 -3.53701269e-22)
(101.88652 -0.1299539235 -1.107419712e-21)
(102.3449814 0.09796386501 -1.130685789e-21)
(102.270601 0.2796928428 -1.364837721e-21)
(101.0953155 -0.0002160152809 1.113432074e-21)
(101.2709015 -0.1306335826 1.384524344e-21)
(100.8372574 -0.0114465733 -4.468122244e-21)
(100.9052612 -0.09579784037 1.696690517e-21)
(100.728894 -0.03423905476 -2.220367035e-21)
(100.2997391 -0.1707485312 -1.529555653e-21)
(100.4204748 -0.09759186215 8.476149909e-22)
(100.2123024 -0.3387529662 -8.890641672e-22)
(100.3613697 -0.2921619069 -6.293564086e-22)
(100.0550709 -0.5026862319 4.531796673e-22)
(100.2447918 -0.4863268923 -2.245971823e-22)
(99.77655124 -0.6153806888 5.129390676e-22)
(100.046067 -0.6768139518 7.637688974e-22)
(99.82307135 -0.7036245843 4.51897255e-22)
(99.66715097 -0.577232635 1.330613895e-21)
(99.71626417 -0.6972186888 -1.222676336e-23)
(99.59239661 -0.6673687363 -1.222850239e-23)
(99.25041831 -0.6712432567 -1.954774964e-21)
(99.38371775 -0.7257435398 0)
(99.30152351 -0.84006084 -9.563638355e-22)
(99.1310803 -0.7798109662 -1.008103566e-21)
(98.64490484 -0.7350279148 3.059958405e-21)
(98.82479567 -0.828102728 2.042411909e-21)
(98.68466862 -0.9685057957 1.018879189e-21)
(98.44716133 -0.8231334442 2.953714089e-19)
(98.45895248 -0.9174236195 -7.852220396e-21)
(97.82233605 -0.7530885066 -2.558840442e-19)
(97.9629785 -0.8284519641 1.465308426e-20)
(97.83256242 -0.9139695329 2.250400194e-19)
(97.67763876 -0.8365836288 -2.202215544e-19)
(96.32399865 -0.7290175435 2.194911611e-19)
(96.55464275 -0.8521770702 2.331993044e-19)
(96.33129984 -0.9766069493 1.18206998e-21)
(96.05252657 -0.8522106287 4.777110126e-19)
(93.76496622 -0.686689537 -1.491748058e-19)
(94.13740076 -0.8778366071 -1.511304443e-19)
(93.80486478 -1.0879994 -7.746467833e-20)
(93.36831476 -0.9162471355 1.196140265e-20)
(90.21971461 -1.045552354 -2.114338829e-19)
(90.767097 -1.269374816 4.053027881e-19)
(90.45512256 -1.656757188 2.135186998e-19)
(89.852445 -1.513485184 -2.747092537e-21)
(86.38868501 -3.022507827 -2.423546343e-19)
(86.84677242 -2.969341269 2.368225378e-19)
(86.8460626 -3.310245075 6.986722221e-19)
(86.45256785 -3.448316685 7.67553562e-19)
(135.626544 7.854483523 -1.238820203e-18)
(133.9530092 8.658344121 1.668133205e-18)
(134.4813477 6.466727237 0)
(133.0862034 7.306910662 1.023028516e-18)
(121.2016646 3.47783703 -2.935523337e-19)
(119.6195628 4.041535236 4.328794192e-19)
(120.2055196 2.215947217 4.338880207e-19)
(118.9430589 2.897011136 4.223118805e-19)
(113.4569952 2.141643077 -1.012163555e-19)
(114.2433802 1.759024995 2.203963719e-19)
(113.7835109 1.084156686 -1.770094432e-19)
(113.1153529 1.515956415 1.641561655e-19)
(109.9148493 1.28443342 -7.305623487e-19)
(110.4268064 1.007153492 -8.711882e-20)
(110.1174967 0.5779330288 4.646455029e-19)
(109.6744918 0.8805113957 -1.429179149e-20)
(107.6351501 0.5488877825 2.239462807e-19)
(107.2232933 0.7277229211 2.28110057e-19)
(107.36071 0.2507379799 4.52682352e-19)
(107.0006855 0.43892045 2.372598933e-19)
(104.6625208 0.2232837175 8.42529134e-21)