/*--------------------------------*- C++ -*----------------------------------*\
| =========                 |                                                 |
| \\      /  F ield         | OpenFOAM: The Open Source CFD Toolbox           |
|  \\    /   O peration     | Version:  v1912                                 |
|   \\  /    A nd           | Website:  www.openfoam.com                      |
|    \\/     M anipulation  |                                                 |
\*---------------------------------------------------------------------------*/
FoamFile
{
    version     2.0;
    format      ascii;
    class       volScalarField;
    location    "2.79";
    object      k;
}
// * * * * * * * * * * * * * * * * * * * * * * * * * * * * * * * * * * * * * //

dimensions      [0 2 -2 0 0 0 0];


internalField   nonuniform List<scalar> 
12556
(
36.90871
36.9087946
36.90895603
36.90924671
36.95459654
36.95593532
36.95827387
36.96297167
36.971557
36.98428888
37.00096826
37.00849904
37.01046322
37.00702784
36.99608514
36.98144958
36.96994233
36.96218877
36.95815441
36.9558872
36.90971159
36.9090097
36.90866296
36.90842073
36.72752068
36.72780692
36.72836651
36.7298327
36.77615367
36.78284948
36.79601706
36.83619626
36.87604638
36.93814221
37.00893467
37.0441836
37.05504509
37.04291802
37.00587536
36.93930041
36.87981111
36.8403088
36.79587383
36.78261966
36.73149158
36.72900971
36.72783319
36.72718471
36.54773006
36.54851309
36.55007265
36.55321209
36.6025731
36.61899074
36.65089885
36.71799736
36.8124553
36.94131824
37.05466978
37.12397521
37.14759655
37.12623812
37.0583422
36.94693671
36.82072002
36.72843108
36.6487966
36.61801378
36.55801798
36.55223537
36.54952256
36.54841798
36.3693332
36.37046909
36.37344062
36.380821
36.43594144
36.469366
36.53748023
36.65527875
36.82501582
37.00868853
37.17505748
37.29347218
37.34346215
37.31117312
37.20219989
37.02565228
36.83568607
36.66739249
36.52990508
36.46897452
36.39115589
36.3797047
36.3742783
36.37218219
36.1927721
36.19487561
36.20060192
36.21437366
36.28052453
36.34076539
36.46815162
36.65638213
36.89701751
37.15447031
37.41344334
37.63581397
37.75753286
37.7069934
37.51889145
37.22149895
36.92192426
36.67654891
36.45339178
36.34052323
36.23306109
36.21129758
36.20153477
36.1977574
36.01732945
36.02069543
36.0303704
36.05487809
36.14015661
36.24110818
36.4555349
36.70468257
37.02529606
37.39646899
37.84546097
38.35192754
38.69785391
38.58569359
38.12986115
37.60234774
37.110574
36.73706835
36.42613449
36.23803463
36.0864905
36.0473924
36.03079189
36.0243588
35.84448648
35.85026635
35.8667583
35.90772363
36.0132449
36.17228654
36.47271817
36.79862055
37.22583544
37.76546185
38.59041534
40.02034505
40.79001999
40.64846675
39.23853499
38.21923811
37.41721388
36.85822456
36.43997711
36.16583221
35.95075392
35.88860439
35.86215333
35.85196679
35.67563972
35.68430635
35.70914588
35.77056534
35.90398155
36.13371205
36.51902842
36.93269968
37.48816675
38.25533829
39.66409208
42.92877616
43.77360823
41.0001598
39.09094604
37.83234681
37.03341287
36.48083948
36.12155338
35.8290598
35.73692665
35.69700776
35.68185028
35.5148938
35.5281147
35.56496367
35.65251826
35.81592041
36.12131938
36.58898166
37.09518041
37.78301492
38.77033882
40.70223895
45.75140367
49.11844785
43.1242497
40.11929185
38.32636689
37.24742262
36.54166159
36.10028815
35.72231027
35.59452239
35.53833992
35.51703469
35.3646775
35.38266328
35.4320175
35.54749689
35.74958896
36.12848708
36.67492981
37.27283544
38.07841496
39.23587455
41.48095727
47.05061957
52.656333
45.03260412
41.11836242
38.81162875
37.46933742
36.61625183
36.09823656
35.63257857
35.4653941
35.39016465
35.36154524
35.22915615
35.25377316
35.3192473
35.46842667
35.70362288
36.14973807
36.77061108
37.45109147
38.35086126
39.63439845
42.09957742
47.67824684
54.33465652
46.42274911
41.90878519
39.22332852
37.67488686
36.69441918
36.10640366
35.55903808
35.35133207
35.25628775
35.21946646
35.10802588
35.13846502
35.21805443
35.39848777
35.67352234
36.17868898
36.86976936
37.62101455
38.59975479
39.98622071
42.65687021
47.49398572
55.0432782
47.28061502
42.44649256
39.52980134
37.84914916
36.76778521
36.11773386
35.50261393
35.25378159
35.13842903
35.09306886
35.00242218
35.04032311
35.13928352
35.35449399
35.65405378
36.20912372
36.96181511
37.78177591
38.81771374
40.30115371
43.2299913
46.96947035
42.53735069
54.86267454
47.69349591
42.74535986
39.70676731
37.97996341
36.82990384
36.12847626
35.45461731
35.17140549
35.03621526
34.98262074
34.90839004
34.95290226
35.06843699
35.31124822
35.65416654
36.27074555
37.09656445
37.9571162
39.04711962
40.63397429
43.84890576
45.46452628
53.41910949
54.82544454
47.77827891
42.77631496
39.78756918
38.07765642
36.87821134
36.13583138
35.41127968
35.09994275
34.94676167
34.88563705
34.82344438
34.87413765
35.0044881
35.27223633
35.64380916
36.30694085
37.19384873
38.15415207
39.36435791
41.054782
44.24252654
41.8557046
54.85455356
54.05450999
47.35969014
42.62764883
39.77907126
38.14146473
36.90649262
36.13235342
35.36929411
35.0347585
34.86603435
34.79839992
34.74219869
34.79850775
34.94160269
35.23149515
35.62874132
36.32976819
37.27317895
38.38101015
39.83243231
41.77127732
44.82138991
36.45657724
53.41059812
52.31467354
46.43642723
42.2754498
39.71520867
38.16139488
36.91167324
36.11135324
35.32074883
34.96899088
34.7888229
34.71576952
34.66227378
34.72345241
34.87680483
35.18488565
35.60342535
36.33099049
37.32526776
38.56020254
40.3914794
42.74811308
44.41440509
28.1806319
52.8179558
50.04714608
45.19548906
41.82072073
39.64991605
38.14872469
36.89089099
36.07197173
35.26452603
34.90120536
34.71133188
34.63370186
34.57851245
34.64382186
34.80539562
35.12841819
35.56468587
36.31198715
37.33519539
38.6138943
40.73115278
43.29248274
39.00746296
37.0648518
51.41450318
47.92403655
44.11725985
41.45570825
39.54847862
38.08797621
36.8299816
36.0082637
35.19387262
34.82372202
34.62894428
34.54784845
34.49132801
34.55998629
34.72766087
35.0615675
35.51067048
36.26870192
37.31300926
38.60736188
40.71001606
42.805531
29.9054181
45.66585624
49.90569188
46.5405987
43.51640621
41.19665248
39.38802244
37.97877967
36.73928136
35.9240627
35.11059088
34.73766428
34.53993875
34.45677242
34.39629199
34.46762008
34.64005333
34.98239915
35.44124889
36.20417554
37.25706931
38.55780439
40.60385642
42.12030733
27.43236135
44.81557158
48.69143279
45.85803798
43.09762947
40.91742721
39.19507869
37.83709636
36.62534084
35.82179125
35.01423428
34.64113849
34.44201002
34.35746752
34.29715621
34.3704987
34.54617822
34.89345206
35.35751811
36.12143995
37.17667491
38.47524976
40.43698564
41.38481612
25.54759578
43.44131528
47.62643447
45.24187329
42.69787517
40.63392123
38.9856599
37.67449971
36.49379241
35.70445381
34.90714066
34.53631959
34.33700916
34.25167184
34.18890118
34.26378684
34.44211231
34.79328756
35.26132931
36.02371141
37.07736271
38.36725782
40.22279674
40.64210556
24.02416347
42.13641809
46.6478719
44.66662201
42.319168
40.35488384
38.76935927
37.49939064
36.34925678
35.5751879
34.789382
34.42159169
34.22259485
34.13682973
34.07878639
34.15477477
34.33468517
34.68681404
35.15466071
35.91398194
36.96359399
38.23960513
39.97182673
39.91884581
22.80042679
40.89234734
45.73687757
44.12497268
41.95951629
40.08434309
38.55199897
37.31763187
36.19559903
35.43686935
34.66481492
34.30145033
34.10329861
34.01738924
33.95911394
34.03596567
34.21744353
34.57102595
35.03967442
35.79488352
36.83894224
38.09651182
39.69152024
39.22535891
21.81947857
39.70057669
44.88217301
43.61154993
41.61643527
39.82344349
38.33700562
37.13316942
36.03605553
35.29199248
34.53224075
34.17264692
33.97519335
33.88923149
33.84152012
33.91895819
34.10113842
34.45329518
34.91810652
35.66872508
36.70622982
37.94070744
39.38930335
38.56691691
21.03804551
38.55946595
44.07400676
43.122059
41.2878998
39.57201419
38.12623388
36.94855494
35.87311915
35.14253347
34.39702987
34.04242188
33.84596608
33.76005946
33.71304763
33.79099163
33.97424876
34.32696469
34.79176729
35.53740968
36.56748034
37.773782
39.07179714
37.94585619
20.42173298
37.45787706
43.31000674
42.65283711
40.97210758
39.3294036
37.92051375
36.76537919
35.7085966
34.9901487
34.25510374
33.90370438
33.70773889
33.62181478
33.59204135
33.67029958
33.85375842
34.20354208
34.66173248
35.40243067
36.42405839
37.59694845
38.74592445
37.36285037
19.94422528
36.3955253
42.5811889
42.20083552
40.66746627
39.09488552
37.72013955
36.58463035
35.54380431
34.83602626
34.11491339
33.76852552
33.5733969
33.48749469
33.45665434
33.53523404
33.71951491
34.06988316
34.52938541
35.26488675
36.27682116
37.4115373
38.41776431
36.81692402
19.58524993
35.37194036
41.87926375
41.76348578
40.37250605
38.86769274
37.52507779
36.40687123
35.37965023
34.68123749
33.96706021
33.62266798
33.42763148
33.34159091
33.33623376
33.41498242
33.59913894
33.94539533
34.39507582
35.12558294
36.12635815
37.21907337
38.09113709
36.30533086
19.33068154
34.38634152
41.19799682
41.33870193
40.08594012
38.64709812
37.3351509
36.23242127
35.2167789
34.52635785
33.82658726
33.48725482
33.29282772
33.20668682
33.19437713
33.27334609
33.45812032
33.80545536
34.2600721
34.9851342
35.97312411
37.02110005
37.76848852
35.82580606
19.16528551
33.43959026
40.53587177
40.92472868
39.80661625
38.43239517
37.15008011
36.06142197
35.05563341
34.37217197
33.67390905
33.33500066
33.14026992
33.05382007
33.07869977
33.1577565
33.34222856
33.68450857
34.1240578
34.84401236
35.81754325
36.81909637
37.45047674
35.3763497
19.07405663
32.53122716
39.89039713
40.52015772
39.53355718
38.22293884
36.96954826
35.89390291
34.89653354
34.21879442
33.5379351
33.20430555
33.00993852
32.92325737
32.92901598
33.00823799
33.1930817
33.53690927
33.98862651
34.70265124
35.66012878
36.61436945
37.13809929
34.95469392
19.05190543
31.65897518
39.26043901
40.12389596
39.26598548
38.01817415
36.79323853
35.72980914
34.73971758
34.0670325
33.37863019
33.04383847
32.84888769
32.76171995
32.82305856
32.90231526
33.08686928
33.42548288
33.85267229
34.56144472
35.50148019
36.40799928
36.83199083
34.558456
19.08353197
30.82272159
38.64622209
39.73523946
39.00325235
37.81759871
36.62083067
35.56904965
34.58544251
33.91656509
33.2538912
32.92427703
32.72937167
32.64188214
32.66198082
32.74137531
32.92597795
33.2652899
33.71893268
34.42108068
35.34231664
36.20092466
36.53248711
34.18442419
19.16359932
30.02293691
38.04747176
39.3535005
38.74487024
37.62080508
36.45206023
35.41157742
34.43420269
33.7689102
33.08136273
32.75032717
32.55474291
32.46659017
32.57193166
32.65135033
32.83582204
33.1726184
33.58576121
34.28280506
35.18434659
35.99390064
36.23972487
33.82913128
19.29410634
29.26140375
37.46486302
38.97886469
38.49047638
37.42743574
36.28666557
35.2572331
34.28734355
33.62415279
32.97972076
32.65089476
32.45496271
32.36642827
32.36571872
32.44526843
32.62961876
32.96581445
33.45997896
34.14976038
35.03285087
35.78823141
35.95566255
33.49430842
19.4622406
28.54148435
36.90362675
38.6146963
38.24118451
37.23776009
36.12471467
35.10604197
34.14913077
33.48816452
32.75733675
32.42741071
32.23039809
32.14087987
45.52527224
49.80752458
44.20442521
46.92448992
53.68300284
50.28130696
47.65152066
55.37070248
53.99269709
47.54240816
56.01890375
55.47833396
47.00626025
39.78182936
41.75363627
56.29836886
56.05714576
46.01119374
47.41415899
39.91915554
52.84799919
56.73564289
56.31944295
42.44325508
40.75963868
43.68881245
40.50656904
55.05669739
46.37920166
48.53900253
43.64379388
41.67539159
41.30702457
45.75496305
44.63416542
57.63195389
61.10284539
52.33923174
46.01152414
44.27602941
41.95777468
46.62579287
45.88360884
47.3794795
50.09813091
51.19985792
55.14017593
54.85971845
54.20051883
47.71469106
46.49262864
42.53572264
46.9976036
46.70274018
47.67134905
45.89608051
48.19541918
56.90688861
55.7406
43.10692523
46.9941868
47.01502457
47.2669119
40.52286075
43.24258508
41.86881133
58.24443398
57.84868692
43.74171056
46.54976679
46.96891335
46.67413485
33.42844031
36.8213306
44.33700125
49.83979039
47.81699875
50.79094487
53.15536518
45.33736989
50.26096632
61.10325211
55.44409046
47.42876068
54.09934237
59.57285808
51.32985688
52.04414975
46.4668788
52.96583926
51.45997729
53.37092487
53.1234053
55.00498661
57.32317569
52.19801037
58.74426385
56.98398852
59.73669144
58.91787848
51.93672987
48.41609986
49.90864212
47.46885703
49.49926203
47.36328722
51.36240699
49.63155477
55.52570161
55.22769593
54.92035967
57.39063456
57.64343189
56.89208097
57.35234713
54.73538271
43.39344777
45.75383875
47.64926773
44.63823741
41.78155377
47.22066904
44.79808499
57.77115042
57.03959089
36.99582443
40.3241962
47.23802319
46.19760707
38.08618201
34.24556378
41.62151602
38.32777213
48.86778255
58.44488719
58.28974252
41.11360931
40.81295898
33.36403092
46.62769006
44.05985259
32.28692614
89.78035888
34.14096405
32.32674527
43.43473522
40.46883637
44.42031646
42.21746451
44.27049406
48.91018418
44.82100925
71.82300012
51.06690275
46.32916665
52.09830364
51.55630412
65.30283083
55.00304331
48.78108906
48.02079162
75.31062546
46.52268848
44.7920017
47.92856347
58.71636824
58.5418472
51.35402967
49.32559025
44.63859985
60.90427464
48.54277801
58.4606995
45.83867851
52.93359089
46.72565887
44.31825751
41.53579789
55.82262849
58.04966837
58.23751841
57.6919923
58.01600107
55.75780526
39.75205383
66.70818996
40.91059045
42.5812548
42.15822196
44.69859923
45.69770336
42.61156032
42.65296458
78.9713174
51.42027819
71.44511979
49.51682858
66.17396889
50.39148094
60.04066214
60.26587508
54.90012001
54.88960475
42.5443055
57.36031897
56.43609277
43.75106407
41.7465386
61.84403173
45.03862963
56.27378363
42.00628635
46.79385503
46.40270204
50.15688529
47.54396938
66.56352469
35.74500981
44.39630411
43.86716604
45.08018504
44.590557
35.8759248
66.53183831
61.52199666
52.01165988
62.01212691
63.12274285
56.3951594
61.57445917
52.33235002
47.62554633
55.39746599
47.53111724
62.05629676
56.38084894
48.40220182
59.40446519
66.30394421
59.37765625
58.95955716
52.26029213
47.49399101
52.16485628
53.54538787
51.64006922
55.69662295
47.97019067
51.11582382
53.49582487
56.2889709
56.48537861
57.89968978
56.85478112
56.28152888
57.37603691
57.00434143
57.76638778
60.0149276
54.89442211
53.76161479
56.05485507
55.21926397
59.94467241
48.52645406
48.3885202
50.61283045
50.50357959
55.77974472
63.18085335
55.69900091
43.50024041
43.30364346
46.07837054
45.91388512
41.76118996
43.57411599
57.40333412
41.38377869
42.15118934
39.05210174
45.70479611
45.24267916
46.26783989
45.85007036
39.22421276
39.87840607
37.08025576
36.90943321
40.49298866
40.33330733
76.60389752
39.54375334
52.93304859
50.94934942
43.66226544
43.16192515
32.67561755
32.88363756
43.59640013
51.80096895
33.64667936
89.55196041
54.2784413
81.1511768
33.56763839
41.48069888
62.70574808
44.92248193
71.38304288
41.55446686
43.99946394
44.14372504
45.89236737
46.42420982
44.86424483
38.19733283
42.83014422
55.27524691
55.98923155
56.63555178
59.72587515
45.71138644
55.55241058
54.82654353
53.51184605
39.55037126
58.79803382
58.76151238
48.61637079
44.70810386
44.32320919
47.73732399
49.60952193
44.46565055
44.81025291
58.79638241
62.68386223
60.74018766
60.93842813
54.94423712
45.21149419
44.71781819
53.99784892
53.68258648
54.61860685
46.91873698
48.52804255
48.24276792
48.87534827
48.61887352
47.08658703
47.28023114
46.91760607
42.16342372
34.01113181
40.39426545
39.92945038
82.74471234
62.84187376
47.99477233
60.67698363
65.4230377
63.22863789
57.00949292
51.34950624
49.64055333
53.32838616
51.88206021
57.4145513
55.4985774
53.75974529
54.03458293
56.75128634
49.08785487
49.16106415
48.95362801
43.04266153
43.63950642
47.81062882
44.69476972
44.44589
55.40383865
57.48582397
57.90566292
57.87253386
56.72669827
57.68893514
57.46731823
57.85345236
57.73802235
56.72663399
44.58282058
47.72861078
47.39567717
48.14363868
47.83556066
44.74154082
44.1605771
37.80095501
38.19614367
34.06626483
34.38171788
42.32992135
46.74355147
42.07882341
42.87766209
38.35055294
38.79340121
45.27596881
57.49710717
44.1570446
49.11444105
81.12116455
41.98715052
37.60283274
35.5054034
41.1439289
33.7607325
33.99501197
33.21534102
39.45596741
66.55637953
38.06227644
41.66588303
40.76616402
39.77959695
39.34545725
33.19468572
43.93674595
41.07662666
46.01809042
32.18155459
102.2193572
47.18119778
43.09884226
44.78531505
33.9512389
32.48073405
62.77453795
62.39594069
61.358944
64.94472265
64.65358736
40.26347359
41.03717133
75.91317616
58.34973273
58.20146116
52.52865623
67.5889414
52.83137165
67.88246338
53.82759457
54.2593726
45.10483714
42.35855701
62.49191166
71.99860821
63.92848562
49.34823441
39.49015533
67.02313959
80.73692487
50.02313364
63.4352516
86.92637183
42.54280823
47.34849491
40.31221588
41.72691965
78.89624417
79.34819764
61.05091822
56.23343339
66.20305732
62.05276133
55.30856069
51.34676479
58.93897306
57.74630895
58.13882813
59.19044869
60.78204418
60.22182181
58.35929708
47.0107762
45.67355397
54.89679797
56.9833619
55.40535678
48.6623851
55.99954942
54.72616384
54.65927867
53.84550044
47.68464264
45.70121414
47.44453462
42.30847917
49.20318127
47.90419244
50.77228562
45.51854278
44.34659594
47.40683392
46.0690936
48.68800182
51.19709665
40.05244824
40.17894093
41.0537796
40.53232093
34.59811131
36.28946918
41.63449182
41.20063086
64.68839041
63.93112533
63.40313827
56.02832909
56.76366607
54.76471257
55.74571487
63.77467581
59.5515967
57.34013426
57.2006826
56.94842904
57.28553155
59.9188306
60.06560141
53.19343835
54.42784107
64.23492346
64.79778835
66.13974041
65.02713577
60.3795133
66.6290711
68.4301228
67.00595907
68.40885222
67.54328134
68.99431533
68.11928119
57.521437
65.2058912
66.36014018
45.76934466
52.43848393
51.35279377
53.4652783
52.73290664
46.49727887
49.85631861
49.11722241
50.97647011
50.11121027
53.25172615
56.2730194
55.60630192
57.05335829
56.48391703
53.83053298
49.22798731
54.43515947
53.71269873
55.37555141
54.67291907
49.68112165
53.69729165
53.68280867
55.68845461
56.74208338
54.83496122
53.69695948
42.41425993
41.83393204
43.42100999
42.61791689
40.90692371
40.3398333
41.64916564
41.07840699
47.94847511
47.26412427
48.87971444
48.18304224
45.90985386
43.95378238
47.01707595
46.33469637
43.53600536
43.82930767
44.05330829
43.57840089
62.98750288
45.6034664
47.3404523
43.94913937
44.93823506
37.28430823
37.6451961
44.00015929
34.80463897
34.54359431
35.19257606
34.91094596
34.35779136
42.56680738
34.62213182
36.82779013
39.77267959
41.77820322
46.58275193
39.30805141
36.39354133
40.22425106
39.34341913
35.65569001
35.31440483
36.1868888
35.78283777
45.43466544
38.9504055
39.48200255
71.94771455
41.39481627
70.84592653
61.27908437
70.29885868
41.50542954
84.07435174
41.17112288
80.55442691
71.41353371
37.46129603
36.21930978
33.45692558
33.69050093
40.98462063
39.73717151
33.21704935
33.40619697
76.99975669
33.12294671
39.1399927
38.39604122
90.23984664
94.48650024
32.14166641
97.95411575
82.93539986
46.75357116
33.8798046
89.73953305
63.06398806
97.21174582
66.82295037
32.62291232
43.29757193
41.06526261
39.5342749
74.970629
74.31046944
55.48601252
49.34321905
48.94707598
75.63690566
39.51630507
47.21466454
42.43381808
58.25297172
58.40389285
56.18659083
47.82555842
46.78470308
51.94165351
59.96130999
47.4780738
47.82517435
42.00635511
42.40944407
45.34418281
53.3957011
58.39276611
61.85205934
50.61298439
49.46163832
49.40373865
49.43147572
49.4655603
50.76885817
40.94325002
40.16910049
47.22237887
49.98452391
52.1667419
58.05115558
42.18794703
41.77088522
36.41620025
62.94042385
64.96188042
57.06318537
49.3668406
49.22048372
49.30097086
49.0841112
45.44801966
46.20371633
46.57455381
47.71636551
50.02762951
37.97431726
42.76604217
42.32545138
61.88305885
58.18494953
44.47094864
32.80845909
32.8603088
34.42980987
53.37838033
77.87752619
69.44876874
39.92940193
43.13131862
41.3096296
32.25280103
34.07262588
32.71499799
32.76650218
32.36329607
72.70859032
64.34126336
50.11765578
53.959498
74.12572692
40.95856971
40.44902955
47.07509534
59.96876071
49.0433996
47.19393946
49.91467267
42.82345919
43.53930749
41.31985801
83.93580725
87.14915365
88.23399121
76.36992178
85.71640014
43.97268639
44.42036449
48.47112916
74.36405936
67.12423713
63.53493423
77.67868531
74.48670766
43.10283295
52.41483542
50.00035313
67.59654451
66.35203028
51.4470935
50.8107528
49.64997681
42.12114472
62.97689837
44.89108742
46.03427789
59.1987851
44.44261096
46.57559085
66.14420941
67.10937859
62.35668157
62.50535385
60.87904484
60.72449047
57.13254979
58.46404009
57.97418659
60.5284365
60.2520334
61.01176631
51.255833
52.77680091
59.41759258
61.3384169
68.86982313
64.0537568
68.73902642
69.17023842
65.42271518
43.70105336
46.45289143
45.82216686
50.97625549
50.67988841
47.19825555
43.21700298
42.91593945
45.28053465
44.84649788
52.1690277
54.94941324
54.53130852
57.5191371
57.08333879
55.04625365
48.34006192
51.73688313
51.38729132
54.11185949
53.70215684
50.6241936
44.62995125
45.23770796
48.94962198
47.95189201
43.8318967
44.43170416
48.84571106
49.45551656
50.94788093
41.21271139
41.02760073
42.65869963
42.42230178
38.26875372
40.76518626
40.61379327
50.14645723
47.99845978
48.63506989
61.5319075
60.70967751
47.08304467
48.11545677
62.54533699
60.32448803
60.73156276
55.47704371
44.44928474
45.04381805
43.31664292
42.90714833
38.3544089
39.68035505
43.80926208
43.43901484
34.64302589
34.70457016
37.19656546
36.7786614
34.44715975
34.51801852
76.41958113
32.64985745
34.51528115
33.43060606
109.5205516
32.40107117
45.41860843
78.67926329
72.80120788
32.3735837
32.41235956
33.72888235
88.1533343
93.31867639
91.09367401
75.48031764
33.43024
32.28290472
32.3293409
52.55614156
39.90496968
40.15082269
74.51242565
73.41087455
56.72108599
53.70172799
42.9537522
60.8760416
64.06689715
67.86696338
48.62187598
72.89194856
63.49374316
73.04728577
71.29462206
51.81482288
46.15608476
47.21160656
54.18757799
55.53482657
55.93939232
54.88707736
55.17424555
62.11432698
61.90560782
62.3773025
60.86249562
61.33143222
61.37408838
54.29733743
46.91406124
47.30100332
46.34153153
46.60719899
54.80809872
64.40432885
63.75515074
63.9114547
62.91686245
63.34754519
63.7919499
53.56955058
48.45604305
48.91042115
47.66477162
48.0676736
53.85977048
54.52629859
54.40048691
53.78364694
53.81295316
37.91092399
40.6368466
40.48753122
34.15301608
36.91498118
36.77457628
37.33767485
37.08137896
34.24560073
77.5699542
79.21382148
70.52707105
79.02875724
33.19866518
33.13892241
33.36219553
33.28352121
32.68361206
34.80641025
32.93225563
33.08163124
33.84503184
36.42298627
36.30039479
36.65520201
36.53600298
33.9176554
33.55534763
33.43727172
34.89600656
33.78314289
33.17628885
80.22587374
76.68314405
59.06991424
79.67762064
36.2329387
34.93351008
38.79016514
33.267617
35.51854895
35.38314479
32.21171131
101.8388649
102.8819402
66.64821814
96.52128589
88.8124444
32.59959628
32.66852138
34.01900405
32.4142819
67.91244763
76.774491
68.8813908
71.93854657
66.4317106
55.44393169
74.01656916
67.31322607
65.8795601
65.23648264
75.60190547
57.9606804
65.38166703
59.47016192
55.8920198
63.9692777
56.11828538
59.97253101
68.75952012
70.4368026
61.10133657
67.36484204
72.64262064
71.36816277
73.14958178
70.04720456
74.11676048
84.12444671
83.62503784
81.92067482
53.81902629
74.66027569
68.04206691
82.04752134
84.0119229
58.95008835
65.13510183
70.5163811
85.48106667
73.10721645
56.76118395
60.47396256
72.92549511
67.74254349
73.86988851
64.59023599
68.83669377
72.66052189
74.99085655
74.18958723
57.27519355
57.67643631
58.04990625
56.74105896
56.62353255
56.52096229
59.50978993
59.81535499
60.2639139
58.76156133
59.17031796
59.01277258
46.57698924
46.55646646
46.59225206
56.35180056
55.96090759
51.81094455
57.7312539
57.71899654
56.43287466
54.67769774
55.62481731
50.71254091
46.31822206
46.24027515
46.59158471
46.47892169
48.52008146
66.86686522
58.54719574
44.04373045
69.5371804
69.0577196
68.50645114
49.19597399
66.92640699
65.63464026
43.30766103
43.87531541
55.81766753
65.47563993
63.08149187
59.45731378
58.97842019
57.84294619
60.59689732
60.01810835
59.69482884
70.26389469
69.98760333
63.06648607
71.13221939
73.60122155
65.30334267
69.91674154
70.20487918
65.79808772
63.9937073
64.00401342
63.91801833
63.95107814
65.42939869
67.09940441
67.69676234
68.36642698
72.53077703
72.11782819
72.95735043
72.81660454
68.16810334
69.52498789
71.54142038
72.9127846
69.84290031
49.27791208
49.07812217
45.74914673
46.68592722
50.21484196
50.00825767
43.82342515
43.5063672
44.48313965
44.14041465
55.79463247
55.36785139
52.68705106
54.43158403
56.65400982
56.2235346
52.51051269
52.13834121
48.81807322
50.12668438
53.29335789
52.90366168
53.73727792
50.26831438
50.76958315
49.32306578
49.80058874
53.49598253
54.08081989
52.29531992
52.94159374
51.27550013
51.79268409
54.12127994
42.21444078
38.64750942
38.83588408
38.30804131
38.4793963
42.02469456
43.08653917
39.46517414
39.74589753
39.02482515
39.23508117
42.83753314
40.70503451
37.32686601
37.50011478
37.03351338
37.20489646
40.55450246
41.45779991
37.97542662
38.14595587
37.64143017
37.81941324
41.27629222
41.67914753
41.46816509
47.72149385
45.21584477
45.44582016
44.74620692
44.95610563
47.48384798
42.16200509
41.93288204
39.77307856
39.72330388
45.58467726
43.13765767
43.22003666
40.15958515
40.71339645
44.7297078
46.81121032
44.29457622
44.46808571
43.83817547
43.96019066
46.53036729
40.32301384
40.21666625
60.84846157
60.16334292
62.31551214
49.93783681
54.49058748
46.01603337
59.30127744
60.20411353
58.20876858
58.81953835
46.7114642
44.14690521
53.41230769
49.32950222
58.78553418
59.31263919
44.6083545
37.35006575
39.96573219
39.82470546
40.31205014
40.1759624
37.55833945
34.73818787
34.60519097
35.10136052
34.98188246
34.23346024
33.60352396
35.04797517
38.45248201
37.78063727
39.47720648
39.17095365
36.78937077
37.21779867
35.23527585
36.26536158
36.72229323
39.95982491
36.74339463
36.93934921
36.37788238
36.66615367
39.87475343
35.54336722
35.4185702
36.04016987
35.90354223
68.99090886
48.75321807
50.75045788
44.35842071
46.5557754
70.20163475
68.85655277
67.56597574
53.36245844
59.93652551
71.52472565
79.07670777
59.52871994
63.19225552
50.1914883
55.0088273
81.11175944
32.95727791
32.906503
33.07196233
33.02862884
33.91510475
34.21192366
36.49355203
32.69058371
32.67303176
32.82688985
32.77542687
33.54307096
35.95888638
35.81731093
36.18923955
36.06033525
33.60459586
33.29059924
35.48539015
35.177954
35.7339604
35.55677093
33.32639197
75.01093276
35.24900648
35.00050738
32.92280316
88.02593798
107.3940593
109.365173
107.8348606
107.4412218
91.30912475
32.19216063
91.12246106
75.15981634
78.24842676
33.79895516
32.46263462
32.52972621
89.24710483
94.82469353
93.88407876
82.23253942
87.4134694
98.23851175
95.41967223
70.96273514
92.1185852
84.36109432
32.38110912
32.26190714
33.13021493
36.74337383
36.79872466
36.86359051
36.82102788
36.90716262
36.91961399
36.93468855
37.01535055
36.98950888
37.03713982
37.08734187
37.03691855
37.09771166
37.11666133
37.05432549
37.11789013
37.10724133
37.04874763
37.09915544
37.05751739
37.02011817
37.03933062
36.96630423
36.95835053
36.93993338
36.85289817
36.89341238
36.82894776
36.7671019
36.84883576
36.66452057
36.77600875
36.78504917
36.81653592
36.94369144
36.91043181
36.98532649
37.1021597
37.03027595
37.13607032
37.21938207
37.11168107
37.23989975
37.27667939
37.14626858
37.28072064
37.26926972
37.13586349
37.25559819
37.18290508
37.07931175
37.15227419
37.03896879
36.97687685
36.9968304
36.86821856
36.85122987
36.82697449
36.70906677
36.74637345
36.65247158
36.81600852
36.78029839
36.87311137
37.0498678
36.96322328
37.10905572
37.28375713
37.13708375
37.33896675
37.48865685
37.270205
37.53304738
37.61480043
37.3395289
37.62999303
37.62315958
37.32795317
37.59940664
37.4640934
37.23825357
37.41439192
37.22780227
37.07295467
37.15835895
36.95470855
36.88203244
36.89148738
36.72205006
36.70690288
36.68840199
36.90839027
36.8339029
36.98653509
37.23515526
37.0888781
37.32473466
37.61213321
37.34995133
37.71355163
38.03070406
37.58950945
38.13897385
38.36585031
37.7472177
38.40625099
38.38614098
37.73422989
38.30706787
38.03733841
37.58523166
37.93889122
37.60161587
37.29972861
37.48566217
37.15383369
36.99282282
37.05347357
36.79221881
36.73355862
36.77144419
37.06392817
36.94113942
37.16826367
37.52316402
37.29794941
37.66069666
38.15963132
37.72431949
38.36483341
39.15923518
38.22998314
39.48439223
40.36683236
38.65441927
40.44283119
40.19717135
38.61459156
39.82358898
39.14612086
38.26014519
38.90970785
38.2431083
37.73671656
38.03849142
37.48768515
37.22443088
37.32932369
36.93033792
36.81962026
36.89376699
37.27234544
37.11192521
37.41251435
37.91239115
37.61432755
38.11971826
38.96805489
38.34140765
39.37816616
41.82403005
39.58224716
40.85354974
41.40213614
40.30208716
42.11968032
42.10929924
40.77489467
41.50916076
40.79692029
40.27765372
40.50894709
39.19840696
38.45612432
38.84326937
37.96514693
37.59513916
37.72389185
37.136836
36.97656351
37.05140185
37.5283973
37.33749595
37.70789155
38.36444807
38.02899626
38.64553015
39.85393905
39.19923688
39.94641296
40.60257597
40.25887264
43.40404153
44.13175318
43.52969441
45.87540033
44.3483584
42.86964574
42.60255776
40.387192
39.49066505
39.83310638
38.53734866
38.09927902
38.19719051
37.39511504
37.19883677
37.22831083
37.79359246
37.59481582
38.00667954
38.7895796
38.47308124
39.12672035
40.57986206
40.05207884
40.919353
41.77991657
41.5241501
45.96593192
47.26294926
47.01507455
50.71594839
47.75638179
46.51289946
44.611978
41.586971
40.71628002
40.8394115
39.13072988
38.69574336
38.69104543
37.67028444
37.46504806
37.40865958
38.0474738
37.85808725
38.2870424
39.16425567
38.88753503
39.54102536
41.15713522
40.73451645
41.64799081
42.61603879
42.42637013
47.16918941
48.82958665
48.71511309
53.45631968
50.16753798
49.4008134
46.14752081
42.59575239
41.89218738
41.70479232
39.64686206
39.28079947
39.12677286
37.92463077
37.73678371
37.58642221
38.28268616
38.10578189
38.542869
39.49451973
39.24865851
39.90378429
41.66115607
41.28575355
42.25000802
43.30254437
43.1268915
47.68642266
48.47377756
48.63430166
54.69463407
51.53500927
51.15374493
47.14686299
43.29040308