/*--------------------------------*- C++ -*----------------------------------*\
| =========                 |                                                 |
| \\      /  F ield         | OpenFOAM: The Open Source CFD Toolbox           |
|  \\    /   O peration     | Version:  v1912                                 |
|   \\  /    A nd           | Website:  www.openfoam.com                      |
|    \\/     M anipulation  |                                                 |
\*---------------------------------------------------------------------------*/
FoamFile
{
    version     2.0;
    format      ascii;
    class       volScalarField;
    location    "2.79";
    object      p;
}
// * * * * * * * * * * * * * * * * * * * * * * * * * * * * * * * * * * * * * //

dimensions      [0 2 -2 0 0 0 0];


internalField   nonuniform List<scalar> 
12556
(
1011.088467
1008.828694
1003.681045
993.8133893
980.8054652
954.2140287
912.7396544
849.2912915
757.8752145
632.3730492
470.7445352
277.6433099
67.83638263
-139.0286831
-324.5996634
-477.7345186
-596.5918819
-684.2542184
-746.248125
-788.0155232
-821.615252
-836.187401
-844.3418749
-848.0140644
1012.502083
1010.79347
1006.726384
998.8138358
985.6187136
962.3837534
924.8358065
872.6715215
788.6123186
669.2838382
509.5874412
312.9896285
95.27508367
-122.7564105
-318.8498679
-479.0610301
-600.7766925
-689.1118245
-757.0579536
-795.4879346
-827.9475975
-840.3167548
-847.2670282
-850.3777617
1015.897855
1015.388718
1013.840265
1010.214461
999.8670256
984.1950599
956.3188389
909.3644202
835.1533911
720.7348151
556.7717153
343.7268685
97.01957477
-150.562448
-363.9813643
-527.737396
-644.5422094
-723.8543082
-786.3766331
-816.3900587
-842.3692697
-850.095946
-854.3351426
-856.1463415
1020.323237
1021.51441
1023.566028
1025.639808
1021.39029
1016.462789
1004.110721
970.617705
916.078059
817.6673003
657.8396258
420.7182208
114.6321714
-200.3416507
-452.1491711
-619.4228499
-722.6730132
-785.2120185
-830.7781644
-847.4326252
-862.5406622
-864.1377065
-864.390843
-864.2932289
1023.959512
1027.104636
1033.401626
1042.154016
1045.893758
1055.128386
1063.131448
1054.192349
1031.818544
969.1758215
836.9856319
578.6218915
157.4508782
-298.7162379
-613.2066182
-772.8592852
-840.351865
-868.53527
-887.0677981
-885.7048498
-885.4958597
-879.5811353
-875.0285555
-872.6853236
1024.87302
1029.974103
1040.555217
1056.765115
1068.26712
1094.279524
1126.159356
1148.779386
1172.493491
1177.30774
1126.830781
894.1350047
226.3110408
-554.0543914
-925.1805657
-1011.236946
-996.0675583
-968.976481
-950.1087036
-926.2414015
-907.735156
-893.4816953
-883.777909
-879.0956237
1021.195249
1028.040021
1042.243683
1064.871949
1086.038347
1126.651724
1182.419806
1236.737514
1311.660975
1402.385669
1529.235228
1601.114948
398.0059103
-1365.801081
-1491.595264
-1337.122405
-1181.283135
-1075.035059
-1010.668346
-963.0111081
-925.4238958
-902.6808951
-888.2252782
-881.377632
1011.322352
1019.402597
1036.149024
1063.252295
1092.606763
1144.124264
1217.260195
1297.432195
1410.156103
1569.937958
1864.58701
2489.891713
-3368.348189
-2272.824394
-1693.779161
-1356.842223
-1168.026088
-1056.86089
-988.9392721
-933.3734207
-904.0591797
-886.0374326
-877.4552772
994.0326478
1002.683992
1020.578097
1049.665518
1084.96511
1141.56387
1222.245741
1316.47272
1442.705895
1610.945379
1880.565341
2260.485369
-4737.577338
-2775.753544
-1923.672182
-1466.758309
-1222.642434
-1078.09136
-996.5409547
-928.2497804
-895.3035705
-875.2824336
-865.6998676
968.6894407
977.1940607
994.7114452
1023.075099
1061.447649
1117.064584
1195.001242
1287.976598
1403.046935
1545.34464
1733.953203
1929.459999
-4212.724345
-2691.952468
-1914.956396
-1466.911693
-1220.906096
-1066.768172
-982.5172888
-908.2626074
-875.0501757
-854.8593135
-845.1616752
935.3220256
943.0245683
958.7645291
983.8945104
1022.681295
1072.074915
1139.582438
1222.760218
1317.44964
1426.442674
1557.37959
1686.840643
-3086.538554
-2223.223275
-1702.837116
-1364.661298
-1163.007106
-1022.894596
-946.4615665
-873.4504194
-843.2760136
-824.7188588
-815.752815
894.5636921
900.9423285
913.922191
933.5199084
971.4941368
1010.246685
1062.314613
1130.796149
1202.177141
1280.230003
1371.022641
1483.519929
-1971.789078
-1631.647548
-1390.511539
-1197.669153
-1063.115886
-952.2689873
-891.5438136
-825.5203529
-801.3403949
-785.7877717
-778.2291125
847.5689758
852.2998922
862.0695679
875.8945662
908.4002243
935.9001675
969.8074249
1021.967859
1069.095523
1116.22681
1163.525181
1246.5833
-715.1974086
-988.0814927
-1086.763983
-1072.585247
-1008.522762
-940.9005078
-864.6897903
-822.5730396
-769.1630362
-751.5964115
-739.737119
-734.0159115
795.7421339
798.7272691
805.0895625
813.5723003
839.3225294
855.2320109
871.8890313
905.3437281
929.2203115
945.1379268
940.8658892
931.0042146
307.0390116
-387.1707427
-683.0404877
-805.7308193
-829.667203
-812.6386412
-770.4894101
-746.6118344
-707.5664211
-696.4779703
-688.6386851
-684.9258632
740.6380246
741.8281681
744.4609991
747.4623487
767.0149271
770.9323981
771.864503
785.7898988
787.6278871
776.5989795
729.6805844
597.9381375
288.5816658
-139.3831101
-441.1705865
-608.3293005
-676.5412973
-691.6591484
-676.5463438
-669.1916815
-643.5306337
-638.5235812
-634.6493799
-632.868859
683.7884465
683.3667766
682.5516411
680.5717193
694.3666885
688.5316864
677.1230738
671.9740995
652.4274544
619.9025342
553.6451503
437.3336262
214.6403833
-75.43685719
-318.4951255
-473.47818
-552.2171368
-584.2674185
-588.8901713
-594.1733928
-579.894617
-580.1261861
-579.752697
-579.6497083
626.6503104
624.9217364
621.3128267
615.3440456
623.7873984
610.5877708
589.97332
571.1984422
530.911454
479.4911059
404.7850802
295.7143092
121.6371026
-77.33619575
-255.5631471
-380.5170653
-452.1363065
-492.7118058
-509.8718565
-523.9800355
-518.8160567
-523.2005208
-525.6255851
-526.8206024
570.4862446
567.7618459
562.0250098
553.0936631
557.1525403
538.7688214
512.1674417
486.4276429
433.4036038
368.6022133
286.8082497
192.4189621
55.54182228
-87.29181057
-213.4710635
-306.9316613
-370.4964128
-415.0701476
-440.1850915
-459.8342847
-461.5974903
-468.9628005
-473.488348
-475.630796
516.2640846
512.8337452
505.587963
494.6330049
495.4548466
473.9375916
444.0997953
415.6694875
362.7519089
296.3351476
214.3970602
128.3101703
22.28736094
-82.1911065
-173.0180455
-247.939208
-306.7700096
-351.2160012
-379.9131071
-402.432936
-408.8931428
-418.1838451
-424.1281581
-426.9656963
464.6780056
460.8110514
452.6330581
440.4808426
439.1124846
416.1098642
385.1210849
356.4589289
306.3330915
246.0002736
175.5380318
103.3435236
17.56087978
-64.62279015
-139.3224941
-203.653489
-256.5749394
-298.6860338
-328.1738653
-351.6384534
-360.9903592
-371.3307282
-378.1090878
-381.34373
416.1839969
412.112164
403.5040805
390.8580986
388.0681358
364.8445347
334.2832431
306.6548074
260.5026986
207.0556536
147.2825683
85.23501179
15.65703552
-51.96485477
-114.3943466
-169.5606587
-216.4509805
-255.1546212
-283.8659582
-306.9537874
-317.823107
-328.5422163
-335.6788225
-339.0880474
371.0329375
366.9373857
358.2908217
345.6993706
342.0823503
319.5100103
290.5342532
264.4768481
222.7411248
175.681511
124.2481184
71.51403901
13.64862676
-42.718306
-95.32329837
-142.665698
-183.8590077
-218.7317101
-245.8259995
-267.7323425
-279.1417344
-289.740748
-296.8783889
-300.2931616
329.3015328
325.3153486
316.9123016
304.7659381
300.7807744
279.4233221
252.5278548
228.5158187
191.1897121
149.8888216
105.4935721
60.4841095
11.78428779
-35.68134258
-80.29809836
-120.9770323
-156.9836187
-188.0618697
-212.9761751
-233.3023093
-244.575585
-254.7126079
-261.6033215
-264.9047169
290.9341521
287.1514291
279.1866546
267.7466013
263.7326927
243.9326828
219.3687658
197.5984851
164.487067
128.3345394
89.96263559
51.40071546
10.11225664
-30.13521251
-68.15212914
-103.1391711
-134.50335
-161.9749184
-184.4837558
-203.0194663
-213.7118786
-223.1725432
-229.6542085
-232.7628415
255.7849938
252.2688104
244.8707232
234.3005413
230.4963326
212.4310687
190.2832171
170.8013547
141.6238118
110.0662401
76.89127437
43.78873511
8.63291911
-25.63557742
-58.11577586
-88.21196844
-115.4493008
-139.5745081
-159.6406333
-176.3091837
-186.1418132
-194.8040094
-200.7771319
-203.6433438
223.6493964
220.4381223
213.6837924
204.0747414
200.6402131
184.3770621
164.6271338
147.391135
121.8373491
94.38870008
65.73372448
37.31741429
7.332382425
-21.89425029
-49.66373845
-75.52547392
-99.09912009
-120.1588482
-137.8449967
-152.6605345
-161.4755507
-169.2811991
-174.6917358
-177.2881523
194.2823482
191.3957523
185.3240527
176.7158794
173.7612254
159.2962949
141.8656454
126.7836222
104.5455856
80.78196316
56.09520067
31.74912899
6.192368858
-18.7175212
-42.42790434
-64.59357185
-84.90926558
-103.1794122
-118.601951
-131.6305959
-139.3461592
-146.2804501
-151.1066792
-153.421994
167.414368
164.8592784
159.4825751
151.880531
149.4788409
136.7655
121.5436049
108.5014308
89.29142625
68.84714415
47.67838847
26.90593284
5.193735144
-15.96987097
-36.14088309
-55.05249291
-72.45964128
-88.19683361
-101.4941214
-112.8289891
-119.4135337
-125.4892085
-129.7310369
-131.7646983
142.766222
140.5411466
135.854699
129.2421756
127.4439849
116.4123883
103.2757546
92.15144952
75.71018015
58.2707579
40.25698367
22.65115279
4.317728427
-13.55400941
-30.60402082
-46.62513095
-61.42091123
-74.8552766
-86.17249048
-95.91619095
-101.3669508
-106.6130557
-110.283667
-112.0416818
120.0574688
118.155779
114.1445342
108.4926139
107.3335005
97.90536954
86.73990003
77.3976746
63.50420945
48.80571599
33.6419492
18.87419548
3.546308905
-11.39751158
-25.66458772
-39.09391536
-51.52764823
-62.84906673
-72.34217044
-80.59324651
-84.9234114
-89.37706618
-92.49706344
-93.98919628
99.00626728
97.41948388
94.0636773
89.33481937
88.85612199
80.94376195
71.69346379
63.95976402
52.42861018
40.24869851
27.67964693
15.48440763
2.86318098
-9.444807276
-21.20224882
-32.2851999
-42.56752144
-51.94286491
-59.73240719
-66.59475494
-69.81951179
-73.52269494
-76.11560073
-77.35257666
79.35804385
78.07514976
75.35353523
71.51200443
71.72219734
65.25047031
57.80998283
51.6214914
42.2780601
32.42712299
22.24565363
12.40756511
2.253765786
-7.65180728
-17.11929784
-26.0562598
-34.3664723
-41.96774567
-48.09881778
-53.67982736
-55.83183352
-58.82399897
-60.91382337
-61.9081621
60.78097541
59.79964411
57.69877117
54.69901249
55.72683973
50.57671607
44.75337304
40.17646183
32.86614499
25.18824153
17.2336505
9.579846749
1.704733317
-5.981898268
-13.33267747
-20.2828401
-26.7640753
-32.72326978
-37.26654242
-41.6328877
-42.68631157
-45.01541764
-46.61895175
-47.37465345
43.268037
42.56244039
41.06174535
38.92989645
40.40470603
36.69448338
32.4208233
29.39917322
24.0199383
18.39651671
12.54594456
6.944542906
1.203690065
-4.404053598
-9.770545038
-14.85561292
-19.61540964
-24.01556209
-27.06486377
-30.23714653
-30.42317072
-32.07244463
-33.21078765
-33.75410696
25.67399604
25.31337406
24.42507019
23.14474208
25.81025638
23.39842569
20.61090501
19.11272122
15.58283802
11.92511103
8.092105475
4.44959222
0.7387325308
-2.890595666
-6.368533008
-9.676568397
-12.79224396
-15.7025777
-17.31057624
-19.3956664
-18.13784724
-19.12679986
-19.79593645
-20.06012169
11.66507426
11.39449247
10.97787165
10.37475252
11.55663813
10.37375514
9.0366173
9.15523989
7.407882757
5.647528487
3.770902216
2.05041528
0.2986867823
-1.414407979
-3.067259863
-4.656950246
-6.176079428
-7.63308542
-7.772574917
-8.739390701
-8.558895861
-9.034385276
-9.361360709
-9.598764661
2312.516693
-5113.204662
-3604.971172
1964.323939
-4601.8478
-5137.734351
1713.786751
-3362.079505
-4464.960608
1509.597731
-2149.778254
-3202.637111
1265.222036
-764.3888098
-811.6856466
-1101.56697
-2008.308491
960.7653987
391.5484343
-715.45329
252.1668795
-394.9255673
-986.1539324
2424.208782
673.7863754
-3209.986926
-1160.480041
-7121.223591
-4907.838084
-4701.810244
-3007.246444
-2474.117407
1775.662401
1942.314323
2210.96688
-6595.059604
-7154.538033
-4329.46355
-3044.893115
-3087.808747
1602.29015
1700.905445
1909.164165
1831.126379
1871.844188
2000.023362
-4701.049758
-5651.831442
-3232.031055
-2547.124374
-2955.192444
1419.098927
1495.241636
1674.17091
1610.146093
1653.222407
1737.941823
-3026.87602
-3729.237664
1217.330305
1262.560918
1469.043566
1390.49015
1454.775644
1553.425792
-1603.428797
-1590.592552
-2195.704156
996.7234175
970.5515999
1228.773975
1116.529265
1149.173789
1314.407992
668.2192553
408.3008986
406.9225245
2892.229501
2443.873634
3276.957869
2973.947623
-7184.427598
-7160.858168
-4784.133631
-6823.594889
-7002.616318
2017.992958
2152.47655
2077.687105
2159.273986
2022.050907
2399.533576
2181.691149
-5710.964403
-6550.082525
-4881.975237
-6412.859036
-5616.940583
-6976.655073
-6456.656958
-4931.394987
1751.201774
1854.810673
1800.296173
1864.200236
1753.032495
2012.599581
1873.525806
-3834.411865
-4635.612294
-3843.620643
-4525.156575
-3761.324094
-5559.046359
-4645.410891
-4003.936267
1560.015776
1647.974443
1585.279458
1651.979412
1564.937723
1745.981113
1657.0163
-2285.073952
-2930.90965
1323.639252
1447.719096
1374.987462
-1552.771348
1453.643362
1329.533288
1558.206527
1460.77045
-1595.555042
-991.6043263
-1508.892862
-1550.454706
1026.563291
1135.627303
1096.049458
11.37550519
1141.246696
959.0383902
1320.298713
1154.045515
-62.31196112
1901.087488
2253.996496
2361.313315
2500.959365
2908.776691
3121.618802
-9537.754925
-6489.706594
2119.379435
2175.549391
2394.187249
-3625.984674
-2105.191624
-1867.289695
-2383.60123
-2033.898203
-1995.320289
-2314.045754
-120.7801592
-454.7794614
-844.281719
2436.661046
2839.731552
2463.825371
2616.802474
4140.074882
3849.189501
-4627.008948
-6707.778215
-4568.849379
-2366.843466
-2712.320597
-2588.757227
-2887.053376
-2260.012167
-3660.128523
-2980.193961
-2739.165166
-1125.828358
-220.5292935
-398.3851557
970.3929144
2189.664192
3199.444154
-4366.378294
-1546.763005
587.2441619
-9603.342115
-6606.76916
-9148.366663
-6131.525886
-9006.161449
-6266.420561
-6851.187883
-6890.582698
-5147.071273
-5211.730452
-3187.615973
-3539.502773
-3320.448366
-3523.777243
-3159.043399
-3988.955071
-3579.558253
-3421.018704
1501.498517
1467.347299
1425.097596
-1610.087881
-1898.822528
-1944.507489
1235.197428
1199.178368
1131.675547
1277.293346
1219.714465
1245.325822
3002.786803
2657.529525
2667.397972
2661.484443
3016.998821
2420.039588
2622.072964
2603.851606
3272.531568
3768.386823
3996.369786
3083.232422
3678.966872
3212.148146
3740.517343
3085.223542
-7284.758309
-7291.837683
2093.312518
2180.798679
2083.655255
2289.521166
2280.33326
2402.152115
2188.968458
2266.818199
2259.102047
-6099.716679
-6153.280137
-6048.963267
-5424.137983
-5637.921648
-5090.021668
-5345.183758
-5996.832523
-6750.557303
-5903.207068
-5984.012049
-5700.484348
-5861.139034
-6713.092068
1808.799471
1800.847694
1947.605315
1937.488991
-4165.006128
-4035.581703
-4222.60196
1612.354688
1606.292565
1701.099985
1695.262062
-3102.538852
-2742.385241
-2648.953986
-2760.736495
-3123.349622
1380.731721
1346.693984
1295.221999
1410.232873
1363.239395
1390.21543
-1177.514446
1394.935293
1384.947271
1512.117851
1506.192909
-1948.631238
-1182.671897
-1234.869505
-1515.45842
1107.362601
1033.231354
948.6520381
973.8733172
515.7206569
237.116773
1251.70531
-207.5349174
197.6213697
-122.0204582
1242.193792
-308.3140771
-157.9377279
165.8355482
-8462.128645
-2202.608397
-2371.07077
778.7874635
711.6262507
932.8385358
815.3478936
832.6206098
991.2763469
299.3771987
-74.74705465
-275.6670665
4892.18805
-2403.67396
-2592.257409
-880.3814606
-1143.361504
-1132.377719
-92.95457378
-346.9712606
-49.78321664
1426.196181
2820.622197
4044.329848
-5770.136262
-2103.858268
362.1694339
-6715.596264
-7724.706896
-7553.640629
-7048.874056
-4889.007956
-5087.304605
-4870.893491
-5929.195207
-5737.252449
-5468.432216
1692.199169
1667.181267
1630.961997
1718.191699
1679.59939
1698.350461
1520.399941
1480.842445
1507.66134
1188.222771
1173.84858
1135.684332
915.5710609
725.9055619
457.7564457
-7237.220099
-7808.001144
-7791.680523
-7083.644085
-5908.161385
-5672.090227
-5992.800471
-5949.793315
-7072.69343
-5883.248938
-6177.976886
-5997.424053
-6392.707511
1792.655605
1772.980477
1731.507222
1761.406921
1780.138999
1772.593544
-4803.810389
-4595.04575
-4454.03905
-4183.732358
-3928.623373
-4219.991665
-5137.145372
-4714.044793
-4998.960977
-4318.72833
-4616.106676
-5075.339747
1602.141725
1570.806684
1533.267928
1619.064948
1583.062958
1608.149129
1636.296456
1651.764108
1664.014753
1579.386738
1603.412433
1584.116745
1726.569015
1733.760157
1754.699521
1667.726791
1680.882293
1672.568255
-2557.09209
-2693.451467
-2363.211415
-1371.128868
-1389.558055
1431.22802
1346.7265
1537.509046
1547.32134
1573.172362
1501.149667
1480.632961
-1736.340771
781.6034835
1008.499662
960.5155698
1121.897457
1075.580855
1082.80103
205.8054645
429.4308046
201.4351981
1090.036837
459.6025174
748.9002558
554.4603781
577.6680558
1287.040264
1192.660216
-8796.162165
-8151.122015
-8403.039741
-3782.084465
-3853.058203
-2004.084783
-2151.96733
-2151.476325
2524.474629
2495.959599
4187.084238
4733.15745
4684.435541
4592.10943
4132.131997
-2787.166849
-2595.589014
-2560.268503
-2593.704306
-2804.209938
-1125.752345
-943.5554153
-968.244733
-945.3974693
-1123.111322
-716.1192473
-894.6910881
-466.1268045
-503.3865761
-667.1487378
-296.6206047
-450.594182
-365.3040035
-9403.398696
-8117.78655
-7686.465634
-8351.770506
-8209.480491
-7500.828989
-6752.600098
-8163.531588
-7255.748485
-7124.64197
-6748.098949
-7010.663936
-7491.240634
-7313.017989
-5370.928889
-5160.534143
-4953.750478
-5220.212635
-5437.681916
-4937.86774
-5155.063894
-5512.808677
-5404.991329
-5676.918377
-5448.790098
-3334.512045
-3404.804086
-3374.240905
-3292.901241
-3445.540536
-3828.256838
-3714.740694
-3878.943563
-3496.510121
-3660.755233
-3768.775872
-1813.074544
-1798.713232
-1950.018265
1219.404169
1186.540367
1197.269659
1272.647853
1259.72292
1230.404567
2835.68695
2786.77828
2791.06181
2793.531359
2670.472683
2990.543519
2838.983233
2841.449766
2496.97957
2507.724233
2432.557054
2633.5896
2536.185727
2526.735252
3318.334345
3222.282001
3048.247972
3438.738463
3338.793687
-7967.62505
-7829.223809
-7251.055555
-8028.997001
-8235.358059
-7973.814456
-8315.845698
-8410.297141
-8323.688686
-8278.453301
-7275.186586
-8025.661381
-8026.31153
2136.864115
2133.601627
2107.513087
2175.023275
2143.714325
2148.800792
2068.843232
2045.643456
2100.178091
2076.459378
2326.305092
2334.24993
2286.37682
2411.010501
2352.006573
2342.731243
2222.592223
2220.451821
2185.676281
2271.945531
2232.789702
2235.498045
-6400.266947
-6236.862428
-5938.808568
-6331.265269
-6647.817558
-6448.37879
1840.38332
1817.831653
1874.639224
1847.24291
1782.122554
1764.44088
1809.557484
1787.881277
1996.23938
1964.608112
2037.101996
2006.806331
1912.365003
1883.111297
1954.115408
1922.888335
-4153.634579
-4341.54944
-3937.137462
-4101.145922
-4189.696103
-4647.328622
-4862.305855
-4398.151653
-4583.620771
1624.103454
1645.731615
1630.608469
1651.775443
1627.091977
1667.564526
1658.307036
1621.407981
1589.373899
1606.270913
1617.994671
1710.441429
1726.945458
1719.654846
1730.336478
1713.242595
1757.617279
1736.518028
1682.437427
1670.45651
1704.85496
1687.258984
1678.021137
1685.908862
1703.794312
-2801.424962
-2920.143416
-2984.655136
-2790.994331
-3041.318333
-2967.822674
-1133.23091
-1341.218088
-1359.421428
-1135.468685
1423.514128
1356.996983
1523.238215
1540.068487
1530.794043
1487.477712
1508.496972
1519.151964
-1828.494425
1059.119573
1058.577844
1005.527806
626.7326724
548.8731408
1067.970158
306.8297733
444.8004812
357.6300163
1275.408361
-356.6999645
57.88924277
257.7299383
16.98622298
1196.401912
-3043.34774
-2227.649353
-1508.487962
-2351.242302
-2408.738278
-1127.640592
-1216.44883
-1696.017899
-2410.434255
-917.2451397
-894.779441
-726.7641069
-2173.249218
-1624.834544
-1598.59505
1407.276259
3279.818321
4496.762505
-7056.81153
-2839.925959
153.1521857
-2122.075363
-1833.903922
-4175.248379
-6900.199425
-7824.001965
-8007.835772
1925.92218
1899.383769
1849.089372
1970.207294
1916.77089
1944.505319
-1596.574899
-1747.249413
-1747.215645
-2266.952075
-1979.87113
-1931.274762
1297.912706
1270.114425
1283.404173
-8044.641482
-8041.890342
-7272.819511
1833.007578
1787.456535
1807.39224
1839.740966
1846.012461
1872.39446
1881.149519
1909.660214
1899.913096
1345.133234
1332.542703
1307.334648
-1564.008275
-1515.316788
-1506.444382
1334.81631
1344.32362
1337.76509
-1671.189361
-1679.403266
-1574.198587
-1392.284176
-1393.384289
-1546.271168
1126.560625
1310.94322
1318.184395
1326.251255
1163.651718
-9443.43869
-3664.896101
-2017.034312
-2092.536338
-2096.121346
-2354.239061
-2195.796787
-2167.433962
2579.53345
-5547.851646
-5030.37973
-6105.130825
-2512.075145
-2563.340836
-2399.959542
-709.7825476
-724.3385153
-541.3412025
-548.6665177
-651.7470445
-2867.999009
-2443.75386
-5538.980957
-9329.334561
-8793.491969
-8632.516571
-9037.999755
-9087.388307
-3237.49054
-3272.194953
-3219.415197
-3553.93915
-3557.711647
-3532.020918
-3086.983892
-3238.510931
-3311.612966
-3950.463819
-3891.800102
-3950.170663
-1942.87556
-1921.491118
-1954.158682
2940.513734
3022.254745
2698.988051
2702.530153
2706.819778
2666.325477
2438.42335
2449.592433
2427.340894
2628.169147
2593.155219
2587.112073
3465.610443
3288.402197
3407.659139
3635.610363
3658.528714
3801.198938
3089.71913
3160.912108
3161.477587
2118.347554
2115.235922
2113.361924
2178.631394
2168.673791
2171.215208
2066.222585
2060.132293
2108.114708
2099.516905
2296.278098
2298.377701
2283.226922
2406.360431
2385.787609
2382.399862
2197.536001
2197.919778
2188.026655
2269.392109
2257.331923
2256.479314
1815.679064
1838.42622
1831.199911
1779.905251
1786.430769
1807.893388
1960.441199
1991.112731
1975.525633
1983.177819
1972.093143
2052.977568
2042.52765
1894.658931
1961.118307
1950.249036
1909.844006
1919.760015
1950.217977
-4339.946569
-4417.052361
-4010.355487
-4081.475752
-4103.503859
-4488.347374
-4497.475973
-4392.638005
-4532.213051
-4352.893058
1366.966115
1341.622042
1353.59385
1417.213473
1400.447687
1376.028701
1399.386379
1410.866436
1405.1356
1375.409378
1379.321796
1388.797696
-1953.633711
982.5255946
997.8854663
963.8675011
661.4091424
989.6323276
397.3030062
506.5920162
612.9819289
1258.253922
1264.069484
1259.486132
-271.1950416
-114.796223
-95.86226438
-111.8226656
1230.437193
1237.637425
1249.54805
-18.79785722
-104.2593814
-245.8978358
-2235.420071
-2284.009417
-2395.523968
-2345.17031
-2325.268239
5073.144855
5080.068996
5057.272808
-2465.882166
-2490.818338
-2400.135012
-2609.414193
-2549.506066
-2540.325615
-3897.142244
-3221.952054
-6664.244013
-6979.340358
-6998.367761
-6886.234611
-6935.978912
-7663.920578
-7474.831824
-7525.51403
-7378.178905
-7427.101353
-7609.112238
-5870.753105
-5782.859859
-5845.164676
-5647.149022
-5718.30092
-5808.155554
-7848.169358
-7631.186516
-7635.967071
-7577.453744
-7617.097975
-7840.719906
-6113.548224
-6026.177495
-6085.019439
-5908.15241
-5967.681449
-6058.728357
-6795.795673
-6840.81807
-6671.660355
-6734.178168
1656.390999
1651.131467
1646.075349
1586.030904
1581.975367
1574.986058
1596.121144
1589.586171
1594.561493
-1512.854673
-1569.550748
-1367.782983
-1454.679171
1448.884612
1444.237319
1462.138703
1454.253966
1350.98612
1342.588259
1348.69162
1344.998602
1555.937232
1552.764708
1544.926523
1568.257747
1560.851299
1565.234213
1476.914496
1471.697207
1493.236374
1475.513677
1483.699455
-1740.793893
-1735.724282
-1728.828308
-1573.54077
986.3534264
999.4644727
1066.539865
1102.78835
1097.19834
1078.012951
1110.217594
411.4904807
401.7320311
1028.348279
922.5066109
716.6798216
1288.875146
1305.576426
1299.879143
1177.973826
-9399.246483
-9680.15519
-9142.377229
-9027.284606
-8496.036456
-7568.105488
-9357.374927
-9018.830077
-3715.850119
-3869.432649
-2155.16542
-2146.476651
-2149.518298
2550.808119
2464.295394
4789.055189
4595.677957
4544.443626
4126.250411
3992.705526
4422.998217
4259.341084
4399.115112
-2684.123154
-2603.800563
-2742.966057
-959.0084913
-953.426311
-941.3746174
-1064.117825
-753.993975
-728.1823905
-716.9250374
-880.7175301
-818.299536
-819.7567202
-475.7702407
-531.4167508
-524.8211198
-348.8110293
-357.1191832
-402.9765275
-8997.482301
-8913.064527
-9387.183807
-8313.386034
-8702.946375
-8702.581437
-9142.638238
-9126.673415
-7195.156161
-7078.092678
-7122.65611
-7020.930509
-7035.440373
-7139.958945
-7426.652845
-7272.356548
-7326.165841
-7171.161441
-7220.621842
-7369.196611
-5301.054973
-5224.858539
-5294.084058
-5287.811576
-5364.230776
-4980.755522
-5010.339254
-4987.262075
-5090.810155
-5595.098076
-5627.916206
-5581.849597
-5497.183396
-5572.301696
-5366.613581
-5435.681415
-5526.782394
-3374.635039
-3277.546716
-3274.854205
-3291.34315
-3230.334918
-3291.554934
-3479.342702
-3502.10985
-3431.004833
-3785.334863
-3828.817236
-3851.158681
2887.451022
2741.651358
2502.137036
2474.033066
2462.578281
2555.947807
2561.03017
2531.053261
3444.204988
3545.741174
3537.366891
3854.114106
3721.731865
3244.953019
3244.397965
3341.463041
-7910.056919
-7699.795408
-7733.032126
-7646.611452
-7669.841605
-7865.55505
-8090.680973
-8153.691133
-8373.348404
-8738.176513
-8643.007133
-8829.77065
-8832.21235
-8418.512389
-8347.33693
-8572.090128
-8527.260793
-8268.798166
2136.322378
2126.878637
2127.529819
2160.48536
2158.093132
2147.192961
2078.123254
2072.050175
2091.370128
2084.477757
2329.687051
2313.810242
2311.512235
2361.775685
2365.678563
2346.837038
2221.80173
2209.37066
2208.981746
2246.598497
2245.904835
2234.188903
-6349.890279
-6254.537608
-6304.783056
-6141.982036
-6198.803405
-6290.40755
-6592.219602
-6495.60584
-6580.145569
-6355.778491
-6418.960625
-6515.332217
1833.408459
1835.625387
1841.677513
1819.948747
1828.415127
1825.884015
1864.587408
1863.711959
1875.450714
1847.091557
1853.8569
1855.085698
1776.553612
1779.046926
1783.785461
1767.787581
1773.798707
1770.720296
1801.61213
1802.331517
1810.880686
1788.679497
1794.768591
1794.336634
2005.681159
1994.45683
1985.716817
1990.37866
2001.208498
1968.627293
1979.47531
1975.15707
2029.434783
2016.978814
1918.424258
1908.698532
1902.079502
1905.244667
1915.414242
1884.237426
1888.678151
1891.092544
1943.674641
1947.202503
1957.875239
1926.122383
1936.631979
1933.27822
1939.609881
1929.066925
-4246.660771
-4282.901238
-4175.57338
-4143.210987
-4165.414431
-4707.453197
-4737.748672
-4687.046878
-4900.012443
-4807.193864
-4777.748609
-4444.35148
-4476.227244
-4452.257539
-4631.531997
-4576.294624
-4513.255288
1630.739365
1626.869198
1620.314266
1640.264505
1633.69359
1638.29403
1642.663652
1633.92163
1664.907746
1661.999982
1617.218884
1607.117508
1601.374889
1601.238965
1599.163772
1613.944402
1608.181196
1613.264518
1717.006423
1722.101855
1733.65878
1717.88356
1750.460173
1753.072247
1760.683566
1739.449512
1746.022565
1743.468243
1677.872767
1673.841128
1697.631054
1692.153328
-2920.705463
-2905.544723
-2975.305929
-2789.398086
-2842.976298
-2878.040267
-3113.145033
-3161.652015
-3024.667544
-3024.987021
-3034.171668
-1292.98592
-1301.278445
-1356.808893
-1155.605058
-1222.736269
-1227.654895
1416.402175
1402.932981
1438.529289
1429.350448
1361.919667
1369.981354
1365.923223
1373.121595
1365.490404
1391.564919
1382.125521
1528.219947
1525.705673
1520.300047
1537.884695
1531.54559
1533.816509
1512.855534
1506.08995
1500.172221
1515.367544
1510.789666
1515.970742
-1893.232084
1055.957971
1031.359544
1032.370257
592.1644683
595.7059625
641.3832596
549.2630616
552.8034835
542.7034328
1043.650097
396.3852132
351.2693697
289.2747885
1266.635474
1268.674772
1275.548452
-336.5926422
140.868365
87.3647589
243.8792701
236.2951332
245.1105356
72.33502005
-55.18322912
-36.39921239
62.09415444
1209.972276
1226.498037
1218.69602
897.6104044
842.9678527
813.360074
820.1303539
737.6080781
703.3338916
703.9315699
586.1221135
553.3874962
540.3901314
388.4622072
363.8093819
332.3345658
156.2536648
148.4469205
95.18138801
-84.01304311
-70.96421292
-142.0078281
-300.8239097
-273.1760383
-349.1014825
-475.1015682
-442.4196409
-511.9373957
-604.2037029
-573.0727032
-630.3408943
-694.5892097
-669.0155622
953.1384864
911.112508
857.0830104
892.540266
819.4790803
754.024091
788.5521159
673.1502403
602.7393238
626.3761215
459.8237282
401.3297751
395.6752538
183.2603722
160.4463851
108.1439383
-114.8145142
-90.48662322
-185.0017432
-371.8147972
-314.8877948
-424.9707943
-556.4054908
-491.240919
-591.7435621
-676.8423969
-619.1876269
-699.5246688
-753.653119
-706.80717
1031.531049
1010.856863
933.1299155
999.779304
949.5823968
847.3468226
925.9451142
827.4694228
704.5722559
783.206433
605.1483274
487.6181477
528.5499299
249.0689882
195.1850283
144.018361
-170.4365365
-125.3358998
-266.2176334
-502.6700141
-397.2618942
-563.0620421
-695.5055562
-584.7368478
-726.787928
-792.6537079
-701.1375038
-807.4649042
-838.5137675
-772.7539057
1125.034691
1135.32975
1040.600397
1136.851172
1129.046325
989.8270484
1121.06797
1071.18646
879.1580044
1042.09408
881.8778372
658.7584268
792.6740592
383.4135978
274.5861194
208.6429957
-316.5718586
-193.3495153
-462.5379145
-764.6971096
-551.3301637
-826.5150735
-928.5567244
-743.5005418
-942.1862488
-955.6837181
-828.8805002
-954.2478732
-945.7138806
-863.3966533
1216.597764
1263.25205
1168.607721
1279.182994
1329.804135
1178.883002
1348.126063
1406.109642
1148.586559
1422.740631
1417.926828
984.3786369
1361.144179
609.9467927
433.5341858
385.1532947
-859.1964894
-391.9253549
-1064.835904
-1311.490414
-866.9629729
-1322.472612
-1275.569121
-1003.80315
-1247.683228
-1160.529207
-1002.992945
-1133.750727
-1066.983152
-975.2381134
1285.859537
1362.473855
1292.205908
1391.159009
1494.922647
1376.948286
1538.694321
1719.98336
1494.371002
1806.79118
2306.685083
1613.84747
1947.033092
1953.169394
1387.983792
402.7920232
-1120.729121
-439.8317401
-1875.243595
-1784.079343
-1460.429942
-2077.654139
-1708.431206
-1380.07512
-1609.798165
-1376.54094
-1215.91602
-1317.002878
-1181.359166
-1097.291304
1315.147654
1405.585127
1379.317866
1439.669876
1562.067271
1522.364877
1612.794985
1812.796488