/*--------------------------------*- C++ -*----------------------------------*\
| =========                 |                                                 |
| \\      /  F ield         | OpenFOAM: The Open Source CFD Toolbox           |
|  \\    /   O peration     | Version:  v1912                                 |
|   \\  /    A nd           | Website:  www.openfoam.com                      |
|    \\/     M anipulation  |                                                 |
\*---------------------------------------------------------------------------*/
FoamFile
{
    version     2.0;
    format      ascii;
    class       pointVectorField;
    location    "2.79";
    object      pointDisplacement;
}
// * * * * * * * * * * * * * * * * * * * * * * * * * * * * * * * * * * * * * //

dimensions      [0 1 0 0 0 0 0];


internalField   nonuniform List<vector> 
26316
(
(0 0 0)
(0 0 0)
(0 0 0)
(0 0 0)
(0 0 0)
(0 0 0)
(0 0 0)
(0 0 0)
(0 0 0)
(0 0 0)
(0 0 0)
(0 0 0)
(0 0 0)
(0 0 0)
(0 0 0)
(0 0 0)
(0 0 0)
(0 0 0)
(0 0 0)
(0 0 0)
(0 0 0)
(0 0 0)
(0 0 0)
(0 0 0)
(0 0 0)
(0 0 0)
(0 0 0)
(0 0 0)
(0 0 0)
(0 0 0)
(0 0 0)
(0 0 0)
(0 0 0)
(0 0 0)
(0 0 0)
(0 0 0)
(0 0 0)
(0 0 0)
(0 0 0)
(0 0 0)
(0 0 0)
(0 0 0)
(0 0 0)
(0 0 0)
(0 0 0)
(0 0 0)
(0 0 0)
(0 0 0)
(0 0 0)
(0 0 0)
(0 0 0)
(0 0 0)
(0 0 0)
(0 0 0)
(0 0 0)
(0 0 0)
(0 0 0)
(0 0 0)
(0 0 0)
(0 0 0)
(0 0 0)
(0 0 0)
(0 0 0)
(0 0 0)
(0 0 0)
(0 0 0)
(0 0 0)
(0 0 0)
(0 0 0)
(0 0 0)
(0 0 0)
(0 0 0)
(0 0 0)
(0 0 0)
(0 0 0)
(0 0 0)
(0 0 0)
(0 0 0)
(0 0 0)
(0 0 0)
(0 0 0)
(0 0 0)
(0 0 0)
(0 0 0)
(0 0 0)
(0 0 0)
(0 0 0)
(0 0 0)
(0 0 0)
(0 0 0)
(0 0 0)
(0 0 0)
(0 0 0)
(0 0 0)
(0 0 0)
(0 0 0)
(0 0 0)
(0 0 0)
(0 0 0)
(0 0 0)
(0 0 0)
(0 0 0)
(0 0 0)
(0 0 0)
(0 0 0)
(0 0 0)
(0 0 0)
(0 0 0)
(0 0 0)
(0 0 0)
(0 0 0)
(0 0 0)
(0 0 0)
(0 0 0)
(0 0 0)
(0 0 0)
(0 0 0)
(0 0 0)
(0 0 0)
(-7.262981259e-07 -1.4026236e-06 2.775557562e-17)
(0 0 0)
(0 0 0)
(-4.004596004e-07 -1.571260764e-05 3.330669074e-16)
(1.850474011e-06 -1.335532057e-05 2.91433544e-16)
(0 0 0)
(0 0 0)
(0 0 0)
(0 0 0)
(0 0 0)
(0 0 0)
(0 0 0)
(0 0 0)
(0 0 0)
(0 0 0)
(0 0 0)
(0 0 0)
(0 0 0)
(0 0 0)
(0 0 0)
(0 0 0)
(0 0 0)
(0 0 0)
(0 0 0)
(0 0 0)
(0 0 0)
(0 0 0)
(0 0 0)
(0 0 0)
(0 0 0)
(0 0 0)
(0 0 0)
(0 0 0)
(0 0 0)
(0 0 0)
(0 0 0)
(0 0 0)
(0 0 0)
(0 0 0)
(0 0 0)
(0 0 0)
(0 0 0)
(0 0 0)
(0 0 0)
(0 0 0)
(0 0 0)
(0 0 0)
(0 0 0)
(0 0 0)
(0 0 0)
(0 0 0)
(0 0 0)
(0 0 0)
(0 0 0)
(0 0 0)
(0 0 0)
(0 0 0)
(0 0 0)
(0 0 0)
(0 0 0)
(0 0 0)
(0 0 0)
(0 0 0)
(0 0 0)
(0 0 0)
(0 0 0)
(-4.524704568e-05 -3.659490884e-05 4.857225733e-16)
(-0.0002603496595 -0.000229453473 3.080868893e-15)
(-3.405118915e-06 -2.715577129e-06 4.163336342e-17)
(-0.0004940388719 -0.0005394789618 8.007483565e-15)
(-0.001225396111 -0.001481268737 1.990074772e-14)
(-0.001452605064 -0.0020055877 2.696454171e-14)
(-0.0006785338193 -0.0008454638501 1.254552018e-14)
(-0.000822874947 -0.001780916336 2.645106356e-14)
(-0.001436917129 -0.003464334933 4.658773367e-14)
(-0.001193932106 -0.003828767097 5.147271498e-14)
(-0.0007066873871 -0.002026846717 3.008704397e-14)
(-2.341720602e-05 -0.002372578068 3.519406988e-14)
(-2.071310728e-05 -0.00433399297 5.820344207e-14)
(0.0004143632261 -0.004280219906 5.745404152e-14)
(0.0002390984906 -0.002334443614 3.462508058e-14)
(0.0007836369731 -0.001791037236 2.653433029e-14)
(0.001392312605 -0.003485639753 4.671263376e-14)
(0.001522504428 -0.003046109362 4.082845173e-14)
(0.0008229600473 -0.001499398172 2.221833828e-14)
(0.0004829252257 -0.0005470169455 8.10462808e-15)
(0.001199546649 -0.00149820972 2.008115896e-14)
(0.0009018363517 -0.001000703016 1.341982081e-14)
(0.0002820147228 -0.0002835735057 4.204969706e-15)
(0 0 0)
(4.746883304e-05 -3.941432476e-05 5.273559367e-16)
(0 0 0)
(0 0 0)
(0 0 0)
(0 0 0)
(0 0 0)
(0 0 0)
(0 0 0)
(0 0 0)
(0 0 0)
(0 0 0)
(0 0 0)
(0 0 0)
(0 0 0)
(0 0 0)
(0 0 0)
(0 0 0)
(0 0 0)
(0 0 0)
(0 0 0)
(0 0 0)
(0 0 0)
(0 0 0)
(0 0 0)
(0 0 0)
(0 0 0)
(0 0 0)
(0 0 0)
(0 0 0)
(0 0 0)
(0 0 0)
(0 0 0)
(0 0 0)
(0 0 0)
(0 0 0)
(0 0 0)
(0 0 0)
(0 0 0)
(0 0 0)
(0 0 0)
(0 0 0)
(0 0 0)
(0 0 0)
(0 0 0)
(0 0 0)
(0 0 0)
(0 0 0)
(-0.0001263668436 -0.0001061530959 1.026956298e-15)
(-0.0006901326138 -0.0006179460975 6.009082121e-15)
(-0.0001635133971 -0.000136325316 1.415534356e-15)
(-0.002329274592 -0.002423846163 2.535471832e-14)
(-0.003721962359 -0.004162897734 4.059252934e-14)
(-0.004741986369 -0.00578959998 5.651035195e-14)
(-0.003198871006 -0.003631923904 3.802513859e-14)
(-0.00494696531 -0.007753751952 8.135159213e-14)
(-0.006529603416 -0.0110293566 1.078581668e-13)
(-0.006546347212 -0.01268593375 1.24067423e-13)
(-0.005069117604 -0.009105563921 9.554856906e-14)
(-0.003904569339 -0.01246998945 1.307565167e-13)
(-0.004825564937 -0.01671943601 1.633415625e-13)
(-0.00376423688 -0.01764376319 1.722372245e-13)
(-0.00308011256 -0.01325335533 1.388889004e-13)
(0.000104768127 -0.01432589122 1.497135749e-13)
(0.0001888882049 -0.01890789646 1.840055885e-13)
(0.001569720563 -0.01879805282 1.827288321e-13)
(0.001227566644 -0.01422677028 1.485478407e-13)
(0.004033053761 -0.01258171106 1.310340725e-13)
(0.005088977402 -0.01688527954 1.636468738e-13)
(0.005879326651 -0.01575064359 1.525446436e-13)
(0.004624295609 -0.01162113836 1.209587985e-13)
(0.004944625467 -0.007860499467 8.176792576e-14)
(0.006582128452 -0.01119797221 1.083577672e-13)
(0.006219928467 -0.009434668728 9.131584378e-14)
(0.004551448959 -0.006445693993 6.705747069e-14)
(0.00231391297 -0.002464961201 2.568778523e-14)
(0.003703195127 -0.00423279306 4.103661855e-14)
(0.002615649649 -0.002760821008 2.678413047e-14)
(0.001451496339 -0.001427327729 1.487698853e-14)
(0 0 0)
(0.0001254616677 -0.0001073602648 1.040834086e-15)
(0 0 0)
(0 0 0)
(0 0 0)
(0 0 0)
(0 0 0)
(0 0 0)
(0 0 0)
(0 0 0)
(0 0 0)
(0 0 0)
(0 0 0)
(0 0 0)
(0 0 0)
(0 0 0)
(0 0 0)
(0 0 0)
(0 0 0)
(0 0 0)
(0 0 0)
(0 0 0)
(0 0 0)
(0 0 0)
(0 0 0)
(0 0 0)
(0 0 0)
(0 0 0)
(0 0 0)
(0 0 0)
(0 0 0)
(0 0 0)
(0 0 0)
(0 0 0)
(0 0 0)
(0 0 0)
(0 0 0)
(0 0 0)
(0 0 0)
(0 0 0)
(0 0 0)
(-5.436939738e-05 -4.91097796e-05 3.747002708e-16)
(0 0 0)
(-0.002312452994 -0.002343156108 1.890154699e-14)
(-0.003435900512 -0.003676142868 2.806088695e-14)
(-0.005372242121 -0.006131998745 4.687916721e-14)
(-0.003946335222 -0.004264463243 3.444466934e-14)
(-0.008983866898 -0.01215713246 9.856004901e-14)
(-0.01089368976 -0.01559425506 1.196959198e-13)
(-0.01215612598 -0.01902466164 1.46174739e-13)
(-0.01023639278 -0.01513961195 1.228600555e-13)
(-0.01154904842 -0.02375031065 1.929845173e-13)
(-0.01314859487 -0.02863985764 2.202821259e-13)
(-0.01251009187 -0.03134383156 2.410155409e-13)
(-0.01109884819 -0.02624516148 2.132183319e-13)
(-0.007465264059 -0.03193022581 2.58862376e-13)
(-0.008224590038 -0.03732876134 2.863820292e-13)
(-0.006223594108 -0.03858250234 2.956523915e-13)
(-0.005681917286 -0.03315915054 2.685351941e-13)
(0.0004786595508 -0.03482654302 2.809141808e-13)
(0.0005517057852 -0.04026818463 3.072819776e-13)
(0.002865058803 -0.04016874703 3.060607323e-13)
(0.002591448513 -0.03471407085 2.796096688e-13)
(0.008241998607 -0.0323143075 2.592648318e-13)
(0.00914915677 -0.03779052522 2.867567295e-13)
(0.01081403592 -0.03623865053 2.746691763e-13)
(0.0096868641 -0.03080100868 2.468580895e-13)
(0.01189847446 -0.02421061695 1.936784066e-13)
(0.01361280782 -0.02920401863 2.208788707e-13)
(0.0136472802 -0.02615889417 1.978001096e-13)
(0.01179872114 -0.02144360219 1.715294573e-13)
(0.008972479898 -0.01230833453 9.85739268e-14)
(0.01118820102 -0.01617549749 1.222771884e-13)
(0.009633924296 -0.01288244408 9.736655926e-14)
(0.007632654104 -0.009665156373 7.738254482e-14)
(0.002640416639 -0.002723134336 2.182976022e-14)
(0.003947077861 -0.0043019194 3.261280135e-14)
(0.002226367398 -0.002284076099 1.733335697e-14)
(0.001272073051 -0.001234810666 9.908740495e-15)
(0 0 0)
(0 0 0)
(0 0 0)
(0 0 0)
(0 0 0)
(0 0 0)
(0 0 0)
(0 0 0)
(0 0 0)
(0 0 0)
(0 0 0)
(0 0 0)
(0 0 0)
(0 0 0)
(0 0 0)
(0 0 0)
(0 0 0)
(0 0 0)
(0 0 0)
(0 0 0)
(0 0 0)
(0 0 0)
(0 0 0)
(0 0 0)
(0 0 0)
(0 0 0)
(0 0 0)
(0 0 0)
(0 0 0)
(0 0 0)
(0 0 0)
(0 0 0)
(0 0 0)
(0 0 0)
(0 0 0)
(-0.0002512845309 -0.0002506553482 1.637578961e-15)
(-0.0005714348543 -0.0005963804467 3.719247132e-15)
(-0.002029203048 -0.00222699666 1.391942117e-14)
(-0.001364338599 -0.001431208265 9.353628982e-15)
(-0.008006050314 -0.009946490609 6.528111385e-14)
(-0.009469549963 -0.01230724182 7.724376694e-14)
(-0.0121961927 -0.01690030909 1.062205879e-13)
(-0.01057588422 -0.01400893247 9.209299989e-14)
(-0.01663374861 -0.02757792695 1.820904538e-13)
(-0.01836625025 -0.03185556118 2.009226119e-13)
(-0.01932593235 -0.03662040026 2.311761893e-13)
(-0.01766811088 -0.03201621339 2.116917752e-13)
(-0.01733774506 -0.04380165513 2.901567875e-13)
(-0.01841396556 -0.04851150425 3.069350329e-13)
(-0.01694648234 -0.05135797033 3.248928904e-13)
(-0.01601111128 -0.04652385021 3.080591338e-13)
(-0.009904882499 -0.05211396033 3.441552598e-13)
(-0.01025501369 -0.05605295929 3.536754223e-13)
(-0.007612146279 -0.05665368632 3.570477247e-13)
(-0.007393930376 -0.05302266586 3.497202528e-13)
(0.0005797890222 -0.05409104121 3.552713679e-13)
(0.0005194939568 -0.05718596947 3.589489816e-13)
(0.003241172793 -0.05725969076 3.588934705e-13)
(0.00326601157 -0.05409686086 3.547856453e-13)
(0.01105961667 -0.05282150281 3.448907826e-13)
(0.01134435098 -0.05676267857 3.541611449e-13)
(0.01379992659 -0.05590995828 3.48332474e-13)
(0.01335300484 -0.05165139699 3.367583989e-13)
(0.01810361461 -0.04476184805 2.907951657e-13)
(0.01924318199 -0.04968253458 3.080036226e-13)
(0.02013703434 -0.04647132302 2.876587857e-13)
(0.01874685909 -0.0413659896 2.682853939e-13)
(0.01723934734 -0.02889694188 1.872668687e-13)
(0.01899951974 -0.03332334021 2.06279438e-13)
(0.01738412195 -0.02822172085 1.748323708e-13)
(0.01559128567 -0.02418978083 1.56902269e-13)
(0.008470354983 -0.01072153697 6.979139489e-14)
(0.009985225848 -0.01322608942 8.222589276e-14)
(0.007194724274 -0.008972570076 5.584421814e-14)
(0.005894135669 -0.007024087153 4.578282198e-14)
(0.0003887610563 -0.0003936967151 2.567390744e-15)
(0.0006678802722 -0.0007079313642 4.413136523e-15)
(1.695370685e-05 -1.711389974e-05 1.110223025e-16)
(0 0 0)
(0 0 0)
(0 0 0)
(0 0 0)
(0 0 0)
(0 0 0)
(0 0 0)
(0 0 0)
(0 0 0)
(0 0 0)
(0 0 0)
(0 0 0)
(0 0 0)
(0 0 0)
(0 0 0)
(0 0 0)
(0 0 0)
(0 0 0)
(0 0 0)
(0 0 0)
(0 0 0)
(0 0 0)
(0 0 0)
(0 0 0)
(0 0 0)
(0 0 0)
(0 0 0)
(0 0 0)
(0 0 0)
(-2.391825929e-05 -2.776422248e-05 1.387778781e-16)
(-6.526644251e-07 -7.300684708e-07 0)
(0 0 0)
(-0.0017937953 -0.002120347658 1.168509733e-14)
(-0.002264007835 -0.002780452149 1.475208844e-14)
(-0.004695802367 -0.006062989468 3.22103455e-14)
(-0.004006403645 -0.00497916727 2.747801986e-14)
(-0.01299113932 -0.01911008148 1.059291543e-13)
(-0.01414060906 -0.02160544439 1.152689055e-13)
(-0.0171637995 -0.02795119773 1.493249968e-13)
(-0.01626039357 -0.02549626168 1.415534356e-13)
(-0.02240554801 -0.04392833149 2.446237657e-13)
(-0.02333624345 -0.04748894467 2.544631172e-13)
(-0.02392223828 -0.05313568318 2.84827717e-13)
(-0.02307897379 -0.04940392165 2.752242878e-13)
(-0.02071623643 -0.06121147557 3.408523463e-13)
(-0.02116528675 -0.06478948232 3.469863286e-13)
(-0.01900561836 -0.0665175278 3.559930128e-13)
(-0.01872175823 -0.06332226922 3.524680547e-13)
(-0.0107894228 -0.06456640647 0)
(-0.01097619985 -0.06720273978 0)
(-0.009604369835 -0.06721983774 0)
(-0.008157077531 -0.06717949402 0)
(-0.008052479615 -0.06587481408 0)
(-0.008002103611 -0.06460023595 0)
(0.0002909313674 -0.06479475394 0)
(0.0002531942544 -0.06606252171 0)
(0.001642114995 -0.06610275298 0)
(0.001672326511 -0.06483488052 0)
(0.01145627601 -0.06523109856 0)
(0.01145896935 -0.0665343916 0)
(0.01147091298 -0.06785815034 0)
(0.01285135811 -0.06793910589 0)
(0.01421249387 -0.06799436806 0)
(0.01423020647 -0.06537783787 0)
(0.02140508072 -0.06281315252 3.432115703e-13)
(0.02171890286 -0.06637657003 3.490541189e-13)
(0.02335568391 -0.06376884728 3.350653088e-13)
(0.02286549345 -0.05997208166 3.274325255e-13)
(0.02306296609 -0.04589804321 2.504524366e-13)
(0.0238853761 -0.04944774045 2.59514632e-13)
(0.02266401797 -0.04341066733 2.278871536e-13)
(0.02164104047 -0.03985391054 2.175620795e-13)
(0.01394561894 -0.02095079959 1.146860384e-13)
(0.01525119446 -0.0238177566 1.253996906e-13)
(0.01201292047 -0.01766046431 9.31060784e-14)
(0.01081954117 -0.0153028098 8.387734951e-14)
(0.002407534655 -0.002892470697 1.590394483e-14)
(0.003009377387 -0.003757327447 1.988686993e-14)
(0.001078030774 -0.001281382885 6.786238238e-15)
(0.0007334699486 -0.0008389741601 4.62130334e-15)
(0 0 0)
(0 0 0)
(0 0 0)
(0 0 0)
(0 0 0)
(0 0 0)
(0 0 0)
(0 0 0)
(0 0 0)
(0 0 0)
(0 0 0)
(0 0 0)
(0 0 0)
(0 0 0)
(0 0 0)
(0 0 0)
(0 0 0)
(0 0 0)
(0 0 0)
(0 0 0)
(0 0 0)
(0 0 0)
(0 0 0)
(0 0 0)
(0 0 0)
(0 0 0)
(0 0 0)
(0 0 0)
(-0.0002155151687 -0.000286612901 1.276756478e-15)
(-0.0001228161327 -0.0001581333805 7.21644966e-16)
(-0.0001004743053 -0.0001251221078 5.967448757e-16)
(-0.003253050467 -0.004446120725 2.119138198e-14)
(-0.003373804539 -0.004766958086 2.19685381e-14)
(-0.00624581447 -0.009275398093 4.27990976e-14)
(-0.006080614072 -0.008735499602 4.167499679e-14)
(-0.01634089971 -0.02775341974 1.329492072e-13)
(-0.01660445528 -0.02914294375 1.350031198e-13)
(-0.01976156906 -0.03694607898 1.713629239e-13)
(-0.0194791988 -0.03524515061 1.690592111e-13)
(-0.02523846589 -0.05694938379 2.738226312e-13)
(-0.02551068664 -0.05943842442 2.76320633e-13)
(-0.02583099872 -0.0656060484 3.05033776e-13)
(-0.02558224733 -0.06294520391 3.027023077e-13)
(-0.0218987294 -0.07393249361 3.551187122e-13)
(-0.02202884021 -0.07666871074 3.559930128e-13)
(-0.01950177802 -0.07737971506 0)
(-0.01942149515 -0.07479851876 3.589628594e-13)
(-0.01129953452 -0.07501010147 0)
(-0.01134597158 -0.0763180227 0)
(-0.009993062438 -0.07635034348 0)
(-0.009946805229 -0.07504447937 0)
(0.01132984459 -0.07564309362 0)
(0.01129909225 -0.07693878041 0)
(0.01265125375 -0.07698428038 0)
(0.01268337315 -0.07569055352 0)
(0.02205241571 -0.07564855196 3.572003804e-13)
(0.02203230894 -0.07839294135 3.580469254e-13)
(0.02422419468 -0.07687133681 3.507888424e-13)
(0.02415562311 -0.07393496378 3.487765632e-13)
(0.02616606068 -0.06053959762 2.853273173e-13)
(0.0264611254 -0.06340471647 2.890465645e-13)
(0.02554134058 -0.05656275584 2.57946442e-13)
(0.02519448034 -0.05388974108 2.540745392e-13)
(0.01789519436 -0.03115330142 1.47284962e-13)
(0.01829441466 -0.03295235101 1.5068502e-13)
(0.01485295029 -0.02517158989 1.1524115e-13)
(0.01447355554 -0.0237097919 1.122435478e-13)
(0.004366252082 -0.006069862063 2.883804306e-14)
(0.004930453326 -0.007090052225 3.257116798e-14)
(0.002351292551 -0.003218115897 1.47937218e-14)
(0.00193562428 -0.002561287027 1.21846977e-14)
(0 0 0)
(0 0 0)
(0 0 0)
(0 0 0)
(0 0 0)
(0 0 0)
(0 0 0)
(0 0 0)
(0 0 0)
(0 0 0)
(0 0 0)
(0 0 0)
(0 0 0)
(0 0 0)
(0 0 0)
(0 0 0)
(0 0 0)
(0 0 0)
(0 0 0)
(0 0 0)
(0 0 0)
(0 0 0)
(0 0 0)
(0 0 0)
(0 0 0)
(0 0 0)
(0 0 0)
(0 0 0)
(-0.0003537830722 -0.000530261232 2.095545959e-15)
(-0.000319536149 -0.0004654514225 1.887379142e-15)
(-0.0002803234867 -0.0003964971751 1.665334537e-15)
(-0.004008962489 -0.006220755869 2.610411887e-14)
(-0.00414555193 -0.006624532951 2.69784195e-14)
(-0.007229140815 -0.01213914667 4.95159469e-14)
(-0.007057987082 -0.01150935649 4.833633493e-14)
(-0.01765065756 -0.03398576875 1.432604035e-13)
(-0.01786743244 -0.03541344795 1.449396159e-13)
(-0.02100602598 -0.04431720681 1.815769757e-13)
(-0.02079130965 -0.04262087198 1.798700078e-13)
(-0.02629945086 -0.06703335329 2.834399382e-13)
(-0.02647304804 -0.06939033544 2.84827717e-13)
(-0.02665403418 -0.07605700951 3.122085923e-13)
(-0.02650136204 -0.0735589874 3.110567359e-13)
(-0.02233484608 -0.0846323713 3.573807916e-13)
(-0.02242044592 -0.08723405941 3.575889584e-13)
(-0.01979970574 -0.08764541366 0)
(-0.01972701545 -0.08508532865 0)
(-0.01161872836 -0.08532400719 0)
(-0.01165587126 -0.08660491678 0)
(-0.01030656115 -0.08664444699 0)
(-0.01026924026 -0.08536354268 0)
(0.01105363756 -0.0859792768 0)
(0.01101567758 -0.08726770408 0)
(0.0123647116 -0.08730853257 0)
(0.01240288952 -0.086020765 0)
(0.02185609516 -0.08629648786 3.589073483e-13)
(0.02177928411 -0.08887728771 3.589489816e-13)
(0.02420259881 -0.08792792911 3.548272787e-13)
(0.02424335022 -0.08525658557 3.542860449e-13)
(0.02720052746 -0.07198872629 2.988304049e-13)
(0.02731098562 -0.07458580304 3.006622729e-13)
(0.02667889877 -0.06725539081 2.711719738e-13)
(0.02651479799 -0.06479657534 2.690347944e-13)
(0.01972628055 -0.03912840273 1.628419621e-13)
(0.02000636674 -0.04090525516 1.652844528e-13)
(0.01660594774 -0.03192270943 1.291466933e-13)
(0.0163120892 -0.03042667744 1.267735916e-13)
(0.005653045512 -0.008935910175 3.737288257e-14)
(0.005882574306 -0.009579732586 3.888556144e-14)
(0.003033594484 -0.004700594798 1.909583602e-14)
(0.00285994283 -0.004301862875 1.801336857e-14)
(0 0 0)
(0 0 0)
(0 0 0)
(0 0 0)
(0 0 0)
(0 0 0)
(0 0 0)
(0 0 0)
(0 0 0)
(0 0 0)
(0 0 0)
(0 0 0)
(0 0 0)
(0 0 0)
(0 0 0)
(0 0 0)
(0 0 0)
(0 0 0)
(0 0 0)
(0 0 0)
(0 0 0)
(0 0 0)
(0 0 0)
(0 0 0)
(0 0 0)
(0 0 0)
(0 0 0)
(0 0 0)
(-0.0005218868816 -0.0008702224829 3.094746681e-15)
(-0.0004705132899 -0.0007647154502 2.789435349e-15)
(-0.0004247732312 -0.0006724820126 2.511879593e-15)
(-0.00448576719 -0.007789804019 2.919886555e-14)
(-0.004623584184 -0.008242354774 3.008704397e-14)
(-0.007822614404 -0.014649479 5.354050536e-14)
(-0.007652663986 -0.01396162333 5.237477119e-14)
(-0.018404286 -0.03958574609 1.490058077e-13)
(-0.01861571524 -0.04108364195 1.506295089e-13)
(-0.02174997921 -0.05105435795 1.873501354e-13)
(-0.0215409302 -0.04928948607 1.857125564e-13)
(-0.02692066317 -0.07635352639 2.881722638e-13)
(-0.02708904527 -0.07875621233 2.894767759e-13)
(-0.02720251228 -0.08598539835 3.160666173e-13)
(-0.0270547574 -0.08345405437 3.149980277e-13)
(-0.02266326041 -0.09499346706 3.580469254e-13)
(-0.02274410171 -0.0975833247 3.582134589e-13)
(-0.02008591135 -0.09786433205 0)
(-0.02001478658 -0.09531097049 0)
(-0.01191177308 -0.0955492549 0)
(-0.01194799666 -0.09682520342 0)
(-0.01060051707 -0.09686438235 0)
(-0.01058228486 -0.09622635228 0)
(-0.0105640685 -0.0955888562 0)
(0.01073545924 -0.09627498135 0)
(0.01069372775 -0.09755842704 0)
(0.01204128252 -0.09759707373 0)
(0.01208317968 -0.09631404865 0)
(0.02152956315 -0.09657686043 3.589351039e-13)
(0.02144097947 -0.09911996559 3.588518371e-13)
(0.02382115464 -0.09784383347 3.539946114e-13)
(0.02393521898 -0.09544636465 3.544664562e-13)
(0.02702387653 -0.08070265734 2.994271497e-13)
(0.02686692019 -0.08253565537 2.983446823e-13)
(0.02623447078 -0.07429284629 2.68604583e-13)
(0.02639471867 -0.07268817473 2.697564394e-13)
(0.01975026608 -0.04400543458 1.636468738e-13)
(0.01960727489 -0.04488584008 1.626199175e-13)
(0.01623549811 -0.0349173515 1.266348137e-13)
(0.01636558235 -0.0342635996 1.275507477e-13)
(0.005722512277 -0.01013817992 3.785860514e-14)
(0.005647399498 -0.01027400871 3.738676035e-14)
(0.00286123087 -0.004951642569 1.802724636e-14)
(0.002914144636 -0.00491150912 1.836031327e-14)
(0 0 0)
(0 0 0)
(0 0 0)
(0 0 0)
(0 0 0)
(0 0 0)
(0 0 0)
(0 0 0)
(0 0 0)
(0 0 0)
(0 0 0)
(0 0 0)
(0 0 0)
(0 0 0)
(0 0 0)
(0 0 0)
(0 0 0)
(0 0 0)
(0 0 0)
(0 0 0)
(0 0 0)
(0 0 0)
(0 0 0)
(0 0 0)
(0 0 0)
(0 0 0)
(0 0 0)
(0 0 0)
(-0.0007474079797 -0.001372388506 4.427014311e-15)
(-0.0006863143614 -0.001231266233 4.066191828e-15)
(-0.0006272259834 -0.00109880184 3.719247132e-15)
(-0.005054665009 -0.00970962196 3.28903571e-14)
(-0.005206599376 -0.0102410877 3.387568004e-14)
(-0.008534145972 -0.01762764565 5.835609773e-14)
(-0.008349870827 -0.01684507824 5.710709683e-14)
(-0.0192639836 -0.04574058956 1.555422457e-13)
(-0.01948787053 -0.04735528512 1.572353359e-13)
(-0.02260948242 -0.05838881054 1.940392291e-13)
(-0.02238934832 -0.05650941368 1.923322612e-13)
(-0.02759985035 -0.08608014266 2.934041898e-13)
(-0.02777370867 -0.08856430879 2.947364575e-13)
(-0.02779951056 -0.09626285649 3.203548538e-13)
(-0.02764862311 -0.09366895123 3.192723863e-13)
(-0.02298075633 -0.1053455317 3.58602037e-13)
(-0.02305753882 -0.1079281073 3.587130593e-13)
(-0.02036785732 -0.1080837926 0)
(-0.02029781583 -0.1055289143 0)
(-0.01219977574 -0.1057666947 0)
(-0.01223526323 -0.1070438528 0)
(-0.01089009939 -0.1070830223 0)
(-0.01087220732 -0.1064444477 0)
(-0.01085425944 -0.1058059935 0)
(0.01039201692 -0.1065275345 0)
(0.01034665962 -0.107809091 0)
(0.01169294959 -0.1078463343 0)
(0.01173859298 -0.1065651426 0)
(0.02112915776 -0.106548553 3.580191699e-13)
(0.02099844779 -0.1088798088 3.572975249e-13)
(0.02313514383 -0.1063179647 3.486932965e-13)
(0.02335242278 -0.1044383257 3.507194535e-13)
(0.02586936862 -0.08615223943 2.891298312e-13)
(0.02531369714 -0.08648347717 2.834954493e-13)
(0.02461633163 -0.0774151793 2.53824739e-13)
(0.02507367709 -0.07688519801 2.580852199e-13)
(0.01815294545 -0.04488019014 1.509625758e-13)
(0.01769123606 -0.04481921405 1.472433286e-13)
(0.01435415241 -0.03413741563 1.122435478e-13)
(0.01478348473 -0.03431671826 1.155325835e-13)
(0.004615479951 -0.009054510254 3.057276654e-14)
(0.004367585745 -0.008775659977 2.893518758e-14)
(0.001942191705 -0.003711794919 1.224020885e-14)
(0.002108426321 -0.003934370337 1.329492072e-14)
(0 0 0)
(0 0 0)
(0 0 0)
(0 0 0)
(0 0 0)
(0 0 0)
(0 0 0)
(0 0 0)
(0 0 0)
(0 0 0)
(0 0 0)
(0 0 0)
(0 0 0)
(0 0 0)
(0 0 0)
(0 0 0)
(0 0 0)
(0 0 0)
(0 0 0)
(0 0 0)
(0 0 0)
(0 0 0)
(0 0 0)
(0 0 0)
(0 0 0)
(0 0 0)
(0 0 0)
(0 0 0)
(-0.0009446748938 -0.001893881416 5.592748487e-15)
(-0.0009769440005 -0.001917336528 5.787037516e-15)
(-0.0008917945436 -0.001712667153 5.287437155e-15)
(-0.005703447793 -0.01200423014 3.708144902e-14)
(-0.005897774239 -0.01268350067 3.834432771e-14)
(-0.009362901936 -0.02113600194 6.396272401e-14)
(-0.009131415864 -0.02017643698 6.239453398e-14)
(-0.02020271194 -0.05244240133 1.626199175e-13)
(-0.02047456038 -0.05427277759 1.646738301e-13)
(-0.02357399026 -0.06635507645 2.014916012e-13)
(-0.02330949102 -0.06426441746 1.994376886e-13)
(-0.02831711503 -0.09618001657 2.988720382e-13)
(-0.02851628369 -0.09881079982 3.004124727e-13)
(-0.02843520965 -0.1068730007 3.249206459e-13)
(-0.02826674502 -0.1041676458 3.236855228e-13)
(-0.02328130833 -0.1156519268 3.589073483e-13)
(-0.02335382495 -0.118217378 3.589489816e-13)
(-0.02064597545 -0.1183003382 0)
(-0.02057648557 -0.1157460373 0)
(-0.01247978196 -0.1159828279 0)
(-0.01251413859 -0.1172599008 0)
(-0.01117151728 -0.1172986979 0)
(-0.01115421325 -0.1166599276 0)
(-0.01113686398 -0.1160216338 0)
(0.01002004746 -0.1167548333 0)
(0.009971077262 -0.1180320661 0)
(0.01131692428 -0.1180682273 0)
(0.0113663098 -0.1167910068 0)
(0.02051710063 -0.1153016839 3.536060333e-13)
(0.02030885032 -0.1171234956 3.51538243e-13)
(0.02209328627 -0.1125665323 3.377298441e-13)
(0.02240508487 -0.1113379234 3.413103133e-13)
(0.02375013145 -0.08729073147 2.675221156e-13)
(0.02333490698 -0.087799251 2.63372657e-13)
(0.02215146793 -0.07657946324 2.297745327e-13)
(0.02286302176 -0.07725770907 2.368383267e-13)
(0.01562379855 -0.04242794796 1.303124275e-13)
(0.01464295865 -0.04064408747 1.221800439e-13)
(0.01136048186 -0.02958443794 8.9012131e-14)
(0.01234409567 -0.03145393051 9.668654766e-14)
(0.003098665321 -0.006666643687 2.053912596e-14)
(0.002706203247 -0.005950477575 1.794397964e-14)
(0.0008790914044 -0.00183876065 5.551115123e-15)
(0.001106473646 -0.002264412418 6.994405055e-15)
(0 0 0)
(0 0 0)
(0 0 0)
(0 0 0)
(0 0 0)
(0 0 0)
(0 0 0)
(0 0 0)
(0 0 0)
(0 0 0)
(0 0 0)
(0 0 0)
(0 0 0)
(0 0 0)
(0 0 0)
(0 0 0)
(0 0 0)
(0 0 0)
(0 0 0)
(0 0 0)
(0 0 0)
(0 0 0)
(0 0 0)
(0 0 0)
(0 0 0)
(0 0 0)
(0 0 0)
(0 0 0)
(-0.001679724889 -0.003649550036 9.950373858e-15)
(-0.001531342616 -0.003262670922 9.076073226e-15)
(-0.001310529708 -0.002737334554 7.771561172e-15)
(-0.006522571865 -0.01492147194 4.238276397e-14)
(-0.007008701574 -0.01635041763 4.55330218e-14)
(-0.01063501388 -0.02602984066 7.253919687e-14)
(-0.01003941319 -0.02410033175 6.850076062e-14)
(-0.02139308778 -0.06020660515 1.715988462e-13)
(-0.02179669598 -0.06251812049 1.746658373e-13)
(-0.02479833789 -0.07546618988 2.109701303e-13)
(-0.0244614956 -0.07305436535 2.083611061e-13)
(-0.02916542903 -0.1069854007 3.054778652e-13)
(-0.02928450815 -0.1093947359 3.06143999e-13)
(-0.02916552707 -0.1180325032 3.303052276e-13)
(-0.02897574154 -0.115195759 3.28903571e-13)
(-0.02356803076 -0.125882192 0)
(-0.02364101425 -0.1284361516 0)
(-0.02092909638 -0.1285153693 0)
(-0.02089285518 -0.1272388275 0)
(-0.02085696646 -0.1259621564 0)
(-0.01275176941 -0.1261989022 0)
(-0.01276874506 -0.1268366133 0)
(-0.01209724935 -0.1268557798 0)
(-0.01208033832 -0.126218245 0)
(-0.001106532703 -0.1266962325 0)
(-0.001123375767 -0.1270140382 0)
(-0.001138082227 -0.1273319668 0)
(-0.0004804345571 -0.1273440116 0)
(-0.0004478845311 -0.1267087821 0)
(0.00959895522 -0.1269565036 0)
(0.009540294289 -0.128228104 0)
(0.00948110993 -0.1294993325 0)
(0.01218072817 -0.129572781 0)
(0.01229570313 -0.1270286197 0)
(0.01094782998 -0.1269926953 0)
(0.01955525081 -0.1215373673 3.428923812e-13)
(0.01919860422 -0.1222026926 3.380212776e-13)
(0.02051471108 -0.1149205168 3.17787463e-13)
(0.02107215792 -0.1153797471 3.254063685e-13)
(0.02132721399 -0.08575291797 2.418620859e-13)
(0.02055419066 -0.08440290381 2.334105131e-13)
(0.01908775449 -0.07191582672 1.98951966e-13)
(0.01989587995 -0.07342166296 2.071537386e-13)
(0.01213394365 -0.03587004567 1.013911177e-13)
(0.01140325559 -0.03439645622 9.531264666e-14)
(0.008346933632 -0.02361183296 6.548928067e-14)
(0.008990595122 -0.02492692868 7.051303985e-14)
(0.001279782317 -0.002995451053 8.493206138e-15)
(0.001040362834 -0.002484494552 6.89726054e-15)
(8.2495037e-05 -0.0001874735739 5.134781489e-16)
(0.0001576106454 -0.0003510294846 9.992007222e-16)
(0 0 0)
(0 0 0)
(0 0 0)
(0 0 0)
(0 0 0)
(0 0 0)
(0 0 0)
(0 0 0)
(0 0 0)
(0 0 0)
(0 0 0)
(0 0 0)
(0 0 0)
(0 0 0)
(0 0 0)
(0 0 0)
(0 0 0)
(0 0 0)
(0 0 0)
(0 0 0)
(0 0 0)
(0 0 0)
(0 0 0)
(0 0 0)
(0 0 0)
(0 0 0)
(0 0 0)
(0 0 0)
(-0.00159299541 -0.003747066137 9.492406861e-15)
(-0.001800253733 -0.004157893045 1.071365219e-14)
(-0.001923687755 -0.004361314419 1.144917494e-14)
(-0.00776454075 -0.01927141788 5.06539255e-14)
(-0.007515186585 -0.01900114688 4.901634654e-14)
(-0.01121713046 -0.02974861972 7.679967773e-14)
(-0.01151559073 -0.02998160873 7.885359032e-14)
(-0.02280095711 -0.06951550442 1.832839436e-13)
(-0.02243829817 -0.06965799837 1.802585858e-13)
(-0.02541048549 -0.08365648902 2.166183899e-13)
(-0.02576231872 -0.08331137919 2.197964033e-13)
(-0.02991807035 -0.1186884758 3.134020821e-13)
(-0.029694678 -0.1198310996 3.105710134e-13)
(-0.02935769562 -0.1283219262 3.325395515e-13)
(-0.02951091693 -0.1268521231 3.34926531e-13)
(-0.02356066063 -0.1361319782 0)
(-0.02363650443 -0.1386862686 0)
(-0.02091703069 -0.1387670172 0)
(-0.02087911759 -0.1374901686 0)
(-0.02084118688 -0.1362127268 0)
(-0.0126828843 -0.1364549689 0)
(-0.01272081501 -0.1377324108 0)
(-0.01136113747 -0.1377727833 0)
(-0.01134216331 -0.1371337657 0)
(-0.01132320676 -0.1364953414 0)
(-0.01200304553 -0.1364751552 0)
(-0.001805169259 -0.1367779578 0)
(-0.001824124669 -0.137416382 0)
(-0.001843098265 -0.1380553997 0)
(-0.0004833789461 -0.1380957734 0)
(-0.0004454482343 -0.1368183316 0)
(0.009072549684 -0.1371009467 0)
(0.008996705879 -0.1396552371 0)
(0.011677014 -0.1392003393 3.575889584e-13)
(0.01178380839 -0.13707295 3.586714259e-13)
(0.01815813393 -0.1239125308 3.237549118e-13)
(0.01769697365 -0.1234961647 3.168437734e-13)
(0.01862672119 -0.1139700763 2.92349478e-13)
(0.01917863089 -0.114871269 3.000794058e-13)
(0.01788727102 -0.0780016278 2.038230695e-13)
(0.01716247773 -0.07631224749 1.958017082e-13)
(0.01532066928 -0.06238763178 1.601357935e-13)
(0.01636857023 -0.06542917515 1.710298569e-13)
(0.008607628726 -0.02749997742 7.199796315e-14)
(0.007502362825 -0.02440858032 6.275535647e-14)
(0.005100499729 -0.01556379748 4.003741783e-14)
(0.005811680246 -0.01741024412 4.561628852e-14)
(0.0002142109576 -0.0005420920544 1.415534356e-15)
(9.675857867e-05 -0.0002494888904 6.383782392e-16)
(0 0 0)
(0 0 0)
(0 0 0)
(0 0 0)
(0 0 0)
(0 0 0)
(0 0 0)
(0 0 0)
(0 0 0)
(0 0 0)
(0 0 0)
(0 0 0)
(0 0 0)
(0 0 0)
(0 0 0)
(0 0 0)
(0 0 0)
(0 0 0)
(0 0 0)
(0 0 0)
(0 0 0)
(0 0 0)
(0 0 0)
(0 0 0)
(0 0 0)
(0 0 0)
(0 0 0)
(0 0 0)
(0 0 0)
(0 0 0)
(-0.0003720310238 -0.0009388375203 2.220446049e-15)
(-0.0006750761848 -0.001674633575 4.024558464e-15)
(-0.001002982761 -0.002445034946 5.967448757e-15)
(-0.005758117539 -0.01537273441 3.75671716e-14)
(-0.004919231884 -0.01336852301 3.211320099e-14)
(-0.008017167878 -0.02285855741 5.492828414e-14)
(-0.009069915184 -0.02540143157 6.211697823e-14)
(-0.01966490394 -0.06444408714 1.579569808e-13)
(-0.01822925183 -0.06082972622 1.464939281e-13)
(-0.02118221862 -0.07492837859 1.805500194e-13)
(-0.02264263377 -0.07866084018 1.929012505e-13)
(-0.02760709439 -0.1173093335 2.87964097e-13)
(-0.02639370902 -0.1141425935 2.753075545e-13)
(-0.02665635336 -0.1246822283 3.007316618e-13)
(-0.02769286886 -0.1273149611 3.125277814e-13)
(-0.02358848619 -0.1447771945 3.550770789e-13)
(-0.02324436014 -0.1448840622 3.492206524e-13)
(-0.0210260428 -0.1477293449 3.559097461e-13)
(-0.02113102557 -0.1463443442 3.587546926e-13)
(-0.01298629476 -0.1466733171 0)
(-0.01306215618 -0.1492282008 0)
(-0.01034274177 -0.1493089475 0)
(-0.01026688035 -0.1467540638 0)
(-0.01162661722 -0.1467136896 0)
(-0.002108577767 -0.146996306 0)
(-0.002184439191 -0.1495511897 0)
(0.0005349930242 -0.149631937 0)
(0.0006108544477 -0.1470770533 0)
(0.008706016654 -0.1460036669 3.557570905e-13)
(0.008524013778 -0.1462216624 3.502337309e-13)
(0.01088525575 -0.1418056565 3.394923231e-13)
(0.01117784148 -0.142732479 3.47610829e-13)
(0.01619316988 -0.1196231389 2.910588437e-13)
(0.01549421451 -0.1164198312 2.784716902e-13)
(0.01588505077 -0.1043965067 2.496891582e-13)
(0.01670492865 -0.1079765591 2.626926454e-13)
(0.01420245049 -0.06655512952 1.619954171e-13)
(0.01319713627 -0.0628568181 1.504352198e-13)
(0.01121457585 -0.04890975212 1.171007735e-13)
(0.01220232672 -0.05235841206 1.274952366e-13)
(0.004803039151 -0.01646672903 4.016231792e-14)