/*--------------------------------*- C++ -*----------------------------------*\
| =========                 |                                                 |
| \\      /  F ield         | OpenFOAM: The Open Source CFD Toolbox           |
|  \\    /   O peration     | Version:  v1912                                 |
|   \\  /    A nd           | Website:  www.openfoam.com                      |
|    \\/     M anipulation  |                                                 |
\*---------------------------------------------------------------------------*/
FoamFile
{
    version     2.0;
    format      ascii;
    class       volScalarField;
    location    "1.02";
    object      k;
}
// * * * * * * * * * * * * * * * * * * * * * * * * * * * * * * * * * * * * * //

dimensions      [0 2 -2 0 0 0 0];


internalField   nonuniform List<scalar> 
12556
(
36.90870838
36.9087847
36.9089261
36.9091704
36.95452209
36.95563533
36.95763851
36.9617613
36.96955567
36.98173214
36.99797291
37.0078023
37.01078692
37.00835017
37.00063973
36.98441954
36.97222895
36.96358196
36.95891825
36.95625117
36.91005381
36.90913494
36.90869075
36.90842026
36.72748991
36.72773489
36.72816604
36.72928763
36.77549719
36.78118513
36.79271179
36.83088565
36.86722922
36.92562019
37.00072083
37.04062655
37.05608335
37.04797633
37.01795966
36.95414966
36.89085974
36.84725981
36.79998509
36.78461094
36.73235254
36.72943027
36.72802848
36.72728639
36.54759013
36.54828803
36.54959978
36.55225994
36.60091348
36.61512879
36.64289265
36.70604978
36.79330055
36.92020716
37.04089402
37.1184679
37.14979722
37.13445901
37.0751955
36.97127829
36.84492073
36.74395202
36.65783387
36.62267212
36.56050714
36.55345656
36.55019542
36.54888777
36.36902955
36.36997564
36.37241641
36.37857958
36.43243939
36.46177972
36.52242675
36.63191637
36.79630413
36.98381319
37.16175775
37.28958911
37.34720173
37.32124043
37.22126146
37.05617008
36.86894115
36.69697793
36.54702716
36.478182
36.3953562
36.38219131
36.37578777
36.37331058
36.19237048
36.19413196
36.19898516
36.21105496
36.27423435
36.32750371
36.44181031
36.62265434
36.86150584
37.1306671
37.4061031
37.63818579
37.76489383
37.72039402
37.53841044
37.25561898
36.96468082
36.71608608
36.48320045
36.35678306
36.24101193
36.21554876
36.20408329
36.19964442
36.01701176
36.01983629
36.02808303
36.04918847
36.12973798
36.21978356
36.41471462
36.66056849
36.98630399
37.37732173
37.84936034
38.36535987
38.71290896
38.6011821
38.15067555
37.63939166
37.16300864
36.78902649
36.47154952
36.2637273
36.09863488
36.05355371
36.03434993
36.02686101
35.84452129
35.84948027
35.86384729
35.89984432
35.99902741
36.14144415
36.42577307
36.74371598
37.1816002
37.75274356
38.60899063
40.04677288
40.80197917
40.66836222
39.26098504
38.26304374
37.4813643
36.92401118
36.4929571
36.20308782
35.96750801
35.89675585
35.86645495
35.85470282
35.67624063
35.68377519
35.70568102
35.76031359
35.88464969
36.09330898
36.46369881
36.86591471
37.43596212
38.24416084
39.69643727
42.96763827
43.79854939
41.02896909
39.14368905
37.91234861
37.11481635
36.54329117
36.16998528
35.85081465
35.7469065
35.70170499
35.68440301
35.51613363
35.52786253
35.56086958
35.63972362
35.79140433
36.07264788
36.52499629
37.01822393
37.72405314
38.76084773
40.74547272
45.82521264
49.1575142
43.16348536
40.18397729
38.42240389
37.34436289
36.61402908
36.15816075
35.74885161
35.60625036
35.54317662
35.51911641
35.36645834
35.3826014
35.42724278
35.53229
35.72026712
36.07603986
36.6041323
37.18732128
38.01416774
39.22864657
41.53162934
47.13500705
52.70851509
45.08324659
41.19922585
38.92656763
37.58016454
36.69669379
36.16163329
35.6633805
35.47875535
35.39518433
35.36321777
35.23116932
35.25357892
35.31350551
35.45072892
35.67025041
36.09451082
36.69525052
37.3612867
38.28642553
39.63184847
42.15521784
47.79152405
54.40196382
46.48723434
42.01383795
39.35694162
37.79790669
36.7802574
36.17076902
35.5932673
35.36640729
35.26174001
35.22105736
35.10995598
35.13793891
35.21144818
35.3788732
35.63739593
36.12404166
36.79210821
37.53104648
38.53814
39.98856844
42.71603861
47.6360632
55.12586029
47.36634778
42.57753251
39.67860256
37.97904806
36.85575625
36.18155831
35.53928922
35.27044097
35.14473911
35.0951037
35.00398554
35.03917487
35.13146881
35.33295784
35.61641101
36.15555906
36.88473962
37.69292686
38.75985843
40.30737221
43.29202741
47.12981026
43.1396118
54.96136841
47.8065885
42.9015256
39.86530868
38.11127333
36.91643341
36.19062184
35.49284851
35.18939029
35.04354095
34.9854509
34.90948565
34.95117283
35.05983388
35.2889523
35.61606636
36.21816626
37.02037493
37.87190262
38.99490532
40.64415395
43.91527542
45.67072344
53.98536804
54.95740885
47.92350597
42.94896886
39.94959033
38.20341822
36.96058142
36.19433471
35.44926841
35.11873051
34.95498023
34.88935003
34.82412372
34.87197583
34.99549478
35.25004149
35.60695901
36.25626133
37.12035788
38.06580384
39.29808151
41.04398249
44.30834262
42.13049584
55.35383355
54.24451706
47.5401138
42.80727717
39.93500045
38.25634478
36.98242527
36.18782303
35.40541563
35.05342688
34.87462478
34.80267413
34.74267584
34.79622282
34.93275719
35.21034853
35.59435981
36.28171829
37.20519374
38.28852487
39.74088607
41.713583
44.8662806
36.88850687
53.86836222
52.58218859
46.66444129
42.45660648
39.85692877
38.26188787
36.97797785
36.1624304
35.35341528
34.986295
34.79696968
34.71994916
34.66284455
34.72142276
34.8686813
35.16568943
35.57242721
36.28771345
37.26318497
38.47134564
40.27902776
42.66026105
44.57978854
28.54910027
53.17188484
50.37822715
45.44343116
41.99733745
39.77124869
38.23458409
36.94832434
36.11643297
35.29215025
34.9158894
34.71802644
34.63690322
34.57952319
34.64246628
34.79857352
35.11198038
35.53797266
36.27467762
37.28300824
38.53872014
40.62745988
43.26233885
40.0717455
36.41602866
51.78950052
48.26101667
44.35005627
41.61152721
39.6524212
38.16049371
36.87719792
36.04386277
35.2149083
34.83439474
34.63307234
34.54905443
34.49307961
34.559658
34.72261106
35.04853055
35.4890699
36.23843901
37.27040351
38.5485968
40.64078085
42.85172652
31.05755142
45.77651801
50.28779967
46.83905574
43.71291291
41.32404221
39.47151558
38.03558483
36.77434006
35.94931838
35.12383706
34.74321112
34.54049399
34.45504461
34.39906341
34.46864454
34.63718715
34.97325482
35.42529534
36.1817514
37.22622616
38.5175879
40.56454732
42.18282434
28.13846887
45.24409762
49.0614711
46.1156632
43.25816173
41.0169537
39.25711702
37.87677754
36.64704355
35.83564751
35.01874475
34.64058614
34.43805763
34.35190257
34.30111619
34.37306882
34.54573803
34.88847647
35.34751513
36.1072819
37.15808769
38.45350311
40.4236185
41.43605332
25.96448098
44.0933551
47.99379585
45.4677209
42.82618732
40.70671499
39.02614676
37.69652944
36.50143669
35.70624564
34.90231112
34.52899856
34.32787791
34.24161128
34.19420091
34.26808271
34.44432256
34.79268288
35.25740477
36.01801889
37.07126386
38.36373229
40.22978435
40.65510377
24.22751685
42.97781304
47.02220147
44.86741063
42.4191369
40.40214276
38.78854862
37.50369027
36.34246434
35.56456255
34.7747845
34.40692268
34.20767275
34.12166816
34.0854504
34.1608243
34.33958521
34.69060962
35.15683979
35.91683474
36.97003687
38.25346583
39.99274243
39.87377594
22.8352742
41.90857897
46.12577667
44.30601371
42.03481771
40.1073862
38.55027638
37.30432885
36.17425495
35.41369352
34.64030972
34.27917981
34.08229168
33.99682652
33.96720106
34.04385027
34.22514204
34.57928453
35.04792114
35.80628082
36.85782033
38.12650123
39.72008833
39.10979756
21.71455437
40.88196249
45.28976844
43.77732806
41.670021
39.82371652
38.3148462
37.10244258
36.00019033
35.25627799
34.49769601
34.14246539
33.94774458
33.86291158
33.85095135
33.92858649
34.11152371
34.46588291
34.93234383
35.68860953
36.73731165
37.9852113
39.41904283
38.37495115
20.80935655
39.88965845
44.50470864
43.27647491
41.32206957
39.55092539
38.08419117
36.90062968
35.82284303
35.09438288
34.35259065
34.00439401
33.81209237
33.72798366
33.72385311
33.80242001
33.98740261
34.34389921
34.81187555
35.56568387
36.61042121
37.83085556
39.09657897
37.67598197
20.07653666
38.9271314
43.76246427
42.79932765
40.98875864
39.28820527
37.85917
36.70050852
35.64406622
34.92972682
34.20074576
33.8576304
33.66719935
33.58374779
33.60407668
33.68335571
33.8694567
34.22456676
34.68757378
35.43896198
36.47837571
37.66440962
38.76225627
37.01600449
19.48318366
37.99641104
43.05819994
42.34249215
40.66826181
39.0346622
37.6400594
36.503078
35.46520517
34.7635351
34.05099293
33.71473285
33.52646386
33.44368139
33.46997762
33.55001588
33.73790156
34.09507997
34.56080793
35.30951617
36.34188842
37.48713882
38.42333726
36.39591138
19.00428582
37.09793542
42.38753144
41.90311296
40.35897333
38.78939917
37.42678619
36.30889539
35.28717709
34.59690247
33.89349648
33.56089823
33.37402818
33.29177526
33.35064339
33.43123783
33.61986814
33.97437953
34.43194356
35.17812822
36.20142328
37.30065936
38.08460681
35.81524006
18.62123868
36.23215546
41.74365922
41.47888291
40.05952881
38.55160537
37.2191372
36.11827036
35.11062419
34.43040034
33.743961
33.41811505
33.23308437
33.15135039
33.20999736
33.29126327
33.48147482
33.83848509
34.30224255
35.04539013
36.05734537
37.10676177
37.74746485
35.27249629
18.31948811
35.39902964
41.12206394
41.0678462
39.76870079
38.32050879
37.01680163
35.93132944
34.93597989
34.26481406
33.58187979
33.25797728
33.07390686
32.99253605
33.09525067
33.17696871
33.36767784
33.72097676
34.17141933
34.91174844
35.91001978
36.9071636
37.41373914
34.76548899
18.08728503
34.59799493
40.51952732
40.66833252
39.48541456
38.09540332
36.81943495
35.74809623
34.76355448
34.10023319
33.43747761
33.12042512
32.93784264
32.85682024
32.94672526
33.02907849
33.22114501
33.57741084
34.04104423
34.77760415
35.75992315
36.70333078
37.08478083
34.2913762
17.91581633
33.82825169
39.93482009
40.27902104
39.20877708
37.87567579
36.62669732
35.56851459
34.59357972
33.93747446
33.26880938
32.95205552
32.77015671
32.68934139
32.84153401
32.92425001
33.1167301
33.46898163
33.91004951
34.64330977
35.60764309
36.49653908
36.76170005
33.84722735
17.79703913
33.08925424
39.36641312
39.8988474
38.93802706
37.6607724
36.43824562
35.39247192
34.42630759
33.77618325
33.13653945
32.82636482
32.64549004
32.56486749
32.68160428
32.76495984
32.95853351
33.31300951
33.78110279
34.50950173
35.45390407
36.28791543
36.44516106
33.43052709
17.7253707
32.38140409
38.81378345
39.52702729
38.67259522
37.45025647
36.25380667
35.21993296
34.26225398
33.61792369
32.9542126
32.64419745
32.46398687
32.38344189
32.5921518
32.67580925
32.86982741
33.22270694
33.65259946
34.37735499
35.30042046
36.07836517
36.1356674
33.03934999
17.69535048
31.70602216
38.27765958
39.16322562
38.41204962
37.2437575
36.07311818
35.05074047
34.1028734
33.462784
32.84663869
32.53985836
32.36005812
32.27954518
32.38729953
32.47172772
32.66694109
33.0211967
33.53116516
34.2498932
35.15246311
35.86937394
35.83555216
32.67475412
17.70160207
31.06662527
37.76273292
38.81001855
38.1571869
37.04146676
35.89623502
34.88489891
33.95286597
33.31710632
32.61156367
32.30580297
32.12659882
32.04602833
45.59723015
49.84744089
44.23034555
47.00730914
53.74111505
50.32219951
47.75863677
55.44387191
54.05191364
47.68197567
56.10832356
55.55347404
47.16295874
40.51367644
42.37262461
56.4078989
56.14847618
46.20321477
48.14072976
40.64473688
53.40875404
56.8802876
56.43357695
42.47416996
40.7701545
43.71157605
40.52788008
55.15275254
46.40000837
48.57629625
43.68218658
41.70542903
41.35627095
45.83413778
44.7055795
57.84299965
61.27267095
52.3894679
46.05984041
44.31766903
42.01242255
46.71639645
45.96350441
47.47063119
50.2439966
51.34067886
55.33321209
55.06826787
54.2659892
47.77230519
46.5437117
42.59445805
47.11639546
46.79620557
47.79834973
46.05511461
48.34613174
57.09743484
55.93639587
43.16877694
47.14020967
47.13700596
47.41398747
40.71324314
43.4172316
42.65279991
58.43844949
58.04433274
43.80780038
46.72612684
47.11648561
46.84522256
33.59981347
37.01803707
44.5712184
50.50366193
48.54605047
50.86531458
53.25763806
45.3667865
50.33163992
61.27007555
55.54297237
47.45941928
54.1761545
59.69164805
51.46961871
52.17490046
46.54627129
53.10810949
51.60198607
53.47646225
53.26540725
55.21369066
57.53482324
52.2463963
58.92118265
57.15545526
59.85620104
59.09301623
51.98398006
48.56625154
50.05497527
47.56271692
49.64615762
47.51558337
51.50464607
49.77817919
55.72413771
55.42005453
54.98733588
57.54586105
57.80462423
57.06304593
57.50602887
54.80032794
43.56705049
45.91358979
47.78082234
44.80081235
41.957559
47.37341927
44.95993377
57.96702012
57.22980722
37.19268957
40.51571142
47.3861554
47.07525551
38.27611763
34.41333167
41.79848512
38.5168713
49.77472026
58.65722692
58.48492761
41.87679388
40.8125521
33.53538442
46.80068846
44.74823857
32.41172531
89.88119223
34.30883191
32.45370678
44.1215463
40.50961769
44.49007032
42.26795557
44.32806036
48.96856988
44.84940211
72.21514346
51.14449123
46.40796047
52.22287908
51.64252903
66.5987974
55.08359167
48.85154615
48.08243499
76.26589191
46.90000661
45.18767456
48.50258498
58.94522339
58.75889621
51.43803788
49.38831664
44.70068299
61.08116777
48.56333339
58.56933482
45.86755705
52.99941618
46.75440361
44.72155405
42.04981073
55.90570093
58.213285
58.40952376
57.8539487
58.17885764
55.83897639
40.50544245
67.42033601
41.62080391
42.60685641
42.18219925
44.73710065
45.71752838
42.64084544
42.67493323
79.67857673
51.47880128
71.8709987
49.57851206
66.45983746
50.43923228
60.23917581
60.47031409
55.10035027
55.09064286
43.16290894
58.44410053
56.6297763
44.40850492
42.27534133
63.11736052
45.75225597
56.46872076
42.18914327
46.95765337
46.57162046
50.50320499
47.90561471
67.56755269
35.94445504
44.59929289
44.08077914
45.27083577
44.79003656
36.07248477
66.73630696
61.70224377
52.10020057
62.20761749
63.2905278
56.55659146
61.76607848
52.42455473
47.66676038
55.49985122
47.56168824
62.20442651
56.49336991
48.45351442
59.51683362
66.50268164
59.50463508
59.08651411
52.4016227
47.62400731
52.30610572
53.67549365
51.78140501
55.85423435
48.10067955
51.25548988
53.63066486
56.49520781
56.69134503
58.06924478
56.93291763
56.35622247
57.45861002
57.08292568
57.93575819
60.15662559
54.96390764
53.82754001
56.12860092
55.28972297
60.09354515
48.67541611
48.53779298
50.75707774
50.64809856
55.97118031
64.50994086
55.89101207
43.668707
43.47269127
46.23562303
46.07157482
42.28472952
43.97920553
57.59565039
41.91933444
42.76137443
39.25142612
45.88481127
45.43040016
46.43886021
46.02764623
39.42276243
40.6369699
37.27393561
37.10251427
40.67612991
40.51710707
77.52503753
40.26217465
53.2802192
51.29212789
43.88106249
43.38964215
32.81205707
32.97808982
44.69015072
52.86300711
33.81575413
89.89058654
55.32721208
81.62282876
33.73716166
42.18293437
63.55022779
45.96706266
71.61152783
42.25955655
44.78157562
44.21176768
46.07989518
46.6049819
45.08137594
38.2838711
42.84578466
55.77042071
56.18819912
56.78735962
59.78448309
46.53577806
56.60770734
55.18804083
53.85541379
40.26643645
59.06291121
59.00197586
49.18767616
44.74494048
44.35230231
47.77416822
49.67414773
44.49416932
44.84635107
59.00529921
62.97333161
61.0488678
61.12589613
55.14015144
45.69265118
45.15276245
54.9600384
54.67963381
54.82616072
47.07258685
48.67505471
48.39189292
49.01949467
48.76520129
47.23961518
47.43842624
47.07996467
42.34532215
34.19108902
40.61508564
40.15381969
83.00011456
63.25398958
48.81120842
60.82263667
65.75171266
63.5223452
57.10676988
51.4084007
49.69210269
53.39322644
51.9424814
57.51273364
55.70583053
54.57710932
54.9849377
56.96386698
49.2360406
49.30128975
49.09694415
43.19726147
43.79247179
47.96149288
45.12150965
44.84512504
55.59615459
57.64388568
58.00371761
57.96686601
56.8916736
57.77653966
57.55112347
57.94641579
57.82690675
56.89046529
44.74939828
47.88220309
47.55264893
48.29353183
47.98814499
44.90724088
44.32549178
37.95327594
38.34805012
34.17344629
34.49062267
42.5028373
46.89799444
42.2348138
43.03216337
38.50198465
38.94412755
45.43584473
57.69099625
44.54368883
49.42039243
81.89425281
42.79705972
37.79486163
35.69220848
41.32376638
33.87098017
34.10305801
33.31488447
39.64193526
67.50990589
38.10375085
41.90402357
41.00944188
40.00509535
39.57537886
33.36727796
44.98357897
42.11740004
46.70944526
32.30550628
102.2655778
48.31396694
44.19700237
44.76829275
34.12075549
32.61042556
62.99962127
62.76419048
61.57953619
66.25548767
65.97338012
40.91302129
41.7215693
76.89149026
58.52091693
58.37026502
52.56686796
67.90480077
52.886229
68.15231478
53.87989058
55.32347063
45.90754382
42.82212272
63.55855833
73.05167906
64.81358156
50.29321143
40.24003154
67.85161377
81.44137001
51.00313178
64.31458599
87.34677157
43.47867431
48.30900655
41.23505616
42.65280703
79.43719219
80.04797154
61.24224405
56.35807455
66.52028084
62.24706526
55.42283834
51.41955182
59.10577433
58.12359605
58.71925794
59.40854514
60.97454591
60.53033651
58.68835236
47.51953486
46.1750539
55.09424183
58.21984328
56.5350186
49.3966648
57.16810304
55.81586977
54.86569966
54.86934477
48.2189578
46.45958629
48.26602473
42.8688574
49.45210814
48.16911561
51.67496325
45.83252885
44.71721211
47.67477472
46.36991548
49.53764768
52.14951217
40.68240859
40.82912639
41.26798115
40.75134992
34.79134959
36.48714154
41.84325726
41.41363994
64.87616288
64.11352209
63.60496088
56.15938696
56.90093784
54.88831517
55.87496884
63.97438919
59.73230726
57.50337838
57.369206
57.08849832
57.43996821
60.10185324
60.20352185
53.30359673
54.54891433
64.39555203
64.96513516
66.47847745
65.35749644
60.5226929
66.94193018
68.80631188
67.34318113
68.8226694
67.90733858
69.38567129
68.52930734
57.63547597
65.50238644
66.70209592
45.89479546
52.58556227
51.49706611
53.61566548
52.880659
46.62519773
49.9988906
49.25975459
51.12008538
50.25390981
53.39875764
56.43708103
55.76687171
57.22088679
56.64904946
53.97975336
49.36227843
54.58965751
53.86394224
55.53481554
54.82851503
49.81607167
54.37801078
54.44444349
55.89640679
56.95145572
55.4062491
54.33791129
42.55766779
41.97839161
43.56336774
42.76103212
41.05219918
40.48613913
41.79372227
41.22387278
48.09232709
47.40866503
49.02240825
48.32647523
46.05640755
44.09665251
47.16232904
46.48038652
44.00019561
44.32626848
44.44067262
44.0212511
64.32757274
46.22587274
48.02205212
44.45359698
45.55002127
37.43880664
37.79801647
44.16585276
34.92204867
34.6599834
35.31095666
35.02836526
34.46949676
42.73872419
34.74008229
36.98113268
39.9220225
41.9336382
46.73782156
39.45314296
36.51678202
40.37033853
39.4886153
35.77563647
35.4327462
36.30905974
35.90269635
45.59393551
39.10062566
39.63124853
73.0325955
41.96138349
72.06419746
62.39404711
71.51806472
42.07411943
84.77821269
41.96529697
81.31373327
72.24418819
37.65365634
36.40960654
33.56769677
33.80094582
41.16527459
39.92347325
33.33054489
33.51729989
77.90312449
33.29487467
39.37138952
38.6297692
90.4588199
94.63522485
32.26561421
98.08185944
83.27664911
47.84674216
34.04968563
90.13153243
63.87072513
97.36640946
67.58156539
32.75204103
43.31879157
41.09204745
39.55446961
75.97138909
75.31048317
55.58933667
49.4349544
49.02319441
76.65000242
40.26438876
48.14581352
43.33503137
58.42501086
58.57943862
56.28537436
47.89220736
46.82504704
52.0063356
60.16983319
47.53208633
47.89373234
42.03059584
42.43260971
45.37463624
53.47459584
58.53446772
62.04861673
50.75708514
49.58457273
49.5363618
49.53907838
49.58666601
50.91219165
41.52527356
40.7903608
48.10601125
50.28286073
52.46558379
58.25102716
42.3911863
41.97830452
36.61327146
63.16098952
65.23930507
57.17598453
49.50178094
49.35988934
49.4486913
49.23182259
45.59720159
46.3517973
46.72243107
47.86369411
50.173412
38.1749167
42.96371436
42.52729384
62.82262696
59.1583289
45.32563177
32.93251688
32.98483533
34.59915031
54.33367095
78.73629151
70.37267981
40.65734165
43.63801539
41.87901494
32.37723991
34.24097898
32.83641554
32.88933702
32.49111711
73.15480872
65.61114504
51.05596647
54.96801813
75.07505453
41.6042531
41.07264565
47.42341881
60.14476034
49.09215581
47.23025706
49.95750783
43.26864222
44.28756623
41.98071556
84.45841387
87.62299148
88.67388264
76.96743722
86.18443107
43.99927928
44.44076847
48.5224891
74.93350086
67.45057896
63.76831671
78.33081675
75.13432945
43.75321499
53.35580589
50.88268007
68.93132037
67.64701055
52.36379331
51.06090628
49.90477421
42.68247917
64.28454354
45.57179791
46.76137227
60.1800391
45.26408061
47.44390837
66.34968803
67.31210101
62.53691653
62.70363788
61.05389579
60.90477468
57.29860572
58.63916536
58.14686534
60.71070707
60.43601926
61.20083992
51.34683331
52.88290739
59.5503604
61.46816452
69.07866324
64.19525119
68.95063184
69.39069933
65.60610142
43.81592728
46.58174053
45.9505934
51.11990883
50.82197547
47.32701351
43.33854409
43.03691635
45.40709219
44.97151287
52.31244177
55.10706083
54.68702667
57.68964653
57.25174027
55.20072324
48.47204071
51.88244978
51.53126017
54.26584078
53.85427623
50.7619327
44.7809039
45.38726012
49.09758583
48.10236353
43.98464049
44.58302616
48.99109374
49.60005273
51.09150748
41.33278696
41.14691973
42.77969441
42.54277438
38.3724004
40.88480869
40.7329725
50.29195011
48.1453028
48.78091499
62.83569018
61.99255471
47.85491102
48.91353672
63.85829035
61.60563856
62.04535455
55.66912912
44.8351936
45.3741909
43.50880081
43.10345173
38.55494172
39.87615226
43.9963156
43.62987806
34.81693579
34.87735714
37.38954156
36.97247372
34.62097397
34.68719848
77.32600851
32.79319512
34.73349186
33.60765558
109.3886991
32.51447722
46.50949953
79.12425678
73.41100552
32.49127527
32.53063207
33.89885552
88.54055982
93.55676138
91.38697282
76.04937094
33.59664281
32.39990276
32.44788054
53.58551821
40.80978761
41.06776395
75.52608019
74.43448315
57.76381208
54.70216292
43.70926769
60.94414732
64.23689956
68.2032476
49.52539554
73.96164497
64.55788566
74.06467385
72.36050313
52.79337456
46.1901331
47.26005783
54.33944446
55.92963964
56.31746537
55.30914646
55.58973002
62.40343215
62.17875283
62.656686
61.12384898
61.59919403
61.66785986
55.3109738
47.24855735
47.63729941
46.67450259
46.94256463
55.86531675
64.71776284
64.04944855
64.20109534
63.20282513
63.63892896
64.09849918
54.40616837
48.79331172
49.25138918
48.00101017
48.40382855
54.73699482
55.00842295
54.85751291
54.26932035
54.29332514
38.06331895
40.80097476
40.65215225
34.25962866
37.08366451
36.94240813
37.50821891
37.25122416
34.35181986
78.37593428
80.03193224
71.40742091
79.83089439
33.29638355
33.23747484
33.45874701
33.37878524
32.78513277
34.98114087
33.05785913
33.20693139
33.9545944
36.58852362
36.46564028
36.82199833
36.70236681
34.02663605
33.66729354
33.54057819
35.06788194
33.90508545
33.2402367
81.06289199
77.53108939
60.08060725
80.51352846
36.46359167
35.1395415
38.82377494
33.44031325
35.72787428
35.59293486
32.33515876
101.90937
102.9462386
66.67009874
96.65704767
89.05071019
32.71946171
32.78910712
34.18812535
32.54277158
68.10082448
77.32759857
69.19776962
72.05722342
66.71264684
55.61850122
74.251953
67.50407405
67.19941102
66.59928078
76.56266948
58.9475925
66.43037551
59.64296078
56.04666958
64.27112905
56.23589235
60.08941334
68.98152884
70.66764548
61.21935253
67.57724194
72.98221047
72.48680511
74.21727132
71.1480927
74.85422828
84.74827766
84.24246837
82.59900907
54.81416848
75.31489573
68.85068758
82.65872889
84.60011217
59.85574739
65.97801825
71.22012159
85.9449888
73.72470711
57.75243598
61.37594835
73.45072397
68.09109926
74.44284781
64.84819509
69.25391248
73.20698101
75.61115276
74.76690185
57.66641552
57.93555777
58.30478718
57.09499661
56.90716667
56.84103958
59.83519103
60.0690712
60.52507524
59.00976405
59.42701798
59.34081622
47.08331672
46.85632005
46.89208493
57.54828495
57.11924016
52.73838263
58.96284372
58.93463498
57.62839886
55.74744572
56.70307393
51.48353394
46.640795
46.56932338
46.89749221
46.79056032
49.10810697
68.15158849
59.62863304
44.72733262
70.84723494
70.32189325
69.77263583
50.06036559
68.21902702
66.88653173
43.8826236
44.48664834
56.89143959
65.67126171
63.26240403
59.63665038
59.15580186
58.01325921
60.78228284
60.1995091
59.87493623
70.48483473
70.20261636
63.21339566
71.37099891
73.86366597
65.4835359
70.13658049
70.42544224
66.13815032
64.26173561
64.2642118
64.20343813
64.22714824
65.76694997
67.42939741
68.05134366
68.77143785
73.03378343
72.59013509
73.50945665
73.35035998
68.56554228
69.93475626
72.01417088
73.32487422
70.26590932
49.41807826
49.21682373
45.87632952
46.81398364
50.35666793
50.14942144
43.94582148
43.62806024
44.60709326
44.26339916
55.95637137
55.5274358
52.8320059
54.58328579
56.82028692
56.38752058
52.65848412
52.28472008
48.9508005
50.26320386
53.44404014
53.05272293
54.43948191
50.62236064
51.13043321
49.66589829
50.14861863
54.2169722
54.66374222
52.70318559
53.39130596
51.64647174
52.177403
54.70812361
42.35822913
38.76636694
38.95516954
38.42629111
38.59766019
42.1687209
43.22898419
39.58697563
39.86893281
39.14483682
39.35581091
42.98027584
40.85090838
37.44404016
37.6168965
37.15032576
37.32143567
40.70007805
41.60282144
38.0933177
38.26361528
37.75905148
37.93653266
41.42126763
41.79945003
41.58777296
47.86545739
45.35486746
45.58503175
44.88553362
45.09576914
47.62836099
42.28250108
42.05287414
39.88865788
39.8439461
45.7308241
43.27701687
43.35988805
40.28445143
40.83870741
44.87388373
46.95628298
44.43430627
44.60820205
43.97864227
44.10050944
46.67642715
40.44186979
40.33599056
62.14470846
61.41760792
63.63507456
50.81671536
55.53996853
46.66352986
60.57519356
61.50148375
59.44337912
60.07700061
47.36277525
44.66547973
54.42673146
50.14861471
60.04071622
60.61269018
45.14911305
37.50333489
40.13124491
39.9925141
40.47709294
40.34190884
37.7114296
34.85552496
34.72173891
35.21914384
35.09939594
34.34002715
33.67236288
35.18526922
38.6121156
37.94984273
39.64142924
39.34179471
36.94868543
37.3444147
35.33548467
36.38381737
36.84771975
40.10622411
36.85983614
37.0561805
36.49089655
36.7832561
40.02145585
35.66237409
35.5377258
36.16124973
36.0243467
70.17747166
49.61863146
51.66199915
45.10549468
47.37354962
71.37561069
70.11458578
68.78966565
54.32008181
61.01218648
72.79086286
79.82376053
60.47467453
64.10152096
51.10812979
55.94593536
81.84870118
33.06005218
33.0113343
33.17293514
33.13042967
34.08237154
34.37285861
36.68577267
32.79470274
32.78441549
32.93171882
32.88209974
33.65398426
36.12335291
35.9804372
36.35396336
36.22463401
33.71543336
33.40053249
35.6535681
35.33055212
35.8991239
35.71780677
33.43617736
75.90418437
35.4593464
35.20897643
33.09131669
88.27089196
107.3417167
109.2783896
107.8176614
107.4060285
91.47038819
32.30888857
91.32491806
75.67507739
78.70621735
33.96860484
32.58144052
32.64913507
89.63131167
95.00909087
94.10035493
82.5843209
87.71113844
98.39063805
95.59911842
71.60594241
92.37558201
84.75149598
32.49089075
32.38126605
33.2917061
36.73343646
36.78412747
36.85575328
36.80486358
36.88699796
36.90802093
36.9153103
37.00016013
36.97899562
37.02417294
37.08026067
37.03222017
37.09237726
37.11688934
37.05414993
37.11956602
37.11319053
37.05260169
37.10672117
37.07074995
37.02860764
37.0550365
36.98780178
36.97489617
36.96216099
36.87522315
36.90559353
36.84904201
36.78169095
36.85679801
36.64468556
36.75008896
36.76762649
36.79020317
36.91767946
36.88890149
36.96088811
37.08533588
37.01409354
37.12212617
37.21281082
37.10425507
37.23532083
37.27780833
37.14657727
37.28483154
37.27665753
37.14202712
37.26438348
37.19916189
37.0937291
37.17137392
37.0660495
37.00000957
37.02610808
36.8995561
36.8762571
36.85780474
36.73729887
36.76375135
36.62073469
36.78164196
36.75257454
36.83927122
37.02208439
36.93636437
37.08467561
37.27093869
37.12074623
37.32967325
37.48752989
37.26423578
37.53352551
37.62035206
37.3412673
37.63852039
37.63215505
37.33467878
37.60777173
37.4815235
37.2547389
37.43445988
37.25773965
37.10093112
37.19188695
36.99455478
36.91568575
36.93195937
36.76032434
36.73816772
36.6468081
36.86764212
36.79752716
36.9481213
37.20943987
37.06129566
37.30417737
37.60823812
37.3387844
37.71404949
38.03980971
37.59003213
38.15054512
38.37719684
37.75322587
38.42066787
38.40006681
37.74197711
38.3176859
38.05545755
37.60168895
37.95964014
37.63382012
37.33040452
37.52185891
37.20114502
37.03459076
37.10303173
36.84291839
36.77469892
36.71921578
37.01659373
36.89919023
37.12606459
37.50157111
37.27290303
37.64673533
38.1690118
37.72305854
38.38020846
39.18191698
38.24377004
39.51110743
40.39257004
38.67069827
40.4547697
40.21776431
38.62852133
39.84193635
39.16500556
38.27814781
38.93149632
38.27879377
37.76891669
38.07937665
37.54503967
37.27403637
37.39012201
36.99434284
36.87345397
36.83085973
37.21814305
37.06276072
37.36486532
37.89251647
37.59219736
38.11064369
38.99042295
38.35365649
39.40777928
41.87017939
39.61135568
40.87696708
41.42808989
40.32546655
42.14099175
42.13189953
40.79050999
41.53005766
40.82026967
40.2996401
40.53623032
39.24195945
38.49312595
38.89399089
38.03434022
37.65540203
37.79757496
37.21604144
37.04390097
36.9770727
37.46367662
37.27870215
37.65059831
38.34083418
38.00602591
38.63591964
39.88548163
39.22338735
39.98181784
40.6427367
40.29589203
43.44991153
44.16688614
43.55584227
45.90378171
44.37503783
42.89446821
42.63900577
40.44339813
39.5352361
39.89944439
38.62552299
38.17443456
38.2897733
37.49064751
37.28174801
37.14445936
37.72119884
37.52797546
37.94313631
38.76536413
38.4492726
39.11857065
40.61897188
40.08568454
40.96477002
41.83115974
41.57297846
46.04177511
47.3378444
47.08658428
50.76012237
47.79193145
46.54439462
44.65924237
41.66044707
40.7714589
40.9252845
39.23715527
38.78667334
38.80206365
37.78202406
37.56447556
37.31912996
37.97202316
37.78464989
38.22175744
39.14278688
38.86383448
39.53701083
41.20201245
40.77517391
41.70000985
42.6745906
42.4832913
47.25542681
48.93490928
48.81107108
53.51460955
50.21419356
49.44294228
46.2060334
42.68545846
41.96366472
41.80776549
39.77411598
39.39074692
39.25638255
38.05000086
37.85111999
37.49444059
38.20774233
38.03089152
38.47917747
39.47748711
39.22859494
39.90468272
41.71020189
41.33173684
42.30693431
43.36653103
43.18949963
47.80744586
48.61592524
48.77407513
54.76743364
51.59455421
51.20814487