/*--------------------------------*- C++ -*----------------------------------*\
| =========                 |                                                 |
| \\      /  F ield         | OpenFOAM: The Open Source CFD Toolbox           |
|  \\    /   O peration     | Version:  v1912                                 |
|   \\  /    A nd           | Website:  www.openfoam.com                      |
|    \\/     M anipulation  |                                                 |
\*---------------------------------------------------------------------------*/
FoamFile
{
    version     2.0;
    format      ascii;
    class       surfaceScalarField;
    location    "1.02";
    object      meshPhi;
}
// * * * * * * * * * * * * * * * * * * * * * * * * * * * * * * * * * * * * * //

dimensions      [0 3 -1 0 0 0 0];
oriented        oriented;


internalField   nonuniform List<scalar> 
25162
(
0
0
0
0
0
0
0
0
0
0
0
0
0
0
0
0
0
0
0
0
0
0
0
0
0
0
0
0
0
0
0
0
0
0
0
0
0
0
0
0
0
0
0
0
0
0
0
0
0
0
0
0
0
0
0
0
0
0
0
0
0
0
0
0
0
0
0
0
0
0
0
0
0
0
0
0
0
0
0
0
0
0
0
0
0
0
0
0
0
0
0
0
0
0
0
0
0
0
0
0
0
0
0
0
-4.596430014e-09
1.05675805e-07
-1.183415832e-06
0
1.069543482e-08
1.006091962e-06
0
0
0
0
0
0
0
0
0
0
0
0
0
0
0
0
0
0
0
0
0
0
0
0
0
0
0
0
0
0
0
0
0
0
0
0
0
0
0
0
0
0
0
0
0
0
0
0
0
0
0
0
0
0
0
0
0
0
0
0
0
0
0
0
0
0
2.182490701e-08
-1.624546204e-06
-1.889619167e-06
1.026613456e-05
7.14729214e-06
-9.095974804e-05
-1.60896945e-05
0.0001286619301
1.020416285e-05
-0.0002388971964
-1.848972796e-05
0.0002677811741
-2.561447718e-08
-0.0003106591198
-1.292503117e-06
0.0003076822704
-1.029068243e-05
-0.0002476273877
1.807930333e-05
0.0002135819238
-5.15379871e-06
-9.54801368e-05
1.445236508e-05
5.950412805e-05
0
-1.754141406e-06
3.0774147e-07
0
0
0
0
0
0
0
0
0
0
0
0
0
0
0
0
0
0
0
0
0
0
0
0
0
0
0
0
0
0
0
0
0
0
0
0
0
0
0
0
0
0
0
0
0
0
0
0
0
0
0
1.028033806e-06
-3.233144406e-06
-4.879305854e-06
2.308817544e-05
3.028894525e-05
-0.0002002727306
-4.488541242e-05
0.0002858804235
6.06323938e-05
-0.0005715214738
-8.058412624e-05
0.000665499342
6.089665836e-05
-0.0009056973549
-8.096041999e-05
0.0009647100416
1.692501789e-05
-0.001057544208
-2.707485315e-05
0.001057410783
-4.525764613e-05
-0.0009592655942
5.292285865e-05
0.0008951908153
-6.716047754e-05
-0.000628692969
9.042241209e-05
0.0005241562107
-2.736551768e-05
-0.0002190821056
4.733190935e-05
0.0001359490658
0
-3.283959942e-06
7.933945711e-07
0
0
0
0
0
0
0
0
0
0
0
0
0
0
0
0
0
0
0
0
0
0
0
0
0
0
0
0
0
0
0
0
0
0
0
0
0
0
0
0
0
0
0
0
0
-3.448517892e-07
1.128620582e-06
3.223635077e-05
-0.0001361746673
-4.260852195e-05
0.0002330912649
9.556857963e-05
-0.0006165401652
-0.0001135575641
0.0007598050412
0.0001518139716
-0.001178955419
-0.0001777567202
0.00130335717
0.000152021962
-0.001595521954
-0.0001760424505
0.001661702237
6.858446393e-05
-0.001764179026
-8.324380645e-05
0.001767166203
-6.323190868e-05
-0.001678641331
6.180974851e-05
0.001613543478
-0.0001620331144
-0.001303138074
0.000182881707
0.001165230481
-0.0001230673018
-0.0007139701498
0.0001552300607
0.0005643404225
-2.903891627e-05
-0.0001694623055
4.749074045e-05
8.384720761e-05
0
0
0
0
0
0
0
0
0
0
0
0
0
0
0
0
0
0
0
0
0
0
0
0
0
0
0
0
0
0
0
0
0
0
0
0
0
0
0
0
0
0
9.298797024e-06
-1.498328408e-05
-1.440479688e-05
6.440048905e-05
8.189887872e-05
-0.0003845338832
-9.275146079e-05
0.0005325444168
0.0001612251651
-0.001043294241
-0.0001862370413
0.001217417376
0.0002565197318
-0.001647756504
-0.0002670967893
0.001744908824
0.0002327728759
-0.001950841889
-0.0002429458323
0.001981396126
0.0001143047991
-0.002010501165
-0.0001173067633
0.002011222203
-4.178421527e-05
-0.00199293079
3.287737748e-05
0.001964272375
-0.0001902793621
-0.001789129469
0.0001947298997
0.001670335207
-0.0002687933298
-0.001174703219
0.0002977795673
0.000991024335
-0.0001196170442
-0.0004504462774
0.0001455678041
0.0002994039813
-2.009086067e-05
-2.571399741e-06
4.633275772e-06
3.027990229e-07
0
0
0
0
0
0
0
0
0
0
0
0
0
0
0
0
0
0
0
0
0
0
0
0
0
0
0
0
0
0
0
0
0
0
0
-3.043099706e-07
1.021094625e-08
3.791335779e-07
2.951102503e-05
-6.915032474e-05
-3.448332795e-05
0.0001549821545
0.0001109908792
-0.0005662544282
-0.0001249582679
0.0007520320836
0.0002425439767
-0.001288328801
-0.0002540147153
0.001449271676
0.0003202206049
-0.001816133397
-0.0003479331944
0.001894717704
0.0002290426011
-0.001961948535
-7.210452416e-05
-0.0001186855046
0.0009563361436
0.0009673598188
-0.0009523857519
6.29934604e-05
-6.323248554e-05
0.000952624777
-0.000977239141
1.970856674e-05
0.00195278005
-0.0009840791037
8.083908482e-06
-1.925428091e-05
-0.001861387156
-0.0002264508106
0.0002189964731
0.001793648412
-0.0003564048558
-0.001410679184
0.0003634906747
0.001239898431
-0.0002167753941
-0.0006669206228
0.0002417828927
0.00048933707
-9.697074838e-05
-2.331371997e-05
3.095120812e-05
3.061647385e-05
0
0
0
0
0
0
0
0
0
0
0
0
0
0
0
0
0
0
0
0
0
0
0
0
0
0
0
0
0
0
0
0
0
1.275718377e-06
0
-2.737548213e-06
3.293446189e-06
4.89849955e-06
4.403203768e-05
-0.0001070846828
-4.512572277e-05
0.0002092927471
0.0001395438636
-0.0006620807941
-0.0001413350542
0.0008410561377
0.0002832785138
-0.001360779424
-0.0002878882371
0.001506021808
0.00038021559
-0.001777759285
-0.0003858513456
0.001800046699
0.0001309219148
-0.0009161569427
-0.0001295801896
0.0009148152175
-0.0009082882416
-5.50748574e-06
6.924730721e-06
0.0009068709966
-0.001787412057
-0.0001992983305
0.0001942004822
0.001754155256
-0.00039950846
-0.00145091045
0.0004029476631
0.001295612305
-0.000292329815
-0.0007553203616
0.000299333996
0.0005768911586
-0.0001572336833
-4.95760061e-05
5.796934421e-05
6.867328722e-05
0
0
0
0
0
0
0
0
0
0
0
0
0
0
0
0
0
0
0
0
0
0
0
0
0
0
0
0
0
0
0
0
0
3.564084575e-06
0
-4.489354465e-06
8.223613979e-06
9.053215846e-06
5.08345288e-05
-0.0001224849781
-5.199880136e-05
0.0002254610944
0.000149161138
-0.0006630561855
-0.0001506823628
0.0008316620613
0.0003001532937
-0.001309863258
-0.0003023467054
0.001437892418
0.0003932635331
-0.001653913848
-0.0003942168586
0.001661618166
0.0001344289414
-0.0008351528367
-0.000134409276
0.0008351331713
-0.0008400589938
-9.837553652e-06
1.026906918e-05
0.0008396274783
-0.001668341042
-0.0001868063583
0.0001854168414
0.001649540716
-0.000407773446
-0.001401889553
0.000408094321
0.001265656228
-0.0003272223298
-0.0007718050866
0.0003323704629
0.00060225922
-0.0001789799732
-6.88737878e-05
7.245627016e-05
8.689202356e-05
0
0
0
0
0
0
0
0
0
0
0
0
0
0
0
0
0
0
0
0
0
0
0
0
0
0
0
0
0
0
0
0
0
5.373064892e-06
0
-6.575692633e-06
1.133154043e-05
1.231077768e-05
5.485199323e-05
-0.0001262543755
-5.598557566e-05
0.0002252534295
0.0001541616716
-0.0006362080591
-0.000155599034
0.0007922502517
0.0003072165031
-0.001228851375
-0.0003092849639
0.001343625624
0.0003960663047
-0.001529249629
-0.0003966341641
0.001533262417
0.0001342870859
-0.0007699338502
-0.0001340067108
0.0003856330962
0.0003840203789
-0.00077404907
-1.124794405e-05
1.146616031e-05
0.0007738308537
-0.00153675857
-0.0001870972883
0.0001885884775
0.001515092686
-0.0004056658247
-0.001276005151
0.0004041012683
0.001148860132
-0.0003281985329
-0.0006960302927
0.0003255523054
0.0005425470267
-0.0001609859428
-7.002949703e-05
6.889149843e-05
7.793081448e-05
0
0
0
0
0
0
0
0
0
0
0
0
0
0
0
0
0
0
0
0
0
0
0
0
0
0
0
0
0
0
0
0
0
7.87623181e-06
0
-9.349542949e-06
1.528509445e-05
1.63125775e-05
5.946741537e-05
-0.0001305828566
-6.06712406e-05
0.0002255316769
0.0001600329105
-0.0006099230006
-0.0001615686406
0.0007535776012
0.0003156952212
-0.001149718037
-0.0003179472196
0.001251726645
0.0003982903247
-0.001408538204
-0.0003987287369
0.001410125142
0.0001338644061
-0.0007086517679
-0.0001337529641
0.0003552040817
0.0003533362442
-0.0007104715045
-1.173234699e-05
1.186412793e-05
0.0007103397235
-0.001404526031
-0.0001973681758
0.0002014035087
0.001368310189
-0.0003964829432
-0.001103234663
0.000384167937
0.0009905684436
-0.0002992049607
-0.0005761296424
0.000290393956
0.000440738154
-0.0001160267258
-5.335330159e-05
4.976941669e-05
4.999054668e-05
0
0
0
0
0
0
0
0
0
0
0
0
0
0
0
0
0
0
0
0
0
0
0
0
0
0
0
0
0
0
0
0
0
1.10928858e-05
0
-1.173146626e-05
1.979862266e-05
1.999564454e-05
6.452873987e-05
-0.0001341777277
-6.600885922e-05
0.0002243373803
0.0001665641087
-0.0005800517217
-0.0001685210588
0.0007108479353
0.0003253246489
-0.001066195595
-0.0003282456241
0.001155784812
0.0003997498837
-0.001285544887
-0.0003998634606
0.00128573894
0.0001332835892
-0.0006466434131
-0.0001332387218
0.0003241459947
0.000322452551
-0.0006459908023
-1.190031815e-05
1.180218004e-05
0.0006460889404
-0.001255192777
-0.0002119758534
0.0002159568277
0.001202597691
-0.000367325326
-0.0009360321381
0.000371094519
0.0008107451598
-0.0002518916637
-0.0004327593583
0.0002339899547
0.0003182936852
-6.796749946e-05
-3.209131277e-05
2.701896937e-05
2.232032285e-05
0
0
0
0
0
0
0
0
0
0
0
0
0
0
0
0
0
0
0
0
0
0
0
0
0
0
0
0
0
0
0
0
0
1.599856146e-05
0
-1.992855986e-05
2.696940055e-05
2.992023581e-05
7.100416379e-05
-0.00013879743
-7.438606102e-05
0.0002213407204
0.0001753167827
-0.00054946222
-0.0001799915563
0.0006679793034
0.0003384162147
-0.0009864191842
-0.0003352246471
0.00105899904
0.0004002006919
-0.001161041899
-0.000399941928
0.0005843199315
0.0005764632032
6.760978924e-05
-0.0002929010109
-6.752980146e-05
0.0002928210231
2.688027653e-05
-0.0001456449853
-2.667942828e-05
0.0002907360476
-0.0001452919105
-0.0005815702002
-1.101335169e-05
2.962386744e-05
0.001156430542
-0.000573710498
-1.976035925e-05
-0.0002225919562
-0.001085106172
0.0002288235739
0.001013903382
-0.0003452151763
-0.0007399978451
0.0003328861543
0.0006311270718
-0.0001875202743
-0.0003070404697
0.0001739583699
0.0002133442535
-2.472255593e-05
-1.023207035e-05
7.884713024e-06
2.464521336e-06
0
0
0
0
0
0
0
0
0
0
0
0
0
0
0
0
0
0
0
0
0
0
0
0
0
0
0
0
0
0
0
0
0
2.294108928e-05
0
-1.927460604e-05
3.238666837e-05
2.880794116e-05
7.944837294e-05
-0.0001467393863
-7.777289369e-05
0.0002298630586
0.0001868498356
-0.0005389969292
-0.0001837634398
0.0006466652936
0.0003543280659
-0.000917582096
-0.0003476049216
0.0009773825672
0.0003976073617
-0.001036349716
-0.0003976073617
0.0005221750771
0.0005141746388
6.751461046e-05
-0.0005221750771
-0.0001328304669
6.531585646e-05
0.0002619366856
0.0002602383916
6.24702897e-05
-0.0002619367415
-6.247020583e-05
0.0005221750771
-0.0002602384195
-0.001036349716
-2.503799448e-05
2.673043726e-05
0.001032149461
-0.0002304532313
-0.0009020260209
0.0002282593211
0.0008300903802
-0.0002882362151
-0.000554854327
0.0002829028458
0.0004504905963
-0.0001239014032
-0.0001827379679
0.0001046226605
0.0001190985075
-2.995487651e-06
-1.411910204e-06
6.311967263e-07
0
0
0
0
0
0
0
0
0
0
0
0
0
0
0
0
0
0
0
0
0
0
0
0
0
0
0
0
0
0
0
0
0
0
1.244510172e-05
0
-4.738500109e-06
1.309120213e-05
7.897631533e-06
6.528105375e-05
-9.431951628e-05
-5.872845414e-05
0.0001606514937
0.0001636769503
-0.0004282612157
-0.0001540040931
0.0005262683791
0.0003037477413
-0.0007817563252
-0.0002834437658
0.0008415045643
0.0003783507888
-0.0009223447565
-0.0003587564583
0.0009202237175
0.0001328304669
-0.0009123882656
-0.0002568711386
0.0009123882656
0.0001240406716
0.0001161446192
-0.0009123882656
-0.0001161446192
0.0009123882656
-3.726099131e-05
-0.0008914994924
4.199789451e-05
0.0008612993969
-0.000224659913
-0.000693642465
0.0002186825726
0.0006184698861
-0.000231903604
-0.0003716989823
0.0002133642141
0.000291315958
-6.078273425e-05
-9.098224597e-05
4.972487873e-05
4.742349394e-05
0
0
0
0
0
0
0
0
0
0
0
0
0
0
0
0
0
0
0
0
0
0
0
0
0
0
0
0
0
0
0
0
0
0
0
0
0
1.181084053e-07
0
0
6.130258875e-08
0
3.360691211e-05
-2.751289777e-05
-2.443130756e-05
6.324677258e-05
0.0001181218325
-0.0002450520517
-0.0001041322556
0.0003216024709
0.0002152512553
-0.0005487758993
-0.0001917712478
0.0006123841829
0.0002834835371
-0.0007400364775
-0.0002546670345
0.0007615229042
0.0002360700162
-0.000782235396
-0.0002181989761
0.0007800410206
0.0001081209844
-0.0007538268557
-9.812749948e-05
0.0007360238938
-5.590276105e-05
-0.0006415375967
5.927451343e-05
0.0005956927198
-0.0001858337758
-0.0004279793542
0.0001694586219
0.0003673062896
-0.0001440548651
-0.0001928922463
0.0001186756601
0.000141686499
-1.877042355e-05
-2.734369813e-05
1.074198468e-05
7.698371144e-06
0
0
0
0
0
0
0
0
0
0
0
0
0
0
0
0
0
0
0
0
0
0
0
0
0
0
0
0
0
0
0
0
0
0
0
0
0
0
0
0
0
0
3.064430952e-06
-5.005767611e-08
-5.299574597e-07
3.862699552e-06
5.79477909e-05
-7.235453279e-05
-4.237902067e-05
0.0001124303572
0.0001226336726
-0.0002583538513
-0.0001004765025
0.0003075318435
0.0001660298508
-0.0004278392177
-0.0001377903949
0.0004548390058
0.0001462810806
-0.0004922932776
-0.0001205315651
0.0004911671321
5.537265719e-05
-0.0004525197382
-4.084664485e-05
0.000429202866
-5.947775276e-05
-0.0003354296571
5.526098077e-05
0.0002988574128
-0.0001079838652
-0.0001862358884
8.577666842e-05
0.0001505583615
-4.853907768e-05
-5.839196993e-05
3.036752207e-05
3.486039772e-05
-1.357204847e-07
-1.657440941e-07
0
0
0
0
0
0
0
0
0
0
0
0
0
0
0
0
0
0
0
0
0
0
0
0
0
0
0
0
0
0
0
0
0
0
0
0
0
0
0
0
0
0
0
0
0
0
0
0
5.896651696e-06
-1.382367203e-06
-9.781786824e-07
6.605388658e-06
4.050473766e-05
-4.899816724e-05
-2.45408769e-05
6.899497838e-05
6.408070221e-05
-0.0001294453501
-4.456394548e-05
0.0001459454722
5.37536747e-05
-0.0001741718049
-3.721070497e-05
0.0001756217391
9.625412566e-06
-0.0001580733509
-4.385828117e-06
0.0001463451296
-3.191422053e-05
-0.000101386228
2.271777852e-05
8.506786316e-05
-2.781655451e-05
-3.901471233e-05
1.457858444e-05
2.603892229e-05
-1.296824348e-06
-1.64145289e-06
3.499922363e-09
1.804006269e-08
0
0
0
0
0
0
0
0
0
0
0
0
0
0
0
0
0
0
0
0
0
0
0
0
0
0
0
0
0
0
0
0
0
0
0
0
0
0
0
0
0
0
0
0
0
0
0
0
0
0
0
0
0
0
1.534733324e-07
0
0
1.716144766e-07
6.046763195e-06
-4.884029305e-06
-9.751385111e-07
7.586061475e-06
6.651223267e-06
-1.457064395e-05
-2.160204967e-06
1.565449126e-05
-2.511055737e-07
-1.400655313e-05
1.27569803e-07
1.208478354e-05
-2.460490004e-06
-4.765848825e-06
2.013423838e-07
2.653778692e-06
0
0
0
0
0
0
0
0
0
0
0
0
0
0
0
0
0
0
0
0
0
0
0
0
0
0
0
0
0
0
0
0
0
0
0
0
0
0
0
0
0
0
0
0
0
0
0
0
0
0
0
0
0
0
0
0
0
0
0
0
0
0
0
0
0
0
0
0
0
0
0
0
0
0
0
0
0
0
0
0
0
0
0
0
0
0
0
0
0
0
0
0
0
0
0
0
0
0
0
0
0
0
0
0
0
0
0
0
0
0
0
0
0
0
0
0
0
0
0
0
0
0
0
0
0
0
0
0
0
0
0
0
0
0
0
0
0
0
0
0
0
0
0
0
0
0
0
0
0
0
0
0
0
0
0
0
0
0
0
0
0
0
0
0
0
0
0
0
0
0
0
0
0
0
0
0
0
0
0
0
0
0
0
0
0
0
0
0
0
0
0
0
0
0
0
0
0
0
0
0
0
0
0
0
0
0
0
0
0
0
0
0
0
0
0
0
0
0
0
0
0
0
0
0
0
0
0
0
0
0
0
0
0
0
0
0
0
0
0
0
0
0
0
0
0
0
0
0
0
0
0
0
0
0
0
0
0
0
0
0
0
0
0
0
0
0
0
0
0
0
0
0
0
0
0
0
0
0
0
0
0
0
0
0
0
0
0
0
0
0
0
0
0
0
0
0
0
0
0
0
0
0
0
0
0
0
0
0
0
0
0
0
0
0
0
0
0
0
0
0
0
0
0
0
0
0
0
0
0
0
0
0
0
0
0
0
0
0
0
0
0
0
0
0
0
0
0
0
0
0
0
0
0
0
0
0
0
0
0
0
0
0
0
0
0
0
0
0
0
0
0
0
0
0
0
0
0
0
0
0
0
0
0
0
0
0
0
0
0
0
0
0
0
0
0
0
0
0
0
0
0
0
0
0
0
0
0
0
0
0
0
0
0
0
0
0
0
0
0
0
0
0
0
0
0
0
0
0
0
0
0
0
0
0
0
0
0
0
0
0
0
0
0
0
0
0
0
0
0
0
0
0
0
0
0
0
0
0
0
0
0
0
0
0
0
0
0
0
0
0
0
0
0
0
0
0
0
0
0
0
0
0
0
0
0
0
0
0
0
0
0
0
0
0
0
0
0
0
0
0
0
0
0
0
0
0
0
0
0
0
0
0
0
0
0
0
0
0
0
0
0
0
0
0
0
0
0
0
0
0
0
0
0
0
0
0
0
0
0
0
0
0
0
0
0
0
0
0
0
0
0
0
0
0
0
0
0
0
0
0
0
0
0
0
0
0
0
0
0
0
0
0
0
0
0
0
0
0
0
0
0
0
0
0
0
0
0
0
0
0
0
0
0
0
0
0
0
0
0
0
0
0
0
0
0
0
0
0
0
0
0
0
0
0
0
0
0
0
0
0
0
0
0
0
0
0
0
0
0
0
0
0
0
0
0
0
0
0
0
0
0
0
0
0
0
0
0
0
0
0
0
0
0
0
0
0
0
0
0
0
0
0
0
0
0
0
0
0
0
0
0
0
0
0
0
0
0
0
0
0
0
0
0
0
0
0
0
0
0
0
0
0
0
0
0
0
0
0
0
0
0
0
0
0
0
0
0
0
0
0
0
0
0
0
0
0
0
0
0
0
0
0
0
0
0
0
0
0
0
0
0
0
0
0
0
0
0
0
0
0
0
0
0
0
0
0
0
0
0
0
0
0
0
0
0
0
0
0
0
0
0
0
0
0
0
0
0
0
0
0
0
0
0
0
0
0
0
0
0
0
0
0
0
0
0
0
0
0
0
0
0
0
0
0
0
0
0
0
0
0
0
0
0
0
0
0
0
0
0
0
0
0
0
0
0
0
0
0
0
0
0
0
0
0
0
0
0
0
0
0
0
0
0
0
0
0
0
0
0
0
0
0
0
0
0
0
0
0
0
0
0
0
0
0
0
0
0
0
0
0
0
0
0
0
0
0
0
0
0
0
0
0
0
0
0
0
0
0
0
0
0
0
0
0
0
0
0
0
0
0
0
0
0
0
0
0
0
0
0
0
0
0
0
0
0
0
0
0
0
0
0
0
0
0
0
0
0
0
0
0
0
0
0
0
0
0
0
0
0
0
0
0
0
0
0
0
0
0
0
0
0
0
0
0
0
0
0
0
0
0
0
0
0
0
0
0
0
0
0
0
0
0
0
0
0
0
0
0
0
0
0
0
0
0
0
0
0
0
0
0
0
0
0
0
0
0
0
0
0
0
0
0
0
0
0
0
0
0
0
0
0
0
0
0
0
0
0
0
0
0
0
0
0
0
0
0
0
0
0
0
0
0
0
0
0
0
0
0
0
0
0
0
0
0
0
0
0
0
0
0
0
0
0
0
0
0
0
0
0
0
0
0
0
0
0
0
0
0
0
0
0
0
0
0
0
0
0
0
0
0
0
0
0
0
0
0
0
0
0
0
0
0
0
0
0
0
0
0
0
0
0
0
0
0
0
0
0
0
0
0
0
0
0
0
0
0
0
0
0
0
0
0
0
0
0
0
0
0
0
0
0
0
0
0
0
0
0
0
0
0
0
0
0
0
0
0
0
0
0
0
0
0
0
0
0
0
0
0
0
0
0
0
0
0
0
0
0
0
0
0
0
0
0
0
0
0
0
0
0
0
0
0
0
0
0
0
0
0
0
0
0
0
0
0
0
0
0
0
0
0
0
0
0
0
0
0
0
0
0
0
0
0
0
0
0
0
0
0
0
0
0
0
0
0
0
0
0
0
0
0
0
0
0
0
0
0
0
0
0
0
0
0
0
0
0
0
0
0
0
0
0
0
0
0
0
0
0
0
0
0
0
0
0
0
0
0
0
0
0
0
0
0
0
0
0
0
0
0
0
0
0
0
0
0
0
0
0
0
0
0
0
0
0
0
0
0
0
0
0
0
0
0
0
0
0
0
0
0
0
0
0
0
0
0
0
0
0
0
0
0
0
0
0
0
0
0
0
0
0
0
0
0
0
0
0
0
0
0
0
0
0
0
0
0
0
0
0
0
0
0
0
0
0
0
0
0
0
0
0
0
0
0
0
0
0
0
0
0
0
0
0
0
0
0
0
0
0
0
0
0
0
0
0
0
0
0
0
0
0
0
0
0
0
0
0
0
0
0
0
0
0
0
0
0
0
0
0
0
0
0
0
0
0
0
0
0
0
0
0
0
0
0
0
0
0
0
0
0
0
-0.0008442218567
0.0008442433246
0.0001344074736
8.871677025e-08
0.0008466213102
4.04860155e-07
-0.0004232950024
-0.0004238198847
8.555734986e-06
-0.0009121670941
-4.676882463e-06
-0.0007777147734
0.0001344998327
0.0003899356647
0.0003875663619
2.968512401e-06
0.0007828301992
-2.635976619e-06
-0.0003905440134
-0.0003926187216
1.496568693e-06
-0.000419800916
-0.0004216659297
-0.000716331657
0.0001340042614
0.0003591485079
0.0003570432938
3.141174095e-06
0.0007176124688
-3.694309816e-06
-0.0003574225414
-0.0003596367917
3.185296248e-06
-0.0003856517012
-0.0003886141527
-0.0006542053949
0.0001334499878
0.0003280158236
0.0003260231727
3.883331653e-06
0.0006534812753
-3.558388801e-06
-0.0006538062182
-0.0007107046237
3.374293287e-06
-0.0002951165221
0.0002951177847
6.760852663e-05
0.0001464578984
-1.431067908e-05
1.435666726e-05
-0.0001465038866
-0.0001469291671
0.0002931068615
2.716048047e-05
2.751278714e-06
0.0005898694392
-2.950699747e-06
-0.0005896700181
-0.0006459239301
3.816459511e-06
-0.0002641218507
0.0002641218507
6.751461046e-05
0.0002641220061
-3.453379993e-05
3.453426645e-05
-0.0002641224727
-0.0001458339897
-1.412167468e-05
0.0005299383896
-0.0002402243491
1.74174779e-05
1.946077748e-05
-1.627261182e-06
0.001056821783
-0.0005286009103
-0.0005333566965
7.91372078e-06
-1.150636071e-06
-0.0005813268612
2.507939735e-06
-0.0009239195939
0.0009236291383
0.0001312123704
7.104323005e-05
-0.0009525661027
-7.086287921e-05
0.0009205799938
7.302465816e-06
-0.0009193267246
1.662313616e-05
-0.0009705867406
-2.327553656e-05
-7.418045778e-06
0.0002215221645
7.54949669e-06
-0.0002216536155
0.0004622619512
2.226351403e-05
-0.0004636129966
-2.091246865e-05
0.0008463006379
-9.516881302e-06
0.0001333437276
0.001696915129
-0.0001313591901
-0.001699317982
-0.0001308473036
-0.001796474803
0.000133463247
-0.001559699333
0.00156439698
0.0003955478738
-0.00014299566
0.0001430592577
-0.0007777783711
0.0001431509053
-0.0008350912913
-0.0001432124507
-8.377861195e-06
0.0002030706712
8.227390204e-06
-0.0002029202002
6.8334524e-06
0.0002109956467
-0.000210797625
-7.031474082e-06
0.0007826773872
-1.109513204e-05
0.0001352505158
0.001571396982
-0.0001347341067
-0.001572012057
-0.001669157096
0.0001340259072
-0.001439165706
0.001441233682
0.000397820953
-0.0001426657564
0.0001427299019
-0.0007163958025
-0.0007700032183
-0.0001429262919
-0.0001339768336
-0.0007476389828
0.0001340535761
0.0003746849708
0.0003728772696
-5.306972459e-05
0.0001862763319
5.289979541e-05
-0.0003729143293
0.0001868079266
5.301495919e-05
0.0001927393217
-0.0003854397816
-5.283535601e-05
0.0001925208567
-6.928371528e-06
0.0001870032541
6.97205081e-06
-0.0001870469334
7.858251726e-06
0.0001944309185
-0.0001941010633
-8.188106896e-06
0.000717769666
-1.188954422e-05
0.0001395561348
0.001437482154
-0.0001376340113
-0.001442396546
-0.00153767363
0.00013586517
-0.00131600243
0.001316596451
0.0003994201458
-0.0001422493153
0.000142316314
-0.0006542723936
-0.000708689705
-0.0001426278193
-0.0001338140452
-0.0006854455102
0.0001337303274
0.0003437798243
0.0003417494037
-2.631427867e-05
0.0001704390406
2.642164339e-05
-0.0001705464053
5.244740971e-05
0.0001777209289
-0.0003551416859
-5.243983318e-05
0.0001774131805
-1.387419086e-05
0.0003415560132
1.396452763e-05
-0.00034164635
1.430969674e-05
0.0003561455547
-1.356704282e-05
-0.0001783734543
-0.0001785147543
-0.001192329215
0.00039996883
0.0006001440014
0.000592417075
-0.0001419640691
0.0002973158485
0.0001419888113
-0.0005924571128
-0.0006467039618
-0.0001421887665
-6.766996916e-05
-0.0003109149331
0.0003109331515
6.765175084e-05
-2.827966033e-05
0.0001559062903
2.790519636e-05
-0.0001555318264
2.739391524e-05
0.0001616859163
-0.0001619202788
-2.715955281e-05
-0.0001560820019
-1.463232017e-05
0.0001555235044
1.519081768e-05
-1.382182322e-05
0.0003099953124
1.36841497e-05
-0.0003098576389
1.388996786e-05
0.0003238005196
-0.0003237678348
-1.392265263e-05
-0.001083469729
0.0004010192013
0.0005501194997
0.0005299383896
-0.000141631855
0.0002658165389
0.000141631855
-0.0005299383896
0.0002915085516
-0.0005844000162
-0.0001419736153
-6.762836475e-05
-0.000279519591
0.000279492484
6.76554718e-05
-2.648115981e-05
0.0001370305657
2.735742872e-05
-0.0001379068346
2.881894816e-05
0.0001450129596
-0.0001455713622
-2.826054558e-05
-0.0004678391015
0.0004678391015
0.0001328304669
0.0004678391015
-7.12657471e-05
7.12657471e-05
-0.0004678391015
-0.0002619369965
-3.453354486e-05
5.089322893e-05
-0.0004361300313
-5.057530006e-05
0.0002179049047
0.0002179071978
-5.141297472e-05
-0.0004208257963
5.125206856e-05
0.0002110958568
0.0002098908457
-0.0004621390993
4.235826859e-05
-4.149191124e-05
0.000461272742
-0.0004393058137
0.0004396489687
5.05500739e-05
0.0002116780242
6.667364525e-06
-0.0002115119364
0.000220392997
-0.0002205795687
-7.231474094e-06
2.007887623e-06
0.0008740132405
-1.03468038e-06
-0.0004372876674
-0.0004376987804
1.527884553e-05
-0.0002192596597
-1.448399772e-05
0.0004388578089
-6.543954361e-06
0.0002117647508
6.457227846e-06
0.0001931261008
5.32229717e-05
-0.0003873716058
0.0001940374924
0.0004015807187
5.298021881e-05
-0.0004016315877
-5.292934983e-05
0.0001344392312
-0.0008019099116
-0.0001343783797
0.0008018490601
5.080919762e-05
-5.049382908e-05
0.0002008960638
0.0002003692864
-2.588369404e-05
0.0001931127263
2.589706857e-05
-0.000418284119
-5.121126743e-05
0.0002093048149
0.0002087775968
-0.0004039096418
5.079655556e-05
0.0002023165787
0.0002016057052
0.0001945932232
7.48963541e-06
-0.0001942246069
0.0002031020422
-0.0002028182729
-8.661630518e-06
-2.092192924e-06
0.0004052163885
-0.0004052879962
2.163800612e-06
7.573260274e-06
-7.664940758e-06
0.0002031937227
-7.034852309e-06
0.0001948016724
6.826403098e-06
-6.641668557e-06
0.0002110933609
0.0002031960313
7.447900197e-06
0.0004066257578
-2.094386588e-06
-0.0004066235642
0.0001781197361
5.266579273e-05
-0.0003568523798
0.0001785142606
0.000186016331
-0.0003712389319
-5.327039938e-05
0.0001854232757
-0.0007401544366
-0.0001341169466
0.0003711876619
0.0003691068876
2.630197221e-05
-2.637807506e-05
0.0001860924339
-2.526334989e-05
0.000178013961
2.5369125e-05
-2.581101683e-05
0.0001926666445
0.0001865367293
2.604157476e-05
0.00035764047
1.420886029e-05
-0.0001785256881
-0.0001790139455
0.0001864713541
-0.0001864127385
-6.986987149e-06
-3.928447203e-06
0.000741281176
3.73910017e-06
-0.0003692784244
-0.0003718134045
1.233047707e-05
-0.0001854533759
-1.206089657e-05
0.0003716551495
-1.212056578e-05
0.0003576171918
1.214384405e-05
-7.240138754e-06
0.0001946362049
-0.0001872359791
0.0003739646696
6.451901607e-06
6.153139096e-06
0.0007494338143
-3.315132422e-06
-0.0003739752559
-0.0003760718732
0.0001622216478
2.756898267e-05
-0.0001623967152
0.000169922991
-0.0001700075375
-2.622973223e-05
-0.0006772034415
-0.0001335495553
0.0003395889971
0.0003373499545
2.610450254e-05
-2.585934812e-05
0.0001696778366
-2.773259057e-05
0.0001618864382
2.806780013e-05
-2.522703016e-05
0.0001776846091
0.0001702577849
2.628575825e-05
0.000325972765
1.387509157e-05
-0.0003259578887
0.0003398229897
-0.0003397986873
-1.389849325e-05
0.0001466391001
2.91716542e-05
-0.0001469918061
0.0001545785313
-0.0001547031032
-2.815508837e-05
-0.0003088876036
-6.766514856e-05
0.000308882783
1.403434944e-05
0.0001542881387
-0.0001536476672
-1.467482095e-05
2.852891003e-05
-2.824136969e-05
0.0001542909909
-2.768483171e-05
0.0001459278149
2.839611692e-05
-2.73378473e-05
0.0001612911731
0.0001562132794
2.822192096e-05
1.509241924e-05
-0.0001571400717
-3.079647177e-05
0.0005888242571
3.042379234e-05
-0.0002930755518
-0.0002953760258
0.0003077827522
-0.0003076318517
-1.397272373e-05
-1.463004894e-05
0.0001542858675
0.0002664420656
-5.128449782e-05
-0.000265005028
2.50338061e-05
2.481365413e-05
0.00013645493
-0.0001370649189
-2.587117089e-05
-0.0002774541068
-6.758257235e-05
0.0002774083144
2.743238994e-05
0.000272626065
-0.0002726911401
-2.736731485e-05
2.201573428e-05
-2.176517495e-05
0.0001362043706
-4.980988596e-05
0.0002667411213
2.414624272e-05
2.536458757e-05
-2.699971086e-05
0.0001443278388
2.261320436e-05
0.0001364330956
0.0002747015714
2.769793204e-05
-0.0002749671134
-0.001685111893
0.001694903115
0.0003915801605
0.000143092501
-0.0008441634524
0.0001399594389
-0.0009148489266
-0.000141267455
-0.0001334640975
-0.0008811633566
0.0008811087836
0.0001335186706
-5.286932972e-05
5.280259687e-05
-0.0004392390808
5.034583155e-05
-0.0004633918198
-4.909311107e-05
-3.712916748e-05
0.0002229017883
-1.125585372e-06
-0.0001846470355
0.0002381899496
1.76941164e-05
-0.0002415374689
-1.434659708e-05
-0.0008101211855
0.0008101675949
0.0001343928218
5.301203483e-05
-0.0004039414578
5.315205023e-05
-0.0004182834062
-5.315276305e-05
-5.763105168e-05
0.0001763444095
2.57475656e-05
-0.0001444609234
0.0006533860822
-1.180512502e-05
0.0001511439199
0.001295126613
-0.0001471771738
-0.001315969967
-0.001411361406
0.0001410901928
-5.810881166e-05
0.0001593339124
2.756210494e-05
-0.0001287872057
-2.199796567e-05
0.0003177311347
2.217877994e-05
-0.0001586989726
-0.0001592129764
1.082969946e-05
0.0001621033452
-0.0001620657599
-1.086728479e-05
-2.669071787e-05
0.0002746821625
2.671012671e-05
-3.464476383e-05
0.0005560120537
3.315677378e-05
-0.0005545240637
0.0005805342823
-3.122894783e-05
-0.0002889634919
-0.0002911383143
5.311497021e-05
-0.0004207887163
-0.0004361510699
-5.284829115e-05
-0.000868006148
-0.000134009338
0.0008685513885
1.857675196e-05
-0.0002125935144
-1.889831963e-05
0.000212915082
-0.0002388380417
1.227220924e-05
-1.546768157e-05
0.000242033514
-0.0002270959659
-1.851673769e-05
0.0002271899368
1.842276674e-05
2.279252926e-05
-1.897021077e-05
0.0004584396327
-0.000221297712
0.0004418434725
1.625524954e-05
0.0008815068296
4.649188288e-07
-0.0004392307039
-0.000440733157
0.0001628816047
1.095454486e-05
-0.0001630064501
1.277918414e-05
0.0001664710748
-0.0001669922418
-1.225801712e-05
-3.429903881e-06
0.0006771352278
-0.0006772465226
3.541198711e-06
1.198542175e-05
-1.189859057e-05
0.0003397361585
-1.189760873e-05
0.0003259335677
1.193680604e-05
-1.190504007e-05
0.000355930029
0.0003415831581
1.195827678e-05
0.0006859246499
-3.472339851e-06
-0.000685882214
1.604200235e-05
0.0001504884325
-0.0001511055524
-1.542488246e-05
-0.0001408587677
-2.121947898e-05
0.0001410143306
2.106391617e-05
-2.790969426e-05
0.0002839855332
2.793108313e-05
-0.0001416116086
-0.0001423953135
0.000462235486
3.320192176e-05
-0.000462212858
-3.322454981e-05
-0.0009830103717
7.746510989e-05
-2.401624489e-05
-3.824271084e-05
0.0004812364548
0.0004865677628
-0.000460222345
0.000469400694
3.317991959e-05
0.0004633587976
2.300236776e-05
-0.0004640976514
0.0009661683664
6.687817746e-05
-0.0004834871909
-0.0004677179591
-3.155245483e-05
-5.028893907e-05
3.985897553e-05
-4.052484197e-05
0.0004629013525
0.0002835910061
-0.0003207201736
1.836932959e-05
0.0004509086407
-1.736446412e-05
-0.0002255141215
-0.0002263993847
1.624165983e-05
3.881547857e-05
0.0002285338677
1.451826118e-05
-1.281019309e-05
0.0002364818815
0.0002284422729
1.070117527e-05
0.0004514420596
1.706945171e-05
-0.000225135843
-0.0002250063387
7.501505018e-06
0.0002068697502
-0.0002068989087
-7.472346584e-06
0.0002075686562
7.513005479e-06
-0.0002075801567
6.729203429e-06
0.0001909342445
-0.0001908894905
-6.773957409e-06
0.0001919475499
6.974897736e-06
-0.0001921932442
0.0001702290045
-1.282361511e-05
1.153141033e-05
-0.0001689367997
0.0001785862559
-0.0002277913641
-8.42594351e-06
1.408159736e-05
0.0003473283849
-0.0003473031625
-1.410681977e-05
1.389775757e-05
-1.133167537e-05
0.0001760201737
-1.213849946e-05
0.0001705804094
1.178709454e-05
1.24473098e-05
-2.488327732e-05
0.0001764333699
-0.0001639974024
0.0001753030717
1.493909544e-05
0.0003495630964
1.409661488e-05
-0.0001744854311
-0.0001750926828
0.0001581194433
2.53751494e-05
-0.0001583360005
-2.515859223e-05
5.872791608e-05
-0.0003163532131
-5.867506096e-05
0.0003163003579
-5.864583229e-05
-0.0003108413096
0.0003108568318
5.863031012e-05
-2.162456469e-05
0.0003096396102
2.167577628e-05
-0.0003096908218
0.0003156638497
-2.180803832e-05
-0.0001577331837
-0.0001581205934
-0.0002077929187
-1.221124151e-05
0.0001618953486
2.370402888e-05
0.0001419351663
-0.0001425521965
-2.30869987e-05
5.817478724e-05
-0.000285270689
-5.81722732e-05
0.0002852681749
-5.818268913e-05
-0.0002794551826
5.833758635e-05
0.0001399100093
0.0001393902761
5.846397657e-05
-0.0002927331403
-5.833342924e-05
0.000292602593
-0.0002871750837
0.0002871106159
5.823925507e-05
0.0001415987672
2.440474475e-05
-0.000142299483
-0.0002265720628
1.679757984e-05
-7.986506156e-05
0.0002896395445
-0.0002120889053
1.883462722e-05
0.00021183103
-5.06493602e-05
-0.0004297422884
5.085215313e-05
0.0002147032745
0.000214836221
-2.138981247e-05
2.207837535e-05
-0.0002127774682
2.156723807e-05
-0.0002233064203
-2.48328805e-05
-2.358363852e-05
3.768289205e-05
-0.0002111357417
0.0001970364882
-0.0002131589251
-2.082440168e-05
-0.0004281502552
-5.109096651e-05
0.0002147849367
0.0002138069248
-4.947485331e-05
-0.0004558222341
0.0004561670188
4.913006867e-05
-2.100672426e-05
2.123696578e-05
-0.0002273262074
7.977730465e-06
-0.0002317257488
-1.509002328e-05
0.0002234806222
2.036949348e-05
-0.0002222828776
0.0002266090247
-0.0002264301223
-2.118562674e-05
-0.0004502020365
-4.98003819e-05
0.0004505275651
-2.003677698e-05