/*--------------------------------*- C++ -*----------------------------------*\
| =========                 |                                                 |
| \\      /  F ield         | OpenFOAM: The Open Source CFD Toolbox           |
|  \\    /   O peration     | Version:  v1912                                 |
|   \\  /    A nd           | Website:  www.openfoam.com                      |
|    \\/     M anipulation  |                                                 |
\*---------------------------------------------------------------------------*/
FoamFile
{
    version     2.0;
    format      ascii;
    class       surfaceVectorField;
    location    "1.02";
    object      Uf;
}
// * * * * * * * * * * * * * * * * * * * * * * * * * * * * * * * * * * * * * //

dimensions      [0 1 -1 0 0 0 0];


internalField   nonuniform List<vector> 
25162
(
(99.99788117 0.009044639396 -2.35154472e-21)
(99.9915295 0.008197599593 6.97149911e-21)
(99.99687092 0.02142830677 -2.316883223e-21)
(99.98840763 0.02750455252 2.368325597e-21)
(99.99489118 0.04136532979 -4.6169284e-21)
(99.98134066 0.05733452434 1.397283801e-20)
(99.99773833 0.04654410006 1.422320538e-21)
(99.96887627 0.1044133 -9.140238519e-21)
(99.98685685 0.1027147385 -1.533250287e-21)
(99.99673591 0.08394226022 2.216844472e-21)
(99.99886331 0.05002632036 1.089759592e-21)
(99.98474761 0.1379737528 2.198590421e-21)
(99.99652444 0.0780204151 1.070483711e-21)
(99.99742182 0.06170859438 -1.112814232e-21)
(99.9957408 0.0982857996 1.070439989e-21)
(99.97686496 0.220273641 2.126429389e-21)
(99.99539676 0.123024404 0)
(99.99520086 0.1499105363 -3.836106144e-21)
(99.97056775 0.3300428344 -3.836086179e-21)
(99.99462111 0.1813899017 -9.931568559e-22)
(99.99401089 0.2169126506 3.340922501e-21)
(99.96342465 0.4720094615 3.609158236e-21)
(99.9935062 0.2560683472 4.441199937e-22)
(99.99320565 0.2978485942 -2.846535752e-21)
(99.95990716 0.6385046587 4.085239701e-22)
(99.99320005 0.3407427779 -2.820653024e-21)
(99.99326385 0.3826586148 4.303216256e-22)
(99.96337236 0.8054309386 -1.849543979e-21)
(99.99340957 0.4218333878 2.583706097e-21)
(99.9942407 0.4550408732 2.112071007e-21)
(99.97759276 0.9347973065 -9.138380392e-22)
(99.99610931 0.4790684388 0)
(99.99865667 0.4921309441 0)
(99.99883828 0.9868325729 1.544020154e-22)
(100.0013121 0.4933748189 0)
(100.0037429 0.4826334709 6.415731905e-22)
(100.0198346 0.9446926962 -1.316705722e-23)
(100.005673 0.4614182897 1.202513977e-21)
(100.0066108 0.4311318903 -3.925864214e-22)
(100.0339241 0.8264755107 -7.422248624e-22)
(100.0065949 0.3948154061 -1.328984608e-21)
(100.0065542 0.3557207473 8.565161038e-23)
(100.0376303 0.6712293756 1.921580902e-21)
(100.0065944 0.3154778907 5.03680225e-22)
(100.0063396 0.2758279876 0)
(100.0351058 0.5132048635 0)
(100.005902 0.2382849967 0)
(100.0054943 0.2036676741 7.881911134e-22)
(100.0288289 0.375725307 1.643055387e-21)
(100.0054668 0.1728453564 -3.991292563e-21)
(100.00521 0.1436517268 -1.48515702e-21)
(100.0232771 0.2608099866 3.229339525e-21)
(100.0044127 0.118772249 3.229098547e-21)
(100.003286 0.0981052518 -8.945887185e-22)
(100.0137972 0.1764003502 -4.714819426e-23)
(100.0009919 0.08336478503 1.748709421e-21)
(100.0082256 0.07923809719 -7.737734112e-21)
(100.0474005 0.1946856062 3.927624585e-22)
(100.0173286 0.1774275431 -2.744283631e-21)
(100.0028834 0.08224487486 -1.583088574e-21)
(100.0056829 0.04551277807 -9.672630963e-22)
(100.0315389 0.1182881415 1.534382657e-20)
(100.00464 0.02122770465 -7.764882414e-21)
(100.0228166 0.06256596796 -1.635999971e-20)
(100.0200045 0.01960353848 1.361247473e-21)
(99.98028769 0.02528709236 1.163344979e-20)
(99.9677619 0.01370338983 3.585489268e-22)
(99.97022488 0.06042810996 1.854450076e-20)
(99.95546332 0.04674051405 -1.628894342e-20)
(99.95139756 0.1165887968 9.689768872e-21)
(99.92877908 0.09919773989 -2.517393039e-20)
(99.94256878 0.1835091154 -1.648286524e-21)
(99.88365171 0.1834614502 4.849199721e-20)
(99.90239016 0.2319559526 -1.066692184e-20)
(99.91520214 0.2351492247 -2.29232349e-21)
(99.93541744 0.2315085204 4.496074955e-21)
(99.96012248 0.1647142972 2.233860825e-21)
(99.93814389 0.2705109811 2.169397303e-21)
(99.91752225 0.2973013126 2.215681587e-21)
(99.86173453 0.3923139153 -4.486303932e-21)
(99.89780151 0.378979613 -2.8054246e-23)
(99.90670757 0.4304979409 2.126763106e-21)
(99.87510874 0.4786913321 -2.426860462e-23)
(99.79589071 0.6251805099 0)
(99.86382517 0.5562111909 0)
(99.82747916 0.6381332159 -2.645064014e-21)
(99.875518 0.6336851404 -5.184309257e-21)
(99.85834489 0.6702044216 -7.83799863e-23)
(99.81890502 0.7743157225 -1.166006217e-20)
(99.84822037 0.730640809 -4.008045097e-21)
(99.81685735 0.9712499024 3.112074685e-23)
(99.843522 0.9130078913 -2.607131738e-21)
(99.76854482 1.122384645 -1.41956239e-20)
(99.80982377 1.051297793 -3.46417857e-21)
(99.79129157 1.340089988 -6.321255813e-21)
(99.82748161 1.247568321 -5.987988793e-21)
(99.74018123 1.543292133 7.644599753e-22)
(99.79120576 1.43326697 -7.571200222e-21)
(99.80134354 1.727394012 -1.316666911e-23)
(99.84450216 1.589356861 -4.798936369e-21)
(99.75863106 1.976749566 -4.802632593e-21)
(99.81307557 1.818993432 -3.58770585e-21)
(99.86099544 2.049781344 -2.363092229e-21)
(99.90490163 1.863052217 -4.10171849e-21)
(99.8364056 2.331101965 2.185897595e-20)
(99.88536802 2.122712185 -2.751118646e-21)
(99.96651039 2.217640887 9.160721387e-22)
(99.99796887 1.984672965 -7.347163137e-22)
(99.96944269 2.494896845 6.312868303e-21)
(99.99550332 2.247897147 4.236371942e-23)
(100.0779171 2.175090415 8.319950695e-23)
(100.0752678 1.912266816 -1.604918009e-22)
(100.1019362 2.409810431 2.073451654e-22)
(100.1019409 2.146208201 -9.260016233e-22)
(100.1617895 1.943196904 -3.02853535e-22)
(100.1249431 1.68061834 -2.522431247e-22)
(100.1947079 2.11911845 -9.002996601e-23)
(100.1728875 1.868270688 2.385936559e-21)
(100.1958072 1.60439516 2.600209314e-21)
(100.1398753 1.369428694 4.522398981e-21)
(100.229214 1.726402177 4.519145851e-21)
(100.1960276 1.508637032 5.593250463e-22)
(100.189935 1.238960639 -7.093283353e-21)
(100.130684 1.04715935 -6.603558985e-21)
(100.2177149 1.318119763 -2.393756175e-21)
(100.1826804 1.145738236 -2.340369322e-21)
(100.1591299 0.9139845959 -5.531196064e-21)
(100.1043033 0.7676439451 5.017211839e-22)
(100.1765513 0.9616867302 -1.470915545e-21)
(100.1486186 0.836640507 5.978424432e-21)
(100.0936583 0.5148582273 -1.362021923e-20)
(100.150855 0.7045803306 -1.361916097e-20)
(100.2091796 0.7553132181 1.377691123e-20)
(100.1282238 0.5809318955 -2.777817949e-20)
(100.1070759 0.4761015285 1.200815974e-20)
(100.1474226 0.5038451804 -1.681038413e-20)
(100.0863971 0.3881766701 2.434235176e-20)
(100.0651945 0.3453076793 2.703269264e-20)
(100.0776637 0.2289461022 2.284410913e-20)
(100.1779055 0.3596798168 -1.715061778e-22)
(100.1382613 0.4106665873 4.831913178e-20)
(100.081449 0.3251294527 2.597905281e-21)
(100.0546023 0.1320548831 -7.034264393e-22)
(100.1224434 0.217009747 3.274087181e-20)
(100.0430453 0.06017590429 -7.630230687e-21)
(100.0905774 0.1149266934 -1.735424795e-20)
(100.0767647 0.03589853387 7.762100922e-21)
(99.94665946 0.03360437824 -2.794520522e-20)
(99.93603201 0.01399818848 -1.39673424e-20)
(99.91883712 0.08218472336 -6.044818403e-20)
(99.90969411 0.04976834624 1.276875817e-20)
(99.86809817 0.1621429387 1.219347672e-20)
(99.85370311 0.1118079067 -5.116490236e-20)
(99.81633541 0.2782798884 3.086336065e-20)
(99.76238885 0.2149545447 5.558641429e-20)
(99.75356908 0.3053132094 -4.872928006e-20)
(99.84388014 0.2945707319 -9.181871259e-21)
(99.75925656 0.3364199745 -6.799390729e-20)
(99.78137098 0.3687896621 -4.595408867e-21)
(99.75758522 0.4975892782 -8.935026573e-21)
(99.72769624 0.4822953928 -4.451424028e-21)
(99.62792252 0.5807983424 3.125681159e-20)
(99.66591242 0.6211465498 8.754575401e-21)
(99.64386552 0.801509244 -7.719434071e-21)
(99.59545905 0.7902014283 5.720231314e-21)
(99.45277154 0.9504793019 -4.400548479e-20)
(99.55620832 0.9587021192 3.080758128e-21)
(99.48342129 1.030392348 -1.914867112e-20)
(99.54273969 1.181691456 -7.845158695e-21)
(99.50485901 1.182618792 0)
(99.42153877 1.30414304 8.14648095e-21)
(99.46799325 1.312150455 -7.802954312e-21)
(99.41349885 1.746697956 3.78404799e-21)
(99.3579889 1.764259391 1.481922834e-20)
(99.25535956 1.94205845 7.336922343e-21)
(99.32544383 1.933290597 1.839372195e-20)
(99.33645795 2.438868067 2.647057223e-20)
(99.25976783 2.488599856 3.373246188e-20)
(99.15595208 2.726758554 -7.066799319e-21)
(99.25279768 2.681835573 7.589194826e-21)
(99.37599879 3.17453789 -3.616183103e-21)
(99.28476869 3.278508751 2.387367453e-20)
(99.20071921 3.578683399 -2.304039662e-20)
(99.31638097 3.469577242 -2.204894785e-20)
(99.57668119 3.805705855 1.4038068e-20)
(99.48714308 3.988233477 1.401409936e-20)
(99.45689353 4.325184819 -6.161031945e-20)
(99.57023946 4.12367464 5.657389396e-20)
(99.93874391 4.118096139 2.297598318e-20)
(99.87289712 4.385605305 -1.970596347e-20)
(99.92602518 4.703024552 -5.108899669e-21)
(99.98384454 4.407520862 -9.557023566e-21)
(100.3018101 3.97399875 -1.015046852e-20)
(100.3036302 4.293290162 -1.815706918e-20)
(100.4020698 4.534505809 -1.819956989e-20)
(100.3956441 4.191802407 1.693430631e-21)
(100.543632 3.448101569 -1.04110675e-20)
(100.6002481 3.76267981 -8.034777445e-21)
(100.7108132 3.909987746 6.975856616e-20)
(100.6415623 3.585583372 -2.30987375e-20)
(100.6188847 2.761245501 1.25199878e-21)
(100.7009366 3.026997634 3.777159829e-21)
(100.7960892 3.101738382 1.929089701e-20)
(100.7036978 2.837391053 4.822934736e-21)
(100.5842242 2.084597043 -6.574605277e-21)
(100.6725411 2.29610106 -1.538023034e-20)
(100.7462999 2.328113596 -5.321632852e-21)
(100.6496664 2.122789408 5.843738931e-21)
(100.5622094 1.651658689 -1.825242961e-20)
(100.4828848 1.494149745 -1.22816943e-20)
(100.6150701 1.658699389 -1.229825666e-20)
(100.5328905 1.510114905 6.54936763e-21)
(100.3679391 0.976055285 -5.388628895e-20)
(100.4946628 1.195259661 -2.827313225e-20)
(100.569963 1.171467796 -8.174032096e-20)
(100.4236252 0.9800151776 -3.880138695e-20)
(100.2628122 0.6470238914 -6.128939505e-20)
(100.3583168 0.7974632531 2.440536029e-20)
(100.4068181 0.7687927735 -2.909699083e-20)
(100.2985321 0.6440914712 -2.543197141e-20)
(100.2146104 0.3440112491 1.020905907e-20)
(100.3704274 0.4680291316 -2.607104131e-20)
(100.3543447 0.5736787198 -1.371349234e-22)
(100.2642752 0.5247747874 -1.495748397e-20)
(100.1529786 0.1970430967 1.535195681e-20)
(100.2606901 0.27963075 2.726350143e-20)
(100.1197995 0.08930429019 -1.949537427e-21)
(100.192218 0.1469200032 -3.931614075e-21)
(100.1609852 0.04554392956 0)
(99.90603499 0.02896803403 2.806054775e-20)
(99.90873273 0.007056254815 -4.684985577e-21)
(99.8531394 0.07656977768 2.364619546e-20)
(99.86484298 0.03001095632 3.278209835e-20)
(99.75833806 0.1634783717 -9.388998454e-21)
(99.77184638 0.0841483621 -4.630233883e-21)
(99.63845445 0.3152329448 0)
(99.62119887 0.1822518628 7.16982756e-21)
(99.56404699 0.3123668259 2.179133125e-20)
(99.65900959 0.3601050306 -6.353989194e-20)
(99.55027564 0.3617623526 1.638358196e-20)
(99.55972595 0.4309435297 0)
(99.4764601 0.6367878547 2.542021639e-22)
(99.45424485 0.5760113855 -3.60470438e-20)
(99.30740274 0.6614050226 -3.602279395e-20)
(99.32984448 0.7567035072 7.303101816e-20)
(99.22640713 1.063759857 -1.083930213e-19)
(99.18530365 0.9793003898 4.058657169e-20)
(98.97334101 1.129201884 -7.255096012e-20)
(99.07334838 1.240408096 -3.611273488e-20)
(98.97113054 1.264661017 -5.932022022e-20)
(98.97377038 1.609892006 8.542451716e-21)
(98.93152849 1.561925984 1.695894996e-20)
(98.79827762 1.686227585 4.296075026e-20)
(98.8458432 1.749528347 8.47222148e-21)
(98.66627516 2.452740018 -1.367096087e-19)
(98.59401438 2.404777136 -1.24227109e-19)
(98.43368934 2.590073314 -1.373734339e-19)
(98.51903266 2.654747036 -2.601855619e-19)
(98.46066128 3.535449034 6.038079907e-20)
(98.34548966 3.506930829 -1.21308219e-20)
(98.17432292 3.780290676 -3.045783896e-19)
(98.31273365 3.82221014 -1.201558745e-19)
(98.49447084 4.80348399 1.224046641e-20)
(98.33040238 4.834573911 -2.146881823e-20)
(98.18694295 5.212708345 7.503264433e-20)
(98.38617665 5.180558918 -1.116791325e-20)
(98.94745895 6.006223907 6.074218434e-20)
(98.75120035 6.158579749 3.751128577e-21)
(98.71038647 6.617823618 0)
(98.94421757 6.434356121 0)
(99.8553005 6.664756754 -4.337183789e-20)
(99.69933494 6.979432236 8.769988512e-20)
(99.81971217 7.412322586 4.186768467e-20)
(99.98469965 7.04037997 -6.119646449e-20)
(100.8329195 6.397478826 1.384238772e-20)
(100.8038643 6.821721528 2.483904181e-20)
(101.0330156 7.098434207 9.135324102e-20)
(101.0336207 6.627125553 3.41764275e-20)
(101.4126808 5.37948872 4.324279772e-20)
(101.5104517 5.796802227 2.932152901e-20)
(101.7305835 5.901720864 -1.606505827e-20)
(101.5944597 5.469359417 -3.160419062e-20)
(101.5090573 4.122212936 -7.089467965e-20)
(101.6626363 4.457552317 5.284666687e-21)
(101.8191478 4.458937412 8.29826661e-20)
(101.6398588 4.130773649 9.345539094e-20)
(101.351088 2.993470605 9.535152805e-20)
(101.4986457 3.233676677 9.514688982e-20)
(101.5992097 3.188247926 -1.872451465e-19)
(101.4377531 2.965802935 2.693619094e-19)
(101.2372544 2.265094825 0)
(101.1078209 2.09518052 4.91886139e-20)
(101.301677 2.216129297 0)
(101.1637874 2.058810221 0)
(100.8120011 1.333350731 2.963100109e-20)
(101.0212316 1.56386775 1.925359049e-20)
(101.0892248 1.453582392 -1.673737562e-20)
(100.8695898 1.268162101 3.7138808e-20)
(100.5794354 0.8648223052 -3.37948897e-20)
(100.7342399 1.019697862 -1.50942455e-20)
(100.7740029 0.9319541742 -1.524231568e-20)
(100.6157676 0.8122586691 -7.414369917e-21)
(100.4040744 0.401590053 -9.499118372e-21)
(100.6098994 0.4964654461 -1.955029926e-20)
(100.6464841 0.668667447 -2.581863132e-21)
(100.5323448 0.6439043827 5.655295182e-21)
(100.2884815 0.227008324 7.838219701e-21)
(100.4252635 0.2920130607 1.19009472e-20)
(100.2240015 0.1017518466 -1.981725912e-21)
(100.3103429 0.149778293 -3.495986291e-21)
(100.2569433 0.04580437988 -5.019169223e-22)
(99.87501194 0.007693839123 0)
(99.90149963 -0.00820953252 0)
(99.79295316 0.035675686 4.745641683e-21)
(99.83853139 -0.01611911234 0)
(99.64567274 0.10550326 1.20776297e-20)
(99.7061298 0.008659599793 -3.796936145e-21)
(99.44203923 0.2735781457 1.993095728e-20)
(99.48538753 0.07694980002 2.655091703e-20)
(99.37054164 0.2263350651 -8.00559965e-21)
(99.44118851 0.3395644235 2.821251007e-20)
(99.32954056 0.2916072705 2.269291139e-21)
(99.30659946 0.3927238361 -1.149600283e-20)
(99.12729444 0.6500249194 0)
(99.13205061 0.5472247721 -2.369966601e-20)
(98.94301002 0.5984069633 -1.949107754e-20)
(98.92471184 0.7440234037 4.836750846e-21)
(98.69494174 1.138905822 0)
(98.6828802 0.9935707177 4.836233008e-21)
(98.40345985 1.089750289 -5.006242967e-21)
(98.45495515 1.309710803 2.413663384e-20)
(98.33868345 1.299199673 6.256687147e-21)
(98.21361886 1.801714829 2.404350499e-19)
(98.18579158 1.699040694 -3.615101157e-20)
(98.00537222 1.79839112 7.77258547e-20)
(98.03606618 1.920140212 1.038375606e-19)
(97.63437167 2.874689552 7.2410379e-20)
(97.56678226 2.744058063 -2.860151422e-19)
(97.33837158 2.911007813 -6.15344414e-19)
(97.41267966 3.075267205 3.157907738e-19)
(97.13394992 4.394393571 -4.452423789e-19)
(96.99710043 4.255211721 -7.375504755e-19)
(96.72368895 4.542497308 -4.478290306e-19)
(96.88656218 4.715290477 -4.426106843e-19)
(96.97234386 6.403413824 2.286531723e-19)
(96.72373836 6.302089865 -3.401495672e-19)
(96.44709962 6.768763873 -6.115743588e-20)
(96.75642536 6.89112944 1.651574657e-19)
(97.66950593 8.648573219 -1.438802089e-19)
(97.28486641 8.718125417 -1.592612163e-19)
(97.16391688 9.398913148 2.484511114e-20)
(97.64175981 9.286778293 1.822458702e-19)
(99.6257478 10.08710286 1.229176376e-19)
(99.2548471 10.49591418 1.408836018e-19)
(99.51154468 11.17854686 2.007497729e-19)
(99.9121333 10.64385837 -1.935593197e-20)
(101.8845374 9.550274363 -6.0082631e-20)
(101.7983207 10.191685 -5.148799395e-20)
(102.2861527 10.51705806 1.084005102e-19)
(102.298729 9.786105257 -1.579901242e-20)
(103.0301141 7.571556919 1.025503009e-20)
(103.2208303 8.157635133 1.150231876e-19)
(103.6092352 8.151314779 1.596756057e-19)
(103.3421293 7.559901291 -3.504991787e-20)
(103.0188079 5.399577018 2.806410483e-19)
(103.3020234 5.817175576 -1.144655479e-19)
(103.5295541 5.683067585 -4.507809061e-20)
(103.2001274 5.292547432 -3.199515922e-20)
(102.5098663 3.68952583 2.003831433e-19)
(102.7634584 3.953102845 2.305352906e-19)
(102.8682542 3.815238577 -5.364851881e-19)
(102.6016204 3.577534572 -1.294273011e-19)
(102.1465988 2.639032958 -7.555490731e-23)
(101.9575497 2.47238808 -3.866048232e-21)
(102.2016247 2.521799792 1.887831445e-20)
(102.0087292 2.378651989 2.298784546e-20)
(101.3959276 1.525484736 -9.504789558e-20)
(101.6919647 1.741849675 -6.01404327e-20)
(101.7260309 1.540827781 -3.363761423e-20)
(101.4323729 1.389988677 -1.719106617e-20)
(100.9849629 0.9637444845 1.167191341e-20)
(101.2015409 1.099629133 3.526830807e-20)
(101.2085803 0.9559699111 -3.928838674e-21)
(101.0021318 0.8613172295 -3.853636826e-21)
(100.61751 0.388403043 2.016076675e-21)
(100.8617008 0.4284568292 0)
(100.973204 0.6463898087 -7.748771413e-23)
(100.8501729 0.6651236357 -1.048861081e-20)
(100.4357789 0.2123938655 4.471087144e-22)
(100.5912153 0.2432527152 2.015894918e-21)
(100.3336636 0.09286450064 -2.019774839e-21)
(100.4230725 0.1178751941 -2.021878628e-21)
(100.3445289 0.03504127924 -2.02389591e-21)
(99.87217159 -0.03174178861 0)
(99.93146787 -0.03185343557 2.32404695e-21)
(99.76078058 -0.04383286316 -9.502102153e-21)
(99.8500346 -0.08857750171 -2.342682383e-21)
(99.55929107 -0.01749592642 9.887731026e-21)
(99.68148719 -0.1160648212 -4.714527416e-21)
(99.26231144 0.1127233078 1.292808002e-20)
(99.39738775 -0.1039155357 4.04356778e-21)
(99.20232277 0.04005643335 -4.545794645e-23)
(99.23203095 0.2154090867 -9.590778602e-21)
(99.12303415 0.1131392064 -9.717710495e-21)
(99.06280318 0.2285875689 0)
(98.76253701 0.5036907121 -1.949059638e-20)
(98.81220963 0.3677524821 0)
(98.59394939 0.3657470915 -1.357352833e-22)
(98.51198049 0.5478487176 -9.654172051e-23)
(98.10971571 0.9765657958 1.009252254e-20)
(98.15763192 0.7811123818 1.512484026e-20)
(97.83079038 0.7976137238 2.04290595e-20)
(97.80394978 1.116911941 -2.989817488e-20)
(97.69578076 1.040782558 -1.719441614e-20)
(97.36952113 1.651727022 -1.727286979e-19)
(97.38135462 1.50210395 -4.898056318e-19)
(97.16013373 1.553878016 1.256807601e-19)
(97.14143476 1.731920694 -3.273427745e-19)
(96.38823273 2.825700971 1.859998748e-19)
(96.36071372 2.615372043 1.058625526e-18)
(96.05702249 2.729233736 -3.886566611e-19)
(96.08425805 2.992039836 -1.955568977e-20)
(95.30788082 4.68074344 -3.589755612e-19)
(95.20795399 4.401471078 -3.559487333e-19)
(94.7964582 4.610161498 5.913795232e-19)
(94.90985241 4.975059498 -7.048388297e-19)
(94.40838494 7.596167277 0)
(94.11125412 7.229274127 -6.678682794e-19)
(93.55602308 7.716242168 0)
(93.93123853 8.176198177 0)
(94.83415894 11.86325206 -4.816344938e-19)
(94.12011433 11.64093371 0)
(93.65022207 12.71777747 6.089318396e-19)
(94.61604063 12.93683048 -4.702533389e-19)
(98.89182177 15.46620883 -6.396557757e-20)
(97.97254697 16.07112053 0)
(98.54841068 17.41978156 0)
(99.57212424 16.46966522 0)
(104.1547414 14.01861858 7.848411502e-19)
(104.0234345 15.15427118 1.440248843e-19)
(105.1295934 15.42374703 -2.820803469e-19)
(105.0215383 14.14262774 -6.056559879e-20)
(105.9880569 9.856027766 0)
(106.4162482 10.68967625 0)
(107.0553979 10.37577101 1.995696581e-20)
(106.4696781 9.591316361 1.320433237e-19)
(105.3838389 6.350939563 0)
(105.893091 6.798797668 0)
(106.1252834 6.476458984 -5.730309631e-19)
(105.5675324 6.035075038 -5.414131093e-19)
(104.0978103 4.008918801 6.270033712e-20)
(104.4970783 4.26196353 2.464344096e-19)
(104.5554899 3.995604292 -1.358330065e-19)
(104.1537805 3.790408366 -5.345287433e-19)
(103.2555231 2.67033606 -3.230914804e-19)
(102.9861239 2.534155679 -2.583869494e-20)
(103.2659872 2.485954116 3.440727861e-20)
(103.004986 2.374817748 -6.710034884e-20)
(102.0664976 1.490726906 2.758772485e-20)
(102.4379945 1.645330148 -2.393402207e-22)
(102.4022257 1.369799205 1.669664429e-20)
(102.0506285 1.287314464 1.245039788e-20)
(101.4321446 0.9042727664 -1.631167371e-20)
(101.7051154 0.9953003828 -8.303793788e-21)
(101.6537035 0.8058062011 -8.305402531e-21)
(101.4080962 0.7596375659 1.261453769e-20)
(100.821361 0.2890032513 0)
(101.0902574 0.2583576328 1.330276136e-21)
(101.2855567 0.4910584721 -1.114729433e-20)
(101.1746632 0.5717931242 2.767725863e-20)
(100.5666858 0.146875042 -5.079323305e-22)
(100.7251838 0.1273312416 -1.57407518e-21)
(100.4245661 0.06011542554 -2.034364184e-21)
(100.5048669 0.04933471818 -2.298132103e-21)
(100.4012187 0.0128111247 2.600539402e-21)
(99.91563067 -0.08781353333 -1.789459601e-23)
(100.01432 -0.06281763924 9.683525061e-23)
(99.77853533 -0.1595312251 2.44130132e-21)
(99.91776186 -0.1836303405 -1.182539489e-22)
(99.52965219 -0.2002934346 -1.278270486e-20)
(99.72012251 -0.282964841 1.9532903e-21)
(99.13757333 -0.1310058089 -1.156260967e-20)
(99.38401843 -0.3521637971 -1.939055708e-20)
(99.10976114 -0.2404542305 -1.656867846e-20)
(99.06068764 -0.01821846314 -9.024498081e-21)
(98.98921798 -0.1723387308 -3.622527779e-21)
(98.87478232 -0.05507586872 3.943375281e-23)
(98.44688606 0.1860269906 1.474107319e-20)
(98.55539918 0.03469454644 1.504096678e-20)
(98.32994656 -0.0327891208 7.433752938e-21)
(98.17300068 0.1587117605 2.565310193e-20)
(97.58924564 0.5531138725 -2.58403176e-20)
(97.72220006 0.322400058 -2.079069371e-20)
(97.39171243 0.2452446917 -3.126803761e-20)
(97.23401318 0.5916207568 -2.073562045e-20)
(97.15024959 0.4775912905 -1.911674227e-19)
(96.576496 1.111447679 9.818059512e-19)
(96.64795231 0.9294767479 7.270546899e-19)
(96.40707514 0.9167882657 -7.29051064e-19)
(96.31576723 1.125668679 7.052365172e-19)
(95.11748173 2.184535743 3.985554534e-19)
(95.17926584 1.905775241 -7.869334951e-19)
(94.83489812 1.919911174 -8.482718388e-19)
(94.74735071 2.241643806 -4.02632448e-19)
(93.19583521 3.985080627 -8.191592316e-19)
(93.2264493 3.55253865 4.18989733e-19)
(92.69449715 3.615858365 0)
(92.62547284 4.123806874 8.423062526e-19)
(90.55773158 7.243243953 2.571947706e-18)
(90.45181507 6.511612543 1.292056984e-18)
(89.50754837 6.721984286 2.681036511e-18)
(89.59436734 7.658859675 1.825872819e-18)
(87.90704377 14.63044821 7.790247375e-19)
(86.96644871 13.27042818 4.722211663e-19)
(84.96775832 15.0364386 4.03950018e-18)
(85.18984587 14.09025206 -1.250568651e-18)
(87.0062365 16.36285927 2.08028056e-18)
(85.86750557 16.41218706 -5.572561165e-19)
(93.97945498 27.02127644 0)
(95.47203278 26.46119793 0)
(94.66584781 28.96296654 0)
(96.45061405 27.92772472 0)
(110.3527622 22.1511034 -1.177938773e-18)
(110.3834419 20.18106963 -1.241216732e-19)
(112.1097563 19.48020327 9.061604181e-20)
(111.3852643 22.79884884 5.3620836e-19)
(113.5237152 21.28339206 5.984644741e-20)
(113.1679365 22.22522879 -1.722292548e-18)
(112.1730588 12.36917518 -1.446309468e-20)
(111.1444087 11.37832206 -9.2641462e-20)
(112.8055636 11.3610014 5.691791613e-19)
(111.6207831 10.6228841 -1.888895341e-21)
(108.6078115 6.35760998 6.888006283e-19)
(109.4337317 6.762121113 3.219198545e-19)
(109.507468 6.107366699 1.03154939e-18)
(108.6714833 5.83959634 7.16138702e-19)
(106.0104207 3.65108262 1.197516068e-18)
(106.5706445 3.816272342 -2.905459051e-19)
(106.5008195 3.424118134 -2.664628701e-19)
(105.9631823 3.327173059 6.40771743e-19)
(104.4534262 2.221265278 -5.850543819e-19)
(104.1009786 2.156124549 2.870203937e-19)
(104.3776793 1.9808809 -8.11394493e-19)
(104.0459868 1.936152897 7.648027072e-21)
(102.719624 1.173596091 4.367926516e-21)
(103.1577211 1.220844253 -9.609583184e-21)
(103.0037629 0.9009335945 -2.495469011e-21)
(102.6244974 0.9188584437 -4.517722746e-21)
(101.8580274 0.6572081977 4.490497837e-21)
(102.1681025 0.6780029032 -2.387800862e-23)
(102.0428802 0.463120626 -7.354561579e-21)
(101.7735283 0.4817920885 9.076010284e-21)
(100.975869 0.1017416723 -2.037949185e-22)
(101.2349236 -0.008883196083 -2.870685698e-22)
(101.5396127 0.1992999537 8.494477572e-22)
(101.4534545 0.3112902402 6.660888596e-21)
(100.6516569 0.02947554276 -3.36907246e-21)
(100.7932265 -0.05210104388 -2.503121733e-22)
(100.4723594 0.002641572163 2.525495675e-21)
(100.5301205 -0.05285135236 -2.237136238e-21)
(100.4036937 -0.02013480574 4.180188592e-22)
(100.0211249 -0.1572722565 1.873616423e-23)
(100.1626814 -0.09899811264 -3.443946972e-21)
(99.86513375 -0.3039104854 -6.338111778e-22)
(100.0561163 -0.2946656562 1.501060557e-21)
(99.58197312 -0.4313786133 -4.961349402e-21)
(99.84045046 -0.4792551843 -3.265366482e-21)
(99.11313824 -0.4562498778 1.026435686e-20)
(99.47216827 -0.6467185987 -1.13085154e-21)
(99.12816427 -0.5931483927 1.074504832e-21)
(98.98198029 -0.3500182729 5.031302666e-21)
(98.96898141 -0.5412544232 1.039870342e-20)
(98.79947495 -0.442324372 7.340574529e-21)
(98.25328636 -0.2840537592 -2.504522545e-21)
(98.42861884 -0.4274736188 3.894771507e-21)
(98.22219375 -0.5616184644 2.56899444e-21)
(97.98983197 -0.3942991018 7.79854272e-21)
(97.25046852 -0.1159244108 -2.683594102e-21)
(97.4750005 -0.3409883013 -2.414901221e-23)
(97.17484102 -0.5161676193 -2.678195501e-21)
(96.87321634 -0.1785839553 -4.704986968e-19)
(96.83699336 -0.3372732129 -1.760869181e-21)
(96.01167903 0.2052822416 0)
(96.15484014 0.0214771333 0)
(95.92397907 -0.06533962345 7.765348461e-19)
(95.75126205 0.1371448485 0)
(94.16406004 0.9055065446 0)
(94.34166372 0.6164894363 0)
(94.01097556 0.510163708 4.426821796e-19)
(93.78802404 0.8230566138 8.883885006e-19)
(91.49193757 2.053018235 9.281517908e-19)
(91.74756044 1.598269837 1.199508796e-19)
(91.23478126 1.426103226 1.675392035e-22)
(90.89162489 1.915960092 2.438780665e-19)
(86.97666777 3.913917761 -1.077419859e-18)
(87.43515272 3.098078304 -1.064426987e-18)
(86.54766885 2.702504423 -2.10268896e-20)
(85.83277149 3.582006724 -1.367742456e-18)
(77.75960248 7.313287602 -4.085605471e-18)
(78.39107424 6.220632874 -4.021778095e-18)
(77.32527785 5.542147708 -1.337256954e-18)
(76.3568056 6.706422931 -1.28758219e-18)
(129.2935679 24.10606496 -1.67920898e-18)
(127.1446471 23.10527075 -1.599881085e-18)
(129.8145403 21.84737847 2.288583388e-18)
(127.7735233 21.31877613 -1.701806917e-18)
(120.1490943 9.837801651 1.293274658e-18)
(118.2644227 9.442985643 2.555718125e-18)
(119.9290992 8.099487149 6.565860774e-20)
(118.2011811 8.111029454 1.868469972e-19)
(112.1475514 4.590898978 2.253803947e-19)
(113.2669133 4.65963312 2.392651291e-19)
(112.9110733 3.820599062 -2.214603112e-19)
(111.896928 3.905727997 -1.914486457e-19)
(107.8539943 2.378672032 -3.272268575e-19)
(108.5267557 2.353657737 1.063092791e-18)
(108.2323275 1.913070336 3.293537929e-19)
(107.6276538 1.998882159 1.936719276e-22)
(105.4997262 1.222632535 1.628123692e-19)
(105.0989007 1.263696548 2.364226685e-19)
(105.3082506 0.963918794 1.575707764e-19)
(104.9462153 1.024085112 -1.580094336e-19)
(103.2395982 0.5596339611 -4.869732075e-21)
(103.7076518 0.4803331288 -9.330357542e-20)
(103.4136466 0.1605234156 7.695684207e-21)
(103.0441173 0.295214939 1.165679813e-21)
(102.1843619 0.2266659591 -2.02327105e-21)
(102.496466 0.1581267681 1.366775604e-20)
(102.284536 -0.04643427413 5.060923863e-21)
(102.0292515 0.05170510795 1.003479345e-20)
(101.040316 -0.158727976 -3.511741657e-22)
(101.263331 -0.3541091806 -1.064665554e-21)
(101.6684298 -0.2058013029 -1.077947028e-21)
(101.6341787 -0.05094142397 -1.197277333e-21)
(100.6623168 -0.1322401375 1.086410474e-21)
(100.768121 -0.2800519676 1.324125851e-21)
(100.4539282 -0.07450827405 -4.297515914e-21)
(100.4756026 -0.1808671364 1.680821205e-21)
(100.3333905 -0.06157118911 -2.123151961e-21)
(100.2000412 -0.2348160437 -1.961578965e-21)
(100.3841859 -0.1375781041 1.08739222e-21)
(100.0342411 -0.4656018714 -1.145442232e-21)
(100.2738521 -0.4129872795 -8.024953268e-22)
(99.73406398 -0.690972328 5.868508925e-22)
(100.0530969 -0.6885215669 -2.888262722e-22)
(99.21494854 -0.8303756361 6.744576831e-22)
(99.67577208 -0.9619886281 9.722289329e-22)
(99.27951534 -0.9830829194 5.838442058e-22)
(99.02974587 -0.7481066141 1.701525565e-21)
(99.0889994 -0.9584856657 -1.735320197e-23)
(98.87015985 -0.8930563458 -1.735567014e-23)
(98.24176287 -0.8576864819 -2.564573284e-21)
(98.47741428 -0.9690934106 0)
(98.31377015 -1.163459099 -1.257447096e-21)
(98.01851878 -1.045236755 -1.340500989e-21)
(97.17034538 -0.9416914578 5.062966163e-20)
(97.47903571 -1.121376326 4.935353569e-20)
(97.24012522 -1.377628223 6.515658682e-21)
(96.81208505 -1.101346568 -4.653995122e-19)
(96.83471172 -1.283437831 1.850697749e-20)
(95.82390503 -0.9322520123 7.80845459e-19)
(96.02749637 -1.086258597 0)
(95.84234697 -1.232003556 0)
(95.59247076 -1.072955788 8.704842562e-22)
(93.8230951 -0.7466433142 2.424069373e-21)
(94.08743485 -0.9779272655 0)
(93.84433438 -1.170302751 4.685251743e-19)
(93.503517 -0.9363107223 -9.439499763e-19)
(90.97967656 -0.5295812483 6.371899005e-20)
(91.40121235 -0.8461112296 3.728728797e-19)
(91.05010313 -1.152592412 6.129179683e-20)
(90.54569045 -0.8551381824 -1.249144127e-19)
(86.54061089 -0.7669444241 -1.09225827e-18)
(87.30036435 -1.161343832 -5.358365631e-19)
(86.83011927 -1.734973425 1.042576961e-18)
(85.95059514 -1.440350319 1.690370742e-18)
(80.2981872 -3.157512081 -1.256018261e-18)
(81.03089547 -3.205395412 -1.255270089e-18)
(80.92241872 -3.777194777 1.173053049e-18)
(80.2343509 -3.852550332 -2.88604561e-19)
(142.148537 4.49962276 0)
(140.417421 5.674958468 0)
(140.6404418 3.134365367 0)
(139.1991134 4.284894579 2.226334833e-18)
(125.1051531 1.606354552 2.097423387e-18)
(123.2913486 2.440507238 -3.163610152e-18)
(123.7174372 0.2834746302 -1.451998885e-18)
(122.3048488 1.213327309 -3.205612807e-18)
(114.5464142 0.8622860081 -3.282534492e-21)
(115.6504099 0.4116606732 2.427609429e-19)
(114.8085087 -0.2588390377 2.445244402e-19)
(113.8952686 0.2479241337 -2.070382518e-19)
(109.0546457 0.2249035005 0)
(109.7169062 -0.04854031646 4.051025496e-19)
(109.19385 -0.4029002491 -5.680835015e-19)
(108.631489 -0.1072948651 1.248095203e-18)
(106.098298 -0.2338728706 0)