/*--------------------------------*- C++ -*----------------------------------*\
| =========                 |                                                 |
| \\      /  F ield         | OpenFOAM: The Open Source CFD Toolbox           |
|  \\    /   O peration     | Version:  v1912                                 |
|   \\  /    A nd           | Website:  www.openfoam.com                      |
|    \\/     M anipulation  |                                                 |
\*---------------------------------------------------------------------------*/
FoamFile
{
    version     2.0;
    format      ascii;
    class       volScalarField;
    location    "1400";
    object      p;
}
// * * * * * * * * * * * * * * * * * * * * * * * * * * * * * * * * * * * * * //

dimensions      [0 2 -2 0 0 0 0];


internalField   nonuniform List<scalar> 
12556
(
658.484
657.689
655.725
651.623
646.125
633.87
613.978
582.258
534.349
465.232
370.976
251.188
111.424
-36.6778
-179.056
-304.386
-406.934
-486.199
-544.517
-585.651
-619.817
-635.791
-644.99
-649.315
658.96
658.443
657.083
654.028
648.534
638.068
620.338
593.993
550.718
486.505
396.119
277.378
134.691
-19.5106
-168.742
-299.602
-405.647
-486.703
-553.714
-592.392
-625.969
-640.122
-648.143
-651.888
660.178
660.29
660.277
659.466
655.555
649.248
637.182
615.313
579.685
522.42
434.765
309.782
149.727
-27.0164
-194.684
-334.366
-440.738
-517.1
-579.514
-611.654
-640.366
-650.559
-656.082
-658.627
661.592
662.592
664.441
666.74
665.622
665.392
661.8
648.553
626.5
583.852
505.645
373.395
180.203
-43.4812
-245.578
-397.97
-502.079
-569.105
-619.521
-640.853
-661.234
-665.708
-667.661
-668.483
662.244
664.249
668.2
674.091
676.841
684.145
691.707
691.61
690.18
674.463
623.595
493.277
237.555
-85.4783
-346.358
-510.114
-598.234
-642.206
-672.415
-678.237
-685.753
-682.974
-680.595
-679.328
661.161
664.169
670.217
679.75
687.045
702.314
721.861
737.841
764.439
792.968
805.886
727.803
353.774
-211.526
-553.911
-690.259
-731.221
-735.954
-734.419
-719.906
-710.783
-699.814
-692.686
-689.147
657.422
661.308
669.181
681.904
693.851
716.324
746.758
778.723
833.17
913.142
1037.93
1215.94
710.572
-662.392
-951.062
-951.806
-898.035
-841.642
-797.566
-760.396
-732.505
-713.419
-701.677
-695.944
650.198
654.724
663.906
678.911
694.96
722.707
760.832
804.969
877.828
988.732
1178.94
1587.45
-2055.27
-1569.95
-1261.95
-1068.52
-940.909
-851.19
-792.543
-746.614
-720.752
-705.218
-697.681
638.856
643.71
653.538
669.675
688.814
719.2
760.701
810.794
887.913
994.713
1136.76
1272.69
-3488.19
-2078.58
-1501.2
-1192.79
-1009.16
-882.988
-809.039
-749.261
-719.132
-701.249
-692.58
623.052
627.894
637.664
653.716
674.689
705.034
745.872
796.353
868.155
958.496
1058.68
1136.9
-3408.05
-2146.16
-1556.3
-1224.89
-1025.4
-883.901
-804.814
-737.984
-706.861
-688.456
-679.501
602.761
607.272
616.327
631.171
652.703
680.72
717.801
764.927
827.851
904.534
989.379
1068.58
-2633.52
-1854.4
-1426.85
-1157.9
-984.591
-851.721
-778.87
-712.49
-683.657
-666.551
-658.16
578.244
582.144
589.938
602.698
623.623
647.514
678.61
719.855
772.198
837.758
919.444
1020.69
-1758.08
-1407.98
-1186.2
-1019.44
-898.073
-791.926
-733.856
-674.523
-650.606
-636.261
-629.136
550.041
553.136
559.268
569.181
588.486
607.023
630.63
663.873
702.994
753.777
826.247
945.784
-775.027
-916.987
-957.856
-915.11
-849.536
-785.737
-714.455
-675.244
-627.36
-609.813
-599.111
-593.709
518.828
521.053
525.403
532.322
549.316
561.888
577.026
600.797
623.642
651.364
688.52
784.899
224.556
-390.04
-603.534
-673.849
-682.913
-667.465
-630.008
-609.435
-574.662
-563.884
-557.101
-553.591
485.43
486.698
489.102
492.76
506.831
512.968
519.216
532.536
537.527
536.917
520.125
456.226
179.606
-169.441
-381.039
-490.667
-540.312
-557.397
-547.031
-542.168
-519.955
-515.44
-512.317
-510.624
450.676
451.016
451.55
452.136
463.232
463.552
461.904
465.438
455.375
433.357
386.85
294.834
125.635
-88.0191
-254.904
-364.127
-428.112
-462.578
-470.631
-477.423
-465.952
-466.659
-466.645
-466.536
415.394
414.917
413.826
411.765
419.976
415.344
407.295
402.974
382.336
347.772
293.269
208.375
88.8913
-55.4705
-181.053
-276.103
-341.428
-383.284
-403.079
-417.615
-414.521
-419.226
-421.65
-422.769
380.336
379.185
376.768
372.579
378.219
369.791
357.149
347.311
320.813
281.828
228.293
155.498
64.8492
-40.2928
-136.575
-215.884
-276.104
-319.253
-344.963
-363.885
-366.811
-374.258
-378.45
-380.456
346.115
344.444
341.017
335.252
338.765
327.716
312.194
298.988
270.141
231.13
181.84
120.297
48.5228
-32.0781
-107.832
-173.553
-226.844
-267.925
-295.69
-316.529
-323.338
-332.439
-337.76
-340.382
313.204
311.166
307.043
300.231
302.082
289.458
272.462
257.564
228.6
191.697
147.527
95.4501
37.0221
-26.9803
-87.9729
-142.651
-188.99
-226.56
-254.075
-275.182
-284.23
-294.112
-300.037
-302.994
281.94
279.676
275.139
267.739
268.364
255.015
237.6
222.189
194.405
160.523
121.413
77.1371
28.6736
-23.4112
-73.4301
-119.231
-159.244
-192.862
-218.867
-239.217
-249.298
-259.327
-265.453
-268.537
252.536
250.167
245.45
237.84
237.616
224.184
207.086
191.939
166.023
135.454
101.023
63.1844
22.4665
-20.6563
-62.2525
-100.876
-135.342
-165.051
-188.932
-207.941
-218.22
-227.964
-234.004
-237.061
225.099
222.722
218.01
210.478
209.716
196.662
180.364
165.966
142.24
114.965
84.7474
52.2718
17.7628
-18.3714
-53.3171
-86.067
-115.737
-141.792
-163.312
-180.688
-190.623
-199.807
-205.565
-208.492
199.647
197.335
192.77
185.527
184.471
172.105
156.906
143.54
122.106
97.9563
71.5061
43.5525
14.1425
-16.3809
-45.945
-73.825
-99.3578
-122.088
-141.223
-156.861
-166.118
-174.58
-179.937
-182.666
176.133
173.94
169.622
162.817
161.653
150.173
136.237
124.053
104.894
83.6402
60.5536
36.4603
11.3201
-14.5913
-39.7093
-63.4979
-85.4539
-105.199
-122.035
-135.941
-144.332
-151.993
-156.878
-159.373
154.464
152.427
148.426
142.153
141.02
130.538
117.942
107.005
90.0388
71.4382
51.3598
30.6016
9.09504
-12.9502
-34.329
-54.6361
-73.4848
-90.5638
-105.242
-117.482
-124.916
-131.75
-136.134
-138.377
134.512
132.656
129.015
123.332
122.334
112.906
101.666
91.9874
77.0968
60.9195
43.5396
25.6945
7.32336
-11.4267
-29.6124
-46.9217
-63.0541
-77.755
-90.4359
-101.109
-107.552
-113.569
-117.447
-119.432
116.129
114.467
111.212
106.15
105.361
97.0019
87.1011
78.6597
65.716
51.7525
36.8044
21.5308
5.8988
-10.0012
-25.4222
-40.1206
-53.8615
-66.4367
-77.2816
-86.4968
-91.9539
-97.1817
-100.564
-102.296
99.1509
97.6908
94.833
90.4022
89.8804
82.5815
73.9805
66.7404
55.6143
43.6788
30.9342
17.9536
4.7419
-8.66038
-21.657
-34.0568
-45.6752
-56.3429
-65.5017
-73.3692
-77.8618
-82.3394
-85.2442
-86.7313
83.4084
82.1529
79.6965
75.8965
75.6844
69.4226
62.0728
55.9907
46.5602
36.491
25.7563
14.841
3.79178
-7.3937
-18.2385
-28.5921
-38.3104
-47.2558
-54.863
-61.4856
-65.0437
-68.8129
-71.2626
-72.5166
68.7221
67.6717
65.6161
62.4409
62.5776
57.3251
51.1755
46.2067
38.3615
30.0196
21.1323
12.0966
3.00115
-6.19238
-15.1039
-23.6156
-31.6162
-38.9949
-45.167
-50.6363
-53.2855
-56.3857
-58.4028
-59.4346
54.9435
54.0942
52.4341
49.873
50.382
46.1066
41.109
37.2126
30.8561
24.1242
16.9492
9.64226
2.33252
-5.0485
-12.2015
-19.0358
-25.4672
-31.4076
-36.2417
-40.6362
-42.409
-44.8771
-46.4842
-47.3067
41.8106
41.167
39.9037
37.9565
38.9104
35.5996
31.7127
28.8536
23.9036
18.6838
13.1107
7.41246
1.75563
-3.95418
-9.4869
-14.7747
-19.7558
-24.3616
-27.9353
-31.318
-32.1859
-34.0452
-35.2562
-35.8729
29.4629
28.9995
28.11
26.7446
28.0592
25.6541
22.8419
20.994
17.3822
13.5933
9.53308
5.35074
1.24567
-2.9013
-6.92114
-10.7649
-14.3893
-17.7418
-20.1136
-22.5391
-22.6319
-23.9254
-24.7704
-25.21
16.6871
16.4719
16.002
15.2802
17.4973
16.1122
14.3564
13.5145
11.1837
8.75595
6.13812
3.40434
0.783464
-1.87986
-4.46835
-6.94646
-9.28578
-11.4452
-12.6446
-14.1456
-12.9298
-13.6233
-14.0745
-14.2804
7.53782
7.35087
7.12079
6.70385
7.64231
6.74159
6.01996
6.31772
5.21309
4.07367
2.85016
1.50118
0.365464
-0.87468
-2.09344
-3.26404
-4.37187
-5.38414
-5.31641
-5.97655
-5.71452
-6.08242
-6.28991
-6.4626
1304.88
-3700.04
-2146.25
1147.39
-3706.49
-3786.94
1075.28
-2862.65
-3626.28
1027.35
-1915.59
-2742.59
953.094
-831.325
-864.798
-1034.24
-1799.92
811.373
312.877
-787.216
177.659
-403.358
-938.358
1588.21
871.81
-1839.22
-488.518
-4613.27
-2476.86
-3402.46
-2193.39
-1675.59
1077.48
1139.57
1262.41
-5216.87
-5311.87
-3473.18
-2395.56
-2301.35
1006.09
1065.78
1128.37
1107.62
1131.33
1169.33
-3977.83
-4663.6
-2741.76
-2109.93
-2359.24
938.09
1013.18
1058.71
1050.81
1088.55
1098.16
-2685.04
-3238.82
853.208
940.981
1005.94
992.126
1055.66
1074.96
-1571.9
-1499.53
-2008.97
726.73
799.561
929.076
900.242
1000.92
1021.06
522.884
284.637
321.568
1549.31
1268.63
2180.09
1618.94
-5304.58
-4684.62
-3234.01
-4495.29
-5161.93
1172.82
1191.48
1185.69
1189.15
1176.51
1250.36
1192.08
-4703.07
-5197.15
-3794.94
-5077.25
-4618.39
-5170.67
-5095.83
-3814.23
1100.72
1126.08
1098.68
1129.35
1102.84
1174.5
1132.26
-3319.79
-3925.01
-3213.35
-3828.72
-3249.88
-4579.13
-3919.22
-3325.5
1076.55
1088.36
1045.24
1091.54
1080.64
1101.37
1091.41
-2082.92
-2607.94
1023.42
1054.13
986.558
-1535.22
1059.55
1027.99
1079.01
1061.23
-1570.07
-973.537
-1429.07
-1527.98
1035.37
1001.11
889.709
-62.5604
1007.91
921.158
1026
1007.31
-139.458
1155.38
1290.63
1501.95
1479.76
1610.59
2060.31
-5266.73
-2708.04
1202.61
1195.69
1264.3
-3205.76
-1865.84
-1608.23
-1995.48
-1941.55
-1878.37
-2139.56
-191.373
-480.33
-840.121
1282.99
1548.8
1431.78
1229.39
2977.86
2154.59
-2404.96
-4330.4
-3004.73
-2181.19
-2468.56
-2267.8
-2562.89
-2054.34
-3172.12
-2637.58
-2386.53
-1161.31
-342.66
-481.313
1423.59
1794.59
2200.46
-2081.37
-312.117
1233.83
-5402.43
-3932.09
-5292.42
-2649.41
-5113.8
-3609.74
-5278.57
-5287.75
-4307.04
-4353.68
-2849.01
-3144.91
-2918.52
-3122.21
-2823.55
-3491.96
-3167.6
-2997.79
1064.34
1036.67
1026.23
-1548.83
-1795.79
-1872.67
1007.11
968.074
953.083
986.655
972.764
1008.11
1428.66
1250.03
1387.85
1269.99
1469.61
1178.49
1251.27
1349.2
1969.2
2141.42
2832.23
1519.54
2039.37
1875.49
2036.72
1487.14
-5130.04
-5093.62
1182.86
1180.78
1182.3
1213.7
1164.94
1178.17
1177.29
1165.97
1206.22
-4943.69
-4973.8
-4882.27
-4330.69
-4424.2
-4142.6
-4289.76
-4851.96
-5171.35
-4469.96
-4408.18
-4445.06
-4473.92
-5162.51
1114.11
1112.15
1157.2
1153.76
-3568.25
-3523.44
-3614.35
1087.44
1086.36
1093.86
1093.27
-2778.86
-2488.51
-2380.68
-2508.93
-2800.56
1033.68
1004.71
991.105
1022.35
1009.39
1037.02
-1207.5
1041.08
1037.32
1069.11
1068.45
-1882.11
-1206.65
-1221.39
-1466.95
946.802
923.881
995.469
1009.51
471.692
157.564
1014.43
-336.787
110.904
-254.422
1014.12
-392.067
-282.122
78.8787
-2990.53
-2069.5
-2207.37
560.508
536.832
764.997
656.926
660.319
956.22
196.604
-123.366
-296.366
3958.9
-2238.65
-2387.9
-900.85
-1139.71
-1161.27
-140.811
-378.067
-118.691
2320.32
2551.2
3016.91
-2212.61
-67.6293
1769.94
-5258.08
-5757.96
-5720.94
-5314.99
-4117.48
-4303.99
-4130.33
-4912.12
-4776.79
-4538.01
1091.21
1076.11
1070.05
1086.26
1078.42
1092.26
1048.94
1039.87
1065.34
1001.97
982.507
977.69
858.872
594.72
341.793
-5245.91
-5699.54
-5773.77
-4944.03
-4101.8
-3762.33
-4369.28
-4186.38
-4974.42
-4813.7
-5076.18
-4959.45
-5113.43
1109.4
1099.17
1089.24
1108.14
1110.09
1106.22
-4076.41
-3924.21
-3790.66
-3571.9
-3333.98
-3548.09
-4285.92
-3897.63
-4085.44
-3619.81
-3830.13
-4240.74
1082.97
1059.48
1051.83
1068.09
1061.85
1084.05
1091.25
1104.8
1101.23
1092.88
1103.71
1084.88
1097.7
1101.9
1106.9
1099.64
1096.85
1091.39
-2305.83
-2448.37
-2176.58
-1401.48
-1395.27
1053.87
1023.87
1073.63
1081.23
1092.08
1083.62
1064.03
-1699.55
913.936
912.855
875.648
975.797
968.026
998.083
124.256
373.064
133.721
1008.67
443.844
673.438
507.861
626.403
1015.28
1011.99
-4561.78
-3149.49
-4177.89
-3320.26
-3375.07
-1900.38
-2027.21
-2046.06
1203.81
1193.2
2683.9
2968.68
3631.25
2760.25
2552.64
-2540.57
-2391.87
-2343.84
-2400.14
-2559.43
-1178.39
-1012.61
-1018.8
-1020.08
-1183.23
-810.901
-969.321
-590.347
-606.447
-761.913
-400.409
-553.754
-493.24
-5631.99
-4971.21
-4483.63
-5407.41
-5103.98
-4292.93
-3601.05
-4283.77
-5612.99
-5572.9
-5262.36
-5310.46
-5698.13
-5634.43
-4514.64
-4357.4
-4165.99
-4411.15
-4580.38
-4186.56
-4361.81
-4623.12
-4492.88
-4733.31
-4562.52
-2978.14
-3029.94
-2998.96
-2915.88
-3038.03
-3351.78
-3250.59
-3380.82
-3079.19
-3207.45
-3302.86
-1752.31
-1726.22
-1855.73
989.195
984.506
999.298
1009.64
996.31
991.659
1329.11
1306.57
1332.13
1404.11
1333.81
1539.24
1432.97
1358.31
1205.81
1255.15
1225.04
1314.56
1267.78
1216.8
1694.87
1733.66
1581.31
1744.75
1664.44
-5640.56
-5672.33
-5220.7
-5796.91
-5796.43
-5792.43
-5634.11
-5495.75
-5803.77
-5666.73
-4951.44
-5480.35
-5626.08
1178.19
1182.73
1184.88
1183.97
1183.19
1180.5
1190.57
1191.9
1186.98
1189.64
1167.21
1198.14
1189.98
1218.2
1202.04
1167.67
1174.99
1185.12
1183.88
1188.3
1185.86
1175.74
-5211.37
-5112.47
-4848.23
-5076.9
-5348.74
-5235.26
1123.01
1117.93
1133.13
1123.73
1111.08
1110.3
1115.37
1111.02
1178.89
1167.47
1191.1
1182.44
1146.9
1135.59
1163.54
1151.44
-3594.56
-3730.06
-3424.17
-3552.55
-3649.03
-3972.85
-4127.43
-3775.96
-3924.63
1097.48
1103.72
1090.61
1109.19
1099.92
1104.11
1110.99
1099.32
1084.85
1103.3
1096.26
1100.05
1100.75
1096.33
1104.36
1103.5
1108.94
1104.09
1097.59
1101.67
1098.45
1097.12
1091.65
1096.6
1098.37
-2569.29
-2635.21
-2697.19
-2556.87
-2743.93
-2675.2
-1193.89
-1352.64
-1386.59
-1190.45
1051.96
1028.66
1078.25
1079.31
1072.09
1065.54
1085.61
1079.52
-1773
994.159
964.256
956.584
652.356
552.237
1007.85
243.817
414.927
299.556
1011.93
-489.942
-50.0675
181.598
-94.0443
998.547
-1798.91
-1469.89
-925.506
-2194.34
-2246.79
-1046.09
-1079.72
-1472.79
-2257.3
-974.04
-966.67
-814.43
-1983.04
-1518.72
-1459.42
3018.47
3375.02
3964.43
-1961.92
292.735
2416.33
-1070.79
-616.106
-2071.23
-4292.04
-4864.45
-5171.13
1148.82
1135.14
1120.32
1154.61
1140.2
1154.6
-1552.39
-1682.44
-1700.38
-2096.03
-1854.69
-1787.89
1004.82
999.039
1012.33
-5261.81
-5433.04
-4907.32
1115.61
1102.96
1112.98
1122.07
1123.97
1132.78
1135.28
1145.7
1141.05
1023.26
1012.04
1007.42
-1550.53
-1504.85
-1493.55
1032.59
1037.43
1029.58
-1632.81
-1647.64
-1559.61
-1391.54
-1377.46
-1509.31
1009.61
1024.36
1031.19
1031.04
1003.52
-5132.54
-3237.55
-1920.3
-1979.26
-1986.98
-2188.92
-2057.49
-2017.1
1214.03
-3618.04
-3092.8
-3659.37
-2303.6
-2361.21
-2228.02
-817.88
-833.171
-664.309
-665.28
-760.906
-1090.68
-446.118
-2229.01
-5455.73
-5207.68
-5033.39
-5745.54
-5685.15
-2892.01
-2922.05
-2876.17
-3161.21
-3152.53
-3125.8
-2750.34
-2872.19
-2951.86
-3459.95
-3410.08
-3454.24
-1864.78
-1841.54
-1871.61
1385.03
1416.92
1269.65
1289.48
1315.12
1295
1180.43
1199.24
1193.9
1276.41
1260.21
1235.98
1991.31
1793.91
1769.39
1931.43
1890.26
2031.92
1462.46
1504.94
1537.31
1177.75
1179.74
1189.27
1180.93
1181.77
1182.04
1201.97
1204.21
1191.53
1190.84
1167.28
1174.52
1173.09
1190.12
1186.02
1175.29
1173.52
1176.99
1178.94
1173.12
1174.94
1170.22
1117.06
1122.37
1119.75
1107.7
1110.67
1114.99
1164.87
1175.36
1165.51
1176.77
1172.41
1205.32
1201.73
1136.77
1168.01
1163.63
1144.49
1149.73
1161.18
-3747.63
-3799.87
-3495.03
-3542.22
-3567.22
-3852.1
-3873.5
-3741.8
-3876.67
-3735.41
1021.13
1014.65
1025.51
1046.29
1030.92
1024.27
1044.82
1050.15
1045.22
1034.15
1037.71
1040.66
-1879.79
968.331
968.033
974.57
739.231
976.475
343.239
488.398
615.252
1020.46
1017.54
1013.52
-395.251
-250.042
-223.934
-237.572
1011.65
1018.27
1020.94
-126.99
-201.125
-350.584
-2108.89
-2143.34
-2232.12
-2185.89
-2165.49
3785.61
4408.8
3472.9
-2286.51
-2314.47
-2245.35
-2406.05
-2354.49
-2341.13
-1052.39
-149.985
-2035.06
-5499.72
-5506.47
-5456.21
-5476.41
-5746.18
-5611.32
-5618.93
-5592.33
-5603.28
-5735.09
-4872.67
-4796.03
-4838.02
-4702.32
-4752.42
-4828.74
-5746.17
-5589.2
-5556.7
-5623.76
-5615.01
-5774.89
-5033.85
-4956.27
-4994.48
-4880.58
-4919.05
-4999.57
-5423.51
-5441.29
-5351.24
-5388.96
1104.16
1099.48
1099.6
1093.94
1090.85
1089.18
1095.3
1093.44
1097.62
-1507.97
-1560.44
-1393.62
-1464.32
1064.16
1065.44
1065.99
1063.44
1024.24
1027.42
1037.19
1021.23
1084.49
1082.15
1079.56
1087.68
1085.23
1088.87
1073.62
1072.2
1076.69
1061.1
1066.83
-1709
-1700.28
-1687.84
-1564.43
943.278
1003.23
1158.14
1000.18
989.753
987.239
1010.63
378.035
358.05
1143.49
1010.09
770.222
1016.34
1025.76
1020.68
1006.22
-4805.77
-5087.6
-4889.85
-3960.99
-3742
-2891.88
-4607.1
-4301.11
-3275.49
-3403.4
-2041.32
-2028.09
-2038.56
1208.48
1175.24
3206.41
3090.99
2909.17
2272.46
2138.68
2703.1
2457.85
2538.14
-2467.32
-2412.61
-2507.34
-1031.78
-1031.95
-1021.55
-1126.79
-847.142
-831.772
-818.308
-962.054
-912.259
-904.14
-591.042
-649.398
-649.272
-474.808
-475.786
-520.444
-5484.9
-5361.05
-5550.92
-5311.92
-5540.48
-5625.82
-5658.03
-5604.27
-5588.93
-5494.42
-5509.74
-5494.53
-5482.01
-5570.41
-5672.57
-5558.44
-5576.74
-5526.34
-5542.01
-5653.77
-4465.54
-4392.96
-4441.5
-4463.44
-4525.79
-4237.33
-4261.94
-4227.54
-4310.48
-4673.61
-4713.78
-4678.71
-4593.81
-4649.14
-4490.27
-4541.86
-4618.51
-3015.07
-2941.81
-2927.6
-2956
-2890.69
-2941.71
-3082.36
-3109.52
-3058.76
-3315.51
-3357.31
-3386.33
1354.32
1286.8
1222.42
1208.18
1188.01
1225.77
1246.92
1234.87
1703.84
1782.76
1834.96
2021.05
1907
1595.12
1559.31
1629.36
-5650.89
-5479.39
-5460.93
-5522.79
-5499.15
-5663.23
-5804.42
-5796.55
-5606.58
-5779.29
-5784.55
-5727.06
-5772.71
-5566.53
-5789.94
-5805.35
-5850.04
-5726.13
1179.95
1181.3
1178.9
1182.04
1181.71
1181.05
1196.67
1199.23
1191.89
1194.22
1176.48
1175.61
1167.96
1170.73
1181.63
1178.26
1177.38
1176.61
1172.91
1173.92
1176.8
1177.66
-5182.13
-5097.49
-5127.17
-5029.29
-5063.23
-5144.37
-5305.41
-5231.6
-5301.68
-5154.38
-5185.8
-5266.69
1121.93
1123.02
1123.14
1118.96
1121.74
1120.23
1128.78
1126.21
1133.64
1122.17
1122.23
1125.3
1111.21
1112.82
1111.82
1112.92
1113.26
1111
1113.2
1112.8
1115.53
1110.73
1110.92
1111.67
1185.91
1181.36
1175.22
1178.53
1182.53
1170.19
1174.34
1171.37
1195.28
1190.11
1150.99
1147.84
1142.96
1145.68
1148.84
1137.99
1133.32
1137.03
1159.57
1161.85
1166.02
1153.57
1157.69
1155.53
1159.52
1155.42
-3678.54
-3706.99
-3622
-3592.51
-3627.36
-4018.48
-4049.94
-4009.61
-4164.41
-4100.67
-4069.09
-3818.24
-3854.37
-3820.91
-3964.57
-3919.98
-3872.08
1098.75
1095.47
1094.07
1098.84
1097.25
1101.17
1104.76
1101.3
1106.79
1109.16
1100.75
1091.56
1088.26
1089.18
1093.02
1092.54
1092.18
1097.8
1093.86
1096.46
1106.72
1104.49
1107.21
1109.02
1111.19
1106.65
1107.69
1105.81
1098.35
1099.68
1096.38
1096.59
-2652.99
-2634.48
-2684.03
-2544.79
-2589.77
-2624.25
-2806.42
-2841.6
-2726.52
-2739.76
-2751.27
-1322.73
-1323.05
-1379.14
-1200.56
-1256.59
-1270.42
1054.76
1047.54
1065.76
1062.15
1034.12
1034.46
1030.76
1037.04
1036.39
1042.77
1039.84
1077.98
1076.13
1076
1077.82
1076.73
1078.32
1084.28
1078.11
1077.37
1076.43
1077.29
1081.85
-1822.35
983.073
980.179
992.514
607.887
632.183
704.77
561.134
571.189
544.532
1008.94
347.176
291.698
219.62
1012.05
1013.79
1011.77
-467.006
43.4065
-21.3257
161.281
150.227
161.366
-42.1802
-170.104
-155.364
-51.4329
1008.56
1017.72
1011.36
608.838
582.252
563.061
570.854
528.855
504.5
511.288
448.159
420.873
422.536
333.767
308.936
299.311
186.089
171.209
144.741
18.1368
18.3285
-24.8801
-147.662
-133.564
-186.715
-291.856
-269.761
-323.692
-406.006
-382.07
-430.075
-490.493
-468.968
639.21
621.233
590.381
613.118
580.319
539.344
565.856
508.788
460.148
484.239
391.362
344.848
353.485
220.437
192.45
170.699
14.2968
17.5099
-37.8718
-184.911
-154.642
-229.361
-345.546
-302.399
-378.547
-461.021
-417.023
-483.566
-539.105
-500.341
680.202
675.703
633.513
672.828
657.351
597.159
649.002
608.902
529.573
588.719
498.227
412.4
455.785
287.543
233.316
219.553
0.731061
12.3354
-70.8452
-261.243
-199.21
-314.377
-442.192
-364.776
-475.682
-552.399
-479.844
-571.068
-611.98
-555.284
726.439
740.975
691.508
745.756
758.697
680.545
761.62
760.154
641.572
753.675
694.14
536.564
652.635
425.922
312.814
315.698
-51.9538
-6.43877
-164.86
-425.079
-290.811
-487.178
-613.019
-476.792
-638.271
-685.438
-581.616
-694.375
-708.841
-633.967
769.568
803.943
757.445
817.524
866.005
786.108
885.328
954.186
806.426
980.319
1053.55
765.471
1060.27
777.668
483.169
646.866
-298.593
-83.0167
-488.026
-788.586
-491.035
-829.747
-877.391
-668.977
-878.662
-863.138
-725.832
-854.43
-825.051
-736.59
800.252
849.792
817.634
869.825
944.859
889.914
976.508
1104.26
1001.1
1163.7
1500.7
1173.42
1402.7
1558.79
1172.13
996.89
-119.544
129.853
-965.71
-1017.44
-797.931
-1405.57
-1233.98
-960.518
-1185.27
-1062.12
-912.695
-1027.91
-942.049
-855.106
811.358
866.654
856.88
888.583
967.299
955.973
998.648
1111.57
1119.2
1179.98
1247.37
1250.43
1564.37
1653.87
1689.87
-2775.87
-2294.02
-1828.07
-1987.82
-1557.44
-1325.35
-1455.93
-1227.03
-1109.35
-1169.11
-1032.57
-968.407
801.741
854.921
866.158
875.33
944.303
964.757
969.756
1050.65
1098.52
1116.9
1149.72
1175.9
1245.61
1247.94
1276.81
-3602.74
-2938.41
-2803.2
-2170.87
-1679.98
-1611.09
-1561.71
-1294.13
-1254.75
-1226.63
-1068.39
-1047.4
774.223
821.598
848.342
839.488
898.141
934.365
919.183
984.521
1034.01
1040.57
1062.17
1081.62
1126.83
1135.68
1150.18
-3152.95
-2705.44
-2853.2
-1949.13
-1570.41
-1672.15
-1473.01
-1242.96
-1292
-1182.81
-1038.43
-1066.93
732.286
772.238
810.616
787.427
837.479
884.264
855.831
916.195
968.03
972.693
994.08
1010.27
1062.34
1073.63
1081.81
-2304
-2078.24
-2324.75
-1524.97
-1312.04
-1515.61
-1252.16
-1100.75
-1214.22
-1058.59
-952.584
-1021.4
678.777
709.581
757.747
721.494
761.455
820.041
776.686
830.924
897.213
899.508
924.789
942.941
1013.61
1031.87
1041.21
-1439.93
-1432.08
-1609.91
-1064.51
-1004.42
-1236.25
-981.949
-914.401
-1056.39
-892.852
-833.133
-924.834
616.473
635.917
692.073
643.366
667.995
739.7
677.307
711.455
804.787
796.411
818.098
864.592
929.318
961.575
976.629
-512.484
-593.764
-822.918
-491.2
-650.568
-959.157
-679.707
-724.193
-929.516
-729.242
-727.206
-866.299
-722.85
-703.982
-800.89
549.605
556.564
617.341
558.834
564.083
643.935
564.974
563.375
677.6
645.789
652.857
717.598
741.836
746.142
829.325
251.784
19.5488
-86.7879
-205.557
-383.695
-568.334
-425.413
-511.877
-664.096
-530.694
-566.481
-683.906
-573.155
-582.899
-672.424
481.906
477.609
536.496
475.223
463.651
538.049
457.613
429.611
527.008
416.085
353.978
475.609
325.198
191.608
266.382
137.899
-46.2362
-94.2527
-101.635
-242.661
-339.729
-280.625
-369.047
-470.271
-391.301
-441.32
-531.801
-453.352
-478.949
-555.115
418.007
405.185
458.717
399.54
377.001
440.575
367.181
329.14
401.485
313.492
250.171
322.653
225.875
131.001
172.852
96.6441
-23.3581
-37.8684
-61.3012
-165.522
-218.711
-195.994
-273.644
-341.775
-295.079
-347.252
-415.414
-361.015
-393.289
-456.011
360.532
342.521
388.55
335.12
307.756
358.096
296.709
257.545
308.914
242.478
186.093
231.365
166.65
94.9133
120.332
69.9846
-15.6402
-20.6293
-43.1956
-121.8
-152.334
-145.841
-210.193
-255.297
-228.937
-277.17
-327.586
-290.716
-324.574
-374.551
310.387
289.934
328.462
281.881
253.521
292.929
242.611
205.803
243.052
192.118
143.656
173.908
127.923
71.3806
88.1261
52.0661
-12.7267
-14.6454
-33.7453
-94.8269
-113.891
-113.992
-166.904
-197.852
-182.866
-225.476
-262.779
-237.934
-270.344
-309.81
267.307
246.268
278.239
238.231
210.864
241.894
200.68
167.365
195.143
155.213
113.91
135.263
100.937
55.1003
66.7652
39.5508
-11.4496
-12.3156
-28.0703
-76.809
-89.6768
-92.3362
-136.058
-158.244
-149.553
-186.487
-214.715
-197.585
-227.258
-258.66
230.505
210.011
236.568
202.354
176.913
201.656
167.672
138.015
159.302
127.326
92.1149
107.846
81.2403
43.3536
51.8129
30.5284
-10.7228
-11.2386
-24.2079
-63.9223
-73.2057
-76.6923
-113.119
-129.711
-124.536
-156.324
-178.239
-166.058
-192.596
-217.91
199.057
179.74
201.933
172.645
149.497
169.517
141.241
115.039
131.756
105.683
75.5793
87.5648
66.346
34.6048
40.9293
23.857
-10.1503
-10.5735
-21.2914
-54.1699
-61.2444
-64.8024
-95.3945
-108.277
-105.084
-132.39
-149.837
-140.864
-164.292
-185.008
172.089
154.271
172.964
147.811
127.034
143.469
119.724
96.6657
110.069
88.4964
62.6812
72.0618
54.7671
27.9261
32.7686
18.8235
-9.58776
-10.0115
-18.91
-46.446
-52.0798
-55.3832
-81.2455
-91.5704
-89.497
-112.952
-127.162
-120.3
-140.826
-158.037
148.838
132.649
148.537
126.84
108.369
122.05
101.929
81.6975
92.6419
74.5771
52.3877
59.8951
45.5612
22.7247
26.5054
14.9633
-8.989
-9.44218
-16.8569
-40.1045
-44.7497
-47.6678
-69.639
-78.1367
-76.6846
-96.8369
-108.648
-103.195
-121.088
-135.593
128.668
114.129
127.754
108.957
92.653
104.191
87.0013
69.305
78.3845
63.109
44.0145
50.1357
38.1046
18.6062
21.6059
11.963
-8.34645
-8.83233
-15.0232
-34.7507
-38.6852
-41.1789
-59.902
-67.0502
-65.9274
-83.2397
-93.2272
-88.7301
-104.266
-116.649
111.053
98.125
109.913
93.5577
79.2558
89.1071
74.316
58.895
66.5359
53.5163
37.0895
42.1625
31.9675
15.2978
17.7118
9.60391
-7.66709
-8.17965
-13.3485
-30.1312
-33.5347
-35.6054
-51.5796
-57.7031
-56.7333
-71.5896
-80.163
-76.3191
-89.7576
-100.454
95.5631
84.1738
94.4607
80.1735
67.7061
76.2109
63.4109
50.0357
56.549
45.383
31.2782
35.5431
26.8445
12.6056
14.5732
7.73011
-6.96233
-7.49282
-11.7977
-26.0768
-29.0699
-30.7375
-44.3553
-49.6808
-48.7567
-61.475
-68.9306
-65.5352
-77.1081
-86.446
81.8426
71.9051
80.9617
68.4315
57.6425
65.063
53.9329
42.4033
48.0233
38.3996
26.3354
29.9691
22.5114
10.3881
12.0114
6.22714
-6.24353
-6.78353
-10.3492
-22.469
-25.1368
-26.4265
-38.0002
-42.6925
-41.7458
-52.5885
-59.1485
-56.0573
-65.9675
-74.2018
69.5958
61.0192
69.0642
58.0332
48.7825
55.3241
45.6069
35.7505
40.6565
32.3307
22.0771
25.2127
18.8001
8.53927
9.89477
5.00963
-5.52041
-6.0628
-8.98827
-19.221
-21.626
-22.5631
-32.3435
-36.5261
-35.5117
-44.6955
-50.5299
-47.6382
-56.0604
-63.3916
58.575
51.2711
58.4842
48.7365
40.901
46.7282
38.2147
29.8842
34.2169
26.9939
18.3623
21.1023
15.5812
6.97857
8.12481
4.0127
-4.80063
-5.33991
-7.70391
-16.2671
-18.4572
-19.0643
-27.2538
-31.0224
-29.9085
-37.6119
-42.8551
-40.0833
-47.1661
-53.7557
48.5679
42.4553
48.9871
40.3402
33.8135
39.0612
31.5784
24.6492
28.5217
22.2429
15.0793
17.5049
12.7527
5.64295
6.62571
3.18604
-4.08964
-4.62189
-6.48702
-13.5551
-15.5683
-15.8639
-22.6259
-26.0571
-24.8192
-31.1886
-35.9494
-33.234
-39.1019
-45.0837
39.3926
34.3988
40.3762
32.6754
27.3672
32.1473
25.5509
19.9189
23.4237
17.9591
12.1383
14.3151
10.2324
4.48243
5.33815
2.49
-3.39109
-3.91373
-5.32951
-11.0419
-12.9097
-12.9079
-18.3742
-21.5307
-20.148
-25.3028
-29.6712
-26.9594
-31.7156
-37.2012
30.8891
26.9518
32.4853
25.5968
21.4312
25.84
20.0071
15.5864
18.8023
14.0427
9.46428
11.4475
7.95202
3.45617
4.2147
1.89269
-2.70689
-3.21866
-4.22354
-8.69095
-10.4403
-10.1501
-14.4258
-17.3612
-15.8139
-19.85
-23.9028
-21.1478
-24.8759
-29.9622
22.9174
19.9846
25.1698
18.9783
15.8924
20.0134
14.8385
11.5596
14.5545
10.4073
6.99283
8.82981
5.85331
2.53017
3.21648
1.36805
-2.03736
-2.53817
-3.16113
-6.46991
-8.12471
-7.55063
-10.7183
-13.4786
-11.7472
-14.7404
-18.5437
-15.7033
-18.4693
-23.2399
15.3539
13.3826
18.304
12.7084
10.6487
14.5576
9.94665
7.75349
10.5906
6.97392
4.66478
6.39964
3.88313
1.67586
2.31087
0.895261
-1.38026
-1.87209
-2.13293
-4.34883
-5.93141
-5.0728
-7.19601
-9.82241
-7.88613
-9.89486
-13.5071
-10.541
-12.3953
-16.9245
8.09858
7.04924
11.7774
6.69104
5.60501
9.37271
5.23749
4.08576
6.82688
3.66588
2.41751
4.09805
1.98584
0.873286
1.47081
0.462367
-0.729324
-1.21726
-1.12723
-2.29969
-3.83082
-2.68322
-3.80951
-6.33846
-4.17615
-5.24432
-8.71645
-5.5878
-6.56967
-10.9186
1.41212
1.18666
5.49508
1.11252
0.873563
4.3606
0.785901
0.49338
3.17928
0.396726
0.463365
1.84705
0.413361
-0.0159512
0.685154
-0.0812302
-0.231965
-0.563058
-0.288087
-0.463203
-1.79293
-0.522906
-0.703163
-2.97643
-0.763369
-0.943945
-4.10233
-1.00426
-1.19748
-5.13862
1312.69
1356.72
1342.54
-3579.98
-3982.23
-4169.41
-2251.52
-2627.78
-2451.51
1155.09
1169.63
1158.76
-3776.05
-4137.6
-4006.47
-4208.13
-4282.25
-3844.55
1085.02
1095.12
1082.5
-2981.16
-3189.55
-2986.6
-3953.24
-3782.78
-3534.21
1044.36
1052.37
1033.62
-2031.64
-2090.78
-1966.67
-2859.85
-2728.54
-2623.73
981.422
995.604
967.312
-880.143
-873.305
-825.751
-877.171
-963.566
-955.537
-1349.36
-1383.38
-992.174
-1843.15
-1720.3
-1685.02
854.588
893.928
846.456
185.531
444.054
581.966
-767.095
-614.658
-666.133
57.8879
-14.5295
115.631
-595.105
-444.217
-216.472
-869.609
-538.781
-668.549
2074.16
1712.25
1467.38
3800.08
4209.1
4742.56
1138.43
1593.08
1320.12
1108.83
2624.93
-1549.46
-1525.92
-1875.41
-42.1015
-393.539
-880.006
-4503.66
-4675.63
-4776.87
-2560.91
-3043.04
-2874.4
-2745.14
-2417.4
-2975.02
-2048.48
-2274.53
-2453.58
-1800.12
-2051.97
-1872.45
1102.56
1125.21
1096.95
1180.31
1150.14
1114.74
1211.73
1166.49
1197.27
-5234.69
-5364.93
-5346.12
-5460.17
-5458.24
-5315.57
-2902.72
-2934.32
-3594.36
-2400.57
-2684.69
-2667.97
-2581.61
-2657.68
-2370.16
1026.77
1043.98
1023.09
1089.55
1061.98
1038.18
1101.55
1073.15
1098.46
1116.24
1130.6
1117.03
1136.99
1133.26
1127.98
1164
1159.62
1165.05
-4019.89
-4076.6
-4027.19
-4747.04
-4705.32
-4623.08
-2413.65
-2628.56
-3054.95
-2211.54
-2419.71
-2293.17
-2613.75
-2528.66
-2296.21
960.921
977.794
955.716
1032.98
997.275
975.415
1028.23
1006.99
1039.26
1064.27
1071
1056.45
1089.06
1082.67
1081.52
1094.44
1091.86
1095.63
-2762.64
-2813.49
-2733.15
-3345.1
-3217.97
-3158.05
878.329
913.51
877.726
972.509
927.009
892.256
964.814
937.133
981.554
1017.29
1028.32
1006.1
1059.45
1047.6
1041.19
1064.4
1061.5
1070.18
-1566.87
-1614.1
-1623.55
-1716.38
-1774.82
-1535.76
-2037.42
-1961.3
-1935.39
741.615
799.981
762.654
867.904
813.619
752.501
878.813
832.031
886.055
938.625
956.29
920.886
999.993
994.467
993.53
1015.39
1013.15
1018.66
401.266
580.313
616.608
325.433
541.298
379.575
557.869
520.974
365.75
1487.03
1448.55
1549.44
1237.78
1269.17
1290.55
2130.61
2255.74
2325.68
1615.27
1707.32
1697.72
-5290.52
-5446.27
-5458
-4862.54
-4941.69
-4775.04
-3571.7
-3901.05
-3424.96
-4634.1
-4353.7
-4215.92
-4824.14
-4780.31
-5100.54
1180.31
1172.47
1159.18
1193.77
1177.18
1182.41
1171.31
1175.24
1189.08
1186.76
1184.19
1185.75
1187.1
1187.43
1179.44
1235.33