/*--------------------------------*- C++ -*----------------------------------*\
| =========                 |                                                 |
| \\      /  F ield         | OpenFOAM: The Open Source CFD Toolbox           |
|  \\    /   O peration     | Version:  v1912                                 |
|   \\  /    A nd           | Website:  www.openfoam.com                      |
|    \\/     M anipulation  |                                                 |
\*---------------------------------------------------------------------------*/
FoamFile
{
    version     2.0;
    format      ascii;
    class       volScalarField;
    location    "2.51";
    object      k;
}
// * * * * * * * * * * * * * * * * * * * * * * * * * * * * * * * * * * * * * //

dimensions      [0 2 -2 0 0 0 0];


internalField   nonuniform List<scalar> 
12556
(
36.90869772
36.90874343
36.90880597
36.90886224
36.95438037
36.95470835
36.95531121
36.95680815
36.95990829
36.96566051
36.97477643
36.98592973
36.99480435
36.99980233
36.99370489
36.98450461
36.97419544
36.96568549
36.96038188
36.95706044
36.91082384
36.90942966
36.908783
36.90842459
36.72743579
36.72762353
36.72779238
36.72810244
36.77360853
36.77536667
36.77922731
36.80757091
36.82229469
36.84942036
36.89236047
36.9464831
36.99488041
37.00918737
36.99258935
36.94963855
36.8991445
36.85728964
36.80797053
36.78922333
36.73492706
36.73070398
36.72858823
36.72758082
36.54734807
36.5478051
36.54830811
36.54904401
36.59521571
36.5999122
36.60954158
36.64773195
36.68461553
36.75077814
36.85632897
36.96704034
37.03507819
37.05784841
37.03179076
36.96140293
36.86000925
36.76500589
36.67510004
36.63344915
36.56673273
36.55689807
36.55223359
36.55034688
36.36862135
36.36905688
36.36979223
36.37162537
36.41901389
36.42921485
36.45007564
36.50853192
36.5870997
36.73529307
36.91716359
37.08270432
37.17855691
37.19288018
37.13998135
37.03452451
36.89037669
36.73721499
36.58040923
36.49951708
36.4077395
36.38959105
36.38057902
36.3770265
36.19190246
36.19248022
36.19390417
36.19764557
36.24764774
36.26620253
36.30690609
36.39676257
36.56205524
36.81087019
37.09747272
37.35352219
37.515043
37.50291034
37.38158293
37.20026278
36.99226977
36.77305714
36.54613808
36.39597348
36.26364455
36.22886798
36.2126945
36.2063777
36.0169025
36.01765506
36.02003871
36.02665684
36.08206553
36.11418868
36.18615592
36.32929901
36.60182467
36.97956547
37.45276452
37.94975064
38.2762353
38.18633156
37.85601948
37.51412894
37.18876754
36.87574312
36.56190414
36.32921803
36.13437461
36.07381702
36.04714629
36.0365921
35.84454929
35.84591973
35.85028488
35.86140981
35.92334212
35.97419268
36.09044264
36.3105797
36.6930314
37.25557181
38.06152676
39.28984224
40.06496928
39.87512131
38.73190658
38.03252358
37.50030344
37.04757074
36.61481504
36.30305056
36.01963481
35.92461806
35.88290741
35.86644448
35.67547274
35.67765667
35.68448571
35.70120592
35.77412709
35.84903605
36.02216043
36.32054304
36.81991809
37.60133483
38.89509535
41.61322809
42.66708906
40.17119909
38.77491121
37.93076241
37.28678869
36.70456129
36.30696266
35.92092786
35.78184525
35.72042125
35.69639842
35.51163933
35.51533266
35.52613371
35.55170545
35.63621585
35.74058954
35.97812225
36.34901053
36.96926016
37.95963761
39.66116255
43.66246174
47.24116735
41.96209087
39.67672608
38.44178499
37.57401981
36.81940172
36.32385854
35.8371063
35.64791506
35.56257447
35.52956061
35.35397534
35.35930569
35.37445001
35.41062337
35.50866482
35.64861105
35.95233066
36.38869031
37.12264648
38.28128758
40.2252097
44.6253237
50.47736357
43.60692178
40.59658761
38.98429219
37.8789964
36.94647364
36.34913816
35.7684259
35.52610689
35.4142652
35.37095938
35.20456623
35.21235451
35.23355639
35.28329093
35.39233492
35.57183807
35.94011434
36.43967244
37.27833764
38.57357606
40.69221033
44.79871423
52.08809383
44.85194494
41.42306685
39.49591199
38.17360398
37.07016594
36.37895244
35.71276709
35.41949171
35.28039067
35.22600795
35.06326267
35.07329145
35.10016926
35.16311174
35.28775343
35.50758807
35.93883416
36.49982574
37.43353077
38.85142087
41.14095739
44.43815018
52.78007484
45.70649197
42.08690178
39.92816319
38.42542928
37.17839364
36.40872144
35.66998974
35.32843371
35.16368801
35.09808527
34.93118446
34.9442514
34.97935161
35.05774031
35.19314112
35.45221782
35.93807442
36.56470382
37.58697055
39.12459218
41.62764052
43.88534622
46.65019658
52.58532386
46.25292779
42.56323272
40.26192227
38.61866134
37.26238043
36.43203636
35.63380162
35.25190321
35.06353384
34.98766174
34.80673206
34.82274921
34.865561
34.95723388
35.11500423
35.42315167
35.9670311
36.65201883
37.766601
39.44712632
42.18220947
42.47314873
55.88415421
52.55110085
46.53997183
42.8866178
40.4773483
38.7420285
37.32091543
36.44543945
35.59662638
35.18532811
34.9764779
34.8916739
34.68935566
34.70828718
34.75848261
34.86312326
35.03753205
35.38260865
35.96924685
36.70100637
37.87436284
39.65872805
42.53889764
38.42251379
55.64034328
52.02161517
46.57150972
43.01506772
40.58402304
38.8014632
37.34828607
36.4447371
35.55617089
35.12298163
34.89747331
34.80559267
34.57633347
34.5981276
34.65520502
34.77259914
34.9638231
35.34075758
35.96576869
36.73323463
37.95249209
39.79700912
42.58095398
33.82810832
53.59518848
51.16261552
46.39432744
43.00539835
40.57722509
38.80008262
37.34201979
36.42251442
35.50458724
35.05724208
34.82072759
34.72335511
34.46712065
34.49159136
34.5546725
34.68371032
34.89068879
35.29449283
35.95202792
36.75175531
38.00308652
39.86729518
42.27691655
30.56529633
51.53153086
50.23903452
45.99026455
42.82104193
40.48840419
38.75575188
37.30401467
36.37287989
35.44163283
34.98707931
34.74198721
34.6404525
34.35833919
34.38530571
34.45376512
34.59377166
34.81574314
35.24169838
35.92473434
36.75340953
38.03217583
39.8802927
41.83404405
27.29829174
49.70520902
49.2585053
45.4495531
42.49646388
40.30220824
38.64728741
37.21774831
36.29236789
35.36044212
34.90422904
34.6566406
34.55234438
34.25079545
34.27998025
34.35292278
34.50232615
34.73730261
35.18132482
35.88374009
36.73368357
38.03773236
39.86039978
41.28257094
23.51057871
48.24638552
48.24201579
44.84662022
42.12278114
40.06773093
38.48929688
37.0985911
36.18806534
35.2644644
34.81106254
34.56322492
34.45787158
34.14077123
34.1719745
34.24901551
34.40732295
34.65453453
35.1132993
35.83018511
36.69535149
38.01518267
39.78202566
40.59076327
21.23912183
47.00076078
47.27825918
44.27343554
41.75113938
39.81266672
38.30275051
36.9560527
36.06461224
35.15429804
34.70634356
34.4599359
34.35431627
34.0312061
34.06414011
34.14454027
34.31005273
34.56712245
35.03803786
35.76568894
36.64206724
37.96925881
39.6478778
39.77321837
19.87183793
45.85397243
46.40237091
43.74434546
41.39260366
39.55144978
38.10110823
36.79716596
35.92644857
35.03328714
34.59305
34.3492819
34.24398814
33.91734358
33.95188543
34.03565931
34.20850425
34.47532366
34.95633299
35.69215595
36.57719622
37.90469386
39.46369531
38.8772999
18.96750579
44.79772717
45.60087537
43.25157189
41.05103672
39.29165064
37.89256878
36.62750807
35.77746739
34.90202757
34.46990052
34.22917435
34.12455108
33.80494053
33.84084661
33.92740183
34.10582932
34.37961972
34.86925245
35.6114903
36.50349107
37.82409121
39.23245538
37.93651544
18.50403945
43.82108517
44.86226509
42.7890281
40.72637714
39.03720088
37.68197644
36.45132717
35.6208985
34.76492121
34.34195931
34.10466171
34.00092632
33.68677835
33.72405553
33.81380011
33.99886256
34.28082053
34.7779706
35.52551349
36.42313721
37.72873562
38.95173069
36.9678094
18.40248288
42.91353833
44.17729366
42.35251095
40.41670021
38.78980502
37.47226335
36.27172039
35.45937954
34.62076055
34.20589028
33.97173815
33.86893987
33.57256885
33.61101111
33.7033381
33.89295214
34.17953698
34.68358004
35.43585684
36.33783426
37.61861281
38.63414627
35.97716329
18.57560705
42.06425828
43.53838757
41.93880521
40.12001093
38.54986949
37.26516946
36.09085701
35.29486413
34.47521019
34.06934583
33.838482
33.73665431
33.45049083
33.49023988
33.58589533
33.78217882
34.07657771
34.5869785
35.3437862
36.24862018
37.49287203
38.29283643
34.97338618
18.96827637
41.26823092
42.93956764
41.54519689
39.83470816
38.31712032
37.06158159
35.91016926
35.12887356
34.32381491
33.92482042
33.6966499
33.59570701
33.33645098
33.37729556
33.47550027
33.67552651
33.97231116
34.48891395
35.25022162
36.1558284
37.35122514
37.93029684
33.96896411
19.54454929
40.52205891
42.37610229
41.16941427
39.55956341
38.0910849
36.86189035
35.73060339
34.96240071
34.17533761
33.7848066
33.55953204
33.45944325
33.21072619
33.25293884
33.35476176
33.56197086
33.86750479
34.38999276
35.15574547
36.0592804
37.1942929
37.5500887
32.97775555
20.21629383
39.82330073
41.84381692
40.80948524
39.29353926
37.87123393
36.66617747
35.55273038
34.79630773
34.01970337
33.63435283
33.41122693
33.3118674
33.09936283
33.14267517
33.24706415
33.45717203
33.76220151
34.29070879
35.06068024
35.95860902
37.02359048
37.1564743
32.00759793
20.9005612
39.1681577
41.3392676
40.46378705
39.0357803
37.6570898
36.47440064
35.37691036
34.6309615
33.87253845
33.49528816
33.27466045
33.17598416
32.96946322
33.01428891
33.122638
33.34077426
33.65726624
34.1914744
34.96517005
35.8534608
36.84056504
36.7522495
31.05784274
21.53721555
38.5527526
40.86012225
40.13091749
38.78552159
37.44819676
36.28642758
35.20334966
34.46696226
33.7131767
33.33924956
33.1203285
33.02222821
32.86391505
32.90986411
33.02080248
33.24092368
33.55231628
34.09259582
34.86923996
35.74360787
36.64701048
36.34008391
30.11673093
22.08795981
37.97397604
40.40403487
39.80970464
38.5421083
37.24415098
36.10210619
35.03217737
34.30424673
33.57167799
33.20575897
32.98894135
32.8913581
32.72801403
32.7756794
32.89090563
33.11996355
33.44854519
33.99433499
34.77286374
35.62896715
36.44391323
35.92182419
29.1859839
22.53748761
37.42869814
39.96943388
39.4992052
38.30500343
37.04460823
35.92127708
34.863479
34.14349541
33.40620674
33.04194856
32.82661323
32.72949239
32.63250806
32.68129215
32.79912306
33.02953667
33.34496935
33.89690282
34.67593422
35.50959165
36.23205045
35.4986523
28.2721929
22.88262467
36.91437479
39.55479429
39.19860102
38.07372428
36.84923605
35.74372204
34.69738016
33.98426232
33.27686996
32.92018728
32.70645214
32.60970593
32.48705182
32.53779679
32.66022297
32.89960906
33.24375641
33.80071561
34.57850617
35.38564269
36.01306053
35.07164481
27.38008566
23.13249137
36.42935205
39.15811915
38.90726114
37.8479039
36.65779375
35.56936657
34.53432756
33.82801879
33.09812239
32.7430465
32.53087219
32.43452201
32.40680453
32.45865372
32.58362121
32.82568712
33.14345713
33.70654143
34.48128742
35.25731803
35.78866341
34.64194434
26.51739344
23.30200225
35.97281873
38.77836548
38.62472641
37.62725004
36.47008414
35.39806348
34.37574495
33.67481975
32.99288414
32.64186694
32.43062222
32.33449869
32.22274431
32.27728775
32.40832307
32.66070384
33.04941161
33.61635831
34.38717187
35.1253443
35.56045808
34.21465692
25.69546687
23.41437238
35.5473752
38.41787261
38.35221123
37.4122123
36.28631306
35.22988613
34.22613704
33.53070568
32.76256671
32.4144126
32.20497951
32.10927871
43.49731205
47.755081
43.03624974
44.5441472
51.34603957
48.20504291
44.82036161
53.04403778
51.64883259
44.49944333
53.73049069
53.15937665
43.92410634
42.29434629
45.66317112
54.02516821
53.77079732
42.96097823
52.44103345
42.67159353
55.4961489
54.49443969
54.04875929
41.25759055
40.02175949
42.55571317
39.80163278
51.24156296
44.62596787
46.72765656
42.37185949
40.71540795
40.09769932
43.59690616
42.755084
55.60737528
57.12553884
50.17670839
44.41657395
42.92504559
40.58106296
44.15674486
43.69565759
44.79610043
46.58779457
47.51828351
54.65843732
54.1038991
51.95658693
45.90694337
44.85151885
41.04063859
44.1939082
44.18155973
44.6938543
43.08497755
45.00760181
56.02757214
55.24365882
41.5148848
44.00194316
44.1824869
44.21507812
38.40124844
40.80243499
39.74219826
56.80095373
56.57294602
42.07705292
43.50194767
43.96169958
43.56535481
32.43158719
35.1478414
41.39621968
54.10782803
52.80420483
47.72513294
49.5402739
43.71658841
47.3209562
57.01285345
51.57185616
45.69386103
50.62578342
55.67318516
47.63196316
48.31198828
44.19929401
48.96331677
47.7164816
49.65099721
49.10501222
54.17903323
55.4168629
49.96083259
56.37191745
55.60444064
55.89059119
56.45655908
49.71699498
45.19146546
46.42969358
44.82290382
46.100175
44.32967015
47.63584735
46.20943495
55.09443861
54.74202334
52.57649437
56.12681401
56.3586546
55.56669772
56.08371595
52.38868492
40.93534197
42.96484152
44.65064604
42.02833253
39.54626458
44.21036184
42.1645962
56.53335045
56.11198001
35.30362148
38.22715185
44.18278089
40.71242559
36.31227507
33.14992878
39.40289236
36.51949259
41.57661995
57.0567588
56.82759086
39.64420062
39.75826129
32.37027652
43.51780926
49.1438514
31.88537819
76.03734992
33.06141229
31.89675405
48.42463258
39.49154491
42.60021887
40.95019852
42.59118171
46.33139979
43.30842557
61.91781031
47.26689336
44.08958558
48.38733143
48.34827096
47.43043509
52.73933509
46.86306189
46.19998685
54.92447199
49.53361387
48.04139335
52.04628327
57.35084782
57.14326457
48.18460163
46.64397938
42.85941591
55.10009456
45.74604845
53.02571074
44.23758893
49.69102646
45.0721211
47.61277115
43.80418314
53.52745719
56.54771036
56.66361532
56.38494963
56.5354846
53.45750068
39.63268851
48.35921691
44.85463096
41.62587296
41.22146833
43.25774397
44.06917506
41.70658503
41.66330019
66.38138874
48.3078284
61.59190036
46.38531316
58.2161416
47.46973277
56.95056789
57.06264539
54.30990408
54.27394083
41.0072341
44.91662919
55.73926786
41.42278487
42.55824291
46.42543778
41.58272091
55.64103134
39.70752186
43.76742942
43.41914725
52.35931801
50.35233794
49.54021258
34.16567792
41.56841686
41.06028638
42.21010208
41.74961717
34.3111292
59.26052316
55.55176097
48.64036713
55.84814362
56.81225217
51.60359425
55.52272368
48.88803331
45.37446466
50.69974147
45.13409167
56.05359115
51.4552345
45.94016068
53.71412483
59.0763721
55.01072579
54.61782425
48.37628934
44.49411839
48.29713548
49.56188302
47.8521327
51.06472434
44.88515744
47.4301517
49.46782227
54.89383907
55.00566479
55.9946583
53.94533073
53.33490714
54.55274001
54.11519959
55.93525276
56.75702645
51.97376612
50.93617829
53.10094446
52.28133328
56.79080897
45.29635806
45.18209651
47.01839318
46.92844727
55.2557563
47.0175496
55.19213001
41.05052254
40.88156952
43.25079375
43.11208079
43.00773964
46.8372764
56.32688606
43.14428469
41.01669043
37.09844443
42.78660957
42.36070082
43.29771741
42.91966974
37.24826812
39.48784418
35.42273239
35.28796947
38.39785379
38.25533675
56.23402614
40.51463114
54.31236559
52.92395017
40.86457838
40.38469333
31.97739173
32.93234591
41.41929557
41.80956942
32.62279979
70.3289758
42.27633776
61.56637626
32.54587015
45.80605632
45.61510831
40.60806401
61.01727491
39.91663738
40.43200315
42.46985896
43.0248806
43.40645789
41.94687863
34.07524591
41.34083377
56.14707759
53.87454259
54.41470217
53.87576496
40.82739442
44.14751097
55.58168513
54.68587979
41.16210401
57.47243584
57.40694096
52.57224409
43.34854453
42.86574524
45.31914122
46.38897837
43.08330566
43.39306208
56.25767329
59.18081403
58.07480313
57.2647204
54.43645118
45.22669086
45.54838546
48.36678277
47.66268711
54.00160732
43.94520773
45.28346021
45.03473845
45.59120576
45.36302829
44.08518905
44.19602641
43.87693963
39.84691293
32.84035026
38.09745146
37.66369141
68.60500822
51.20827616
53.21358883
56.363922
60.34139291
59.46013755
53.102854
48.82994638
47.37546269
50.55036087
49.28665278
53.47046183
54.44776811
49.53865987
48.70433732
55.11083533
45.74822201
45.85741265
45.66230823
40.71954242
41.22745844
44.70217476
45.77220043
46.08552251
54.93253438
56.23903906
55.3560587
55.25999135
55.61288994
54.96262118
54.66924488
55.21921718
55.03620386
55.62709918
41.96569963
44.58791318
44.29722348
44.94866088
44.68088263
42.10173031
41.61969791
36.23686598
36.57385521
33.66416934
33.89961538
40.03546777
43.81068007
39.90888582
40.57672811
36.70882094
37.08796681
42.57120388
56.3794782
47.43079993
51.28479187
60.40211517
39.66166901
35.88952648
34.06121319
38.97555829
33.33303881
33.58617253
32.79367429
37.4877423
50.29480573
38.57416183
39.05553204
38.23443773
37.52282625
37.10768097
32.22841802
40.60094864
41.41066803
51.08530327
31.85583033
88.10879145
43.05338559
41.49487612
45.98109896
32.88105646
31.9962102
55.63530956
54.76431153
54.53532896
47.57010937
47.50262952
40.16045282
39.89682988
55.20650781
53.12817834
53.02579427
48.56125893
58.19365537
48.69783676
58.69991246
49.44858809
43.76939671
40.83858993
45.53858692
47.07666735
51.39571116
47.87008732
41.39948975
40.36201707
49.62261019
60.64331788
41.44137054
47.03093626
67.13205871
39.69156097
40.64717575
39.66629487
39.63843635
59.26910937
66.8991923
55.22482289
51.61167452
59.04106779
56.03333291
50.91700816
47.92109747
53.08809237
56.04366896
55.3575457
56.50758251
57.24948227
57.71934101
56.49929665
46.17153571
45.40890498
54.37493274
46.98211647
47.24147877
45.25376326
46.71917319
47.33009623
54.05098871
47.54603019
46.45707613
41.47454633
41.79331057
41.44316
51.10497537
50.22986274
43.27807938
48.37577383
46.9495086
49.88320415
48.84241544
42.60905696
42.19704333
41.68907551
40.51068656
38.7073843
38.22759972
33.21891267
34.66708353
39.24132467
38.84298554
57.90985224
57.36104567
56.91393195
51.63203325
52.21290951
50.59475476
51.39879563
57.21372686
53.99340622
52.44537242
52.2730387
52.34112236
52.46138728
54.27015582
54.41074307
49.3634436
50.32469125
57.44189468
57.89313872
59.99602834
59.52739885
56.04364919
61.1974734
62.00278806
62.21587842
60.87837313
59.9626726
62.2332706
60.73969846
53.32606875
58.90404506
60.05383991
43.10155454
48.48128177
47.61522151
49.29447815
48.71524868
43.68062143
46.41138426
45.81361433
47.31333941
46.61703437
49.13978892
51.50799892
50.97788432
52.14530642
51.67746186
49.59969824
45.9070009
50.05800689
49.48951634
50.79673007
50.24484499
46.27825984
50.67889222
49.71520949
54.55457433
55.12472072
52.18802056
51.05222131
40.23417223
39.73789047
41.09548951
40.4082351
38.94805484
38.46427727
39.58103803
39.0922042
44.85579732
44.28975249
45.62049911
45.04976376
43.15899889
41.54174156
44.083094
43.51477052
44.68676381
44.03859544
46.53618756
45.1465965
47.44641234
43.96407662
44.85054359
43.86775524
43.70315711
35.78153487
36.10398933
41.48225283
34.06880929
33.84894977
34.3780577
34.16092226
33.73724715
40.24415106
33.99137377
35.47473717
37.93442414
39.62094291
43.67554713
37.55200607
35.34197064
38.36574813
37.62239044
34.75546421
34.47897934
35.18798841
34.86318515
42.70598169
37.223711
37.68037791
51.37496963
41.80976109
50.45462362
46.42949164
50.180773
41.44704572
62.71540806
39.55707813
60.45729526
53.34469239
35.76801279
34.66343567
33.03245042
33.26007487
38.83330293
37.73417643
32.81257121
32.97546836
55.97536357
32.17194008
36.91281033
36.21559802
70.91813685
78.08788592
31.78862847
82.12797419
61.99730584
41.15377542
32.81361738
69.8907656
45.50281096
80.10303095
47.63122108
32.11909945
42.23011075
40.20249195
38.95370477
54.02073789
53.60604029
53.20604581
47.43652478
47.05195768
53.94952066
40.80443988
40.68649085
39.61829635
56.67362387
56.6439883
53.90563495
45.27307981
44.71287422
47.69910957
52.95744128
45.1884001
45.32067388
41.1681299
41.51256712
43.86986448
49.88224042
53.42671311
56.14955222
47.01980954
46.21463391
46.11169257
46.29263392
46.24002141
47.15156192
44.0067256
42.28502007
40.97126677
51.92831844
53.46018022
56.71198298
39.74776313
39.36699207
34.78695102
56.94433836
58.62862816
52.92696336
46.06850728
45.91548724
45.9249191
45.75745843
42.76283289
43.39838111
43.7071012
44.65412691
46.53609388
36.14213116
40.27004276
39.87292941
47.02179335
44.84090567
40.18526488
32.31057464
32.34847638
33.28991335
43.28102802
57.23801334
51.34217577
39.61046376
46.72816943
44.55227931
31.86541939
32.99878587
32.26371879
32.29009842
31.91753052
62.4485812
47.27875716
41.92153441
43.28870942
54.19690403
40.21889742
40.66903232
49.81189862
54.36643931
46.87008468
45.30745587
47.27148531
46.09973339
40.5650604
40.18569764
64.03750834
66.46679815
68.13708308
57.33321438
65.17158858
42.81605281
43.07767104
45.77771884
63.57680195
59.04092723
56.58495335
66.57925131
63.85531773
41.10313889
43.26716665
42.41209872
48.65208402
48.03725707
43.10291099
52.17656319
51.40813202
41.54979634
46.65349187
42.13445371
42.37322664
45.67869374
40.2888204
40.84651504
58.96543145
59.73359894
56.19670487
56.22514593
55.10231857
54.94427464
52.16889885
53.16004954
52.78403716
54.76998398
54.5549712
55.0936042
47.89795454
49.05142914
53.88193778
55.21325841
60.63243527
56.99590152
60.82393595
61.17471573
58.46216355
41.46460896
43.64848421
43.12206323
47.3030081
47.06851108
44.25577603
41.01755388
40.77682539
42.68524488
42.33639036
48.27567182
50.44673798
50.12044911
52.43406728
52.098385
50.55741737
45.18231663
47.91214997
47.63563181
49.79175183
49.47129232
47.03781227
42.06997402
42.58531948
45.64642821
44.81971517
41.39078588
41.90174544
45.58897947
46.08980124
47.29190987
39.36974956
39.22180751
40.56573988
40.37522345
37.07160694
38.99857062
38.8754667
46.6341716
44.8880149
45.41506017
46.95301408
46.75341403
42.74258978
43.09763903
46.88956344
46.76023761
47.2425233
54.99581542
46.26004328
47.60485525
40.76611614
40.39739524
36.4831761
37.65759604
41.20909569
40.87664519
33.46040586
33.52798296
35.53651059
35.14974295
33.28542918
33.37731963
56.40714219
32.08021708
32.99253045
32.31590681
109.3287417
32.19782604
41.20342881
56.73205506
50.46804864
32.0137043
32.04831357
32.6789094
68.83250039
74.5183779
71.96807846
55.15234197
32.48061289
31.95700584
31.9849232
41.80090989
40.43225388
39.76909424
53.90925486
53.23221461
44.63927496
43.31579939
40.19904225
55.28889017
54.9670007
59.23022737
41.62293872
52.22846039
47.84017285
52.49466658
51.5403791
42.66970203
44.28215123
45.00314585
49.16639615
54.02200833
54.38659897
53.45849778
53.74274592
58.86072215
58.02464909
58.28951293
57.47122739
57.74714185
58.44144902
48.10981848
48.1184123
48.36094778
47.73631689
47.88692924
48.02143054
59.99215736
58.87586556
58.8804442
58.54088253
58.75343124
59.72901227
49.11719759
49.16977267
49.44419557
48.62600407
48.8881626
48.88346241
52.75183147
52.93207355
52.0506526
52.24621046
36.32804404
38.62112227
38.49104279
33.75761712
35.27170944
35.17306526
35.5861524
35.38940516
33.8344844
57.63302764
58.9779584
52.20667072
58.56936763
32.73365388
32.6883936
32.84434933
32.79672728
32.43620401
33.55777436
32.39825101
32.53105364
33.42249141
34.92324094
34.83081175
35.090914
35.00517927
33.49945849
32.97163069
32.89974926
33.70898585
33.13313179
32.88341501
58.29713043
56.40725662
45.74202978
58.87769362
34.36567957
33.51461125
39.18651886
32.27393104
33.88960741
33.74316654
31.83891854
86.44219297
88.05616965
62.30302025
77.97882391
67.71378562
32.18222164
32.22920206
32.94493274
31.9531391
59.64707259
65.01674651
59.93562377
61.84889924
57.88838908
50.12923286
63.8327213
58.64720578
47.91711485
47.85441122
55.30419826
45.10209945
48.78488648
54.00718287
51.26082342
55.17498325
50.40258274
53.50080968
60.10170528
61.6105275
54.41300354
58.93569905
62.60118237
51.18310833
52.45394829
50.53375914
54.68738951
63.66182722
63.76289771
61.67866994
42.72542797
55.89984508
49.88224851
62.29585746
63.40532729
44.79809767
47.69539108
51.40557014
65.81370995
53.99285887
43.29537761
44.93764018
62.88216966
59.4969543
63.23145752
57.90348219
60.54839268
63.05787143
64.34204227
63.69102302
55.5147598
55.69557105
55.9784921
55.0410272
55.21754338
55.23033527
57.28867572
56.89899305
57.18327164
56.30483406
56.59029464
56.89484305
45.90698917
48.48075753
48.46358885
47.03537172
47.25363702
45.76029215
47.11695283
46.84388826
46.53548066
47.72586428
48.09553344
47.02321557
47.84017437
47.68174716
48.38708568
48.162376
46.70493171
48.12581094
45.27947521
41.22390174
49.43806724
49.37806573
49.12754152
42.39447922
48.27496807
47.83165766
42.03512808
42.02164767
44.61841049
58.48839191
56.72641243
53.92673918
53.55380473
52.71078714
54.78672248
54.37279731
54.11272364
61.84448659
61.5188149
56.533055
62.10750881
64.22387655
58.31186744
61.65297918
61.82225045
59.85986145
58.63014835
58.53741238
58.73988368
58.74154581
59.69485848
61.58519175
61.74138735
60.6886259
63.64869142
63.5975361
63.46872511
63.61095219
60.52560564
62.36711205
63.09724351
64.94213728
62.38266075
45.9289706
45.77058325
43.05014547
43.83812002
46.69005497
46.5239505
41.5097478
41.25398071
42.04353728
41.76766366
51.1027272
50.77212437
48.69096105
50.07397236
51.76696146
51.43469445
48.52913693
48.23469814
45.57752349
46.63484461
49.14901217
48.84232936
50.43434843
50.31864772
50.61470616
49.7319214
50.02315924
50.032115
51.74311015
51.4132111
51.62276167
50.91157977
51.1826607
51.45958264
40.06303076
37.23015255
37.38408944
36.95187503
37.09549716
39.90167547
40.81091849
37.88990816
38.11793874
37.53478951
37.70577991
40.59731345
38.77472883
36.13574562
36.28426237
35.89471803
36.04005939
38.64858751
39.41623356
36.67472013
36.82084949
36.39619748
36.54862169
39.26251949
39.7573661
39.58781728
44.66891656
42.60172178
42.79103933
42.20983709
42.3823916
44.47119175
40.15774774
39.97201338
38.21528519
38.0937999
42.88818375
40.8656931
40.93356975
38.45388093
38.92800128
42.18607393
43.91294056
41.83122002
41.97394827
41.44598584
41.54910103
43.67699087
38.63580061
38.53895316
46.30995027
46.34145754
46.97604474
43.63470582
44.70174549
44.20557857
46.75592498
46.91723616
46.8125637
46.86058455
44.55374709
43.69511985
45.05085459
44.23601492
46.40477669
46.37631047
43.63791916
35.85346039
38.04237388
37.90744177
38.34039162
38.21830149
36.0280177
34.01126572
33.90582212
34.30928896
34.21494103
33.70584266
33.6777813
34.17068381
36.68400461
35.97171059
37.62841935
37.352556
35.18927054
35.95781519
34.7616005
35.27566291
35.57459328
38.14121355
35.65751455
35.81534397
35.39351701
35.58507426
38.06260789
34.66544732
34.56019981
35.07397065
34.96058789
49.73867918
41.8098343
42.54732077
40.81331922
41.18964497
50.25592666
49.22789044
48.86458937
43.53822242
45.89452698
50.5207151
59.19333999
45.33536644
47.66118967
41.68805396
43.43410087
60.17260481
32.55243962
32.49571914
32.64165535
32.60296823
32.87295535
33.15242132
34.94017615
32.31102627
32.26508554
32.44257925
32.37815208
33.10993511
34.56378449
34.46273524
34.74551469
34.6479323
33.17528685
32.86778535
34.17243723
34.01262471
34.37948315
34.27170406
32.91416165
55.2799133
33.65155249
33.36938711
32.06960837
69.3340481
94.03689541
99.41367256
93.49891637
94.4698512
74.4679849
31.99524935
72.77523287
53.00962215
57.0034449
32.74475026
32.07517486
32.13455159
69.90680803
77.61987078
75.52820269
61.52999075
67.97967226
82.56953473
77.94371801
51.10183846
73.675259
64.43687434
32.18630865
31.90458222
32.26114505
36.68615208
36.70693065
36.81744278
36.71599356
36.75441014
36.84083059
36.76989443
36.83132434
36.87960976
36.85519728
36.93206663
36.93194889
36.9538878
37.00780034
36.98284774
37.01816928
37.039027
37.00811691
37.04006741
37.02685272
37.0018
37.01738176
36.97219821
36.96325027
36.95349736
36.88469343
36.91190148
36.8619651
36.79950464
36.86702479
36.541001
36.58581617
36.67328628
36.60625015
36.69258129
36.73135349
36.73036613
36.85146192
36.82791361
36.89246671
37.01022705
36.94233749
37.0433668
37.11398682
37.02337814
37.12938589
37.14970328
37.05778351
37.14638383
37.11937553
37.04244784
37.10334256
37.03663496
36.982407
37.00905358
36.91229531
36.88620256
36.87703162
36.77032966
36.7846014
36.42205372
36.51581205
36.5622315
36.56097452
36.72350871
36.69308583
36.78346451
36.97440148
36.87142779
37.03848738
37.21534595
37.04600535
37.26317677
37.38690213
37.16113305
37.40575625
37.4135011
37.1960276
37.39555125
37.33368493
37.15882404
37.30313766
37.19143817
37.06490772
37.14822176
37.00779479
36.92941368
36.9587125
36.8087326
36.77375605
36.34122358
36.51504639
36.50836111
36.58632224
36.83317015
36.74372889
36.92690275
37.23711544
37.02510006
37.34379746
37.6652411
37.29632583
37.75823378
37.98824799
37.48093269
38.01318412
38.01695064
37.5062398
37.93696614
37.77334048
37.41924162
37.70637166
37.49214161
37.25023999
37.41866053
37.20079931
37.04593499
37.12872289
36.91679824
36.8284209
36.31075087
36.56481168
36.5241962
36.6666798
37.03397147
36.87499895
37.17748509
37.68557288
37.32815864
37.88197287
38.5810822
37.82536359
38.83953179
39.70480992
38.20764315
39.74262792
39.5082516
38.19872057
39.16431065
38.63831434
37.94163016
38.46447312
38.01303881
37.59853197
37.87936763
37.52193838
37.26805501
37.41059842
37.09863138
36.95411287
36.316837
36.65100185
36.58337428
36.78874118
37.30255637
37.09436815
37.51435882
38.32437165
37.83029023
38.67919705
40.65077052
38.90727984
39.9524087
40.57420361
39.58150802
41.19356973
41.26776384
40.07536941
40.6668265
39.98805827
39.52660985
39.76001471
38.81241483
38.18514233
38.57221319
37.97683794
37.62378225
37.80760126
37.35888271
37.15530418
36.34081255
36.75659321
36.67318512
36.93133463
37.59366929
37.37154325
37.87306048
38.98433531
38.49717496
39.10708039
39.6418322
39.38049767
41.96022484
42.6172679
42.17677624
44.40334298
43.06786951
41.79055702
41.51038161
39.84212203
39.04836691
39.45859249
38.55676162
38.11645035
38.3122424
37.68281876
37.43362399
36.37767272
36.87540202
36.78576448
37.08391352
37.8722652
37.66542717
38.20410179
39.51122631
39.12904614
39.81750035
40.50275772
40.31936198
43.81653531
44.90932143
44.7360491
48.67341237
46.07207998
44.97758204
43.22727134
40.92029601
40.10201624
40.39639369
39.17847136
38.70380714
38.85464147
38.0372295
37.76861492
36.42599538
37.00054023
36.90628492
37.23902547
38.13110348
37.93872753
38.50223011
39.94050245
39.62457076
40.34770147
41.10849888
40.96925102
44.69452429
45.82918472
45.83189804
51.23883086
48.22567164
47.54150068
44.57348851
41.87392695
41.15940841
41.24374449
39.77303969
39.32326
39.37682504
38.38401005
38.12340248
36.48317164
37.12861946
37.03282534
37.394048
38.37710403
38.19388783
38.78210531
40.33967719
40.03987404
40.80940975
41.63861836
41.50285006
44.76936436
45.27462008
45.43243619
52.43856956
49.44413689
49.10596307
45.50969797
42.64973387