/*--------------------------------*- C++ -*----------------------------------*\
| =========                 |                                                 |
| \\      /  F ield         | OpenFOAM: The Open Source CFD Toolbox           |
|  \\    /   O peration     | Version:  v1912                                 |
|   \\  /    A nd           | Website:  www.openfoam.com                      |
|    \\/     M anipulation  |                                                 |
\*---------------------------------------------------------------------------*/
FoamFile
{
    version     2.0;
    format      ascii;
    class       pointVectorField;
    location    "2.51";
    object      pointDisplacement;
}
// * * * * * * * * * * * * * * * * * * * * * * * * * * * * * * * * * * * * * //

dimensions      [0 1 0 0 0 0 0];


internalField   nonuniform List<vector> 
26316
(
(0 0 0)
(0 0 0)
(0 0 0)
(0 0 0)
(0 0 0)
(0 0 0)
(0 0 0)
(0 0 0)
(0 0 0)
(0 0 0)
(0 0 0)
(0 0 0)
(0 0 0)
(0 0 0)
(0 0 0)
(0 0 0)
(0 0 0)
(0 0 0)
(0 0 0)
(0 0 0)
(0 0 0)
(0 0 0)
(0 0 0)
(0 0 0)
(0 0 0)
(0 0 0)
(0 0 0)
(0 0 0)
(0 0 0)
(0 0 0)
(0 0 0)
(0 0 0)
(0 0 0)
(0 0 0)
(0 0 0)
(0 0 0)
(0 0 0)
(0 0 0)
(0 0 0)
(0 0 0)
(0 0 0)
(0 0 0)
(0 0 0)
(0 0 0)
(0 0 0)
(0 0 0)
(0 0 0)
(0 0 0)
(0 0 0)
(0 0 0)
(0 0 0)
(0 0 0)
(0 0 0)
(0 0 0)
(0 0 0)
(0 0 0)
(0 0 0)
(0 0 0)
(0 0 0)
(0 0 0)
(0 0 0)
(0 0 0)
(0 0 0)
(0 0 0)
(0 0 0)
(0 0 0)
(0 0 0)
(0 0 0)
(0 0 0)
(0 0 0)
(0 0 0)
(0 0 0)
(0 0 0)
(0 0 0)
(0 0 0)
(0 0 0)
(0 0 0)
(0 0 0)
(0 0 0)
(0 0 0)
(0 0 0)
(0 0 0)
(0 0 0)
(0 0 0)
(0 0 0)
(0 0 0)
(0 0 0)
(0 0 0)
(0 0 0)
(0 0 0)
(0 0 0)
(0 0 0)
(0 0 0)
(0 0 0)
(0 0 0)
(0 0 0)
(0 0 0)
(0 0 0)
(0 0 0)
(0 0 0)
(0 0 0)
(0 0 0)
(0 0 0)
(0 0 0)
(0 0 0)
(0 0 0)
(0 0 0)
(0 0 0)
(0 0 0)
(0 0 0)
(0 0 0)
(0 0 0)
(0 0 0)
(0 0 0)
(0 0 0)
(0 0 0)
(0 0 0)
(0 0 0)
(0 0 0)
(-5.365509128e-07 1.116791557e-05 2.775557562e-17)
(0 0 0)
(0 0 0)
(-2.962142478e-07 0.000125097922 3.330669074e-16)
(1.366752655e-06 0.0001063412705 2.91433544e-16)
(0 0 0)
(0 0 0)
(0 0 0)
(0 0 0)
(0 0 0)
(0 0 0)
(0 0 0)
(0 0 0)
(0 0 0)
(0 0 0)
(0 0 0)
(0 0 0)
(0 0 0)
(0 0 0)
(0 0 0)
(0 0 0)
(0 0 0)
(0 0 0)
(0 0 0)
(0 0 0)
(0 0 0)
(0 0 0)
(0 0 0)
(0 0 0)
(0 0 0)
(0 0 0)
(0 0 0)
(0 0 0)
(0 0 0)
(0 0 0)
(0 0 0)
(0 0 0)
(0 0 0)
(0 0 0)
(0 0 0)
(0 0 0)
(0 0 0)
(0 0 0)
(0 0 0)
(0 0 0)
(0 0 0)
(0 0 0)
(0 0 0)
(0 0 0)
(0 0 0)
(0 0 0)
(0 0 0)
(0 0 0)
(0 0 0)
(0 0 0)
(0 0 0)
(0 0 0)
(0 0 0)
(0 0 0)
(0 0 0)
(0 0 0)
(0 0 0)
(0 0 0)
(0 0 0)
(0 0 0)
(0 0 0)
(-3.342663148e-05 0.0001703433043 4.857225733e-16)
(-0.0001923582458 0.001068515358 3.080868893e-15)
(-2.515513669e-06 1.417852605e-05 4.163336342e-17)
(-0.0003651553747 0.002819350308 7.993605777e-15)
(-0.0009063682996 0.006908310042 1.990074772e-14)
(-0.001075148369 0.009357505586 2.696454171e-14)
(-0.0005017231073 0.004420148491 1.254552018e-14)
(-0.0006099394748 0.009314240922 2.643718577e-14)
(-0.001067620196 0.01616668944 4.657385588e-14)
(-0.000889465516 0.01786357902 5.145883719e-14)
(-0.0005247104021 0.01059978958 3.008704397e-14)
(-2.092299539e-05 0.01239668073 3.519406988e-14)
(-2.482522738e-05 0.02019217185 5.818956428e-14)
(0.0002968300507 0.01993138658 5.745404152e-14)
(0.0001731267562 0.01219353203 3.462508058e-14)
(0.0005768470604 0.009346808516 2.653433029e-14)
(0.001022427254 0.01620913231 4.672651155e-14)
(0.001120057143 0.01416243474 4.081457394e-14)
(0.0006065130549 0.007824284707 2.221833828e-14)
(0.0003565656318 0.00285497201 8.10462808e-15)
(0.000885023983 0.006966358943 2.006728117e-14)
(0.0006657197404 0.004654432511 1.341982081e-14)
(0.0002082848324 0.001480336335 4.204969706e-15)
(0 0 0)
(3.506649842e-05 0.0001834466114 5.273559367e-16)
(0 0 0)
(0 0 0)
(0 0 0)
(0 0 0)
(0 0 0)
(0 0 0)
(0 0 0)
(0 0 0)
(0 0 0)
(0 0 0)
(0 0 0)
(0 0 0)
(0 0 0)
(0 0 0)
(0 0 0)
(0 0 0)
(0 0 0)
(0 0 0)
(0 0 0)
(0 0 0)
(0 0 0)
(0 0 0)
(0 0 0)
(0 0 0)
(0 0 0)
(0 0 0)
(0 0 0)
(0 0 0)
(0 0 0)
(0 0 0)
(0 0 0)
(0 0 0)
(0 0 0)
(0 0 0)
(0 0 0)
(0 0 0)
(0 0 0)
(0 0 0)
(0 0 0)
(0 0 0)
(0 0 0)
(0 0 0)
(0 0 0)
(0 0 0)
(0 0 0)
(0 0 0)
(-9.335517514e-05 0.0003363278253 1.026956298e-15)
(-0.0005099160927 0.001959207387 5.995204333e-15)
(-0.0001207994404 0.0004714008779 1.415534356e-15)
(-0.001722328376 0.008403086426 2.535471832e-14)
(-0.002753472684 0.01324216505 4.060640713e-14)
(-0.003510670205 0.01843758815 5.651035195e-14)
(-0.002366728284 0.01260432981 3.802513859e-14)
(-0.003670952673 0.0269670681 8.133771434e-14)
(-0.004851273053 0.03519934318 1.078581668e-13)
(-0.004872560977 0.04049326577 1.24067423e-13)
(-0.00376742824 0.03167716775 9.554856906e-14)
(-0.002926869773 0.0433444602 1.307426389e-13)
(-0.003628039957 0.05329989816 1.633415625e-13)
(-0.002851017152 0.05619573754 1.722233467e-13)
(-0.002323218875 0.04603371462 1.388750226e-13)
(2.194569306e-05 0.04960489475 1.497135749e-13)
(5.960514277e-05 0.06000377703 1.840055885e-13)
(0.001080857425 0.05957770042 1.827288321e-13)
(0.0008523133936 0.04920672604 1.485339629e-13)
(0.002937029706 0.04338699898 1.310201947e-13)
(0.00369642858 0.05332772762 1.636468738e-13)
(0.004288587252 0.04970279327 1.525446436e-13)
(0.003380083298 0.04004777779 1.209449207e-13)
(0.003636326101 0.02706922106 8.176792576e-14)
(0.004834910749 0.03529847036 1.083577672e-13)
(0.004575333511 0.029746205 9.131584378e-14)
(0.003351261768 0.02220311781 6.705747069e-14)
(0.001707758878 0.00850606872 2.568778523e-14)
(0.002731747927 0.01337063554 4.103661855e-14)
(0.00193060426 0.00872865401 2.678413047e-14)
(0.001071736133 0.004929024747 1.487698853e-14)
(0 0 0)
(9.268140621e-05 0.0003400064761 1.040834086e-15)
(0 0 0)
(0 0 0)
(0 0 0)
(0 0 0)
(0 0 0)
(0 0 0)
(0 0 0)
(0 0 0)
(0 0 0)
(0 0 0)
(0 0 0)
(0 0 0)
(0 0 0)
(0 0 0)
(0 0 0)
(0 0 0)
(0 0 0)
(0 0 0)
(0 0 0)
(0 0 0)
(0 0 0)
(0 0 0)
(0 0 0)
(0 0 0)
(0 0 0)
(0 0 0)
(0 0 0)
(0 0 0)
(0 0 0)
(0 0 0)
(0 0 0)
(0 0 0)
(0 0 0)
(0 0 0)
(0 0 0)
(0 0 0)
(0 0 0)
(0 0 0)
(0 0 0)
(-4.016529469e-05 0.0001136772101 3.747002708e-16)
(0 0 0)
(-0.001709031791 0.005866227593 1.890154699e-14)
(-0.002539752031 0.008560569371 2.806088695e-14)
(-0.003972913815 0.01430959927 4.687916721e-14)
(-0.002917731463 0.01069276517 3.444466934e-14)
(-0.006656529297 0.0306248178 9.854617122e-14)
(-0.008075206827 0.03657879954 1.196959198e-13)
(-0.009021412304 0.04467881049 1.461608612e-13)
(-0.00759280204 0.03818445851 1.228461777e-13)
(-0.00860772881 0.06000039772 1.929845173e-13)
(-0.00980702983 0.06735300937 2.202682481e-13)
(-0.009353753609 0.07369032967 2.410155409e-13)
(-0.008291893648 0.06629151574 2.132183319e-13)
(-0.005651219299 0.08044938727 2.58862376e-13)
(-0.006233510101 0.08751064963 2.863542736e-13)
(-0.004765411682 0.09032004904 2.956385137e-13)
(-0.004343971231 0.08343445441 2.685351941e-13)
(0.0001940269912 0.08720422573 2.809141808e-13)
(0.0002272859791 0.0937840804 3.072680999e-13)
(0.001938008858 0.09338300181 3.060607323e-13)
(0.001756566983 0.0867727871 2.79595791e-13)
(0.005953627199 0.08038487508 2.592370762e-13)
(0.006602994301 0.08740259736 2.867428517e-13)
(0.007845989616 0.08369398196 2.746552985e-13)
(0.007033774757 0.07652114305 2.468442117e-13)
(0.008714773762 0.06001007186 1.936645289e-13)
(0.009964274383 0.06726595291 2.20864993e-13)
(0.01000798451 0.06023880618 1.978001096e-13)
(0.008657289132 0.05314621951 1.715155795e-13)
(0.006608863642 0.03055032598 9.85739268e-14)
(0.008236988691 0.03722973745 1.222633106e-13)
(0.007099109284 0.02963780068 9.735268147e-14)
(0.005626558441 0.02397988665 7.738254482e-14)
(0.001949631883 0.00676724782 2.182976022e-14)
(0.002913863148 0.009932579844 3.261280135e-14)
(0.001644144326 0.005280300146 1.731947918e-14)
(0.0009395379355 0.003071668181 9.908740495e-15)
(0 0 0)
(0 0 0)
(0 0 0)
(0 0 0)
(0 0 0)
(0 0 0)
(0 0 0)
(0 0 0)
(0 0 0)
(0 0 0)
(0 0 0)
(0 0 0)
(0 0 0)
(0 0 0)
(0 0 0)
(0 0 0)
(0 0 0)
(0 0 0)
(0 0 0)
(0 0 0)
(0 0 0)
(0 0 0)
(0 0 0)
(0 0 0)
(0 0 0)
(0 0 0)
(0 0 0)
(0 0 0)
(0 0 0)
(0 0 0)
(0 0 0)
(0 0 0)
(0 0 0)
(0 0 0)
(0 0 0)
(-0.0001856389569 0.0004733418825 1.637578961e-15)
(-0.0004221637526 0.001056811756 3.719247132e-15)
(-0.001499340856 0.003950559909 1.391942117e-14)
(-0.001008032757 0.002704970333 9.353628982e-15)
(-0.005921112937 0.01888960341 6.528111385e-14)
(-0.007004275856 0.02194677811 7.722988915e-14)
(-0.009026375149 0.03019531844 1.062205879e-13)
(-0.007826221539 0.0266550118 9.20791221e-14)
(-0.01234070706 0.0527834162 1.820904538e-13)
(-0.01362746906 0.05718162934 2.009226119e-13)
(-0.01435583457 0.06581269621 2.311761893e-13)
(-0.01312347607 0.06138518064 2.116640196e-13)
(-0.01294245101 0.08420630582 2.901567875e-13)
(-0.01374284604 0.08746340665 3.069350329e-13)
(-0.01267549229 0.09258107046 3.248790126e-13)
(-0.01197936856 0.08939319802 3.08045256e-13)
(-0.007505042086 0.09979803932 3.441413821e-13)
(-0.007760156279 0.1007132585 3.536615445e-13)
(-0.005810833085 0.1016383947 3.570338469e-13)
(-0.005655786707 0.1013773437 3.49706375e-13)
(0.0002300366822 0.1028666227 3.552713679e-13)
(0.0001959018015 0.1020558802 3.589212261e-13)
(0.00220711647 0.1019971899 3.588795927e-13)
(0.002215528399 0.102682649 3.547717675e-13)
(0.007985357264 0.09968347971 3.44863027e-13)
(0.008199865672 0.1005070929 3.541472671e-13)
(0.0100203383 0.09880262558 3.483047184e-13)
(0.009688644812 0.09729239817 3.367445212e-13)
(0.01324368023 0.08391404416 2.907674101e-13)
(0.01408083064 0.08721109358 3.079897448e-13)
(0.01475873982 0.08140145715 2.876449079e-13)
(0.01373855003 0.07737343905 2.682715161e-13)
(0.012681633 0.05398900883 1.872668687e-13)
(0.01397541738 0.05836557411 2.062516824e-13)
(0.01279898344 0.04947821536 1.748046152e-13)
(0.01148012623 0.0452412063 1.568883912e-13)
(0.006249881853 0.02014539842 6.979139489e-14)
(0.007366842246 0.02329554143 8.221201497e-14)
(0.005310576732 0.01583111291 5.584421814e-14)
(0.00435100225 0.01322052129 4.578282198e-14)
(0.0002871843251 0.0007434698069 2.567390744e-15)
(0.000493363927 0.001253220617 4.413136523e-15)
(1.252442159e-05 3.03012977e-05 1.110223025e-16)
(0 0 0)
(0 0 0)
(0 0 0)
(0 0 0)
(0 0 0)
(0 0 0)
(0 0 0)
(0 0 0)
(0 0 0)
(0 0 0)
(0 0 0)
(0 0 0)
(0 0 0)
(0 0 0)
(0 0 0)
(0 0 0)
(0 0 0)
(0 0 0)
(0 0 0)
(0 0 0)
(0 0 0)
(0 0 0)
(0 0 0)
(0 0 0)
(0 0 0)
(0 0 0)
(0 0 0)
(0 0 0)
(0 0 0)
(-1.766947242e-05 3.649187882e-05 1.526556659e-16)
(-4.821515138e-07 1.016350504e-06 0)
(0 0 0)
(-0.001325305566 0.003132936887 1.168509733e-14)
(-0.001672737016 0.003876660773 1.476596623e-14)
(-0.003470027449 0.008466339234 3.22103455e-14)
(-0.002960542341 0.007367571835 2.747801986e-14)
(-0.009609732251 0.02844337484 1.059291543e-13)
(-0.01045972957 0.03034999604 1.152550277e-13)
(-0.01270232264 0.03934102621 1.493249968e-13)
(-0.01203489171 0.03803311131 1.415395579e-13)
(-0.01662015368 0.06580430215 2.446237657e-13)
(-0.01730601918 0.06712093997 2.544492395e-13)
(-0.01775583512 0.07513995147 2.848138392e-13)
(-0.01713586534 0.0740459913 2.752242878e-13)
(-0.01543631724 0.09169074643 3.408384686e-13)
(-0.01575916269 0.0915111611 3.469724508e-13)
(-0.01416988573 0.09386283287 3.559791351e-13)
(-0.01397191075 0.09481253633 3.52454177e-13)
(-0.008116527679 0.09654309719 0)
(-0.008239408474 0.09459438202 0)
(-0.007225843089 0.0945896103 0)
(-0.006156857502 0.09462770713 0)
(-0.006087058666 0.09559216536 0)
(-0.00605714491 0.09653407459 0)
(7.061842864e-05 0.09643788442 0)
(5.000289259e-05 0.09550107889 0)
(0.001076326941 0.09547931488 0)
(0.001091382189 0.09641615463 0)
(0.008321744684 0.09617949646 0)
(0.008331201504 0.09521667755 0)
(0.008347609426 0.09423879219 0)
(0.009367905267 0.09418689372 0)
(0.01037378871 0.09415386614 0)
(0.01037188315 0.0960869827 0)
(0.01568617743 0.09168702023 3.431976925e-13)
(0.01592755582 0.09140913029 3.490541189e-13)
(0.01714624871 0.08771297755 3.350375533e-13)
(0.01677668939 0.08744882089 3.274325255e-13)
(0.0169704165 0.06686954985 2.504385588e-13)
(0.01758085728 0.06789521547 2.595007542e-13)
(0.01669324087 0.05962878089 2.278732758e-13)
(0.01593640177 0.05809351541 2.175482017e-13)
(0.01028800475 0.03064713087 1.146721607e-13)
(0.0112515246 0.03284566219 1.253996906e-13)
(0.008866046494 0.02440118635 9.31060784e-14)
(0.007985220696 0.02242606357 8.386347172e-14)
(0.001778271917 0.004260433403 1.590394483e-14)
(0.002222768156 0.005219334014 1.988686993e-14)
(0.0007963425661 0.001782016304 6.786238238e-15)
(0.0005418225413 0.001237007717 4.62130334e-15)
(0 0 0)
(0 0 0)
(0 0 0)
(0 0 0)
(0 0 0)
(0 0 0)
(0 0 0)
(0 0 0)
(0 0 0)
(0 0 0)
(0 0 0)
(0 0 0)
(0 0 0)
(0 0 0)
(0 0 0)
(0 0 0)
(0 0 0)
(0 0 0)
(0 0 0)
(0 0 0)
(0 0 0)
(0 0 0)
(0 0 0)
(0 0 0)
(0 0 0)
(0 0 0)
(0 0 0)
(0 0 0)
(-0.0001592110805 0.0003017285236 1.276756478e-15)
(-9.072988317e-05 0.0001757989748 7.21644966e-16)
(-7.422495375e-05 0.0001469595815 5.967448757e-16)
(-0.002403462326 0.005232183083 2.119138198e-14)
(-0.002492635737 0.005309741471 2.19685381e-14)
(-0.004615048903 0.01034863386 4.27990976e-14)
(-0.004493154191 0.01029697335 4.168887457e-14)
(-0.01208362436 0.03291198241 1.329492072e-13)
(-0.01227662454 0.03270959485 1.350031198e-13)
(-0.01461529456 0.04154336135 1.713629239e-13)
(-0.01440949789 0.04187381541 1.690592111e-13)
(-0.01869623955 0.06789467577 2.738087534e-13)
(-0.0188896105 0.06706024608 2.763067553e-13)
(-0.01913586146 0.07403536501 3.050198982e-13)
(-0.01896171071 0.07506521202 3.026884299e-13)
(-0.01626363792 0.08801712555 3.551048344e-13)
(-0.01634566914 0.08634557055 3.559652573e-13)
(-0.01447954559 0.0870270875 0)
(-0.01443501659 0.08893277443 3.589351039e-13)
(-0.008433547199 0.0888246817 0)
(-0.008460359944 0.08785816214 0)
(-0.007460685524 0.08784203583 0)
(-0.007433993861 0.08880703463 0)
(0.008287995194 0.08848669819 0)
(0.008272699753 0.08752930694 0)
(0.00927189735 0.08750343996 0)
(0.009288213958 0.08845939111 0)
(0.01621246112 0.08783493524 3.571865026e-13)
(0.01621186256 0.08615549614 3.580469254e-13)
(0.0178341475 0.08436469345 3.507610868e-13)
(0.01777028046 0.08572852281 3.487765632e-13)
(0.01928042026 0.07009875216 2.853134395e-13)
(0.01950666712 0.0694838345 2.890465645e-13)
(0.01883550955 0.06201511734 2.579325642e-13)
(0.01857285057 0.0624302496 2.540606614e-13)
(0.01320647862 0.03623680954 1.472710842e-13)
(0.01350337722 0.03627198051 1.506711422e-13)
(0.01096572535 0.02775761104 1.152272722e-13)
(0.01068435216 0.02763103408 1.122435478e-13)
(0.003225006093 0.007113284264 2.883804306e-14)
(0.00364178175 0.007859018593 3.257116798e-14)
(0.001736885717 0.003572312526 1.480759959e-14)
(0.001429833827 0.003005677669 1.21846977e-14)
(0 0 0)
(0 0 0)
(0 0 0)
(0 0 0)
(0 0 0)
(0 0 0)
(0 0 0)
(0 0 0)
(0 0 0)
(0 0 0)
(0 0 0)
(0 0 0)
(0 0 0)
(0 0 0)
(0 0 0)
(0 0 0)
(0 0 0)
(0 0 0)
(0 0 0)
(0 0 0)
(0 0 0)
(0 0 0)
(0 0 0)
(0 0 0)
(0 0 0)
(0 0 0)
(0 0 0)
(0 0 0)
(-0.0002613547328 0.0004511028195 2.095545959e-15)
(-0.0002360554827 0.0004174066919 1.887379142e-15)
(-0.0002070876389 0.0003749378973 1.665334537e-15)
(-0.002961728922 0.005894654121 2.609024108e-14)
(-0.003062560018 0.005953126957 2.69784195e-14)
(-0.005340696922 0.01092710155 4.950206911e-14)
(-0.005214513517 0.01092426312 4.833633493e-14)
(-0.01304379023 0.03244628386 1.432604035e-13)
(-0.01320165175 0.03206233891 1.449257381e-13)
(-0.01552168104 0.040192145 1.815630979e-13)
(-0.01536666603 0.04076070038 1.7985613e-13)
(-0.01944716802 0.06430394634 2.834121826e-13)
(-0.01956637712 0.06312007661 2.848138392e-13)
(-0.01970204078 0.06919170594 3.121947145e-13)
(-0.01960016723 0.07057260015 3.110428581e-13)
(-0.01652856646 0.08101467875 3.573530361e-13)
(-0.01657728736 0.0791801293 3.575750807e-13)
(-0.01464082966 0.07944138617 0)
(-0.01460179594 0.0813331177 0)
(-0.008610265855 0.08120324454 0)
(-0.008630367108 0.08025673362 0)
(-0.007633310243 0.08023526059 0)
(-0.00761307746 0.08118176862 0)
(0.008143161554 0.08084904939 0)
(0.008122499742 0.07989697995 0)
(0.009119360077 0.0798745462 0)
(0.009140186686 0.08082612952 0)
(0.01612559301 0.0806555598 3.588795927e-13)
(0.01608356988 0.07876560032 3.589351039e-13)
(0.01787437938 0.07782123928 3.547995231e-13)
(0.01789015507 0.07957677552 3.542582894e-13)
(0.02008078193 0.06708005318 2.988165271e-13)
(0.0201725626 0.06589978675 3.006483951e-13)
(0.01970614847 0.05944282897 2.71158096e-13)
(0.0195766746 0.06039978541 2.690209167e-13)
(0.01456837235 0.03660661486 1.628280843e-13)
(0.01477828568 0.03628311135 1.652844528e-13)
(0.01226666275 0.02836736644 1.291328156e-13)
(0.01204776604 0.02851835715 1.267597138e-13)
(0.004175894113 0.008424006291 3.735900478e-14)
(0.004345608887 0.008562110573 3.888556144e-14)
(0.002241021122 0.00420772435 1.909583602e-14)
(0.002112702991 0.004061570368 1.801336857e-14)
(0 0 0)
(0 0 0)
(0 0 0)
(0 0 0)
(0 0 0)
(0 0 0)
(0 0 0)
(0 0 0)
(0 0 0)
(0 0 0)
(0 0 0)
(0 0 0)
(0 0 0)
(0 0 0)
(0 0 0)
(0 0 0)
(0 0 0)
(0 0 0)
(0 0 0)
(0 0 0)
(0 0 0)
(0 0 0)
(0 0 0)
(0 0 0)
(0 0 0)
(0 0 0)
(0 0 0)
(0 0 0)
(-0.0003855357739 0.0006003871687 3.094746681e-15)
(-0.000347585635 0.0005559420673 2.789435349e-15)
(-0.0003137967316 0.0005151394089 2.511879593e-15)
(-0.003313611971 0.005980104175 2.919886555e-14)
(-0.00341530708 0.006005320845 3.008704397e-14)
(-0.005777858194 0.01069157016 5.352662757e-14)
(-0.005652664034 0.01073614532 5.237477119e-14)
(-0.01359082058 0.03061474887 1.490058077e-13)
(-0.01374432874 0.03015541229 1.506156311e-13)
(-0.01605558677 0.03753607175 1.873501354e-13)
(-0.01590527077 0.03818302029 1.857125564e-13)
(-0.01986900774 0.05931811207 2.88158386e-13)
(-0.01998373105 0.05806654128 2.894628981e-13)
(-0.02006216944 0.06340038416 3.160527395e-13)
(-0.01996449608 0.06483917294 3.149702721e-13)
(-0.01671301572 0.07363403935 3.580469254e-13)
(-0.01675814535 0.07178379211 3.581995811e-13)
(-0.01479372181 0.07189031184 0)
(-0.01475580611 0.07377706731 0)
(-0.008768174269 0.0736474551 0)
(-0.00878762478 0.07270461455 0)
(-0.007791922261 0.07268339054 0)
(-0.007782108356 0.07315485274 0)
(-0.007772303106 0.07362592034 0)
(0.007967088855 0.07324106453 0)
(0.007943612215 0.07229265373 0)
(0.008939367232 0.07227182335 0)
(0.008962968673 0.07321992436 0)
(0.01594322923 0.0730658886 3.589073483e-13)
(0.01589243623 0.0711612828 3.588379593e-13)
(0.01764979341 0.07015918858 3.539807336e-13)
(0.01771989926 0.07212039413 3.544387006e-13)
(0.01999117782 0.06088385931 2.994271497e-13)
(0.01988514781 0.05909193248 2.983308045e-13)
(0.01941077251 0.05320974583 2.685907052e-13)
(0.01952114241 0.05485691741 2.697425616e-13)
(0.0145982795 0.03332917148 1.636468738e-13)
(0.01449554935 0.03226421213 1.626199175e-13)
(0.01200033519 0.02514384609 1.26620936e-13)
(0.01209468088 0.02599769259 1.2753687e-13)
(0.004227860009 0.007736107344 3.785860514e-14)
(0.004172519696 0.007439966624 3.737288257e-14)
(0.002113839722 0.003591060408 1.804112415e-14)
(0.002152895695 0.003753418305 1.836031327e-14)
(0 0 0)
(0 0 0)
(0 0 0)
(0 0 0)
(0 0 0)
(0 0 0)
(0 0 0)
(0 0 0)
(0 0 0)
(0 0 0)
(0 0 0)
(0 0 0)
(0 0 0)
(0 0 0)
(0 0 0)
(0 0 0)
(0 0 0)
(0 0 0)
(0 0 0)
(0 0 0)
(0 0 0)
(0 0 0)
(0 0 0)
(0 0 0)
(0 0 0)
(0 0 0)
(0 0 0)
(0 0 0)
(-0.000552124147 0.0007667076836 4.427014311e-15)
(-0.0005069964258 0.0007254137052 4.066191828e-15)
(-0.0004633491131 0.0006824972261 3.719247132e-15)
(-0.003733331989 0.006044983238 3.28903571e-14)
(-0.003845395686 0.006048016953 3.386180225e-14)
(-0.006301756122 0.01042850162 5.835609773e-14)
(-0.006166111697 0.01050553957 5.710709683e-14)
(-0.01421448207 0.02869031546 1.555422457e-13)
(-0.0143767109 0.02817699816 1.572353359e-13)
(-0.01667259463 0.03479894787 1.940392291e-13)
(-0.01651468936 0.03550303781 1.923183834e-13)
(-0.02033102622 0.05422855389 2.93390312e-13)
(-0.02044908353 0.05292515707 2.947087019e-13)
(-0.02045570865 0.0575260489 3.20340976e-13)
(-0.02035635081 0.05901048761 3.192585085e-13)
(-0.01688906137 0.06620423212 3.585881592e-13)
(-0.01693112043 0.06433647273 3.586853037e-13)
(-0.01494346395 0.06433886136 0)
(-0.01490635724 0.06622673119 0)
(-0.008922402495 0.06609746282 0)
(-0.00894130227 0.0651537329 0)
(-0.007947310614 0.06513250255 0)
(-0.007937751117 0.06560436511 0)
(-0.0079281497 0.06607613902 0)
(0.007772104629 0.06566481386 0)
(0.00774593853 0.06471777799 0)
(0.008740751105 0.06469797717 0)
(0.008767130652 0.06564474517 0)
(0.01570559747 0.06533416507 3.580052921e-13)
(0.01562316591 0.0633199904 3.572836471e-13)
(0.01719675204 0.0617645962 3.486794187e-13)
(0.01734452418 0.06396964868 3.507055757e-13)
(0.01917437701 0.05270656021 2.891159534e-13)
(0.01877051129 0.05019207963 2.834815716e-13)
(0.01824133788 0.04494783621 2.53824739e-13)
(0.01857356515 0.04705874348 2.580713421e-13)
(0.01342741285 0.02757382686 1.50948698e-13)
(0.01308794972 0.02612320804 1.472294509e-13)
(0.01061481872 0.01993277432 1.122435478e-13)
(0.01093111598 0.02112158847 1.155325835e-13)
(0.003410334636 0.005603195529 3.057276654e-14)
(0.003227228521 0.005151651753 2.892130979e-14)
(0.001434906678 0.002181772643 1.224020885e-14)
(0.00155771371 0.002437950218 1.329492072e-14)
(0 0 0)
(0 0 0)
(0 0 0)
(0 0 0)
(0 0 0)
(0 0 0)
(0 0 0)
(0 0 0)
(0 0 0)
(0 0 0)
(0 0 0)
(0 0 0)
(0 0 0)
(0 0 0)
(0 0 0)
(0 0 0)
(0 0 0)
(0 0 0)
(0 0 0)
(0 0 0)
(0 0 0)
(0 0 0)
(0 0 0)
(0 0 0)
(0 0 0)
(0 0 0)
(0 0 0)
(0 0 0)
(-0.0006978284671 0.0008513362318 5.592748487e-15)
(-0.0007216678199 0.0009108605055 5.787037516e-15)
(-0.0006587745727 0.0008592622324 5.287437155e-15)
(-0.004211783336 0.006038103983 3.708144902e-14)
(-0.004355063709 0.006041416981 3.834432771e-14)
(-0.006911579698 0.01008623663 6.394884622e-14)
(-0.006741263013 0.01016724727 6.239453398e-14)
(-0.01489442636 0.026582263 1.626199175e-13)
(-0.01509141548 0.02605338573 1.646599523e-13)
(-0.01736437296 0.03190585768 2.014777234e-13)
(-0.01717450767 0.03262810737 1.994238108e-13)
(-0.02081820005 0.04895997903 2.988581604e-13)
(-0.02095405999 0.04763482321 3.003985949e-13)
(-0.02087510818 0.05151837952 3.248928904e-13)
(-0.02076353044 0.05302386733 3.236855228e-13)
(-0.01705242882 0.05871319466 3.588934705e-13)
(-0.01709133948 0.05683137409 3.589212261e-13)
(-0.0150903949 0.05678958633 0)
(-0.0150536924 0.05867702638 0)
(-0.009070730671 0.05854848163 0)
(-0.009088795494 0.05760482112 0)
(-0.008096684306 0.05758385134 0)
(-0.008087560361 0.05805585504 0)
(-0.008078400265 0.05852750704 0)
(0.007555900704 0.05810705699 0)
(0.007527040729 0.0571631946 0)
(0.008521519863 0.05714419066 0)
(0.008550686743 0.05808804632 0)
(0.01530787209 0.05709066105 3.535921556e-13)
(0.01516627075 0.05491036584 3.515243652e-13)
(0.01647222466 0.05272699122 3.377020885e-13)
(0.01669259704 0.05507621604 3.412964356e-13)
(0.01763198177 0.04316066206 2.675082378e-13)
(0.01733040062 0.04110794464 2.633449014e-13)
(0.0164340998 0.03587945008 2.297606549e-13)
(0.01695779419 0.03822027136 2.368244489e-13)
(0.01156233662 0.02107340994 1.302985497e-13)
(0.0108369641 0.01912215432 1.221800439e-13)
(0.008402828895 0.01394399979 8.9012131e-14)
(0.009130279385 0.0156506367 9.668654766e-14)
(0.002289616105 0.003333831185 2.053912596e-14)
(0.001999605796 0.002817998173 1.794397964e-14)
(0.0006494626101 0.0008716738259 5.551115123e-15)
(0.0008174573718 0.001133603989 6.980527267e-15)
(0 0 0)
(0 0 0)
(0 0 0)
(0 0 0)
(0 0 0)
(0 0 0)
(0 0 0)
(0 0 0)
(0 0 0)
(0 0 0)
(0 0 0)
(0 0 0)
(0 0 0)
(0 0 0)
(0 0 0)
(0 0 0)
(0 0 0)
(0 0 0)
(0 0 0)
(0 0 0)
(0 0 0)
(0 0 0)
(0 0 0)
(0 0 0)
(0 0 0)
(0 0 0)
(0 0 0)
(0 0 0)
(-0.00124070217 0.00130402166 9.950373858e-15)
(-0.001131126079 0.001236823252 9.076073226e-15)
(-0.0009680471131 0.001099345862 7.771561172e-15)
(-0.004815602198 0.006009963393 4.238276397e-14)
(-0.005174046555 0.006217293612 4.551914401e-14)
(-0.007847473444 0.009918008825 7.252531908e-14)
(-0.007408985816 0.009725813522 6.851463841e-14)
(-0.01575705356 0.02444859949 1.715988462e-13)
(-0.0160500791 0.0239692063 1.746519596e-13)
(-0.01824381111 0.02898131172 2.109701303e-13)
(-0.01800174729 0.02971538404 2.083611061e-13)
(-0.02139807621 0.04362645173 3.054639874e-13)
(-0.02147476797 0.04211246119 3.061301213e-13)
(-0.02136076328 0.04543336238 3.302913498e-13)
(-0.02123438847 0.04696842067 3.288896933e-13)
(-0.01720568357 0.05117159547 0)
(-0.01724496899 0.04928438753 0)
(-0.01524103044 0.04924140144 0)
(-0.01522157031 0.05018468043 0)
(-0.01520237133 0.05112805288 0)
(-0.009213135148 0.05099958983 0)
(-0.009222022566 0.0505283705 0)
(-0.008725831595 0.0505180581 0)
(-0.008716990905 0.05098914686 0)
(-0.0006071294311 0.05069889698 0)
(-0.0006177517576 0.050464015 0)
(-0.000626794921 0.05022905452 0)
(-0.0001408752713 0.05022392411 0)
(-0.000120467748 0.05069339938 0)
(0.00730325949 0.05056795223 0)
(0.007267208014 0.04962819538 0)
(0.007230767716 0.04868871026 0)
(0.009225586608 0.04864991588 0)
(0.009295950237 0.05053012568 0)
(0.008299975611 0.05054894309 0)
(0.01464152686 0.04816679618 3.428785034e-13)
(0.01438544883 0.04571178749 3.380073998e-13)
(0.01533437645 0.04295852656 3.177735852e-13)
(0.01574296947 0.04568964058 3.253924907e-13)
(0.01585258641 0.03395912713 2.418343303e-13)
(0.01528096455 0.03155555359 2.333966354e-13)
(0.01417110611 0.02691115058 1.989380882e-13)
(0.0147691908 0.02910100822 2.071398608e-13)
(0.008980812649 0.01428013708 1.013911177e-13)
(0.00844007648 0.01292837684 9.532652445e-14)
(0.006173770452 0.008890394976 6.547540288e-14)
(0.006649912109 0.009941298736 7.051303985e-14)
(0.0009455482188 0.001199790534 8.493206138e-15)
(0.0007686442215 0.000939335432 6.89726054e-15)
(6.094313236e-05 7.091950415e-05 5.273559367e-16)
(0.0001164354285 0.0001406918139 9.992007222e-16)
(0 0 0)
(0 0 0)
(0 0 0)
(0 0 0)
(0 0 0)
(0 0 0)
(0 0 0)
(0 0 0)
(0 0 0)
(0 0 0)
(0 0 0)
(0 0 0)
(0 0 0)
(0 0 0)
(0 0 0)
(0 0 0)
(0 0 0)
(0 0 0)
(0 0 0)
(0 0 0)
(0 0 0)
(0 0 0)
(0 0 0)
(0 0 0)
(0 0 0)
(0 0 0)
(0 0 0)
(0 0 0)
(-0.001176607402 0.00104260378 9.478529073e-15)
(-0.00132967375 0.001234654964 1.071365219e-14)
(-0.001420839033 0.001379570861 1.144917494e-14)
(-0.0057306918 0.006116980729 5.064004771e-14)
(-0.005546545514 0.005661728259 4.901634654e-14)
(-0.008273728373 0.008883870487 7.679967773e-14)
(-0.008494226056 0.009537540573 7.885359032e-14)
(-0.01677526641 0.02225986118 1.832700658e-13)
(-0.01650589398 0.02094162702 1.80244708e-13)
(-0.01867058859 0.02519403638 2.166045121e-13)
(-0.01893302945 0.0267230235 2.197825255e-13)
(-0.02190167928 0.03815868647 3.133882043e-13)
(-0.02172926147 0.03617622938 3.105571356e-13)
(-0.02144984656 0.03873005508 3.325256737e-13)
(-0.02157239167 0.0407719662 3.348987754e-13)
(-0.01714151378 0.04359939891 0)
(-0.01718291043 0.04171193022 0)
(-0.01517338105 0.04166785649 0)
(-0.01515268753 0.04261137162 0)
(-0.0151319844 0.04355532518 0)
(-0.009103483942 0.0434231059 0)
(-0.009124187076 0.04247915234 0)
(-0.008119466229 0.04245711643 0)
(-0.008109109854 0.04292931243 0)
(-0.008098763095 0.04340107 0)
(-0.008601123518 0.04341208795 0)
(-0.001065499387 0.04324681389 0)
(-0.001075845306 0.04277505631 0)
(-0.001086201262 0.0423028603 0)
(-8.144954257e-05 0.04228082371 0)
(-6.0746408e-05 0.04322477728 0)
(0.00697248805 0.04307052181 0)
(0.006931091397 0.04118305312 0)
(0.008909500562 0.04098238085 3.575750807e-13)
(0.008975518845 0.04299257514 3.586575481e-13)
(0.01363552856 0.03870499899 3.23741034e-13)
(0.01329676293 0.03622940565 3.168298957e-13)
(0.01395053932 0.03341747745 2.923356002e-13)
(0.01435834522 0.03586224883 3.00065528e-13)
(0.01330179388 0.02437061683 2.038091917e-13)
(0.0127638967 0.02239222117 1.957878304e-13)
(0.01137497933 0.01832616256 1.601219157e-13)
(0.01215384509 0.02046167127 1.710159792e-13)
(0.006369698036 0.008639961506 7.199796315e-14)
(0.005551017622 0.007204273319 6.275535647e-14)
(0.003771493985 0.004600358003 4.003741783e-14)
(0.004297693173 0.00547907974 4.561628852e-14)
(0.000158251132 0.0001711636057 1.415534356e-15)
(7.148066266e-05 7.396482403e-05 6.383782392e-16)
(0 0 0)
(0 0 0)
(0 0 0)
(0 0 0)
(0 0 0)
(0 0 0)
(0 0 0)
(0 0 0)
(0 0 0)
(0 0 0)
(0 0 0)
(0 0 0)
(0 0 0)
(0 0 0)
(0 0 0)
(0 0 0)
(0 0 0)
(0 0 0)
(0 0 0)
(0 0 0)
(0 0 0)
(0 0 0)
(0 0 0)
(0 0 0)
(0 0 0)
(0 0 0)
(0 0 0)
(0 0 0)
(0 0 0)
(0 0 0)
(-0.0002748218821 0.0001968792403 2.220446049e-15)
(-0.0004986652441 0.0003783944182 4.024558464e-15)
(-0.000740856471 0.00059361219 5.967448757e-15)
(-0.004250202156 0.003743863622 3.75671716e-14)
(-0.003631324792 0.003029388705 3.211320099e-14)
(-0.005914666787 0.005190714524 5.492828414e-14)
(-0.006690601841 0.00619961428 6.211697823e-14)
(-0.01446477432 0.01583659376 1.579292253e-13)
(-0.01341045479 0.01390772735 1.464800503e-13)
(-0.01556287176 0.01716449897 1.805361416e-13)
(-0.01663396998 0.01936692773 1.929012505e-13)
(-0.02018764395 0.02897106082 2.879363414e-13)
(-0.01930029412 0.02623486784 2.752936767e-13)
(-0.01945609813 0.02866064806 3.007316618e-13)
(-0.02021420848 0.0314420619 3.125000259e-13)
(-0.01711040776 0.0356551249 3.550770789e-13)
(-0.01685258935 0.03322361802 3.492067746e-13)
(-0.01520103053 0.03382478394 3.558958683e-13)
(-0.01528794566 0.03598295053 3.58726937e-13)
(-0.009269089787 0.03587235427 0)
(-0.009310496056 0.03398444715 0)
(-0.007301010518 0.03394037438 0)
(-0.007259604248 0.0358282815 0)
(-0.008264368939 0.03585031837 0)
(-0.00123110379 0.03569606223 0)
(-0.00127251006 0.0338081551 0)
(0.0007369886316 0.03376408204 0)
(0.0007783949007 0.03565198917 0)
(0.006754400765 0.03520434203 3.557432127e-13)
(0.006623889074 0.03281688372 3.502059753e-13)
(0.008348924923 0.03177572528 3.394784454e-13)
(0.008566286618 0.03436044099 3.475969512e-13)
(0.01217965421 0.02870640467 2.910310881e-13)
(0.01165367814 0.02600977845 2.784578124e-13)
(0.01190178251 0.02331892187 2.496891582e-13)
(0.01251751937 0.0259044099 2.626787676e-13)
(0.0105591265 0.01599614187 1.620092949e-13)
(0.009809736715 0.0140683731 1.50421342e-13)
(0.008321274253 0.01096198786 1.170868957e-13)
(0.009055935758 0.0126011189 1.274952366e-13)
(0.003552316697 0.00398260818 4.016231792e-14)
(0.003052096309 0.003240235209 3.450018049e-14)
(0.001561482586 0.001558352043 1.657007864e-14)
(0.002121087212 0.002235390475 2.252364961e-14)
(0 0 0)
(0 0 0)
(0 0 0)
(0 0 0)
(0 0 0)
(0 0 0)
(0 0 0)
(0 0 0)
(0 0 0)
(0 0 0)
(0 0 0)
(0 0 0)
(0 0 0)
(0 0 0)
(0 0 0)
(0 0 0)
(0 0 0)
(0 0 0)
(0 0 0)
(0 0 0)
(0 0 0)
(0 0 0)
(0 0 0)
(0 0 0)
(0 0 0)
(0 0 0)