/*--------------------------------*- C++ -*----------------------------------*\
| =========                 |                                                 |
| \\      /  F ield         | OpenFOAM: The Open Source CFD Toolbox           |
|  \\    /   O peration     | Version:  v1912                                 |
|   \\  /    A nd           | Website:  www.openfoam.com                      |
|    \\/     M anipulation  |                                                 |
\*---------------------------------------------------------------------------*/
FoamFile
{
    version     2.0;
    format      ascii;
    class       volVectorField;
    location    "2.51";
    object      U;
}
// * * * * * * * * * * * * * * * * * * * * * * * * * * * * * * * * * * * * * //

dimensions      [0 1 -1 0 0 0 0];


internalField   nonuniform List<vector> 
12556
(
(99.99948851 0.001310825426 -3.891131067e-21)
(99.99911326 0.004876907577 -2.773586233e-25)
(99.9982445 0.0116472915 -3.891232531e-21)
(99.99662717 0.02409600053 -3.87796601e-21)
(99.99966814 0.02020974373 3.75937061e-21)
(99.99819579 0.03530538566 0)
(99.99714015 0.05967625507 0)
(99.9967201 0.09437069406 -6.818911244e-21)
(99.99557855 0.1420446679 8.077116552e-22)
(99.99456502 0.2034123829 -5.50172362e-21)
(99.99418757 0.27409549 5.745459333e-22)
(99.99522733 0.3424626747 0)
(99.99748248 0.3914698814 0)
(100.0004873 0.407059767 2.445452365e-22)
(100.0033878 0.385122018 -8.973187324e-22)
(100.0049797 0.334606839 7.602483238e-22)
(100.005352 0.2710897008 0)
(100.00517 0.2079427672 1.41960457e-21)
(100.0050005 0.1511550669 5.865677817e-21)
(100.0026928 0.1084896122 -1.690633824e-21)
(100.0114423 0.1266212482 -1.480536547e-20)
(100.0081102 0.07916128333 0)
(100.0061448 0.0427767236 -1.876412183e-21)
(100.005967 0.01364215761 -1.323245988e-20)
(99.99530218 0.003143318046 1.556313429e-20)
(99.99145814 0.01225671817 3.894059143e-21)
(99.98326456 0.03024385305 2.725008404e-20)
(99.96915919 0.06500698741 -1.167301282e-20)
(99.96954689 0.09480239237 3.783876359e-21)
(99.9468362 0.1681399733 -3.143499083e-23)
(99.91645392 0.2847454596 0)
(99.8988992 0.3955045618 -6.781336346e-21)
(99.86043598 0.6027006132 -6.395913246e-21)
(99.82342769 0.874846586 -1.148782487e-20)
(99.80130442 1.197944626 -4.94167786e-21)
(99.81593995 1.524062041 -8.710027617e-21)
(99.87860947 1.767883247 5.037414405e-21)
(99.96526888 1.856587454 -6.017172957e-22)
(100.0554595 1.772850543 -3.313419582e-22)
(100.1171453 1.547128062 3.907334487e-21)
(100.1392636 1.252935232 -8.196395359e-21)
(100.1299042 0.9631873769 0)
(100.1447262 0.7420917872 -2.519296291e-20)
(100.1061524 0.5157849946 4.890056688e-20)
(100.1072641 0.3627401486 1.433794548e-20)
(100.0774857 0.2260052783 2.978293925e-20)
(100.0595513 0.1223703983 -2.987107501e-20)
(100.0527556 0.03900980395 1.510969107e-20)
(99.98826288 0.002669924075 -1.552847559e-20)
(99.9775161 0.01246890757 -3.114691648e-20)
(99.95474957 0.03583525031 -7.006994966e-20)
(99.91722245 0.08188757508 9.329561226e-20)
(99.89256555 0.1434517372 -7.71331387e-21)
(99.82664928 0.2672339172 -7.573825411e-21)
(99.7334271 0.4639363457 -1.317721553e-20)
(99.67438099 0.6885019831 0)
(99.55128228 1.074728362 2.638486022e-20)
(99.42975986 1.597347718 1.190761951e-20)
(99.35765642 2.259252877 -6.576760513e-19)
(99.42577431 2.959059784 0)
(99.65725604 3.4741265 4.605940039e-19)
(100.0059941 3.666964515 9.82991712e-21)
(100.3238315 3.466270914 -1.566795444e-19)
(100.5219664 2.980812914 1.509734829e-20)
(100.5793655 2.375757632 -8.898364053e-21)
(100.5297642 1.779774114 -2.19239581e-20)
(100.4820306 1.276899423 -1.510820269e-19)
(100.3625292 0.8741546889 -3.402143255e-20)
(100.2992861 0.5526888138 -1.480172475e-20)
(100.2178767 0.3431481516 3.368910329e-20)
(100.1681661 0.1855423661 -3.798059423e-21)
(100.1464395 0.058822535 0)
(99.98358574 -0.001610692005 -7.808077791e-21)
(99.96307624 0.0006261497353 5.471271708e-20)
(99.91976701 0.02031084649 -1.56486535e-20)
(99.84879471 0.06546394325 0)
(99.78901633 0.1494535846 0)
(99.65699386 0.3054973068 -6.086874224e-20)
(99.47064824 0.5611993674 -1.220384475e-19)
(99.30952313 0.8866047613 2.898296907e-20)
(99.03207306 1.436828848 -3.860546082e-19)
(98.73199811 2.265240697 0)
(98.54710586 3.393162118 -1.427378501e-18)
(98.66572904 4.675300337 -1.132792149e-19)
(99.31996306 5.628650006 6.996608851e-20)
(100.2196707 5.848038711 -1.44378693e-19)
(100.9296673 5.34702299 -2.196129327e-20)
(101.2795103 4.45713913 4.503520744e-19)
(101.3312006 3.437488728 1.581895958e-19)
(101.1960531 2.504941612 0)
(101.0106566 1.706640118 5.577519939e-20)
(100.7527925 1.140431361 -4.355604949e-20)
(100.5700246 0.6738203498 -3.80485255e-20)
(100.4159235 0.4120689061 1.933250944e-20)
(100.3200759 0.2208857655 -3.88747308e-21)
(100.2761715 0.06950264961 0)
(99.9901714 -0.010638181 0)
(99.95830618 -0.02629351298 0)
(99.89173779 -0.02278737374 7.847895672e-21)
(99.78107311 0.009392203795 1.190425297e-20)
(99.67611664 0.1012901559 1.972453499e-20)
(99.46030163 0.2618104514 0)
(99.15525454 0.5318634996 0)
(98.84790163 0.9273818962 -6.036890853e-20)
(98.32489429 1.635904947 -4.672629331e-21)
(97.70976494 2.805833944 1.898961025e-18)
(97.201832 4.609059356 -1.028251106e-19)
(97.43463117 6.85485112 0)
(98.9156803 8.62553333 4.510920063e-19)
(100.9775353 8.671742662 -2.032538193e-19)
(102.2682627 7.4235771 -2.310012392e-18)
(102.6704129 5.820648989 -4.810424052e-20)
(102.5295853 4.326098283 -2.284477096e-19)
(102.1330228 3.022480522 -6.657383118e-22)
(101.7085086 1.955171312 -9.420068136e-20)
(101.2536293 1.270462697 7.875148793e-21)
(100.8873637 0.6928070087 0)
(100.6427159 0.4182863743 3.987172452e-21)
(100.4898186 0.2201046616 -2.993640976e-21)
(100.4184824 0.06844055519 -9.937462391e-22)
(100.0182632 -0.02474130359 0)
(99.97478511 -0.06901254644 0)
(99.8851824 -0.09498642912 -1.575217425e-20)
(99.73429628 -0.09267702137 3.195377829e-20)
(99.5721236 -0.009850283266 0)
(99.27018829 0.1230334922 0)
(98.83053043 0.3671290656 2.502875166e-20)
(98.3431862 0.7776789001 3.7204639e-19)
(97.49817648 1.548676449 9.3621265e-19)
(96.30792034 2.972084053 -9.582768222e-19)
(95.01121892 5.516226128 2.480064252e-19)
(94.780038 9.502828459 0)
(98.05348824 13.32214507 0)
(102.9421572 12.64114158 0)
(104.923941 9.467993314 -9.842471169e-19)
(104.9207067 6.768680297 0)
(104.2232995 4.769893213 -1.211267419e-18)
(103.3508838 3.216207053 -6.588216001e-20)
(102.5115127 1.937372166 2.435614288e-20)
(101.8079745 1.220509034 -1.643068964e-20)
(101.2148842 0.5935347513 0)
(100.865011 0.3504218222 0)
(100.6487774 0.1770775462 -1.013443923e-21)
(100.5474298 0.05399453632 -3.050874686e-21)
(100.077801 -0.04361768346 3.835030839e-21)
(100.0237915 -0.1265243756 -3.861810381e-21)
(99.91376093 -0.1945272099 7.872723394e-21)
(99.72703318 -0.2381387411 -2.885514291e-20)
(99.50829826 -0.1848687694 8.158696933e-23)
(99.12501074 -0.1118869224 2.454656759e-20)
(98.56185606 0.057508968 2.647133006e-20)
(97.87999493 0.4131287594 0)
(96.68113088 1.081785591 0)
(94.73333662 2.413364211 0)
(91.91284131 4.959221216 -7.307833336e-19)
(88.46999634 10.75127775 3.686308378e-19)
(93.9976851 22.18347121 0)
(108.4336119 18.4434022 0)
(109.5394935 10.76545339 -2.533887693e-19)
(108.0189332 6.742648752 1.079902205e-18)
(106.2965319 4.432500335 0)
(104.7128899 2.876218815 -1.619205615e-19)
(103.3222293 1.578962522 0)
(102.3409526 0.9378325744 9.156442223e-21)
(101.5001382 0.3730667762 2.686693093e-21)
(101.0438556 0.2010734556 -3.173375799e-21)
(100.767147 0.09040022378 -3.614050662e-21)
(100.6366214 0.02603025352 8.673371526e-21)
(100.1773809 -0.06636502004 -3.835435744e-21)
(100.1151417 -0.1960263197 3.863200221e-21)
(99.9897003 -0.3159714444 -4.895529097e-21)
(99.77610351 -0.4183296259 -3.283016576e-21)
(99.50704245 -0.4131669873 1.397518364e-20)
(99.06127557 -0.4268611902 8.291949353e-21)
(98.40422587 -0.3777510738 -4.282553122e-21)
(97.57861551 -0.1615301672 -5.079533557e-19)
(96.10124077 0.2197381304 1.128530634e-20)
(93.59929053 0.9509060244 0)
(89.60478844 1.993834072 0)
(82.36797904 3.489053111 -1.143444846e-18)
(122.5633354 21.61835741 1.54698174e-18)
(115.9295855 9.039143626 6.705906935e-19)
(111.3845301 4.974933869 2.841031945e-19)
(108.3094347 3.062750712 9.450335487e-19)
(105.9663378 1.873609245 5.754844914e-19)
(103.9852284 0.8536927934 -4.926301733e-21)
(102.7480122 0.432439287 2.076798969e-20)
(101.6821733 0.0383299724 -3.298681951e-21)
(101.1388496 -0.01979830081 2.69464144e-21)
(100.8149152 -0.0343155808 -5.291281906e-22)
(100.6599715 -0.0139955194 -8.18615503e-21)
(100.3234053 -0.09157950956 -1.845035704e-21)
(100.2561643 -0.2731403183 -1.38577696e-21)
(100.1221284 -0.4511374532 -4.747014561e-22)
(99.89361868 -0.619930576 1.433525032e-21)
(99.58671248 -0.6761639444 -2.644035898e-23)
(99.10534572 -0.792809387 0)
(98.39973642 -0.888309999 2.341590905e-21)
(97.50870076 -0.8599160587 5.102942626e-19)
(95.92060254 -0.8488288689 -1.085180653e-18)
(93.36406709 -0.8448955134 -2.527037324e-19)
(89.82355349 -1.288614098 8.597267776e-19)
(85.81130544 -3.128482944 0)
(135.1507369 7.019178347 0)
(120.4716483 2.832527146 0)
(113.6571466 1.361266004 3.112794162e-19)
(109.6167195 0.7082483329 -2.711381734e-19)
(106.7544791 0.3174135582 8.246321574e-19)
(104.3372349 -0.1539202852 -5.087106841e-21)
(102.9310203 -0.2443378762 1.178265103e-20)
(101.7132691 -0.377827092 1.143320255e-21)
(101.1180939 -0.2911335925 0)
(100.7667623 -0.1852050398 4.143304835e-21)
(100.5960829 -0.06267045504 4.089606835e-21)
(100.5192354 -0.1175466173 3.635268516e-21)
(100.450646 -0.352556906 5.555680733e-23)
(100.3155765 -0.5901971828 0)
(100.0855109 -0.8279493002 1.86605012e-22)
(99.75573182 -0.952674874 -1.914159572e-21)
(99.26812834 -1.175721647 2.028860028e-21)
(98.5625612 -1.418202496 0)
(97.67683735 -1.581277943 5.066999975e-19)
(96.13348908 -1.902191855 0)
(93.80273227 -2.399870205 3.251816322e-19)
(90.98819645 -3.3390633 1.854839254e-20)
(88.46360643 -4.791281382 0)
(132.8501557 -8.573279674 -9.520152746e-20)
(120.3440584 -4.589785583 1.486219383e-18)
(113.7837795 -2.958172465 -3.952186132e-19)
(109.7201628 -2.049753826 0)
(106.8216901 -1.494976717 -7.23870311e-19)
(104.2687471 -1.28881918 4.327720777e-20)
(102.8327424 -1.00269201 0)
(101.5649007 -0.8259761447 -1.123672928e-21)
(100.9635115 -0.5826222957 -4.616295096e-21)
(100.6077926 -0.346976182 5.145088343e-22)
(100.4324504 -0.1150630652 0)
(100.7648275 -0.1425885446 -1.790077447e-21)
(100.698393 -0.4289787996 1.804611926e-21)
(100.5692478 -0.7232931931 1.759381575e-21)
(100.3515774 -1.027857926 -1.641003655e-21)
(100.0122505 -1.221415872 -1.886113504e-21)
(99.54573801 -1.542385165 0)
(98.88136665 -1.918486204 -6.09217924e-21)
(98.04854145 -2.250577116 -7.685164898e-21)
(96.62639856 -2.827044798 0)
(94.56331693 -3.622267493 0)
(92.17975446 -4.695361845 -1.330682449e-21)
(90.07140607 -5.82717057 -1.613589317e-18)
(124.4782493 -17.23418063 0)
(116.7722401 -10.10037482 0)
(112.0006707 -6.591024093 1.388578122e-18)
(108.7067236 -4.53853047 4.793742445e-19)
(106.1601453 -3.204945904 5.695490562e-19)
(103.7708292 -2.359270256 0)
(102.4520773 -1.730668046 -2.816324558e-20)
(101.2354197 -1.252926491 -1.40016751e-20)
(100.6730468 -0.8612393155 1.048631426e-21)
(100.3357314 -0.5028385732 -3.322513886e-21)
(100.1668578 -0.1657741352 4.866939821e-22)
(101.0567916 -0.1651769736 6.577433771e-21)
(100.9957236 -0.4975366794 0)
(100.8779799 -0.8402537665 -1.755948826e-21)
(100.6824447 -1.210765574 0)
(100.3436606 -1.464178845 0)
(99.92415093 -1.865596805 -5.604210839e-21)
(99.33143244 -2.352375805 -5.960962605e-21)
(98.58100853 -2.821620307 1.837586905e-18)
(97.31976779 -3.585092272 0)
(95.50383064 -4.582590153 2.751752298e-19)
(93.35059378 -5.783840389 6.682054897e-19)
(91.29192669 -6.90599715 1.662633049e-19)
(115.5276564 -20.36526801 2.183511272e-18)
(111.8788655 -12.90908242 -4.333601226e-19)
(109.1276599 -8.867485225 9.105029786e-19)
(106.8828984 -6.301155382 -8.466890354e-19)
(104.9311692 -4.511914919 6.935182091e-19)
(102.9318635 -3.213982705 2.245746398e-21)
(101.8351578 -2.338991025 -3.412050954e-20)
(100.7509465 -1.6167431 8.285612229e-21)
(100.2619137 -1.098662413 0)
(99.96065534 -0.6381166192 3.828879887e-21)
(99.80732477 -0.2100660828 0)
(101.389222 -0.1847965212 6.569037493e-21)
(101.335565 -0.5575527116 1.03705092e-19)
(101.2320554 -0.9413479276 -2.088491233e-19)
(101.0614921 -1.363617996 -4.448935958e-22)
(100.7550445 -1.663193037 -1.649672453e-21)
(100.3860599 -2.126784152 0)
(99.88460521 -2.696433058 1.141613226e-19)
(99.22940765 -3.266080245 0)
(98.15689765 -4.158225942 -4.401244939e-19)
(96.60420078 -5.312748569 -4.38294379e-19)
(94.69529863 -6.738529369 5.603391854e-19)
(92.71673573 -8.124473689 0)
(103.4671859 -29.18893053 7.880325012e-20)
(107.3122743 -18.8736585 3.728251867e-19)
(107.141343 -13.34027524 -3.707115617e-20)
(106.024293 -9.724130238 -2.617794565e-20)
(104.7510447 -7.194297784 6.817974529e-19)
(103.420798 -5.290910059 2.213733563e-19)
(101.8965436 -3.772220233 -6.791395494e-20)
(101.0586521 -2.77054171 0)
(100.1603823 -1.891899801 0)
(99.75801905 -1.276970887 1.195374134e-20)
(99.50215393 -0.7432590182 2.205835385e-21)
(99.37019215 -0.2447262074 -7.135808068e-21)
(101.7539205 -0.1995706505 0)
(101.7090469 -0.6033290248 0)
(101.6229062 -1.017685809 0)
(101.4799088 -1.472189948 0)
(101.2055019 -1.818897456 0)
(100.8907778 -2.331530616 0)
(100.4807257 -2.959458491 -9.99677827e-20)
(99.93826364 -3.586559791 0)
(99.06682077 -4.548088011 3.973712961e-19)
(97.81691082 -5.796981479 4.300742056e-19)
(96.32515592 -7.448438774 -4.809024267e-19)
(94.79206361 -9.72976877 4.561291904e-19)
(96.85198058 -18.85794665 -1.727660611e-19)
(102.3871363 -15.48116704 2.213699682e-19)
(103.4734231 -12.15467545 1.608283303e-19)
(103.3148268 -9.483905687 2.54021283e-19)
(102.7199785 -7.345261119 0)
(101.8685317 -5.567692718 -5.838054685e-20)
(100.8016621 -4.044710942 -9.32576357e-20)
(100.2047231 -3.016910516 -3.513159056e-20)
(99.51068438 -2.0574552 -1.943654778e-20)
(99.19270161 -1.394154247 1.910733974e-20)
(98.98494909 -0.8146084057 0)
(98.87669308 -0.2682333001 1.909269832e-20)
(102.1423728 -0.2093846573 0)
(102.1072042 -0.6339582262 0)
(102.0407997 -1.068568918 0)
(101.9276407 -1.538404973 0)
(101.6865561 -1.913725614 0)
(101.4379579 -2.450831666 0)
(101.1238037 -3.088290911 -1.154208224e-20)
(100.7058395 -3.73572194 1.713008266e-19)
(100.067753 -4.671936936 6.310910976e-21)
(99.14514212 -5.875477036 2.118854782e-20)
(98.18674104 -7.434282192 -6.948675217e-19)
(97.43394285 -9.581881172 8.394453664e-20)
(98.42451244 -12.25351505 -7.837679669e-21)
(100.4073718 -11.90754128 -2.433895189e-19)
(101.178143 -10.34278514 -2.73144866e-19)
(101.2733522 -8.619937877 -3.593630703e-19)
(100.9989464 -6.984860097 -2.865657574e-19)
(100.4693433 -5.488586776 -2.447391278e-20)
(99.74186134 -4.085516974 0)
(99.35329902 -3.109680245 0)
(98.83770854 -2.124693385 -3.593280519e-20)
(98.5957369 -1.452468296 1.77306266e-20)
(98.43443998 -0.8519285555 7.435677304e-22)
(98.34918987 -0.2805620242 -1.313486853e-20)
(102.5452743 -0.2143602276 0)
(102.5194925 -0.6493528637 0)
(102.4722287 -1.093846663 0)
(102.3879078 -1.566186044 0)
(102.1794735 -1.956635718 0)
(101.9913299 -2.496035611 0)
(101.7618917 -3.115650316 0)
(101.4567651 -3.746993795 -7.685365214e-20)
(101.0104033 -4.592644979 1.233905113e-20)
(100.3486779 -5.627571615 -1.252554004e-18)
(99.70179449 -6.855043954 0)
(97.14002885 -7.940788737 -6.433144623e-19)
(99.29339614 -9.419679923 0)
(99.74239497 -9.39453647 8.896134442e-20)
(99.90902707 -8.652796813 0)
(99.86391604 -7.57735907 -1.292200827e-19)
(99.65205483 -6.368029551 -2.131656079e-19)
(99.28921232 -5.172832491 0)
(98.78731197 -3.956114156 -2.978252783e-20)
(98.55471202 -3.078460196 4.569013087e-20)
(98.17282361 -2.114076724 1.113077875e-20)
(97.99486829 -1.45999158 1.90113818e-20)
(97.8736478 -0.8590479307 -2.158734815e-20)
(97.80830104 -0.2829486352 0)
(102.9536497 -0.2150133698 0)
(102.936175 -0.6510755264 0)
(102.9054234 -1.095997946 0)
(102.8462173 -1.560470588 0)
(102.6676524 -1.954319845 0)
(102.5308152 -2.478499743 0)
(102.3681956 -3.061607555 0)
(102.1411773 -3.654427764 0)
(101.8249175 -4.384039968 1.339406161e-19)
(101.3194246 -5.209588138 -3.34758354e-19)
(100.7641585 -6.095747987 1.800630751e-19)
(97.49321785 -6.655404421 0)
(99.79661474 -7.639522161 -1.287315308e-19)
(99.51580578 -7.665627541 0)
(99.20372065 -7.265474986 -5.757893584e-20)
(98.92335052 -6.560281472 -9.457168407e-20)
(98.63276489 -5.672906377 0)
(98.33152706 -4.74622587 0)
(97.96534386 -3.728673435 0)
(97.82405649 -2.955640929 0)
(97.53994429 -2.045028622 3.8286184e-20)
(97.41152732 -1.426905086 -3.580675612e-20)
(97.32132327 -0.8414361485 -2.427437486e-21)
(97.27150981 -0.2775677809 2.435492531e-21)
(103.3594777 -0.2120294896 0)
(103.3489404 -0.6413586395 0)
(103.3314233 -1.078753081 0)
(103.2924136 -1.526921637 0)
(103.1396829 -1.914067074 0)
(103.0422238 -2.411306855 0)
(102.9273425 -2.94786097 0)
(102.7446553 -3.489932771 0)
(102.4908252 -4.104845609 -5.618639008e-20)
(102.0482745 -4.747852296 4.863066607e-20)
(101.4961035 -5.386898843 2.540535635e-21)
(97.44391755 -5.594935375 -1.091029753e-19)
(100.0998474 -6.389331144 -1.38069132e-20)
(99.41963469 -6.410297245 2.024783454e-21)
(98.76752277 -6.153313044 -1.23773855e-21)
(98.26551414 -5.654321843 8.919290556e-21)
(97.87256096 -4.99755137 0)
(97.56969397 -4.283565602 0)
(97.26436427 -3.440818288 0)
(97.17015349 -2.770645555 0)
(96.95190511 -1.933781413 0)
(96.8585527 -1.361976287 0)
(96.79113634 -0.806016627 0)
(96.75263449 -0.2669909066 0)
(103.7562626 -0.2061245573 0)
(103.7511964 -0.6225321286 0)
(103.7435514 -1.046151487 0)
(103.7194904 -1.472143444 0)
(103.5871663 -1.844931757 0)
(103.5170463 -2.308586458 0)
(103.4311749 -2.794631756 0)
(103.2706325 -3.27989074 0)
(103.0263079 -3.798790564 0)
(102.5849613 -4.304686738 -3.100351361e-22)
(101.9997868 -4.775840065 8.436285217e-21)
(96.83004579 -4.708395979 -1.156227231e-20)
(100.2745314 -5.453795986 6.934512557e-21)
(99.33753496 -5.448853453 -6.322152004e-22)
(98.45424379 -5.251845508 0)
(97.78456909 -4.881292874 0)
(97.29817213 -4.387881244 0)
(96.96181252 -3.827186396 0)
(96.67458272 -3.1290215 0)
(96.59610923 -2.554819525 0)
(96.4155377 -1.798623183 0)
(96.34401498 -1.27721457 0)
(96.29110842 -0.7579880094 0)
(96.26109964 -0.2517314518 0)
(104.1390489 -0.198026144 0)
(104.1379584 -0.5969366752 0)
(104.1368969 -1.002247564 0)
(104.1227027 -1.402637843 0)
(104.0053083 -1.7559948 0)
(103.9516267 -2.183026645 0)
(103.879646 -2.620121816 0)
(103.7234685 -3.048103283 0)
(103.4653579 -3.484359475 0)
(102.9940466 -3.889995449 0)
(102.3559125 -4.250652608 0)
(96.3213465 -4.049577484 0)
(100.3619842 -4.71738166 0)
(99.25067145 -4.684668297 0)
(98.21348609 -4.521994082 0)
(97.4216805 -4.235612145 0)
(96.85238097 -3.85175234 0)
(96.47075971 -3.402775195 0)
(96.1779335 -2.820136159 0)
(96.09572989 -2.329164674 0)
(95.93241504 -1.652919362 0)
(95.87211271 -1.181977829 0)
(95.82701319 -0.7031442772 0)
(95.80211996 -0.2340130211 0)
(104.5043257 -0.1884367565 0)
(104.5057911 -0.5668091219 0)
(104.508287 -0.9508272963 0)
(104.4993961 -1.324176894 0)
(104.3920226 -1.655153619 0)
(104.3456495 -2.045252599 0)
(104.27528 -2.437940281 0)
(104.1119811 -2.81143763 0)
(103.8267966 -3.178861875 0)
(103.3172928 -3.507819772 0)
(102.6109722 -3.78866733 0)
(96.18865249 -3.554896328 0)
(100.3978322 -4.1158946 -5.502501485e-35)
(99.1647511 -4.066846432 0)
(98.01965847 -3.9257306 0)
(97.13624019 -3.694174983 0)
(96.49715647 -3.385927959 0)
(96.06974335 -3.01993685 0)
(95.75684378 -2.529099267 0)
(95.66017993 -2.107353689 0)
(95.50037812 -1.505936802 0)
(95.4433697 -1.083247139 0)
(95.40100675 -0.6456880115 0)
(95.3787557 -0.2153420045 0)
(104.849865 -0.1779789331 0)
(104.8526415 -0.5341300519 0)
(104.8561068 -0.8952089408 0)
(104.8486364 -1.241450909 0)
(104.7473544 -1.548803643 0)
(104.7010614 -1.903612839 0)
(104.6230333 -2.256053929 0)
(104.4454995 -2.580933583 0)
(104.1264913 -2.891956272 0)
(103.5776606 -3.162478724 0)
(102.7845278 -3.382709797 0)
(96.32372073 -3.163260034 0)
(100.4011785 -3.616065818 0)
(99.07996857 -3.557826816 0)
(97.8565643 -3.431475668 0)
(96.90366297 -3.237552188 0)
(96.20704062 -2.983154072 0)
(95.73702815 -2.679053973 0)
(95.39767562 -2.261789367 0)
(95.28055953 -1.897436718 0)
(95.11540486 -1.36391738 0)
(95.05621498 -0.9859343698 0)
(95.01303195 -0.5886223209 0)
(94.99156692 -0.1967229684 0)
(105.1745711 -0.167165178 0)
(105.1776259 -0.5005259791 0)
(105.179999 -0.8381407541 0)
(105.1708194 -1.158098843 0)
(105.0725508 -1.441847805 0)
(105.0209524 -1.76395871 0)
(104.9289242 -2.080056481 0)
(104.7327655 -2.363101869 0)
(104.3774147 -2.628266017 0)
(103.7913588 -2.854083832 0)
(102.8928849 -3.026790845 0)
(96.62625736 -2.842299015 0)
(100.3832984 -3.1960012 -7.207771373e-35)
(98.99662454 -3.132702525 0)
(97.71495317 -3.017309953 0)
(96.70865485 -2.85046413 0)
(95.96487423 -2.635627743 0)
(95.45668497 -2.378540272 0)
(95.0890973 -2.020513263 0)
(94.9486635 -1.703790746 0)
(94.7728001 -1.230755141 0)
(94.70790868 -0.8932551976 0)
(94.66157382 -0.533959518 0)
(94.6395816 -0.1788234138 0)
(105.4782784 -0.1563986279 0)
(105.4807838 -0.4672533958 0)
(105.4805149 -0.7817494144 0)
(105.4672588 -1.076858714 0)
(105.3695555 -1.337845229 0)
(105.3088841 -1.630275618 0)
(105.1986553 -1.913383658 0)
(104.9814425 -2.161575488 0)
(104.589872 -2.389458413 0)
(103.9695326 -2.580752761 0)
(102.949964 -2.715245082 0)
(97.02118644 -2.571944226 0)
(100.3514477 -2.840370816 0)
(98.91505667 -2.774286803 0)
(97.58919664 -2.667523172 0)
(96.5413211 -2.520981419 0)
(95.7588959 -2.33606695 0)
(95.21711961 -2.115416674 0)
(94.82175465 -1.805464092 0)
(94.65727544 -1.528360228 0)
(94.46779574 -1.108600427 0)
(94.39511758 -0.8071589814 0)
(94.34420917 -0.4829596432 0)
(94.32080575 -0.1620650107 0)
(105.7615063 -0.1459862576 0)
(105.7628162 -0.4352431772 0)
(105.7587908 -0.7275941832 0)
(105.7397681 -0.9996938717 0)
(105.6407529 -1.239272249 0)
(105.5684748 -1.505042505 0)
(105.4378927 -1.758773965 0)
(105.1979463 -1.977898367 0)
(104.771936 -2.175588152 0)
(104.1197184 -2.339850363 0)
(102.9679108 -2.443541612 0)
(97.45349923 -2.340337319 0)
(100.310211 -2.537845636 2.444019592e-35)
(98.83551338 -2.47028767 0)
(97.47568198 -2.370612021 0)
(96.39506266 -2.239827214 0)
(95.58089468 -2.078129833 0)
(95.00986033 -1.886243337 0)
(94.58823331 -1.615634376 0)
(94.40022302 -1.371585474 0)
(94.19582185 -0.9984088761 0)
(94.11428016 -0.7286964355 0)
(94.05803196 -0.4363365793 0)
(94.03265693 -0.1466922754 0)
(106.025255 -0.1361538754 0)
(106.0248798 -0.4051609332 0)
(106.0163291 -0.6767689591 0)
(105.9903941 -0.9279394134 0)
(105.8886678 -1.147732487 0)
(105.8031388 -1.389773124 0)
(105.651111 -1.617988314 0)
(105.3878917 -1.812529855 0)
(104.9299858 -1.985811 0)
(104.2473062 -2.128555309 0)
(102.9564728 -2.207344606 0)
(97.88450184 -2.139465726 0)
(100.262704 -2.279791189 0)
(98.75814712 -2.211556307 0)
(97.37194093 -2.117879502 0)
(96.26528975 -1.99966227 0)
(95.42494603 -1.85637066 0)
(94.8285368 -1.687544876 0)
(94.38260694 -1.449399914 0)
(94.17225375 -1.233009326 0)
(93.95263876 -0.9003612387 0)
(93.86183604 -0.6582964422 0)
(93.79993729 -0.3944166805 0)
(93.77226677 -0.1328236987 0)
(106.2708703 -0.1270592406 0)
(106.2684513 -0.3774596261 0)
(106.254874 -0.6300044491 0)
(106.2212954 -0.8624453536 0)
(106.1157928 -1.06422531 0)
(106.0160223 -1.285359432 0)
(105.8421282 -1.491619402 0)
(105.5559326 -1.665319486 0)
(105.068962 -1.818876049 0)
(104.356373 -1.944244477 0)
(102.9230722 -2.002777049 0)
(98.28894621 -1.964147533 0)
(100.2110616 -2.059631162 0)
(98.68302596 -1.991180806 0)
(97.27621369 -1.902667021 0)
(96.14871109 -1.794676553 0)
(95.2866829 -1.66621969 0)
(94.66828872 -1.51610311 0)
(94.20013882 -1.304928906 0)
(93.96894426 -1.111718338 0)
(93.73437851 -0.8141703128 0)
(93.63434926 -0.5959780116 0)
(93.56678567 -0.3572625172 0)
(93.53666017 -0.1204909243 0)
(106.4999471 -0.1188053922 0)
(106.4952289 -0.3524255228 0)
(106.4763248 -0.5877520785 0)
(106.4346751 -0.8036925765 0)
(106.3245959 -0.9892736854 0)
(106.2100454 -1.192160728 0)
(106.01433 -1.379627516 0)
(105.7059787 -1.53570664 0)
(105.1926864 -1.673326518 0)
(104.450146 -1.784513838 0)
(102.8733305 -1.826453088 0)
(98.65243175 -1.810974333 0)
(100.1567438 -1.872134285 0)
(98.61011952 -1.803777077 0)
(97.18715884 -1.719742709 0)
(96.04285023 -1.620186952 0)
(95.16276267 -1.50382544 0)
(94.52528939 -1.369012159 0)
(94.03692939 -1.180343624 0)
(93.78648665 -1.006557702 0)
(93.53753276 -0.7392792983 0)
(93.42856673 -0.5415058832 0)
(93.35550033 -0.3247697672 0)
(93.32286741 -0.1096697901 0)
(106.7141924 -0.1114553055 0)
(106.7070001 -0.3302236857 0)
(106.682615 -0.5502636291 0)
(106.6326829 -0.7519204669 0)
(106.5174156 -0.9230973389 0)
(106.3878587 -1.110228809 0)
(106.1705468 -1.281493726 0)
(105.8413009 -1.422988859 0)
(105.304101 -1.547704177 0)
(104.5311949 -1.647219396 0)
(102.8116896 -1.675493247 0)
(98.96838846 -1.677698569 0)
(100.1007662 -1.71316029 0)
(98.53934153 -1.645124777 0)
(97.10372202 -1.564980948 0)
(95.94579472 -1.472432327 0)
(95.05057547 -1.36599419 0)
(94.39648393 -1.243742615 0)
(93.88975456 -1.073878508 0)
(93.62161552 -0.9163228134 0)
(93.35896045 -0.6750230981 0)
(93.24148009 -0.4945124377 0)
(93.16316562 -0.2967438137 0)
(93.1280395 -0.1003053663 0)
(106.9154648 -0.1050411715 0)
(106.9056744 -0.3109294762 0)
(106.8757478 -0.5176462541 0)
(106.8174718 -0.7071816776 0)
(106.6964677 -0.8657138462 0)
(106.5519034 -1.039384802 0)
(106.3134802 -1.196530068 0)
(105.9645644 -1.326356879 0)
(105.4055189 -1.440614566 0)
(104.6015859 -1.530472661 0)
(102.742063 -1.547632941 0)
(99.23583393 -1.563031455 0)
(100.0438252 -1.579397106 0)
(98.47054775 -1.511846247 0)
(97.02502468 -1.435067623 0)
(95.8559995 -1.348350864 0)
(94.9480026 -1.250064546 0)
(94.27933886 -1.138098035 0)
(93.75589721 -0.9839330812 0)
(93.47148678 -0.839855334 0)
(93.1957792 -0.6206975219 0)
(93.07026231 -0.4545712409 0)
(92.98698699 -0.2729451517 0)
(92.94941343 -0.09232595675 0)
(107.1053711 -0.09958292005 0)
(107.092914 -0.294573919 0)
(107.0574522 -0.489914712 0)
(106.9908764 -0.6695046207 0)
(106.8638062 -0.8169995015 0)
(106.7043889 -0.9792734664 0)
(106.4456083 -1.124437048 0)
(106.0780377 -1.244922477 0)
(105.4988209 -1.350771608 0)
(104.6630274 -1.43266463 0)
(102.6677685 -1.440915248 0)
(99.4575689 -1.465993895 0)
(99.98638371 -1.468176395 -3.905040736e-36)
(98.40356386 -1.401225708 0)
(96.95031867 -1.327340076 0)
(95.77218858 -1.245461725 0)
(94.85329656 -1.153857225 0)
(94.17167553 -1.050346772 0)
(93.63302295 -0.9091783332 0)
(93.33359068 -0.7760823031 0)
(93.04555041 -0.5756799755 0)
(92.91247219 -0.4212492573 0)
(92.82452659 -0.2531340793 0)
(92.78457975 -0.08566084634 0)
(107.2865426 -0.09506810669 0)
(107.2713069 -0.2811235293 0)
(107.2302867 -0.4670137843 0)
(107.1554577 -0.638625714 0)
(107.0214041 -0.7767873921 0)
(106.8473124 -0.929509088 0)
(106.5693097 -1.065365598 0)
(106.1836499 -1.177733834 0)
(105.5855849 -1.277005815 0)
(104.7169802 -1.352379308 0)
(102.5911602 -1.353557911 0)
(99.63868671 -1.385436221 0)
(99.9287863 -1.37734943 0)
(98.33821336 -1.311098279 0)
(96.8789563 -1.239672914 0)
(95.69328604 -1.161763865 0)
(94.76502056 -1.075581803 0)
(94.07191602 -0.979162583 0)
(93.51891273 -0.8485922115 0)
(93.20568733 -0.7241098632 0)
(92.90542998 -0.539243667 0)
(92.76523154 -0.3941402168 0)
(92.67284425 -0.2370590237 0)
(92.63054646 -0.08022626625 0)
(107.4577566 -0.0915553089 0)
(107.4398419 -0.2706697796 0)
(107.3933636 -0.4489453527 0)
(107.3104831 -0.6150953821 0)
(107.1710819 -0.7447709891 0)
(106.9824998 -0.8898077549 0)
(106.6859309 -1.019110575 0)
(106.2833296 -1.124081311 0)
(105.6671935 -1.218317741 0)
(104.7647499 -1.288460179 0)
(102.5139256 -1.284207214 0)
(99.78536748 -1.320649906 0)
(99.87131133 -1.305240547 0)
(98.27430556 -1.239754836 0)
(96.81034153 -1.170374987 0)
(95.6183279 -1.095641293 0)
(94.68188084 -1.013718285 0)
(93.97857582 -0.9226817819 0)
(93.41173864 -0.8008655446 0)
(93.08564166 -0.6828616312 0)
(92.77518208 -0.5113825008 0)
(92.62831247 -0.3728978192 0)
(92.53174897 -0.2245945218 0)
(92.48727207 -0.07600611743 0)
(107.6321371 -0.08885932791 0)
(107.6109888 -0.2629019501 0)
(107.5586867 -0.4354993714 0)
(107.46652 -0.5959729734 0)
(107.3154166 -0.7210010497 0)
(107.1115712 -0.8603057778 0)
(106.7969438 -0.9846569997 0)
(106.3784744 -1.083453291 0)
(105.7448146 -1.173890803 0)
(104.8075382 -1.23994594 0)
(102.4374143 -1.231706136 0)
(99.90379202 -1.271118917 0)
(99.81416413 -1.250612184 0)
(98.21163757 -1.185896675 0)
(96.74392088 -1.118148915 0)
(95.54643664 -1.045850729 0)
(94.60265188 -0.967128823 0)
(93.88971744 -0.8799421176 0)
(93.31017464 -0.7649825339 0)
(92.97177213 -0.6525216733 0)
(92.64608758 -0.4894484326 0)
(92.49199294 -0.3571271811 0)
(92.39114604 -0.2153378533 0)
(92.34410575 -0.07279790241 0)
(107.7676954 -0.08758797142 0)
(107.7446017 -0.2588193067 0)
(107.6878793 -0.4279185785 0)
(107.590474 -0.5886938478 0)
(107.4527256 -0.7047147576 0)
(107.2357375 -0.8403024833 0)
(106.9036777 -0.961555035 0)
(106.4702929 -1.055276158 0)
(105.8194605 -1.142994474 0)
(104.8464476 -1.206010375 0)
(102.3626917 -1.19504736 0)
(99.99969913 -1.236526121 0)
(99.75746551 -1.212571511 0)
(98.14997043 -1.148559512 0)
(96.67915426 -1.082022049 0)
(95.47680017 -1.011462723 0)
(94.52627068 -0.9349914597 0)
(93.80426249 -0.850457518 0)
(93.2127615 -0.7405300229 0)
(92.86282693 -0.6320676981 0)
(92.54344068 -0.4790249318 0)
(92.38510742 -0.3476078263 0)
(92.28106105 -0.210039681 0)
(92.23257488 -0.07109280875 0)
(108.0303907 -0.08600293071 0)
(108.0027516 -0.2553019868 0)
(107.9371283 -0.4218692846 0)
(107.8223781 -0.5759982864 0)
(107.5815277 -0.6972714605 0)
(107.3503999 -0.830299867 0)
(107.0028784 -0.9498235569 0)
(106.5597153 -1.039205602 0)
(105.8919089 -1.124921261 0)
(104.8825711 -1.185887595 0)
(102.2909348 -1.173659519 0)
(100.0777468 -1.217078057 0)
(99.70133288 -1.190538563 0)
(98.08911173 -1.127078548 0)
(96.61557075 -1.0613086 0)