/*--------------------------------*- C++ -*----------------------------------*\
| =========                 |                                                 |
| \\      /  F ield         | OpenFOAM: The Open Source CFD Toolbox           |
|  \\    /   O peration     | Version:  v1912                                 |
|   \\  /    A nd           | Website:  www.openfoam.com                      |
|    \\/     M anipulation  |                                                 |
\*---------------------------------------------------------------------------*/
FoamFile
{
    version     2.0;
    format      ascii;
    class       volScalarField;
    location    "300";
    object      k;
}
// * * * * * * * * * * * * * * * * * * * * * * * * * * * * * * * * * * * * * //

dimensions      [0 2 -2 0 0 0 0];


internalField   nonuniform List<scalar> 
12556
(
36.829
36.8288
36.8288
36.8308
36.9166
36.9183
36.9194
36.922
36.9269
36.9354
36.948
36.9624
36.9728
36.9739
36.9655
36.9524
36.9399
36.9305
36.9242
36.9207
36.8329
36.8298
36.8291
36.8286
36.6491
36.6493
36.6497
36.6536
36.7325
36.7399
36.7468
36.794
36.8079
36.832
36.8673
36.9074
36.9374
36.9426
36.9213
36.8855
36.8494
36.8212
36.7628
36.7484
36.6598
36.6525
36.6506
36.6495
36.4703
36.4707
36.4717
36.4774
36.552
36.5651
36.5804
36.6318
36.6655
36.722
36.8028
36.8883
36.9439
36.9533
36.9152
36.8416
36.7611
36.6961
36.6155
36.5848
36.492
36.4794
36.475
36.4733
36.2934
36.2939
36.2954
36.3036
36.3744
36.3945
36.4217
36.4868
36.5574
36.6753
36.8198
36.9497
37.0314
37.0406
36.9801
36.8709
36.7375
36.6113
36.4936
36.4355
36.3313
36.3105
36.3026
36.2995
36.1181
36.1188
36.1213
36.1323
36.2022
36.2312
36.276
36.3643
36.5015
36.7014
36.9258
37.1437
37.283
37.2813
37.163
36.9826
36.7838
36.5938
36.4083
36.3051
36.1789
36.146
36.1327
36.1276
35.9447
35.9456
35.9496
35.9641
36.0351
36.0765
36.1475
36.2763
36.4996
36.7912
37.1664
37.612
37.9395
37.861
37.5577
37.2221
36.9084
36.6328
36.3686
36.1983
36.0354
35.9859
35.9647
35.9566
35.7736
35.7752
35.7811
35.8
35.8733
35.9306
36.0369
36.2228
36.5335
36.9576
37.5988
38.7284
39.4842
39.3034
38.3211
37.6374
37.1249
36.7228
36.3719
36.1175
35.9018
35.8301
35.7985
35.7864
35.6058
35.6084
35.6169
35.6414
35.7187
35.7956
35.944
36.1936
36.5913
37.1696
38.1606
40.3721
42.005
39.5934
38.243
37.432
36.862
36.4003
36.0611
35.7786
35.6797
35.6351
35.618
35.4423
35.4461
35.4579
35.489
35.5722
35.6715
35.8659
36.1769
36.6591
37.3725
38.6065
41.776
46.1295
41.1214
38.9709
37.8024
37.0377
36.4448
36.0241
35.6663
35.5364
35.4767
35.4537
35.2842
35.2894
35.305
35.3437
35.4342
35.5581
35.7987
36.1652
36.726
37.5447
38.921
42.1117
48.888
42.4648
39.6879
38.1857
37.2278
36.4984
36.0002
35.5656
35.4026
35.3264
35.2967
35.132
35.1391
35.1589
35.2057
35.3048
35.4543
35.7397
36.1567
36.7909
37.7009
39.2027
41.8601
50.2555
43.4718
40.3052
38.538
37.4103
36.5527
35.9838
35.4756
35.2794
35.1864
35.1496
34.9861
34.995
35.0192
35.0748
35.1836
35.3589
35.6864
36.1516
36.8572
37.8608
39.4744
41.334
50.7242
44.1461
40.7808
38.8297
37.5671
36.5995
35.969
35.3941
35.167
35.0577
35.0136
34.8461
34.8574
34.8869
34.9517
35.0692
35.2701
35.637
36.1494
36.9266
38.0344
39.7369
40.6356
42.0369
50.2933
44.544
41.1072
39.045
37.6856
36.6325
35.9494
35.3175
35.0633
34.9392
34.8883
34.7116
34.725
34.7591
34.8325
34.9641
35.1931
35.5995
36.1653
37.0235
38.2572
40.0306
38.8779
48.8035
50.2408
44.7104
41.291
39.181
37.7602
36.6473
35.9191
35.2422
34.9653
34.8285
34.7715
34.5811
34.5965
34.6351
34.7164
34.8587
35.1096
35.5483
36.1561
37.0872
38.4209
40.1713
32.9334
49.7173
49.6851
44.6288
41.3397
39.2391
37.791
36.6381
35.8734
35.1637
34.8694
34.7219
34.6599
34.4534
34.4707
34.5134
34.6018
34.7543
35.024
35.4894
36.1324
37.1247
38.5334
39.9662
28.4948
48.1482
48.7564
44.365
41.2853
39.2267
37.7741
36.5943
35.8102
35.0788
34.7725
34.6161
34.5502
34.3273
34.3462
34.3926
34.4871
34.6487
34.9342
35.4204
36.0899
37.1222
38.5401
39.4414
24.8529
46.5919
47.7826
43.9432
41.1116
39.1425
37.7047
36.5175
35.7271
34.9855
34.6715
34.5084
34.4394
34.2016
34.2219
34.2714
34.371
34.5407
34.8387
35.3404
36.0278
37.0799
38.4407
38.705
22.1365
45.1416
46.8637
43.4815
40.8621
38.9873
37.5865
36.4117
35.6248
34.8814
34.5639
34.3971
34.3256
34.0755
34.097
34.1491
34.2529
34.4293
34.737
35.2495
35.9478
37.0037
38.2648
37.8289
20.1471
43.8021
46.0079
43.0239
40.5836
38.795
37.4372
36.2848
35.5075
34.768
34.4498
34.2804
34.2076
33.9486
33.971
34.0253
34.1325
34.3143
34.6295
35.1492
35.8528
36.8999
38.0333
36.8847
18.6848
42.5638
45.2063
42.5852
40.2981
38.585
37.2693
36.1426
35.378
34.6464
34.3293
34.1585
34.0849
33.8206
33.8437
33.8997
34.0096
34.1958
34.5166
35.0409
35.7456
36.7739
37.76
35.9277
17.5974
41.4147
44.4518
42.1681
40.0156
38.3679
37.091
35.9898
35.2393
34.5179
34.2029
34.0316
33.9575
33.6915
33.7152
33.7726
33.8846
34.0742
34.3992
34.9261
35.6289
36.6299
37.4535
34.986
16.7772
40.3442
43.739
41.7692
39.7406
38.1499
36.9074
35.83
35.0939
34.3839
34.0717
33.9003
33.826
33.5613
33.5855
33.644
33.7578
33.9501
34.2782
34.8063
35.5046
36.4709
37.1195
34.0769
16.1495
39.3432
43.0624
41.3842
39.4743
37.9342
36.722
35.666
34.944
34.2457
33.9365
33.7653
33.6909
33.4303
33.4549
33.5144
33.6298
33.824
34.1544
34.6827
35.3743
36.2992
36.7649
33.2111
15.6624
38.4038
42.4174
41.0103
39.2161
37.7224
36.537
35.5001
34.7912
34.1044
33.7983
33.6274
33.5529
33.2987
33.3237
33.384
33.5008
33.6966
34.0288
34.5564
35.2392
36.1162
36.3971
32.3946
15.2795
37.5198
41.8002
40.6462
38.9646
37.5153
36.3537
35.3336
34.6369
33.9611
33.6579
33.4873
33.4128
33.1668
33.1921
33.2531
33.3713
33.5684
33.9019
34.4282
35.1003
35.9226
36.022
31.6292
14.9756
36.6856
41.2074
40.2907
38.7185
37.3127
36.173
35.1677
34.482
33.8165
33.5159
33.3457
33.271
33.0348
33.0603
33.1221
33.2415
33.4397
33.7744
34.2988
34.958
35.7196
35.6435
30.9144
14.7323
35.8969
40.6364
39.9431
38.477
37.1144
35.9953
35.003
34.3272
33.6712
33.373
33.2031
33.1282
32.9029
32.9288
32.9912
33.1119
33.311
33.6465
34.1686
34.8125
35.5089
35.2642
30.2482
14.5368
35.1497
40.0851
39.6026
38.2394
36.92
35.8204
34.8399
34.1731
33.5258
33.2297
33.0599
32.9849
32.7713
32.7975
32.8606
32.9825
33.1824
33.5187
34.0377
34.6641
35.292
34.8863
29.6276
14.3797
34.441
39.5518
39.2683
38.0053
36.7289
35.6485
34.6788
34.0199
33.3805
33.0862
32.9165
32.8413
32.6402
32.6667
32.7305
32.8537
33.0543
33.3912
33.9062
34.5128
35.0703
34.5111
29.0491
14.2543
33.7682
39.0352
38.9398
37.7741
36.5407
35.4793
34.5197
33.868
33.2356
32.943
32.7733
32.6977
32.5098
32.5366
32.6011
32.7255
32.9268
33.264
33.7743
34.3588
34.845
34.1398
28.5091
14.1555
33.1288
38.534
38.6166
37.5456
36.3551
35.3127
34.3627
33.7174
33.0915
32.8002
32.6305
32.5546
32.3801
32.4072
32.4724
32.5981
32.8
33.1374
33.642
34.2023
34.617
33.7732
28.0039
14.0798
32.521
38.0474
38.2982
37.3193
36.1718
35.1484
34.2079
33.5684
32.9482
32.6581
32.4882
32.4119
32.2512
32.2787
32.3446
32.4716
32.6741
33.0114
33.5092
34.0436
34.387
33.4117
27.53
14.0242
31.9432
37.5748
37.9842
37.095
35.9903
34.9862
34.0551
33.4209
32.8059
32.5169
32.3467
32.27
32.1232
32.151
32.2177
32.3461
32.5491
32.8862
33.376
33.8829
34.1556
33.0557
27.084
13.9868
31.3938
37.1154
37.6746
36.8724
35.8106
34.826
33.9044
33.2751
32.6647
32.3764
32.2059
32.1288
31.9971
32.0252
32.0928
32.2223
32.4251
32.7617
33.2424
33.7205
33.9233
32.7055
26.6629
13.966
30.8717
36.669
37.3691
36.6514
35.6322
34.6676
33.7556
33.1309
32.5255
32.2381
32.0672
31.9897
31.8779
31.9063
31.9747
32.1053
32.3034
32.6388
33.1093
33.5565
33.6905
32.361
26.2638
13.9604
30.3756
36.2351
37.0677
36.432
35.4551
34.511
33.61
32.9896
32.395
32.1082
31.9369
31.8589
41.6649
46.488
42.3704
42.1183
49.7631
47.0067
41.9108
51.2069
50.0278
41.4114
51.7084
51.3049
40.6885
40.2555
41.6658
51.7555
51.7318
39.3588
44.821
40.4456
48.4747
51.9662
51.6989
40.1131
39.4109
41.8437
39.2607
50.7063
44.1237
45.6675
41.5207
40.106
38.848
41.4983
41.0278
53.7663
55.2853
48.6267
43.2021
41.9789
39.1334
41.4937
41.5185
42.0618
43.3233
44.2892
51.7014
51.9222
50.1435
44.4226
43.5511
39.4073
41.2518
41.4722
41.6863
39.9437
41.7814
52.0598
51.543
39.6728
40.8567
41.2114
41.0794
35.5807
37.7433
40.5873
53.195
52.7316
39.9701
40.1
40.7923
40.234
32.0998
33.2701
35.8862
45.4279
45.2704
45.5229
46.6582
42.4639
45.2412
55.2522
51.1581
44.7717
49.8548
54.2672
44.4113
45.1737
42.0921
45.6614
44.4438
46.6124
45.8079
52.0069
53.614
48.4229
54.1232
53.0313
54.3902
54.2099
48.2435
41.9655
43.164
42.0328
42.8212
41.145
44.3605
42.9332
51.4849
51.7309
50.8268
53.0472
53.028
52.978
53.0612
50.6629
37.8629
39.8284
41.6223
38.9703
36.6939
41.0292
39.0943
52.6601
52.141
33.3668
35.4486
41.0346
42.3942
34.2057
32.6625
36.5766
34.3304
43.2962
53.3696
53.2546
40.192
41.1044
32.048
40.1742
42.5453
32.7066
62.331
32.5907
32.6509
42.1768
38.5122
40.9281
39.8277
41.0566
44.377
42.0808
58.6742
48.7375
42.0483
45.2703
45.726
45.8611
50.7045
45.2177
44.6573
48.5929
45.3117
44.991
44.8186
53.7219
53.4806
45.6958
44.6108
41.2397
50.7982
44.3253
50.7829
43.5968
49.1491
44.1671
44.7231
42.6878
51.5883
53.1911
53.3256
53.0357
53.1667
51.5306
39.2733
47.4847
40.7787
40.8015
40.4813
42.0935
43.3644
41.0669
40.8808
59.5918
48.0311
58.1899
47.1455
56.8889
47.0463
54.9135
55.0073
51.6558
51.6737
42.0306
44.9108
51.8339
42.7345
42.7217
46.1836
42.9149
51.7648
36.7692
40.51
40.1431
46.6944
45.6525
46.9992
32.5887
38.2115
37.6905
38.878
38.386
32.6741
54.1194
51.2456
46.2006
51.4054
52.8369
48.2349
51.1158
46.3878
43.7795
48.589
43.6523
52.6211
49.3786
44.1956
51.743
54.1496
54.0534
53.795
45.1288
42.4422
45.0394
46.3348
45.1884
47.8261
42.7149
44.8469
46.2146
52.7306
52.8451
53.5731
52.3226
51.8454
52.7827
52.4552
53.4958
54.73
50.7353
49.8425
51.6585
50.9932
54.7183
42.0484
41.938
43.7452
43.6543
51.941
46.4047
51.9164
38.065
37.8912
40.0887
39.9611
42.8464
44.4289
52.3713
42.4791
41.9166
34.5572
39.4824
39.0342
40.017
39.6224
34.6792
39.3588
33.5553
33.4601
35.7517
35.6305
49.3601
39.7111
48.0571
47.0406
37.5204
36.6471
33.47
36.3986
39.2265
42.4321
32.1865
55.5204
43.2511
53.3074
32.1589
41.11
46.1908
40.2961
55.7754
40.5466
41.5989
40.1615
39.0579
39.9662
37.9544
32.2635
40.8551
50.0668
51.3063
51.8607
52.3278
42.139
44.4405
49.3264
48.3845
39.8626
53.8224
53.7772
45.2051
42.4054
41.8779
43.8126
46.7181
42.4303
42.5273
54.2797
56.7844
56.1304
55.2583
51.6172
46.6658
46.7438
49.428
48.769
51.7395
40.801
42.0905
41.8334
42.4116
42.1734
40.9521
40.9613
40.627
36.8948
32.2914
35.0208
34.6601
57.2639
43.3592
45.0147
54.9342
57.4859
56.9902
52.1269
47.9093
46.5049
49.5002
48.3407
52.5012
52.2926
50.4091
49.7051
53.2385
42.4962
42.7013
42.4872
38.1801
38.5865
41.4881
46.729
46.5745
51.809
53.0219
53.2804
53.2484
52.7713
53.0719
52.8697
53.2278
53.122
52.7563
38.8607
41.3713
41.0676
41.7448
41.4681
39.0008
38.5998
34.8865
35.1556
33.9193
33.9982
37.0878
40.6442
37.479
38.0423
35.253
35.5668
39.4664
52.4441
44.6828
46.8869
51.3205
40.5012
33.9087
32.9329
36.2251
33.7441
33.8855
33.4435
34.9425
47.3341
38.6813
35.834
34.8372
34.5436
34.1805
31.9504
39.8572
38.4725
43.6067
32.8425
65.3894
40.2426
39.0651
44.7328
32.3897
32.5169
55.672
54.8929
54.306
46.5531
46.5183
40.2003
40.3526
49.0601
49.474
49.0509
46.7415
55.3985
47.2029
56.6987
47.76
44.2207
42.0851
43.4039
45.6169
47.4213
47.0966
43.2702
39.5804
47.8924
51.753
43.1656
46.6068
53.5113
40.1752
42.2363
38.8387
39.7133
51.7479
60.1042
54.7556
52.1656
57.2098
55.4449
51.2054
48.1998
53.6631
54.8767
54.5118
54.4698
55.2151
55.8901
55.1197
47.4615
46.7783
51.6176
47.8353
48.292
46.5168
47.6209
48.355
51.7125
48.5324
47.7241
42.7052
43.0785
42.4592
47.8668
47.2228
44.3798
46.3334
45.8721
46.967
46.4909
43.9022
43.4243
40.7061
40.2689
35.5912
35.1367
32.3466
32.9192
36.0943
35.7239
53.034
52.5885
52.2296
48.8826
49.0821
48.1305
48.7444
52.4803
49.7061
48.8767
48.5588
49.0761
48.941
50.1519
51.7175
47.0346
47.8905
53.9201
54.0891
57.5239
57.3383
54.7359
58.2138
58.5545
58.2913
58.0934
57.6508
58.6673
58.2862
52.8084
57.0727
57.5996
41.4157
45.1159
44.1927
45.874
45.3389
41.6689
43.2085
42.7144
43.9407
43.3776
46.2571
47.822
47.3504
48.4207
47.9756
46.6365
43.5922
46.5394
46.0415
47.1901
46.7037
43.8916
51.3377
50.6455
52.3968
53.1458
52.2842
51.5482
38.18
37.7679
38.8238
38.3247
37.106
36.737
37.6333
37.2344
41.9103
41.4238
42.5542
42.072
40.4235
39.0766
41.2601
40.7053
45.3308
45.2626
45.7576
45.4368
46.7991
45.4185
46.2104
45.2679
45.2663
34.5202
34.7998
38.4754
34.3221
34.0922
34.5927
34.3937
34.0275
37.2614
34.0272
34.4002
36.1943
37.1187
40.496
35.882
35.3058
36.6156
36.168
34.9049
34.6664
35.2265
34.9863
39.59
35.6782
36.0445
47.3949
42.0204
47.2461
45.3521
47.1114
41.9368
51.859
40.0739
51.4925
49.0017
33.8204
33.0528
33.5429
33.6919
36.107
35.1746
33.4269
33.5023
49.0332
31.9702
34.0354
33.1987
60.5364
62.7265
32.9494
61.2301
54.8921
40.594
32.3257
55.7928
46.4357
61.6216
47.8124
32.5213
41.527
39.6604
38.5369
48.9552
48.5605
50.76
45.6808
45.3621
48.355
39.7536
42.3751
40.3151
53.3468
53.5655
51.7703
44.0843
43.367
46.7794
53.8745
44.214
44.2947
40.5414
40.9622
43.0062
49.3876
53.5284
55.4119
43.7671
43.1651
43.012
43.3303
43.2104
43.9036
41.9765
41.0733
42.5066
47.1715
48.0426
52.9362
36.5725
36.2145
33.0064
55.9132
56.7795
52.4171
42.9552
42.7686
42.6678
42.4883
39.8544
40.3572
40.6008
41.5722
43.2651
33.8057
37.084
36.694
46.2923
45.1432
41.6554
32.8803
32.8365
32.7419
44.3861
49.3016
47.7644
39.532
42.9659
42.2552
32.7424
32.5242
32.9616
32.9296
32.6051
58.0191
46.4037
43.2004
44.154
49.2095
40.6339
40.5784
45.6646
50.3371
46.0075
44.4798
46.8623
43.7937
41.6061
40.7638
53.2586
53.4779
54.094
50.7862
52.6672
41.9393
42.3089
45.5782
58.745
56.9133
56.0953
60.5084
59.8418
42.1978
44.0383
43.4192
46.3688
46.2414
44.1122
48.5223
48.0472
42.466
45.8076
43.5666
43.7703
45.5323
41.6373
42.3459
53.8299
54.647
51.6894
51.6871
51.0036
50.8376
48.6337
49.1036
48.8086
50.66
50.4713
50.8138
45.7927
46.744
51.3666
52.8484
55.9602
54.6141
55.1564
55.5572
54.17
40.8777
41.7919
41.5576
44.3835
44.1399
42.1765
39.8658
39.6587
41.3038
41.0441
45.5438
46.9482
46.6813
48.5369
48.2729
47.423
42.9969
44.8774
44.6287
46.416
46.1531
44.5159
39.2844
39.7088
42.3796
41.6006
38.7245
39.1442
42.457
42.901
44.0153
38.3455
38.1758
39.4635
39.2684
37.2447
38.0108
37.851
43.3664
41.8029
42.3065
46.7711
46.8634
44.0631
44.4176
46.5428
46.9007
47.0619
51.8308
46.5876
46.8819
37.5917
37.2178
34.0245
35.0077
38.0314
37.7053
32.7993
32.8629
33.6456
33.3521
32.6829
32.7378
49.6284
32.5135
32.1482
32.3861
101.173
34.2184
40.1163
53.275
50.216
32.929
32.9321
32.2243
56.3067
57.5876
57.439
51.0914
32.1584
32.9234
32.9235
42.9978
38.7266
38.7663
48.3569
49.0367
44.8382
43.9819
41.1685
54.8095
55.2183
56.7863
42.7996
47.363
46.0344
47.8033
47.7762
43.5528
43.4851
44.0479
51.8886
53.602
53.825
53.1077
53.3676
56.5734
56.038
56.2204
55.6626
55.852
56.3418
49.2413
48.8128
49.0138
48.5574
48.6506
49.0266
57.3206
56.6686
56.7177
56.3963
56.5533
57.1707
50.1298
49.6915
49.9314
49.2328
49.459
49.9395
52.6314
52.8509
52.1863
52.3843
34.9725
36.2673
36.1596
33.9465
34.2881
34.1919
34.5111
34.3926
33.9729
50.583
50.6015
48.3147
49.9873
33.2539
33.265
33.2411
33.2464
33.3884
32.8287
32.8093
32.8162
33.7956
33.9264
33.8412
34.1014
34.0132
33.8439
33.2419
33.2374
33.2259
33.2719
33.668
49.975
49.8059
45.6678
50.4401
33.0627
32.3014
42.1804
31.9689
32.3226
32.2542
32.7729
65.626
65.0641
63.6089
64.3902
60.726
32.9522
32.9677
32.4574
32.5586
57.4795
58.6116
57.2975
56.4641
55.4013
52.81
57.873
56.528
46.6055
46.6101
49.204
45.257
46.7315
49.8989
48.4571
54.0225
49.5371
51.382
56.3568
56.9688
53.1071
55.6103
57.953
46.9069
47.7473
47.3619
49.5304
52.6435
52.8656
51.2324
44.2378
50.2589
48.2507
52.8936
52.2484
45.4187
47.3525
48.8606
54.0104
50.0568
44.8456
46.0012
58.7244
57.6044
59.2483
56.5504
58.1763
59.0914
59.4947
59.1216
54.6247
54.3991
54.6218
54.0243
54.1814
54.4431
55.6329
55.26
55.4652
54.8381
55.051
55.384
47.2065
48.4272
48.5177
48.0035
48.1741
46.8663
47.7101
47.5886
47.3186
48.5816
48.8668
48.2128
48.5945
48.5501
48.593
48.6239
47.9772
45.9006
44.8981
42.4151
46.698
46.8643
46.7282
43.5404
46.3755
46.347
43.3542
43.4409
45.0293
53.4576
52.1349
49.7977
49.4334
48.9825
50.4996
50.2724
50.0581
56.2163
56.1417
53.563
57.3874
57.6769
54.1586
55.9148
56.154
57.4282
56.6154
56.5699
56.6807
56.6467
57.3568
58.3304
58.4142
58.002
59.5768
59.5824
59.2957
59.4749
57.884
58.7446
59.5913
59.8813
58.7799
43.2646
42.7081
41.172
41.9217
43.8934
43.6217
40.3107
40.0836
40.7915
40.547
47.4774
47.2128
45.8956
47.0262
48.0089
47.7435
45.3853
45.1305
43.2909
44.1963
45.8938
45.6389
51.1127
50.6787
50.9379
50.1744
50.4231
50.8427
52.0343
51.706
51.9217
51.2017
51.4625
51.8102
38.0398
36.8485
36.9811
36.5869
36.7177
37.9032
38.6378
37.4105
37.5633
37.118
37.2608
38.4759
36.9805
35.8463
35.9584
35.6302
35.7376
36.8578
37.4993
36.3255
36.4558
36.0754
36.198
37.3657
38.7005
38.5204
41.7484
40.2876
40.4599
39.9469
40.1166
41.5863
39.0745
38.8851
37.406
37.2903
39.9954
38.5438
38.975
37.7144
37.8645
39.4631
41.0928
39.6089
39.7781
39.2404
39.4352
40.9143
37.6967
37.5478
46.0481
46.5025
46.6129
44.8361
45.3828
45.6483
47.3134
47.1925
47.5245
47.4437
45.9197
45.2399
45.9555
45.4865
46.9425
46.5493
45.2175
34.6186
35.818
35.6728
36.0515
35.9395
34.7106
34.2448
34.1664
34.5233
34.4601
34.0092
34.1831
34.0765
34.8875
34.6631
35.4766
35.1894
34.2371
35.4821
35.2532
35.1696
35.3878
36.4904
35.4187
35.5235
35.226
35.3186
36.3518
34.8236
34.7438
35.1472
35.0672
47.1619
42.8609
43.456
41.8921
42.3377
46.629
46.2971
46.8222
44.1632
45.1511
47.0227
51.5702
45.5036
46.7317
43.3099
44.3901
50.9115
33.2361
33.2045
33.2674
33.2588
32.6486
32.6434
33.22
33.1087
33.1324
33.1699
33.1364
33.5895
33.601
33.5269
33.7583
33.6782
33.64
33.4489
33.3331
33.2763
33.4571
33.3923
33.4696
49.665
32.1868
32.1124
32.0816
58.939
76.6541
77.8979
70.8311
72.9703
60.7585
33.2619
58.881
50.9374
52.5354
32.2702
32.9292
32.9364
56.2098
58.7414
59.1696
54.2421
56.4978
61.5444
59.1095
49.3797
56.8092
54.6402
33.2471
32.9842
32.2369
36.671
36.6902
36.8025
36.6985
36.7314
36.8231
36.7449
36.7937
36.855
36.8117
36.8678
36.8949
36.8851
36.9271
36.93
36.9361
36.947
36.944
36.945
36.9226
36.9304
36.9103
36.8633
36.8975
36.8461
36.7945
36.8602
36.7786
36.7365
36.8292
36.5211
36.5623
36.6553
36.5802
36.6504
36.7056
36.6793
36.7763
36.7811
36.8086
36.8989
36.8687
36.9252
36.986
36.9341
36.9988
37.0124
36.9556
37.0086
36.9738
36.9286
36.9554
36.8845
36.8617
36.857
36.7671
36.7801
36.7363
36.6514
36.7106
36.3922
36.4743
36.536
36.5103
36.6418
36.6413
36.6891
36.838
36.784
36.8886
37.034
36.9204
37.0772
37.1766
37.0173
37.1964
37.2098
37.0454
37.1996
37.1336
37.0008
37.1022
36.9886
36.9013
36.9453
36.8104
36.7723
36.7655
36.6345
36.6398
36.2949
36.4371
36.4594
36.4959
36.6892
36.6489
36.7612
37.0029
36.8684
37.0907
37.3659
37.0932
37.4555
37.67
37.2603
37.7092
37.7034
37.295
37.6655
37.4984
37.2001
37.4322
37.2193
37.032
37.1475
36.9367
36.8333
36.8691
36.6781
36.6404
36.2333
36.4436
36.4359
36.5223
36.8003
36.7112
36.9099
37.3086
37.0642
37.4715
38.0921
37.4986
38.349
39.109
37.8897
39.1849
38.9964
37.9155
38.8175
38.2537
37.6412
38.085
37.6444
37.305
37.5149
37.1666
36.9838
37.062
36.7798
36.6978
36.1993
36.4712
36.4489
36.5753
36.9579
36.8366
37.1153
37.7365
37.4081
38.0216
39.6089
38.3751
39.1311
39.836
38.8856
40.6377
40.6113
39.5194
39.9555
39.516
39.037
39.2338
38.3085
37.7882
38.0755
37.5059
37.2414
37.3474
36.9398
36.8146
36.1804
36.5114
36.4804
36.642
37.1244
37.0004
37.3248
38.1315
37.8453
38.2901
38.7184
38.5531
40.6194
41.2848
40.9657
43.6159
42.0065
40.9598
40.7429
39.1545
38.5085
38.7849
37.932
37.6063
37.7066
37.1469
36.9882
36.1679
36.5551
36.5223
36.7095
37.273
37.1635
37.504
38.421
38.2122
38.6925
39.2036
39.1037
41.8798
42.8052
42.6897
47.3347
44.6906
43.7571
42.1592
40.0133
39.3749
39.5159
38.385
38.0453
38.0915
37.3755
37.2032
36.1586
36.5991
36.566
36.7747
37.4069
37.3073
37.6622
38.666
38.4838
38.9926
39.557
39.4729
42.1009
42.8886
42.9682
49.5414
46.4883
45.9397
43.2529
40.7551
40.2124
40.163
38.807
38.4949
38.4548
37.5989
37.4326
36.1526
36.6452
36.6104
36.8404
37.5396
37.4397
37.8197
38.9142
38.7268
39.2714
39.8522
39.7855
41.8056
42.1288
42.3084
50.515
47.3998
47.1358
44.0059
41.3287
40.9156
40.6758
39.1605
38.9029
38.7636
37.7955
37.6511
36.1499
36.6946
36.6572
36.909
37.6805
37.5739
37.9897
39.1786
38.979
39.5442
40.1909
40.0296
41.2532
40.9534
41.2077
50.7606
48.4438
48.3401
44.4668
41.7246
41.4443
41.0396
39.4259
39.2355
38.9988
37.9499
37.8384
36.1653
36.7689
36.7075
37.0048
37.8637
37.7173
38.2106
39.4987
39.2466
39.8024
40.409
40.342
40.4682
39.2344
39.6153
43.2288
50.5501
49.6214
50.3123
45.8718
45.7523
44.6885
41.9544
41.797
41.2578
39.5984
39.4775
39.1544
38.0542
37.9807
36.1596
36.8167
36.783
37.0729
38.0062
37.9021
38.3838
39.725
39.5639
40.0872
40.4845
40.5266
38.6727
35.3522
36.2829
49.2043
53.3963
53.7826
49.8744
45.7832
45.8825
44.6643
42.0259
41.9883
41.3402
39.6815
39.6277
39.233
38.1078
38.0721
36.14
36.8426
36.8257
37.1189
38.1152
38.0372
38.5117
39.7841
39.7612
40.0539
36.0065
38.3738
29.5544
42.6512
43.0713
48.5479
50.1466
51.0386
49.001
45.4668
45.7281
44.4529
41.9717
42.0212
41.307
39.6802
39.6874
39.2349
38.1059
38.1116
36.1025
36.8373
36.8444
37.1268
38.1578
38.135
38.5498
39.5704
39.7543
39.5955
32.7991
35.1863
25.671
41.6532
42.4283
46.972
48.9475
49.8422
48.0224
44.9626
45.3505
44.0553
41.7875
41.9402
41.1649
39.6068
39.6705
39.1719
38.0523
38.0985
36.0452
36.7989
36.8308
37.094
38.1133
38.1542
38.4738
39.1653
39.4839
38.905
29.916
32.0423
22.7385
40.5284
41.376
45.4934
47.8257
48.6591
47.0873
44.4172
44.8271
43.5976
41.511
41.7239
40.9285
39.4497
39.5737
39.0307
37.9388
38.0286
35.9694
36.7309
36.7845
37.0256
38.0005
38.0908
38.3148
38.6326
39.0426
38.0573
27.4392
29.2585
20.5878
39.4101
40.2457
44.127
46.787
47.5586
46.2165
43.8832
44.2817
43.1369
41.2024
41.4355
40.6545
39.2482
39.4023
38.8454
37.7875
37.9038
35.8778
36.6387
36.71
36.9282
37.8362
37.9638
38.0957
38.0076
38.4838
37.1235
25.3511
26.8823
19.01
38.3401
39.1372
42.8646
45.8232
46.5394
45.4021
43.376
43.7537
42.6929
40.8879
41.1238
40.3695
39.0264
39.194
38.6385
37.6143
37.7458
35.7735
36.5268
36.6124
36.8073
37.6326
37.7887
37.8318
37.3251
37.841
36.1665
23.6017
24.884
17.8404
37.3291
38.0816
41.6942
44.9254
45.5929
44.6364
42.8961
43.2537
42.2705
40.5787
40.8099
40.0857
38.7973
38.9695
38.4225
37.4293
37.5689
35.6589
36.3991
36.4963
36.6675
37.3981
37.5766
37.533
36.6192
37.1498
35.219
22.1363
23.2106
16.9615
36.3769
37.0855
40.605
44.0845
44.7102
43.9136
42.4376
42.7797
41.8675
40.2793
40.5029
39.8086
38.5676
38.7398
38.2043
37.2388
37.382
35.5364
36.2584
36.3651
36.512
37.1385
37.3355
37.2053
35.9103
36.4417
34.3004
20.906
21.8083
16.2913
35.4798
36.1476
39.5873
43.2925
43.8823
43.2284
41.996
42.3258
41.4794
39.9905
40.2061
39.5401
38.3411
38.5106
37.9878
37.0466
37.1908
35.4074
36.1068
36.2215
36.3434
36.8574
37.0702
36.8551
35.2102
35.7341
33.4231
19.8695
20.63
15.7729
34.6333
35.2635
38.6332
42.5426
43.1014
42.576
41.5686
41.8879
41.1029
39.7111
39.9199
39.28
38.1193
38.2852
37.775
36.8551
36.9986
35.2735
35.9458
36.0675
36.163
36.5588
36.7842
36.49
34.527
35.0376
32.594
18.9928
19.6362
15.3668
33.8332
34.429
37.7359
41.8292
42.361
41.9522
41.154
41.4639
40.7364
39.4389
39.6424
39.0269
37.9029
38.0647
37.5667
36.6659
36.8076
35.1354
35.7762
35.9043
35.972
36.2477
36.482
36.1163
33.8661
34.3595
31.8157
18.2487
18.795
15.045
33.0757
33.6398
36.8896
41.1482
41.6561
41.3535
40.7508
41.0522
40.3789
39.1727
39.3719
38.7796
37.6915
37.8496
37.363
36.4798
36.6191
34.9939
35.5985
35.7325
35.7712
35.9286
36.1686
35.7383
33.2309
33.7049
31.0884
17.6153
18.0805
14.7879
32.358
32.8926
36.0899
40.4959
40.9825
40.7773
40.3579
40.6517
40.0294
38.9115
39.107
38.537
37.4846
37.6394
37.1637
36.2969
36.4338
34.8492
35.4137
35.553
35.5623
35.6048
35.8481
35.3591
32.623
33.0764
30.4103
17.0749
17.4718
14.5814
31.6772
32.1843
35.3327
39.8696
40.337
40.2212
39.9741
40.2612
39.6871
38.6546
38.8469
38.2985
37.2817
37.4336
36.9683
36.1174
36.2518
34.7015
35.2226
35.3665
35.3468
35.2784
35.5234
34.9806
32.0429
32.4754
29.7787
16.613
16.9522
14.4154
31.0313
31.5124
34.6147
39.267
39.7168
39.6836
39.5987
39.8796
39.3514
38.4016
38.5911
38.0636
37.0823
37.2316
36.7764
35.941
36.073
34.5509
35.0263
35.174
35.1262
34.9513
35.1967
34.6047
31.4903
31.9022
29.19
16.2181
16.5081
14.2826
30.4182
30.8748
33.9331
38.6863
39.1198
39.1629
39.2309
39.5061
39.0215
38.1519
38.3389
37.8317
36.8859
37.033
36.5876
35.7676
35.8974
34.3975
34.8258
34.9766
34.9017
34.6247
34.8696
34.2323
30.9641
31.3563
28.6407
15.8806
16.1283
14.1775
29.8365
30.2698
33.2855
38.1259
38.5443
38.6579
38.8699
39.14
38.697
37.9052
38.09
37.6025
36.6921
36.8373
36.4014
35.5968
35.7247
34.2417
34.622
34.7752
34.6742
34.2995
34.5433
33.8644
30.4632
30.8366
28.1272
15.5925
15.8038
14.0963
29.2846
29.6956
32.67
37.5847
37.9889
38.1678
38.5154
38.7807
38.3774
37.6611
37.844
37.3757
36.5005
36.6441
36.2175
35.4285
35.5545
34.0835
34.4155
34.5707
34.4447
33.9764
34.2185
33.5016
29.9858
30.3417
27.6457
15.3473
15.5271
14.0359
28.7612
29.151
32.0848
37.0617
37.4523
37.6917
38.1671
38.4278
38.0624
37.4194
37.6005
37.1509
36.3109
36.453
36.0356
35.2623
35.3868
33.9233
34.207
34.3636
34.2136
33.6559
33.896
33.1443
29.5305
29.87
27.1931
15.1395
15.2917
13.9941
28.2653
28.6345
31.5284
36.5561
36.9337
37.2291
37.8244
38.0809
37.7517
37.1797
37.3593
36.928
36.1229
36.2638
35.8554
35.0982
35.2212
33.7613
33.9968
34.1546
33.9815
33.3385
33.5763
32.7926
29.0953
29.4199
26.766
14.9644
15.0924
13.9692
27.7959
28.1453
30.9995
36.0672
36.4323
36.7794
37.4874
37.7397
37.4452
36.942
37.1202
36.7066
35.9363
36.0762
35.6767
34.9357
35.0574
33.5977
33.7854
33.9441
33.7487
33.0244
33.2597
32.4466
28.6787
28.9895
26.3617
14.818
14.9249
13.9599
27.3519
27.6823
30.4971
35.5944
35.9475
36.3424
37.1557
37.404
37.1427
36.706
36.8829
36.4867
35.751
35.8899
35.4993
34.7749
34.8954
33.4428
33.5849
33.7325
33.5279
32.7261
32.9465
32.1182
28.2864
28.5774
25.9826
14.6971
14.7851
13.965
26.9375
27.2447
30.0271
35.1496
35.4787
35.9307
36.8432
37.0737
36.8579
36.4847
36.6474
36.2809
35.5784
35.7049
35.3345
34.6263
34.735
42.5635
42.4223
41.5413
45.9398
47.3607
48.4525
42.6771
43.3537
42.9601
42.9905
43.0385
42.1214
49.469
51.4568
51.8306
48.7817
49.6585
47.496
42.365
42.5245
41.9568
51.0968
52.6003
52.6506
51.9358
52.1993
50.2649
41.2885
41.519
41.4851
51.6763
52.6058
52.6259
52.3858
52.4435
51.3898
39.7361
40.0802
40.8439
40.0944
39.1618
39.2244
44.318
43.9138
41.3222
51.7729
53.608
53.7189
52.6411
52.6557
51.7505
36.5379
37.1763
39.622
43.9436
38.4938
38.7567
39.8292
38.9723
40.2245
51.5566
51.3398
46.5568
51.5449
53.8067
53.7156
53.7494
53.805
51.5739
41.7533
40.2129
39.352
52.1054
49.5956
55.2859
39.1193
40.075
40.5465
53.0531
52.9426
41.3668
41.5937
42.0983
39.4361
40.5134
40.185
50.2454
51.2241
51.8431
44.7855
45.9498
45.0699
43.4237
42.3638
44.1531
41.0491
41.8266
42.3972
40.6847
41.2494
40.5731
39.3861
39.2968
38.7724
41.3713
39.8077
39.9698
39.5749
39.7525
41.2958
53.928
53.3866
53.1404
55.8798
55.7875
55.2955
45.7241
44.9711
47.6911
42.8234
43.9492
44.3927
42.9478
43.4674
42.4152
39.714
39.6377
39.0634
41.5344
40.1951
40.2925
40.0202
40.1558
41.5388
42.7503
42.8578
42.0845
43.4781
43.4764
43.3691
44.0363
43.9516
44.1643
51.6609
50.172
50.2191
50.4676
50.3444
51.8468
47.026
46.6443
49.7183
44.1609
45.4792
45.7629
44.7952
45.1575
43.871
39.9738
39.9147
39.3396
41.3592
40.4054
40.4558
40.3198
40.3856
41.3908
41.8706
42.0662
41.7476
40.294
41.3938
41.2426
42.2506
42.1105
41.5889
51.9826
50.0545
50.2067
47.9203
48.3498
51.6105
40.3181
40.2311
39.6091
41.031
40.5043
40.5436
40.4714
40.4921
41.0806
40.5891
40.8647
41.1714
36.1334
38.5247
38.4905
39.713
39.5275
37.3833
39.7533
39.8387
41.0906
53.0035
48.3292
49.1682
51.519
51.6566
52.8027
40.5128
40.4309
39.8818
40.5114
40.5976
40.6227
40.5555
40.588
40.5864
38.6874
39.1011
40.4118
32.1608
32.6211
32.5374
34.3858
34.2756
33.1814
27.9251
30.9236
37.5201
45.1537
40.848
36.5021
38.7331
38.8172
44.5059
45.7705
47.5604
46.772
48.0429
48.2275
46.6414
42.8749
43.3384
42.8162
46.3666
45.9572
44.9241
55.1904
56.0079
55.9567
52.4012
52.8973
51.5975
45.6851
46.9643
45.3648
50.5337
49.1666
48.5638
51.916
51.541
53.7005
44.7626
43.4613
43.3657
43.6074
43.4919
44.8719
42.1171
43.0394
42.8905
45.5107
45.5945
46.0134
43.626
44.063
44.6969
46.538
47.6377
47.9523
46.1468
46.5409
45.9497
52.0969
50.751
50.6053
52.9021
52.6864
53.4718
50.7981
51.3123
48.9198
53.88
53.7388
53.6376
53.998
53.9973
53.2113
54.6331
52.5537
52.2531
53.5959
53.4728
54.4812
47.6854
49.9178
50.6029
42.1451
42.5197
42.3868
43.2575
43.1424
43.0015
41.9977
42.574
42.7097
42.7086
42.2157
42.3536
40.4171
40.5468
41.2606
44.102
43.0474
43.4821
42.4989
42.6501
43.0474
51.4359
47.3745
47.7859
50.2576
50.292
51.761
52.4818
52.5782
50.9705
53.0349
53.8545
53.8795
53.2773
53.2829
53.023
52.8537
53.986
53.994
53.905
53.93
52.7209
50.4766
52.2696
52.4401
38.2434
40.0754
39.8953
41.0883
40.9314
39.4838
41.5554
41.5925
41.8032
38.8466
37.7181
37.8412
35.3606
35.4706
36.8143
40.9084
40.1464
40.2849
37.9649
38.0888
39.2185
52.5886
51.2363
51.3785
50.3654
50.5104
52.2206
33.4792
34.6369
34.5036
38.4164
38.1345
35.1138
40.8924
40.1884
40.4931
34.0987
33.2038
33.2927
36.4599
35.151
35.2551
33.3919
33.5082
34.4898
53.2545
50.4633
51.1703
49.4409
50.2163
53.4217
39.8918
39.7615
39.7312
44.7394
31.9836
32.0096
32.4612
32.3903
32.0039
39.8696
37.8223
38.5473
40.1929
40.4856
42.9055
62.2826
61.263
66.946
41.819
39.6633
39.9144
38.9924
38.8651
38.4073
40.5568
39.2882
39.5111
38.9279
39.2048
40.4012
41.8427
41.5812
40.8497
43.5252
42.2058
42.663
41.667
42.0413
43.1841
50.6499
53.0621
50.8366
42.9005
42.8797
41.9755
45.5295
43.6868
43.6338
43.5328
43.6833
45.601
48.2118
47.4733
50.5805
45.0526
46.4178
46.585
46.0116
46.2292
44.8663
44.987
40.6957
41.3105
42.9246
43.1929
45.2243
51.4468
50.8211
43.6307
53.6526
52.5899
52.782
51.378
52.3815
53.5711
45.3442
43.2221
43.4646
42.793
43.1301
45.1869
41.4006
42.2591
42.0676
44.9518
45.7434
44.7953
53.7222