/*--------------------------------*- C++ -*----------------------------------*\
| =========                 |                                                 |
| \\      /  F ield         | OpenFOAM: The Open Source CFD Toolbox           |
|  \\    /   O peration     | Version:  v1912                                 |
|   \\  /    A nd           | Website:  www.openfoam.com                      |
|    \\/     M anipulation  |                                                 |
\*---------------------------------------------------------------------------*/
FoamFile
{
    version     2.0;
    format      ascii;
    class       volScalarField;
    location    "300";
    object      nut;
}
// * * * * * * * * * * * * * * * * * * * * * * * * * * * * * * * * * * * * * //

dimensions      [0 2 -1 0 0 0 0];


internalField   nonuniform List<scalar> 
12556
(
1.15562
1.15558
1.15553
1.15552
1.15589
1.15591
1.15593
1.15596
1.15603
1.15614
1.15631
1.1565
1.15663
1.15665
1.15654
1.15637
1.1562
1.15608
1.15599
1.15595
1.15555
1.15554
1.15558
1.15562
1.15486
1.15476
1.15466
1.15463
1.15492
1.155
1.1551
1.15536
1.15555
1.15588
1.15637
1.15692
1.15733
1.15741
1.15712
1.15663
1.15614
1.15574
1.15533
1.15513
1.15473
1.1547
1.15478
1.15487
1.15407
1.15391
1.15377
1.15374
1.15399
1.15413
1.15434
1.15467
1.15516
1.15596
1.15709
1.15063
1.05365
1.04942
1.12813
1.15761
1.15649
1.15558
1.15485
1.15442
1.15395
1.15388
1.15397
1.15411
1.15326
1.15305
1.15288
1.15286
1.15309
1.15332
1.15369
1.15423
1.15525
1.15692
0.980119
0.795314
0.717926
0.728422
0.810671
0.963255
1.15775
1.15601
1.15473
1.1539
1.15326
1.15309
1.15317
1.15335
1.15244
1.15218
1.15199
1.152
1.15224
1.15259
1.15322
1.15413
1.1561
0.95448
0.669574
0.498768
0.427242
0.447852
0.53705
0.68066
0.895917
1.15734
1.15511
1.15364
1.15266
1.15234
1.15237
1.15257
1.15162
1.15132
1.15112
1.15117
1.15145
1.15197
1.15299
1.15452
1.11755
0.728738
0.457624
0.282942
0.211361
0.243192
0.338539
0.478055
0.672597
0.96075
1.15613
1.15371
1.15217
1.15163
1.15157
1.15177
1.1508
1.15047
1.15028
1.15038
1.15073
1.15149
1.15303
1.15542
0.972554
0.602024
0.337255
0.144406
0.0752345
0.115784
0.214327
0.346816
0.525287
0.781487
1.15766
1.15415
1.15182
1.15097
1.15078
1.15095
1.15
1.14965
1.14948
1.14966
1.1501
1.15115
1.15333
1.15665
0.912516
0.581056
0.336305
0.127213
0.063059
0.156152
0.275295
0.437964
0.668283
1.04116
1.15493
1.15162
1.15037
1.15001
1.15013
1.14925
1.14889
1.14874
1.14901
1.14957
1.15096
1.15385
1.15802
0.921708
0.649872
0.490606
0.378353
0.071283
0.146507
0.249738
0.397096
0.606112
0.959325
1.15597
1.15157
1.14987
1.1493
1.14936
1.14855
1.14818
1.14807
1.14845
1.14915
1.15093
1.15452
1.15941
0.960497
0.742018
0.682874
0.714347
0.0967312
0.161324
0.254845
0.391036
0.584428
0.918288
1.15718
1.15169
1.1495
1.1487
1.14869
1.14792
1.14754
1.14749
1.14798
1.14884
1.15103
1.1553
1.1608
0.995777
0.797537
0.768084
0.61212
0.130562
0.190983
0.281252
0.411792
0.59505
0.912485
1.15845
1.15196
1.14928
1.14825
1.14816
1.14735
1.14698
1.14698
1.1476
1.14865
1.15124
1.15615
1.16218
1.01677
0.80328
0.728218
0.504638
0.166203
0.233929
0.327497
0.457459
0.635124
0.937858
1.15972
1.15237
1.14923
1.14796
1.1478
1.14686
1.1465
1.14656
1.14733
1.14855
1.15155
1.15705
1.16354
1.03574
0.792104
0.643082
0.424871
0.0426993
0.213866
0.299137
0.401237
0.53234
0.70649
0.993963
1.16091
1.15285
1.1493
1.14784
1.1476
1.14642
1.14607
1.14619
1.1471
1.14855
1.15201
1.15809
1.16497
1.07828
0.812626
0.598334
0.221143
0.0984538
0.315587
0.415396
0.519333
0.646108
0.814184
1.08402
1.16195
1.15335
1.14947
1.14784
1.14755
1.14604
1.14569
1.14587
1.1469
1.14855
1.15237
1.15892
1.16606
1.16725
0.915762
0.683083
0.0432494
0.148335
0.508582
0.632834
0.707212
0.81239
0.965131
1.16718
1.16279
1.15381
1.14968
1.14792
1.14759
1.14569
1.14534
1.14556
1.14671
1.14855
1.15269
1.15961
1.16687
1.16737
1.12721
0.768552
0.0329779
0.16492
0.525438
0.819381
0.993415
1.04529
1.15623
1.16797
1.16337
1.15418
1.14988
1.14802
1.14768
1.14537
1.14501
1.14526
1.14651
1.14852
1.15292
1.16012
1.16736
1.16661
1.1126
0.642399
0.0297969
0.178323
0.536943
0.827922
1.02045
1.11724
1.1574
1.16831
1.16367
1.15444
1.15004
1.14812
1.14777
1.14505
1.14469
1.14496
1.14627
1.14844
1.15306
1.16044
1.16749
1.16489
1.09052
0.531807
0.0288176
0.189462
0.543442
0.833618
1.02273
1.11813
1.15777
1.16825
1.16371
1.15455
1.15013
1.14819
1.14783
1.14474
1.14436
1.14464
1.14601
1.14829
1.15309
1.16057
1.16731
1.16214
1.06287
0.448548
0.0288818
0.198863
0.545738
0.837295
1.02378
1.1182
1.15758
1.16789
1.16353
1.15453
1.15014
1.1482
1.14784
1.14443
1.14404
1.1443
1.14571
1.14809
1.15302
1.16053
1.16684
1.15833
1.03083
0.392261
0.0295523
0.206902
0.546285
0.839001
1.02398
1.11773
1.15699
1.1673
1.16318
1.15442
1.15009
1.14816
1.1478
1.14411
1.14371
1.14397
1.14539
1.14783
1.15286
1.16034
1.16611
1.15345
0.994948
0.354718
0.0306185
0.213855
0.546351
0.838304
1.02348
1.11688
1.15614
1.16656
1.16271
1.15424
1.14998
1.14806
1.1477
1.14378
1.14339
1.14363
1.14506
1.14754
1.15262
1.16002
1.16514
1.14747
0.954442
0.327925
0.0319625
0.219929
0.546162
0.835515
1.02222
1.11574
1.1551
1.1657
1.16215
1.154
1.14982
1.14792
1.14755
1.14345
1.14306
1.1433
1.14473
1.14723
1.15234
1.15961
1.16395
1.14028
0.91072
0.307986
0.0335111
0.225287
0.545742
0.8316
1.02003
1.1143
1.15392
1.16479
1.16156
1.15372
1.14962
1.14774
1.14736
1.14311
1.14273
1.14297
1.14441
1.14692
1.15204
1.15914
1.16253
1.1315
0.869093
0.292817
0.0352164
0.230058
0.545113
0.827265
1.01696
1.11255
1.15262
1.16383
1.16094
1.15342
1.1494
1.14752
1.14712
1.14277
1.1424
1.14265
1.1441
1.14662
1.15173
1.1586
1.16083
1.12062
0.832814
0.281121
0.0370461
0.234344
0.544311
0.822821
1.01321
1.11046
1.15121
1.16286
1.1603
1.1531
1.14915
1.14728
1.14686
1.14242
1.14207
1.14233
1.14379
1.14633
1.15142
1.15801
1.15879
1.10753
0.801904
0.272025
0.0389785
0.238232
0.543379
0.818381
1.00904
1.10808
1.14968
1.16187
1.15967
1.15277
1.14889
1.14701
1.14657
1.14206
1.14174
1.14202
1.1435
1.14605
1.15111
1.15735
1.15628
1.09276
0.775417
0.264913
0.040999
0.241794
0.542356
0.813991
1.00463
1.10545
1.14807
1.16087
1.15903
1.15243
1.14861
1.14674
1.14626
1.1417
1.14141
1.14171
1.14321
1.14578
1.15079
1.15661
1.15323
1.0771
0.752464
0.259339
0.043099
0.24509
0.541283
0.809676
1.0001
1.10262
1.14638
1.15986
1.1584
1.15209
1.14833
1.14644
1.14593
1.14134
1.14108
1.1414
1.14293
1.14551
1.15047
1.15576
1.14958
1.06121
0.732365
0.254968
0.0452732
0.248172
0.540194
0.805456
0.995517
1.09965
1.14462
1.15885
1.15778
1.15174
1.14804
1.14614
1.1456
1.14098
1.14075
1.14109
1.14265
1.14525
1.15014
1.15476
1.14533
1.04553
0.714601
0.251542
0.0475202
0.251083
0.53912
0.801348
0.990945
1.09657
1.14281
1.15784
1.15716
1.1514
1.14775
1.14584
1.14527
1.14063
1.14042
1.14079
1.14238
1.14499
1.14978
1.15361
1.14053
1.0303
0.69877
0.248863
0.0498405
0.253864
0.538088
0.797366
0.986414
1.09342
1.14095
1.15682
1.15654
1.15105
1.14745
1.14553
1.14493
1.14027
1.1401
1.1405
1.14212
1.14473
1.1494
1.15228
1.13525
1.01565
0.684552
0.246772
0.0522367
0.256548
0.537122
0.793527
0.981951
1.09022
1.13906
1.15581
1.15593
1.15071
1.14716
1.14522
1.14459
1.13992
1.13978
1.14021
1.14186
1.14448
1.14899
1.15075
1.12957
1.00161
0.671687
0.24514
0.0547126
0.259166
0.536242
0.789843
0.977577
1.08699
1.13714
1.15479
1.15533
1.15037
1.14687
1.14492
1.14425
1.13957
1.13946
1.13992
1.1416
1.14422
1.14854
1.14902
1.12357
0.988174
0.659959
0.243863
0.0572731
0.261746
0.535467
0.786326
0.973308
1.08377
1.1352
1.15377
1.15473
1.15003
1.14658
1.14461
1.14391
1.13924
1.13916
1.13965
1.14136
1.14396
1.14805
1.14708
1.11731
0.975326
0.649189
0.242855
0.0599241
0.264313
0.534815
0.782988
0.96916
1.08055
1.13324
1.15275
1.15414
1.1497
1.1463
1.14432
1.14359
1.13895
1.13889
1.13942
1.14116
1.14372
1.14751
1.14496
1.11087
0.963029
0.639224
0.242043
0.062672
0.26689
0.534299
0.779841
0.965147
1.07737
1.13128
1.15175
1.15357
1.14944
1.14608
1.14408
1.14332
0.318443
0.0630435
0.0540156
0.725911
0.0879259
0.0659695
0.625341
0.12296
0.0919898
0.518215
0.154372
0.128444
0.432041
0.0327173
0.0401196
0.190805
0.158359
0.266728
0.0648323
0.0341846
0.093644
0.254814
0.193551
0.122274
0.0772545
0.0560773
0.108669
0.0329582
0.0233321
0.0689095
0.124006
0.131561
0.640528
0.822418
0.393815
0.0419222
0.0533318
0.0929955
0.137701
0.125526
0.761167
0.736032
0.812247
0.677354
0.206343
0.246709
0.0618531
0.0476723
0.126228
0.166058
0.143731
0.742935
0.636775
0.724235
0.572108
0.114941
0.16215
0.0994498
0.0786063
0.661439
0.534266
0.623619
0.482811
0.0582765
0.0823322
0.0183209
0.13892
0.133038
0.599155
0.372814
0.520774
0.374207
0.0255452
0.0374226
0.0847541
0.0861247
0.0683324
0.097007
0.290735
0.044141
0.0860082
0.0518803
0.0345085
0.0559902
0.0359073
0.0508927
0.252606
0.298454
0.747266
0.218615
0.190585
0.280148
0.224835
0.0472621
0.0419106
0.0773727
0.0542038
0.059536
0.0521089
0.0542204
0.0758266
0.166586
0.200653
0.664532
0.146044
0.116993
0.187881
0.148826
0.0760348
0.0633323
0.10985
0.082954
0.100242
0.0600987
0.0809659
0.105148
0.0836531
0.113067
0.558691
0.087166
0.0615273
0.115347
0.0884339
0.128913
0.102808
0.0378546
0.0569769
0.478865
0.0163658
0.0402129
0.026957
0.0607597
0.040997
0.0158279
0.143799
0.141182
0.0191065
0.0051815
0.0254444
0.366985
0.049375
0.0187517
0.00906659
0.02684
0.019114
0.0470456
0.441227
0.338565
0.150134
0.171374
0.0969668
0.0527444
0.0126403
0.0105738
0.634192
0.306087
0.363252
0.0140469
0.159365
0.203235
0.174633
0.0137174
0.0515878
0.0465015
0.0619295
0.157405
0.146314
0.28778
0.10914
0.197186
0.0411366
0.0163099
0.0287644
0.0267407
0.0342012
0.0545779
0.044396
0.0307385
0.143092
0.12912
0.136982
0.103063
0.12553
0.139922
0.0225972
0.0145697
0.0380064
0.0297843
0.0532644
0.0427536
0.0236198
0.0377668
0.0284066
0.0108782
0.026715
0.022054
0.0124173
0.0198189
0.02515
0.0504373
0.0510698
0.0539867
0.0531133
0.0198979
0.014681
0.0900503
0.0190179
0.0264738
0.0140425
0.0180483
0.087109
0.0727749
0.244207
0.226999
0.0645134
0.0546725
0.0143044
0.0346538
0.158373
0.143981
0.179193
0.163637
0.0352847
0.0526931
0.0421785
0.146302
0.0651083
0.0769278
0.0411703
0.0642617
0.167501
0.0541477
0.0303617
0.0190312
0.0684865
0.0336627
0.0600863
0.0317973
0.0632438
0.0431616
0.0424484
0.20999
0.0284635
0.208665
0.253256
0.0333649
0.0398768
0.0288987
0.0326507
0.245476
0.0452711
0.0450275
0.0564392
0.0728946
0.0682606
0.0795222
0.0747232
0.0567325
0.0617737
0.0608305
0.0557617
0.0665358
0.0621791
0.0610052
0.130942
0.129074
0.170031
0.167662
0.0747992
0.0139594
0.0732989
0.0781255
0.0759753
0.0998988
0.098136
0.0277222
0.0390613
0.113397
0.0292265
0.0207661
0.0508774
0.200373
0.184418
0.221487
0.205609
0.0517194
0.0215535
0.0380115
0.0375921
0.0558266
0.0550732
0.00765623
0.0267062
0.0788166
0.0679669
0.139761
0.113894
0.0119089
0.00739738
0.0213964
0.0168365
0.0261043
0.0114837
0.0163416
0.0134348
0.0257924
0.0402209
0.0149534
0.0185163
0.00503024
0.0191871
0.0171514
0.644292
0.24466
0.353148
0.149925
0.00829883
0.00557193
0.143391
0.419539
0.286828
0.00684557
0.0165142
0.014867
0.0943362
0.0825911
0.0281239
0.196073
0.163632
0.0647982
0.0120257
0.0210741
0.016399
0.0106053
0.0157699
0.0112786
0.0436345
0.0281064
0.0259953
0.0528071
0.0576957
0.0229265
0.026446
0.016964
0.0166857
0.0494349
0.132533
0.339572
0.32083
0.365726
0.346
0.136895
0.267333
0.249977
0.0739528
0.0266356
0.0701782
0.0654891
0.00957871
0.0145119
0.0720106
0.0485576
0.0307717
0.0288034
0.0421727
0.0480588
0.0438473
0.0542349
0.0494957
0.0436759
0.0462564
0.018377
0.0172051
0.0429288
0.180304
0.392799
0.372401
0.0506321
0.0519102
0.121978
0.0273485
0.0294107
0.0675099
0.089741
0.108382
0.10035
0.0660318
0.0874872
0.0815338
0.0972796
0.0899192
0.0670231
0.0986641
0.290843
0.273158
0.314741
0.296793
0.10085
0.0835088
0.0317527
0.0323014
0.0210643
0.0220623
0.0648747
0.109412
0.0463833
0.050139
0.0324756
0.0328987
0.0923783
0.117134
0.0409318
0.0581533
0.00748475
0.0181856
0.0391176
0.0297574
0.0586151
0.0200548
0.0207891
0.018164
0.0484854
0.0143371
0.00429391
0.0783067
0.0547141
0.0641782
0.060226
0.0250058
0.019194
0.0254004
0.0562404
0.0178801
0.00988922
0.0212463
0.0218336
0.00301319
0.0266767
0.0200588
0.0150139
0.00739343
0.01381
0.0135973
0.0136617
0.0232178
0.0200753
0.00774853
0.038083
0.0369705
0.0191866
0.0127995
0.00868514
0.0134577
0.0210564
0.0149471
0.0168301
0.0356886
0.0143577
0.0129793
0.0145573
0.0159047
0.0268681
0.0143455
0.0113363
0.0159667
0.0146587
0.0115202
0.0183179
0.0164887
0.0213922
0.0190231
0.0136502
0.0176276
0.0252605
0.0217931
0.0324212
0.0268363
0.0210244
0.0187469
0.0153426
0.0231538
0.0210266
0.0454628
0.0523602
0.0253728
0.023751
0.0212883
0.0222359
0.0566782
0.0153924
0.0163577
0.0182196
0.0154784
0.0169575
0.0502907
0.0175566
0.0209049
0.0172642
0.0165158
0.0218365
0.0533682
0.0471788
0.0157771
0.0387821
0.0344073
0.0449951
0.0402916
0.0162675
0.0156236
0.0285018
0.0244327
0.0785874
0.0720071
0.0282671
0.0363316
0.0854102
0.0803823
0.0476761
0.0460723
0.067095
0.110276
0.152792
0.0797834
0.100969
0.0678033
0.0532626
0.140192
0.122392
0.159715
0.146503
0.058809
0.0476135
0.0587828
0.0728681
0.0422955
0.0483437
0.037652
0.0346477
0.0474605
0.028033
0.0307361
0.0264135
0.038337
0.0335688
0.031483
0.0367581
0.0389676
0.0392302
0.0380612
0.0270049
0.0871512
0.0705467
0.0956161
0.0905371
0.0274048
0.064458
0.0629891
0.0677802
0.0649674
0.0356399
0.111784
0.107372
0.119258
0.113371
0.0366075
0.0304078
0.100673
0.0968837
0.105966
0.101952
0.0308519
0.0203339
0.0188072
0.0459777
0.0435986
0.021991
0.0209929
0.0373044
0.0368626
0.0382083
0.0374413
0.0358059
0.0350515
0.0366929
0.0360523
0.0606266
0.0590825
0.0625284
0.061117
0.053304
0.0394616
0.0585264
0.0557732
0.0280966
0.0250631
0.0331344
0.0293795
0.0130565
0.0199498
0.0188339
0.0240734
0.020622
0.0306083
0.0315816
0.0823196
0.0199243
0.0194223
0.0208353
0.0201019
0.0192329
0.0670001
0.0223744
0.0294445
0.0337078
0.0425065
0.106777
0.0294949
0.0238978
0.0347768
0.0324384
0.0220229
0.0211151
0.0234813
0.0223528
0.0937383
0.0330057
0.0333428
0.00836918
0.0252065
0.013492
0.0143653
0.0134463
0.0240254
0.00741551
0.0189166
0.0112047
0.0141376
0.0388519
0.0331229
0.0191913
0.0198289
0.0579186
0.0512339
0.018378
0.0189736
0.0134323
0.0243895
0.0585102
0.0417409
0.0124172
0.0119898
0.0172878
0.0103071
0.0132775
0.0184636
0.0265729
0.00722766
0.0150117
0.00987578
0.0146035
0.0202516
0.065011
0.139541
0.186234
0.0128155
0.0121003
0.194602
0.25767
0.214547
0.00790185
0.0284264
0.0163809
0.0181796
0.141159
0.147432
0.169295
0.00575016
0.00915057
0.00671463
0.00569124
0.00700001
0.00545928
0.0707691
0.0451666
0.0271902
0.0298802
0.0272317
0.0308058
0.2237
0.450168
0.428135
0.480567
0.457643
0.229331
0.036191
0.0305322
0.016213
0.0612637
0.0712239
0.139141
0.092449
0.0870972
0.0366104
0.0321366
0.0370664
0.0374472
0.420921
0.399724
0.185151
0.138958
0.0553223
0.0575783
0.0598441
0.0734794
0.157724
0.042379
0.101294
0.0944095
0.0146037
0.0149471
0.0169139
0.0201238
0.0204646
0.0272283
0.0153031
0.0127239
0.014239
0.0217835
0.0432114
0.0380837
0.0185291
0.0267927
0.0195282
0.0197791
0.0193712
0.0120864
0.0136137
0.0156846
0.0151624
0.012871
0.0210265
0.0241326
0.0522556
0.0398982
0.0426285
0.0393572
0.0291816
0.0380003
0.0175912
0.0200849
0.01101
0.00732073
0.00725013
0.0138342
0.0117366
0.0284692
0.0181155
0.01229
0.0171347
0.0222451
0.0211151
0.0307428
0.0315958
0.0190575
0.0151464
0.0156295
0.0100518
0.0137031
0.0154009
0.0610658
0.0553821
0.0228819
0.0143879
0.0187938
0.01796
0.0147293
0.0169354
0.0162922
0.0512193
0.0417653
0.0433095
0.0658038
0.0921518
0.0910509
0.0425812
0.0609667
0.058805
0.0898051
0.088219
0.063112
0.0440374
0.0532543
0.0438927
0.0336315
0.0366777
0.0297555
0.0459113
0.0478293
0.0688447
0.0247068
0.0321171
0.0315299
0.0485768
0.0479324
0.0280469
0.0269316
0.0264164
0.0307843
0.0300143
0.0341658
0.0548956
0.0542717
0.0579131
0.0574112
0.0387168
0.0293708
0.0498505
0.0492086
0.0536265
0.0529681
0.0319671
0.0538515
0.0549304
0.136863
0.12369
0.0523222
0.0534896
0.081238
0.0840767
0.177416
0.024261
0.0240143
0.0260516
0.025709
0.0214531
0.0237785
0.0235476
0.160382
0.0762309
0.080269
0.0141711
0.0142878
0.0173704
0.0169074
0.0139772
0.0144665
0.0144188
0.0689394
0.0303244
0.0340805
0.11058
0.103764
0.0454805
0.0537913
0.118528
0.112621
0.0275249
0.0276384
0.0383244
0.0369075
0.0270178
0.0273523
0.0117595
0.0184922
0.0268617
0.0189048
0.00730024
0.0120184
0.019299
0.0136436
0.0145302
0.0181152
0.0182993
0.0262881
0.0110014
0.00722056
0.0104815
0.013816
0.0250291
0.0177437
0.0179445
0.0162706
0.0260134
0.0226287
0.0138823
0.0135184
0.0147142
0.0150504
0.0177646
0.00796425
0.00547124
0.00987489
0.015889
0.0139532
0.0143008
0.0125154
0.0136546
0.0153398
0.0121633
0.00814891
0.00624811
0.0244189
0.0249842
0.0233617
0.0238336
0.0273867
0.0356468
0.0358318
0.0352246
0.0354596
0.0267846
0.0165551
0.0266631
0.0265612
0.0274705
0.0269151
0.0163728
0.0303411
0.0372136
0.0389173
0.0360388
0.0363975
0.0295649
0.0180835
0.0265577
0.0265507
0.0265104
0.0265126
0.0175675
0.0223511
0.0228852
0.0230008
0.022443
0.031918
0.0457941
0.0454644
0.0213882
0.0301529
0.0300764
0.0305857
0.0302744
0.0217253
0.0121251
0.0112019
0.0142137
0.0129231
0.0200122
0.0197004
0.0206474
0.02033
0.0169455
0.0279703
0.0207565
0.0209735
0.0202855
0.0298666
0.0297683
0.0300173
0.0299491
0.0205299
0.0212312
0.0209516
0.0251795
0.0214425
0.0174824
0.00758998
0.0117824
0.0148131
0.00739378
0.0195668
0.0146824
0.0035762
0.0252567
0.0340279
0.0335689
0.0183146
0.0095768
0.00675591
0.00489791
0.0116172
0.0124982
0.019058
0.0192888
0.026751
0.0196522
0.00865375
0.00725628
0.0165517
0.00575012
0.00992601
0.00810977
0.00588511
0.00728414
0.0135044
0.0113197
0.0119045
0.0147229
0.0142558
0.0389668
0.0339966
0.010621
0.0126322
0.0141344
0.0207192
0.0235443
0.0153439
0.0188218
0.0164934
0.0139533
0.00809547
0.0136821
0.0140135
0.00728239
0.0108123
0.0121139
0.0154789
0.0139517
0.014347
0.0116091
0.0122337
0.0150352
0.0145743
0.0142041
0.0108756
0.0139525
0.0153366
0.0149573
0.0276749
0.0238762
0.0186551
0.0303684
0.0324872
0.0348846
0.0277831
0.0247118
0.0226838
0.0323682
0.0335289
0.0255604
0.0298648
0.0221199
0.0248387
0.0347346
0.0349832
0.0340967
0.0344432
0.024244
0.021553
0.0322983
0.0318723
0.0156212
0.0159205
0.0171378
0.015435
0.0153381
0.0161187
0.0171417
0.0169704
0.018831
0.0295512
0.0284076
0.0313549
0.0306017
0.0201743
0.0139838
0.0145253
0.0181533
0.00928217
0.0134615
0.0134618
0.0159461
0.0136278
0.0136527
0.0207812
0.0197942
0.0150472
0.0494421
0.044569
0.075115
0.0658576
0.0437314
0.0615909
0.0859451
0.0820618
0.0415477
0.0380201
0.0377051
0.0267804
0.0333816
0.0571703
0.0495459
0.046943
0.0372953
0.044772
0.04493
0.0418321
0.0437115
0.0364817
0.0288983
0.0300843
0.0390336
0.032247
0.0314346
0.0331161
0.0333073
0.0358569
0.0322246
0.0306305
0.0286032
0.0329142
0.0439402
0.0394305
0.0263984
0.0277254
0.0472279
0.0461608
0.028046
0.0274771
0.0293094
0.0286555
0.0559569
0.0554337
0.0348541
0.0376413
0.0569659
0.0564825
0.051137
0.0505043
0.0298913
0.0313402
0.0523204
0.0517232
0.01978
0.02659
0.0265627
0.0265692
0.0266066
0.0194071
0.0218812
0.0255875
0.0242967
0.0264606
0.0262002
0.0213963
0.0371608
0.0242403
0.0246472
0.023586
0.0239023
0.0370183
0.0377735
0.0261204
0.0266253
0.0250963
0.0255825
0.0375802
0.0355519
0.0218714
0.0221369
0.0214382
0.0216341
0.0352994
0.0365061
0.0230087
0.023289
0.0224125
0.0227028
0.0362876
0.024794
0.0245201
0.0601238
0.0409969
0.0413022
0.040368
0.0406857
0.05961
0.0253858
0.0250814
0.0228799
0.0225442
0.0486544
0.0332956
0.0368127
0.0271092
0.0274862
0.0425712
0.0578999
0.0396739
0.0400369
0.0384736
0.0392233
0.0570838
0.0233302
0.0231151
0.0148273
0.0143138
0.0140364
0.0163686
0.0155569
0.0195334
0.0145332
0.0143427
0.0150434
0.0147533
0.019209
0.0228834
0.0159693
0.0169555
0.0144674
0.0150584
0.021645
0.0311056
0.0441879
0.0432888
0.0451216
0.044726
0.0313809
0.0197531
0.0195879
0.0205602
0.0202874
0.0189852
0.0181637
0.0226382
0.0337937
0.0315038
0.0415522
0.0382233
0.0269154
0.0245895
0.019479
0.020389
0.0242878
0.0344202
0.0210504
0.0212423
0.0206587
0.0208588
0.0338118
0.0217081
0.0214047
0.0230798
0.0227044
0.0135956
0.0158769
0.0153876
0.0173236
0.0165291
0.0138941
0.0138627
0.0135295
0.0149343
0.0143611
0.00867004
0.0120061
0.0148981
0.0145628
0.015793
0.0153053
0.0126476
0.0190496
0.0188532
0.0194717
0.0192557
0.0243161
0.0261923
0.0356069
0.0182989
0.0180653
0.0186659
0.0184852
0.0194043
0.0293778
0.0292106
0.0296528
0.0295228
0.0196127
0.0185383
0.0283056
0.0273435
0.029011
0.0287468
0.0187562
0.0126433
0.0327579
0.0309594
0.0226381
0.0126585
0.0093884
0.00931031
0.0064451
0.00917737
0.0122971
0.0157464
0.0125362
0.0140054
0.013628
0.0264443
0.0185585
0.0188104
0.0104398
0.0106721
0.0102245
0.0132569
0.0128787
0.00686886
0.00703756
0.0142004
0.0109686
0.0131854
0.0155272
0.0174868
0.0233024
1.15483
1.1551
1.15548
1.15522
1.15569
1.15577
1.15587
1.15656
1.15622
1.15681
1.15758
1.15676
1.15781
1.14619
1.15724
1.13244
1.1174
1.15742
1.12323
1.15831
1.15723
1.15815
1.15751
1.15678
1.15728
1.15656
1.15627
1.15634
1.15575
1.15584
1.15431
1.15491
1.15501
1.15517
1.15617
1.15573
1.15658
1.13393
1.15679
1.07168
0.917726
1.15799
0.881398
0.811196
1.06759
0.800085
0.798351
1.04245
0.807562
0.862268
1.10255
0.889048
0.998939
1.15789
1.04501
1.15777
1.15676
1.15734
1.15616
1.15578
1.15411
1.1553
1.15494
1.15581
1.11723
1.15645
1.02867
0.798218
1.04499
0.737777
0.598655
0.830435
0.565301
0.502247
0.728255
0.493285
0.499491
0.71854
0.511367
0.57102
0.783947
0.597976
0.701927
0.918015
0.743546
0.902438
1.13123
0.966355
1.1575
1.1564
1.15438
1.15642
1.1555
1.15722
0.862073
1.04617
0.773047
0.55949
0.728838
0.501684
0.363889
0.532039
0.329595
0.265785
0.43592
0.25805
0.27189
0.435178
0.286667
0.353236
0.509698
0.380797
0.482224
0.638774
0.521852
0.664048
0.834692
0.720515
0.925855
1.1156
1.15516
1.11091
1.1568
1.00121
0.704917
0.81388
0.624053
0.417787
0.515006
0.358335
0.208924
0.317845
0.172994
0.0922251
0.218966
0.090556
0.124074
0.227501
0.141713
0.210932
0.310616
0.238941
0.3362
0.438862
0.373508
0.504423
0.6175
0.555966
0.740272
0.871574
1.15632
1.03078
1.0837
0.919914
0.650505
0.681662
0.576287
0.380332
0.397279
0.323197
0.146557
0.185277
0.130215
0.0762491
0.119586
0.0371975
0.0468122
0.081529
0.0876203
0.117569
0.138654
0.165164
0.254026
0.31004
0.288352
0.408273
0.475085
0.455111
0.622494
0.704215
1.15767
1.01814
1.02207
0.9149
0.687143
0.652239
0.627401
0.479775
0.392887
0.359942
0.31064
0.287887
0.13632
0.114893
0.103872
0.0620606
0.0889209
0.0947529
0.145916
0.222289
0.241944
0.252719
0.361038
0.392256
0.403618
0.556598
0.600728
1.15906
1.04529
1.02275
0.950192
0.764232
0.705314
0.720762
0.641558
0.519228
0.542003
0.526897
0.460393
0.446386
0.452544
0.366747
0.0804913
0.0996017
0.0943912
0.156062
0.223876
0.220191
0.25136
0.350499
0.355426
0.389827
0.531319
0.546463
1.16045
1.07886
1.05413
0.988293
0.824033
0.78243
0.788751
0.743197
0.676445
0.718024
0.753864
0.709842
0.702321
0.532158
0.555528
0.108884
0.125423
0.115153
0.182381
0.246867
0.227862
0.272893
0.367032
0.352338
0.404328
0.537626
0.530307
1.16184
1.10051
1.08572
1.01258
0.843624
0.83266
0.805249
0.737368
0.750941
0.766037
0.806934
0.812339
0.598831
0.417538
0.438132
0.143013
0.161461
0.147169
0.221573
0.287709
0.255374
0.313808
0.407114
0.37482
0.443569
0.571489
0.544229
1.1632
1.11569
1.10416
1.02988
0.841535
0.843716
0.793903
0.683386
0.724942
0.698529
0.73606
0.73986
0.491047
0.313871
0.332799
0.17439
0.195354
0.184134
0.27964
0.351935
0.301143
0.379459
0.47426
0.421092
0.510407
0.63421
0.585374
1.16465
1.14701
1.12129
1.06206
0.856547
0.842279
0.80003
0.645354
0.670166
0.62405
0.57986
0.640675
0.403087
0.217354
0.235141
0.0507666
0.11231
0.0983362
0.279993
0.355464
0.276455
0.37969
0.45656
0.373358
0.484445
0.578339
0.496325
0.613357
0.731349
0.656303
1.16581
1.16838
1.16319
1.15302
0.937998
0.870525
0.879937
0.707714
0.649491
0.601465
0.533755
0.520909
0.206339
0.0675031
0.0907098
0.110884
0.247282
0.212258
0.488895
0.548749
0.392277
0.566815
0.628337
0.492168
0.652259
0.734001
0.611687
0.765407
0.870558
0.763335
1.1667
1.16894
1.16857
1.16741
1.11923
0.972562
1.06006
0.916606
0.743623
0.800414
0.113959
0.187625
0.034467
0.0819555
0.0703524
0.161134
0.43795
0.42486
0.521796
0.74952
0.61851
0.816632
0.899097
0.685674
0.908503
0.957732
0.782755
0.979874
1.06485
0.915369
1.16727
1.16891
1.16899
1.16689
1.14116
1.14666
1.11712
0.870243
0.936312
0.672851
0.0812463
0.102258
0.0303072
0.0954417
0.0855171
0.175208
0.44986
0.441508
0.534513
0.760472
0.75267
0.826098
0.981688
0.977722
1.01961
1.09934
1.02639
1.11684
1.15057
1.12717
1.16749
1.16822
1.1688
1.16541
1.13023
1.13882
1.0966
0.777213
0.847128
0.557132
0.067521
0.0768314
0.0289383
0.107168
0.0985219
0.186858
0.456064
0.451874
0.542292
0.767951
0.762612
0.832402
0.985016
0.982697
1.02229
1.10075
1.09981
1.118
1.15123
1.15081
1.16738
1.16685
1.16794
1.16292
1.11523
1.12685
1.07024
0.686664
0.75422
0.466664
0.0603445
0.0653086
0.0287971
0.117475
0.109867
0.196653
0.459252
0.457019
0.545415
0.772904
0.769411
0.836544
0.986828
0.985586
1.02361
1.10117
1.10093
1.11824
1.15122
1.15128
1.16698
1.16479
1.1664
1.15938
1.09653
1.11088
1.0392
0.60548
0.66503
0.404159
0.0562525
0.0591049
0.0293411
0.126605
0.11986
0.205003
0.461568
0.459878
0.546214
0.775181
0.773748
0.838784
0.98759
0.987104
1.02399
1.10091
1.10115
1.11789
1.15074
1.15114
1.16631
1.16204
1.16417
1.15477
1.07458
1.09133
1.00431
0.542172
0.587796
0.362868
0.0538651
0.0555285
0.0303219
0.134744
0.128726
0.212206
0.46344
0.462075
0.546359
0.774489
0.775268
0.838703
0.987482
0.987644
1.02367
1.1002
1.10077
1.11712
1.14995
1.15057
1.1654
1.15858
1.16124
1.14907
1.04936
1.0686
0.965014
0.496799
0.529347
0.333867
0.0525264
0.0534487
0.0316046
0.142046
0.136643
0.218484
0.464892
0.463841
0.54623
0.771769
0.773943
0.836354
0.986362
0.987306
1.02262
1.09912
1.09996
1.11605
1.14894
1.14972
1.16427
1.15438
1.15761
1.14221
1.01992
1.04244
0.921664
0.463508
0.487557
0.312455
0.051886
0.05231
0.0331072
0.148635
0.143755
0.224008
0.465959
0.465192
0.545867
0.768217
0.770924
0.832636
0.984038
0.985894
1.02067
1.09768
1.09879
1.11469
1.14776
1.14866
1.16291
1.14928
1.1532
1.13388
0.986572
1.01186
0.879047
0.437962
0.456507
0.296238
0.0517402
0.0518085
0.0347768
0.154616
0.150183
0.228914
0.466695
0.466171
0.545287
0.764425
0.767279
0.828365
0.980641
0.983276
1.0178
1.09582
1.09725
1.11301
1.14642
1.14744
1.16129
1.14298
1.14783
1.12356
0.952605
0.977983
0.841346
0.417818
0.432481
0.283769
0.0519629
0.0517644
0.0365777
0.16008
0.156028
0.233312
0.467165
0.466835
0.544525
0.760587
0.763465
0.823932
0.976521
0.979663
1.01419
1.09353
1.09528
1.11101
1.14494
1.14606
1.15934
1.13513
1.14117
1.11099
0.920999
0.944411
0.809172
0.40166
0.413444
0.274089
0.0524724
0.0520652
0.038486
0.165101
0.161373
0.237293
0.467426
0.467247
0.54362
0.75676
0.759626
0.819485
0.972001
0.975417
1.01011
1.09086
1.0929
1.1087
1.1433
1.14454
1.15696
1.12565
1.13291
1.09657
0.892708
0.913608
0.781671
0.388541
0.398123
0.266529
0.0532136
0.0526369
0.0404854
0.169745
0.166294
0.24093
0.467532
0.467464
0.542617
0.75297
0.755807
0.81508
0.967287
0.970833
1.00575
1.08789
1.09015
1.10612
1.14154
1.14288
1.15405
1.11479
1.12305
1.08105
0.86759
0.886144
0.757907
0.377785
0.385651
0.260607
0.0541484
0.0534296
0.0425658
0.17407
0.170854
0.244287
0.467531
0.46754
0.541553
0.749237
0.752029
0.810745
0.962501
0.966092
1.00123
1.08469
1.08711
1.10334
1.13967
1.14108
1.15055
1.103
1.11191
1.06517
0.845225
0.861754
0.737149
0.368891
0.375402
0.255962
0.0552499
0.0544082
0.0447216
0.178126
0.175107
0.247418
0.467463
0.467518
0.540465
0.745579
0.748313
0.806499
0.957713
0.9613
0.996661
1.08133
1.08387
1.1004
1.1377
1.13918
1.14645
1.0907
1.09996
1.04941
0.825196
0.840011
0.718844
0.361475
0.366909
0.252321
0.0564985
0.055548
0.0469502
0.181958
0.179103
0.250368
0.467363
0.467439
0.539384
0.742017
0.744677
0.802361
0.952968
0.956519
0.992084
1.07786
1.08047
1.09735
1.13566
1.1372
1.14178
1.07822
1.08759
1.03406
0.807144
0.820508
0.702563
0.355242
0.359815
0.249472
0.0578801
0.0568309
0.0492519
0.185606
0.182885
0.253178
0.467263
0.467336
0.538339
0.738566
0.741141
0.798346
0.948297
0.951791
0.987539
1.07432
1.07698
1.09421
1.13355
1.13514
1.13661
1.06579
1.0751
1.01926
0.790774
0.802903
0.687969
0.349955
0.353839
0.247247
0.0593839
0.0582439
0.0516285
0.189106
0.186492
0.255883
0.467189
0.46724
0.537354
0.735244
0.737721
0.79447
0.943722
0.947142
0.983057
1.07074
1.07343
1.09102
1.1314
1.13302
1.13102
1.05355
1.06271
1.00506
0.775835
0.786913
0.674788
0.345427
0.348759
0.245512
0.0610022
0.0597769
0.0540837
0.192492
0.189961
0.258514
0.467165
0.467176
0.53645
0.732067
0.734434
0.790746
0.939262
0.942594
0.978659
1.06716
1.06985
1.0878
1.12921
1.13085
1.12509
1.04158
1.05053
0.991475
0.76212
0.772298
0.662795
0.341502
0.344395
0.244156
0.0627288
0.0614228
0.0566222
0.195794
0.193323
0.261101
0.467211
0.467167
0.535648
0.729049
0.731295
0.787186
0.934931
0.938165
0.974362
1.06358
1.06626
1.08457
1.12699
1.12865
1.1189
1.02992
1.03863
0.978484
0.749449
0.75886
0.6518
0.338055
0.340601
0.243088
0.0645595
0.0631758
0.0592498
0.199039
0.196607
0.263668
0.467347
0.467234
0.534963
0.726202
0.728318
0.783802
0.930743
0.933869
0.970183
1.06003
1.06269
1.08135
1.12475
1.12643
1.11249
1.01859
1.02706
0.966052
0.737674
0.746427
0.641647
0.33498
0.337257
0.242233
0.0664904
0.0650317
0.0619725
0.202254
0.199842
0.266241
0.46759
0.467395
0.534411
0.723537
0.725516
0.780606
0.92671
0.929718
0.966134
1.05654
1.05915
1.07816
1.1225
1.12418
1.10633
1.00814
1.01581
0.954699
0.727064
0.734856
0.632506
0.332247
0.334261
0.241545
0.0685117
0.0669873
0.0647877
0.205435
0.203053
0.268814
0.467966
0.467667
0.53404
0.721186
0.722899
0.777756
0.92306
0.925727
0.962458
1.05333
1.05567
1.07522
1.12043
1.12194
0.299798
0.24541
0.26876
0.060395
0.0528104
0.0570197
0.045325
0.0447875
0.0532571
0.563671
0.591325
0.736955
0.0844205
0.0782895
0.0830799
0.0586659
0.0643218
0.0678795
0.445067
0.46616
0.638496
0.118818
0.114653
0.120004
0.085202
0.0906978
0.0961725
0.339133