/*--------------------------------*- C++ -*----------------------------------*\
| =========                 |                                                 |
| \\      /  F ield         | OpenFOAM: The Open Source CFD Toolbox           |
|  \\    /   O peration     | Version:  v1912                                 |
|   \\  /    A nd           | Website:  www.openfoam.com                      |
|    \\/     M anipulation  |                                                 |
\*---------------------------------------------------------------------------*/
FoamFile
{
    version     2.0;
    format      ascii;
    class       volScalarField;
    location    "300";
    object      omega;
}
// * * * * * * * * * * * * * * * * * * * * * * * * * * * * * * * * * * * * * //

dimensions      [0 0 -1 0 0 0 0];


internalField   nonuniform List<scalar> 
12556
(
31.8693
31.8706
31.8719
31.8739
31.9377
31.9387
31.9393
31.9405
31.9429
31.9472
31.9535
31.9606
31.9659
31.9664
31.9622
31.9556
31.9494
31.9447
31.9416
31.9398
31.8748
31.8723
31.8706
31.8691
31.7347
31.7377
31.7408
31.7448
31.8052
31.8093
31.8127
31.8464
31.8531
31.8648
31.8819
31.9015
31.916
31.9184
31.9079
31.8904
31.8729
31.8594
31.8203
31.8132
31.7476
31.742
31.7382
31.7347
31.6014
31.6062
31.6109
31.6166
31.6746
31.6819
31.6895
31.7248
31.7407
31.7676
31.8064
31.8486
31.8792
31.8842
31.8625
31.8255
31.7867
31.7556
31.7058
31.6911
31.6235
31.6145
31.6083
31.6028
31.4702
31.4764
31.4824
31.4899
31.5453
31.5564
31.5699
31.6115
31.6446
31.7007
31.779
31.8687
31.9323
31.9357
31.8841
31.8072
31.7317
31.6706
31.6036
31.576
31.5033
31.4897
31.4807
31.4732
31.3405
31.3481
31.3555
31.3649
31.4191
31.4346
31.4564
31.508
31.5729
31.6817
31.861
32.1002
32.2813
32.2559
32.0857
31.892
31.7315
31.6188
31.5192
31.4701
31.3874
31.3676
31.3551
31.3453
31.2123
31.2212
31.23
31.2414
31.2955
31.3171
31.3511
31.421
31.5299
31.7433
32.1888
33.0489
33.9495
33.5885
32.7827
32.2023
31.8346
31.6103
31.4572
31.3757
31.276
31.2478
31.2309
31.2186
31.0859
31.0961
31.1064
31.1201
31.1745
31.2036
31.2541
31.3504
31.5203
31.9206
32.9977
37.077
42.7933
39.9776
34.8518
32.9508
32.0981
31.6655
31.4186
31.2937
31.1695
31.1305
31.1081
31.093
30.9616
30.9731
30.9852
31.0018
31.0572
31.0955
31.1654
31.2917
31.5374
32.1754
34.1751
45.1593
64.7141
39.8114
34.3461
32.5626
31.7946
31.403
31.2238
31.0681
31.0159
30.9869
30.9686
30.8396
30.8526
30.8667
30.8867
30.944
30.9927
31.0837
31.2403
31.5652
32.4069
34.9885
51.7207
114.148
46.8037
36.264
33.1961
31.988
31.4075
31.1635
30.972
30.9048
30.8682
30.8464
30.7207
30.7352
30.7516
30.7752
30.8352
30.8951
31.0074
31.1927
31.5913
32.5849
35.5593
58.9513
138.168
52.5018
38.1683
33.8769
32.2125
31.4245
31.1104
30.8813
30.7983
30.7534
30.7278
30.605
30.6211
30.6399
30.6675
30.7307
30.8023
30.9353
31.1481
31.6152
32.7432
36.2747
68.3855
138.922
55.8718
39.6665
34.4816
32.4285
31.4441
31.0621
30.7958
30.6969
30.6436
30.6138
30.4929
30.5105
30.5317
30.5635
30.6305
30.7137
30.8665
31.1067
31.6415
32.9174
37.3125
81.9082
129.113
57.2179
40.6149
34.9307
32.6017
31.4562
31.0153
30.7142
30.6005
30.5391
30.505
30.384
30.4035
30.4275
30.4636
30.5336
30.6283
30.7998
31.0685
31.673
33.1296
38.6135
95.6424
984.486
109.551
57.2284
41.0591
35.1988
32.7114
31.4533
30.9666
30.635
30.5083
30.4392
30.401
30.2781
30.2992
30.3257
30.3658
30.4418
30.5492
30.7398
31.0441
31.7381
33.4778
41.0594
175.804
495.699
103.661
56.53
41.1234
35.3056
32.7539
31.4314
30.9126
30.5564
30.4186
30.3427
30.3006
30.1745
30.1971
30.2261
30.2698
30.3501
30.4673
30.6737
31.0071
31.7731
33.7831
45.1155
761.476
335.169
97.6933
55.3103
40.9275
35.2851
32.7378
31.3903
30.8512
30.4761
30.3297
30.2478
30.2023
30.0722
30.0965
30.1279
30.1749
30.2592
30.3847
30.6047
30.9651
31.8021
34.155
52.002
864.057
291.949
92.792
54.1446
40.6247
35.178
32.6701
31.3315
30.7815
30.3928
30.24
30.1528
30.1044
29.9706
29.9964
30.0303
30.0801
30.1682
30.3006
30.5317
30.9159
31.8205
34.6397
61.397
834.076
261.279
88.9901
53.0765
40.2879
35.035
32.5771
31.2568
30.7021
30.3053
30.148
30.0563
30.0056
29.869
29.8964
29.9325
29.985
30.0762
30.2141
30.4543
30.8591
31.8314
35.2499
72.7802
768.157
238.262
86.2349
52.16
39.9539
34.8683
32.4645
31.1676
30.6133
30.2122
30.0522
29.9578
29.9048
29.7671
29.7957
29.8341
29.8889
29.983
30.1251
30.3727
30.7955
31.8411
36.0014
84.3364
697.571
220.263
84.3041
51.3845
39.6408
34.6941
32.341
31.0686
30.5171
30.1143
29.9526
29.8558
29.8016
29.6643
29.694
29.7345
29.7916
29.8882
30.0337
30.2873
30.7265
31.8561
36.8958
94.0308
632.263
205.72
82.7522
50.757
39.3545
34.5208
32.2123
30.9625
30.415
30.0119
29.8492
29.7507
29.6958
29.5607
29.5911
29.6335
29.6926
29.7916
29.9401
30.1989
30.6539
31.8817
37.9517
101.285
574.73
193.658
81.3614
50.3016
39.0975
34.3528
32.0818
30.8513
30.308
29.9054
29.7423
29.6427
29.5874
29.4561
29.4871
29.531
29.592
29.6932
29.8443
30.1082
30.5791
31.9222
39.2412
106.689
524.903
183.442
80.0842
49.9921
38.8767
34.1926
31.9517
30.7368
30.1973
29.7955
29.6323
29.5319
29.4766
29.3509
29.3821
29.4271
29.4898
29.593
29.7466
30.0154
30.5036
31.9841
40.7584
110.644
481.916
174.636
78.9061
49.7645
38.699
34.043
31.8236
30.6202
30.0837
29.6828
29.5197
29.419
29.3639
29.245
29.2762
29.3222
29.3862
29.4911
29.647
29.9212
30.4288
32.0805
42.3026
113.419
444.746
166.931
77.814
49.5733
38.5622
33.9064
31.699
30.5027
29.9682
29.5682
29.4053
29.3044
29.2496
29.1387
29.1698
29.2163
29.2815
29.3877
29.5458
29.8259
30.3568
32.2287
43.7038
115.234
412.446
160.106
76.7946
49.3985
38.4565
33.7835
31.5788
30.3851
29.8515
29.4521
29.2894
29.1885
29.1342
29.0321
29.063
29.1099
29.176
29.2833
29.4436
29.7305
30.2906
32.4347
44.9206
116.273
384.201
153.991
75.8355
49.2323
38.3716
33.6734
31.4634
30.2682
29.7343
29.3351
29.1725
29.0717
29.018
28.9256
28.956
29.0032
29.0701
29.1782
29.3407
29.6356
30.2331
32.6875
45.9669
116.696
359.332
148.461
74.9257
49.0708
38.2997
33.5742
31.3529
30.1524
29.6171
29.2176
29.0551
28.9544
28.9012
28.8191
28.8491
28.8964
28.964
29.0728
29.2377
29.542
30.187
32.9673
46.865
116.636
337.288
143.415
74.0557
48.9116
38.2358
33.4838
31.2466
30.038
29.5002
29.1
28.9374
28.8369
28.7842
28.7129
28.7424
28.7898
28.8579
28.9674
29.1348
29.4506
30.1537
33.2565
47.6352
116.201
317.62
138.779
73.2178
48.7529
38.1764
33.4005
31.1444
29.9252
29.3838
28.9826
28.8197
28.7194
28.6672
28.6071
28.6361
28.6834
28.7521
28.8621
29.0323
29.362
30.1334
33.5432
48.2943
115.484
299.962
134.49
72.4053
48.5929
38.1193
33.3227
31.0457
29.8139
29.2683
28.8655
28.7023
28.602
28.5504
28.5017
28.5302
28.5775
28.6467
28.7573
28.9307
29.277
30.1252
33.8201
48.8571
114.557
284.016
130.498
71.6128
48.4301
38.0627
33.2491
30.9501
29.7044
29.1537
28.7489
28.5852
28.485
28.4338
28.3968
28.4249
28.4721
28.5418
28.653
28.8301
29.196
30.1275
34.0836
49.3362
113.481
269.538
126.764
70.8358
48.2632
38.0052
33.1785
30.8572
29.5965
29.0401
28.633
28.4687
28.3684
28.3176
28.2926
28.3202
28.3673
28.4375
28.5493
28.7308
29.1194
30.1386
34.3318
49.743
112.303
256.325
123.254
70.0705
48.0909
37.9458
33.11
30.7668
29.4903
28.9276
28.5178
28.3528
28.2524
28.202
28.1889
28.216
28.2631
28.3339
28.4465
28.633
29.0474
30.1566
34.5643
50.0875
111.062
244.213
119.94
69.3141
47.9123
37.8836
33.0427
30.6783
29.3857
28.8163
28.4034
28.2375
28.137
28.0869
28.0864
28.1131
28.1601
28.2314
28.3445
28.5369
28.98
30.18
34.7815
50.379
109.789
233.061
116.8
68.5639
47.7263
37.8177
32.976
30.5915
29.2827
28.7062
28.2903
28.1235
28.0229
27.973
27.9889
28.0153
28.0622
28.1338
28.2442
28.443
28.9174
30.2075
34.9838
50.6255
108.509
222.754
113.813
67.818
47.5324
37.7476
32.9091
30.5061
29.1818
28.5979
28.1834
28.0158
27.915
27.8653
51.0564
131.184
72.5148
58.0213
168.767
138.545
67.0207
167.428
170.151
79.9117
152.993
166.011
94.1774
1230.4
1038.54
136.595
150.896
147.561
691.337
1183.15
517.648
132.45
133.958
43.8795
42.2169
65.4508
39.9894
494.396
156.357
108.79
50.5734
42.8986
35.4149
50.4589
46.1044
1282.53
1015.35
136.722
59.1304
53.0531
36.0693
56.3748
51.1156
62.0971
209.958
179.52
835.875
1089.15
139.616
63.8677
60.6578
37.0203
64.7824
57.2635
72.8644
347.516
257.672
523.478
655.711
38.2553
76.4725
66.0844
85.0837
610.549
458.427
2215.35
319.312
396.365
40.476
106.7
78.3302
107.518
1256.59
889.038
423.416
527.467
662.503
120.012
160.483
78.2002
115.675
1000.75
527.803
106.215
392.375
784.792
175.812
151.359
55.3922
208.866
233.196
166.385
203.74
1100.39
1279.25
153.56
998.513
890.744
802.653
999.806
151.992
251.915
215.117
63.2516
293.206
351.687
236.109
288.479
677.123
816.817
170.747
639.478
529.002
881.517
655.352
171.243
452.618
352.254
74.4996
447.081
596.384
355.703
442.074
408.494
507.169
881.446
622.157
85.6914
2590.41
850.613
1211.65
601.988
837.388
2735.43
295.429
310.685
2103.58
7932.92
1259.53
109.471
861.677
1744.2
6874.8
1214.26
1708.21
896.509
34.827
45.6621
41.4352
48.2876
94.0207
68.7623
1722.27
644.894
54.4205
147.9
123.733
3264.86
130.672
65.5507
64.5257
3478.73
878.341
967.518
723.703
262.532
285.89
119.629
96.7782
49.077
1234.87
171.599
471.772
127.293
354.088
97.5653
1007.37
1388.74
159.016
411.951
337.609
514.593
423.539
160.901
1737.97
3259.14
1072.94
61.5474
52.0527
73.0743
127.663
63.1321
63.4464
1842.13
334.641
1626.73
449.625
1463.56
283.135
1088.75
1077.1
956.826
972.895
2112.31
3059.11
575.611
2247.07
1613.73
3288.84
2377.78
594.253
505.245
165.884
176.843
723.794
835.017
3285.64
940.41
241.276
261.773
216.962
234.581
926.015
1027.07
1214.97
133.335
789.538
686.838
1171.6
795.431
139.119
95.7738
313.808
132.98
601.441
352.932
101.233
533.756
856.205
792.453
764.333
214.909
1491.11
215.845
182.957
1354.37
1199.35
1478.09
1373.53
188.265
1164.77
1173.62
949.218
330.029
324.26
329.987
330.803
942.949
885.975
297.818
271.69
320.857
304.916
896.944
321.123
324.915
257.279
260.371
694.407
3324.27
708.283
487.229
498.73
401.293
407.201
1545.57
1137.41
461.839
1453.44
2018.51
679.226
197.045
211.661
180.674
192.707
670.526
1826.09
882.767
890.082
640.406
646.966
3663.72
1486.96
609.733
692.11
268.461
321.764
2810.49
4920.48
1833.32
2520.24
1233
4222.12
2646.69
3967.86
1246.83
1022.11
3088.99
2176.25
1848.32
2113.22
2425.39
43.8612
159.641
113.171
253.156
3887.72
7332.31
349.162
122.292
129.544
1019.14
2551.69
2989.21
522.879
585.831
1417.4
240.37
255.988
697.629
121.862
85.6347
152.123
441.138
115.853
131.003
1243.97
2020.33
2159.26
1046.42
894.646
2035.45
1767.52
2913.71
2922.8
1046.62
307.855
123.951
130.391
115.965
121.888
299.151
153.222
162.523
498.896
1212.34
499.026
529.251
5978.25
2987.84
625.113
920.211
1868.14
1978.6
553.611
213.984
174.813
261.396
226.604
586.745
1130.49
2743.06
2888.97
1240.16
235.692
108.71
114.09
754.069
743.332
340.128
1708.65
1583.59
767.428
590.832
293.373
305.776
799.18
322.488
328.744
309.622
319.688
787.136
393.869
142.246
150.344
132.632
139.721
386.722
462.224
1098.7
1088.36
1610.27
1541.01
571.683
371.479
808.028
758.737
1085.52
1081.1
427.226
447.726
1091.64
806.264
3848.59
2227.1
866.839
1106.71
618.016
1682.59
1629.97
1841.2
720.681
3301.51
9008.4
457.611
636.713
538.244
567.536
1277.72
2076.54
1514.64
775.363
1836.83
5600.66
1894.1
1789.22
14383.2
1214.16
1621.08
1415.73
1635.73
1265.27
3423.7
3405.01
1731.44
2010.06
3660.29
1299.11
1326.76
268.126
1074.9
421.422
1154.52
312.615
2958.49
2500.59
1216.18
3177.17
3503.92
3235.25
2720.6
1473.14
3338.51
3822.04
2703.48
3179.46
3989.98
2193.22
2561.53
1815.55
2087.64
3791.01
1870.24
1046.27
781.406
1356.72
1123.42
692.032
439.36
1112.78
2370.09
2592.51
1198.12
1054.52
2202.76
2320.74
2229.46
2103.73
910.714
3107.73
2952.25
2553.12
3076.61
2851.55
1028.27
2764.34
2282.91
2473.63
2608.32
1944.42
896.915
1000.93
2812.93
1194.71
1333.21
1043.82
1153.86
2698.77
2779.41
1428.19
1648.16
452.887
487.961
1144.32
906.077
422.6
444.425
1112.38
1141.43
778.443
271.615
299.511
225.855
261.059
774.007
933.228
348.64
396.748
307.274
334.062
852.793
495.38
187.101
214.838
723.763
740.269
1527.78
1654.89
883.185
2076.62
1905.07
2206.88
1515.34
1425.35
1863.46
1585.67
664.304
1310.75
1513.34
1533.63
517.674
626.432
479.773
500.777
1520.5
670.336
678.124
648.282
667.682
1297.9
427.807
440.994
406.016
423.174
1273.96
1433.59
462.281
475.224
445.332
458.096
1422.65
2524.73
2692.87
1139.61
1218.98
2377.52
2455.5
1023.47
1024.56
1016.11
1023.6
1036.31
1048.09
1025.63
1032.79
691.286
701.117
680.558
688.384
758.357
990.245
704.982
729.836
1613.39
1805.95
1380.97
1546.55
3362.59
2276.64
2453.57
1880.42
2195.05
1127.8
1101.9
467.391
1722.63
1755.32
1660.29
1710.97
1769.23
556.14
1520.81
1168.31
1073.77
873.248
379.259
1216.55
1477.36
1052.88
1114.98
1584.94
1641.78
1500.19
1565.19
422.346
1080.97
1081.03
3548.37
1667.05
3501.78
3157.05
3503.66
1745.52
3887.99
2118.45
3814.53
3466.05
870.496
997.882
1747.82
1699.13
623.409
686.55
1818.85
1765.74
3503.49
1310.82
581.701
795.353
4875.21
5231.66
1905.93
5000.48
4134.23
2198.6
1216.49
4373.99
3093.29
5088.65
3274.04
1605.86
59.3417
40.6331
35.6977
3622.22
3599.92
118.463
65.3428
65.6389
3618.46
1398.48
2586.87
2217.6
328.469
263.414
144.613
268.357
172.391
451.85
1610.15
272.539
298.101
50.1535
59.5193
108.699
410.686
867.604
1075.13
195.651
95.8868
100.464
90.1648
94.4194
191.442
1159.86
1345.24
2621.76
769.974
674.529
363.266
395.597
415.794
901.558
1138.18
1252.6
629.172
102.05
106.995
230.449
305.764
720.404
700.911
678.443
565.767
274.309
797.699
366.102
388.668
3169.91
3020.19
2462.79
1633.9
1604.55
1202.49
2900.46
3533.31
3354.49
1814.77
994.318
1109.54
1767.08
1213.92
1687.9
1664.86
1683.17
1670.19
3408.61
2754.32
2912.07
3593.75
1932.51
1681.48
873.87
1261.64
161.804
124.811
247.345
1152.46
2365.16
2029.57
3988.28
4069.18
4148.16
3671.06
3883.07
82.183
105.887
315.569
1681.4
1403.29
1311.3
1958.17
1814.13
2214.24
2907.52
2778.02
3426.26
3374.53
2864.25
794.591
867.558
1855.87
3183.75
2318.14
2437.1
3091.27
2458.6
2599.15
1050.97
1308.43
1193.49
785.472
553.474
558.343
1142.14
805.416
830.007
564.111
572.113
805.138
158.703
179.697
474.634
628.441
976.438
799.707
1201.37
1161.57
786.844
1654.51
1301.23
1318.03
913.677
920.878
1503.78
1480.26
1501.29
1341.72
1367.48
1333.02
855.228
860.142
838.099
840.827
1224.87
1463.93
900.24
906.929
865.541
871.338
1392.55
729.496
722.893
309.65
336.328
740.116
731.811
522.625
510.259
248.091
1580.55
1589.71
1514.82
1527.42
1736.1
1598.54
1607.43
270.394
548.372
527.059
3300.45
3279.97
2536.68
2627.1
3329.92
3242.02
3263.91
751.831
1536.31
1375.62
339.949
358.676
748.112
650.807
320.865
334.798
1191.62
1189.03
877.914
903.67
1209.68
1196.9
3648.85
1758.22
1196.81
1713.12
13858.8
2847.16
2078.67
3904.77
3455.97
1817.75
1799.64
1225.81
4348.09
4584.49
4517.68
3697.98
1284.84
1855.5
1834.74
2642.67
1488.72
1713.15
3483.36
3604.75
3047.27
2922.31
2317.45
1220.65
1530.95
1363.91
2693.66
3394.43
3219.01
3523.87
3483.55
2839.2
173.325
243.515
1230.08
2195.1
2154.36
2273.28
2239.17
2065.73
1572.03
1569.01
1580.22
1575.09
2103.52
2974.39
1830.73
1845.31
1767.62
1807.55
2994.39
1889.21
1522.79
1457.39
1564.88
1553.77
1933.74
2772.13
1871.08
1880.61
1857.11
1865.49
2842.72
2354.76
2309.39
2268.89
2334.11
1095.7
791.964
795.339
1587.16
1137.14
1136.83
1128.34
1136.03
1563.75
3688.58
3731.14
3399.16
3584.93
1661.68
1688.55
1609.95
1635.33
1924.59
1173.7
1580.68
1564.65
1666
1135.93
1136.82
1136.06
1135.7
1648.51
1565.71
1586.39
1319.56
1551.68
1925.82
3712.5
3635.06
3082.93
3766.91
1689.74
2200.01
11794.8
1265.76
949.884
960.836
1789.44
5668.07
5623.86
8995.99
5315.93
4858.77
1729.05
1709.16
1213.32
1656.74
1696.61
1819.56
1609.53
1813.07
1594
1262.1
1851.64
1697.97
3451.14
3436.2
3629.27
3073.92
3278.06
1280.55
1425.35
995.524
526.903
648.046
1023.68
1073.29
763.559
977.891
1258.42
3361.7
3564.12
3461.58
3534.49
3992.06
3962.69
3725.29
2857.94
3602.34
3363.12
3926.84
3823.35
3020.83
3249.04
3439.89
4084.45
3587.66
2924.09
3075.5
1642.66
1480.78
1729.49
1255.72
1520.86
1693.91
1751.73
1694.91
2408.09
1680.64
1629.1
2113.59
1814.22
2461.27
2239.76
1590.92
1585.48
1608.31
1598.31
2284.44
2190.25
1499.37
1522.25
3072.97
3025.93
2734.68
3091.02
3102.64
2935.64
2834.11
2879.54
2560.3
1644.42
1709.05
1549.78
1588.93
2378.14
3282.42
3091.03
2336.5
3500.69
3481.37
3471.16
2730.48
3403
3394.7
2086.22
2194.63
2992.53
1081.21
1169.76
662.953
750.61
1120.08
819.92
584.936
610.005
1047.65
1008.13
692.363
1127.63
1243
756.855
1128.54
1090.05
1539.82
1264.53
1243.06
1354.96
1295.92
1572.21
2018.47
1941.68
1485.95
1847.51
1895.44
1732.24
1785.64
1463.01
1822.97
1945.49
2093.51
1785.85
984.625
1083.12
1559.64
1512.03
929.394
944.994
1437.31
1458.8
1391.75
1414.98
848.464
851.698
1316.79
1249.33
842.766
845.28
887.523
893.597
1448.28
1410.21
877.167
882.368
2584.05
1905.93
1917.65
1888.44
1895.14
2619.79
2378.04
2020.75
2136.98
1935.02
1964.21
2421.46
1023.65
1520.13
1500.42
1551.21
1536.16
1023.9
1022.88
1432.23
1410.81
1479.02
1456.5
1023.84
1040.19
1638.96
1624.36
1662
1651.91
1044.15
1027.21
1578.77
1565.37
1609.61
1594.43
1029.71
1560.88
1570.97
694.374
982.699
979.607
989.569
986.014
697.639
1539.23
1550.35
1634.88
1654.1
822.031
1157.63
1058.74
1391.2
1377.58
926.993
709.721
998.363
993.537
1019.93
1005.4
716.741
1615.79
1624.39
3105.63
3248.79
3320.85
2739.16
2917.22
2336.93
3255.53
3290.35
3159.16
3215.79
2390.53
1976.97
2877.74
2682.69
3244.7
3091.25
2089.05
1112.94
810.585
824.065
798.984
803.548
1106.11
1733.64
1744.26
1679.13
1698.6
1791.35
1881.94
1505.27
1032.37
1100.28
853.783
920.627
1272.03
1442.98
1809.8
1724.93
1457.02
1060.15
1682.56
1672.3
1705.14
1693.22
1075.12
1604.18
1623.18
1522.86
1544.51
3468.9
2699.57
2824.1
2418.2
2561.4
3356.03
3339.68
3460.76
2957.17
3143.98
3533.31
3787.76
3054.33
3208.98
2742.35
2900.3
3680.29
1744.71
1761.22
1708.5
1727.22
1342.68
1246.3
932.964
1809.33
1834.03
1777.03
1792.59
1731.03
1143.75
1147.77
1138.45
1140.75
1715.22
1804.32
1177.61
1216.97
1153.26
1161.6
1784.46
3617.12
982.566
1037.24
1417.15
4656.08
7495.2
7583.98
6497.89
6821.25
4940.9
2112.35
4696.89
3636.99
3854.96
1220.31
1774.34
1750.97
4375.35
4666.65
4753.22
4091.61
4386.91
5128.55
4791.54
3477.33
4404.59
4143.99
1969.36
1886.23
1383.41
31.7546
31.7635
31.8503
31.7676
31.7832
31.8601
31.7897
31.813
31.8755
31.8218
31.849
31.8949
31.8575
31.8786
31.9121
31.8834
31.8892
31.9192
31.888
31.8762
31.9127
31.87
31.8471
31.8967
31.8386
31.8138
31.8785
31.8061
31.786
31.8635
31.6389
31.6582
31.7358
31.6666
31.6999
31.7597
31.7137
31.7616
31.7959
31.7792
31.8345
31.8386
31.852
31.8948
31.8736
31.904
31.9123
31.8856
31.9086
31.8813
31.8698
31.8681
31.8214
31.8354
31.805
31.757
31.7959
31.7419
31.701
31.7626
31.5326
31.5714
31.6345
31.5884
31.6533
31.6843
31.6802
31.7831
31.7576
31.8243
31.9611
31.8471
32.0068
32.1183
31.9213
32.1402
32.1456
31.9409
32.1289
32.0429
31.9006
32.0072
31.8943
31.827
31.8564
31.7535
31.7497
31.7239
31.6496
31.6843
31.4412
31.5085
31.5528
31.5375
31.6599
31.6491
31.7176
31.9621
31.8089
32.0724
32.506
32.039
32.6793
33.1563
32.2521
33.2449
33.1711
32.2817
33.0581
32.659
32.1337
32.53
32.1885
31.9398
32.0934
31.859
31.7671
31.7961
31.6464
31.6433
31.3666
31.4715
31.4971
31.5197
31.7493
31.6741
31.8659
32.4329
32.046
32.74
34.4391
32.789
35.4409
39.853
33.807
40.345
38.4952
33.7816
37.3427
34.6977
32.9702
34.1215
32.9678
32.3243
32.708
32.1486
31.9108
32.0144
31.7173
31.6562
31.3055
31.4552
31.4658
31.5315
31.909
31.7844
32.1101
33.2042
32.6068
33.8911
40.5102
35.4118
38.906
44.6868
38.0915
58.2247
55.3273
42.613
44.4288
40.8143
38.2201
38.2705
34.5911
33.2835
33.9333
32.6922
32.2589
32.4272
31.8801
31.7491
31.2527
31.4515
31.4535
31.5582
32.0785
31.9532
32.3547
33.8646
33.3973
34.4269
35.7328
35.3583
46.3317
52.0105
50.1743
83.8871
58.0572
50.1002
45.0618
37.0575
35.1474
35.7628
33.4825
32.8706
33.0279
32.1307
31.9359
31.2044
31.4511
31.4514
31.5851
32.2169
32.1162
32.5439
34.297
33.9866
35.1355
36.7316
36.5281
52.4894
61.8644
60.412
126.691
78.6722
71.8384
51.2956
39.6344
37.727
37.7209
34.3689
33.7029
33.71
32.4291
32.203
31.159
31.4512
31.451
31.6092
32.3347
32.2473
32.7034
34.7073
34.3942
35.7141
37.6768
37.3991
59.9454
80.5937
77.3466
140.436
88.324
86.133
55.2424
41.6719
40.2073
39.3411
35.1734
34.583
34.3429
32.723
32.5049
31.1168
31.4542
31.4516
31.6345
32.4552
32.3638
32.8709
35.2505
34.8263
36.501
39.1518
38.7303
69.8121
100.898
96.5655
136.005
88.611
89.1602
57.0347
42.9625
42.0671
40.4286
35.7815
35.3467
34.8352
32.9672
32.79
31.0779
31.462
31.4557
31.6647
32.5946
32.4879
33.0724
35.9997
35.4186
37.6211
42.23
40.6144
84.0108
130.478
123.822
124.409
92.5684
93.2988
57.3095
43.5628
43.172
40.9897
36.1545
35.8967
35.1484
33.1343
33.0166
31.0527
31.4969
31.4647
31.7282
32.8185
32.6332
33.4052
37.3389
36.2213
39.0129
46.3777
44.8305
100.396
180.509
168.474
851.519
450.093
504.61
105.325
64.1558
65.106
56.7414
43.6573
43.6256
41.1355
36.3146
36.2124
35.2921
33.217
33.1624
31.0168
31.5108
31.5011
31.7648
33.0044
32.8652
33.7033
38.8944
37.6602
41.8828
50.3016
51.061
187.423
523.712
399.988
443.746
215.933
234.41
99.1108
62.3913
63.8014
55.6125
43.4059
43.6271
40.9972
36.3116
36.328
35.303
33.2259
33.2253
30.9763
31.5179
31.5134
31.7959
33.2012
33.0518
34.0505
41.5934
39.4321
50.0415
315.959
204.524
857.469
520.419
612.223
301.288
114.503
120.13
93.9083
60.6612
61.9489
54.4344
43.0016
43.307
40.7019
36.1905
36.2874
35.2087
33.1661
33.2153
30.929
31.5142
31.518
31.8169
33.4376
33.2573
34.5081
45.4705
42.4584
58.8473
403.699
344.094
847.026
436.426
496.138
268.092
108.806
112.891
89.8434
59.1246
60.2528
53.3294
42.567
42.8958
40.3732
36.028
36.1533
35.0739
33.0726
33.1451
30.874
31.5
31.5116
31.8291
33.7218
33.5033
35.0845
50.392
46.6092
69.8309
443.063
417.047
785.76
378.176
419.967
243.465
104.866
107.683
86.8301
57.8385
58.781
52.3756
42.1425
42.4586
40.0359
35.8388
35.9823
34.9112
32.955
33.0451
30.812
31.4788
31.4952
31.8385
34.0743
33.803
35.8003
56.2613
51.7655
81.5518
454.709
448.003
714.928
335.475
366.313
224.391
101.876
104.063
84.7365
56.777
57.5528
51.5657
41.7524
42.0415
39.7168
35.6424
35.7899
34.7379
32.8239
32.9231
30.7442
31.4552
31.473
31.8516
34.5055
34.1746
36.6587
62.7727
57.8678
91.8537
450.667
454.824
647.896
302.832
326.524
209.093
99.2772
101.199
83.1215
55.956
56.5477
50.8985
41.4017
41.6611
39.4236
35.4492
35.5936
34.5638
32.6869
32.79
30.6723
31.4333
31.4494
31.8741
35.0207
34.6263
37.6696
68.8438
64.3778
99.6683
438.163
448.131
588.368
277.037
295.834
196.48
96.9391
98.67
81.698
55.3863
55.7919
50.3998
41.0931
41.3205
39.1588
35.264
35.4021
34.3942
32.5486
32.6524
30.598
31.4169
31.4286
31.9105
35.6388
35.1642
38.8937
73.7103
70.1805
105.488
421.432
434.259
536.678
256.092
271.405
185.849
94.8275
96.3914
80.3939
54.9875
55.275
50.0596
40.8362
41.0236
38.9281
35.0896
35.2193
34.2318
32.4115
32.5142
30.5225
31.4094
31.4141
31.9662
36.4131
35.8155
40.3675
77.4749
74.7435
109.777
402.923
416.905
492.076
238.705
251.452
176.723
92.9106
94.3315
79.1923
54.6669
54.9027
49.8169
40.6392
40.7814
38.7394
34.9293
35.0482
34.0793
32.2774
32.3777
30.4473
31.4169
31.4096
32.0523
37.359
36.6359
41.9262
80.3955
78.2773
112.825
384.024
398.197
453.547
223.995
234.804
168.767
91.157
92.4583
78.08
54.3789
54.5929
49.6193
40.495
40.5989
38.5932
34.7862
34.8919
33.9393
32.148
32.2446
30.3745
31.4493
31.4222
32.1862
38.3777
37.6123
43.371
82.6365
81.0152
114.861
365.507
379.338
420.113
211.352
220.66
161.74
89.5385
90.7408
77.0436
54.1082
54.3101
49.4414
40.3872
40.4654
38.4807
34.661
34.7533
33.8131
32.0244
32.1165
30.3065
31.5173
31.4627
32.3783
39.3569
38.6294
44.6336
84.3154
83.1057
116.078
347.778
360.99
390.921
200.337
208.46
155.46
88.0314
89.1523
76.0705
53.8491
54.0427
49.2735
40.3011
40.3641
38.3914
34.5519
34.6324
33.6999
31.9073
31.9946
30.2466
31.6249
31.5406
32.6211
40.2468
39.5887
45.7204
85.5273
84.6594
116.642
331.031
343.495
365.265
190.627
197.797
149.794
86.6162
87.6699
75.1493
53.5983
53.7858
49.111
40.2275
40.2819
38.3169
34.4562
34.5269
33.5981
31.7964
31.879
30.1974
31.767
31.6576
32.896
41.0387
40.454
46.6535
86.3533
85.7677
116.691
315.335
327.007
342.561
181.98
188.374
144.636
85.2769
86.275
74.2702
53.3531
53.5367
48.9515
40.1606
40.2104
38.2513
34.3707
34.434
33.5057
31.6911
31.7696
30.1609
31.9334
31.8068
33.1842
41.7385
41.2222
47.4539
86.863
86.5084
116.34
300.689
311.574
322.337
174.21
179.961
139.904
84.0002
84.9524
73.425
53.1113
53.2926
48.7928
40.0972
40.1447
38.1911
34.2931
34.3507
33.4208
31.5909
31.6657
30.1374
32.1136
31.9776
33.4723
42.3552
41.9003
48.1393
87.116
86.9485
115.686
287.054
297.186
304.207
167.172
172.386
135.533
82.7755
83.6897
72.6067
52.8706
53.0513
48.6333
40.0348
40.0817
38.1336
34.2214
34.2748
33.3418
31.495
31.5666
30.1262
32.2993
32.1598
33.7522
42.8977
42.4976
48.7249
87.1636
87.1457
114.805
274.37
283.795
287.857
160.752
165.513
131.471
81.5941
82.4766
71.8096
52.6289
52.8105
48.4714
39.9719
40.0193
38.077
34.1537
34.2042
33.2672
31.4029
31.4717
30.1261
32.4848
32.346
34.0192
43.3745
43.0229
49.2238
87.0488
87.1487
113.761
262.571
271.339
273.033
154.858
159.232
127.676
80.4487
81.3049
71.0291
52.3846
52.5683
48.3056
39.907
39.956
38.0199
34.0889
34.1374
33.196
31.3139
31.3804
30.1351
32.6663
32.5308
34.2713
43.7933
43.4845
49.6476
86.8081
86.9992
112.604
251.586
259.75
259.521
149.415
153.458
124.112
79.3333
80.1675
70.2613
52.136
52.323
48.1348
39.8391
39.8905
37.9611
34.0258
34.0731
33.127
31.2276
31.2921
30.1516
32.8415
32.7109
34.5078
44.161
43.8898
50.0068
86.4722
86.7319
111.376
241.348
248.958
247.148
144.363
148.118
120.752
78.2432
79.0589
69.5029
51.8819
52.0732
47.9578
39.7673
39.8217
37.8996
33.9635
34.0103
33.0595
31.1434
31.2064
30.1738
33.0092
32.8843
34.7287
44.484
44.2458
50.3107
86.0668
86.3763
110.108
231.792
238.896
235.768
139.65
143.155
117.57
77.1743
77.9745
68.7514
51.6211
51.8176
47.7738
39.6908
39.7488
37.8347
33.9011
33.948
32.9927
31.061
31.1227
30.2004
33.1688
33.0499
34.9347
44.7683
44.5586
50.5677
85.6133
85.9569
108.828
222.859
229.501
225.259
135.236
138.521
114.547
76.1232
76.9103
68.0046
51.3529
51.555
47.5819
39.609
39.671
37.7657
33.8379
33.8854
32.926
30.9799
31.0406
30.2287
33.3136
33.2074
35.1188
45.0113
44.8339
50.7793
85.1368
85.4942
107.568
214.52
220.715
215.55
131.124
134.175
111.702
75.1113
75.8632
67.281
51.087
51.2848
47.39
39.5258
39.5877
37.6961
33.7771
33.822
32.8626
30.9044
30.9598
59.2861
58.3028
50.4256
123.224
179.601
205.651
81.6469
93.0455
80.7367
76.2688
72.7831
57.156
166.797
261.765
262.554
213.459
233.563
145.242
95.188
91.2229
65.7119
168.8
237.702
229.007
262.094
258.866
170.995
121.747
115.893
78.0167
155.041
187.515
184.149
208.65
205.297
164.419
164.807
154.657
90.0386
1278.29
1566.54
1495.3
808.562
847.655
1097.8
142.548
255.359
234.379
180.769
177.52
148.802
370.401
307.643
135.863
750.732
1447.63
1418.45
2107.35
1811.81
1190.72
385.249
399.839
614.44
125.966
208.627
197.308
228.379
212.978
127.665
64.9979
47.9665
39.995
1475.37
1024.3
1942.79
39.6379
47.5166
56.3693
1688.65
1685.54
59.4049
64.8962
72.4529
41.7227
52.9572
46.793
462.393
566.728
620.08
200.498
256.446
193.784
69.2704
60.8678
90.459
47.9835
54.4952
58.2197
47.1556
50.7355
45.3849
37.1542
36.9355
35.2755
48.4441
39.0052
39.5912
38.4197
38.8464
47.7478
1280.68
1681.19
1679.87
1263.93
1270.72
1027.2
85.0547
80.5479
129.85
57.3626
67.6648
70.0127
61.738
64.9139
55.3361
38.3429
37.9914
35.8832
53.9295
40.8927
41.831
39.8186
40.6067
53.1841
85.1135
81.6979
60.9954
204.831
153.361
156.53
136.507
139.118
183.374
856.192
1053.02
1028.13
1374.04
1359.77
1076.88
89.2019
88.7326
140.587
63.0147
74.8098
75.7274
71.9772
73.5714
61.9516
40.1
39.608
36.7493
61.2498
43.5992
44.8455
42.1597
43.222
60.1827
107.16
102.41
71.3034
332.656
211.921
215.994
187.967
192.046
264.179
540.209
687.814
662.583
1031.45
940.048
634.718
44.3313
42.8012
37.9282
71.6999
47.035
48.7906
45.2922
46.5333
70.3184
140.322
132.858
86.1436
551.143
310.891
306.252
265.028
271.601
475.524
1794.31
1889.43
2338.32
350.022
646.833
573.472
482.913
467.22
384.923
50.349
46.9628
39.6274
87.5301
52.3444
57.2649
49.4352
51.5354
84.8617
199.356
184.947
102.073
1253.68
921.598
930.281
657.345
665.324
893.734
2722.57
3526.97
292.993
599.098
2681.62
2055.99
1356.8
1196.23
686.64
124.136
190.866
162.613
291.215
264.357
153.612
83.7945
98.483
89.5715
151.075
142.602
111.042
981.322
1237.41
1254.19
670.022
715.382
561.648
141.205
170.281
114.833
432.626
317.534
290.967
454.299
433.31
710.208
165.578
84.8825
88.797
80.8938
83.7074
162.28
56.3169
71.3638
66.2669
214.284
385.286
369.461
490.571
478.377
224.71
172.038
314.337
298.136
365.365
353.302
198.634
1110.94
1397.42
1386.32
1673.78
1660.82
1271.89
254.998
260.761
157.446
982.107
547.77
548.541
570.767
575.869
915.666
844.865
491.755
473.797
548.488
549.242
975.016
146.919
239.113
252.031
246.418
180.393
184.115
159.755
163.019
220.192
64.4561
89.9565
86.2911
297.637
379.17
372.737
442.554
438.084
347.785
245.083
506.27
494.499
365.016
356.299
283.535
698.778
1172.55
1064.11
1004.85
983.081
799.676
248.555
240.546
169.913
623.397
482.057
492.177
275.69
289.044
574.675
849.527
557.475
564.638
502.177
512.028
740.068
171.353
257.2
251.014
432.152
252.46
258.677
220.293
224.798
366.226
76.2152
114.046
108.818
452.116
589.521
584.897
815.628
811.789
590.134
360.097
452.817
447.312
580.332
575.831
437.094
421.022
516.723
499.439
638.139
615.636
491.55
867.562
634.716
647.688
307.613
316.806
644.515
88.7956
151.56
142.971
857.809
1184.81
1182.97
607.364
821.274
818.547
1174.75
1146.07
811.512
305.546
477.034
430.349
551.806
494.616
289.776
2001.25
1625.13
1706.6
11258.6
2305.62
3521.07
936.922
942.905
1261.7
122.121
241.323
204.422
1075.7
1031.47
830.34
4792.87
4845.13
8843.04
934.084
1178.73
1124.78
36.3067
36.0477
34.6426
44.2577
37.814
38.2849
36.9246
37.6262
43.6879
55.097
53.6779
47.381
84.7272
61.7082
64.3812
58.1705
60.717
81.0531
916.295
1207.14
873.374
64.9329
63.4609
53.4159
137.626
76.3732
79.7761
71.2874
75.2012
134.197
93.8852
88.2945
134.828
65.3454
76.9394
76.984
76.3614
76.7557
65.0095
924.64
1600.92
1380.74
1217
1165.07
934.167
400.431
434.686
815.14
269.664
345.39
333.913
416.836
358.008
277.48
107.803
67.9312
70.3148
65.1317
67.2495
104.831
49.7787
57.3367
56.2948