/*--------------------------------*- C++ -*----------------------------------*\
| =========                 |                                                 |
| \\      /  F ield         | OpenFOAM: The Open Source CFD Toolbox           |
|  \\    /   O peration     | Version:  v1912                                 |
|   \\  /    A nd           | Website:  www.openfoam.com                      |
|    \\/     M anipulation  |                                                 |
\*---------------------------------------------------------------------------*/
FoamFile
{
    version     2.0;
    format      ascii;
    class       volScalarField;
    location    "300";
    object      p;
}
// * * * * * * * * * * * * * * * * * * * * * * * * * * * * * * * * * * * * * //

dimensions      [0 2 -2 0 0 0 0];


internalField   nonuniform List<scalar> 
12556
(
645.993
645.261
643.43
639.557
634.309
622.543
603.337
572.576
525.973
458.573
366.453
249.141
112.013
-33.541
-173.673
-297.183
-398.353
-476.622
-534.247
-574.917
-608.719
-624.532
-633.643
-637.928
646.434
645.971
644.728
641.877
636.646
626.628
609.553
584.022
541.973
479.413
391.139
274.913
134.964
-16.5663
-163.44
-292.412
-397.045
-477.098
-543.321
-581.572
-614.799
-628.815
-636.764
-640.478
647.553
647.705
647.775
647.115
643.442
637.499
625.986
604.87
570.363
514.708
429.259
307.046
150.11
-23.6268
-188.764
-326.503
-431.562
-507.052
-568.778
-600.593
-629.03
-639.142
-644.626
-647.154
648.824
649.84
651.725
654.1
653.167
653.168
649.964
637.326
616.193
575.02
499.131
370.112
180.812
-39.1632
-238.438
-388.987
-491.939
-558.322
-608.267
-629.434
-649.665
-654.134
-656.096
-656.924
649.315
651.31
655.24
661.114
663.965
671.321
679.021
679.276
678.417
663.849
615.23
488.891
238.708
-79.2476
-337.01
-499.212
-586.683
-630.44
-660.501
-666.376
-673.922
-671.234
-668.92
-667.686
648.081
651.05
657.016
666.429
673.716
688.827
708.213
724.185
750.758
779.674
794.252
720.958
356.376
-201.049
-540.674
-676.609
-717.842
-722.974
-721.776
-707.579
-698.706
-687.931
-680.926
-677.448
644.226
648.044
655.776
668.277
680.094
702.194
732.146
763.689
817.368
896.487
1020.78
1201.95
716.643
-641.443
-931.749
-934.715
-882.621
-827.439
-784.231
-747.657
-720.247
-701.452
-689.889
-684.244
636.947
641.381
650.373
665.069
680.866
708.052
745.41
788.703
860.106
968.849
1155.39
1557.39
-2014.47
-1543.7
-1241.55
-1051.32
-925.679
-837.323
-779.525
-734.292
-708.797
-693.485
-686.055
625.633
630.377
639.981
655.751
674.533
704.23
744.776
793.764
868.995
973.079
1110.68
1239.29
-3441.03
-2048.89
-1478.93
-1174.58
-993.364
-868.864
-795.999
-737.031
-707.315
-689.677
-681.128
609.958
614.682
624.213
639.868
660.41
690.01
729.824
779.105
848.952
936.785
1033.6
1108.7
-3366.24
-2117.29
-1534.13
-1206.7
-1009.66
-869.953
-791.948
-726.024
-695.321
-677.165
-668.331
589.906
594.299
603.118
617.571
638.631
665.919
702.01
747.965
809.089
883.694
966.045
1043.61
-2598.56
-1828.69
-1406.35
-1140.7
-969.522
-838.308
-766.456
-700.975
-672.534
-655.659
-647.382
565.737
569.528
577.107
589.508
609.957
633.197
663.421
703.628
754.406
818.276
897.665
997.561
-1730.3
-1386.68
-1168.39
-1003.95
-884.16
-779.364
-722.131
-663.608
-640.026
-625.877
-618.851
537.984
540.987
546.938
556.551
575.402
593.409
616.321
648.735
686.623
736.161
806.441
923.245
-751.032
-898.626
-941.614
-900.486
-836.161
-773.29
-702.977
-664.371
-617.161
-599.876
-589.322
-583.999
507.311
509.462
513.671
520.357
536.944
549.131
563.787
586.992
609.093
636.228
672.367
767.093
227.185
-379.804
-592.096
-662.379
-671.728
-656.601
-619.725
-599.506
-565.248
-554.653
-547.97
-544.515
474.524
475.741
478.051
481.554
495.286
501.204
507.198
520.222
525.058
524.654
508.841
445.44
179.578
-164.038
-373.269
-481.911
-531.154
-548.076
-537.92
-533.221
-511.361
-506.949
-503.88
-502.221
440.434
440.746
441.232
441.74
452.566
452.816
451.121
454.621
444.863
423.56
378.787
287.745
124.963
-84.9043
-249.537
-357.453
-420.672
-454.62
-462.641
-469.421
-458.176
-458.915
-458.916
-458.82
405.848
405.363
404.265
402.194
410.203
405.633
397.707
393.563
373.543
339.992
286.962
203.101
87.9263
-53.6039
-177.252
-270.924
-335.295
-376.535
-396.129
-410.523
-407.536
-412.215
-414.621
-415.737
371.498
370.357
367.968
363.823
369.324
361.057
348.66
339.14
313.404
275.476
223.195
151.315
63.8577
-39.1434
-133.802
-211.846
-271.115
-313.565
-338.941
-357.636
-360.573
-367.95
-372.099
-374.087
337.985
336.336
332.965
327.286
330.709
319.891
304.688
291.877
263.831
225.822
177.603
116.854
47.5843
-31.3536
-105.75
-170.348
-222.738
-263.111
-290.477
-311.04
-317.792
-326.794
-332.052
-334.647
305.766
303.76
299.712
293.013
294.814
282.462
265.824
251.353
223.172
187.182
143.934
92.5495
36.1547
-26.5168
-86.3692
-140.062
-185.575
-222.466
-249.558
-270.369
-279.316
-289.08
-294.93
-297.853
275.17
272.945
268.493
261.225
261.827
248.769
231.723
216.742
189.696
156.629
118.321
74.6546
27.8789
-23.1131
-72.1663
-117.109
-156.377
-189.363
-214.949
-235
-244.954
-254.857
-260.903
-263.949
246.404
244.078
239.452
231.981
231.753
218.616
201.881
187.148
161.912
132.063
98.3316
61.0374
21.742
-20.4649
-61.2365
-99.1124
-132.915
-162.047
-185.529
-204.248
-214.388
-224.007
-229.964
-232.983
219.571
217.237
212.619
205.226
204.472
191.705
175.753
161.743
138.633
111.99
82.3876
50.402
17.1052
-18.2488
-52.486
-84.5856
-113.668
-139.202
-160.351
-177.457
-187.25
-196.312
-201.99
-204.879
194.688
192.419
187.945
180.838
179.794
167.701
152.824
139.814
118.933
95.3367
69.4271
41.9165
13.549
-16.3021
-45.2544
-72.5687
-97.5837
-119.848
-138.645
-154.035
-163.155
-171.504
-176.784
-179.478
171.708
169.555
165.325
158.646
157.497
146.269
132.629
120.766
102.099
81.3289
58.7183
35.0258
10.7882
-14.539
-39.1274
-62.4242
-83.926
-103.257
-119.79
-133.472
-141.736
-149.293
-154.108
-156.57
150.539
148.54
144.619
138.464
137.343
127.092
114.762
104.111
87.5772
69.3992
49.7399
29.3438
8.62274
-12.9123
-33.8324
-53.713
-72.165
-88.8789
-103.289
-115.33
-122.65
-129.391
-133.712
-135.924
131.056
129.234
125.666
120.089
119.099
109.878
98.876
89.448
74.9339
59.1243
42.1133
24.5941
6.9082
-11.3949
-29.1838
-46.1246
-61.9126
-76.2934
-88.7399
-99.2381
-105.583
-111.518
-115.34
-117.299
113.113
111.481
108.291
103.322
102.536
94.3609
84.6687
76.4434
63.8242
50.1787
35.5546
20.5722
5.53884
-9.96973
-25.0488
-39.4309
-52.8746
-65.1715
-75.8145
-84.8791
-90.2533
-95.4115
-98.745
-100.454
96.5485
95.1151
92.3143
87.9644
87.4382
80.2997
71.8795
64.8217
53.9715
42.3087
29.8476
17.1249
4.43518
-8.62544
-21.3297
-33.4602
-44.8248
-55.2525
-64.2405
-71.9803
-76.4062
-80.8259
-83.6892
-85.1575
81.1976
79.9647
77.5573
73.8254
73.6013
67.4772
60.2814
54.3491
45.1492
35.3107
24.8226
14.1327
3.53619
-7.35324
-17.9507
-28.0782
-37.5825
-46.3236
-53.7894
-60.306
-63.8137
-67.5361
-69.9518
-71.1904
66.8843
65.8524
63.8373
60.718
60.8342
55.6973
49.6763
44.8258
37.1689
29.0188
20.3434
11.5007
2.79429
-6.1458
-14.8517
-23.1772
-31.0006
-38.2081
-44.2667
-49.6504
-52.2655
-55.3298
-57.3196
-58.3396
53.4622
52.6275
51
48.4825
48.9624
44.7816
39.8883
36.08
29.8722
23.2954
16.2994
9.15265
2.17195
-4.99657
-11.9833
-18.6685
-24.957
-30.7571
-35.504
-39.8322
-41.5864
-44.0287
-45.6152
-46.4288
40.6764
40.0433
38.8043
36.8887
37.8027
34.5657
30.7602
27.9605
23.1222
18.0227
12.5966
7.02471
1.63849
-3.89914
-9.30311
-14.4768
-19.347
-23.8414
-27.3529
-30.6871
-31.5534
-33.3963
-34.5926
-35.2037
28.6581
28.202
27.3295
25.9848
27.2525
24.9026
22.1505
20.3352
16.8008
13.0989
9.15358
5.06145
1.16846
-2.84713
-6.77463
-10.5372
-14.0805
-17.3487
-19.6822
-22.0757
-22.1788
-23.464
-24.2996
-24.7358
16.2351
16.0218
15.5603
14.8473
16.9902
15.6372
13.9214
13.0883
10.8042
8.43104
5.89492
3.21169
0.741618
-1.83326
-4.36484
-6.79206
-9.07782
-11.1788
-12.3631
-13.8473
-12.6721
-13.3641
-13.8106
-14.0165
7.31504
7.13239
6.90632
6.4953
7.4166
6.54168
5.83888
6.12566
5.04411
3.92581
2.74816
1.40594
0.35353
-0.846898
-2.04235
-3.18806
-4.26657
-5.24586
-5.19236
-5.84621
-5.57409
-5.943
-6.15001
-6.32045
1271.02
-3649.06
-2102.01
1118.61
-3661.75
-3736.44
1049.98
-2825.37
-3582.43
1004.09
-1885.83
-2706.33
930.5
-805.777
-839.406
-1013.62
-1771.19
791.906
314.472
-762.432
181.469
-391.831
-918.914
1560.18
874.309
-1798.07
-468.762
-4537.21
-2409.57
-3355.05
-2161.3
-1647.08
1052.01
1111.05
1230.18
-5155.91
-5244
-3430.61
-2363.74
-2268.89
982.332
1040.65
1100.38
1080.87
1104.35
1140.21
-3929.94
-4609.65
-2705.91
-2081.42
-2328.06
915.95
989.994
1033.89
1026.68
1064.75
1072.99
-2646.46
-3196.33
832.789
918.526
982.898
969.213
1033.36
1052.32
-1537.95
-1470.58
-1975.5
709.572
780.345
906.697
877.69
974.947
998.505
511.235
284.57
322.541
1505.37
1230.03
2142.81
1574.58
-5236.15
-4609.1
-3183.08
-4423.45
-5095.12
1143.3
1158.74
1154.89
1156.16
1147.07
1212.59
1158.56
-4648.72
-5136.61
-3747.9
-5017.86
-4564.93
-5104.45
-5036
-3766.64
1075.38
1099.36
1072.32
1102.56
1077.57
1145.27
1105.33
-3276.81
-3877.55
-3173.23
-3782.36
-3207.75
-4526.07
-3872.23
-3284.45
1053.87
1064.68
1021.36
1067.91
1058.04
1076.19
1067.67
-2048.82
-2569.95
1000.96
1031.9
963.717
-1501.35
1037.45
1005.59
1056.47
1039.08
-1535.95
-950.599
-1400.89
-1494.51
1012.04
974.674
867.367
-51.9341
981.366
901.94
1003.52
981.269
-127.014
1129.48
1258.09
1473.24
1446.04
1568.14
2024.5
-5153.79
-2608.59
1171.16
1162.45
1227
-3161.42
-1837.1
-1584.45
-1968.04
-1904.07
-1843.94
-2102.99
-178.274
-465.002
-819.022
1244.85
1506.58
1397.63
1183.52
2934.63
2097.25
-2342.65
-4258.1
-2954.57
-2144.28
-2429.67
-2235.16
-2525.62
-2020.95
-3130.49
-2599.75
-2352.95
-1131.57
-323.878
-461.693
1431.6
1778.85
2166.01
-2018.64
-279.989
1246.45
-5291.48
-3854.83
-5185.69
-2557.01
-5005.18
-3533.79
-5214.75
-5223.43
-4256.38
-4302.59
-2807.35
-3101.53
-2878.41
-3079.1
-2782.44
-3446.15
-3124.14
-2957
1041.85
1013.87
1003.51
-1517.37
-1761.98
-1836.19
983.306
944.43
928.549
963.815
949.386
984.493
1376.6
1203.46
1345.95
1223.95
1418.48
1137.51
1205.93
1308.06
1926.07
2086.69
2789.84
1467.85
1984.51
1831.51
1979.4
1434.23
-5058.11
-5021.15
1151.44
1147.09
1151.17
1177.84
1127.81
1137.74
1143.24
1129.29
1170.98
-4886.77
-4916.51
-4825.91
-4279.52
-4371.2
-4093.74
-4239.18
-4795.98
-5108.29
-4413.83
-4350.32
-4391.41
-4418.4
-5099.91
1088.06
1086.21
1129.16
1125.88
-3523.47
-3477.55
-3569.21
1064.32
1063.32
1069.3
1068.84
-2738.14
-2449.68
-2344.3
-2469.7
-2759.41
1011.33
982.11
968.377
999.672
986.791
1014.7
-1177.16
1018.83
1015.04
1046.67
1046.05
-1845.5
-1176.68
-1193.39
-1436.26
922.072
898.897
960.602
974.949
468.092
163.355
990.899
-317.699
118.149
-237.072
990.415
-374.391
-264.66
87.0221
-2844.92
-2032.39
-2169.02
548.13
525.611
747.388
643.65
652.599
935.853
197.013
-118.049
-286.847
3913.12
-2200.26
-2348.02
-876.904
-1112.65
-1132.01
-132.086
-364.622
-107.237
2334.01
2535.32
2977.46
-2120.05
-17.395
1798.79
-5195.88
-5684.98
-5650.25
-5248.77
-4068.54
-4252.92
-4080.71
-4855.61
-4721.47
-4485.24
1066.7
1051.6
1046.03
1061.11
1053.75
1067.53
1025.96
1017.04
1042.83
977.188
957.738
952.234
839.538
583.793
340.38
-5176.07
-5624.45
-5699.93
-4873.38
-4041.68
-3701.87
-4310.87
-4126.61
-4904.42
-4758.23
-5018.06
-4902.48
-5054.23
1083.51
1073.3
1063.92
1082.94
1084.57
1080.65
-4027.23
-3876.32
-3744.23
-3527.38
-3292.25
-3504.64
-4235.52
-3851.16
-4037.19
-3575.77
-3784.28
-4190.77
1059.88
1036.12
1028.78
1044.23
1038.38
1060.88
1067.89
1081.64
1077.75
1070.46
1081.4
1062.14
1072.76
1077.02
1081.8
1076.03
1072.89
1067.32
-2269.99
-2409.89
-2140.33
-1368.06
-1362.81
1031.78
1001.34
1051.13
1058.87
1069.74
1061.67
1041.68
-1664.2
872.034
889.52
854.632
950.016
941.148
969.675
131.034
372.311
139.429
980.049
439.522
664.144
503.452
580.354
992.336
987.31
-4446.25
-3016.23
-4063.96
-3275.41
-3329.5
-1864.52
-1990.38
-2008.53
1160.15
1150.15
2630.93
2904.46
3586.02
2694.91
2497.76
-2499.88
-2352.73
-2306.01
-2360.72
-2518.19
-1147.01
-983.681
-990.689
-990.605
-1151.34
-784.393
-940.503
-566.331
-583.374
-736.193
-381.437
-531.701
-471.237
-5529
-4880.53
-4392.91
-5319.16
-5013.71
-4202.56
-3513.85
-4176.47
-5545.65
-5507.1
-5199.8
-5244.75
-5628.17
-5566.47
-4461.78
-4305.87
-4116.64
-4359.01
-4526.88
-4136.08
-4310.04
-4569.08
-4440.5
-4678.25
-4509.1
-2935.74
-2987.06
-2956.62
-2874.82
-2996.18
-3306.81
-3207.31
-3336.57
-3037.21
-3164.53
-3258.31
-1716.75
-1692.03
-1820.31
965.33
959.989
974.675
986.495
973.099
967.985
1279.31
1257.63
1283.87
1358.55
1289.89
1491.66
1386.9
1309.29
1163.13
1213.89
1185.21
1271.2
1225.98
1173.49
1641.16
1684.81
1533.25
1688.38
1608.84
-5562.35
-5596.75
-5150.35
-5719.3
-5715.75
-5715.78
-5549.63
-5408.06
-5721.92
-5583.27
-4877.47
-5399.3
-5546.91
1145.68
1150.36
1153.37
1150.47
1150.55
1147.73
1160.41
1162.48
1155.79
1159.22
1128.74
1160.43
1153.45
1178.81
1163.92
1128.72
1139.9
1150.35
1150.07
1152.15
1150.75
1140.3
-5151.81
-5053.99
-4792.41
-5018.21
-5287.26
-5175.42
1096.66
1091.92
1106.35
1097.27
1085.57
1085.14
1089.45
1085.39
1150.38
1139.46
1161.89
1153.76
1119.53
1108.65
1135.67
1123.95
-3548.87
-3683.26
-3379.59
-3507.12
-3602.51
-3924.3
-4077.58
-3728.83
-3876.48
1074.54
1080.64
1067.31
1086.17
1077.02
1080.66
1087.92
1076.49
1062.04
1080.91
1073.38
1075.67
1075.98
1071.45
1079.65
1079.27
1083.87
1079.25
1073.65
1078.09
1074.16
1073.08
1067.49
1072.54
1074.07
-2528.85
-2595.04
-2655.54
-2516.54
-2701.83
-2634.8
-1162.59
-1320.58
-1352.64
-1159.2
1029.85
1006.24
1056.01
1056.97
1049.6
1043.17
1063.62
1057.34
-1736.59
964.846
937.013
928.182
640.392
544.595
978.281
246.91
412.008
300.856
988.794
-468.04
-38.2836
186.725
-81.0417
973.573
-1760.67
-1443.33
-905.584
-2155.31
-2207.23
-1025.98
-1061.54
-1450.35
-2218.48
-946.512
-938.28
-788.244
-1950.26
-1490.37
-1433.96
3044.57
3363.5
3930.38
-1831
367.021
2460.93
-1039.98
-583.229
-2012.69
-4216.09
-4778.19
-5086.3
1121.02
1107.48
1093.43
1125.73
1112.25
1126.51
-1519.55
-1648.47
-1665.36
-2060.34
-1821.06
-1756.37
982.039
975.968
989.371
-5177.59
-5351.22
-4832.77
1088.94
1076.9
1086.89
1095.63
1097.52
1106.01
1108.35
1118.34
1113.71
1000.78
989.465
984.728
-1516.04
-1470.78
-1460.04
1010.27
1015.3
1007.27
-1597.85
-1611.94
-1525.4
-1359.49
-1345.84
-1476.93
982.534
1001.81
1008.75
1008.64
977.894
-5018.17
-3193.34
-1883.6
-1941.82
-1949.12
-2151.07
-2020.8
-1981
1168.88
-3557.8
-3034.55
-3588.09
-2265.88
-2322.06
-2189.92
-790.334
-805.991
-639.563
-640.48
-734.251
-1043.12
-395.37
-2142.03
-5349.69
-5106.14
-4931.46
-5651.21
-5589.11
-2850.06
-2879.44
-2833.95
-3117.69
-3108.11
-3082.02
-2710.46
-2831.46
-2909.89
-3414.05
-3365.15
-3408.96
-1827.93
-1805.44
-1835.43
1333.63
1363.67
1222.34
1242.73
1269.16
1249.66
1138.91
1157.97
1153.18
1231.73
1216.16
1191.33
1942.53
1744.77
1715.12
1874.23
1831.16
1972.18
1408.45
1449.92
1483.45
1145.74
1147.83
1157.86
1147.29
1148.45
1148.69
1172.36
1174.85
1160.4
1159.91
1129.75
1137.15
1136.13
1149.95
1146.36
1135.39
1139.11
1142.66
1144.96
1136.58
1138.82
1133.99
1091.04
1096.03
1093.41
1082.04
1085.04
1089.07
1136.84
1146.84
1136.98
1148.62
1144.41
1176.2
1172.8
1109.55
1140.15
1135.91
1117.02
1122.24
1133.3
-3700.51
-3752.08
-3449.47
-3496.17
-3520.81
-3803.61
-3825.78
-3695.73
-3829.12
-3688.84
998.626
992.118
1003.07
1024.06
1008.43
1001.8
1022.63
1028.04
1023.04
1011.84
1015.45
1018.43
-1842.32
936.004
937.521
942.59
723.68
943.55
343.554
483.081
605.196
997.034
994.216
990.136
-374.983
-232.955
-207.279
-220.856
987.684
994.443
997.365
-113.344
-186.16
-332.38
-2070.44
-2104.85
-2193.09
-2147.27
-2127.48
3727.48
4366.95
3409.22
-2247.72
-2274.84
-2206.72
-2365.64
-2314.59
-2301.69
-980.434
-75.4117
-1918.79
-5435.33
-5441.7
-5392.66
-5412.43
-5674.01
-5541.03
-5547.92
-5523.39
-5533.7
-5663.68
-4816.51
-4740.67
-4782.26
-4647.85
-4697.48
-4772.97
-5670.97
-5516.13
-5483.18
-5552.03
-5542.57
-5700.22
-4976.18
-4899.37
-4937.2
-4824.42
-4862.52
-4942.22
-5360.77
-5378.16
-5289.48
-5326.74
1080.91
1076.17
1076.37
1071.48
1068.36
1066.73
1072.78
1070.94
1075.19
-1473.41
-1525.36
-1360.38
-1430.1
1042.21
1043.54
1044.02
1041.43
1001.61
1005.05
1015.06
998.462
1062.15
1059.76
1057.17
1065.29
1062.86
1066.56
1051.76
1050.38
1054.61
1038.67
1044.55
-1673.53
-1664.06
-1652.19
-1530.15
915.048
976.103
1129.58
972.561
962.425
959.262
982.887
376.206
357.235
1116.49
985.704
755.109
993.399
1003.12
997.964
981.125
-4684.98
-4967
-4775.17
-3820.95
-3614.87
-2773.17
-4478.16
-4171
-3231.15
-3358.45
-2002.92
-1990.19
-2001.07
1164.11
1132.63
3146.13
3034.66
2849.64
2208.87
2075.64
2641.86
2395.34
2472.4
-2426.96
-2373.09
-2466.7
-1002.41
-1002.6
-991.658
-1095.67
-820.183
-804.593
-791.201
-932.957
-883.74
-876.337
-567.573
-624.809
-624.245
-453.255
-454.59
-498.377
-5385.65
-5260.29
-5446.15
-5223.08
-5447.9
-5534.53
-5560.47
-5505.49
-5522.25
-5428.87
-5443.7
-5429.52
-5416.98
-5504.35
-5603.33
-5490.75
-5508.43
-5459.78
-5474.9
-5585.17
-4413.13
-4341.33
-4389.42
-4410.95
-4472.8
-4186.97
-4211.31
-4176.42
-4259.02
-4618.83
-4659.21
-4624.5
-4540.4
-4595.18
-4437.7
-4488.81
-4564.47
-2971.81
-2899.64
-2885.61
-2913.65
-2848.13
-2898.56
-3038.92
-3065.55
-3015.37
-3271.22
-3312.88
-3341.62
1303.66
1238.69
1180.15
1166.38
1145.91
1181.81
1203.49
1192.04
1645.77
1723.91
1778.05
1959.24
1845.98
1540.38
1503.27
1572.34
-5573.67
-5404.07
-5384.86
-5448.8
-5424.56
-5586.92
-5725.9
-5717.01
-5520.93
-5690.54
-5697.27
-5635.93
-5682.49
-5479.75
-5707.3
-5719.25
-5765.24
-5643.48
1147.49
1149.16
1146.7
1149
1148.7
1148.31
1166.53
1169.36
1161.2
1163.8
1138.22
1137.8
1129.97
1131.31
1142.44
1139.53
1142.36
1141.94
1138.15
1138.11
1141.07
1142.3
-5122.91
-5039.1
-5068.45
-4971.66
-5005.24
-5085.6
-5244.3
-5171.44
-5240.75
-5095.34
-5126.3
-5206.3
1095.71
1096.81
1096.78
1092.95
1095.64
1094.13
1102.1
1099.49
1106.92
1095.68
1095.59
1098.72
1085.83
1087.45
1086.32
1087.79
1088.02
1085.74
1087.38
1086.97
1089.61
1085.11
1085.18
1085.94
1157.44
1153.05
1146.88
1150.21
1154.04
1142.18
1146.18
1143.21
1166.5
1161.48
1123.66
1120.66
1115.74
1118.49
1121.48
1111.17
1106.09
1109.9
1131.83
1134.12
1138.16
1126.1
1130.1
1127.92
1131.93
1127.96
-3631.51
-3660.11
-3574.85
-3546
-3581.09
-3969.68
-4000.86
-3960.64
-4114.16
-4051.24
-4019.91
-3771.02
-3806.84
-3772.99
-3915.86
-3871.43
-3824.41
1075.75
1072.4
1071.06
1075.68
1074.14
1078.13
1081.77
1078.34
1083.49
1085.99
1078.05
1068.67
1065.29
1066.31
1070.36
1069.59
1069.32
1075.06
1069.02
1071.67
1082.06
1080.16
1082.23
1084.07
1086.15
1081.88
1082.83
1080.91
1074.53
1075.98
1072.14
1072.45
-2611.81
-2593.72
-2642.75
-2504.79
-2549.41
-2582.97
-2764.42
-2799.59
-2684.91
-2698.69
-2710.12
-1289.66
-1290.37
-1345.76
-1169.59
-1224.86
-1237.93
1032.73
1025.4
1043.9
1040.25
1011.78
1012.13
1008.38
1014.76
1014.11
1020.58
1017.62
1055.69
1053.8
1053.71
1055.45
1054.38
1056.01
1062.25
1055.96
1055.22
1054.2
1055.1
1059.76
-1785.5
954.374
950.65
962.124
597.681
620.732
690.482
552.49
561.978
536.551
978.292
347.242
293.362
223.55
988.793
990.55
988.628
-445.238
52.8981
-9.97631
167.069
156.767
167.192
-30.3902
-155.17
-140.485
-39.1677
983.998
993.677
987.137
598.542
572.777
553.982
561.713
520.878
496.964
503.772
442.216
415.34
417.198
330.38
305.831
296.647
185.67
170.81
145.09
20.6891
20.6467
-21.6264
-142.49
-128.79
-180.972
-284.633
-262.984
-316.038
-397.3
-373.77
-421.073
-480.776
-459.574
628.209
610.924
580.736
603.1
571.38
531.175
557.358
501.937
454.025
478.046
387.408
341.367
350.379
220.043
192.067
171.231
17.4979
20.178
-33.8529
-178.754
-149.327
-222.602
-337.322
-294.957
-369.929
-451.411
-408.133
-473.702
-528.676
-490.478
668.175
664.144
622.932
661.481
646.867
587.896
638.908
600.405
522.411
580.916
493.101
408.22
451.751
287.217
232.932
220.523
5.31168
15.7925
-65.2323
-253.181
-192.68
-305.703
-432.177
-356.173
-465.346
-541.392
-469.962
-559.918
-600.539
-544.625
713.128
727.744
679.56
732.59
745.929
669.559
749.095
748.873
632.508
743.049
686.622
530.998
646.63
425.816
312.524
317.774
-44.252
-1.31098
-155.808
-413.501
-282.063
-475.121
-600.211
-466.181
-625.378
-672.513
-570.17
-681.484
-696.121
-622.227
754.868
788.818
743.764
802.25
850.326
772.648
869.549
938.402
794.184
964.752
1040.33
756.976
1048.93
779.796
483.171
651.834
-282.352
-73.9502
-470.64
-770.704
-478.187
-812.14
-860.842
-655.323
-862.473
-847.935
-712.361
-839.521
-810.918
-723.514
784.255
832.862
802.018
852.528
926.229
873.468
957.338
1083.02
983.97
1141.57
1473.62
1157.7
1383.54
1543.56
1162.94
1009.13
-93.5558
144.568
-938.607
-993.08
-777.025
-1380.9
-1213.34
-942.92
-1165.61
-1044.73
-896.912
-1011.11
-926.659
-840.634
794.47
848.458
839.581
869.879
946.717
936.728
977.277
1087.06
1096.8
1155.32
1221.09
1225.51
1532.66
1620.22
1658.19
-2729.92
-2256.94
-1794.72
-1958.53
-1534.06
-1303.83
-1433.95
-1208.18
-1091.5
-1151.05
-1016.37
-952.762
784.497
836.223
847.762
856.121
923.232
943.925
947.948
1026.22
1073.79
1090.88
1122.26
1148.23
1212.78
1214.22
1242.26
-3557.09
-2899.76
-2764.23
-2141.51
-1656.21
-1587.4
-1539.35
-1275
-1235.72
-1208.33
-1052.06
-1031.1
757.143
803.152
829.644
820.566
877.627
913.36
898.073
961.466
1009.87
1015.93
1036.64
1055.55
1099.14
1107.81
1121.43
-3113.65
-2670.72
-2816.85
-1922.49
-1548.22
-1648.62
-1451.98
-1224.71
-1272.99
-1165.29
-1022.67
-1050.68
715.838
754.558
792.317
769.349
818.112
863.994
835.971
894.678
945.363
949.775
970.492
986.237
1037.67
1048.97
1056.67
-2271.66
-2049.01
-2293.44
-1502.48
-1292.65
-1494.03
-1233.62
-1084.23
-1196.34
-1042.63
-937.98
-1005.88
663.336
693.137
740.336
704.728
743.72
801.037
758.544
811.222
876.089
878.098
902.622
920.42
990.566
1008.96
1018.15
-1415.23
-1408.62
-1584.73
-1046.98
-988.521
-1217.7
-966.512
-900.144
-1040.41
-878.932
-820.066
-910.587
602.338
621.125
675.999
628.366
652.459
722.462
661.535
694.759
785.686
777.306
798.41
843.782
906.74
938.393
953.841
-492.919
-574.368
-800.074
-479.209
-638.022
-942.443
-667.158
-711.855
-914.527
-717.014
-715.353
-852.644
-711.126
-692.617
-788.243
536.913
543.654
602.981
545.862
551.1
628.982
552.017
550.737
661.746
630.995
638.112
700.881
725.56
730.331
810.101
252.32
24.4851
-79.1902
-199.21
-375.496
-557.033
-416.852
-502.63
-652.591
-521.315
-556.876
-672.641
-563.515
-573.212
-661.487
470.719
466.565
524.074
464.234
453.071
525.698
447.257
420.394
515.33
407.41
347.516
466.011
317.53
190.812
263.555
137.492
-43.4614
-89.8515
-98.0795
-237.254
-332.37
-274.764
-362.185
-461.692
-384.191
-433.634
-522.711
-445.52
-470.796
-545.826
408.258
395.826
448.112
390.349
368.478
430.514
358.951
322.042
392.919
306.806
245.009
316.55
220.254
129.821
171.849
95.724
-21.8369
-35.4898
-59.1865
-161.83
-213.811
-191.864
-268.418
-335.362
-289.546
-340.973
-408.14
-354.534
-386.356
-448.171
352.068
334.584
379.574
327.394
300.793
350.013
290.044
251.854
302.22
237.119
181.768
226.438
162.239
93.5901
119.075
68.9869
-14.8071
-19.3197
-41.9021
-119.192
-148.96
-142.848
-206.193
-250.42
-224.646
-272.134
-321.658
-285.468
-318.79
-367.934
303.027
283.152
320.836
275.319
247.706
286.284
237.069
201.101
237.641
187.693
139.958
169.757
124.316
70.0705
86.7909
51.11
-12.2876
-13.9322
-32.934
-92.9253
-111.488
-111.761
-163.781
-194.1
-179.475
-221.377
-258.002
-233.627
-265.489
-304.277
260.884
240.423
271.708
232.599
205.926
236.32
195.985
163.392
190.644
151.478
110.71
131.703
97.9094
53.8624
65.4653
38.6638
-11.2421
-11.9466
-27.5528
-75.3824
-87.9119
-90.6281
-133.571
-155.299
-146.826
-183.111
-210.814
-194.012
-223.156
-254.008
224.878
204.936
230.929
197.477
172.665
196.905
163.636
134.602
155.482
124.123
89.3216
104.759
78.6536
42.2082
50.5931
29.7144
-10.653
-11.0727
-23.8752
-62.8243
-71.8725
-75.3535
-111.103
-127.354
-122.308
-153.512
-175.016
-163.065
-189.11
-213.974
194.111
175.308
197.028
168.393
145.806
165.418
137.734
112.075
128.465
102.902
73.1265
84.8667
64.1099
33.5574
39.8046
23.1138
-10.1617
-10.5284
-21.0774
-53.3056
-60.2121
-63.731
-93.7355
-106.359
-103.239
-130.024
-147.145
-138.335
-161.313
-181.657
167.731
150.382
168.675
144.085
123.803
139.9
116.652
94.0713
107.205
86.0625
60.5193
69.6907
52.8189
26.9762
31.7423
18.1481
-9.64523
-10.0373
-18.7729
-45.7518
-51.2628
-54.5103
-79.8624
-89.9864
-87.9507
-110.945
-124.893
-118.148
-138.267
-155.169
144.993
129.228
144.771
123.564
105.526
118.921
99.2262
79.4148
90.1315
72.4354
50.4785
57.8044
43.855
21.8692
25.576
14.3527
-9.06979
-9.50736
-16.7689
-39.5365
-44.0902
-46.9451
-68.4731
-76.8121
-75.376
-95.1231
-106.719
-101.352
-118.881
-133.126
125.276
111.116
124.439
106.071
90.1453
101.436
84.6173
67.291
76.1739
61.2196
42.3283
48.2896
36.6059
17.8407
20.77
11.4145
-8.4355
-8.9165
-14.9654
-34.2777
-38.1431
-40.5718
-58.9101
-65.9307
-64.8109
-81.768
-91.5773
-87.1439
-102.358
-114.52
108.064
95.4715
106.993
91.016
77.0433
86.6768
72.2125
57.117
64.5853
51.8488
35.6033
40.533
30.6504
14.6182
16.9649
9.11535
-7.75425
-8.26918
-13.3076
-29.7308
-33.0813
-35.0888
-50.7293
-56.7486
-55.7745
-70.3209
-78.7445
-74.9497
-88.1035
-98.6109
92.9378
81.8418
91.8903
77.9386
65.7572
74.0674
61.5579
48.4687
54.8279
43.9142
29.973
34.1084
25.6887
12.0074
13.911
7.29917
-7.04082
-7.57853
-11.7648
-25.7325
-28.6845
-30.2928
-43.6222
-48.8611
-47.9294
-60.3785
-67.7065
-64.3508
-75.6742
-84.8487
79.5477
69.8641
78.7047
66.4741
55.9322
63.1766
52.3066
41.0278
46.508
37.1114
25.1956
28.711
21.5008
9.86691
11.4293
5.85173
-6.30892
-6.85936
-10.3179
-22.1688
-24.8042
-26.0398
-37.3656
-41.9849
-41.0301
-51.6405
-58.0902
-55.0329
-64.7261
-72.8172
67.6045
59.2448
67.0918
56.33
47.2909
53.6711
44.1884
34.5511
39.3287
31.209
21.09
24.1162
17.9221
8.09126
9.38862
4.6878
-5.56998
-6.12478
-8.9543
-18.9562
-21.335
-22.2244
-31.7934
-35.9131
-34.8923
-43.8774
-49.615
-46.7544
-54.9894
-62.1934
56.8655
49.7438
56.7734
47.2692
39.6126
45.29
36.9894
28.849
33.0622
26.0274
17.5175
20.1555
14.8259
6.59999
7.69075
3.74239
-4.83307
-5.38573
-7.66487
-16.0318
-18.2
-18.7666
-26.7779
-30.4911
-29.3742
-36.9096
-42.0662
-39.3251
-46.2483
-52.7232
47.123
41.16
47.5195
39.0945
32.7162
37.823
30.5351
23.769
27.5289
21.4231
14.368
16.6978
12.1119
5.33002
6.25998
2.96486
-4.10488
-4.6506
-6.44196
-13.3456
-15.3395
-15.6027
-22.2171
-25.598
-24.3619
-30.5918
-35.2735
-32.5904
-38.3243
-44.2008
38.1989
33.3242
39.1377
31.6407
26.4523
31.0981
24.6815
19.1871
22.5844
17.2798
11.5532
13.6392
9.69957
4.23154
5.03697
2.3155
-3.3902
-3.92557
-5.2789
-10.8568
-12.7063
-12.6809
-18.0281
-21.1375
-19.7627
-24.8044
-29.0987
-26.4226
-31.0686
-36.4559
29.9369
26.0902
31.4656
24.766
20.6933
24.972
19.3065
14.9989
18.1103
13.4997
9.00007
10.896
7.5224
3.26394
3.97459
1.76215
-2.69209
-3.21498
-4.16923
-8.53062
-10.2613
-9.95731
-14.1407
-17.0301
-15.4982
-19.4458
-23.4275
-20.7132
-24.3533
-29.3457
22.2006
19.3318
24.3619
18.3479
15.3293
19.3218
14.3048
11.1145
14.0063
9.99907
6.64551
8.39777
5.52322
2.39296
3.03396
1.27811
-2.01233
-2.52155
-3.10665
-6.337
-7.9711
-7.39423
-10.4948
-13.2085
-11.5013
-14.429
-18.1621
-15.3688
-18.0677
-22.7467
14.8699
12.9387
17.7048
12.2791
10.2622
14.0411
9.58157
7.45228
10.1852
6.70125
4.43211
6.0835
3.65032
1.58962
2.18221
0.841659
-1.35076
-1.84666
-2.08418
-4.2487
-5.80644
-4.95776
-7.03736
-9.6146
-7.71264
-9.67709
-13.2184
-10.3071
-12.114
-16.552
7.84827
6.81989
11.3881
6.4698
5.40244
9.0343
5.04779
3.93253
6.56632
3.53296
2.30117
3.89623
1.85039
0.833075
1.39187
0.439005
-0.705091
-1.18952
-1.09438
-2.24161
-3.74069
-2.61802
-3.72134
-6.19682
-4.07972
-5.12243
-8.52192
-5.45606
-6.40935
-10.6665
1.4122
1.21148
5.32319
1.14492
0.911645
4.20895
0.82612
0.506807
3.06735
0.391225
0.406463
1.76579
0.382621
-0.0588814
0.651847
-0.132151
-0.265037
-0.543581
-0.316115
-0.472945
-1.74798
-0.527586
-0.691367
-2.90714
-0.746109
-0.910962
-4.00444
-0.965782
-1.14486
-5.00805
1277.47
1320.97
1308.37
-3528.75
-3925.09
-4113.3
-2202.94
-2576
-2404.7
1126
1139.46
1129.29
-3730.44
-4088.43
-3958.91
-4152.48
-4228.02
-3794.62
1059.71
1069.28
1056.85
-2942.94
-3149.17
-2948.08
-3906.24
-3737.43
-3491.29
1021.23
1028.95
1010.18
-2000.93
-2058.91
-1935.79
-2822.19
-2691.79
-2588.37
958.708
972.978
944.687
-853.905
-846.962
-800.206
-852.33
-937.607
-928.969
-1325.06
-1356.36
-969.922
-1813.34
-1691.62
-1657.36
834.201
871.709
825.977
189.868
442.391
576.357
-741.659
-591.759
-643.523
63.8458
-6.72094
121.372
-580.574
-430.38
-206.939
-848.994
-523.296
-652.85
2040.66
1693.75
1446.2
3833.31
4212.56
4733.76
1131.55
1580.7
1324.61
1210.41
2696.61
-1511.73
-1485.55
-1830.73
-25.6247
-366.113
-852.414
-4427.61
-4596.85
-4698.27
-2487.59
-2965.11
-2803.35
-2706.08
-2379.71
-2928.24
-2017.17
-2239.76
-2418
-1768.73
-2018.6
-1842.33
1075.97
1098.14
1071.16
1150.05
1121.96
1087.47
1182.7
1137.96
1166.49
-5173.33
-5302.31
-5283.92
-5390.65
-5389.33
-5248.29
-2865.72
-2896.15
-3549.49
-2368.3
-2649.38
-2633.31
-2545.74
-2621.94
-2337.66
1002.28
1018.97
998.894
1063.43
1036.27
1013.31
1074.65
1047.14
1071.95
1089.38
1103.01
1089.83
1109.75
1106.05
1101.02
1134.94
1130.92
1136.3
-3971.7
-4027.81
-3978.8
-4692.27
-4650.95
-4569.55
-2381.56
-2594.59
-3016.5
-2182.04
-2387.92
-2262.54
-2579.91
-2495.8
-2265.82
938.12
954.624
933.198
1009.18
973.64
952.345
1003.6
983.126
1015.23
1040.22
1046.5
1032.06
1064.96
1058.56
1057.59
1069.27
1066.86
1070.61
-2723.5
-2773.58
-2693.82
-3301.32
-3175.14
-3116.13
857.212
891.636
856.75
949.835
904.867
870.812
941.866
914.812
958.792
994.526
1005.45
982.991
1037.02
1024.83
1018.55
1041.62
1038.77
1047.62
-1533.32
-1580.04
-1589.01
-1685.4
-1741.8
-1504.94
-2003.23
-1927.75
-1902.56
724.053
780.749
744.417
846.249
794.003
734.649
857.66
811.949
864.048
914.725
932.932
898.35
974.467
969.05
967.715
992.753
990.416
996.029
385.509
571.823
604.357
324.149
530.764
366.904
551.659
514.07
364.707
1443.69
1403.38
1502.73
1198.39
1228.56
1251.02
2090.86
2213.8
2286.78
1568.77
1660.5
1653.2
-5221.59
-5375.65
-5387.92
-4784.29
-4863.84
-4699.7
-3514.38
-3843.68
-3373.72
-4562.82
-4286.38
-4148.31
-4760.8
-4716.22
-5032.34
1149.44
1142.12
1129.95
1161.89
1146.42
1151.06
1141.18
1144.58
1157.65
1154.26
1151.62
1152.34
1157.65
1157.26
1149.32
1198.2
1173.99
1191.34
1152.45
1154.17
1161.71