/*--------------------------------*- C++ -*----------------------------------*\
| =========                 |                                                 |
| \\      /  F ield         | OpenFOAM: The Open Source CFD Toolbox           |
|  \\    /   O peration     | Version:  v1912                                 |
|   \\  /    A nd           | Website:  www.openfoam.com                      |
|    \\/     M anipulation  |                                                 |
\*---------------------------------------------------------------------------*/
FoamFile
{
    version     2.0;
    format      ascii;
    class       surfaceScalarField;
    location    "300";
    object      phi;
}
// * * * * * * * * * * * * * * * * * * * * * * * * * * * * * * * * * * * * * //

dimensions      [0 3 -1 0 0 0 0];
oriented        oriented;


internalField   nonuniform List<scalar> 
25162
(
0.000430564
0.916219
0.000526854
0.916604
0.000611601
0.916565
0.000294237
0.9166
0.000366872
0.458339
0.000305373
0.458312
0.000370032
-0.000382222
-0.000467491
0.458292
0.000525476
-0.00058287
0.458241
0.000676816
-0.000778143
0.458221
0.000886999
-0.00101189
0.458202
0.00114534
-0.00127829
0.458204
0.0014093
-0.00153628
0.458233
0.00163496
-0.00171013
0.458292
0.00175195
-0.00175473
0.458367
0.00172253
-0.00165952
0.458423
0.00156604
-0.00145993
0.458452
0.00134315
-0.00121211
0.458454
0.00109266
-0.000973361
0.458463
0.000825505
-0.00077999
0.458434
0.000695649
-0.000573952
0.458451
0.000473276
-0.00180475
0.918581
0.000289388
-0.000415741
-0.00112804
0.918673
-2.65953e-05
0.915749
0.913773
0.0011878
0.915032
0.00187154
0.91592
0.00210332
0.916333
0.000575867
0.917158
0.000970246
0.458097
0.000685696
-0.458207
-0.458197
-0.000834764
0.458009
0.00102266
-0.458067
-0.00125626
0.457782
0.00072444
0.000816557
-0.228985
-0.000874352
0.2289
0.000959402
-0.00126854
-0.228934
0.228822
0.00138016
-0.0017678
-0.228891
0.228747
0.00191171
-0.0023514
-0.228885
0.22873
0.00250648
-0.00291782
-0.228932
0.228797
0.00305195
-0.00332751
-0.229044
0.228975
0.00339654
-0.00344353
-0.229191
0.229204
0.00343083
-0.00323364
-0.229308
0.229391
0.00315038
-0.00279652
-0.229376
0.229499
0.00267384
-0.00226341
-0.229386
0.229516
0.00213325
-0.00174852
-0.229367
0.229478
0.001638
-0.458789
-0.00241951
0.460116
0.00109322
0.000124219
0.460806
-0.00173291
-0.459197
-0.00197793
0.917883
0.000763077
0.00191304
-0.00119993
0.917895
0.000259599
0.914289
0.914033
0.00150671
0.913525
0.00403292
0.913394
0.00680171
0.913565
0.00275914
0.914998
0.00620215
-0.458078
0.45793
0.00290669
-0.457854
-0.00285874
0.458538
0.00217441
-0.457399
-0.00221402
0.457223
0.00116049
0.00123028
-0.228539
-0.00143752
0.228382
0.00159445
-0.228328
-0.00215978
0.228107
0.00238067
-0.228138
-0.00313507
0.227863
0.00340982
-0.228071
-0.00431187
0.227761
0.0046224
-0.228247
-0.00551873
0.227987
0.00577882
-0.228718
-0.00639597
0.228592
0.00652196
-0.229332
-0.00664044
0.229391
0.00658116
-0.229846
-0.00618416
0.230046
0.00598461
-0.230106
-0.00525444
0.230381
0.00497894
-0.230133
-0.00415378
0.230408
0.00387881
-0.00282741
-0.230067
0.23068
0.00221461
-0.4626
0.00102771
0.46125
0.000321572
-0.459801
-0.00061486
0.459664
0.0007519
-0.000347198
0.919347
-0.000720229
-0.000397046
0.00132836
0.91622
0.000623536
0.914994
0.914657
0.000513272
0.913012
0.00111294
0.912794
0.00228715
0.91239
0.00309173
0.912129
0.00206497
-0.457204
0.4568
0.00349518
-0.460125
-0.00466345
0.457128
0.00766038
-0.458758
-0.00885703
0.460385
0.0019318
0.00529848
-0.227806
-0.00187006
0.227631
0.0020451
-0.227298
-0.00283946
0.22698
0.00315755
-0.226796
-0.00429311
0.22636
0.00472898
-0.226552
-0.00616504
0.226033
0.00668404
-0.226893
-0.00826512
0.226398
0.00876018
-0.228047
-0.00996023
0.227795
0.0102125
-0.229633
-0.0104127
0.229756
0.01029
-0.230892
-0.0094763
0.231271
0.00909711
-0.231454
-0.00778072
0.231938
0.00729681
-0.233765
-0.00111788
0.237635
-0.00275159
-0.00275835
-0.231341
0.231273
0.00282688
-0.461025
-0.004299
0.461992
0.00333214
-0.460239
-0.00232462
0.46106
0.00150357
0.00240539
0.918978
-0.00112108
-0.000915251
0.00175999
0.916865
0.000818616
0.915935
0.915475
0.000143709
0.912868
0.000330848
0.912607
0.000654376
0.912067
0.00122802
0.911135
0.000420159
-0.456559
0.455797
0.00199045
-0.455757
-0.00236993
0.455184
0.00294268
-0.454374
-0.00373273
0.453689
0.0023471
0.00207093
-0.22836
-0.00413081
0.226531
0.00596002
-0.226655
-0.0090902
0.228451
0.0072938
-0.224841
-0.00507383
0.224331
0.00558372
-0.224044
-0.00768866
0.223212
0.00852032
-0.224324
-0.0112879
0.22337
0.0122421
-0.226713
-0.0146686
0.226198
0.0151836
-0.230343
-0.0154325
0.230823
0.0149519
-0.23288
-0.0119265
0.233786
0.0110209
-0.241213
-0.00102805
0.237939
0.00430176
-0.23313
-0.00641284
0.233647
0.00589652
-0.00434289
-0.232399
0.232841
0.00390092
-0.46339
-0.00508298
0.464706
0.00376739
-0.461813
-0.00286245
0.462585
0.00209025
0.00319206
0.920492
-0.00272827
-0.00197711
0.00177079
0.918286
0.00080947
0.916897
0.916285
-0.00010695
0.912975
-0.000125118
0.912625
8.09722e-05
0.911861
0.000245328
0.910725
0.0002457
-0.454942
0.454669
0.000519032
-0.45473
-0.00144397
0.454014
0.00215986
-0.452965
-0.00264451
0.452036
0.00175559
0.00181812
-0.225382
-0.00221258
0.225144
0.00245082
-0.223789
-0.0034767
0.223343
0.00392311
-0.224025
-0.00764855
0.221742
0.00993139
-0.221753
-0.0139052
0.222417
0.0132412
-0.219765
-0.0165903
0.219481
0.0168739
-0.223858
-0.021913
0.222811
0.0229599
-0.234511
-0.0201855
0.234927
0.0197689
-0.243402
-0.0100594
0.241175
0.0122861
-0.236807
-0.0116076
0.237942
0.0104718
-0.235744
-0.00750128
0.236638
0.00660737
-0.00394773
-0.234601
0.235073
0.00347635
-0.465818
-0.00539756
0.466952
0.00426384
-0.462972
-0.00344553
0.463321
0.00309636
0.00270664
0.922377
-0.00224835
-0.00234333
0.00150419
0.919489
0.000622327
0.917779
0.916907
-0.000483405
0.913458
-0.000843332
0.912985
-0.00106377
0.912081
-9.84435e-06
0.910405
-0.000734074
-0.454549
0.454272
0.000267341
-0.453009
-0.000479277
0.452674
0.000814103
-0.45173
-0.00173895
0.45138
0.000993276
0.00109595
-0.224379
-0.00134344
0.224174
0.00154846
-0.222331
-0.00240328
0.221919
0.00281533
-0.219048
-0.00403115
0.21852
0.0045584
-0.215665
-0.00771593
0.213522
0.0098591
-0.214133
-0.0225045
0.109143
0.103687
0.00987649
0.0139312
-0.0175962
-0.108753
0.108131
0.0182191
-0.0146636
-0.243826
0.0282132
-0.0149241
0.122161
0.123039
-0.0214982
-0.24374
0.24652
0.0187182
-0.242441
-0.0116341
0.243919
0.0101553
-0.239221
-0.00733053
0.240088
0.00646317
-0.0043351
-0.23649
0.237055
0.0037696
-0.468094
-0.00476566
0.468726
0.0041341
-0.464127
-0.00312337
0.464936
0.00231437
0.00166045
0.923803
-0.00144291
-0.00164351
0.000794176
0.920355
0.000302426
0.91827
0.917209
-0.000870701
0.914329
-0.00169105
0.913805
-0.00232109
0.912711
-0.00118212
0.910979
-0.00171289
-0.454238
0.454251
-0.00119454
-0.452534
0.001251
0.452447
-0.00116413
-0.450124
0.00101948
0.44986
-0.000333606
-0.000422184
-0.22371
-0.000226317
0.223616
0.00032018
-0.221168
-0.000473355
0.221261
0.000380088
-0.217427
-0.000642825
0.2172
0.000869392
-0.21094
-0.00167801
0.210728
0.00188954
-0.0991104
-0.00146378
0.0993502
0.00122404
-0.0230851
-0.132188
0.134605
0.0206678
-0.021201
-0.256041
0.2593
0.0179421
-0.248611
-0.0112244
0.250171
0.00966498
-0.243004
-0.00625882
0.243871
0.00539134
-0.00336664
-0.238694
0.239157
0.00290385
-0.46976
-0.0031079
0.470619
0.0022486
-0.465599
-0.00163298
0.466178
0.00105433
-8.75804e-05
0.924523
-7.77802e-05
-0.000554243
-0.000271064
0.920539
-0.000181817
0.918181
0.917028
-0.00124623
0.915575
-0.00241984
0.914979
-0.00366008
0.913951
-0.0021182
0.912064
-0.00262692
-0.454432
0.454613
-0.00229918
-0.452524
0.00250342
0.452716
-0.00269535
-0.44976
0.00287029
0.449922
-0.00141688
-0.0016147
-0.223814
0.00168517
0.223853
-0.00172437
-0.221185
0.00188692
0.22125
-0.00195159
-0.217181
0.00222912
0.217328
-0.00237558
-0.211543
0.00314497
0.212005
-0.00360655
-0.102911
0.00308771
0.103293
-0.00347004
-0.0105156
-0.147397
0.148185
0.00972805
-0.0100069
-0.267056
0.268581
0.00848134
-0.25398
-0.0051212
0.254773
0.00432862
-0.24571
-0.00251695
0.246074
0.00215299
-0.00123352
-0.240218
0.240456
0.000995643
-0.471759
-0.000661123
0.472723
-0.000303279
-0.46648
0.000760478
0.466683
-0.000963666
-0.0022318
0.924118
0.00151313
0.00112369
-0.00159943
0.919907
-0.000837437
0.917419
0.91619
-0.00158335
0.917158
-0.00327303
0.916668
-0.00488571
0.915564
-0.00304142
0.913769
-0.00355018
-0.454971
0.455329
-0.00339902
-0.452976
0.00380451
0.453447
-0.0042756
-0.45024
0.00471552
0.450808
-0.0024712
-0.0028123
-0.224151
0.0029422
0.224294
-0.0030855
-0.221672
0.00360671
0.221877
-0.00381183
-0.218014
0.00452677
0.218304
-0.00481669
-0.213369
0.00586697
0.213788
-0.00628534
-0.10466
0.00378354
0.104769
-0.00193799
-0.00195431
0.00548311
-0.147594
0.146872
-0.00476114
0.00506806
-0.269494
0.268709
-0.00428266
-0.255432
0.00288377
0.255164
-0.00261604
-0.246542
0.00207061
0.246414
-0.00194298
0.00161696
-0.240673
0.240604
-0.0015488
-0.472758
0.00304505
0.472373
-0.00265954
-0.466561
0.0026226
0.466981
-0.00304274
-0.00462447
0.922537
0.00336044
0.00284529
-0.00304868
0.918331
-0.0015498
0.91592
0.914641
-0.00200694
0.919165
-0.00399635
0.918658
-0.00611
0.917677
-0.00393275
0.916009
-0.00441669
-0.455857
0.456383
-0.00445879
-0.453978
0.00510064
0.454559
-0.00568122
-0.451715
0.00635827
0.452851
-0.00366053
-0.00383378
-0.224872
0.00405436
0.225104
-0.00428573
-0.222635
0.00507711
0.222929
-0.00537139
-0.219284
0.00636444
0.219647
-0.00672729
-0.21496
0.00787719
0.215342
-0.0082588
-0.105382
0.00457704
0.10544
-0.00230639
-0.00232836
0.0147404
-0.139843
0.138683
-0.01358
0.0166695
-0.264019
0.261849
-0.0144997
-0.253013
0.00985463
0.251941
-0.00878261
-0.245349
0.00644076
0.244718
-0.00580983
0.00443745
-0.239917
0.239612
-0.00413252
-0.471681
0.00662037
0.470719
-0.00565823
-0.467285
0.00480115
0.466512
-0.00402873
-0.00684869
0.919985
0.00485655
0.00454338
-0.00446416
0.915946
-0.00219776
0.913654
0.912443
-0.00239376
0.921559
-0.00479528
0.921059
-0.00731341
0.920196
-0.00473119
0.918553
-0.00512639
-0.45706
0.457735
-0.00540663
-0.455333
0.0061582
0.456139
-0.00696438
-0.453954
0.00783699
0.455211
-0.00447457
-0.00461926
-0.225899
0.00498853
0.226197
-0.0052862
-0.223928
0.00627318
0.224301
-0.00664573
-0.220857
0.00786771
0.221305
-0.00831565
-0.216588
0.00973608
0.217066
-0.0102144
-0.105831
0.00567553
0.105901
-0.00285543
-0.00289076
0.0182247
-0.130672
0.129507
-0.0170589
0.0224112
-0.254836
0.252465
-0.0200402
-0.248141
0.0143899
0.246742
-0.0129903
-0.242245
0.00962745
0.241221
-0.00860351
0.00662962
-0.238037
0.237425
-0.00601763
-0.469528
0.00963813
0.468114
-0.00822386
-0.465678
0.00699235
0.464637
-0.00595119
-0.00886927
0.918144
0.00559918
0.00511142
-0.00570836
0.912786
-0.00276789
0.910714
0.909675
-0.0064184
0.927977
-0.0129979
0.927639
-0.0196536
0.926851
-0.00563566
0.925608
-0.0210731
-0.458483
0.45934
-0.00649192
-0.456971
0.00738133
0.457976
-0.00838706
-0.456398
0.00936639
0.457251
-0.00506716
-0.00515214
-0.227154
0.00570307
0.227488
-0.00603689
-0.225497
0.00717093
0.225922
-0.00759562
-0.222784
0.00903563
0.223322
-0.0095727
-0.218808
0.0113992
0.219503
-0.00601213
-0.00608207
-0.0534167
0.0035244
0.0534521
-0.00355986
-0.0573907
0.00653232
0.0569285
-0.0127585
0.00668833
0.0168687
-0.122476
0.241722
-0.0302916
0.0166033
-0.122426
-0.245828
0.0230213
0.243438
-0.0206315
-0.242011
0.0158711
0.240553
-0.0144138
-0.238453
0.0110748
0.237539
-0.0101605
0.00788555
-0.235443
0.234808
-0.00725141
-0.466384
0.0116859
0.464654
-0.00995563
-0.463553
0.00868157
0.462374
-0.00750279
-0.0104651
0.915128
0.00700604
0.00647494
-0.00672973
0.90905
-0.00331265
0.907297
0.906362
-0.00284642
0.930824
-0.005771
0.930563
-0.00885129
0.929931
-0.00601895
0.928956
-0.00618016
-0.462116
0.463001
-0.00690315
-0.460783
0.00786798
0.461818
-0.00890317
-0.459074
0.0100273
0.460308
-0.00559534
-0.0056665
-0.228603
0.00626188
0.22897
-0.00662865
-0.22733
0.00785502
0.227792
-0.00831711
-0.225215
0.00991628
0.225833
-0.0105346
-0.222402
0.01277
0.223331
-0.00682614
-0.00687311
-0.0549858
0.00871548
0.110377
-0.0549238
-0.00456488
-0.00461791
-0.11091
0.00914835
0.110892
-0.0180497
0.00891884
0.0301512
-0.235571
0.233773
-0.0283528
-0.2375
0.0191613
0.236249
-0.01791
-0.237234
0.0147234
0.236691
-0.0141806
-0.235059
0.0110183
0.23444
-0.0103988
0.00820836
-0.232992
0.232442
-0.00765765
-0.463181
0.0124313
0.461912
-0.0111617
-0.461181
0.00991363
0.459747
-0.00847923
-0.00982803
0.911338
0.0067461
0.00687242
-0.00737527
0.906598
-0.00360647
0.903528
0.902756
-0.00298805
0.933812
-0.00605564
0.933631
-0.00927728
0.933153
-0.006333
0.932435
-0.00642402
-0.463941
0.464877
-0.00726911
-0.462878
0.00827531
0.46395
-0.00934745
-0.461561
0.0105041
0.462821
-0.00586742
-0.00589662
-0.23009
0.00655912
0.230463
-0.00693253
-0.229189
0.00816884
0.229647
-0.00862618
-0.227723
0.0102209
0.228339
-0.0108373
-0.226216
0.0130526
0.227116
-0.0139526
-0.113501
0.0173291
0.225529
-0.0165733
-0.112784
-0.224942
0.0223758
0.225557
-0.0229907
-0.230469
0.0225481
0.229851
-0.0219302
-0.232559
0.0194192
0.231631
-0.0184916
-0.232591
0.0157311
0.231714
-0.0148538
-0.231674
0.0124214
0.230935
-0.0116827
0.00968331
-0.232095
0.229867
-0.00745588
-0.460833
0.0141197
0.458087
-0.0113732
-0.458268
0.0102236
0.456545
-0.00850089
-0.0101737
0.90765
0.00699451
0.00686733
-0.00740354
0.903827
-0.00379801
0.899922
0.898958
-0.00305585
0.936867
-0.0061865
0.936761
-0.00945829
0.936425
-0.00646866
0.935943
-0.00649668
-0.465831
0.46678
-0.00741788
-0.465023
0.00842441
0.466086
-0.00948756
-0.464071
0.0106245
0.465295
-0.00592836
-0.00592043
-0.231564
0.0066001
0.231919
-0.0069556
-0.230969
0.00811332
0.231388
-0.00853251
-0.230068
0.00992491
0.23059
-0.0104468
-0.229386
0.0121868
0.230011
-0.0128112
-0.223181
0.0145304
0.222487
-0.013836
-0.226945
0.0170479
0.227285
-0.017388
-0.22872
0.0174447
0.22849
-0.0172146
-0.229536
0.015999
0.229015
-0.0154785
-0.229522
0.0137481
0.228921
-0.0131473
-0.22898
0.0113689
0.228409
-0.0107987
0.00919037
-0.228225
0.227726
-0.00869108
-0.457702
0.0145674
0.455338
-0.0122033
-0.453971
0.00910325
0.452681
-0.00781383
-0.00937568
0.90248
0.00753054
0.00701501
-0.0049872
0.899439
-0.00385291
0.898788
0.895105
-0.00305598
0.939923
-0.00617795
0.939883
-0.00942096
0.939668
-0.0064446
0.939383
-0.00641662
-0.467716
0.468648
-0.00737674
-0.46713
0.00835032
0.468147
-0.0093673
-0.466482
0.0104419
0.467622
-0.00580785
-0.00577416
-0.232938
0.00642917
0.233259
-0.00675031
-0.23256
0.00777016
0.232919
-0.00812916
-0.231971
0.00926992
0.232374
-0.00967225
-0.23158
0.010927
0.232016
-0.0113636
-0.220817
0.0121164
0.220392
-0.0116915
-0.228038
0.0137659
0.228221
-0.0139491
-0.228025
0.0140298
0.227917
-0.013922
-0.227811
0.0132571
0.2275
-0.0129467
-0.227436
0.0118417
0.227029
-0.0114349
-0.226926
0.0101667
0.2265
-0.00974047
0.0084893
-0.226387
0.225981
-0.00808333
-0.451968
0.0137477
0.450542
-0.0123212
-0.451378
0.010955
0.450064
-0.00964058
-0.00861029
0.896391
0.00825487
0.00644393
-0.00461754
0.895446
-0.00349994
0.897671
0.891605
-0.00299908
0.942922
-0.00605271
0.942937
-0.00920244
0.942818
-0.00628768
0.942684
-0.00621637
-0.469541
0.470433
-0.00717998
-0.46913
0.00809757
0.470077
-0.0090443
-0.468709
0.0100312
0.469739
-0.00555693
-0.00550398
-0.234161
0.00611207
0.234441
-0.00639206
-0.233899
0.00725749
0.234195
-0.00755308
-0.233427
0.00845687
0.233732
-0.00876201
-0.233121
0.00967939
0.233432
-0.00999006
-0.219457
0.0102386
0.219243
-0.0100248
-0.228631
0.011457
0.228732
-0.011558
-0.22767
0.0116007
0.227605
-0.0115357
-0.226756
0.0111228
0.226557
-0.0109231
-0.226011
0.0101826
0.225728
-0.00989938
-0.225392
0.00898229
0.225072
-0.00866284
0.0076927
-0.224903
0.224577
-0.00736638
-0.44922
0.0126934
0.448001
-0.0114739
-0.44884
0.0102798
0.447668
-0.00910735
-0.0115543
0.892212
0.0077789
0.00795472
-0.00758757
0.89148
-0.000919629
0.891003
0.890685
-0.00289653
0.945819
-0.00583502
0.945875
-0.00884356
0.945826
-0.00603008
0.945799
-0.00592781
-0.471268
0.472106
-0.00686762
-0.470982
0.00771593
0.471846
-0.00858017
-0.470709
0.00946858
0.471621
-0.0052233
-0.00515691
-0.235219
0.0057091
0.235458
-0.00594849
-0.234995
0.0066702
0.235235
-0.00691019
-0.234532
0.00762214
0.234765
-0.00785544
-0.234226
0.00854273
0.234451
-0.00876774
-0.218834
0.00876286
0.218763
-0.00869145
-0.228959
0.00971283
0.229014
-0.00976792
-0.227441
0.00977536
0.227393
-0.00972771
-0.22606
0.00944119
0.225921
-0.00930251
-0.225007
0.00877886
0.224802
-0.00857414
-0.224236
0.00789388
0.223993
-0.00765075
0.00689247
-0.223714
0.223451
-0.00662993
-0.446877
0.0115499
0.445844
-0.0105168
-0.446588
0.00948518
0.445557
-0.00845375
-0.0108272
0.888407
0.00721381
0.00741798
-0.00714479
0.887797
-0.00354607
0.887404
0.887139
-0.00276034
0.948579
-0.00555038
0.948665
-0.0083858
0.948662
-0.00570338
0.948698
-0.00558135
-0.472875
0.473649
-0.00647811
-0.472667
0.00725172
0.473445
-0.00803029
-0.472475
0.00882001
0.473272
-0.00484441
-0.0047734
-0.236119
0.00526474
0.236322
-0.00546756
-0.235883
0.00606603
0.236078
-0.00626063
-0.235382
0.00682526
0.235564
-0.00700683
-0.235028
0.00753486
0.235192
-0.00769896
-0.218697
0.00757438
0.218715
-0.00759258
-0.229134
0.00833396
0.229161
-0.00836164
-0.227264
0.00834382
0.227225
-0.00830433
-0.225564
0.0080877
0.225462
-0.00798499
-0.224271
0.00759589
0.224117
-0.00744222
-0.223351
0.00692325
0.223162
-0.00673446
0.00613359
-0.222758
0.222545
-0.00592077
-0.444894
0.0104095
0.44402
-0.00953568
-0.444613
0.00864858
0.443712
-0.00774746
-0.0100096
0.88498
0.00661098
0.00682573
-0.00663479
0.884422
-0.00330212
0.884071
0.883837
-0.00260204
0.951181
-0.00522267
0.951286
-0.00786709
0.951306
-0.00533599
0.951369
-0.00520288
-0.474349
0.475059
-0.00604523
-0.474181
0.00674434
0.474876
-0.00744001
-0.474017
0.00813704
0.474711
-0.00445084
-0.00438054
-0.236881
0.00481288
0.237053
-0.00498439
-0.236605
0.00548142
0.236764
-0.00564015
-0.236049
0.00609379
0.236193
-0.0062381
-0.235613
0.0066528
0.235733
-0.00677218
-0.218859
0.00659969
0.21893
-0.00667127
-0.229216
0.00721476
0.229227
-0.00722528
-0.227114
0.00719035
0.227079
-0.00715538
-0.22519
0.00698101
0.22511
-0.00690084
-0.223712
0.0065992
0.223593
-0.00647983
-0.222659
0.00607294
0.222509
-0.00592319
0.0054393
-0.221981
0.221806
-0.00526486
-0.443216
0.00932598
0.442475
-0.00858484
-0.442891
0.00782199
0.442105
-0.00703658
-0.00916129
0.881914
0.00600696
0.00622065
-0.00609617
0.881357
-0.00304134
0.881016
0.880796
-0.00243112
0.953612
-0.00487134
0.953726
-0.0073174
0.953752
-0.00494875
0.953814
-0.00481311
-0.475691
0.476336
-0.00559322
-0.475531
0.00622124
0.47615
-0.00683981
-0.475358
0.0074528
0.475962
-0.00406144
-0.00399449
-0.237526
0.00437306
0.237671
-0.00451837
-0.237196
0.00493331
0.237327
-0.00506401
-0.236583
0.00543404
0.2367
-0.00555117
-0.236038
0.00588238
0.236124
-0.00596848
-0.219196
0.00578628
0.219297
-0.00588752
-0.22924
0.00628751
0.229239
-0.00628684
-0.226978
0.00624056
0.226946
-0.00620853
-0.224894
0.00606191
0.224829
-0.00599675
-0.223273
0.00575465
0.223177
-0.00565916
-0.222105
0.00533233
0.221984
-0.00521116
0.00481524
-0.221343
0.221198
-0.00467058
-0.441791
0.0083232
0.441159
-0.00769156
-0.441391
0.00703405
0.440707
-0.00634948
-0.00832285
0.879181
0.005426
0.0056292
-0.0055567
0.878591
-0.002778
0.878238
0.878018
-0.00225617
0.955869
-0.00451371
0.955984
-0.00676296
0.956001
-0.00456101
0.95604
-0.00442758
-0.476905
0.477488
-0.00514393
-0.476732
0.00570635
0.477281
-0.00625531
-0.476524
0.00679407
0.477048
-0.00369074
-0.00362776
-0.238073
0.00395956
0.238196
-0.00408326
-0.237684
0.00443239
0.237793
-0.00454128
-0.237019
0.00484811
0.237116
-0.00494507
-0.236343
0.00521307
0.236404
-0.00527433
-0.219626
0.00510194
0.219742
-0.00521777
-0.229225
0.00551196
0.229217
-0.00550378
-0.226854
0.00545
0.226824
-0.00542013
-0.22465
0.00529299
0.224595
-0.00523834
-0.222918
0.00503841
0.22284
-0.0049601
-0.221654
0.00469189
0.221554
-0.00459204
0.00426315
-0.220811
0.22069
-0.00414174
-0.440575
0.00741566
0.440033
-0.00687398
-0.440085
0.00630495
0.439487
-0.00570705
-0.00752378
0.876751
0.00488273
0.0050715
-0.00503729
0.876105
-0.00252281
0.875723
0.875495
-0.00208339
0.957952
-0.00416211
0.958062
-0.00622189
0.958061
-0.00418482
0.95806
-0.0040574
-0.477999
0.478525
-0.00471063
-0.477797
0.00521367
0.478284
-0.00570077
-0.477538
0.0061748
0.477995
-0.00334579
-0.00328618
-0.238539
0.00357856
0.238645
-0.00368452
-0.238093
0.00398095
0.238185
-0.00407282
-0.237383
0.00433141
0.237464
-0.00441301
-0.236558
0.00463208
0.236601
-0.0046748
-0.2201
0.0045214
0.220221
-0.00464248
-0.229184
0.00485755
0.229171
-0.00484417
-0.226737
0.0047855
0.226709
-0.00475735
-0.224444
0.00464464
0.224397
-0.0045977
-0.222625
0.00442876
0.222559
-0.00436317
-0.22128
0.00413899
0.221197
-0.00405538
0.00377843
-0.220365
0.220261
-0.00367541
-0.43953
0.00660426
0.439063
-0.00613673
-0.438943
0.00564195
0.438419
-0.0051182
-0.00678057
0.874589
0.00438502
0.00455698
-0.00455025
0.873874
-0.00228234
0.873455
0.873213
-0.00191761
0.95987
-0.003826
0.959971
-0.00570783
0.959943
-0.00382895
0.959891
-0.00371045
-0.478984
0.479458
-0.00430269
-0.478742
0.00475271
0.479175
-0.00518547
-0.478422
0.00560354
0.478822
-0.00302884
-0.00297471
-0.23894
0.00323127
0.239031
-0.00332265
-0.238439
0.00357672
0.238518
-0.00365522
-0.23769
0.00387639
0.23776
-0.00394599
-0.236707
0.00412654
0.236736
-0.00415542
-0.220585
0.00402454
0.220706
-0.0041452
-0.229125
0.0043004
0.229108
-0.00428333
-0.226626
0.00422151
0.2266
-0.00419479
-0.224265
0.00409328
0.224224
-0.0040522
-0.222378
0.00390684
0.222322
-0.00385095
-0.220966
0.00366066
0.220895
-0.0035897
0.00335374
-0.219984
0.219896
-0.00326548
-0.438627
0.00588599
0.438221
-0.00547982
-0.437943
0.00504742
0.437482
-0.00458693
-0.00610274
0.872665
0.00393667
0.00409047
-0.00410322
0.871875
-0.00206071
0.871413
0.871152
-0.00176185
0.961631
-0.00351118
0.96172
-0.00522872
0.961661
-0.00349903
0.961552
-0.00339016
-0.47987
0.480297
-0.00392593
-0.479582
0.00432914
0.479968
-0.00471455
-0.479197
0.00508451
0.479549
-0.0027417
-0.00269443
-0.239286
0.00291865
0.239365
-0.00299804
-0.238737
0.00321804
0.238805
-0.003286
-0.237953
0.0034777
0.238014
-0.00353775
-0.236806
0.00368769
0.236824
-0.00370628
-0.221063
0.00359831
0.22118
-0.00371527
-0.229052
0.00382482
0.229032
-0.00380508
-0.226521
0.00374124
0.226496
-0.00371577
-0.224108
0.00362317
0.224071
-0.0035867
-0.222166
0.0034597
0.222118
-0.00341139
-0.220698
0.00324768
0.220637
-0.00318672
0.00298356
-0.219657
0.219581
-0.00290727
-0.437842
0.00525529
0.437487
-0.00490014
-0.437063
0.00452021
0.436656
-0.00411363
-0.00549306
0.870948
0.00353673
0.00367332
-0.00369906
0.870081
-0.00185972
0.869573
0.869292
-0.00161869
0.96325
-0.00322253
0.963324
-0.00479126
0.963229
-0.00319847
0.96306
-0.00310052
-0.480669
0.481054
-0.00358371
-0.480331
0.00394593
0.480676
-0.00429038
-0.479879
0.00461921
0.48019
-0.00248593
-0.00244407
-0.239588
0.00264159
0.239657
-0.00271118
-0.238996
0.00290383
0.239055
-0.00296345
-0.238182
0.00313174
0.238234
-0.00318414
-0.236868
0.00330965
0.236879
-0.00332064
-0.221523
0.00323431
0.221635
-0.00334586
-0.22897
0.00342044
0.228948
-0.00339873
-0.226421
0.00333358
0.226397
-0.00330916
-0.223968
0.00322377
0.223935
-0.00319095
-0.221982
0.00307848
0.22194
-0.00303615
-0.220466
0.00289352
0.220413
-0.00284053
0.0026638
-0.219374
0.219308
-0.00259729
-0.437154
0.00470566
0.436841
-0.00439308
-0.436285
0.00405734
0.435924
-0.00369662
-0.00495288
0.869411
0.00318528
0.00330478
-0.00333957
0.868467
-0.00168047
0.867914
0.867612
-0.00148941
0.96474
-0.00296239
0.964797
-0.00439826
0.964665
-0.00292898
0.964433
-0.00284235
-0.481389
0.481738
-0.00327754
-0.481001
0.00360418
0.48131
-0.00391342
-0.480483
0.00420725
0.480759
-0.00226069
-0.00222303
-0.239853
0.00239861
0.239915
-0.00246021
-0.239224
0.00263092
0.239277
-0.0026839
-0.238382
0.00283348
0.238428
-0.0028797
-0.236903
0.00298562
0.236908
-0.00299107
-0.221961
0.00292432
0.222066
-0.00302971
-0.228881
0.0030774
0.228858
-0.00305419
-0.226325
0.00298815
0.226301
-0.00296463
-0.223841
0.00288508
0.223811
-0.0028552
-0.22182
0.00275434
0.221783
-0.00271678
-0.220264
0.00259102
0.220218
-0.00254447
0.00238919
-0.219126
0.219068
-0.00233068
-0.436547
0.00423036
0.43627
-0.00395333
-0.435594
0.00365479
0.435272
-0.00333302
-0.00448
0.868028
0.00287955
0.00298282
-0.00302388
0.867011
-0.00152279
0.866413
0.866089
-0.00137478
0.966114
-0.00273207
0.966154
-0.00405126
0.965984
-0.00269118
0.965689
-0.00261596
-0.482043
0.482359
-0.00300778
-0.481603
0.0033038
0.481882
-0.00358302
-0.481021
0.00384727
0.481269
-0.00206381
-0.00203127
-0.240089
0.00218696
0.240144
-0.00224205
-0.239427
0.00239512
0.239475
-0.0024428
-0.238559
0.0025773
0.2386
-0.0026185
-0.236918
0.00270866
0.23692
-0.00271011
-0.222373
0.00266067
0.222472
-0.00275964
-0.228786
0.00278662
0.228762
-0.00276227
-0.226232
0.00269559
0.226209
-0.00267282
-0.223725
0.00259804
0.223698
-0.00257053
-0.221676
0.00247903
0.221642
-0.00244531
-0.220086
0.00233318
0.220045
-0.00229183
0.00215406
-0.218908
0.218856
-0.00210217
-0.436008
0.00382298
0.435761
-0.00357562
-0.434976
0.00330831
0.434687
-0.00301947
-0.00407144
0.866778
0.00261686
0.00270487
-0.00275053
0.86569
-0.00138603
0.865049
0.864703
-0.00127521
0.96739
-0.00253226
0.967411
-0.00375076
0.967203
-0.00248526
0.966844
-0.00242106
-0.482638
0.482927
-0.00277437
-0.482148
0.00304438
0.482402
-0.00329826
-0.481504
0.00353777
0.481728
-0.00189455
-0.00186731
-0.240301
0.00200551
0.240351
-0.00205535
-0.239611
0.00219436
0.239655
-0.00223781
-0.238717
0.00236022
0.238754
-0.00239735
-0.236919
0.00247489
0.236918
-0.00247352
-0.222759
0.00243905
0.222852
-0.00253175
-0.228688
0.00254279
0.228663
-0.00251757
-0.226142
0.00245036
0.22612
-0.00242818
-0.223618
0.00235722
0.223592
-0.00233162
-0.221546
0.00224763
0.221515
-0.00221699
-0.219927
0.00211582
0.21989
-0.00207868
0.00195516
-0.218713
0.218666
-0.00190869
-0.435527
0.00347809
0.435304
-0.00325535
-0.434421
0.0030141
0.434159
-0.00275288
-0.00372391
0.865639
0.00239442
0.00246843
-0.00251761
0.864484
-0.00126939
0.863801
0.863434
-0.00119064
0.96858
-0.00236263
0.968583
-0.00349607
0.968336
-0.00230997
0.967915
-0.00225724
-0.483184
0.483449
-0.0025756
-0.482644
0.00282373
0.482877
-0.00305645
-0.481942
0.00327545
0.482146
-0.00175116
-0.00172893
-0.240493
0.00185215
0.240539
-0.00189779
-0.23978
0.00202567
0.23982
-0.00206578
-0.23886
0.00217855
0.238894
-0.0022124
-0.236911
0.00227988
0.236907
-0.00227659
-0.223121
0.00225487
0.223208
-0.00234159
-0.228586
0.00234044
0.22856
-0.00231456
-0.226054
0.00224685
0.226032
-0.00222511
-0.223518
0.00215717
0.223494
-0.00213307
-0.221427
0.00205506
0.221399
-0.00202688
-0.219784
0.00193448
0.21975
-0.00190072
0.00178874
-0.218537
0.218495
-0.00174671
-0.435092
0.00318936
0.434889
-0.00298695
-0.433917
0.0027673
0.433679
-0.00252908
-0.00343348
0.864593
0.00220979
0.00227004
-0.00232274
0.863373
-0.00117173
0.86265
0.862262
-0.00112097
0.969701
-0.0022231
0.969686
-0.00328661
0.9694
-0.00216527
0.968918
-0.00212342
-0.483688
0.483934
-0.00241157
-0.4831
0.00264171
0.483316
-0.00285714
-0.482343
0.0030595
0.482532
-0.00163322
-0.00161535
-0.24067
0.00172619
0.240713
-0.00176856
-0.239936
0.00188784
0.239974
-0.00192539
-0.238992
0.00203063
0.239023
-0.00206187
-0.236895
0.00212146
0.236891
-0.00211693
-0.22346
0.00210595
0.223541
-0.00218713
-0.228482
0.00217673
0.228455
-0.00215033
-0.225967
0.00208206
0.225946
-0.00206062
-0.223423
0.00199493
0.223401
-0.00197199
-0.221318
0.00189859
0.221291
-0.00187233
-0.219653
0.0017868
0.219622
-0.00175571
0.0016529
-0.218378
0.218339
-0.00161443
-0.434696
0.00295364
0.43451
-0.0027677
-0.433457
0.00256562
0.433237
-0.0023462
-0.00319709
0.863621
0.00206033
0.00210796
-0.00216408
0.86234
-0.00109213
0.861578
0.86117
-0.00106675
0.970768
-0.00211418
0.970733
-0.00312372
0.970409
-0.00205143
0.969866
-0.00202083
-0.484158
0.484388
-0.00228116
-0.483523
0.00249683
0.483725
-0.00269847
-0.482715
0.00288767
0.482891
-0.00153949
-0.00152508
-0.240836
0.00162616
0.240876
-0.00166605
-0.240083
0.0017789
0.240119
-0.00181452
-0.239113
0.00191405
0.239142
-0.00194328
-0.236876
0.00199681
0.236871
-0.00199156
-0.223777
0.00198954
0.223853
-0.00206563
-0.228376
0.00204832
0.228349
-0.00202153
-0.225882
0.0019526
0.225861
-0.00193131
-0.223333
0.00186717
0.223311
-0.00184507
-0.221215
0.00177512
0.22119
-0.0017503
-0.219532
0.00167001
0.219503
-0.00164096
0.00154525
-0.218231
0.218195
-0.00150958
-0.434331
0.00276692
0.434158
-0.00259403
-0.433031
0.00240594
0.432826
-0.00220157
-0.00301366
0.862708
0.00194579
0.00198091
-0.00204064
0.861367
-0.00103035
0.860567
0.860139
-0.00102548
0.971793
-0.00203257
0.97174
-0.00300029
0.971377
-0.00196454
0.970774
-0.00194393
-0.484601
0.48482
-0.00218373
-0.483921
0.0023882
0.484112
-0.00257923
-0.483063
0.00275843
0.483231
-0.00146829
-0.00145795
-0.240992
0.00155011
0.24103
-0.00158819
-0.240224
0.00169641
0.240258
-0.00173065
-0.239228
0.00182602
0.239255
-0.00185372
-0.236854
0.00190277
0.236849
-0.00189722
-0.224075
0.00190263
0.224146
-0.00197407
-0.228268
0.00195173
0.228241
-0.00192464
-0.225797
0.00185496
0.225776
-0.00183369
-0.223246
0.00177047
0.223224
-0.00174894
-0.221117
0.00168141
0.221094
-0.00165763
-0.219418
0.00158118
0.219391
-0.00155365
0.00146326
-0.218094
0.21806
-0.00142973
-0.43399
0.00262631
0.433827
-0.0024634
-0.432633
0.00228611
0.43244
-0.00209341
-0.00287529
0.861839
0.00186023
0.00188429
-0.00194825
0.86044
-0.000983426
0.859602
0.859156
-0.00100399
0.972797
-0.00198679
0.972723
-0.00293524
0.972326
-0.00191765
0.97167
-0.00191336
-0.485027
0.485228
-0.0021188
-0.484299
0.00231483
0.484482
-0.00249838
-0.483396
0.0026707
0.483557
-0.00141902
-0.00141335
-0.241143
0.00149719
0.241179
-0.00153401
-0.240359
0.00163908
0.240392
-0.0016724
-0.239337
0.00176495
0.239363
-0.00179161
-0.236832
0.00183762
0.236826
-0.00183213