/*--------------------------------*- C++ -*----------------------------------*\
| =========                 |                                                 |
| \\      /  F ield         | OpenFOAM: The Open Source CFD Toolbox           |
|  \\    /   O peration     | Version:  v1912                                 |
|   \\  /    A nd           | Website:  www.openfoam.com                      |
|    \\/     M anipulation  |                                                 |
\*---------------------------------------------------------------------------*/
FoamFile
{
    version     2.0;
    format      ascii;
    class       volVectorField;
    location    "300";
    object      U;
}
// * * * * * * * * * * * * * * * * * * * * * * * * * * * * * * * * * * * * * //

dimensions      [0 1 -1 0 0 0 0];


internalField   nonuniform List<vector> 
12556
(
(99.9993 0.00181362 -1.48452e-19)
(99.999 0.00631449 2.77573e-24)
(99.9981 0.0139048 -1.5773e-19)
(99.9967 0.0259012 -1.54592e-19)
(100 0.0203614 6.37699e-20)
(99.9984 0.0351631 0)
(99.9975 0.0574272 0)
(99.9968 0.089175 -1.10709e-19)
(99.9958 0.131904 1.29826e-20)
(99.995 0.185423 -8.6045e-20)
(99.9949 0.244677 1.03272e-20)
(99.996 0.298617 0)
(99.9984 0.332673 0)
(100.001 0.336127 1.36278e-20)
(100.004 0.309439 -2.31104e-20)
(100.005 0.262761 1.46923e-20)
(100.005 0.209048 0)
(100.004 0.158006 2.49213e-20)
(100.004 0.113748 1.02605e-19)
(100.002 0.0815948 -2.90728e-20)
(100.009 0.0934482 -6.07737e-19)
(100.006 0.0592551 0)
(100.004 0.031986 -7.78792e-20)
(100.004 0.0102532 -5.15914e-19)
(99.9933 0.00471742 6.25148e-19)
(99.9899 0.0166095 1.6656e-19)
(99.982 0.0371851 1.16286e-18)
(99.9688 0.0700925 -4.90494e-19)
(99.9707 0.0979705 6.99492e-20)
(99.9505 0.167951 -7.00678e-22)
(99.9244 0.275305 0)
(99.9134 0.376175 -4.94218e-20)
(99.8831 0.561944 -4.60217e-20)
(99.8564 0.800661 -8.10464e-20)
(99.8457 1.07299 -3.37758e-20)
(99.8656 1.33121 -4.47032e-20)
(99.9209 1.50537 -9.29019e-21)
(99.9952 1.53811 -1.70176e-22)
(100.06 1.42497 -3.46614e-21)
(100.097 1.21328 3.33655e-20)
(100.107 0.965715 -6.64315e-20)
(100.096 0.734776 0)
(100.111 0.55926 -4.74001e-19)
(100.08 0.388272 9.19044e-19)
(100.081 0.267517 6.19929e-19)
(100.059 0.169393 1.30337e-18)
(100.044 0.0911675 -1.30831e-18)
(100.038 0.0291517 6.1865e-19)
(99.9822 0.00541745 -6.25617e-19)
(99.9725 0.0199581 -1.33939e-18)
(99.9513 0.0475893 -2.9994e-18)
(99.9161 0.0939622 3.92687e-18)
(99.8993 0.152158 -1.42999e-19)
(99.8386 0.268604 -1.36184e-19)
(99.7561 0.449475 -2.30671e-19)
(99.7047 0.65503 0)
(99.6001 1.00407 1.83071e-19)
(99.5053 1.46766 3.9661e-20)
(99.4677 2.02283 -1.00738e-19)
(99.5518 2.57328 -1.03585e-21)
(99.781 2.95506 1.38701e-20)
(100.082 3.02868 -4.22805e-22)
(100.333 2.7826 0)
(100.46 2.33243 2.54703e-20)
(100.472 1.8203 -6.85348e-20)
(100.416 1.35014 -1.64334e-19)
(100.37 0.960123 -2.86426e-18)
(100.274 0.655873 -6.37435e-19)
(100.227 0.408128 -6.38089e-19)
(100.165 0.256748 1.47427e-18)
(100.126 0.137452 -1.65942e-19)
(100.109 0.043766 0)
(99.971 0.00258657 -3.14495e-19)
(99.9525 0.0123475 2.35436e-18)
(99.9134 0.0381676 -6.73622e-19)
(99.8481 0.0877916 0)
(99.7998 0.166892 0)
(99.6801 0.312497 -1.10518e-18)
(99.5126 0.547228 -2.1545e-18)
(99.3722 0.847282 2.04971e-19)
(99.1313 1.34605 9.78608e-20)
(98.888 2.04842 4.65374e-20)
(98.7627 2.93888 -1.30109e-19)
(98.9133 3.91671 3.65189e-20)
(99.461 4.65731 3.71009e-20)
(100.225 4.78275 0)
(100.822 4.2826 0)
(101.084 3.46918 -1.16234e-19)
(101.082 2.62532 0)
(100.931 1.88725 0)
(100.77 1.27785 1.03383e-18)
(100.568 0.853494 -8.06781e-19)
(100.432 0.496684 -1.63268e-18)
(100.314 0.307688 8.41394e-19)
(100.239 0.162807 -1.69213e-19)
(100.205 0.0515251 0)
(99.9683 -0.00456267 0)
(99.9397 -0.00867135 0)
(99.8802 0.0042764 3.39161e-19)
(99.78 0.0440736 5.0517e-19)
(99.6892 0.131487 3.68634e-19)
(99.4965 0.28159 0)
(99.2211 0.533944 0)
(98.9499 0.892205 0)
(98.499 1.50308 1.72488e-18)
(98.0068 2.40396 2.29016e-19)
(97.6055 3.71888 0)
(97.7016 5.43893 2.11186e-19)
(98.8265 6.93315 2.58269e-20)
(100.566 7.114 -1.95144e-20)
(101.763 6.04549 5.44961e-19)
(102.138 4.58104 1.61804e-18)
(101.996 3.28355 3.16136e-19)
(101.656 2.27888 -4.09035e-21)
(101.297 1.46056 -1.71868e-18)
(100.942 0.946841 1.4414e-19)
(100.672 0.513674 0)
(100.482 0.31021 1.72603e-19)
(100.365 0.161019 -1.2983e-19)
(100.31 0.0504398 -4.03713e-20)
(99.9832 -0.016294 0)
(99.9443 -0.0439255 0)
(99.8644 -0.0557966 -6.8089e-19)
(99.7289 -0.0405785 1.36449e-18)
(99.5892 0.0388353 0)
(99.3196 0.164431 0)
(98.9264 0.391802 4.47804e-19)
(98.4945 0.754087 1.73152e-19)
(97.7892 1.35652 2.46462e-19)
(96.8902 2.32608 -1.21814e-18)
(95.8298 4.04737 1.48658e-18)
(95.2921 7.0328 -1.4154e-18)
(97.4251 10.5322 2.44404e-20)
(101.58 10.6012 0)
(103.654 8.03767 2.13581e-18)
(103.831 5.52269 0)
(103.262 3.6676 -2.8201e-19)
(102.553 2.4003 4.89782e-19)
(101.909 1.44938 4.40203e-19)
(101.357 0.901958 -2.97821e-19)
(100.916 0.442969 0)
(100.646 0.255751 0)
(100.482 0.127932 -4.38063e-20)
(100.404 0.0392266 -1.23446e-19)
(100.024 -0.0323 1.55206e-19)
(99.9762 -0.0924574 -1.67081e-19)
(99.8785 -0.140335 3.40988e-19)
(99.712 -0.163825 -1.23215e-18)
(99.5231 -0.110663 1.33221e-21)
(99.1836 -0.0390276 4.55426e-19)
(98.6837 0.117047 -2.31586e-18)
(98.0933 0.413613 -2.45196e-19)
(97.1566 0.870206 5.7744e-19)
(95.7642 1.64746 3.91507e-19)
(93.6073 3.1575 1.10009e-18)
(90.2885 7.14165 2.74135e-18)
(92.9449 17.1083 3.23076e-19)
(105.398 16.0812 3.34597e-18)
(107.29 9.73755 0)
(106.286 5.82541 8.50654e-19)
(104.839 3.52677 -4.63949e-19)
(103.552 2.15044 -7.59755e-20)
(102.52 1.18596 0)
(101.759 0.695225 1.64025e-19)
(101.127 0.278245 1.13029e-19)
(100.778 0.141832 -1.36255e-19)
(100.569 0.062621 -1.55736e-19)
(100.468 0.0176571 3.50681e-19)
(100.1 -0.0517218 -1.55121e-19)
(100.044 -0.151557 1.66928e-19)
(99.9336 -0.244139 -2.11725e-19)
(99.7444 -0.317341 -1.40077e-19)
(99.5128 -0.306713 2.64088e-19)
(99.1214 -0.312376 1.53255e-19)
(98.5452 -0.264951 1.20052e-18)
(97.8402 -0.0978542 2.22363e-19)
(96.766 0.0990423 0)
(95.0863 0.396 1.60275e-19)
(92.3455 0.72766 -9.12519e-19)
(86.991 0.726765 9.69942e-19)
(117.076 20.6008 9.08431e-19)
(112.93 9.01317 -1.91578e-19)
(109.178 4.75293 1.4154e-19)
(106.439 2.61588 -2.26666e-19)
(104.479 1.44896 6.92582e-20)
(103.017 0.659866 -8.95327e-20)
(102.077 0.326286 3.70732e-19)
(101.263 0.0274728 -1.38485e-19)
(100.848 -0.0256714 1.15488e-19)
(100.602 -0.0314993 -2.2589e-20)
(100.482 -0.0131351 -3.30659e-19)
(100.214 -0.073282 -7.47372e-20)
(100.155 -0.217237 -5.99613e-20)
(100.037 -0.359763 -2.05301e-20)
(99.836 -0.489259 6.122e-20)
(99.573 -0.532255 -4.88859e-22)
(99.1546 -0.627571 0)
(98.5432 -0.705881 1.96181e-19)
(97.7899 -0.697256 -1.2871e-21)
(96.7068 -0.774828 4.01624e-21)
(95.0763 -0.932858 -2.02984e-19)
(92.8529 -1.42612 -8.99338e-20)
(90.685 -2.96562 -3.18614e-20)
(130.058 9.31221 0)
(117.55 4.08145 6.47808e-19)
(111.381 1.98828 7.10711e-19)
(107.584 0.902548 3.34296e-20)
(105.1 0.329223 -2.06627e-19)
(103.291 -0.0833023 -9.44796e-20)
(102.238 -0.175398 2.10078e-19)
(101.288 -0.286558 4.77682e-20)
(100.832 -0.232292 0)
(100.562 -0.146599 1.78393e-19)
(100.43 -0.0506449 1.65193e-19)
(100.372 -0.0954804 1.47146e-19)
(100.311 -0.284897 2.32849e-21)
(100.193 -0.478709 0)
(99.9913 -0.666373 8.04872e-21)
(99.7104 -0.768399 -3.61193e-20)
(99.2899 -0.954852 3.74016e-20)
(98.6828 -1.15683 0)
(97.937 -1.29927 -3.94018e-21)
(96.9264 -1.59361 1.52154e-19)
(95.4557 -2.0099 1.77613e-19)
(93.6667 -2.64368 0)
(92.2135 -3.45859 -1.94057e-20)
(129.681 -5.10315 -9.33044e-19)
(118.133 -2.53867 0)
(111.834 -1.63091 1.83525e-19)
(107.835 -1.24463 -6.2491e-20)
(105.211 -1.02372 -3.98828e-19)
(103.263 -0.93516 8.10496e-19)
(102.191 -0.747959 0)
(101.18 -0.628941 -4.69076e-20)
(100.714 -0.456487 -1.97864e-19)
(100.438 -0.271332 2.21306e-20)
(100.301 -0.0912792 0)
(100.571 -0.116853 -7.23861e-20)
(100.513 -0.350018 7.78799e-20)
(100.4 -0.592749 7.5964e-20)
(100.208 -0.836081 -6.97772e-20)
(99.9232 -0.996754 -3.55492e-20)
(99.5223 -1.26723 0)
(98.95 -1.57986 -7.28577e-20)
(98.2472 -1.85214 5.57779e-20)
(97.3336 -2.3073 -2.71534e-19)
(95.9881 -2.87605 -1.57286e-19)
(94.3431 -3.53681 -3.98697e-19)
(92.9831 -4.11679 6.05428e-20)
(122.775 -13.7972 1.0503e-18)
(115.35 -7.79355 0)
(110.526 -4.86223 -1.35089e-18)
(107.128 -3.27375 0)
(104.766 -2.33839 -3.88692e-19)
(102.918 -1.75941 0)
(101.928 -1.31134 -5.01498e-19)
(100.936 -0.960994 -5.88814e-19)
(100.491 -0.674452 4.4872e-20)
(100.226 -0.393168 -1.43608e-19)
(100.093 -0.131064 1.97239e-20)
(100.811 -0.136064 2.65857e-19)
(100.758 -0.408333 0)
(100.656 -0.694388 -7.57396e-20)
(100.482 -0.986505 0)
(100.204 -1.20187 0)
(99.8395 -1.54373 -1.02894e-19)
(99.3243 -1.94818 -2.5251e-20)
(98.6868 -2.32872 8.8391e-22)
(97.8787 -2.91358 6.8907e-20)
(96.6325 -3.62327 1.53749e-19)
(95.0074 -4.41215 -3.30293e-19)
(93.5632 -5.05779 2.86146e-22)
(114.746 -17.3856 -1.4026e-18)
(111.087 -10.6658 3.06045e-19)
(108.151 -6.98292 -1.08201e-18)
(105.728 -4.77569 -5.10492e-20)
(103.877 -3.38946 -4.47829e-20)
(102.308 -2.44271 4.23285e-20)
(101.478 -1.79723 -6.1122e-19)
(100.572 -1.24949 3.48569e-19)
(100.173 -0.865122 0)
(99.9329 -0.500942 1.657e-19)
(99.8105 -0.166411 0)
(101.084 -0.152595 -2.64537e-19)
(101.038 -0.458639 4.43454e-18)
(100.95 -0.781173 -8.88777e-18)
(100.8 -1.11462 -2.2844e-20)
(100.542 -1.37189 -3.11187e-20)
(100.227 -1.76849 0)
(99.7855 -2.24099 2.59862e-19)
(99.2286 -2.70924 -1.62941e-21)
(98.5464 -3.40026 -3.65452e-21)
(97.4381 -4.26594 -7.04427e-20)
(95.9068 -5.33145 1.79827e-19)
(94.4421 -6.2939 0)
(103.384 -26.3852 -3.78658e-19)
(107.035 -16.5241 0)
(106.792 -11.2969 2.82105e-20)
(105.486 -7.86583 0)
(104.026 -5.59799 8.94142e-20)
(102.737 -4.06256 1.19538e-18)
(101.531 -2.91839 -1.27232e-18)
(100.896 -2.16041 0)
(100.117 -1.47101 0)
(99.7788 -1.01393 5.18725e-19)
(99.5725 -0.586599 9.60444e-20)
(99.4658 -0.194685 -2.92296e-19)
(101.385 -0.16497 0)
(101.346 -0.496233 0)
(101.274 -0.845165 0)
(101.152 -1.20904 0)
(100.915 -1.50657 0)
(100.652 -1.94278 0)
(100.289 -2.46458 0)
(99.831 -2.99196 0)
(99.2978 -3.75243 0)
(98.4067 -4.74485 0)
(97.2394 -6.13701 0)
(96.1239 -8.28648 0)
(96.7466 -16.8146 0)
(102.35 -13.5864 0)
(103.415 -10.3705 1.0595e-18)
(103.113 -7.76591 0)
(102.359 -5.8094 0)
(101.544 -4.35868 -9.66403e-19)
(100.688 -3.17638 -1.72852e-18)
(100.243 -2.38619 -6.40029e-19)
(99.6051 -1.61712 -8.30082e-19)
(99.333 -1.11446 8.35605e-19)
(99.1634 -0.646035 0)
(99.0746 -0.214489 7.85758e-19)
(101.705 -0.173062 0)
(101.675 -0.52081 0)
(101.62 -0.885895 0)
(101.528 -1.26736 0)
(101.321 -1.58786 0)
(101.115 -2.04188 0)
(100.838 -2.57961 0)
(100.483 -3.13105 0)
(100.111 -3.89668 0)
(99.5064 -4.88458 0)
(98.913 -6.26238 0)
(98.6029 -8.28377 0)
(98.3028 -10.6317 -5.50246e-29)
(100.413 -10.3479 0)
(101.263 -8.80518 0)
(101.295 -7.09873 0)
(100.927 -5.59308 0)
(100.435 -4.35477 -1.9264e-19)
(99.867 -3.24927 0)
(99.5745 -2.4826 0)
(99.0702 -1.68961 -1.54884e-18)
(98.8598 -1.16693 7.80133e-19)
(98.7251 -0.679015 3.27833e-20)
(98.654 -0.225618 -5.42824e-19)
(102.037 -0.176917 0)
(102.016 -0.532493 0)
(101.977 -0.903891 0)
(101.913 -1.29182 0)
(101.735 -1.62275 0)
(101.583 -2.07601 0)
(101.383 -2.60501 0)
(101.123 -3.14631 0)
(100.88 -3.86357 0)
(100.511 -4.72703 0)
(100.237 -5.80198 0)
(97.2314 -6.70421 0)
(99.1109 -8.07926 4.50397e-33)
(99.7474 -8.0629 0)
(100.04 -7.31478 0)
(100.017 -6.24618 0)
(99.7877 -5.14621 0)
(99.478 -4.1507 0)
(99.1141 -3.18417 -5.54277e-19)
(98.9293 -2.47457 8.50616e-19)
(98.5384 -1.69818 4.83576e-19)
(98.3804 -1.17783 8.41993e-19)
(98.2757 -0.688536 -9.59921e-19)
(98.2204 -0.228814 0)
(102.372 -0.176912 0)
(102.359 -0.532472 0)
(102.335 -0.901495 0)
(102.294 -1.28607 0)
(102.146 -1.61679 0)
(102.039 -2.05428 0)
(101.901 -2.55465 0)
(101.715 -3.06024 0)
(101.561 -3.69202 0)
(101.315 -4.3988 0)
(101.151 -5.1748 0)
(96.2583 -5.49859 0)
(99.5506 -6.4926 9.57618e-38)
(99.4746 -6.50187 0)
(99.337 -6.09111 0)
(99.1522 -5.40834 0)
(98.9242 -4.6239 0)
(98.6967 -3.84915 0)
(98.4463 -3.0221 0)
(98.3321 -2.38889 0)
(98.0288 -1.6567 1.67534e-18)
(97.9115 -1.1552 -1.59999e-18)
(97.8305 -0.678289 -1.0867e-19)
(97.788 -0.225552 1.02206e-19)
(102.704 -0.173619 0)
(102.697 -0.522512 0)
(102.685 -0.882002 0)
(102.664 -1.25522 0)
(102.54 -1.57686 0)
(102.468 -1.98837 0)
(102.375 -2.44812 0)
(102.24 -2.90392 0)
(102.132 -3.43993 0)
(101.929 -3.99967 0)
(101.795 -4.56734 0)
(95.7124 -4.62461 0)
(99.7903 -5.38207 0)
(99.3307 -5.3801 0)
(98.9031 -5.12425 0)
(98.5592 -4.6665 0)
(98.2791 -4.09921 0)
(98.0671 -3.49834 0)
(97.8696 -2.80385 0)
(97.7935 -2.25005 0)
(97.5525 -1.57788 0)
(97.464 -1.10584 0)
(97.4009 -0.653195 0)
(97.3679 -0.217744 0)
(103.027 -0.167695 0)
(103.025 -0.504627 0)
(103.023 -0.849146 0)
(103.015 -1.20512 0)
(102.911 -1.5113 0)
(102.864 -1.89104 0)
(102.799 -2.30505 0)
(102.693 -2.70707 0)
(102.598 -3.15393 0)
(102.395 -3.59476 0)
(102.257 -4.01999 0)
(95.4735 -3.96168 0)
(99.9223 -4.54776 0)
(99.2348 -4.53309 0)
(98.6133 -4.35532 0)
(98.1391 -4.03151 0)
(97.7924 -3.61073 0)
(97.5626 -3.14104 0)
(97.3794 -2.56168 0)
(97.3177 -2.08299 0)
(97.116 -1.47615 0)
(97.0453 -1.03941 0)
(96.994 -0.617197 0)
(96.9683 -0.205821 0)
(103.336 -0.159825 0)
(103.339 -0.480907 0)
(103.342 -0.806708 0)
(103.344 -1.14158 0)
(103.255 -1.42828 0)
(103.222 -1.77402 0)
(103.172 -2.14208 0)
(103.078 -2.49247 0)
(102.975 -2.86303 0)
(102.754 -3.21272 0)
(102.594 -3.5391 0)
(95.4342 -3.437 0)
(99.9923 -3.89303 0)
(99.1596 -3.86886 0)
(98.4056 -3.73438 0)
(97.8298 -3.49366 0)
(97.4185 -3.17258 0)
(97.1564 -2.80027 0)
(96.9648 -2.31644 0)
(96.9013 -1.90463 0)
(96.7215 -1.36254 0)
(96.6598 -0.963549 0)
(96.6151 -0.57485 0)
(96.5937 -0.191616 0)
(103.629 -0.150663 0)
(103.635 -0.453325 0)
(103.642 -0.75816 0)
(103.648 -1.06981 0)
(103.57 -1.33497 0)
(103.543 -1.64692 0)
(103.497 -1.97176 0)
(103.403 -2.27549 0)
(103.282 -2.58327 0)
(103.036 -2.86429 0)
(102.839 -3.12006 0)
(95.5173 -3.00853 0)
(100.024 -3.36405 -5.1027e-34)
(99.095 -3.33338 0)
(98.2476 -3.22513 0)
(97.5936 -3.03846 0)
(97.1251 -2.78667 0)
(96.8261 -2.48675 0)
(96.6139 -2.08062 0)
(96.5386 -1.72642 0)
(96.3679 -1.24521 0)
(96.3085 -0.883992 0)
(96.2664 -0.529558 0)
(96.2473 -0.17641 0)
(103.904 -0.140782 0)
(103.911 -0.423604 0)
(103.92 -0.706464 0)
(103.927 -0.994121 0)
(103.855 -1.23716 0)
(103.829 -1.51707 0)
(103.779 -1.80276 0)
(103.678 -2.0657 0)
(103.534 -2.32274 0)
(103.263 -2.55206 0)
(103.016 -2.75579 0)
(95.6713 -2.65094 0)
(100.032 -2.92804 0)
(99.0366 -2.89307 0)
(98.1217 -2.80205 0)
(97.4074 -2.65215 0)
(96.89 -2.44981 0)
(96.5543 -2.2043 0)
(96.3156 -1.86104 0)
(96.2228 -1.55564 0)
(96.0523 -1.12988 0)
(95.9907 -0.804843 0)
(95.9483 -0.48385 0)
(95.9298 -0.161085 0)
(104.16 -0.130654 0)
(104.167 -0.393154 0)
(104.176 -0.653995 0)
(104.182 -0.917917 0)
(104.113 -1.13926 0)
(104.083 -1.38967 0)
(104.024 -1.64075 0)
(103.912 -1.86861 0)
(103.742 -2.08493 0)
(103.449 -2.27511 0)
(103.144 -2.43943 0)
(95.8627 -2.34819 0)
(100.024 -2.56368 -6.4227e-34)
(98.9827 -2.52595 0)
(98.0176 -2.44704 0)
(97.2566 -2.32323 0)
(96.6981 -2.15715 0)
(96.3278 -1.95315 0)
(96.0606 -1.66087 0)
(95.9475 -1.39653 0)
(95.7716 -1.02027 0)
(95.7048 -0.72889 0)
(95.6599 -0.439501 0)
(95.6409 -0.146236 0)
(104.397 -0.120649 0)
(104.404 -0.363078 0)
(104.41 -0.602562 0)
(104.413 -0.843721 0)
(104.346 -1.04445 0)
(104.309 -1.26822 0)
(104.238 -1.48911 0)
(104.112 -1.68711 0)
(103.916 -1.87076 0)
(103.604 -2.031 0)
(103.234 -2.16487 0)
(96.0707 -2.08948 0)
(100.005 -2.25633 0)
(98.9321 -2.21687 0)
(97.9293 -2.14696 0)
(97.1316 -2.04235 0)
(96.5386 -1.90354 0)
(96.1368 -1.73177 0)
(95.8412 -1.48107 0)
(95.7069 -1.25121 0)
(95.5221 -0.918601 0)
(95.4481 -0.657889 0)
(95.3995 -0.39768 0)
(95.3792 -0.132256 0)
(104.615 -0.111042 0)
(104.621 -0.334195 0)
(104.625 -0.553481 0)
(104.623 -0.773314 0)
(104.555 -0.95489 0)
(104.509 -1.15495 0)
(104.424 -1.34974 0)
(104.283 -1.5224 0)
(104.065 -1.67985 0)
(103.736 -1.81687 0)
(103.295 -1.92685 0)
(96.2825 -1.86726 0)
(99.9781 -1.99556 2.08452e-34)
(98.8842 -1.95507 0)
(97.8527 -1.89211 0)
(97.0259 -1.80208 0)
(96.4042 -1.68424 0)
(95.9742 -1.53787 0)
(95.6512 -1.32135 0)
(95.4958 -1.12046 0)
(95.3001 -0.826042 0)
(95.2181 -0.592837 0)
(95.165 -0.359096 0)
(95.1429 -0.119376 0)
(104.815 -0.10203 0)
(104.82 -0.307088 0)
(104.821 -0.507658 0)
(104.813 -0.707889 0)
(104.743 -0.871962 0)
(104.687 -1.05111 0)
(104.588 -1.22347 0)
(104.432 -1.37471 0)
(104.192 -1.5111 0)
(103.848 -1.62987 0)
(103.336 -1.72094 0)
(96.4903 -1.67597 0)
(99.9459 -1.77366 0)
(98.8387 -1.73256 0)
(97.7852 -1.67512 0)
(96.9353 -1.59645 0)
(96.2895 -1.49503 0)
(95.8343 -1.36897 0)
(95.4856 -1.18072 0)
(95.3099 -1.00422 0)
(95.1023 -0.743029 0)
(95.0119 -0.5342 0)
(94.9539 -0.324123 0)
(94.9296 -0.10772 0)
(104.999 -0.0937436 0)
(105.003 -0.282147 0)
(105 -0.465682 0)
(104.985 -0.648181 0)
(104.912 -0.79648 0)
(104.846 -0.957362 0)
(104.732 -1.11053 0)
(104.561 -1.24369 0)
(104.303 -1.36314 0)
(103.946 -1.46738 0)
(103.362 -1.54339 0)
(96.6901 -1.51142 0)
(99.9096 -1.58475 0)
(98.7952 -1.54331 0)
(97.7248 -1.49034 0)
(96.8564 -1.42066 0)
(96.1903 -1.33229 0)
(95.7128 -1.22263 0)
(95.3403 -1.05793 0)
(95.1454 -0.901966 0)
(94.9255 -0.669538 0)
(94.8267 -0.482087 0)
(94.7637 -0.292902 0)
(94.7371 -0.0973291 0)
(105.168 -0.086265 0)
(105.17 -0.259616 0)
(105.163 -0.427899 0)
(105.141 -0.594592 0)
(105.066 -0.728838 0)
(104.988 -0.873886 0)
(104.86 -1.01073 0)
(104.675 -1.12866 0)
(104.401 -1.23449 0)
(104.032 -1.32708 0)
(103.376 -1.39105 0)
(96.8796 -1.37034 0)
(99.8704 -1.42429 0)
(98.7534 -1.38263 0)
(97.6702 -1.33331 0)
(96.7868 -1.27083 0)
(96.1036 -1.19293 0)
(95.6065 -1.0966 0)
(95.212 -0.951583 0)
(94.9991 -0.812909 0)
(94.7669 -0.605267 0)
(94.6599 -0.436379 0)
(94.592 -0.265422 0)
(94.563 -0.0881978 0)
(105.324 -0.0796396 0)
(105.324 -0.23963 0)
(105.313 -0.394485 0)
(105.284 -0.547303 0)
(105.205 -0.669159 0)
(105.116 -0.800609 0)
(104.974 -0.923655 0)
(104.777 -1.0288 0)
(104.489 -1.12371 0)
(104.108 -1.20694 0)
(103.381 -1.26127 0)
(97.058 -1.25014 0)
(99.8289 -1.28868 0)
(98.713 -1.24686 0)
(97.6202 -1.20049 0)
(96.7247 -1.14381 0)
(96.027 -1.07434 0)
(95.5125 -0.988878 0)
(95.0979 -0.860328 0)
(94.8681 -0.736177 0)
(94.624 -0.549773 0)
(94.5091 -0.396833 0)
(94.4362 -0.241579 0)
(94.4049 -0.0802876 0)
(105.468 -0.0738865 0)
(105.466 -0.22225 0)
(105.451 -0.365502 0)
(105.416 -0.506329 0)
(105.331 -0.617399 0)
(105.232 -0.737295 0)
(105.077 -0.84878 0)
(104.868 -0.943277 0)
(104.568 -1.02945 0)
(104.176 -1.10518 0)
(103.381 -1.15183 0)
(97.2253 -1.14872 0)
(99.7856 -1.17502 0)
(98.6738 -1.13304 0)
(97.5739 -1.08904 0)
(96.6686 -1.03701 0)
(95.9587 -0.974328 0)
(95.4287 -0.897712 0)
(94.9956 -0.782916 0)
(94.75 -0.670893 0)
(94.4942 -0.502548 0)
(94.3717 -0.363145 0)
(94.2943 -0.22122 0)
(94.2605 -0.0735455 0)
(105.602 -0.0690156 0)
(105.598 -0.2075 0)
(105.579 -0.340956 0)
(105.536 -0.471657 0)
(105.448 -0.573416 0)
(105.338 -0.68364 0)
(105.17 -0.785561 0)
(104.951 -0.871243 0)
(104.641 -0.950531 0)
(104.238 -1.02028 0)
(103.377 -1.06084 0)
(97.382 -1.06436 0)
(99.741 -1.081 -2.92656e-35)
(98.6355 -1.03882 0)
(97.5306 -0.996677 0)
(96.6174 -0.948329 0)
(95.8969 -0.891066 0)
(95.3532 -0.821599 0)
(94.9031 -0.718239 0)
(94.6428 -0.616248 0)
(94.3756 -0.463137 0)
(94.246 -0.335015 0)
(94.164 -0.20419 0)
(94.128 -0.0679177 0)
(105.729 -0.0650061 0)
(105.722 -0.195339 0)
(105.699 -0.320768 0)
(105.649 -0.443057 0)
(105.555 -0.53704 0)
(105.435 -0.63932 0)
(105.256 -0.733469 0)
(105.028 -0.811941 0)
(104.708 -0.885892 0)
(104.295 -0.950967 0)
(103.37 -0.986754 0)
(97.5285 -0.995695 0)
(99.6954 -1.00474 0)
(98.5978 -0.962293 0)
(97.4896 -0.921548 0)
(96.5699 -0.876062 0)
(95.8404 -0.823056 0)
(95.2843 -0.759286 0)
(94.8185 -0.665344 0)
(94.5445 -0.571527 0)
(94.2657 -0.43098 0)
(94.1292 -0.312114 0)
(94.0429 -0.190295 0)
(94.0047 -0.0633341 0)
(105.846 -0.0619 0)
(105.838 -0.185845 0)
(105.81 -0.305027 0)
(105.754 -0.420941 0)
(105.656 -0.508117 0)
(105.526 -0.604036 0)
(105.335 -0.69203 0)
(105.099 -0.764693 0)
(104.772 -0.834631 0)
(104.348 -0.896143 0)
(103.361 -0.928276 0)
(97.6658 -0.941598 0)
(99.649 -0.944736 0)
(98.5606 -0.901948 0)
(97.4503 -0.86217 0)
(96.5254 -0.818825 0)
(95.788 -0.769074 0)
(95.2208 -0.709736 0)
(94.7404 -0.623441 0)
(94.4533 -0.536149 0)
(94.1643 -0.406136 0)
(94.0213 -0.294313 0)
(93.931 -0.179485 0)
(93.8906 -0.0597915 0)
(105.965 -0.0595289 0)
(105.954 -0.178674 0)
(105.922 -0.29325 0)
(105.859 -0.403662 0)
(105.751 -0.486561 0)
(105.611 -0.577538 0)
(105.41 -0.660853 0)
(105.167 -0.728933 0)
(104.833 -0.795991 0)
(104.397 -0.854911 0)
(103.352 -0.884358 0)
(97.7946 -0.901193 0)
(99.6021 -0.899791 0)
(98.5235 -0.85658 0)
(97.4123 -0.817373 0)
(96.483 -0.775527 0)
(95.7387 -0.728152 0)
(95.1614 -0.672132 0)
(94.6673 -0.591901 0)
(94.3679 -0.509598 0)
(94.0642 -0.386931 0)
(93.9143 -0.28101 0)
(93.8197 -0.171331 0)
(93.7769 -0.0570939 0)
(106.057 -0.0583424 0)
(106.045 -0.174733 0)
(106.01 -0.286713 0)
(105.942 -0.396458 0)
(105.842 -0.472289 0)
(105.693 -0.559598 0)
(105.482 -0.639694 0)
(105.232 -0.704209 0)
(104.892 -0.769323 0)
(104.444 -0.826506 0)
(103.342 -0.854153 0)
(97.9156 -0.873824 0)
(99.5547 -0.869003 0)
(98.4863 -0.825252 0)
(97.375 -0.786242 0)
(96.4422 -0.745316 0)
(95.6916 -0.699534 0)
(95.1051 -0.645856 0)
(94.598 -0.570235 0)
(94.2867 -0.491674 0)
(93.9843 -0.377964 0)
(93.83 -0.273301 0)
(93.7321 -0.166666 0)
(93.6878 -0.0556709 0)
(106.217 -0.0570417 0)
(106.202 -0.17117 0)
(106.161 -0.281125 0)
(106.082 -0.385505 0)
(105.925 -0.464292 0)
(105.768 -0.550087 0)
(105.548 -0.628996 0)
(105.296 -0.690197 0)
(104.95 -0.754028 0)
(104.49 -0.810233 0)
(103.333 -0.837062 0)
(98.0296 -0.859148 0)
(99.5069 -0.851723 0)
(98.4488 -0.807238 0)
(97.3381 -0.768091 0)
(96.4022 -0.72756 0)
(95.646 -0.682648 0)
(95.0507 -0.630505 0)
(94.5342 -0.558251 0)
(94.213 -0.481287 0)
(93.8515 -0.36581 0)
(93.6869 -0.266663 0)
(93.5836 -0.162381 0)
(93.5362 -0.054113 0)
(90.3086 -2.86273 -9.41581e-22)
(131.579 12.3459 2.17908e-20)
(117.587 23.0823 -2.78418e-18)
(92.0988 -3.38358 -1.46345e-20)
(132.162 -4.09601 -1.85518e-19)
(132.441 10.1248 -6.3265e-19)
(92.905 -4.02825 -5.99667e-20)
(124.787 -14.1296 -5.84319e-19)
(131.477 -5.76632 1.11973e-18)
(93.4824 -4.91686 1.2491e-19)
(116.183 -18.2472 3.48357e-18)
(123.716 -14.9113 -5.41187e-19)
(94.3774 -6.19804 -6.30495e-20)
(103.143 -27.0924 1.79643e-19)
(104.046 -26.699 0)
(108.154 -18.2126 -1.7061e-18)
(115.123 -18.4577 -7.3353e-19)
(95.8916 -8.01325 0)
(95.3316 -17.8389 0)
(102.804 -26.9938 0)
(96.8805 -18.1036 1.73373e-19)
(102.575 -15.5092 -6.34425e-19)
(107.256 -18.0394 -2.049e-19)
(86.9035 1.78106 -2.80519e-18)
(91.7112 15.7845 -3.06234e-19)
(114.965 23.1678 3.11221e-20)
(103.655 17.1923 -7.81553e-19)
(135.924 30.1058 1.91826e-19)
(116.72 38.935 4.94786e-18)
(129.23 11.2529 0)
(118.739 6.68848 2.73508e-19)
(114.057 10.6998 -2.1776e-19)
(93.4758 -2.38817 0)
(92.2537 -3.25773 1.92508e-20)
(90.8804 -2.62424 -6.12005e-20)
(143.125 1.68572 5.37178e-20)
(143.565 13.882 0)
(130.243 -3.56116 3.73603e-19)
(120.589 -1.13601 -1.07512e-18)
(119.724 4.82626 -2.29335e-19)
(94.1833 -3.32288 -2.44533e-20)
(93.0605 -3.94163 -9.34817e-20)
(92.3711 -3.33839 -1.88725e-20)
(92.5378 -3.7003 7.86206e-20)
(91.9269 -4.09262 2.59903e-20)
(91.4952 -3.80368 -3.09146e-20)
(133.107 -15.2616 6.84972e-19)
(138.707 -8.994 0)
(123.758 -13.0347 -1.66584e-18)
(117.914 -7.70654 -2.32018e-18)
(120.251 -3.00868 0)
(94.8299 -4.18757 3.35219e-19)
(93.6707 -4.83176 -1.54666e-19)
(93.141 -4.03469 0)
(93.1956 -4.4166 4.10411e-20)
(92.3531 -4.62676 0)
(92.2907 -4.32982 5.58753e-20)
(122.254 -21.6784 -8.69928e-21)
(126.949 -19.5788 0)
(95.6461 -5.10161 -2.16103e-20)
(94.4964 -6.05368 -1.1014e-19)
(93.7546 -4.96819 0)
(93.9123 -5.52829 4.61418e-20)
(92.4788 -5.87124 5.76166e-20)
(92.4396 -5.25368 -5.43872e-20)
(107.918 -27.912 0)
(111.909 -23.1624 0)
(116.374 -23.0711 3.51757e-19)
(96.8598 -5.98413 0)
(95.9835 -7.72146 0)
(94.6295 -6.2291 0)
(94.9737 -6.99466 0)
(91.5321 -7.34947 -1.11191e-18)
(92.3515 -6.61282 5.02404e-19)
(99.1972 -8.38531 0)
(97.0839 -11.0016 1.02977e-27)
(95.3454 -17.1271 -1.69738e-22)
(87.1164 -5.8847 -5.4273e-20)
(90.4251 -4.74559 3.18265e-20)
(79.5415 -0.575256 4.51173e-18)
(86.2817 -5.86492 2.63776e-19)
(143.435 14.7996 2.5857e-18)
(136.754 29.2389 -1.52711e-19)
(127.207 18.5121 -1.51246e-18)
(135.65 27.5285 9.02207e-19)
(142.499 14.6214 -8.60855e-19)
(91.4517 -3.75376 0)
(91.2403 -3.66343 -3.54773e-20)
(91.6927 -3.20978 0)
(91.1554 -3.69735 0)
(91.3367 -3.79645 0)
(90.5995 -4.5459 -4.60325e-20)
(91.1285 -3.73762 0)
(139.037 -8.45377 2.64359e-20)
(142.97 0.954725 5.39389e-20)
(132.875 2.01187 1.82787e-19)
(142.337 1.15812 -2.59034e-20)
(138.648 -8.1183 0)
(142.66 13.7236 -1.07186e-19)
(142.482 1.86541 2.03751e-19)
(132.899 3.01349 1.19285e-20)
(92.2628 -4.29623 0)
(91.9844 -4.11759 -3.92058e-20)
(92.6382 -3.7808 -1.98393e-20)
(91.858 -4.15819 7.59892e-20)
(92.1304 -4.32341 0)
(91.3567 -3.82667 5.38841e-21)
(91.8297 -4.14507 1.45363e-19)
(127.624 -19.1894 0)
(132.717 -15.6062 -1.66675e-19)
(127.898 -11.214 -4.35697e-21)
(132.3 -15.1216 6.09491e-19)
(127.44 -18.4934 0)
(138.331 -8.65686 0)
(133.04 -14.4968 -3.69871e-19)
(128.881 -10.0353 0)
(92.4275 -5.21313 -3.76258e-23)
(92.3538 -4.65773 -1.23203e-19)
(93.2637 -4.53106 -1.43108e-19)
(92.1969 -4.65505 1.09766e-19)
(92.1733 -5.22342 0)
(92.142 -4.3416 2.59391e-20)
(92.2019 -4.62473 2.113e-19)
(117.02 -22.9836 3.61565e-19)
(121.589 -21.8977 -9.46587e-19)
(92.3615 -6.56317 2.47055e-19)
(92.4793 -5.92235 -2.9381e-20)
(93.9643 -5.60989 6.15602e-20)
(106.062 -27.9543 0)
(92.0079 -5.9152 -2.22737e-19)
(91.4236 -6.53012 -3.36554e-19)
(92.1819 -5.26335 -5.98103e-20)
(92.0247 -5.86821 0)
(105.846 -27.8609 1.77235e-19)
(107.243 -22.5506 7.66928e-19)
(111.273 -23.1696 0)
(107.838 -27.9181 1.63991e-19)
(79.2353 -7.569 2.58663e-19)
(91.4936 -7.41848 -4.43888e-21)
(95.0671 -7.11477 3.87173e-22)
(97.5141 -23.0195 1.72431e-20)
(89.8084 -7.26603 0)
(51.4393 -7.70095 1.1927e-19)
(91.3923 -6.57284 6.95915e-20)
(89.8506 -7.20253 1.37165e-18)
(98.0404 -23.6745 0)
(92.6499 -1.00155 -7.2638e-20)
(90.5566 -2.47126 6.66392e-20)
(88.0681 0.90664 8.2936e-19)
(88.2882 -1.68104 -3.9198e-19)
(86.4608 -5.02441 -3.0623e-19)
(81.0595 -0.133761 2.0031e-18)
(134.908 51.0373 3.46014e-17)
(110.95 57.348 4.04262e-19)
(91.5089 -3.16242 -9.25275e-20)
(91.1994 -3.6973 1.75489e-20)
(90.541 -4.36114 -2.89716e-21)
(121.424 -23.0089 -4.93627e-18)
(115.733 -17.1552 -1.5266e-18)
(113.167 -11.4371 0)
(116.834 -8.9136 4.97931e-19)
(105.801 -27.0004 3.0696e-18)
(113.836 -25.9837 -7.66774e-19)
(116.058 -25.647 2.02161e-19)
(99.0427 -23.1523 2.16575e-19)
(103.07 -20.2201 -9.18924e-20)
(106.106 -22.0902 -1.81183e-18)
(90.3307 -4.50233 -1.26015e-20)
(87.1821 -5.12079 5.06055e-20)
(88.8422 -2.15108 6.14743e-21)
(89.9486 -6.79641 8.8853e-20)
(68.8021 -2.57789 9.39061e-18)
(79.2063 -11.6518 -1.55519e-18)
(116.955 35.8467 -9.13203e-19)
(134.039 29.2573 -2.07138e-19)
(125.131 20.1896 1.29482e-18)
(116.387 -25.5574 0)
(118.589 -25.1334 0)
(119.408 -17.226 0)
(121.458 -21.2065 4.50125e-19)
(116.968 -22.3098 -7.09675e-19)
(126.769 -18.8752 0)
(122.114 -20.981 -2.42116e-19)
(120.49 -16.7543 -9.7606e-19)
(105.17 -27.8989 1.22641e-19)
(89.237 -26.3524 0)
(100.443 -25.8665 0)
(83.8753 22.3508 4.46663e-20)
(82.9832 9.89336 -1.06004e-18)
(79.2066 1.05909 7.29101e-18)
(113.537 38.3372 5.98557e-22)
(100.364 28.6783 9.5096e-19)
(85.4586 24.9355 -4.21311e-20)
(137.092 48.609 -1.55308e-16)
(129.246 36.3686 -5.11133e-19)
(135.715 48.3284 2.23089e-17)
(111.992 53.7078 -4.75143e-19)
(133.243 49.9063 -3.40258e-18)
(126.389 37.6257 -9.91031e-19)
(143.643 7.05147 -2.35949e-19)
(143.691 7.85838 0)
(135.812 -12.7373 -1.8724e-19)
(136.192 -12.3048 7.62445e-19)
(121.01 -24.3321 2.88045e-19)
(121.796 -23.1194 -4.95831e-19)
(124.258 -20.9061 0)
(123.4 -23.0138 2.33191e-18)
(121.609 -24.0118 1.38307e-19)
(124.616 -21.6053 6.30936e-18)
(123.504 -22.8895 1.18428e-18)
(124.928 -20.6081 -4.15246e-19)
(92.4999 -5.55139 1.75097e-19)
(93.2852 -5.47777 1.35199e-19)
(93.4099 -5.73053 0)
(111.173 -25.9305 6.38815e-19)
(113.175 -26.0041 9.16914e-19)
(106.571 -27.1556 -1.0158e-17)
(92.2796 -6.98931 -1.38924e-19)
(94.0697 -6.96364 9.83489e-20)
(94.2403 -7.33373 -8.58862e-20)
(93.8606 -6.54485 4.85958e-20)
(94.017 -6.85225 -9.78747e-20)
(92.3039 -6.92354 -4.14567e-19)
(87.9313 -9.76464 -4.01339e-18)
(89.7506 -7.12866 5.47949e-18)
(89.0245 -5.53188 1.92442e-20)
(89.8459 -7.05216 -2.30833e-18)
(87.8002 -9.25223 6.8714e-18)
(90.4107 -5.10047 -1.1867e-18)
(90.0247 -6.75759 -1.24846e-18)
(89.4877 -5.34675 0)
(82.149 -4.25658 0)
(79.4925 -10.1933 1.31436e-20)
(70.9229 -2.1032 -4.36372e-18)
(87.258 -9.53163 -1.24696e-19)
(80.7615 -10.4668 1.37068e-18)
(83.2556 -4.9859 2.66842e-19)
(80.6692 -11.856 -2.66528e-19)
(87.4684 -10.102 3.43501e-19)
(141.387 21.3472 1.82812e-18)
(140.967 22.3462 -6.27717e-19)
(91.2451 -3.65306 2.02318e-20)
(90.1492 -3.64591 -4.63548e-22)
(91.2533 -3.66017 0)
(90.9343 -4.07269 -3.78983e-20)
(90.4324 -4.07356 2.76786e-18)
(90.396 -4.94927 -1.2304e-18)
(90.1932 -3.65298 -2.30191e-20)
(90.4015 -3.97009 -5.46069e-21)
(91.0015 -3.95928 2.54729e-20)
(141.058 -4.31893 -7.1404e-19)
(141.307 -3.68731 1.18585e-18)
(140.837 -3.45055 0)
(137.064 -1.87299 2.08666e-19)
(137.754 1.59358 -4.33193e-21)
(135.545 -6.00795 6.93169e-19)
(136.745 -2.96561 0)
(140.599 -4.08391 0)
(143.017 7.88369 -1.1181e-19)
(137.838 7.98774 1.09171e-19)
(137.062 12.099 -2.16182e-19)
(137.884 2.81776 -9.33167e-20)
(137.943 6.66014 -8.07369e-20)
(142.989 7.08195 4.3523e-19)
(92.0197 -4.22193 1.4697e-19)
(92.038 -4.23401 8.93724e-20)
(91.5626 -4.0151 1.12816e-20)
(91.597 -4.03978 1.13497e-20)
(129.808 -17.6597 7.4382e-20)
(124.888 -21.3316 0)
(130.16 -17.3884 7.62276e-20)
(92.2035 -4.9117 -1.15835e-19)
(92.2036 -4.94526 -2.87748e-20)
(92.1978 -4.45469 2.5227e-20)
(92.2018 -4.47485 -5.09305e-20)
(121.291 -24.1158 -2.66624e-19)
(119.115 -24.7225 0)
(119.617 -22.4586 -8.51204e-19)
(118.882 -25.0542 4.78887e-19)
(120.737 -24.4497 -2.81089e-19)