/*--------------------------------*- C++ -*----------------------------------*\
| =========                 |                                                 |
| \\      /  F ield         | OpenFOAM: The Open Source CFD Toolbox           |
|  \\    /   O peration     | Version:  v1912                                 |
|   \\  /    A nd           | Website:  www.openfoam.com                      |
|    \\/     M anipulation  |                                                 |
\*---------------------------------------------------------------------------*/
FoamFile
{
    version     2.0;
    format      ascii;
    class       volVectorField;
    location    "2.87";
    object      U;
}
// * * * * * * * * * * * * * * * * * * * * * * * * * * * * * * * * * * * * * //

dimensions      [0 1 -1 0 0 0 0];


internalField   nonuniform List<vector> 
12556
(
(99.99823435 0.004264394312 -4.51337969e-21)
(99.99773161 0.01416311203 3.766835366e-25)
(99.99631231 0.02930425122 -4.502335057e-21)
(99.99395084 0.05309657527 -4.469388871e-21)
(99.99978487 0.04117530545 4.305864561e-21)
(99.99704114 0.06667264249 0)
(99.99554456 0.1056852663 0)
(99.99517651 0.1583485181 -7.449691812e-21)
(99.99401482 0.2260446404 8.623916867e-22)
(99.99344224 0.3050094915 -5.52420515e-21)
(99.99419974 0.383953682 7.543014971e-22)
(99.99523108 0.4445018593 0)
(100.000028 0.4686545041 0)
(100.0048293 0.4477723868 1.241561836e-21)
(100.0056442 0.391610124 -1.761865591e-21)
(100.0063246 0.3179765821 9.733083774e-22)
(100.0058124 0.2435272393 0)
(100.0050404 0.1783353995 1.522472209e-21)
(100.004559 0.1244101908 6.237035157e-21)
(100.0024241 0.08606554244 -1.728128254e-21)
(100.0093154 0.09655965422 -1.494024375e-20)
(100.0062725 0.05891218556 0)
(100.0045275 0.03107487206 -1.866910622e-21)
(100.0042928 0.009731999787 -1.313592763e-20)
(99.98409801 0.01147819198 1.808993714e-20)
(99.97819316 0.03861780909 4.515545413e-21)
(99.96488258 0.08062935462 3.152056608e-20)
(99.94216328 0.1469953967 -1.349943617e-20)
(99.94654495 0.1959936693 4.339678848e-21)
(99.91228292 0.3206898125 -5.760808272e-23)
(99.86879767 0.5086415011 0)
(99.84722384 0.6735348856 -7.547891131e-21)
(99.80393048 0.9727878999 -6.930187765e-21)
(99.7769905 1.333138393 -1.187291722e-20)
(99.78687212 1.703917262 -4.806250195e-21)
(99.84437592 1.998770868 -5.894696692e-21)
(99.94483659 2.131061556 -1.147594317e-21)
(100.0517997 2.053803281 4.026687715e-22)
(100.1291498 1.806074304 -5.855034624e-22)
(100.1618217 1.470139824 5.021520394e-21)
(100.1571243 1.123887687 -9.562567893e-21)
(100.1304238 0.8243301145 0)
(100.1316424 0.6063648507 -2.631626908e-20)
(100.0916464 0.4067996346 5.052551529e-20)
(100.0874532 0.273722792 1.446434955e-20)
(100.0598483 0.1664137292 2.968726926e-20)
(100.0439668 0.08808266825 -2.977523522e-20)
(100.0379034 0.02763344783 1.500310239e-20)
(99.95720312 0.01494794551 -1.804963262e-20)
(99.94044512 0.05144276088 -3.625911008e-20)
(99.90398921 0.1102630323 -8.121432943e-20)
(99.84321367 0.205780369 1.080355989e-19)
(99.81461918 0.3108561906 -8.927959003e-21)
(99.71159188 0.5239247089 -8.65129979e-21)
(99.57632136 0.8488283744 -1.499843376e-20)
(99.50692911 1.195617081 0)
(99.36705783 1.773292899 2.875584445e-20)
(99.2828 2.483509739 3.549898444e-20)
(99.32957014 3.235910558 0)
(99.54896982 3.882398804 0)
(99.93418673 4.200871358 -6.073205491e-21)
(100.3372009 4.044671921 -4.326447209e-22)
(100.5921311 3.493448765 2.64244026e-21)
(100.6694654 2.783664176 4.044261399e-21)
(100.6267494 2.093629321 -1.027025293e-20)
(100.5163386 1.497920481 -2.370258732e-20)
(100.4334779 1.025733778 -1.580891442e-19)
(100.3099577 0.6788253261 -3.485334468e-20)
(100.240139 0.4100747724 -1.478904007e-20)
(100.1673066 0.2470280807 3.358632118e-20)
(100.1235356 0.1307577213 -3.768294019e-21)
(100.1044337 0.04081986009 0)
(99.92566365 0.0122934663 -9.105525574e-21)
(99.89339886 0.04517730973 6.3727014e-20)
(99.82430513 0.1061188588 -1.823592885e-20)
(99.71152687 0.209379558 0)
(99.62377061 0.3578699155 0)
(99.42095466 0.6338171716 -7.017230703e-20)
(99.14267594 1.070227531 -1.402903764e-19)
(98.9330263 1.591168885 3.290810289e-20)
(98.60970087 2.435783132 1.598314772e-20)
(98.39297764 3.517981961 -1.215221733e-19)
(98.42047411 4.791627913 2.291280986e-19)
(98.88169667 6.018556292 -1.056685305e-19)
(99.83087596 6.702872717 -2.225790242e-20)
(100.8718367 6.427395654 1.002337667e-19)
(101.4794299 5.36935958 -4.375068618e-20)
(101.5719042 4.078214301 -2.269127934e-19)
(101.3958313 2.938979637 -1.78783921e-19)
(101.1378138 2.050327344 0)
(100.8913525 1.334180947 5.714230747e-20)
(100.6354049 0.8623213459 -4.392471489e-20)
(100.4514845 0.4808596341 -3.780083212e-20)
(100.3162181 0.2862697935 1.910511067e-20)
(100.2323946 0.1492807338 -3.830496301e-21)
(100.1941552 0.0461482405 0)
(99.90428309 0.001967762881 0)
(99.8538466 0.01464760519 0)
(99.74679578 0.05920632422 9.222801397e-21)
(99.57095702 0.146265294 1.391936948e-20)
(99.40961229 0.317634318 2.30348696e-20)
(99.07375455 0.6155766383 0)
(98.60793633 1.093692137 0)
(98.17872757 1.748328528 -2.077754879e-19)
(97.58399662 2.798608956 5.781393312e-19)
(97.0582009 4.282759398 -5.871101737e-19)
(96.84799964 6.269742603 7.77443988e-20)
(97.49556733 8.56836661 -3.591193803e-19)
(99.50781287 10.11395409 3.156263816e-19)
(101.9038053 9.588396816 0)
(103.1111167 7.530834283 0)
(103.0876116 5.293096999 4.397719102e-20)
(102.5432146 3.574725265 1.051846698e-19)
(101.9716015 2.381202717 -4.026936012e-22)
(101.4736296 1.472946937 -9.363934694e-20)
(101.0369038 0.9242314265 7.771285648e-21)
(100.6930626 0.4661330594 0)
(100.4807703 0.2715642849 3.896622399e-21)
(100.3486385 0.1368238035 -2.926594618e-21)
(100.2873091 0.04153357806 -9.702556613e-22)
(99.90976086 -0.01659409574 0)
(99.84059394 -0.04202517246 0)
(99.69558446 -0.03637569357 -1.846765225e-20)
(99.45296521 0.01111426704 3.768774584e-20)
(99.2068795 0.1742640659 0)
(98.72406148 0.4379744409 0)
(98.0384136 0.884204541 2.957080186e-20)
(97.36098665 1.565249356 0)
(96.37000434 2.679328228 7.189101437e-19)
(95.26303508 4.419895136 2.069112451e-18)
(94.23669982 7.237698147 -1.308133415e-18)
(94.42379551 11.60746847 0)
(98.55520562 15.58732096 4.030144291e-19)
(104.1967815 14.1431736 1.123077132e-18)
(106.1053918 9.786950185 4.240095687e-19)
(105.4425027 6.192194935 5.104697493e-19)
(104.0969646 3.837330147 0)
(102.9633309 2.399904103 0)
(102.1229611 1.384374439 2.404108276e-20)
(101.4650951 0.8285616493 -1.602967568e-20)
(100.9311478 0.3540467609 0)
(100.6317733 0.1948777769 0)
(100.4480544 0.08939510928 -9.819317841e-22)
(100.3621359 0.02590061274 -2.942793533e-21)
(99.95831492 -0.04298366265 4.51630622e-21)
(99.87216467 -0.1229882568 -4.551557782e-21)
(99.69415368 -0.177466484 9.296756642e-21)
(99.39243713 -0.1965320881 -3.400571164e-20)
(99.05275863 -0.0748470544 7.65873067e-23)
(98.43660983 0.09722256465 2.921803639e-20)
(97.5614316 0.4204506146 1.146580158e-20)
(96.61365692 1.002010858 3.539351757e-19)
(95.17725724 1.973759793 -3.994727301e-18)
(93.26493746 3.584424725 0)
(90.50137761 6.53768669 8.333215658e-19)
(87.05694299 13.67498 -2.904677204e-18)
(94.84140425 26.23692441 4.73707741e-19)
(110.8904116 20.33418564 0)
(111.3104664 11.1989915 3.055783316e-18)
(108.6086777 6.113422038 1.315976848e-18)
(105.9415491 3.43379223 1.181096079e-18)
(104.0227242 1.991371535 0)
(102.7309199 1.018303547 0)
(101.8592102 0.5494175046 8.674384055e-21)
(101.1221443 0.145549234 2.570690924e-21)
(100.737457 0.05255482158 -3.042709043e-21)
(100.5062596 0.007182958118 -3.462069726e-21)
(100.3967146 -0.0005626982484 8.347708002e-21)
(100.0639669 -0.07565443082 -4.51677952e-21)
(99.96480645 -0.2232363892 4.553187146e-21)
(99.76261433 -0.3542382858 -5.784634058e-21)
(99.41773989 -0.4607925939 -3.899038858e-21)
(98.99837323 -0.4128701506 1.664684098e-20)
(98.28118251 -0.379857004 9.945442614e-21)
(97.28302157 -0.2650991618 -5.201466991e-21)
(96.10688567 0.09924602214 1.84430922e-19)
(94.3344116 0.6859598849 0)
(91.78706592 1.612055088 2.339491494e-19)
(87.43855505 3.009696729 4.084560801e-18)
(78.69452873 5.705380483 -2.537206526e-18)
(126.982848 22.39506481 1.45680488e-18)
(118.3045113 8.911482031 1.943134163e-19)
(112.0101851 4.261483054 -9.359308755e-19)
(107.6762247 2.143158942 0)
(104.950203 1.096460085 -3.018801081e-19)
(103.1849168 0.3758157164 -4.587780228e-21)
(102.1414679 0.1038124571 1.955949541e-20)
(101.2191319 -0.1519339069 -3.126281017e-21)
(100.7673655 -0.1454664565 2.559845535e-21)
(100.4996365 -0.1046139029 -4.809766613e-22)
(100.3705278 -0.03670267177 -7.831977279e-21)
(100.2369922 -0.1121940296 -2.177122521e-21)
(100.1303416 -0.3352926821 -1.636196762e-21)
(99.91551083 -0.5524302548 -5.614019167e-22)
(99.54836102 -0.7587222447 1.701830801e-21)
(99.07113455 -0.807276077 -3.356876141e-23)
(98.30730405 -0.9428816271 0)
(97.26584646 -1.074300169 -2.813539951e-21)
(95.96772674 -0.9996917765 -9.957825479e-20)
(94.08614807 -0.8939006718 9.20193572e-19)
(91.48148757 -0.8095997757 -5.325977148e-22)
(87.46230982 -1.236995404 -1.058796839e-18)
(81.94044854 -3.356360871 4.720476605e-18)
(139.2634709 5.144844577 -1.434125606e-17)
(122.8274216 1.783398323 2.904243762e-18)
(114.1858807 0.5435914596 -7.701724819e-21)
(108.7566263 0.03019023612 -6.870166648e-19)
(105.4874975 -0.1988960237 1.241174493e-18)
(103.3831023 -0.4664333961 -4.668102764e-21)
(102.2342556 -0.469943971 1.096339797e-20)
(101.1879563 -0.5104825373 1.070570556e-21)
(100.6976231 -0.3812277495 0)
(100.408697 -0.2366366662 3.946205579e-21)
(100.2673357 -0.07954393965 3.902040878e-21)
(100.4824406 -0.1497064424 4.288310148e-21)
(100.3744403 -0.4502304384 6.710826578e-23)
(100.1595763 -0.7552277077 0)
(99.7927901 -1.064009127 2.195801686e-22)
(99.28542654 -1.219600601 -2.283008586e-21)
(98.53271119 -1.527153944 2.44088682e-21)
(97.52411667 -1.896543177 0)
(96.22783479 -2.09985728 0)
(94.45129505 -2.402607943 1.823932031e-18)
(92.13505225 -2.889655526 0)
(88.97383005 -4.026701874 9.36135953e-19)
(85.56552192 -6.068028286 -3.419886136e-18)
(135.4224355 -11.37698932 -4.522836544e-18)
(122.1471307 -6.255030481 -2.869728567e-18)
(114.0983744 -3.792761308 -9.044748174e-19)
(108.7340589 -2.40093318 2.785363881e-18)
(105.4510021 -1.665418719 7.62985913e-20)
(103.2563661 -1.394267551 3.94482313e-20)
(102.0995676 -1.102411341 0)
(101.0095828 -0.8917794176 -1.046381393e-21)
(100.5143907 -0.6313230915 -4.353413508e-21)
(100.222255 -0.3766536098 4.862266485e-22)
(100.0774437 -0.125062917 0)
(100.7996091 -0.1853917565 -2.111000554e-21)
(100.6959878 -0.5592549254 2.130088665e-21)
(100.4924712 -0.9462876454 2.075931081e-21)
(100.1486632 -1.351658 -1.947273616e-21)
(99.63584319 -1.612838108 -2.249367169e-21)
(98.94210151 -2.072473237 0)
(98.02407296 -2.644945142 -1.698565602e-19)
(96.81221098 -3.077601559 0)
(95.2336901 -3.662221736 0)
(93.2610085 -4.461718884 -1.821606537e-18)
(90.6834696 -5.818388236 0)
(88.00476623 -7.55258482 0)
(125.8897097 -20.03961657 -3.283955701e-18)
(117.9247175 -11.92273434 1.222335283e-18)
(112.0652618 -7.28251852 -4.252829895e-19)
(107.702186 -4.541149731 -1.441919136e-18)
(104.8421834 -3.040939326 -1.173876587e-18)
(102.8032324 -2.273151544 0)
(101.7390541 -1.711082527 -2.587759415e-20)
(100.6825923 -1.255525677 -1.313444141e-20)
(100.2167736 -0.8709097984 9.939195602e-22)
(99.93903325 -0.5116050137 -3.148668767e-21)
(99.79937966 -0.1690783266 4.610270577e-22)
(101.1823647 -0.2168235924 7.722595387e-21)
(101.0880923 -0.6546455642 0)
(100.9045026 -1.109709769 -2.071851127e-21)
(100.5989752 -1.607349795 0)
(100.0978807 -1.957339495 0)
(99.5026582 -2.534574294 -6.677292046e-21)
(98.71381715 -3.262097043 -2.31173372e-21)
(97.63498568 -3.863278824 -1.461546442e-19)
(96.28389825 -4.628384055 -8.047660299e-19)
(94.62233902 -5.612189261 -1.645679198e-18)
(92.41620471 -7.120425431 1.469556948e-18)
(89.95236779 -8.850339227 -1.892784271e-19)
(116.1686462 -22.82450107 2.000862205e-18)
(112.5162318 -14.55949494 0)
(109.0449838 -9.319231364 6.361203233e-19)
(105.9952544 -6.013942922 -2.883106879e-19)
(103.7995547 -4.110884332 -5.574403682e-19)
(102.0828215 -2.995227969 2.072039706e-21)
(101.186776 -2.230591037 -3.161091274e-20)
(100.2277833 -1.574181373 7.77304477e-21)
(99.81692006 -1.077434874 0)
(99.5671248 -0.6301418291 3.62551242e-21)
(99.43976124 -0.2079323923 0)
(101.6206089 -0.2431215591 7.712674886e-21)
(101.5385354 -0.7349931084 1.216163865e-19)
(101.3786156 -1.245176503 -2.449911161e-19)
(101.1153738 -1.811678847 -4.288493374e-22)
(100.6734062 -2.226917317 -1.941278087e-21)
(100.1770419 -2.886814367 0)
(99.53985042 -3.718539725 5.741329358e-22)
(98.61313144 -4.421044059 3.594861317e-20)
(97.50383409 -5.288022224 -2.381149214e-20)
(96.14683987 -6.38965642 7.321645231e-19)
(94.31570818 -8.097470686 3.773282444e-19)
(92.1568477 -10.1119976 -1.062344244e-18)
(103.1258702 -31.33792692 -3.294819371e-19)
(107.5635723 -20.8276766 -1.128322835e-18)
(107.48861 -14.6542603 -1.353684023e-19)
(105.9271422 -9.954124169 0)
(104.0558236 -6.753728131 -2.340945817e-19)
(102.5290492 -4.791699458 2.449892158e-19)
(101.193906 -3.498012264 -6.335987737e-20)
(100.4948515 -2.615299764 0)
(99.68059206 -1.81899772 0)
(99.33572698 -1.238034846 1.137414392e-20)
(99.12186973 -0.7247747078 2.09518093e-21)
(99.01167819 -0.2390400781 -6.801616703e-21)
(102.1010853 -0.2618424388 0)
(102.0329473 -0.792879636 0)
(101.9006843 -1.341379712 0)
(101.6824739 -1.946262498 0)
(101.297726 -2.424361603 0)
(100.9013504 -3.142249994 0)
(100.4037272 -4.02719555 -2.445907931e-19)
(99.65262914 -4.772639834 3.745363844e-20)
(98.77797853 -5.672792023 -6.83949032e-19)
(97.73364695 -6.813062213 7.413067475e-20)
(96.37874631 -8.60021348 -3.125963225e-20)
(94.99618425 -11.10709883 -2.186011261e-18)
(96.68455909 -20.53613907 3.09287976e-19)
(102.5057166 -17.07261044 0)
(103.7326843 -13.1888814 -1.533846671e-19)
(103.2543657 -9.584805131 4.47875133e-19)
(102.2033916 -6.884691319 1.972029091e-19)
(101.2046981 -5.104506861 -5.519475943e-20)
(100.2367703 -3.779011778 -8.873748855e-20)
(99.7294151 -2.859439019 -3.335463856e-20)
(99.07471143 -1.976360516 -1.852957714e-20)
(98.79725521 -1.349306992 1.828042218e-20)
(98.62290731 -0.7916346331 0)
(98.53218783 -0.2609941024 1.825315398e-20)
(102.6103048 -0.2729931031 0)
(102.5569275 -0.8275560665 0)
(102.4546625 -1.398408922 0)
(102.2832835 -2.016508299 0)
(101.9551794 -2.528285737 0)
(101.6642862 -3.265195533 0)
(101.3022407 -4.135615994 -8.536076619e-20)
(100.7101792 -4.926959969 -4.827080589e-19)
(100.0336884 -5.82425041 -1.110831712e-18)
(99.27629097 -6.885881342 -6.196191818e-20)
(98.45762033 -8.402980605 5.061610304e-19)
(97.99172749 -10.80350901 -8.310820584e-19)
(98.29764973 -13.59216142 0)
(100.5424776 -13.19550397 -3.430361395e-20)
(101.3765781 -11.16470872 -1.043430116e-19)
(101.2094992 -8.700025069 5.134486299e-19)
(100.6007535 -6.619099037 3.241158324e-19)
(99.96264484 -5.137524073 -2.399079585e-20)
(99.28244104 -3.87035689 0)
(98.95095026 -2.974307585 0)
(98.44000979 -2.052944943 -3.458184992e-20)
(98.22629552 -1.410796541 1.706447225e-20)
(98.09106414 -0.8296984852 7.138070068e-22)
(98.01970282 -0.2735494215 -1.257847787e-20)
(103.1342396 -0.2770141048 0)
(103.0945914 -0.8397860363 0)
(103.0202053 -1.417570722 0)
(102.8923901 -2.03112875 0)
(102.6167719 -2.555788165 0)
(102.4146558 -3.279437828 0)
(102.1605564 -4.098320197 7.626720827e-22)
(101.7022713 -4.908830581 -8.858867332e-21)
(101.1684526 -5.785821577 0)
(100.6018392 -6.723532538 -1.967895149e-19)
(100.0680174 -7.843918491 1.141734679e-18)
(96.39116606 -8.63737832 0)
(99.36162175 -10.47216529 -2.74576102e-19)
(99.90669278 -10.40151222 2.356565663e-19)
(99.99201336 -9.272872182 -1.063034235e-19)
(99.71281914 -7.65333929 3.958571399e-19)
(99.28690466 -6.14318559 5.614946665e-19)
(98.86268665 -4.956405536 0)
(98.3942908 -3.812815083 -2.953778284e-20)
(98.1954854 -2.979591249 4.466484162e-20)
(97.80437968 -2.061228019 1.077879451e-20)
(97.64657688 -1.42791066 1.836712342e-20)
(97.54590793 -0.8416273617 -2.0867352e-20)
(97.49182104 -0.2774939556 0)
(103.6598885 -0.2749215119 0)
(103.6319062 -0.8327486091 0)
(103.5805738 -1.404124142 0)
(103.4892864 -1.998712435 0)
(103.2606584 -2.519389287 0)
(103.1271905 -3.206025276 0)
(102.9495123 -3.954496874 0)
(102.5842936 -4.723990803 0)
(102.1284851 -5.556361698 0)
(101.6144515 -6.358799512 -3.002832257e-19)
(101.3536391 -7.245406479 -2.023758803e-18)
(92.70155971 -6.823103477 0)
(99.87273228 -8.542968771 7.261566471e-20)
(99.51160734 -8.465715842 1.710179128e-20)
(99.04660105 -7.719644842 -2.675577817e-20)
(98.61418405 -6.65287674 -8.861730427e-20)
(98.23881876 -5.600211924 1.13134648e-20)
(97.92700486 -4.650731975 0)
(97.60193121 -3.656944869 0)
(97.48630993 -2.898640435 0)
(97.18977062 -2.01561048 3.738597566e-20)
(97.07705452 -1.408119102 -3.497862688e-20)
(97.00412642 -0.8312851326 -2.358148144e-21)
(96.96404914 -0.2744352948 2.366122707e-21)
(104.1761475 -0.2679106465 0)
(104.15749 -0.8103056924 0)
(104.123847 -1.364630027 0)
(104.0608476 -1.929460716 0)
(103.87044 -2.432338748 0)
(103.7846081 -3.068107663 0)
(103.6524951 -3.737106017 0)
(103.3371747 -4.415772377 0)
(102.8907952 -5.152624807 2.916950206e-20)
(102.3662135 -5.846955782 1.114899253e-19)
(100.6103592 -6.387041144 2.760432178e-18)
(97.11961228 -6.889470143 8.85933053e-19)
(99.8625298 -7.218722783 -1.939179833e-19)
(99.0417627 -7.042754682 -5.340593103e-20)
(98.32335832 -6.506400477 5.805683314e-19)
(97.80128685 -5.805741624 5.72260646e-20)
(97.4187347 -5.047375985 0)
(97.14967731 -4.285980536 0)
(96.90223248 -3.431947982 0)
(96.83592249 -2.755152649 0)
(96.60916513 -1.928233575 0)
(96.53010931 -1.357719912 0)
(96.4786021 -0.8040337499 0)
(96.44917012 -0.2664449865 0)
(104.6744804 -0.2571540042 0)
(104.6628041 -0.7762459154 0)
(104.6416485 -1.305663653 0)
(104.5987327 -1.834206514 0)
(104.4366585 -2.309746049 0)
(104.3787109 -2.888608206 0)
(104.2662978 -3.480551951 0)
(103.9669659 -4.065846734 0)
(103.5102017 -4.66864297 0)
(102.9565206 -5.246862109 -2.631919694e-21)
(98.22921738 -5.392113268 8.063920135e-21)
(100.109615 -6.106751407 3.268776678e-19)
(99.66713005 -6.132603871 9.528959766e-20)
(98.6421257 -5.961561524 1.267951484e-21)
(97.81465325 -5.595730279 0)
(97.2049462 -5.094749748 0)
(96.77725197 -4.511953055 0)
(96.50890745 -3.898619533 0)
(96.29474023 -3.170724829 0)
(96.25193428 -2.575193372 0)
(96.07086049 -1.814426434 0)
(96.01440521 -1.286775577 0)
(95.97747474 -0.7639087709 0)
(95.95647134 -0.2536969809 0)
(105.1487861 -0.2437805546 0)
(105.1418459 -0.7341909279 0)
(105.1283348 -1.23343558 0)
(105.0979146 -1.722784935 0)
(104.955251 -2.165461524 0)
(104.9088799 -2.686790899 0)
(104.7960452 -3.20967567 0)
(104.4924169 -3.708369897 0)
(104.0081185 -4.202439018 0)
(103.3915128 -4.654603972 0)
(97.8937599 -4.689293958 0)
(100.5467134 -5.263380521 0)
(99.59583959 -5.269177518 0)
(98.41000551 -5.13398919 0)
(97.4539588 -4.858422887 0)
(96.75015036 -4.474816643 0)
(96.26863098 -4.016555137 0)
(95.97881019 -3.516535313 0)
(95.77127883 -2.897104037 0)
(95.73315342 -2.377435628 0)
(95.57858022 -1.686197593 0)
(95.53540979 -1.203428333 0)
(95.50717565 -0.7159553226 0)
(95.49159765 -0.2381880384 0)
(105.595126 -0.2288161049 0)
(105.5909238 -0.6874214479 0)
(105.580863 -1.153509291 0)
(105.556369 -1.603135489 0)
(105.42604 -2.010654515 0)
(105.3788025 -2.477424829 0)
(105.2511518 -2.938440593 0)
(104.9321426 -3.362336817 0)
(104.4118002 -3.771115004 0)
(103.7023483 -4.128594552 0)
(97.77431442 -4.108760008 0)
(100.7021254 -4.58050301 0)
(99.5474423 -4.570177373 -2.971634213e-35)
(98.2336731 -4.456723807 0)
(97.17591335 -4.239570538 0)
(96.39363334 -3.937205887 0)
(95.85888323 -3.569435693 0)
(95.53735309 -3.156620412 0)
(95.32071734 -2.627690103 0)
(95.27475241 -2.175459388 0)
(95.13243811 -1.552556392 0)
(95.09514418 -1.114073098 0)
(95.07084169 -0.6640272576 0)
(95.05838817 -0.2213115965 0)
(106.0113902 -0.2131158467 0)
(106.0082798 -0.6386493872 0)
(105.9983543 -1.070481228 0)
(105.9745177 -1.481359203 0)
(105.8509567 -1.853648569 0)
(105.7941794 -2.270546523 0)
(105.6425519 -2.675201215 0)
(105.3023568 -3.038342783 0)
(104.7437907 -3.380399984 0)
(103.9302478 -3.668148038 0)
(97.73310474 -3.620610147 0)
(100.7764223 -4.015698964 0)
(99.49716747 -3.993668551 0)
(98.08958673 -3.894353144 0)
(96.95430285 -3.717062163 0)
(96.10744148 -3.472398139 0)
(95.52350697 -3.171637409 0)
(95.16686734 -2.827246854 0)
(94.93167559 -2.372869713 0)
(94.87042436 -1.97859451 0)
(94.73041143 -1.419907986 0)
(94.69342761 -1.023591082 0)
(94.669466 -0.6110792368 0)
(94.65831032 -0.2040457324 0)
(106.3969818 -0.1973443109 0)
(106.3936763 -0.5899408672 0)
(106.3814479 -0.9878417772 0)
(106.3543405 -1.361970989 0)
(106.2332404 -1.700338304 0)
(106.1612741 -2.072349153 0)
(105.9815035 -2.427054824 0)
(105.6163889 -2.740831645 0)
(105.0211158 -3.030724229 0)
(104.0983816 -3.265661752 0)
(97.75761734 -3.208318742 0)
(100.8092755 -3.541210146 0)
(99.4456141 -3.511267738 -4.400211249e-35)
(97.96780023 -3.422333475 0)
(96.77261282 -3.273527592 0)
(95.87276525 -3.070974191 0)
(95.24489411 -2.820738789 0)
(94.85364114 -2.530213598 0)
(94.59411519 -2.137740563 0)
(94.51360663 -1.792534178 0)
(94.36922448 -1.292641406 0)
(94.32864288 -0.9354671909 0)
(94.30250118 -0.5592340521 0)
(94.2912734 -0.1870828383 0)
(106.7524586 -0.1819963328 0)
(106.7479855 -0.542794027 0)
(106.7317425 -0.9080837445 0)
(106.6985957 -1.24812914 0)
(106.5767517 -1.554670148 0)
(106.4860915 -1.88672322 0)
(106.2764116 -2.198447775 0)
(105.8854261 -2.471368371 0)
(105.2562328 -2.720189534 0)
(104.2225817 -2.914180831 0)
(97.83627763 -2.858060339 0)
(100.8183393 -3.139178379 0)
(99.39381885 -3.103752342 0)
(97.8623529 -3.023000013 0)
(96.62010213 -2.895366846 0)
(95.67664858 -2.724362265 0)
(95.01012428 -2.512894561 0)
(94.58600701 -2.264962046 0)
(94.30002377 -1.924035308 0)
(94.19810781 -1.62048623 0)
(94.04507768 -1.173556967 0)
(93.99833665 -0.8520147569 0)
(93.96834428 -0.5099286427 0)
(93.95605604 -0.1708969373 0)
(107.0791647 -0.1674264564 0)
(107.0728161 -0.498255343 0)
(107.0514146 -0.8329120003 0)
(107.0103782 -1.141902498 0)
(106.8854822 -1.419147746 0)
(106.7742031 -1.716001586 0)
(106.5343468 -1.991079007 0)
(106.1182543 -2.229971512 0)
(105.4579383 -2.446018759 0)
(104.313949 -2.607549963 0)
(97.95696302 -2.559391407 0)
(100.8128597 -2.796711478 0)
(99.34255228 -2.757537965 1.629134782e-35)
(97.76939703 -2.683429268 0)
(96.4895783 -2.572007 0)
(95.51002379 -2.425200061 0)
(94.80972605 -2.243996155 0)
(94.35510093 -2.030117492 0)
(94.04241352 -1.732197884 0)
(93.91836216 -1.464025459 0)
(93.75408949 -1.06427343 0)
(93.69963082 -0.7746688529 0)
(93.66475036 -0.4640828389 0)
(93.65071514 -0.1557979739 0)
(107.3789572 -0.1538748185 0)
(107.3702428 -0.4570148178 0)
(107.3429786 -0.7634218132 0)
(107.2929032 -1.044522678 0)
(107.1633666 -1.295172377 0)
(107.0306494 -1.561272945 0)
(106.761369 -1.805266017 0)
(106.3218499 -2.015775813 0)
(105.6326668 -2.205326686 0)
(104.3801024 -2.340522531 0)
(98.10783801 -2.304831674 0)
(100.7982441 -2.504200101 0)
(99.29219283 -2.462533554 0)
(97.68622563 -2.393838259 0)
(96.37601999 -2.295099689 0)
(95.36638204 -2.167235793 0)
(94.63663821 -2.010038208 0)
(94.154046 -1.823693043 0)
(93.81538479 -1.561768344 0)
(93.66940377 -1.323629806 0)
(93.49248572 -0.9655642316 0)
(93.42946696 -0.7042300698 0)
(93.38912239 -0.4222344418 0)
(93.37288819 -0.1419725498 0)
(107.6540304 -0.1414897934 0)
(107.6426317 -0.4194829383 0)
(107.6091295 -0.7002466259 0)
(107.5493825 -0.9566231876 0)
(107.4141005 -1.183415664 0)
(107.2598882 -1.42283327 0)
(106.9625936 -1.640571742 0)
(106.5017382 -1.827413919 0)
(105.7852375 -1.995279862 0)
(104.4260699 -2.108461783 0)
(98.27798411 -2.088203742 0)
(100.7779311 -2.254271729 0)
(99.2428227 -2.211034055 0)
(97.61084003 -2.146737446 0)
(96.27582474 -2.058084729 0)
(95.24097114 -1.945295526 0)
(94.48553686 -1.807387485 0)
(93.97747794 -1.643500146 0)
(93.61406667 -1.411799833 0)
(93.44690157 -1.199128467 0)
(93.25667623 -0.87763997 0)
(93.18474694 -0.6410494572 0)
(93.13868781 -0.3846413103 0)
(93.11997832 -0.1295152542 0)
(107.9067893 -0.1303509139 0)
(107.8925139 -0.3858631387 0)
(107.8526295 -0.6436812984 0)
(107.782942 -0.87841182 0)
(107.6411757 -1.084007979 0)
(107.4659076 -1.300417839 0)
(107.1423854 -1.496048269 0)
(106.6622956 -1.663110815 0)
(105.9192736 -1.812957828 0)
(104.4556565 -1.907437313 0)
(98.457907 -1.90378312 0)
(100.7540625 -2.041029498 0)
(99.1944008 -1.996965081 0)
(97.54171041 -1.936271531 0)
(96.18630221 -1.855735196 0)
(95.13019346 -1.755077356 0)
(94.35228075 -1.632802126 0)
(93.82108902 -1.487335146 0)
(93.43434239 -1.28106127 0)
(93.24701378 -1.08993728 0)
(93.04329277 -0.8003450267 0)
(92.96242406 -0.5851702786 0)
(92.91061549 -0.3513659219 0)
(92.88927846 -0.1184557107 0)
(108.1396917 -0.1204912136 0)
(108.122437 -0.3562202484 0)
(108.0761785 -0.5937973253 0)
(107.9965241 -0.8098404273 0)
(107.8477871 -0.9967641882 0)
(107.6521932 -1.193460239 0)
(107.3043482 -1.370489966 0)
(106.8069019 -1.52095541 0)
(106.0374667 -1.655578137 0)
(104.4727434 -1.734207388 0)
(98.6405382 -1.746726481 0)
(100.7278953 -1.859768826 0)
(99.14692125 -1.81549723 0)
(97.47766771 -1.757818804 0)
(96.10539446 -1.683872035 0)
(95.03126145 -1.593036595 0)
(94.23359336 -1.483480636 0)
(93.68137861 -1.353138481 0)
(93.27274895 -1.168250847 0)
(93.06637395 -0.9952821702 0)
(92.84924322 -0.7333268911 0)
(92.75960144 -0.5364489527 0)
(92.70214105 -0.3223495502 0)
(92.67810882 -0.1087829197 0)
(108.35528 -0.1119111073 0)
(108.3349956 -0.330526204 0)
(108.2824568 -0.55052051 0)
(108.1929621 -0.7506842326 0)
(108.036861 -0.9213204178 0)
(107.8218182 -1.101275549 0)
(107.4513071 -1.262392491 0)
(106.9382289 -1.39922542 0)
(106.1419642 -1.520839123 0)
(104.4813363 -1.586458996 0)
(98.8214058 -1.613611547 0)
(100.7001868 -1.706740315 0)
(99.100427 -1.662707615 0)
(97.41780885 -1.607619031 0)
(96.03147571 -1.539064696 0)
(94.94194308 -1.456204531 0)
(94.12680418 -1.357007081 0)
(93.55537571 -1.239064854 0)
(93.12632828 -1.072124423 0)
(92.90199726 -0.914324254 0)
(92.67162817 -0.6761149014 0)
(92.57348936 -0.4946330125 0)
(92.51054312 -0.2974591734 0)
(92.48379567 -0.1004597551 0)
(108.5557851 -0.1045997752 0)
(108.5324717 -0.3087137123 0)
(108.4737976 -0.5136958529 0)
(108.3746791 -0.7007168488 0)
(108.2110572 -0.8572189572 0)
(107.977536 -1.023103071 0)
(107.5859814 -1.170335006 0)
(107.0583014 -1.296442 0)
(106.234692 -1.406927205 0)
(104.4849058 -1.462212513 0)
(98.99790966 -1.502035272 0)
(100.6714353 -1.578984878 0)
(99.05496463 -1.535460747 -2.937779448e-36)
(97.3614317 -1.482628205 0)
(95.96324335 -1.418502624 0)
(94.86042589 -1.342107668 0)
(94.029736 -1.251329639 0)
(93.44072337 -1.143778733 0)
(92.99239431 -0.9916993191 0)
(92.75120937 -0.8462104644 0)
(92.50795742 -0.6282609578 0)
(92.40164656 -0.4594210022 0)
(92.33341603 -0.2765367552 0)
(92.3039776 -0.09344247407 0)
(108.7443869 -0.09851687644 0)
(108.7179945 -0.2906605515 0)
(108.6532817 -0.483122536 0)
(108.5447533 -0.6594539102 0)
(108.3728584 -0.8040007689 0)
(108.1217859 -0.9581138044 0)
(107.7111149 -1.093992596 0)
(107.168848 -1.211168509 0)
(106.3174726 -1.312326724 0)
(104.4862038 -1.359709494 0)
(99.16871051 -1.410240339 0)
(100.6420067 -1.47417847 0)
(99.0105449 -1.431303175 0)
(97.3079633 -1.38042213 0)
(95.89962634 -1.319910057 0)
(94.78520307 -1.248701131 0)
(93.94057118 -1.16466996 0)
(93.33555954 -1.065661683 0)
(92.86854123 -0.9258596172 0)
(92.61160822 -0.7901629424 0)
(92.35526493 -0.5891546028 0)
(92.24111199 -0.4304952826 0)
(92.16775618 -0.259387634 0)
(92.13560616 -0.087665806 0)
(108.9204215 -0.09369835433 0)
(108.8911011 -0.2763855877 0)
(108.8205455 -0.4586690732 0)
(108.7029303 -0.6272945109 0)
(108.524495 -0.7610999056 0)
(108.256727 -0.9056048996 0)
(107.8285451 -1.033635616 0)
(107.271727 -1.142092323 0)
(106.3920946 -1.235778918 0)
(104.4873215 -1.277417278 0)
(99.3333356 -1.336930595 0)
(100.6121804 -1.390483239 0)
(98.96711997 -1.348307197 0)
(97.2568907 -1.29907294 0)
(95.83969687 -1.241452212 0)
(94.71495956 -1.174311979 0)
(93.85764472 -1.095531478 0)
(93.23769515 -1.002719819 0)
(92.75298856 -0.8731589511 0)
(92.480922 -0.7452205728 0)
(92.21338847 -0.5589162627 0)
(92.09175612 -0.407582969 0)
(92.01349693 -0.2459406468 0)
(91.97879101 -0.08313323482 0)
(109.0973163 -0.08993092522 0)
(109.0645514 -0.2654918641 0)
(108.9878476 -0.4399994179 0)
(108.8600589 -0.6010599078 0)
(108.6690295 -0.7283682439 0)
(108.3842502 -0.8655833534 0)
(107.9393118 -0.9877673495 0)
(107.3685306 -1.088653897 0)
(106.4602299 -1.176339143 0)
(104.4898058 -1.214119443 0)
(99.49178802 -1.281213629 0)
(100.5821708 -1.326493775 0)
(98.92459378 -1.28499379 0)
(97.207742 -1.237089616 0)
(95.78264012 -1.181700576 0)
(94.6485478 -1.117639391 0)
(93.77950074 -1.042818358 0)
(93.14538043 -0.95474893 0)
(92.64394426 -0.8331316848 0)
(92.35732769 -0.7117288244 0)
(92.07295769 -0.5347584824 0)
(91.94313705 -0.3903189947 0)
(91.85979559 -0.2357927115 0)
(91.82208231 -0.07963461996 0)
(109.2340829 -0.08786712248 0)
(109.1992111 -0.2591133251 0)
(109.1178376 -0.4285379123 0)
(108.9838774 -0.5885280705 0)
(108.8048466 -0.7049668283 0)
(108.5058333 -0.8371619291 0)
(108.0449925 -0.9555576664 0)
(107.460561 -1.050054425 0)
(106.5234381 -1.133208769 0)
(104.4948119 -1.168835478 0)
(99.64443072 -1.24235673 0)
(100.5521295 -1.281146819 0)
(98.88281476 -1.240239432 0)
(97.16005988 -1.193334126 0)
(95.7277128 -1.139561745 0)
(94.58494332 -1.077685028 0)
(93.70487426 -1.005660333 0)
(93.05724134 -0.9209079952 0)
(92.53981418 -0.8052383143 0)
(92.23942257 -0.6886516805 0)
(91.96143745 -0.5228735091 0)
(91.82658755 -0.3796976369 0)
(91.73938862 -0.2298586567 0)
(91.69991462 -0.07773700224 0)
(109.4949897 -0.08539730144 0)
(109.4553507 -0.2530515581 0)
(109.3647033 -0.4182806466 0)
(109.2125811 -0.570099922 0)
(108.9312962 -0.6920513728 0)
(108.6172969 -0.8207419156 0)
(108.142427 -0.9370234817 0)
(107.5489456 -1.025642126 0)
(106.5832237 -1.105626433 0)
(104.5033135 -1.140951325 0)
(99.79146258 -1.219990487 0)
(100.5221908 -1.253712867 0)