/*--------------------------------*- C++ -*----------------------------------*\
| =========                 |                                                 |
| \\      /  F ield         | OpenFOAM: The Open Source CFD Toolbox           |
|  \\    /   O peration     | Version:  v1912                                 |
|   \\  /    A nd           | Website:  www.openfoam.com                      |
|    \\/     M anipulation  |                                                 |
\*---------------------------------------------------------------------------*/
FoamFile
{
    version     2.0;
    format      ascii;
    class       surfaceVectorField;
    location    "2.87";
    object      Uf;
}
// * * * * * * * * * * * * * * * * * * * * * * * * * * * * * * * * * * * * * //

dimensions      [0 1 -1 0 0 0 0];


internalField   nonuniform List<vector> 
25162
(
(99.99798274 0.008644587848 -2.284755035e-21)
(99.99190415 0.007866802878 6.773710664e-21)
(99.99702125 0.02047170306 -2.251119252e-21)
(99.98892859 0.0263824909 2.300778554e-21)
(99.99513066 0.03951725308 -4.4858615e-21)
(99.98217495 0.05495826427 1.357545303e-20)
(99.99783991 0.04442475438 1.380870849e-21)
(99.9702357 0.1000297911 -8.882578052e-21)
(99.98744221 0.09823197953 -1.489715133e-21)
(99.99687236 0.08023660541 2.153101066e-21)
(99.99891434 0.04776140732 1.058698586e-21)
(99.98542891 0.1318927825 2.13543107e-21)
(99.99668414 0.07449855345 1.039652471e-21)
(99.99754165 0.05891536655 -1.080803816e-21)
(99.99593567 0.09386483099 1.039610009e-21)
(99.9778851 0.2106180583 2.065269186e-21)
(99.99560883 0.1175125495 0)
(99.99542444 0.143211819 -3.724960461e-21)
(99.97186644 0.3156545963 -3.724941074e-21)
(99.99487255 0.1733021046 -9.636526579e-22)
(99.99429175 0.2072518378 3.244091723e-21)
(99.96505841 0.4514450088 3.505120506e-21)
(99.99381289 0.2446584617 4.311844117e-22)
(99.99352685 0.2845491197 -2.76221021e-21)
(99.96173454 0.6105080078 3.96640756e-22)
(99.99352586 0.3254880429 -2.735794522e-21)
(99.99390497 0.3654735704 4.288191651e-22)
(99.96562061 0.7697562502 -1.793637313e-21)
(99.99431749 0.4022418064 2.499035634e-21)
(99.99483387 0.4334402188 2.047356628e-21)
(99.97869079 0.8911477763 -8.862225529e-22)
(99.99633457 0.4562905525 0)
(99.9987331 0.4684775749 0)
(99.99929125 0.9395545807 1.494022202e-22)
(100.0013094 0.4692357584 0)
(100.0037098 0.4585322227 6.207723148e-22)
(100.0196156 0.8974246125 -1.341792946e-23)
(100.0051974 0.4375494324 1.154125372e-21)
(100.0056042 0.4085665863 -3.922496927e-22)
(100.0320258 0.7846630032 -7.151500096e-22)
(100.005899 0.3742823671 -1.284893007e-21)
(100.006239 0.3371062933 8.267452424e-23)
(100.0358033 0.6361134947 1.857784399e-21)
(100.0062528 0.2988170447 4.866684007e-22)
(100.0059965 0.2611990286 0)
(100.0332492 0.4861208011 0)
(100.005577 0.225641558 0)
(100.005191 0.1928840121 7.612085415e-22)
(100.0272696 0.3559548203 1.585016349e-21)
(100.0051667 0.1637289219 -3.854497307e-21)
(100.0049256 0.1361156691 -1.435267787e-21)
(100.0220205 0.2472238328 3.118756215e-21)
(100.0041751 0.1125792684 3.118523489e-21)
(100.0031076 0.09300785801 -8.639917782e-22)
(100.0130345 0.1673221836 -4.47017048e-23)
(100.0009426 0.07908227411 1.689120321e-21)
(100.0078021 0.07531725443 -7.475993295e-21)
(100.0448972 0.184990256 3.670275909e-22)
(100.0164307 0.1685027674 -2.652207013e-21)
(100.002741 0.07798251055 -1.531773834e-21)
(100.0054018 0.0432584683 -9.346939613e-22)
(100.0299805 0.1126039796 1.482702653e-20)
(100.0044101 0.02017372357 -7.502504244e-21)
(100.021689 0.05955687312 -1.580899441e-20)
(100.0190114 0.01868173617 1.312952378e-21)
(99.98114487 0.02427793684 1.13033648e-20)
(99.96908494 0.01320770623 3.426924849e-22)
(99.97153454 0.05797732226 1.801837937e-20)
(99.95733539 0.04501223532 -1.582704758e-20)
(99.9535222 0.1117924587 9.413753013e-21)
(99.93180838 0.095409586 -2.446375112e-20)
(99.9450836 0.1757672548 -1.602480221e-21)
(99.88856568 0.176310613 4.711598332e-20)
(99.90661044 0.222501383 -1.036234182e-20)
(99.91889537 0.2253939517 -2.226574301e-21)
(99.93825002 0.2216924263 4.366390325e-21)
(99.96187469 0.1576450892 2.169751622e-21)
(99.94084849 0.2589010745 2.10705432e-21)
(99.92111973 0.2846875699 2.151785254e-21)
(99.86766685 0.3759830292 -4.357544078e-21)
(99.90222838 0.3629153494 -2.757581644e-23)
(99.91073408 0.4120959158 2.065593304e-21)
(99.88048691 0.4584406318 -2.359707647e-23)
(99.80455175 0.5992262395 0)
(99.86967175 0.5325654915 0)
(99.83484465 0.6113667164 -2.566766403e-21)
(99.88084852 0.6066530547 -5.030754597e-21)
(99.86440123 0.6417541262 -7.546627486e-23)
(99.82664536 0.7417155217 -1.131428206e-20)
(99.85471111 0.6996174497 -3.889326133e-21)
(99.82476808 0.9300884534 3.074365343e-23)
(99.8503165 0.8740958293 -2.527903219e-21)
(99.77857747 1.075179914 -1.377218769e-20)
(99.81808636 1.006678291 -3.361062682e-21)
(99.80062534 1.282951951 -6.130712014e-21)
(99.83525215 1.194011932 -5.806186394e-21)
(99.75191017 1.477939525 7.328064159e-22)
(99.80064257 1.371902115 -7.342815871e-21)
(99.81106323 1.653610107 -1.093072099e-23)
(99.85239902 1.521054103 -4.651162059e-21)
(99.77071621 1.892870824 -4.651596047e-21)
(99.82272587 1.740737765 -3.475516672e-21)
(99.86926167 1.958041867 -3.819052765e-21)
(99.91093461 1.778316704 -5.981347387e-21)
(99.84681374 2.226490974 -8.666521225e-21)
(99.89223782 2.026302403 -4.133717425e-21)
(99.96947235 2.113576373 -5.738436738e-22)
(99.99932442 1.890727967 -1.509472488e-21)
(99.97304497 2.377583963 1.397350162e-21)
(99.99707002 2.141427502 -5.738268445e-22)
(100.0766658 2.069362322 1.619756596e-22)
(100.0732539 1.818110623 -1.545760297e-22)
(100.1004824 2.291889934 5.433442198e-22)
(100.0993878 2.039893544 -8.954404082e-22)
(100.154622 1.846184495 -2.927747996e-22)
(100.1186057 1.596523686 -2.434520618e-22)
(100.1858966 2.013089215 -8.093203827e-23)
(100.1651196 1.773917556 2.303951586e-21)
(100.1865586 1.521391062 2.51087268e-21)
(100.1329801 1.298073563 4.36934046e-21)
(100.2184442 1.636918547 4.362866512e-21)
(100.1866218 1.42978644 5.365079061e-22)
(100.1801779 1.174026918 -6.845506408e-21)
(100.1236561 0.992114196 -6.373808874e-21)
(100.2063464 1.248962842 -2.310795379e-21)
(100.1731736 1.085454099 -2.258182824e-21)
(100.1506567 0.8660968939 -5.337876098e-21)
(100.0985634 0.7273752056 4.845714743e-22)
(100.1670692 0.9113350608 -1.419320871e-21)
(100.1406788 0.7927589186 5.769350651e-21)
(100.088615 0.4881753678 -1.315429163e-20)
(100.1427279 0.6679979462 -1.315326957e-20)
(100.1979177 0.7163842722 1.330310433e-20)
(100.1213351 0.5510062016 -2.6847619e-20)
(100.1013446 0.4519389854 1.146908036e-20)
(100.1396845 0.4781942272 -1.623595989e-20)
(100.0818421 0.3684594667 2.350961691e-20)
(100.061613 0.3276052354 2.610619947e-20)
(100.0736652 0.2177236217 2.207369793e-20)
(100.1685586 0.3419148795 -1.665589941e-22)
(100.1310868 0.3902077694 4.667035575e-20)
(100.0772078 0.3085686825 2.510846374e-21)
(100.0518989 0.1256294894 -7.040217933e-22)
(100.1163853 0.2067260012 3.163716715e-20)
(100.0409335 0.05730818325 -7.373055907e-21)
(100.086096 0.1094202063 -1.676980723e-20)
(100.0730666 0.03422523438 7.500853052e-21)
(99.94882455 0.0324450123 -2.715258435e-20)
(99.93844931 0.01361230051 -1.357104042e-20)
(99.92221284 0.07924562766 -5.873346338e-20)
(99.91324144 0.04829911303 1.242727942e-20)
(99.87362399 0.1561271609 1.185428452e-20)
(99.85961905 0.1081818549 -4.971339623e-20)
(99.8240903 0.2674695856 2.998947241e-20)
(99.77207324 0.207577224 5.400909455e-20)
(99.76378441 0.2938843244 -4.723900113e-20)
(99.85052529 0.282810754 -8.918380114e-21)
(99.76934718 0.3236047513 -6.603949849e-20)
(99.79059603 0.3542934066 -4.46359326e-21)
(99.76779262 0.4775818589 -8.678332344e-21)
(99.73910955 0.4632610801 -4.323721341e-21)
(99.64328698 0.5583625773 3.036125491e-20)
(99.67982586 0.5965885287 8.504659391e-21)
(99.65868317 0.769314296 -7.497824767e-21)
(99.6122044 0.7589620868 5.554570153e-21)
(99.47508375 0.913686069 -4.27433872e-20)
(99.57456158 0.9205786516 2.984584869e-21)
(99.5046246 0.9900059013 -1.858710798e-20)
(99.56172682 1.134318087 -7.612565828e-21)
(99.52532709 1.135580669 0)
(99.44530507 1.25278322 7.905801617e-21)
(99.48999349 1.260003537 -7.571724435e-21)
(99.43820159 1.676791002 3.67208844e-21)
(99.38481455 1.694258688 1.437868045e-20)
(99.28627355 1.865862141 7.117346779e-21)
(99.35372961 1.856648828 1.784658675e-20)
(99.3639178 2.343096584 2.09952053e-20)
(99.28988801 2.391935885 1.936107404e-20)
(99.19080533 2.62117188 4.839959613e-20)
(99.28393592 2.576985304 1.778483313e-20)
(99.40710998 3.043331405 -5.120453348e-21)
(99.31900127 3.144220674 0)
(99.23950768 3.430727915 0)
(99.3509281 3.325156389 0)
(99.60176204 3.638416304 0)
(99.51596274 3.814194773 -7.833835491e-21)
(99.48681401 4.134947373 0)
(99.5949913 3.941287459 2.317447158e-20)
(99.94026304 3.927898483 -3.035260299e-21)
(99.88536281 4.184059097 -4.298430148e-21)
(99.92633084 4.486609215 9.504198032e-21)
(99.99111384 4.203734088 2.628354914e-21)
(100.2933532 3.782444316 5.790432493e-22)
(100.2947393 4.088077642 -2.19112523e-21)
(100.3881852 4.317551737 -4.908742062e-21)
(100.381726 3.989455794 1.318191109e-21)
(100.518571 3.275755024 2.689352509e-21)
(100.5725566 3.57561081 6.983423396e-22)
(100.6772998 3.715505061 1.32663593e-21)
(100.611359 3.40606817 5.970098767e-22)
(100.5907391 2.621731186 3.052859517e-21)
(100.6684058 2.873920625 5.73609402e-21)
(100.7587705 2.944730669 2.028300618e-21)
(100.6712628 2.694086169 6.498069267e-21)
(100.5540127 1.976043832 -6.344703855e-21)
(100.6386967 2.177665357 -1.483971324e-20)
(100.708579 2.208189195 -5.135442927e-21)
(100.6159572 2.012384223 5.636929849e-21)
(100.5322152 1.565866749 -1.761025115e-20)
(100.4570682 1.416596231 -1.184967868e-20)
(100.5820499 1.572929303 -1.186565845e-20)
(100.5044824 1.432037207 6.304009583e-21)
(100.3482777 0.9260352994 -5.202602077e-20)
(100.4682209 1.133902911 -2.727150028e-20)
(100.5395401 1.111838233 -7.893447757e-20)
(100.4009837 0.9301277256 -3.746629997e-20)
(100.2489007 0.6144149248 -5.918555635e-20)
(100.3392615 0.757218896 2.358168489e-20)
(100.3852964 0.7304494602 -2.809818369e-20)
(100.2828711 0.6119545843 -2.456113956e-20)
(100.2037133 0.327163116 9.941782829e-21)
(100.3517599 0.4454429426 -2.518147732e-20)
(100.3358705 0.5459019333 -1.34686285e-22)
(100.2505914 0.4989794277 -1.444913883e-20)
(100.1453978 0.1876459922 1.483053176e-20)
(100.2476245 0.2666439924 2.634428264e-20)
(100.1139837 0.08509537394 -1.88393615e-21)
(100.1828423 0.1400151805 -3.799398318e-21)
(100.1533178 0.0434804205 0)
(99.90953302 0.02831403426 2.726504567e-20)
(99.91176568 0.007125255855 -4.552077061e-21)
(99.8588587 0.07453448882 2.297226055e-20)
(99.86968987 0.02990128834 3.185248592e-20)
(99.76794707 0.158544505 -9.122718175e-21)
(99.78048931 0.08264215372 -4.498896421e-21)
(99.65303617 0.3046848189 0)
(99.63578089 0.1777870321 6.966345114e-21)
(99.58138216 0.3026095542 2.11663411e-20)
(99.67285121 0.3471785836 -6.17172287e-20)
(99.56837564 0.3498059216 1.591368973e-20)
(99.57751518 0.4158624743 0)
(99.49765019 0.6133559158 2.438165689e-22)
(99.47619461 0.5554965445 -3.501336672e-20)
(99.33485931 0.6385374471 -3.498981225e-20)
(99.35664489 0.7294797706 7.09415813e-20)
(99.25731449 1.024271992 -1.052873074e-19)
(99.21766149 0.9438391277 3.938801431e-20)
(99.01345498 1.089291462 -7.047302305e-20)
(99.11003726 1.194956274 -3.508714817e-20)
(99.01153092 1.219278022 -5.761255449e-20)
(99.01452831 1.550155333 8.291121431e-21)
(98.97376056 1.504589655 1.645979935e-20)
(98.8453764 1.625135887 4.169541598e-20)
(98.8912835 1.68541118 8.222399112e-21)
(98.71703128 2.364812842 6.090617996e-21)
(98.64703592 2.319600159 7.961828423e-21)
(98.49306798 2.498299347 7.953671371e-21)
(98.57572701 2.559629004 -5.44357879e-20)
(98.5233815 3.397876375 -1.731517821e-19)
(98.41219161 3.371619458 -5.863907595e-20)
(98.24798316 3.630995532 6.708849832e-20)
(98.38175405 3.670489056 -2.920162538e-19)
(98.55944626 4.59778554 -4.923587614e-21)
(98.40089228 4.62755574 1.203986325e-19)
(98.26193373 4.984399802 3.098988346e-19)
(98.45449162 4.954438998 1.492256944e-19)
(98.98932381 5.735434881 1.265357545e-20)
(98.79956847 5.879713295 -5.275502666e-20)
(98.75513426 6.314733625 -2.672199694e-19)
(98.9814906 6.14140242 6.632567374e-20)
(99.84999278 6.359649604 -7.4018941e-20)
(99.69703149 6.660146 -4.32671192e-20)
(99.8062933 7.072466105 3.282822923e-20)
(99.96841647 6.717547524 3.399941519e-20)
(100.7869547 6.10187658 5.004343579e-20)
(100.754593 6.509502879 5.975948074e-20)
(100.9690998 6.775794993 8.527319467e-20)
(100.9749219 6.322670249 3.410004923e-21)
(101.3398099 5.121835222 2.352703063e-21)
(101.4309658 5.523451982 3.311896154e-20)
(101.6384313 5.624924829 -4.988064187e-20)
(101.5116286 5.208250929 -8.17142816e-20)
(101.4335753 3.91567873 -3.925986023e-20)
(101.5786539 4.236438393 -3.963564149e-20)
(101.7266378 4.238222586 -3.680306568e-20)
(101.5573959 3.923836401 -7.358712121e-20)
(101.2842041 2.842846425 -4.291534642e-20)
(101.4237809 3.07040253 2.277229133e-20)
(101.5188452 3.02778438 -9.015198594e-20)
(101.3662594 2.816974636 1.240783878e-19)
(101.1729177 2.150152521 0)
(101.0491413 1.987894207 4.745060934e-20)
(101.2335814 2.104163099 0)
(101.102191 1.953885339 0)
(100.7687766 1.266034451 2.860944269e-20)
(100.9669649 1.484829035 1.858232645e-20)
(101.0313702 1.380960403 -1.615659723e-20)
(100.8234329 1.204730429 3.587247103e-20)
(100.5488719 0.8221342796 -3.263461398e-20)
(100.6954588 0.9692227732 -1.457600522e-20)
(100.7333779 0.8864630517 -1.47146917e-20)
(100.5833841 0.7725127148 -7.15691918e-21)
(100.3837926 0.3826999584 -9.169629752e-21)
(100.5791926 0.473485282 -1.889010781e-20)
(100.6130873 0.6362016952 -2.499481709e-21)
(100.5047084 0.6129711022 5.538141169e-21)
(100.2742962 0.2165280181 7.57394057e-21)
(100.4042712 0.2789100345 1.150042071e-20)
(100.2132737 0.09710343033 -1.915123221e-21)
(100.2954678 0.1430484347 -3.378578343e-21)
(100.2448923 0.04383759521 -4.851155589e-22)
(99.87906662 0.008315822974 0)
(99.90394472 -0.007316219654 0)
(99.80032471 0.03618100446 4.611071029e-21)
(99.84348384 -0.01368859197 0)
(99.65887745 0.104391392 1.173381106e-20)
(99.7162901 0.01142606357 -3.706735227e-21)
(99.46347835 0.2665268947 1.939249963e-20)
(99.50405986 0.07871378372 2.579657069e-20)
(99.39418691 0.2224464811 -7.774251865e-21)
(99.46305269 0.3297002056 2.740277938e-20)
(99.35507106 0.285018577 2.204333142e-21)
(99.33338603 0.381756577 -1.116635857e-20)
(99.16114239 0.6293840339 0)
(99.16545128 0.5310897157 -2.301931378e-20)
(98.98310952 0.5817920065 -1.893234586e-20)
(98.96587736 0.7212078016 4.69826328e-21)
(98.74489073 1.101072118 0)
(98.73294933 0.9622253182 4.697760269e-21)
(98.4628083 1.056905996 -4.863113253e-21)
(98.51313821 1.267551655 2.343032162e-20)
(98.40031076 1.258611099 6.07346399e-21)
(98.27820587 1.743650304 1.643228431e-19)
(98.25143806 1.64548752 -1.036946812e-19)
(98.07637186 1.743053911 -6.523798774e-20)
(98.10642547 1.859723785 3.356581743e-20)
(97.7238223 2.772414946 7.098722691e-20)
(97.65788568 2.648390448 5.786055067e-19)
(97.43927551 2.805935351 -9.118376625e-19)
(97.51126133 2.962421743 2.878264646e-19)
(97.24739626 4.206620427 -8.455456437e-19)
(97.11567786 4.074253056 -5.868943516e-19)
(96.85353919 4.341380948 -6.05709357e-19)
(97.00972706 4.506177428 -1.48199137e-19)
(97.08594758 6.095391593 -4.015961778e-19)
(96.84779761 5.996303345 2.998492615e-19)
(96.57860821 6.430616187 -1.728140908e-21)
(96.87419535 6.551249954 -4.378734738e-19)
(97.72368249 8.225707961 -5.170049141e-19)
(97.35379693 8.284504753 -3.676129186e-19)
(97.22413036 8.926850834 -1.928384529e-19)
(97.68389 8.829318774 -1.800266299e-19)
(99.5682022 9.622860548 1.073030086e-19)
(99.20152922 10.0074348 2.39660706e-19)
(99.43024655 10.66515308 -1.720849822e-20)
(99.82984689 10.16114637 1.78800857e-19)
(101.7362544 9.142305583 5.552529726e-20)
(101.6391729 9.758016893 0)
(102.0968182 10.07899848 -5.828013987e-20)
(102.1251747 9.375734144 -1.207983546e-20)
(102.8559469 7.247473157 1.265387862e-19)
(103.0297544 7.816712294 -3.143055305e-20)
(103.3986087 7.816890487 -4.248784593e-20)
(103.1520919 7.239991828 3.813821407e-20)
(102.8600064 5.150098657 -1.879907945e-19)
(103.1269212 5.555369611 8.311527784e-20)
(103.342906 5.429849359 2.188471437e-20)
(103.0320112 5.049181553 -1.766381742e-19)
(102.3797618 3.507598423 -4.762727602e-20)
(102.6195568 3.760588403 1.69293397e-21)
(102.7187887 3.63025091 1.618161115e-19)
(102.4665198 3.401504067 1.664075464e-19)
(102.0375233 2.510543995 1.404766211e-20)
(101.8589228 2.352324159 -3.722548507e-21)
(102.0901142 2.399926156 1.816957979e-20)
(101.9072327 2.263909065 2.210551172e-20)
(101.3223103 1.450343078 -9.174872816e-20)
(101.6043566 1.657456902 -5.805357617e-20)
(101.6364402 1.467281311 -3.250174056e-20)
(101.3572723 1.322629616 -1.66378386e-20)
(100.9337007 0.9174510032 1.12711959e-20)
(101.1388833 1.047005777 3.40501866e-20)
(101.1461185 0.911164452 -3.797456841e-21)
(100.9503518 0.8206342397 -3.722233748e-21)
(100.5869061 0.3710421618 1.948484942e-21)
(100.818991 0.4100990098 0)
(100.9238892 0.6169997443 -7.590085707e-23)
(100.8068256 0.6342964025 -1.012960852e-20)
(100.4147006 0.2031345034 4.329235919e-22)
(100.5625857 0.2332140092 1.948309278e-21)
(100.3179721 0.08888507185 -1.951945605e-21)
(100.4032184 0.1131037267 -1.954159405e-21)
(100.3287248 0.03371448749 -1.956585548e-21)
(99.8751822 -0.02907115534 0)
(99.93139235 -0.02979155649 2.25840528e-21)
(99.76809897 -0.03911587938 -9.232586245e-21)
(99.85305106 -0.08252108784 -2.276477119e-21)
(99.57429217 -0.01189619384 9.606134479e-21)
(99.69080306 -0.10694864 -4.580801661e-21)
(99.28889304 0.1149908622 1.256062849e-20)
(99.41722608 -0.09268360094 3.889399706e-21)
(99.23034425 0.04645314332 -3.948026586e-23)
(99.2603407 0.2133433283 -9.315478207e-21)
(99.15453601 0.1167100657 -9.437996548e-21)
(99.09702853 0.2274566365 0)
(98.80836523 0.4930082971 -1.893187849e-20)
(98.85566787 0.3627177462 0)
(98.64461713 0.3628259161 -1.314231762e-22)
(98.56623835 0.5376356933 -9.354264356e-23)
(98.17726848 0.9522156954 9.797007944e-21)
(98.22340718 0.7643858847 1.469241062e-20)
(97.90555198 0.784246165 1.984259794e-20)
(97.87990753 1.089952999 -1.617348125e-20)
(97.77475449 1.018887048 3.514162913e-20)
(97.46219408 1.60599935 0)
(97.47255434 1.462839526 0)
(97.2602298 1.512781544 3.29075883e-19)
(97.24306593 1.682818274 3.263373736e-19)
(96.52547065 2.716592479 2.680938336e-20)
(96.49919114 2.517436993 -1.620229407e-19)
(96.21092088 2.62131603 -7.120657143e-19)
(96.23705891 2.867676201 3.808039471e-19)
(95.50408016 4.444989474 6.462388519e-20)
(95.40833162 4.187543966 6.397926964e-20)
(95.01590926 4.367381301 8.353185393e-19)
(95.12468479 4.722967844 6.965784397e-19)
(94.62255424 7.165845179 -1.27188695e-18)
(94.3439479 6.814338242 1.269935292e-20)
(93.81305616 7.259203946 -1.514797783e-18)
(94.15997806 7.700133766 -9.836224003e-19)
(94.94556046 11.21001307 0)
(94.27170292 10.98146316 0)
(93.80049992 11.9935038 7.530959928e-20)
(94.71175485 12.22424651 -8.804400442e-19)
(98.72270189 14.74430237 3.827937991e-19)
(97.82955172 15.29783886 3.130319686e-19)
(98.34742136 16.6028257 2.013953993e-19)
(99.34519842 15.72104489 2.014455357e-19)
(103.7905698 13.4891077 3.557370311e-19)
(103.6343952 14.57683835 5.138297039e-19)
(104.6873965 14.86425257 -1.127354544e-20)
(104.6159633 13.63028458 -1.22811407e-19)
(105.6368903 9.515386448 3.067141697e-19)
(106.0296941 10.33226844 3.978519156e-21)
(106.6468217 10.04488497 2.102509182e-19)
(106.1006063 9.270738011 2.109132301e-19)
(105.1002624 6.107501525 2.554522836e-19)
(105.5836374 6.560596271 1.375236866e-19)
(105.8145941 6.246429973 -5.17208983e-19)
(105.2783219 5.805992923 9.166451991e-21)
(103.884857 3.830468537 0)
(104.2644534 4.077679096 7.508954287e-19)
(104.3189842 3.824248703 1.390536761e-19)
(103.9374971 3.621700261 2.43720104e-19)
(103.0865139 2.54534965 0)
(102.8322938 2.415025269 -1.233866859e-22)
(103.0972475 2.371220016 0)
(102.8505918 2.264787181 -3.206000206e-20)
(101.9615998 1.422955736 2.66447219e-20)
(102.3162554 1.573095622 -2.238048619e-22)
(102.283563 1.311083834 1.611910421e-20)
(101.9469084 1.229771652 1.201678729e-20)
(101.3588117 0.8633392137 -1.575173522e-20)
(101.6179529 0.9507282369 -8.019005609e-21)
(101.5697762 0.7711684961 -8.020559179e-21)
(101.3366132 0.7263384625 1.218159501e-20)
(100.7814398 0.2776424101 0)
(101.0374975 0.2497497261 1.285853739e-21)
(101.2216583 0.4713217805 -1.076684685e-20)
(101.1158359 0.5474795627 2.673159716e-20)
(100.5399061 0.1414003843 -4.910078086e-22)
(100.691008 0.1236983731 -1.521648831e-21)
(100.4050934 0.05799248633 -1.966656749e-21)
(100.4818538 0.04828327309 -2.222110165e-21)
(100.383413 0.01266684512 2.517679547e-21)
(99.91524243 -0.08242389235 -1.735193938e-23)
(100.0091595 -0.05932035679 9.158167126e-23)
(99.7831694 -0.1491362901 2.371818333e-21)
(99.91605291 -0.1731215971 -1.116277924e-22)
(99.54333135 -0.185608907 -1.241756298e-20)
(99.72538195 -0.2658883017 1.892973005e-21)
(99.16606282 -0.1162312862 -1.121435325e-20)
(99.40112802 -0.3288090911 -1.884356168e-20)
(99.13788867 -0.2201244835 -1.609253303e-20)
(99.0929529 -0.007783028021 -8.776191954e-21)
(99.02245806 -0.1541182677 -3.51812053e-21)
(98.91302582 -0.04135235893 3.829910959e-23)
(98.50123828 0.1925902341 1.432212885e-20)
(98.6049593 0.04729560633 1.460698401e-20)
(98.38617302 -0.01497496778 7.215870066e-21)
(98.23506582 0.1693055731 2.491210413e-20)
(97.66912482 0.5525639154 1.094099881e-20)
(97.79745287 0.3307004825 1.587353585e-20)
(97.47549514 0.2603301024 -4.028452203e-20)
(97.32593753 0.5932300031 3.022609118e-20)
(97.24463972 0.4840758313 5.934292609e-20)
(96.69836703 1.090047621 3.499008147e-19)
(96.76548477 0.9167898505 -1.575634786e-19)
(96.53552177 0.9038275379 -9.121160765e-20)
(96.44907889 1.102362217 -7.285750945e-21)
(95.31635454 2.091480514 -8.268819454e-19)
(95.37325053 1.829381287 -2.773154518e-18)
(95.04849642 1.836748165 -1.605439231e-18)
(94.96684602 2.138798643 -3.213432341e-18)
(93.5057863 3.744939356 -8.259749694e-19)
(93.53651229 3.339317091 8.426313709e-19)
(93.03690618 3.387605715 -8.571873356e-19)
(92.96925114 3.861995595 0)
(90.98843558 6.741568683 -1.082106655e-20)
(90.89854341 6.056277687 2.006708048e-19)
(90.00728103 6.234246862 -1.74038592e-20)
(90.07488393 7.120395273 -2.447818626e-20)
(88.29931231 13.67310069 -9.970633705e-19)
(87.45973649 12.40581374 -5.585298945e-19)
(85.52021501 13.98496119 2.646945732e-18)
(85.75695734 13.09144729 -9.565292715e-19)
(87.40632115 15.30862613 -9.417356863e-19)
(86.33456638 15.37386779 1.415671982e-19)
(93.75471325 25.65774228 2.351201006e-19)
(95.19212132 25.17161301 -7.31288675e-22)
(94.35634919 27.53582879 2.3717284e-19)
(96.08599341 26.59357407 2.407212925e-19)
(109.5403811 21.44068007 0)
(109.6036813 19.56180055 4.831301149e-19)
(111.2882147 18.95213371 0)
(110.5112196 22.13682485 0)
(112.5908382 20.7036688 0)
(112.2320649 21.59126476 0)
(111.5195364 12.10909827 3.46746567e-19)
(110.5537698 11.12619328 1.531122764e-18)
(112.1499021 11.1536288 1.529751728e-18)
(111.0229173 10.40944407 6.051473787e-19)
(108.1853599 6.194589992 4.378999187e-20)
(108.9754795 6.607074063 7.195006658e-20)
(109.0522598 5.977155744 6.573171859e-19)
(108.2503352 5.694768237 6.60504042e-19)
(105.7073183 3.522539776 8.650714274e-19)
(106.2433656 3.693599649 1.885159863e-20)
(106.177759 3.316531569 5.663578195e-21)
(105.6627016 3.211834475 5.877707103e-19)
(104.2244131 2.132121772 0)
(103.890006 2.066372486 1.700168546e-20)
(104.1535191 1.903315751 0)
(103.8385439 1.857531873 0)
(102.5878599 1.128151481 4.214542403e-21)
(103.0029865 1.176171118 9.266452976e-21)
(102.8601657 0.8729520385 -2.406450633e-21)
(102.4975694 0.8867823844 -4.362008539e-21)
(101.7651332 0.6315588112 4.337141677e-21)
(102.0617819 0.6540316944 -2.163508902e-23)
(101.9431519 0.4489205957 -7.094835824e-21)
(101.6859555 0.4650858523 8.762398351e-21)
(100.9297978 0.1006202036 -1.974811311e-22)
(101.1772005 -0.003197485468 -2.778408131e-22)
(101.4653932 0.1959932096 8.213504114e-22)
(101.3825103 0.3018082262 6.434266813e-21)
(100.6218553 0.03027108146 -3.257346769e-21)
(100.7572491 -0.04645035296 -2.416441959e-22)
(100.4514851 0.003510582277 2.441798002e-21)
(100.5070411 -0.0487130315 -2.161506693e-21)
(100.3867085 -0.01863342378 4.012867863e-22)
(100.0143871 -0.1487271208 1.81699554e-23)
(100.1494601 -0.09392456398 -3.3469436e-21)
(99.86371182 -0.2868559098 -6.156502949e-22)
(100.046379 -0.2792662509 1.458414573e-21)
(99.59017474 -0.4057856624 -4.820548317e-21)
(99.83765158 -0.453340499 -3.172861802e-21)
(99.13817866 -0.4253448323 9.969602266e-21)
(99.48131572 -0.6097694034 -1.098384827e-21)
(99.15069947 -0.5559986003 1.04279622e-21)
(99.01300245 -0.3230852918 4.883839676e-21)
(98.99806577 -0.5051995627 1.009858562e-20)
(98.83561521 -0.4093714401 7.128175513e-21)
(98.3090195 -0.2534113489 -2.432771796e-21)
(98.47701829 -0.3917685111 3.781472076e-21)
(98.27473061 -0.5169765304 2.496263704e-21)
(98.05122908 -0.3552153286 7.571281473e-21)
(97.33661239 -0.08268291289 -4.914699299e-20)
(97.5520203 -0.2988883572 -3.193245695e-23)
(97.26039902 -0.4632436556 -5.314617687e-21)
(96.97381336 -0.1399229328 -5.950097909e-20)
(96.93818539 -0.2908575314 -1.703741898e-21)
(96.15506543 0.2250163992 9.218180154e-20)
(96.28969326 0.05079474209 3.991059105e-19)
(96.07009093 -0.03250050131 9.188876968e-20)
(95.90695724 0.1589807843 8.790415687e-19)
(94.4159601 0.8679824178 0)
(94.58115312 0.5981320194 1.87582789e-18)
(94.27167849 0.4932340121 -1.339692748e-18)
(94.06397012 0.7847198184 0)
(91.92328946 1.899599856 -2.150556457e-22)
(92.16358577 1.478456085 1.16091284e-19)
(91.68828287 1.309635197 5.898947769e-19)
(91.36605494 1.761016457 1.181228219e-19)
(87.68641457 3.564916875 1.559712653e-18)
(88.13068437 2.810079306 1.987617773e-18)
(87.30809695 2.431842382 9.91752484e-19)
(86.62381398 3.235932487 1.775625306e-18)
(78.95775804 6.534687547 -9.288761619e-20)
(79.58050535 5.531502462 -3.838153321e-21)
(78.60839035 4.867390058 -1.261673541e-18)
(77.66785496 5.925583752 1.717470088e-19)
(127.7068441 23.86792234 3.280888952e-18)
(125.6660827 22.84510217 -3.049080098e-18)
(128.276999 21.71365269 -1.168710133e-18)
(126.32419 21.14150757 7.284325535e-19)
(119.2759346 9.88107438 -2.53151877e-18)
(117.4616119 9.450411809 9.752511256e-20)
(119.1040065 8.197113652 1.428557395e-18)
(117.4298906 8.163109455 -3.72684264e-19)
(111.6200727 4.590928459 1.399072839e-19)
(112.7053129 4.689708298 4.648170738e-19)
(112.3703895 3.870435512 -2.630096858e-19)
(111.3851696 3.923715299 -4.663407523e-19)
(107.4839763 2.348588992 6.328801888e-19)
(108.1335989 2.341263175 0)
(107.8520064 1.912841377 3.290305587e-19)
(107.2674709 1.980290852 6.476674236e-19)
(105.2270553 1.199465441 -4.075830635e-21)
(104.8439875 1.232554968 -1.499897379e-19)
(105.0460075 0.9513385389 -1.503757043e-19)
(104.6998025 1.003489898 -7.484173122e-19)
(103.0867912 0.5517998597 -4.69806782e-21)
(103.5303137 0.4786442099 -8.946261613e-20)
(103.2554507 0.1747709054 7.42750374e-21)
(102.9032282 0.2992755688 1.120110783e-21)
(102.0808652 0.2261655003 -1.957104132e-21)
(102.3815334 0.1642011555 1.319927216e-20)
(102.180063 -0.03162221215 4.883766142e-21)
(101.934032 0.05882628727 9.687771718e-21)
(100.993252 -0.1465040615 -3.372435055e-22)
(101.2072257 -0.3310930619 -1.029222495e-21)
(101.5916592 -0.1879556349 -1.04218972e-21)
(101.5574293 -0.04093651936 -1.152734027e-21)
(100.6334973 -0.1233650942 1.049684571e-21)
(100.7353092 -0.2633079825 1.280355532e-21)
(100.4350796 -0.06982256519 -4.156622214e-21)
(100.4564781 -0.1706129711 1.625358224e-21)
(100.3208264 -0.05812236638 -2.053097541e-21)
(100.1836663 -0.2229747338 -1.906656592e-21)
(100.3597946 -0.1309504972 1.05741381e-21)
(100.0229267 -0.4415475995 -1.113023817e-21)
(100.2525929 -0.3927631885 -7.799181265e-22)
(99.73193331 -0.6538559657 5.702305664e-22)
(100.0379742 -0.6538337572 -2.806875117e-22)
(99.23023002 -0.7822126414 6.540874026e-22)
(99.67131891 -0.9113791342 9.436474251e-22)
(99.28977437 -0.9281850688 5.673364683e-22)
(99.05317068 -0.7023831892 1.65444906e-21)
(99.10677514 -0.9031512797 -1.67821399e-23)
(98.89677019 -0.8389105207 -1.678452684e-23)
(98.28835113 -0.7984589798 -2.489963707e-21)
(98.51485466 -0.9074049008 0)
(98.35161335 -1.089600889 -1.220542624e-21)
(98.0682942 -0.97428623 -1.300231896e-21)
(97.25228291 -0.8678533901 -4.119829881e-21)
(97.54701557 -1.041383116 -2.697962426e-21)
(97.31460096 -1.282278286 -1.397718387e-21)
(96.90846365 -1.018228469 1.397202813e-20)
(96.928512 -1.191297599 -4.119241332e-19)
(95.97029039 -0.8566727794 -8.160041713e-19)
(96.16372594 -1.001793114 -9.601114386e-20)
(95.98646628 -1.139904494 -8.219389921e-19)
(95.75323576 -0.990354654 5.263606822e-20)
(94.0965384 -0.6933587617 1.745753064e-20)
(94.34589313 -0.9088506128 1.336192656e-18)
(94.11615354 -1.090248996 -4.50666136e-19)
(93.80438253 -0.874248141 4.615929658e-19)
(91.46777129 -0.5138549694 -4.224526547e-19)
(91.86052628 -0.8087501373 4.810776144e-19)
(91.53271061 -1.093437311 -1.232235025e-19)
(91.06777756 -0.8201708102 -2.695378309e-22)
(87.35258922 -0.7707141957 -1.551885804e-18)
(88.06292446 -1.125120033 -1.03969563e-18)
(87.62894016 -1.652882138 4.787250115e-19)
(86.81349082 -1.393347333 1.276725724e-19)
(81.64001625 -3.063133294 -1.271744036e-18)
(82.31092102 -3.085456294 1.18840614e-18)
(82.22639612 -3.603545447 3.518982123e-18)
(81.60807546 -3.694458483 2.058088244e-18)
(140.7650915 5.296103383 -9.107453004e-18)
(139.0411344 6.386920403 -2.376785075e-18)
(139.3367934 3.922814771 -4.732978961e-18)
(137.9012249 5.002876403 -4.863882133e-18)
(124.2865762 2.046593227 1.439377018e-18)
(122.5044458 2.811211649 4.46232656e-18)
(122.9726564 0.7327759153 -3.170659981e-18)
(121.5778132 1.600735219 1.688973712e-19)
(114.0107394 1.069428934 -2.394447388e-19)
(115.0985569 0.6636889539 -1.170553999e-18)
(114.2878681 -0.002091319633 2.315904936e-19)
(113.3868679 0.4636204436 4.21266521e-19)
(108.6678798 0.3225856181 -1.506537663e-19)
(109.3161957 0.07702776268 -1.083591627e-18)
(108.8127745 -0.2727398068 -3.430955066e-19)