/*--------------------------------*- C++ -*----------------------------------*\
| =========                 |                                                 |
| \\      /  F ield         | OpenFOAM: The Open Source CFD Toolbox           |
|  \\    /   O peration     | Version:  v1912                                 |
|   \\  /    A nd           | Website:  www.openfoam.com                      |
|    \\/     M anipulation  |                                                 |
\*---------------------------------------------------------------------------*/
FoamFile
{
    version     2.0;
    format      ascii;
    class       volScalarField;
    location    "2.85";
    object      nut;
}
// * * * * * * * * * * * * * * * * * * * * * * * * * * * * * * * * * * * * * //

dimensions      [0 2 -1 0 0 0 0];


internalField   nonuniform List<scalar> 
12556
(
1.155876317
1.155845254
1.15581554
1.155792925
1.156030607
1.156033653
1.156062849
1.156121551
1.156229636
1.156391464
1.156616385
1.061014484
1.018757966
1.077482685
1.156570429
1.156383438
1.156228725
1.15613498
1.156068999
1.156046277
1.155827067
1.155845597
1.155870865
1.155896745
1.155102407
1.155015292
1.154939359
1.154903417
1.155132463
1.155194606
1.155362243
1.155700536
1.156215899
1.157031652
1.132716054
0.9833246584
0.9353443739
0.9690312492
1.095456992
1.157186904
1.156371014
1.155819009
1.155400751
1.155234659
1.154969548
1.155018411
1.155094855
1.155174222
1.154293848
1.154148765
1.15403416
1.153988476
1.15427736
1.154465361
1.154883914
1.155592506
1.156840508
1.054391219
0.8657181317
0.7640669446
0.7338678222
0.7639373729
0.8678697846
1.052687757
1.157122318
1.155854367
1.154936319
1.154527499
1.154153427
1.154189985
1.154302869
1.154435438
1.153467113
1.153281565
1.153153803
1.153163382
1.153505362
1.153922392
1.15483872
1.156216841
1.01201027
0.7649742494
0.6165486783
0.5305057735
0.4995904776
0.5264145651
0.6134984738
0.769339745
1.014439898
1.156600024
1.154865032
1.15402251
1.153392116
1.153388828
1.153518648
1.153695588
1.152617321
1.152392572
1.152271435
1.152342465
1.152872149
1.153661601
1.155398532
1.0885521
0.7619857253
0.5588119383
0.4234435966
0.3346817399
0.2976411264
0.3223304027
0.4033471887
0.5432417535
0.7569178123
1.076928131
1.155377325
1.153799036
1.152746452
1.152611851
1.152723723
1.152932293
1.151763424
1.15152383
1.151441704
1.151671223
1.152450562
1.153791101
1.156755615
0.8771682172
0.6077760133
0.4261301465
0.2890037488
0.1900332068
0.1495051092
0.1758040516
0.2543333927
0.3808224161
0.5751308042
0.859901924
1.15658081
1.153926915
1.152261959
1.151876403
1.151935491
1.152157703
1.15090297
1.150662012
1.150656415
1.15113013
1.152163221
1.154360798
1.055922447
0.7496787734
0.5154239215
0.347397424
0.208239856
0.09641308662
0.05486026495
0.08702951511
0.1635106962
0.2790213937
0.4532163594
0.7030179408
1.088869681
1.154479988
1.151898556
1.151192026
1.151142762
1.151356012
1.150094076
1.149874112
1.149983138
1.150752477
1.152131404
1.155371763
0.9548016398
0.6846786199
0.4782065966
0.3233336119
0.1909595251
0.07889569909
0.05023480438
0.1236249497
0.225221252
0.3822950583
0.61261048
0.9690200691
1.155416461
1.151721146
1.150593332
1.150376877
1.150562444
1.149367876
1.149181654
1.149447822
1.150590251
1.15244176
1.156735087
0.8998702632
0.6574628152
0.483167842
0.3503058952
0.2448000569
0.1730692501
0.06219366143
0.121469938
0.2092406745
0.3509386623
0.5605011601
0.8926710216
1.156642431
1.151741642
1.150106967
1.149684623
1.149815768
1.148790803
1.148659185
1.149107937
1.150668249
1.153078921
1.158272126
0.8773906947
0.6659703832
0.5119969656
0.402018174
0.3283689985
0.32342822
0.08797450192
0.1389097212
0.2189624487
0.3513189398
0.5469795096
0.8515146422
1.158061788
1.151991846
1.149802034
1.14912852
1.149196469
1.148368938
1.148314072
1.1489983
1.151070447
1.154028559
1.156919336
0.8751180359
0.6863721857
0.5512280093
0.4563344799
0.4022595055
0.4489006027
0.1199898162
0.1688496687
0.2475996878
0.3740777595
0.5581975352
0.8407195562
1.158692174
1.152451745
1.149694991
1.148772805
1.148755892
1.148169095
1.148194994
1.149103292
1.151663595
1.155236395
1.135107209
0.8859371963
0.7168467645
0.592993301
0.5020341879
0.440342914
0.4379127875
0.1572033794
0.2114954919
0.2939875767
0.4214504379
0.5946588573
0.8564661933
1.14504412
1.153147933
1.149827587
1.148644123
1.148554087
1.148127196
1.148255313
1.149475584
1.152608921
1.156649037
1.127107834
0.9101825005
0.7621638897
0.6405263589
0.5469834536
0.4646429417
0.3985025947
0.04707677861
0.2063439291
0.2758590892
0.3664043683
0.4908133896
0.6594393261
0.8946681114
1.148323056
1.153938976
1.150167497
1.148756723
1.148584163
1.148295032
1.148522917
1.150021068
1.15362693
1.158210686
1.148481722
0.973718302
0.8164502592
0.7071938073
0.6098556081
0.5143178796
0.2776092609
0.09600312959
0.3072654505
0.3882378813
0.4746611726
0.5918033529
0.7428973314
0.9508893633
1.163599731
1.154806622
1.150678074
1.149070672
1.1488508
1.148542277
1.148862708
1.150628029
1.154709947
1.159754611
1.166898768
1.046031179
0.9050203093
0.7998610421
0.7120108332
0.6219278871
0.1045849992
0.1387050959
0.3923352958
0.5877804247
0.6343480959
0.7240182327
0.8585186903
1.042135953
1.164722231
1.155668042
1.15128118
1.149524425
1.149250085
1.148925912
1.149335573
1.151342871
1.155848201
1.161284361
1.168547238
1.155776059
1.035341893
0.9450257535
0.8819491573
0.7440269772
0.0465755332
0.1677733182
0.4409932018
0.7534770336
0.8522417107
0.899429085
1.004992935
1.167524868
1.165602684
1.156459752
1.151914104
1.150082635
1.149794392
1.149286474
1.14976746
1.151991022
1.156907336
1.162705204
1.170034197
1.167567186
1.144833573
1.080144847
0.9323205845
0.4319185721
0.0278674606
0.247704689
0.5280769658
0.8197488551
1.017693958
1.112761786
1.15321798
1.168492396
1.166232
1.157124557
1.152508589
1.150618539
1.150312798
1.149717084
1.150261868
1.152670244
1.15792204
1.163963978
1.171248283
1.16847185
1.143120829
1.053096755
0.7619489722
0.1048121793
0.06742979386
0.3402996923
0.625346363
0.8733285067
1.031314731
1.114568651
1.154110519
1.16885937
1.166549464
1.157634202
1.153033018
1.151153712
1.150848313
1.150056512
1.150645568
1.153208691
1.158774997
1.165059572
1.172292251
1.168811456
1.141088354
1.036505463
0.5831020332
0.04778691003
0.1715801722
0.4172953212
0.6828567411
0.8924502665
1.033905782
1.115061359
1.154183813
1.168782027
1.166596016
1.157954692
1.15341697
1.151576238
1.151276205
1.150445233
1.15107726
1.153767531
1.159564026
1.16597787
1.173114093
1.169147904
1.139120334
1.01932193
0.5017218565
0.04610367184
0.1985378647
0.437458966
0.6901742648
0.8965222904
1.034743494
1.114663781
1.153683217
1.16836073
1.166414118
1.158160716
1.153739009
1.151949325
1.151650823
1.150711517
1.151376254
1.154171476
1.160180115
1.166735821
1.173759803
1.169281298
1.137281891
1.001121915
0.4521713349
0.04621054321
0.2093462391
0.4453467303
0.6922506314
0.897324727
1.034199975
1.113673911
1.152786537
1.167683901
1.166054129
1.158202796
1.15390733
1.152171356
1.151873928
1.151035895
1.15174393
1.154633245
1.160778588
1.16735799
1.174263628
1.169295179
1.135366512
0.9810014462
0.4258054539
0.04697334552
0.2151580544
0.4487439933
0.6908417754
0.895312732
1.032643665
1.112274152
1.1516152
1.166821692
1.165563312
1.15818355
1.154042135
1.152356565
1.152054247
1.151220596
1.151970505
1.154947348
1.161233906
1.16788118
1.174663082
1.16921098
1.133129012
0.9577382149
0.4111039456
0.04794357269
0.2178865745
0.4493378773
0.6876572198
0.891723425
1.030321496
1.110528477
1.150238013
1.16582529
1.164979947
1.158032183
1.154029756
1.152388169
1.152081117
1.151483895
1.152291181
1.155358793
1.161730722
1.168331486
1.174985104
1.169018324
1.130202914
0.93324422
0.4012202233
0.049129905
0.2194902958
0.4489207607
0.6840235302
0.887461396
1.02735791
1.10845063
1.148688468
1.164730702
1.164330762
1.157870653
1.154026463
1.152422511
1.152104838
1.151592129
1.152455599
1.155612966
1.162093462
1.168732059
1.17524292
1.168675327
1.126242445
0.9104950269
0.3945226276
0.050537014
0.220536629
0.4481014288
0.6802564308
0.8828523622
1.023882757
1.106067127
1.146987063
1.163563
1.163634232
1.157592186
1.153879095
1.152305331
1.151977245
1.15180472
1.152738587
1.155993115
1.162535781
1.169089418
1.175442991
1.168131724
1.121095902
0.8906933666
0.3902075815
0.05213852081
0.2212077931
0.4469448224
0.6763553739
0.8780177002
1.020030304
1.103423366
1.145154282
1.162340356
1.162902831
1.157347013
1.153785475
1.152236346
1.151891938
1.151847061
1.152845949
1.156192871
1.162826359
1.169415774
1.17558865
1.167340942
1.114900361
0.8737472209
0.3877590627
0.0539177224
0.2216147912
0.4455022321
0.672339611
0.8730209396
1.015899666
1.100566781
1.14321153
1.161076517
1.162145879
1.156984433
1.153542879
1.152013148
1.15165383
1.152020345
1.153097091
1.156546023
1.163230105
1.169708323
1.175680267
1.16626776
1.107981306
0.8592529423
0.3867884731
0.05588598581
0.2218224825
0.443855295
0.6682215483
0.8678939512
1.011558265
1.097538437
1.141178243
1.159781652
1.161369998
1.156694689
1.153396315
1.151881802
1.151502481
1.152011789
1.153155744
1.156694326
1.163453329
1.169977384
1.175715476
1.1648986
1.100724455
0.8469860801
0.3871599684
0.05806429141
0.2218385765
0.4420048112
0.6640152359
0.8626707696
1.00706082
1.094373077
1.139070995
1.158463485
1.16058023
1.156277246
1.153092184
1.151591425
1.151195422
1.152153245
1.153378555
1.157021705
1.163828415
1.170216221
1.17569132
1.163242165
1.093425625
0.8366581805
0.388685157
0.06045161712
0.2216819124
0.4399792091
0.6597603766
0.8573937707
1.002452296
1.091098567
1.136903127
1.157127741
1.159780951
1.155965092
1.152914045
1.151423
1.151005549
1.15211481
1.153404377
1.157129868
1.163993146
1.170437473
1.175604507
1.161326208
1.086265476
0.8279305944
0.391103975
0.06305099212
0.2214319718
0.4378311003
0.6554999131
0.8521003929
0.9977681418
1.087737598
1.134685485
1.155778572
1.158973898
1.155519221
1.152582255
1.151102902
1.15066922
1.152221879
1.153595063
1.157427388
1.164345691
1.170631136
1.175452718
1.159193052
1.079356513
0.8205089495
0.39413836
0.0658795436
0.2211700223
0.4356255358
0.6512644111
0.8468208288
0.9930387168
1.084310227
1.132426897
1.154418864
1.158163102
1.15518344
1.152369114
1.150897648
1.150441838
1.15218545
1.153615722
1.157520115
1.164472775
1.170811052
1.1752337
1.156892017
1.072776293
0.8142436036
0.3976914758
0.06894496086
0.2209138076
0.4333990511
0.6470805461
0.8415849395
0.9882925194
1.080834558
1.130134883
1.153051035
1.157345359
1.154753472
1.152058715
1.15059821
1.150128193
1.152239542
1.153756928
1.157772051
1.164791639
1.170964356
1.174949616
1.154472849
1.066575876
0.8090058715
0.4016873144
0.07227455886
0.2206815289
0.4311943604
0.642984096
0.8364277099
0.9835582762
1.077328134
1.127817306
1.151679979
1.156530758
1.154344437
1.151769711
1.150319649
1.149826843
1.152242939
1.153806696
1.15788071
1.164922209
1.171107675
1.174607692
1.15199886
1.060772302
0.8046742256
0.4060518044
0.07589793603
0.2204805435
0.4290631111
0.6390192028
0.8313853025
0.9788633648
1.073807416
1.125480476
1.150323167
1.155720097
1.154034783
1.15155861
1.150117902
1.149614187
1.152299743
1.153970102
1.158179757
1.165299182
1.171245454
1.17423611
1.14959731
1.055353299
0.8010791042
0.410508736
0.0797884455
0.2203533188
0.4270758586
0.6352559086
0.8265147513
0.9742455089
1.070292438
1.123130361
1.149051591
1.154982768
1.153473581
1.15116648
1.149746343
1.149217417
0.1544718064
0.05559053116
0.04325758316
0.3070413566
0.08094034304
0.05863361233
0.4359811784
0.1136270962
0.08481437072
0.4439463745
0.1441496463
0.118436203
0.4024415413
0.03557672666
0.04426828468
0.1816424463
0.1481200621
0.3195986116
0.06907484162
0.03651473491
0.09093504876
0.2487464042
0.1848832015
0.07672931084
0.05522348601
0.04462565936
0.08272519881
0.02817070178
0.01874154717
0.05960848884
0.1027434328
0.1042072657
0.3071549223
0.2998308125
0.1781518324
0.02666748998
0.03988303591
0.0845778983
0.1189862136
0.1053182628
0.3863688218
0.4173124455
0.3148723085
0.3702655894
0.1970587803
0.2218220603
0.04681918099
0.03313518116
0.115883706
0.1471534211
0.1250847015
0.4349015676
0.4581741721
0.4297442068
0.4725615314
0.1294058447
0.1669257883
0.08851402505
0.06436689079
0.4556412002
0.4153830787
0.4553112913
0.4286006012
0.07747561672
0.1014978805
0.01549441586
0.1352197278
0.1205007585
0.4990815293
0.3892566877
0.4092062499
0.3701626227
0.03080103411
0.05037662441
0.280920587
0.09683531909
0.07072017856
0.06328555742
0.1453453298
0.03030354712
0.05761759415
0.04096315748
0.02945430204
0.04720030771
0.03120831477
0.04896841399
0.2251894295
0.2495674762
0.2540257396
0.1950895983
0.1812884994
0.1639866148
0.1978417883
0.03280198485
0.02651740773
0.07022568442
0.03954162853
0.04485132554
0.05015575586
0.03975602328
0.06867637562
0.169549922
0.1933870448
0.3865853101
0.1513606073
0.1281758292
0.1796040656
0.1532899735
0.06118337752
0.04799408448
0.1012387643
0.06680597895
0.0861226519
0.04530844063
0.06423474484
0.09692966632
0.1028437407
0.1278338085
0.4657833362
0.1030385762
0.07878112346
0.1268378841
0.1043272538
0.1167971605
0.09230262445
0.05133313197
0.07576801175
0.4272482243
0.01255579247
0.05346106248
0.03236498734
0.07776559227
0.05499117356
0.01191779637
0.1422730605
0.1372520873
0.01723483923
0.004751004486
0.03050900819
0.3659264766
0.0558505969
0.01915241313
0.01143413248
0.03201925446
0.01947716507
0.05355688174
0.2265234967
0.1614487014
0.09183359382
0.09809342006
0.06233340029
0.03557132222
0.01512752171
0.008231194544
0.2341961185
0.2526882587
0.1590927016
0.009814869367
0.1502480155
0.184581781
0.155579383
0.0119017817
0.0497538399
0.04308289973
0.06726939612
0.1594192085
0.1463146518
0.1444030225
0.06947027355
0.1095015587
0.0411393857
0.01267973422
0.02221310036
0.02147080282
0.02951097504
0.04556757911
0.04175270923
0.03031020473
0.1328363569
0.1140557697
0.1316751702
0.0892537248
0.1108909182
0.1296960806
0.02455110487
0.01354622661
0.04245838611
0.02184667106
0.0371158749
0.0295374122
0.01889659973
0.02886638823
0.0208688861
0.01433475261
0.0223878204
0.01848823865
0.009783864253
0.01584847507
0.02123091456
0.03417715452
0.03476440144
0.03998226671
0.03902306777
0.01586648364
0.0101678155
0.07766146885
0.013405265
0.0240242499
0.009666156526
0.01188779905
0.07410512957
0.09116539746
0.2493600786
0.2376635244
0.06375524452
0.05334247685
0.01152916125
0.04557256871
0.1861155415
0.1744207422
0.2022067165
0.1908522047
0.04590774329
0.04931779544
0.04149688172
0.09221695366
0.06454830744
0.05598058823
0.03974658534
0.0640984712
0.1038437091
0.03673709755
0.02300611534
0.01446423015
0.05159513437
0.02562914609
0.04056696874
0.02473525758
0.057114331
0.04008348333
0.03918682145
0.1924185478
0.03116639416
0.191815162
0.2121510654
0.0347477992
0.03875461894
0.03156729526
0.03426688949
0.2084777861
0.0314321168
0.03118778821
0.0426082601
0.06821383977
0.06358178192
0.07464300545
0.06987208454
0.04286150528
0.04771702336
0.0556598572
0.05045512869
0.06191741325
0.0571187078
0.04681936117
0.1400365899
0.138535691
0.1676026222
0.1659622018
0.05774760452
0.009532137979
0.05656374382
0.09411699095
0.09238091991
0.1150683887
0.1135519502
0.02548674865
0.03684506543
0.1031904916
0.02840609447
0.01702352904
0.06708690613
0.2180963951
0.2063360868
0.2336915682
0.2219840025
0.06835664385
0.02216653494
0.04909751845
0.04810970762
0.07099214792
0.07017291336
0.007868064214
0.02981458407
0.0785610009
0.06750681278
0.1698418309
0.1614619109
0.02457695224
0.01230295674
0.01738600441
0.01370934762
0.03061913518
0.01282318178
0.01363958878
0.01334548433
0.03065714882
0.04540840888
0.01375894439
0.01489855101
0.003681617683
0.01635959388
0.01299055343
0.5850112174
0.3752946031
0.380288244
0.2544827772
0.00894211607
0.005356329481
0.1333814383
0.320539496
0.2798286315
0.005871875384
0.01193701503
0.01090793989
0.09350124441
0.08263154929
0.03185227685
0.1907502644
0.1659107966
0.07014527788
0.009120313901
0.01545461408
0.01233662552
0.00834564541
0.01217292503
0.008637967856
0.0288742102
0.01222331919
0.01150700591
0.03729834726
0.0434792392
0.01236657022
0.01705790382
0.008632645898
0.008765757012
0.03466739509
0.1427996032
0.3087535376
0.297736018
0.3233418911
0.3124118298
0.1458829913
0.2644547611
0.2530378805
0.09239626789
0.03384759448
0.09631955567
0.09131913481
0.01238042645
0.01767537986
0.07628186131
0.04608181035
0.01386588857
0.01233007183
0.03796412526
0.04205387559
0.03761772569
0.04878352583
0.04364175432
0.03981483804
0.03209803753
0.008710088641
0.008632873312
0.02769319971
0.1797610631
0.337669416
0.3269189467
0.05942138219
0.06128280904
0.1326058621
0.01810021913
0.01973029326
0.0513474299
0.07449195672
0.1014991465
0.09393068124
0.05106641801
0.08215661237
0.07654802973
0.09118326826
0.08435122063
0.05213147237
0.115521548
0.2793479317
0.2681565896
0.294069627
0.2830578025
0.1172264036
0.09930295318
0.03705055085
0.03775783656
0.02153837724
0.0223583357
0.08296420321
0.1220139102
0.05539507455
0.05902975918
0.03805186028
0.03871326986
0.1081861638
0.106885583
0.03882877263
0.05338419601
0.008560403079
0.01537636041
0.05119551109
0.03941753455
0.07483458
0.02093564861
0.02139957318
0.02055328393
0.0640181855
0.0118899646
0.004392392657
0.1250687096
0.1091576579
0.08962135961
0.08558639549
0.0301895791
0.01560709114
0.0251975455
0.06319123443
0.01892401655
0.01205243656
0.01737259047
0.01945789143
0.002823255973
0.0315696141
0.02052976263
0.01200331001
0.006354116405
0.01157384176
0.009813322523
0.009619425299
0.02394926474
0.01833205743
0.007696510459
0.0382757315
0.03985239517
0.01477654108
0.01089717208
0.007037889772
0.01146332688
0.01607221423
0.01068073936
0.01218233327
0.03520003144
0.01079525042
0.01079560194
0.01240615119
0.01265264131
0.02935312619
0.01266072894
0.01252123844
0.01292375182
0.01251576237
0.01292126978
0.015741187
0.01344459137
0.0205693397
0.01707851602
0.01301160686
0.01389409192
0.02163418272
0.01794164369
0.02538977433
0.02259468106
0.01745110766
0.01555534862
0.01234310066
0.01057607538
0.008265713769
0.03057813292
0.03667488887
0.01129016259
0.01068698233
0.01163402133
0.01208899374
0.0423750963
0.008856357276
0.008777848215
0.01033681041
0.008966813516
0.008736467982
0.03569305783
0.008610333647
0.01147078445
0.01170492602
0.01084675595
0.01754122501
0.04469621784
0.04019945447
0.0102742466
0.03253535629
0.02785334764
0.03859474903
0.03433139079
0.01045315173
0.01155270229
0.03106063993
0.02610051483
0.1043574766
0.09808959586
0.03769318953
0.04802515561
0.11121304
0.1060569397
0.04457133916
0.04374493204
0.06648303152
0.07622996992
0.09220839045
0.05746464358
0.07156400923
0.06732393153
0.05924375922
0.1339798159
0.1235078161
0.09983500121
0.1309423242
0.05916563715
0.03816516178
0.04215201381
0.05253299929
0.03306081766
0.03695359735
0.01955080425
0.01851530102
0.04498167795
0.01339103139
0.01341014268
0.01044300662
0.01954887632
0.02323803345
0.01387516098
0.01972775991
0.03450502517
0.02702464515
0.02051107627
0.02938543783
0.09291365648
0.08170913805
0.09894990316
0.09523899395
0.03048944209
0.07371988644
0.07161385861
0.07850994337
0.07447901961
0.03620599199
0.11431127
0.1101629852
0.1209877198
0.1157778687
0.03677805647
0.03265260747
0.1037710527
0.1002211755
0.1088302197
0.1050015101
0.03298670024
0.008955091236
0.008781828975
0.03190035009
0.02888434898
0.008752871498
0.009020843181
0.04324036259
0.04249573333
0.04535601468
0.04349692599
0.04112121718
0.04010350081
0.04224817093
0.04138567591
0.06840865177
0.06654170238
0.07095901618
0.06905737225
0.06130491737
0.04799396109
0.06576401361
0.06376168137
0.02065175876
0.01760857753
0.02649875583
0.02228547941
0.006521194762
0.01139950156
0.01073294804
0.01645596233
0.01165904215
0.03611769354
0.03670501384
0.09802527822
0.02156020733
0.02134683089
0.02221081685
0.02174202862
0.02068473593
0.08520758581
0.02302482756
0.0339855209
0.04081242333
0.05358420309
0.1203294127
0.03738132944
0.02433317526
0.03996899426
0.0370688193
0.0229766768
0.02244286894
0.02389621414
0.0231951904
0.1094914026
0.03893648979
0.03980363451
0.007155091024
0.02372807228
0.0106518185
0.0105849517
0.01043074964
0.02213786318
0.008927332715
0.01691516005
0.01221673622
0.01258329981
0.0505645704
0.04425185878
0.02035055308
0.02082907622
0.0739313932
0.06613510078
0.01947907797
0.02029019308
0.01199751366
0.02910464011
0.08309710208
0.07502004974
0.0137351342
0.01301935571
0.01815187521
0.01244959594
0.0141236603
0.01470629733
0.03146282511
0.009331704851
0.01384601402
0.01231173642
0.01397682274
0.02136610867
0.05149530446
0.1091603428
0.1412460023
0.01148631237
0.01105923436
0.1882924802
0.2391640174
0.1959664857
0.007586751648
0.03105022346
0.01315737451
0.01552571132
0.1361049533
0.1419671587
0.1597523656
0.004710697938
0.007137359052
0.005293861962
0.004867025907
0.005622594768
0.004398570768
0.0547876859
0.03422094022
0.02175209468
0.02492882101
0.02306321301
0.02678791631
0.2079350678
0.3641659251
0.3550606867
0.3415820799
0.3550020377
0.2114366957
0.0373395464
0.03270246051
0.01196066901
0.05690618753
0.06751167973
0.129209906
0.1180473192
0.1128492114
0.04850056411
0.02742870429
0.02801227066
0.03283911832
0.3516830653
0.3411975824
0.1830330533
0.1462674998
0.06667490614
0.07029322346
0.07321309137
0.0834282162
0.159076758
0.05885555983
0.1258224083
0.119855687
0.01184946495
0.01177145342
0.01325590189
0.02023997055
0.02053543545
0.03320843312
0.0116383553
0.0122417853
0.01198349327
0.02282527537
0.04477346326
0.03866389938
0.01909911545
0.03181727053
0.01979464995
0.01997331757
0.01950735416
0.01441109531
0.009983997929
0.01131258418
0.01115678769
0.01182514027
0.02015403306
0.02499006394
0.04971048251
0.04007286316
0.03622759548
0.03304998141
0.02438873076
0.03687005001
0.01354747267
0.01827314924
0.01281801114
0.00928059451
0.009340212336
0.01304189628
0.01284688122
0.02231955127
0.01416780506
0.009850035414
0.01666416633
0.01893517749
0.01757983533
0.01295329061
0.01624869498
0.01457189321
0.01036164438
0.01072515413
0.006713944862
0.01001831867
0.01026604336
0.05085455531
0.04612318388
0.01906844427
0.009595904597
0.0119867876
0.01110680893
0.01150537112
0.01289589128
0.01191795649
0.04733163348
0.03682186558
0.04221891536
0.0652530565
0.09122734047
0.08996474048
0.04126574376
0.06604507257
0.06256889923
0.08897428669
0.08736163893
0.06283077709
0.03168690419
0.03831606014
0.03455945122
0.0266243159
0.02732687213
0.02256558105
0.04616207727
0.04488121283
0.04879726606
0.02371419401
0.0339364349
0.03232648446
0.05179820683
0.05143536137
0.03091378716
0.02872909469
0.02832701249
0.03129719774
0.03060632767
0.03526004491
0.05758855208
0.05700511379
0.06102508268
0.06029906218
0.03802050751
0.03188986305
0.05297068235
0.05247455444
0.05640456169
0.05581172134
0.03382498291
0.0641891154
0.06600579919
0.1446646437
0.1340233543
0.06184234043
0.06361158439
0.08991001714
0.09288482015
0.1727499334
0.02676305622
0.02661866183
0.02809508443
0.02788013051
0.02048409106
0.02635683146
0.02625040556
0.1608227315
0.08553149334
0.08879979329
0.009307340574
0.00927718222
0.01085892277
0.01050029096
0.009500751949
0.009127033993
0.00650261007
0.05249159019
0.02052114238
0.02508295268
0.133509758
0.1278111853
0.06200877609
0.07119727307
0.1402777287
0.1352021909
0.0325061226
0.03256163566
0.04944235796
0.04780097047
0.03211786139
0.03206175655
0.01158952459
0.02324633767
0.03699361709
0.03633642907
0.00902935555
0.01481244048
0.01571793342
0.01428136613
0.01391258296
0.01887441452
0.01911506234
0.03106517067
0.0130179866
0.009484428762
0.01285544068
0.01336395301
0.02908293107
0.01837052956
0.01896036523
0.01345377127
0.02746220485
0.02270342346
0.01162641349
0.01158839041
0.0109718505
0.01108094322
0.01394499111
0.006402743307
0.004110321148
0.007423830491
0.01125331065
0.01120886718
0.01113528233
0.01092989338
0.01124958063
0.01083613607
0.009914244477
0.006517281405
0.005221062005
0.010522805
0.010827682
0.01015083179
0.01026346886
0.01191644705
0.01824229423
0.01847999423
0.01787610426
0.01806820209
0.01179517801
0.008621742184
0.01362437823
0.01361819146
0.01406751755
0.01372357686
0.008557645022
0.01314204081
0.02056276884
0.02286719802
0.01875613153
0.01935355905
0.01272782075
0.008701979579
0.0136587848
0.01367644902
0.0135942239
0.01364192271
0.008670468582
0.009821929059
0.009991636628
0.0094924396
0.009932604233
0.03720921461
0.05600352935
0.05555388622
0.02177109769
0.03611336174
0.03586294696
0.03742041923
0.03647492407
0.02197818604
0.01241502933
0.01194899088
0.01223498179
0.01249652886
0.02046458227
0.02027020458
0.02090141242
0.02067769977
0.01598458035
0.03529509977
0.02113366208
0.02205490032
0.02110685017
0.03537353604
0.03515599791
0.03570509645
0.03552336796
0.02123262746
0.02181308418
0.02120788859
0.03176756989
0.02279781187
0.01639854359
0.008346060691
0.01193218512
0.01162172775
0.008249477724
0.04326565349
0.03018642132
0.002974779691
0.0301905986
0.04604200272
0.04571058969
0.01889011097
0.01196557064
0.008806867912
0.003396971637
0.01376841684
0.01417656527
0.01955432323
0.01972237691
0.0317524091
0.0199274663
0.01076607472
0.01143226474
0.01462776077
0.004738066242
0.009129981248
0.006941182907
0.00712230864
0.007605864973
0.009864638978
0.006576252005
0.01136835246
0.01120824797
0.01129567117
0.03982022276
0.03098204322
0.008226288624
0.01025072218
0.01133478511
0.01851090814
0.02073974669
0.01213589354
0.01500528337
0.01449814684
0.01107364137
0.007290058579
0.01101413153
0.01263091287
0.008880406225
0.01252739274
0.01270686141
0.01258613608
0.01301004578
0.0127960592
0.01284226617
0.01274048583
0.01263924305
0.0131845905
0.01317667056
0.01289543895
0.01324923817
0.01344675163
0.01340629007
0.01723578319
0.01908262031
0.0171445982
0.02561564848
0.02123337631
0.01641885208
0.01542465476
0.01671444958
0.0101286489
0.01609595028
0.01702869456
0.01159207725
0.01602220957
0.0108105866
0.01109556701
0.01751784057
0.01768547502
0.01711443987
0.01735585891
0.01094033732
0.0118144732
0.02040446677
0.02004047635
0.008860812079
0.008817670133
0.009446279455
0.006718675781
0.008895403295
0.008832152434
0.008619376698
0.007463166312
0.009652507319
0.01688196626
0.01507280475
0.0195047053
0.0184983469
0.01080678434
0.01007342964
0.01036384677
0.01296166959
0.006847573558
0.01036649581
0.01025416724
0.0107325289
0.0100711865
0.01021816868
0.01523575477
0.01358196731
0.009813825898
0.04569420508
0.04279362051
0.0807022641
0.07259533889
0.04316941749
0.06257351758
0.0865632375
0.08329389686
0.03477870133
0.03209319536
0.02996734209
0.02272748384
0.02947372381
0.04243293548
0.04298678264
0.03780323128
0.01947871224
0.028083376
0.02851520764
0.0255030293
0.02638021371
0.01836306673
0.01261801057
0.01355225895
0.02089413377
0.01470791653
0.01398513017
0.01576414067
0.01494528089
0.0211948889
0.0142993864
0.01491861816
0.01171719518
0.01527212115
0.04753724827
0.04771897918
0.03077354098
0.03047128792
0.05050426761
0.05049283763
0.02940194714
0.029019787
0.03015642677
0.0297437584
0.05865765109
0.05810044538
0.03565103744
0.03738248221
0.0597435501
0.05920626384
0.05411768799
0.05359117398
0.03231270451
0.03336468444
0.05520880581
0.05465853141
0.008863961158
0.01377150767
0.01381239131
0.01372021831
0.01376146986
0.008838339325
0.009053224262
0.01287451059
0.01123027859
0.01376115977
0.01354541538
0.009059723892
0.04298043396
0.02550219798
0.02576583211
0.02508583168
0.02528801344
0.04274336129
0.04426829628
0.02669092953
0.02716992341
0.02602703207
0.02633127033
0.04380557829
0.0407528216
0.02388814869
0.0241220882
0.02352733337
0.02375249492
0.04052672305
0.04197900285
0.02469861916
0.02488541415
0.02428458964
0.02451316218
0.04171365641
0.02719158044
0.02700972545
0.06779487172
0.04591198863
0.04622030294
0.04524161963
0.04551146493
0.06711369005
0.02762697719
0.02742499704
0.02512702981
0.02636053202
0.05931565728
0.04162980169
0.04133660602
0.02805980083
0.02945022009
0.05313514949
0.06530149481
0.04456901106
0.04476180917
0.04387992291
0.04383340466
0.06413089151
0.02593171966
0.02597401985
0.009326976464
0.0094308529
0.009320026971
0.01022274013
0.009657211408
0.01109904889
0.009142806165
0.009172376534
0.008995971931
0.009071055935
0.01103446668
0.01474288153
0.009516901981
0.01025317707
0.009247174153
0.009114830482
0.01279192903
0.03603938602
0.05354947067
0.05325445891
0.05489486334
0.05454767436
0.03661031417
0.02151508418
0.02127827009
0.02208710851
0.02181728373
0.02176207012
0.01703965373
0.02422949921
0.04419417217
0.03969593945
0.05114886006
0.04940372901
0.03426752373
0.02639859452
0.0183994412
0.02361808704
0.02510628845
0.03931393467
0.02317857832
0.02346209836
0.02249759096
0.0232303733
0.03937908093
0.02281227634
0.02259033534
0.0236298356
0.02338720693
0.01077155573
0.01093022918
0.01077411656
0.01271108475
0.01150728387
0.01080569644
0.01038599029
0.01050158584
0.01052704697
0.01053978704
0.007014288675
0.01259930596
0.01201783566
0.01219018993
0.012184163
0.01210819595
0.01256944717
0.01981391161
0.01977006018
0.02006614767
0.02000124863
0.03043441888
0.03040439984
0.04583062547
0.01900824998
0.02004974348
0.01953636932
0.01960477708
0.02056141685
0.03457997878
0.03422486244
0.03499846159
0.03472351056
0.02064009061
0.02002449338
0.0335467912
0.03170183521
0.03410553841
0.03352475052
0.02000890356
0.0120366009
0.04413415211
0.04359452319
0.02889049902
0.01394597821
0.01135873316
0.01106115481
0.008424748157
0.01154915275
0.01322173822
0.01871568474
0.01317147612
0.01441159062
0.01410168106
0.03118074843
0.0192297864
0.01943136164
0.01278129928
0.01259988617
0.01267622935
0.0135696375
0.01330073927
0.008983884815
0.009273247009
0.01382141113
0.01277343062
0.01335148741
0.0156163782
0.01924751012
0.02909611024
1.155561566
1.15628725
1.156066763
1.156589723
1.157754759
1.156805371
1.134475046
0.9669541685
1.155387405
0.9341172387
0.8396050565
0.9955331555
0.8239985858
0.791245267
0.9363531643
0.790259421
0.809307335
0.959348206
0.8215153508
0.9011153031
1.074406936
0.9303332834
1.074098025
1.157426049
1.122317576
1.157177203
1.156541972
1.156842828
1.155992547
1.155932135
1.155971015
1.157486578
1.156470629
1.089704551
0.8828229521
1.113414485
0.8295224368