/*--------------------------------*- C++ -*----------------------------------*\
| =========                 |                                                 |
| \\      /  F ield         | OpenFOAM: The Open Source CFD Toolbox           |
|  \\    /   O peration     | Version:  v1912                                 |
|   \\  /    A nd           | Website:  www.openfoam.com                      |
|    \\/     M anipulation  |                                                 |
\*---------------------------------------------------------------------------*/
FoamFile
{
    version     2.0;
    format      ascii;
    class       volScalarField;
    location    "1.05";
    object      nut;
}
// * * * * * * * * * * * * * * * * * * * * * * * * * * * * * * * * * * * * * //

dimensions      [0 2 -1 0 0 0 0];


internalField   nonuniform List<scalar> 
12556
(
1.155885209
1.155855129
1.155825077
1.155801855
1.156030496
1.156029984
1.156053345
1.156104806
1.15620319
1.156364053
1.15657285
1.054392807
0.9856125761
1.013643562
1.142329313
1.156459092
1.156289072
1.156172733
1.156085338
1.156053355
1.155831444
1.155840406
1.155862258
1.155888291
1.155129566
1.155041123
1.154958037
1.154903774
1.15512734
1.155170131
1.155308101
1.155620171
1.156086472
1.156861245
1.157966485
0.9801548903
0.9072564084
0.9184024211
1.012809516
1.157653918
1.156701072
1.156019257
1.155508024
1.155282816
1.15496668
1.155001781
1.155071958
1.155151118
1.154337622
1.15419119
1.154060667
1.153996657
1.154256232
1.154402614
1.154742838
1.155397504
1.156542781
1.09302528
0.8771760446
0.7559301539
0.7068746673
0.7242354389
0.8042281713
0.956662189
1.157943488
1.156346705
1.155202648
1.154658896
1.154201655
1.154184338
1.154275352
1.15440412
1.153523652
1.153326841
1.153174132
1.153136368
1.15345051
1.153792415
1.15457621
1.155823541
1.07064664
0.791163076
0.6198724701
0.522069667
0.4802497977
0.4992128384
0.570386883
0.6985965605
0.902432733
1.157647044
1.155410967
1.154310436
1.153477964
1.15340827
1.153498291
1.153664862
1.152686839
1.152448323
1.152284865
1.152311662
1.152762549
1.153424566
1.154905396
1.157137604
0.8065397652
0.5729087055
0.4211300658
0.3265368301
0.2884566568
0.3071695443
0.3776460094
0.4945683557
0.6713263649
0.9443893231
1.156386584
1.154347172
1.152984104
1.152682151
1.152722052
1.152907044
1.151844461
1.151581299
1.151440509
1.151570403
1.152250587
1.153393391
1.155914158
0.9478532708
0.6370316117
0.4307253539
0.2823310393
0.1833681608
0.1440691097
0.1694512038
0.2410155009
0.3506871604
0.5101740665
0.7472900089
1.110791533
1.154861087
1.152647597
1.152016417
1.151958886
1.152139886
1.150992209
1.150718445
1.150637568
1.150988517
1.151907691
1.153759255
1.12959796
0.8063425829
0.5357618556
0.3448375763
0.2001533402
0.09272858068
0.05301332427
0.08444987862
0.1572874959
0.2595473821
0.4046131531
0.6113336451
0.9509083247
1.155936565
1.152503543
1.151421717
1.1511961
1.151341462
1.15021274
1.149940117
1.149948719
1.150555616
1.151741251
1.154540692
1.01929194
0.729792083
0.4907273865
0.3166492273
0.181564454
0.0750829104
0.04899339585
0.120283526
0.2120072625
0.3439181977
0.5333037666
0.8419723974
1.157404043
1.152600977
1.150932509
1.150462526
1.150548933
1.149483597
1.149241925
1.149389973
1.150324489
1.151920677
1.155701977
0.95316755
0.6922658965
0.4880469047
0.3399549718
0.2307547338
0.1617666025
0.06140753103
0.1189265989
0.1988595172
0.3182739141
0.4911554483
0.7775082094
1.140896003
1.152946972
1.150585029
1.149814218
1.149807443
1.148934179
1.148724448
1.149029085
1.150335379
1.152421568
1.157210454
0.9207929382
0.6920549081
0.5117514611
0.3859115732
0.3084873907
0.2999351582
0.08722685729
0.1364895034
0.2096639057
0.3216609488
0.485201872
0.7469842921
1.075837517
1.153565648
1.150455826
1.149329711
1.149216956
1.14852438
1.148377995
1.148889592
1.150653229
1.153240875
1.158783246
0.910618458
0.7057966428
0.5466555378
0.4370639228
0.3785141112
0.4181204806
0.1189305423
0.1662316794
0.2372703088
0.3436048161
0.4965445219
0.744265196
1.037977443
1.154438656
1.150570531
1.149082924
1.148839381
1.148334863
1.148257278
1.148970148
1.151175761
1.154322807
1.160512811
0.9160204396
0.7323743663
0.5868362412
0.4824428536
0.4170325351
0.4318865031
0.1558456442
0.2082036589
0.2818452438
0.3884622118
0.5336295444
0.7664896367
1.031505173
1.155578088
1.150970392
1.149114684
1.148751256
1.148300694
1.148310504
1.149305065
1.152027808
1.155602612
1.151260998
0.9347077826
0.7759478525
0.6353964414
0.5295862546
0.4462411858
0.3800657561
0.04592336647
0.2047998269
0.2709277764
0.3507356786
0.4545207354
0.5979848044
0.8090846583
1.042854965
1.156834142
1.151622848
1.149432197
1.148943655
1.148474311
1.148571622
1.149819421
1.152975837
1.157120977
1.164185408
0.9942135689
0.8291366617
0.7037254673
0.5970977882
0.5038257395
0.2877289629
0.09501053202
0.3038606489
0.3803709789
0.4545322906
0.5506059795
0.6809126591
0.8695083052
1.078393337
1.158173044
1.152480307
1.150003268
1.149427442
1.148729319
1.148907432
1.1503985
1.153997359
1.158612526
1.165913687
1.062738587
0.9170990436
0.8009831757
0.7029170586
0.6160918696
0.1115832484
0.138886632
0.3939613682
0.5751788016
0.609593339
0.6803614271
0.7963363478
0.9631699039
1.144730573
1.159499772
1.153445523
1.150733064
1.150071526
1.14912194
1.149378756
1.151089506
1.155084935
1.160093307
1.167557679
1.167464548
1.045284582
0.9441397852
0.8729030673
0.8030177596
0.05396564763
0.1648116905
0.4365984011
0.7433560546
0.8245556421
0.8533133592
0.9436864721
1.089623372
1.171208471
1.160737454
1.154443386
1.151594071
1.150893214
1.149495909
1.149814837
1.151720174
1.156103885
1.16147383
1.169017385
1.168815291
1.152833241
1.106253677
0.9894209412
0.5606779863
0.02878909259
0.2341583439
0.5120009118
0.8080382828
1.017057561
1.077555844
1.125424693
1.175588874
1.172618562
1.161825964
1.155401819
1.152440329
1.151698906
1.149940243
1.150316325
1.152387261
1.157090477
1.162725605
1.170311461
1.169867429
1.152290141
1.089884518
0.8818425923
0.1979952833
0.04473378885
0.3183008035
0.6026343071
0.8653444883
1.036540464
1.125139628
1.164278575
1.17726375
1.173631795
1.162714256
1.156262297
1.15327908
1.152516273
1.150295335
1.150712122
1.152921233
1.157927281
1.163829531
1.171388969
1.170495556
1.151231868
1.078049598
0.748322464
0.08135664568
0.1142716693
0.3885780311
0.6646738448
0.892595423
1.045295996
1.12921736
1.16644471
1.178295641
1.174277519
1.163369075
1.156953564
1.153983136
1.153210786
1.150696162
1.151155695
1.153480501
1.158711601
1.164769018
1.172276094
1.171005365
1.149840096
1.064355038
0.6505561242
0.06663803735
0.1537489232
0.4160509268
0.6824525445
0.9051248895
1.0515108
1.131873796
1.167694622
1.17880897
1.174604282
1.163867896
1.157555472
1.154619244
1.15383861
1.150973289
1.151467896
1.153891168
1.159334717
1.165560529
1.173001047
1.171306363
1.148222793
1.048008379
0.5711888434
0.06025604768
0.1759984981
0.4331703578
0.6947775896
0.9138455257
1.055775636
1.133485638
1.168269887
1.178916392
1.174672455
1.164158636
1.157969693
1.155078684
1.154292327
1.151302323
1.151843994
1.154360362
1.159948953
1.166228298
1.173599976
1.17149968
1.146396547
1.028066496
0.5161915686
0.05750147401
0.1921656522
0.4463128428
0.7033775527
0.9191569821
1.058429244
1.134301917
1.168351603
1.178713193
1.174539936
1.164350391
1.158319573
1.155474833
1.154676924
1.151489112
1.152076784
1.154683132
1.160426446
1.166805692
1.17410599
1.171618311
1.144332262
1.003146531
0.4783053561
0.05649506101
0.204144234
0.4561001996
0.7090358934
0.9217697288
1.059684918
1.134473217
1.168060461
1.178277323
1.174255706
1.164369956
1.158485693
1.155684204
1.154875458
1.151747926
1.15239682
1.155099449
1.160947821
1.167315412
1.174543836
1.171659127
1.141751752
0.9748864443
0.4518559424
0.05645761987
0.2131250186
0.4632017153
0.7124548645
0.9224807636
1.059759292
1.134091825
1.167469907
1.177666528
1.173856393
1.164347247
1.15863023
1.155866584
1.155041279
1.151849673
1.152557939
1.155356825
1.161336
1.167779135
1.174928774
1.171588294
1.138258173
0.9472091781
0.4333182048
0.05705188625
0.2197594107
0.4682425301
0.7142234003
0.9219044636
1.058900496
1.133235857
1.166630889
1.176922483
1.173368742
1.164172799
1.158596269
1.155865448
1.15502564
1.152050125
1.152831478
1.155735613
1.161803099
1.168202075
1.175268046
1.171356942
1.133576091
0.9224201946
0.4203392127
0.05811525451
0.2247222441
0.4717426859
0.7147812452
0.9204360039
1.05733777
1.131985176
1.165586282
1.17607619
1.172811982
1.164006038
1.158589074
1.155885745
1.155026588
1.15207949
1.152927851
1.155932164
1.16211687
1.168594674
1.175562428
1.17090986
1.127693463
0.901056159
0.4114766871
0.05955418987
0.228508834
0.4740890366
0.7144352494
0.9183207682
1.055249387
1.13041528
1.164374444
1.175151535
1.172201191
1.163692981
1.158403531
1.155724844
1.154849906
1.152234881
1.153162959
1.156278579
1.162543382
1.168953109
1.175809947
1.170195235
1.120894246
0.8829486246
0.4055979953
0.06131657843
0.2314238467
0.4755231259
0.7134021549
0.9157182517
1.052763383
1.128589372
1.163027682
1.17416668
1.171547905
1.163433421
1.158290934
1.15563171
1.154736313
1.152208414
1.15320501
1.156418612
1.16278659
1.169287845
1.176007145
1.169175794
1.11353043
0.8675909582
0.4019721313
0.06334511552
0.23370093
0.4762440971
0.7118431879
0.9127403946
1.049970333
1.126557018
1.161571871
1.17313539
1.170861095
1.163022945
1.157997671
1.155358325
1.154447112
1.152326974
1.15340655
1.156735229
1.163182709
1.169591944
1.1761492
1.167838301
1.105913785
0.8544580423
0.3999804319
0.0655672865
0.2355024518
0.4763978207
0.7098770769
0.9094682027
1.046934814
1.124355979
1.160026934
1.172067902
1.170148331
1.162702677
1.157808821
1.155183187
1.154250899
1.152266713
1.153411622
1.156831194
1.163363425
1.169877519
1.176229145
1.16619513
1.098297069
0.843234783
0.3993740167
0.06801038633
0.2369309677
0.4761047925
0.7075898551
0.9059624551
1.043704447
1.122015126
1.158408236
1.170971714
1.169413809
1.162231372
1.157451201
1.154843024
1.153895609
1.15234578
1.153576042
1.157114242
1.163734945
1.170133425
1.176240176
1.164277634
1.090850746
0.8336531173
0.3998914766
0.07069210019
0.2380590991
0.4754581365
0.7050495884
0.9022727633
1.040316682
1.119557213
1.156727146
1.169852177
1.16866391
1.16185579
1.157188399
1.154591044
1.153622371
1.152284837
1.153573216
1.157191648
1.163872643
1.170373189
1.176176252
1.162131388
1.083684727
0.8254832124
0.4013311567
0.07363328916
0.2389565365
0.474529966
0.7023134074
0.8984430952
1.036803454
1.117001011
1.154992531
1.16871337
1.167896883
1.161377919
1.15682542
1.15424307
1.153261403
1.15230511
1.153682505
1.157424621
1.164208047
1.170582738
1.176036264
1.159809918
1.076877612
0.8185893978
0.403611006
0.0768519726
0.2396866132
0.4733920916
0.6994376212
0.8945176705
1.033195201
1.114363904
1.1532134
1.167560948
1.167124681
1.160900384
1.156451409
1.15388172
1.152878884
1.152283649
1.153708491
1.157516653
1.164342884
1.170778755
1.175823833
1.157377283
1.070449256
0.8127636741
0.4064685788
0.08034398922
0.2403126388
0.4721262954
0.6964820326
0.8905393236
1.029520392
1.111661832
1.151396328
1.166411895
1.166348175
1.160533957
1.156173127
1.153613791
1.152601104
1.152286205
1.153820353
1.157780832
1.164729822
1.170965063
1.175563937
1.154965204
1.064384533
0.8077570358
0.4095924814
0.0841010956
0.2408896831
0.4708178704
0.6935200281
0.8865586779
1.025811057
1.108910261
1.149544963
1.165339092
1.165643234
1.159849432
1.155628092
1.153089221
1.152053392
0.1447503389
0.05496814027
0.04210008825
0.2847265304
0.08035533947
0.05805516126
0.4051653681
0.1127158218
0.08416603036
0.4361159236
0.1429541955
0.1174764456
0.3895936953
0.03492402981
0.04326342576
0.1805277301
0.146916719
0.3298745201
0.06799807197
0.03586542823
0.08980572383
0.2468848809
0.1837964813
0.07307094548
0.05341970796
0.04341315114
0.08034467831
0.02758717128
0.01825905495
0.05878700497
0.1007308932
0.1015769804
0.2886325194
0.2785971795
0.1668641092
0.02459861597
0.03696151509
0.08379448275
0.1172058541
0.1034098052
0.3633175756
0.3885984308
0.2927782455
0.3443050023
0.1985252753
0.2216571091
0.04405563559
0.03083061954
0.114861654
0.1452684222
0.1232882456
0.4112870926
0.4288585275
0.3998193095
0.4407623826
0.1320374879
0.169510998
0.08546819177
0.06134153576
0.4362052322
0.3898975333
0.4266272235
0.4166092474
0.07950603498
0.1039408591
0.0152460663
0.134205098
0.1179119646
0.4861835707
0.4014850519
0.3849517302
0.3640264309
0.03164890031
0.05177240869
0.2942291728
0.09542917881
0.06963055351
0.06064860524
0.1366758971
0.02899747425
0.05503579383
0.03795542012
0.02898723771
0.04633623523
0.03065726296
0.049451062
0.2247406189
0.2465993507
0.2356052871
0.1933180509
0.1814684472
0.1527006666
0.1957204852
0.03050562653
0.02445918773
0.06962735472
0.03679315863
0.04200394086
0.05040956369
0.03698889276
0.06805026967
0.1720583504
0.1950278849
0.3598195224
0.1529682538
0.1303176025
0.1798980759
0.1548426078
0.05819691463
0.0451879275
0.1004339587
0.06349092003
0.08273477023
0.04245723885
0.06093220653
0.09617034643
0.105302588
0.1304702354
0.4423825684
0.1052474062
0.08068486092
0.1289989553
0.1065403359
0.1141484524
0.08929682416
0.05275396701
0.07776697501
0.4050372436
0.01305012004
0.05486367768
0.03318903802
0.07965479629
0.05642433625
0.01257884815
0.1416442179
0.1363281371
0.01669755142
0.00479788749
0.03135960453
0.3588447507
0.05474546286
0.0195967985
0.01164880383
0.03283666231
0.01992176985
0.05246499276
0.21399933
0.1516039505
0.08754642043
0.09288112981
0.05962011254
0.03409060324
0.0129695005
0.008129896907
0.2175224574
0.2494448322
0.1490153372
0.01061011994
0.1489583529
0.1823409934
0.1536464695
0.01281142694
0.04785820719
0.041299691
0.06596273402
0.1590591382
0.1458109755
0.1355951391
0.06632803776
0.1034390562
0.04129510782
0.01231805996
0.02171611049
0.0209030931
0.02886947293
0.04463224504
0.04002787164
0.02925368122
0.1317097077
0.1109404992
0.1305013956
0.08588248267
0.1077316016
0.1286089176
0.02356980418
0.01451424856
0.04158092374
0.02111894499
0.03577558732
0.02827964858
0.01838861757
0.02802336581
0.02025845379
0.01310959121
0.0217769077
0.01687010321
0.009629693497
0.01504139081
0.02070880785
0.03166136709
0.03221656294
0.03743329481
0.03650709235
0.01534306958
0.01075760048
0.07456842888
0.01305075451
0.02316371284
0.01035145317
0.01181525577
0.07101248381
0.09347230437
0.2553011217
0.2437043753
0.06170940218
0.05136227146
0.012495598
0.04688174784
0.1920343133
0.1802478419
0.208246232
0.1968069775
0.0472136502
0.04915382769
0.04165590087
0.08757098876
0.06437555202
0.05375236723
0.04004171869
0.06393924739
0.09835512437
0.03512322914
0.0224440838
0.01409973637
0.04978695933
0.02493262932
0.03877510625
0.02418848662
0.05440580526
0.04075132213
0.03986612759
0.1916144201
0.03162101209
0.1910866077
0.208503787
0.03512956721
0.03906327519
0.03201169082
0.03465870784
0.2052363256
0.0291631316
0.02892654508
0.03976596754
0.06802250506
0.06337661839
0.07443481419
0.06971580208
0.04001954641
0.04449120551
0.05536164249
0.05014707596
0.06170752653
0.05683001532
0.04365396704
0.1419564542
0.1404908456
0.168584026
0.1670277628
0.05469708302
0.01023214632
0.05353642299
0.09626685564
0.0945060164
0.1172999018
0.1157839949
0.02455463793
0.03518767397
0.100319916
0.02745498157
0.01644583253
0.06892672142
0.2241937447
0.2123918622
0.2397396224
0.2280781916
0.07022166763
0.02113804148
0.05041917585
0.04940777051
0.07278226317
0.07194821838
0.008522721699
0.02907910485
0.07656464995
0.0654395446
0.1756580191
0.1673099385
0.02525818507
0.01257775236
0.0172196329
0.01463932931
0.03142262868
0.01331270461
0.01467496958
0.01401215781
0.03146548784
0.04440410582
0.01485873015
0.01505156217
0.003798469959
0.01590690902
0.0129577823
0.5798026991
0.3922008418
0.392875006
0.2657449203
0.0092127941
0.005408810718
0.1335051226
0.3227980372
0.2771089074
0.005785627399
0.01214392667
0.01162353325
0.09167508358
0.08067481099
0.03113556619
0.1905716309
0.1655288547
0.06885231759
0.00885986202
0.01492756078
0.01192892664
0.008208553346
0.01184439974
0.008444583667
0.0266736288
0.01129357543
0.01064410591
0.03457611001
0.04081781062
0.01164926183
0.01606945601
0.008582393702
0.008777917203
0.03231068277
0.1453593263
0.3128452691
0.3023956571
0.3264658978
0.3162862139
0.1484401953
0.2701669675
0.2589349486
0.09472152372
0.03478634814
0.09937552374
0.09428328476
0.01276133063
0.0188298639
0.07512105823
0.04345507963
0.01277416894
0.01138427065
0.0384265908
0.0415664599
0.03694244846
0.04845670279
0.04321204222
0.04049033533
0.02981871142
0.008508251001
0.008558833431
0.02558969574
0.1819615717
0.3396046741
0.3297652364
0.06062934289
0.0624899737
0.1346783854
0.01706483029
0.01856417096
0.04844524853
0.0711036975
0.1009193969
0.09349776573
0.04808335044
0.08190002151
0.07633393723
0.09079452693
0.08407118074
0.04913147797
0.1181263827
0.2846970427
0.2737939434
0.298892766
0.2882928746
0.1198445356
0.1014924192
0.03789412626
0.03861540885
0.02195862766
0.02280031896
0.08493131906
0.1242141055
0.05656088124
0.06023357845
0.03891234913
0.03958349135
0.1104104837
0.104068285
0.03706171708
0.05115705736
0.009223281477
0.01526956363
0.05255505277
0.04047057243
0.07668463664
0.02134920904
0.02181718963
0.02093709047
0.06566494245
0.012862226
0.004412686718
0.1297302485
0.1137660935
0.09256357826
0.08847668545
0.03105600701
0.0154746329
0.02361841415
0.0620995343
0.01937205939
0.01232696674
0.0177077823
0.01954993124
0.002819560208
0.03238885098
0.02100038592
0.01189917785
0.006432167365
0.01148207169
0.01058888558
0.0103754542
0.02316293708
0.01759700463
0.008326066366
0.03852922869
0.04007053859
0.01442420893
0.01079353096
0.006968636007
0.01134404145
0.01562675928
0.01136002433
0.01226456046
0.0338364875
0.01160329058
0.01143438186
0.0134457002
0.01354631039
0.02856628943
0.01362679872
0.0133471097
0.01396178773
0.01359904312
0.0134573678
0.01593758724
0.01427057721
0.01999154473
0.01699268123
0.01370841518
0.01245742894
0.02111553714
0.01763582813
0.02318960529
0.02162472073
0.01707755672
0.0151756636
0.0123110351
0.009688725142
0.007650440598
0.02829406926
0.03399259092
0.01041291926
0.009750440625
0.01097601104
0.01143610043
0.03975326424
0.009187829932
0.008987373258
0.0101382427
0.009262364381
0.008910222419
0.03330180768
0.008669691276
0.01086209768
0.01170385148
0.01102480171
0.01691080788
0.04229022023
0.03789818761
0.01055821208
0.03060638353
0.02629909093
0.03634952627
0.03231306037
0.01062807144
0.01228438315
0.03029246794
0.02533737194
0.1075617253
0.1011579607
0.0387693174
0.04937692356
0.1145433269
0.1092939625
0.04458323385
0.04378825717
0.06612959063
0.07311239697
0.08809796183
0.05481428658
0.06866587415
0.06691012322
0.05930057955
0.1316125637
0.1218344053
0.09492370315
0.1215705356
0.05922578102
0.03712090025
0.04041707625
0.05040422946
0.03220268972
0.03594985304
0.01795392022
0.01700475679
0.04506891047
0.01247281004
0.01237708662
0.009622445717
0.01784232589
0.02116914304
0.01272611438
0.0180117088
0.03477709856
0.02475661641
0.01878749673
0.02985333687
0.09332660406
0.08230995372
0.09912257658
0.09558456502
0.03095301715
0.07449591733
0.07246030288
0.07916045715
0.07522460549
0.03655575097
0.1134229799
0.1096080693
0.1195223335
0.1147626219
0.0371181552
0.03307935962
0.1036599118
0.1003226477
0.1083747608
0.1048101624
0.033402429
0.008563669478
0.008508396234
0.0296240575
0.02672663074
0.008259046066
0.008574596035
0.044098059
0.04335719197
0.0462154542
0.04435271891
0.0419759677
0.04095177042
0.04310910439
0.04224423444
0.06934786198
0.06751847606
0.07182694665
0.06997942414
0.06231489195
0.04887869445
0.06675793843
0.06477417739
0.01962746549
0.01676310558
0.02506227166
0.02116909774
0.006771010184
0.01102927801
0.01048149287
0.01566503037
0.01130207399
0.0369476387
0.03754400786
0.1002076012
0.02200495134
0.02178359965
0.02266848771
0.02218991749
0.02110044134
0.08721470786
0.0235061601
0.03476991861
0.04170692988
0.05471874207
0.1225386283
0.03818172144
0.0248426395
0.04081480514
0.03786708805
0.02344845175
0.02290317372
0.02439362572
0.02367138663
0.1117177816
0.03980778465
0.04068231803
0.007686566391
0.02293630183
0.01154099179
0.01135744192
0.01111351641
0.02138167763
0.009575264388
0.01654922935
0.01305706156
0.01350860089
0.05191415769
0.04544258573
0.02075454577
0.02123901451
0.07576633802
0.06782863836
0.0198697903
0.02069325851
0.01288734726
0.02995727042
0.08594813051
0.07769120271
0.01419150186
0.01340564228
0.01860235867
0.01275904494
0.01470702019
0.01528570275
0.03228104519
0.009834937801
0.01471940654
0.0126404314
0.01497658984
0.02185094185
0.05016146987
0.1061253008
0.1365353768
0.01237756572
0.01180194668
0.1869731931
0.2360445166
0.1936312149
0.008169267269
0.03037580375
0.01390649983
0.01565931755
0.1347631685
0.1409988539
0.1586793557
0.004612098365
0.006946423717
0.005154183357
0.004857746543
0.005502383381
0.004319262851
0.05329359356
0.03321706964
0.02117433459
0.02419745637
0.02268622094
0.02577644916
0.2087935538
0.3380675814
0.355354292
0.3172550306
0.3307750859
0.2120616247
0.03638510177
0.03192497672
0.01246936428
0.05463993822
0.06523083642
0.126805447
0.1215011509
0.1162106466
0.04986175332
0.0260936619
0.02565183803
0.03289043295
0.3521968085
0.3427855572
0.1851156102
0.1480241744
0.06784878599
0.07145653039
0.0743859817
0.08462397629
0.1604406058
0.06048623568
0.1294230647
0.1233441428
0.01283251515
0.01273841921
0.01356481965
0.02067274079
0.02097436157
0.0340543331
0.012522208
0.01308760857
0.01293594256
0.0218553964
0.04343800854
0.03763647849
0.01954059908
0.03263501805
0.02021465725
0.02039929819
0.01996061641
0.01309132353
0.01075162649
0.01197128049
0.01197002331
0.01270755668
0.01947864345
0.02424912148
0.04770536771
0.04028320788
0.03549702949
0.03230089802
0.02376910881
0.0353887526
0.01337951996
0.01764334569
0.01351869089
0.00982065346
0.009881809621
0.01379891681
0.01342275466
0.02168563776
0.01379302471
0.009662223104
0.01522581926
0.01781590624
0.01684549871
0.01165641352
0.01466061864
0.01414961176
0.01080679496
0.01106799602
0.007171249058
0.01076965653
0.01061927597
0.04839000271
0.04369734926
0.01837661789
0.01031418271
0.01180717786
0.01103620501
0.01237492163
0.01304517095
0.01233084719
0.04723271724
0.03683692595
0.04232006937
0.0649871369
0.09017713314
0.0890369107
0.0415488371
0.06606369253
0.06267519851
0.08807872328
0.08660521157
0.06276509749
0.03042504517
0.0368569204
0.03367633247
0.02597332584
0.02675469506
0.02206844912
0.04595590537
0.04473980918
0.04690655036
0.02411929894
0.03445616648
0.03284266704
0.05232458282
0.05196556735
0.03136793333
0.02923314721
0.02883379401
0.03180442882
0.03110911442
0.03563126373
0.0579153526
0.05735529586
0.06118780224
0.06049599011
0.03833864595
0.03233155802
0.05346141589
0.05297651287
0.0567776916
0.05620551368
0.03422440581
0.06538554722
0.06718627104
0.146467322
0.136070399
0.06305040495
0.06481186254
0.09100751418
0.09390036141
0.173462632
0.02727415246
0.02712728913
0.02860352036
0.02838832618
0.02087947592
0.02686759564
0.02675861946
0.1621181955
0.08671537707
0.08992682956
0.009885517659
0.009837087359
0.01087456785
0.01055535381
0.01018420131
0.009654135445
0.006619310463
0.04955647208
0.01930596898
0.02350240045
0.1372471809
0.1314496396
0.06372693606
0.07311550253
0.1441338038
0.1389694473
0.03334523626
0.03339962062
0.05076987981
0.04909382082
0.03294688183
0.03287747934
0.0124162687
0.02389430853
0.03826784329
0.03746309966
0.009265288082
0.01519156555
0.01597376944
0.01491362305
0.01475518388
0.01927524984
0.01951966684
0.03187921583
0.01356598015
0.009813965451
0.01331995275
0.01416558671
0.02984367999
0.01876221922
0.01936414787
0.01437304931
0.02654264239
0.0218939641
0.01255293767
0.0125191666
0.01177363613
0.01180299749
0.01380323237
0.006235490437
0.004059128163
0.007178229805
0.01171380005
0.01213568128
0.01200317947
0.01161973467
0.01214832852
0.01145753974
0.009706629247
0.006352984477
0.005179541045
0.009634953528
0.009934968348
0.009289317782
0.009408408275
0.01101545084
0.01680616582
0.01701405577
0.01646902702
0.01663542097
0.01090341239
0.00863565442
0.01253645756
0.01252429254
0.01296926265
0.0126398366
0.008614192973
0.01210510656
0.01893252738
0.02104026122
0.01727506167
0.01781422411
0.01173509971
0.008515911576
0.01253317249
0.01254479852
0.01249247836
0.01252701745
0.008527544453
0.009034319588
0.009176054447
0.008803230894
0.00915499049
0.03805750371
0.05728868762
0.05683222139
0.02219254213
0.03700204813
0.03674554373
0.03833791696
0.03737392025
0.02240688566
0.01323593841
0.01280110083
0.0131732225
0.0133114962
0.02084216025
0.02064771365
0.02128411307
0.02105408326
0.01628929659
0.03620789014
0.02158859938
0.02252529437
0.02152087191
0.03623814693
0.03601627044
0.03658090283
0.0363949511
0.02164965039
0.02224992764
0.02161349338
0.03257087236
0.02327670165
0.01666373588
0.008989993084
0.01274931712
0.01261187008
0.008917767468
0.04470437728
0.03122636494
0.002971522361
0.0310565519
0.0474942503
0.04716741585
0.0193326315
0.01224363553
0.009029651387
0.003337279728
0.01427094189
0.01479277776
0.019966905
0.0201384087
0.03257140013
0.02038231898
0.0102275915
0.01073952732
0.01408593385
0.005103339396
0.009163987545
0.006842394407
0.007732818819
0.007884797373
0.01065401808
0.006940291287
0.01216490182
0.01201979742
0.01223825926
0.04002494957
0.03125934216
0.007997447846
0.01002457836
0.0111710818
0.01819968376
0.02037188043
0.01204361529
0.01488724039
0.01416146829
0.01198033823
0.007857973704
0.01189302243
0.0134562915
0.009496353851
0.01328844229
0.01344959998
0.01380725319
0.01379482282
0.01377521327
0.01354977218
0.01341582278
0.01371666298
0.01421262693
0.01403723762
0.01350155806
0.01406654067
0.01473266049
0.01457687842
0.0156269192
0.01741141748
0.01473492002
0.02384270807
0.01932383816
0.01488169035
0.01390838588
0.01513044411
0.00923163711
0.01477918758
0.01566334339
0.01060477573
0.01474587628
0.009752167885
0.01021178259
0.01612873525
0.0162794628
0.01573975197
0.01597196872
0.01004878312
0.01117110006
0.01891614273
0.01857514452
0.009154437435
0.009062483288
0.009507653931
0.006559449563
0.00925230561
0.00914871104
0.00876821368
0.006836441161
0.009409031512
0.01561880108
0.01392227671
0.01807103748
0.01713097578
0.01028602528
0.01093056266
0.01098492609
0.01275716771
0.007373579606
0.01124655422
0.01090551768
0.01096484935
0.01090994419
0.01103012217
0.0146580398
0.01312829113
0.01032106952
0.04565268136
0.04288157403
0.08029467089
0.07243375935
0.04342557638
0.06251725938
0.08587286404
0.08278127876
0.03416239875
0.03155575478
0.02917913878
0.02230367011
0.02905827676
0.04109102722
0.04202002434
0.03709542621
0.01787358815
0.02582220981
0.02621481108
0.02345781645
0.02426357276
0.01689244866
0.01167858379
0.01248473991
0.019050876
0.01334309657
0.01280045913
0.01423575632
0.01358775063
0.01930543844
0.01312321774
0.01367527105
0.01075451658
0.01393802224
0.04812171771
0.04829912093
0.03122792341
0.03093776311
0.05106397676
0.05105516689
0.02990128734
0.02952232766
0.03065665315
0.03024329726
0.05893644406
0.05840439397
0.03601284939
0.03771162736
0.05997003166
0.05945967636
0.05457243572
0.05406062296
0.03274245101
0.03377322882
0.05562415895
0.05509190569
0.008517239824
0.01261387366
0.01264769175
0.01257443603
0.01260944024
0.008511391818
0.008544007422
0.01179085078
0.01030685348
0.01259899657
0.01240212758
0.008570434701
0.04384000127
0.02601570953
0.02628337266
0.02559250196
0.0257974388
0.04360374792
0.04512094645
0.02722198743
0.02771272348
0.02654778411
0.02685656358
0.04465903033
0.04160699335
0.02438017672
0.02461467751
0.02401326914
0.02424071806
0.04137668814
0.04284014222
0.02519900699
0.02538826503
0.0247812394
0.02501029936
0.04257257984
0.02770218818
0.02751847374
0.06874727208
0.04667862426
0.0469843426
0.04601591601
0.04628508941
0.06808219488
0.02813649037
0.02793361044
0.02562063438
0.02687262064
0.06031200144
0.04239508638
0.04210260571
0.02861866962
0.03002863677
0.05406861139
0.06629796738
0.04534976181
0.04554256464
0.04466592827
0.04461845836
0.06514221455
0.02644044993
0.0264820651
0.009939919687
0.01000373821
0.009975568873
0.01039557536
0.01005569438
0.0108054861
0.00960274035
0.009654706082
0.009392659274
0.009489489046
0.01071113009
0.01404045318
0.009782251425
0.01028604925
0.009729165025
0.009651983297
0.01220804319
0.03686513068
0.05479760087
0.05450521846
0.05616571163
0.05581506307
0.03744749873
0.0219580107
0.02171557246
0.02254140675
0.02226788189
0.02217784344
0.01730543746
0.0247598272
0.04521797517
0.04065074115
0.05234205149
0.05058386543
0.03507591914
0.02695341906
0.01875320787
0.02410282311
0.02563633831
0.04015245419
0.0236573782
0.02394610351
0.02295657846
0.02370958597
0.04021846284
0.02327904844
0.02305499979
0.02411837196
0.02386980721
0.0116469172
0.01128607309
0.01122367767
0.01265701351
0.01169049598
0.01169639824
0.01127362607
0.01135023532
0.01106658731
0.01122899235
0.007564637477
0.01338858444
0.01300712421
0.0132082919
0.01303546106
0.01313610151
0.01332661694
0.02019276365
0.02015103145
0.02044530162
0.02038020192
0.03120328099
0.03115808518
0.04706965338
0.01937796043
0.02044513943
0.01991426834
0.01998709883
0.02096729085
0.03542201241
0.03505796153
0.03585164437
0.0355713011
0.02104923799
0.02042309633
0.034368529
0.0324495071
0.03493742527
0.03433820378
0.02040671024
0.01291869123
0.04556266622
0.04502173196
0.02972583466
0.01447258449
0.01166273111
0.01138257642
0.00863490156
0.01183037094
0.01364760552
0.0191575667
0.01357078598
0.01506575557
0.01477918271
0.03199466152
0.01963511652
0.01983947764
0.01337700227
0.01294953509
0.01305662899
0.01412490253
0.01375777112
0.009249677802
0.009547861957
0.01471753579
0.01317387658
0.01392228057
0.01594040273
0.01966116438
0.02984844844
1.155401777
1.156059283
1.155949326
1.156338626
1.157440388
1.156642634
1.157850347
0.9868966422
1.157636054
0.9480586845
0.8361653041
0.9964604099
0.8157502345
0.7722863175
0.9089411622
0.7674958311
0.7719614843
0.912836767
0.7786967286
0.8379099181
0.9960743858
0.8616075079
0.9808235457
1.157979473
1.021477001
1.157932908
1.156907551
1.157494118
1.156452204
1.156161288
1.155637425
1.157045905
1.156194886
1.146273107
0.9204976217