/*--------------------------------*- C++ -*----------------------------------*\
| =========                 |                                                 |
| \\      /  F ield         | OpenFOAM: The Open Source CFD Toolbox           |
|  \\    /   O peration     | Version:  v1912                                 |
|   \\  /    A nd           | Website:  www.openfoam.com                      |
|    \\/     M anipulation  |                                                 |
\*---------------------------------------------------------------------------*/
FoamFile
{
    version     2.0;
    format      ascii;
    class       volScalarField;
    location    "1.05";
    object      omega;
}
// * * * * * * * * * * * * * * * * * * * * * * * * * * * * * * * * * * * * * //

dimensions      [0 0 -1 0 0 0 0];


internalField   nonuniform List<scalar> 
12556
(
31.93111825
31.93201041
31.93295884
31.93379255
31.96669974
31.96754415
31.96841466
31.97022548
31.97375072
31.97944872
31.9871185
31.99456866
31.99886417
31.99645027
31.99064658
31.98314169
31.97668928
31.97174311
31.96957527
31.96785745
31.93403692
31.93281864
31.93175928
31.93078489
31.79510932
31.79773818
31.80031967
31.80258449
31.83638299
31.83952708
31.84462424
31.86791872
31.88432352
31.91123615
31.9473474
31.98553861
32.00434424
31.99814861
31.96937539
31.93418608
31.9024053
31.87999379
31.85066263
31.84189951
31.80446715
31.80062497
31.79731929
31.79442702
31.66102398
31.6655972
31.67018118
31.67397909
31.70856471
31.71552368
31.72778385
31.76193846
31.8014802
31.8624063
31.94268329
32.02279491
32.06202859
32.05179695
31.98947429
31.91214925
31.84089314
31.78953247
31.74031247
31.7211567
31.67796151
31.6713015
31.66555062
31.66072806
31.52849717
31.53458938
31.54056141
31.54620519
31.58352266
31.5971189
31.62356121
31.67916394
31.75802516
31.88420199
32.04899088
32.21318983
32.2984379
32.27259264
32.1307321
31.96991296
31.82676896
31.72716036
31.64611752
31.6097469
31.55626835
31.54515564
31.53631664
31.52930757
31.39808829
31.40591723
31.41407787
31.42275763
31.46338863
31.48734088
31.53748282
31.62725375
31.78066431
32.03724412
32.40237472
32.836366
33.07462636
33.0218193
32.61251667
32.21921517
31.90194495
31.70996299
31.57629499
31.51039821
31.43943018
31.42196847
31.40942433
31.3999648
31.26889681
31.27815387
31.28827988
31.30094346
31.34935406
31.38978747
31.47667139
31.61710117
31.89679405
32.40800796
33.32979442
34.93460339
36.16904202
35.65695957
34.01369532
32.88155272
32.14659188
31.75488912
31.53260028
31.4257137
31.32916982
31.30133362
31.28375505
31.27137977
31.14240591
31.15361769
31.1669884
31.18559274
31.24276983
31.30574361
31.43928262
31.66017686
32.13728671
33.11714597
35.51438068
43.40839359
51.80593177
47.49504957
37.84383929
34.32068792
32.65206579
31.89715503
31.51944199
31.35699228
31.22459802
31.18345909
31.15941815
31.1437781
31.0175809
31.03076298
31.04769381
31.07449029
31.14461973
31.2361908
31.42938503
31.75820442
32.4926643
34.15206247
39.23597652
64.97404597
84.38831062
46.57334639
36.88684768
33.47431278
32.14237771
31.53642411
31.30122064
31.12701855
31.06895639
31.03679818
31.01726413
30.89835921
30.91410349
30.9363272
30.97416249
31.05527763
31.18143018
31.44181148
31.90232627
32.91376556
35.22189163
42.44743189
81.38286029
168.0390105
59.09587361
40.3547133
34.5520085
32.46651931
31.58335687
31.25651676
31.03622622
30.95902399
30.91730138
30.89361782
30.78316216
30.80164393
30.82917402
30.87869086
30.97659439
31.13974954
31.47771319
32.07149391
33.32836398
36.08737711
44.25301795
87.38341827
209.8338979
69.78517397
43.7586149
35.64184895
32.80371165
31.64552616
31.22105451
30.95299824
30.85531755
30.80301787
30.77442854
30.67652272
30.69847346
30.73320851
30.79742764
30.90808183
31.10964289
31.52843438
32.2488701
33.69967805
36.74138204
45.45550162
96.60434754
207.7933224
75.66734896
46.14267179
36.50008366
33.10470973
31.70630034
31.19204794
30.87681836
30.75908285
30.69587418
30.66229088
30.57604754
30.60080894
30.64163387
30.71947537
30.84815105
31.08859185
31.58653702
32.41935704
34.01757062
37.25643759
46.54147264
107.7592112
190.4226173
77.29175025
47.24800953
37.00799986
33.31777381
31.75118549
31.16490444
30.8079511
30.67041035
30.59671528
30.55765508
30.48463927
30.51313855
30.56240325
30.65549156
30.79435106
31.07305453
31.6398671
32.57386349
34.2736712
37.66687645
47.81000257
116.5139636
918.052424
161.9023143
76.06698101
47.32122221
37.12277983
33.42339105
31.77034425
31.13433384
30.74236529
30.58875473
30.50473043
30.46088381
30.39784871
30.42957235
30.48621017
30.59176726
30.75328722
31.07368117
31.73208924
32.74419055
34.53948541
38.12604695
49.60755822
159.8463504
556.4564197
150.302764
73.6372202
46.48169541
36.96047658
33.4424932
31.76356756
31.09705428
30.6767974
30.51120553
30.4178285
30.36913683
30.31719078
30.35210633
30.41527976
30.53151619
30.70684681
31.0605217
31.78477184
32.91675193
34.88390849
38.69520999
51.10782221
379.5966448
393.9927062
138.1461788
69.229423
45.1649444
36.61347493
33.39514314
31.7271324
31.04975382
30.61067008
30.43554026
30.33427147
30.28193601
30.23684184
30.27467908
30.34361606
30.47004001
30.65914421
31.04102304
31.82089268
33.12468257
35.46871921
40.0357692
56.06537472
696.4273355
323.3905425
121.0209906
63.33311103
43.4422059
36.19210659
33.28402664
31.66427369
30.98985053
30.53916523
30.35706802
30.24970725
30.19373214
30.15901658
30.19971576
30.2732837
30.40732038
30.60738402
31.01213544
31.83764901
33.3048526
36.32882715
43.06084571
80.01151883
985.5946651
225.903351
99.18659567
56.82471192
41.70416438
35.82865282
33.14296169
31.57902513
30.91912078
30.46285951
30.27639982
30.16422067
30.10557539
30.07701147
30.12019855
30.19770619
30.33883563
30.54957551
30.97174278
31.83354561
33.38696141
37.18139224
49.01806564
210.5642424
719.5321705
162.5427485
80.94735276
51.82633798
40.54051981
35.52496896
32.98447078
31.477238
30.83460318
30.37696438
30.18789514
30.07332978
30.01265527
29.99525771
30.04079247
30.12136535
30.26691853
30.48453559
30.91940966
31.81167331
33.4382878
37.62548906
57.47934294
421.6796766
375.4340268
129.747091
71.28825381
49.51046885
39.90852941
35.22918731
32.81446003
31.36374774
30.73953142
30.28437745
30.09476761
29.97882104
29.91716426
29.9063419
29.95368189
30.03693991
30.18708998
30.4120304
30.8558872
31.7715067
33.46574987
38.07124185
65.22629599
459.5217518
283.0099262
118.3963687
68.32133459
48.2967381
39.36634446
34.94970902
32.64022068
31.24212252
30.63535589
30.18302536
29.9934669
29.87703815
29.81504268
29.81766536
29.86650472
29.95171664
30.10393228
30.33213507
30.78235354
31.7166135
33.47292832
38.56596993
73.11124683
459.0662569
243.5868459
111.3101057
66.14079614
47.34432937
38.9019626
34.68940244
32.46626522
31.11492912
30.52367033
30.07668144
29.88873932
29.77263956
29.71077638
29.72027394
29.76996509
29.85687751
30.01208316
30.24544273
30.70015106
31.64946613
33.46507656
39.16202375
79.46286893
440.8164945
219.0003738
105.8981141
64.45389137
46.61381225
38.50734305
34.44885527
32.29531683
30.98402554
30.40611074
29.96285192
29.77615593
29.66077502
29.59953035
29.62516272
29.67537687
29.7632089
29.91867267
30.15252331
30.61069205
31.5726539
33.44718252
39.93428125
84.13231322
417.1890335
202.1086042
101.7025592
63.13055027
46.0538499
38.1759061
34.22822428
32.1292347
30.85104328
30.2841757
29.84707996
29.66300993
29.54884441
29.48843669
29.52021068
29.57041208
29.6590846
29.81650575
30.05445772
30.51539767
31.48906338
33.43036676
40.84397576
87.31834096
392.7570916
189.7334521
98.38278754
62.07328293
45.61416245
37.89915277
34.02737713
31.96931116
30.7174258
30.15927241
29.72509278
29.54235801
29.42936389
29.37001622
29.42101895
29.47101097
29.55976777
29.71601387
29.95204722
30.4156964
31.40179355
33.42792548
41.74802035
89.26593834
369.3027034
180.3055887
95.69018477
61.20936229
45.25800218
37.66678335
33.84530629
31.81628919
30.58430895
30.03255654
29.60459579
29.42480843
29.3133088
29.25503563
29.31007412
29.35951133
29.44854876
29.6063648
29.84659246
30.31291008
31.31365241
33.44878054
42.54480381
90.23771646
347.4694059
172.7202799
93.45048061
60.48731419
44.96187304
37.46914461
33.68010253
31.67029963
30.452465
29.90504777
29.47791614
29.29885041
29.18848637
29.13134726
29.20966533
29.25849888
29.34711224
29.50273177
29.73869065
30.20820117
31.22701145
33.49417303
43.20103234
90.44235839
327.3845331
166.3689969
91.54647386
59.87196969
44.71094102
37.29865393
33.52955648
31.53107133
30.32240185
29.77742449
29.35656775
29.18052421
29.07159936
29.01550155
29.09383793
29.14185888
29.23045785
29.3878165
29.62957324
30.10249593
31.14370425
33.55706277
43.71702274
90.08926352
308.9604977
160.9005326
89.89704997
59.33864635
44.49524714
37.1497003
33.39157753
31.39812774
30.19440739
29.65033224
29.22704923
29.05072861
28.94269722
28.88763618
28.99507428
29.042345
29.13027502
29.28469268
29.51929654
29.99652024
31.06495615
33.62862072
44.11155869
89.33124529
292.0620565
156.0747842
88.44332483
58.86928237
44.30765107
37.01819342
33.26440509
31.27097148
30.06865389
29.52402856
29.10803121
28.93483144
28.82804894
28.77388721
28.87450452
28.92087095
29.00861459
29.1652138
29.40908889
29.89086898
30.99126326
33.70114022
44.40357648
88.30661917
276.5199164
151.7372096
87.14202537
58.45053382
44.14280747
36.90106571
33.14657813
31.14912403
29.94523063
29.39899011
28.97578417
28.80114322
28.69499229
28.64172927
28.78032446
28.82594056
28.9129674
29.0661613
29.29842798
29.78605735
30.92248359
33.76842274
44.60518345
87.07402754
262.1726045
147.7906573
85.96220452
58.07257979
43.99659877
36.79594835
33.03689403
31.03216023
29.82419385
29.27517586
28.86242462
28.69104174
28.58587385
28.53333693
28.65395804
28.698655
28.78533614
28.94101238
29.18887696
29.68254303
30.85809869
33.82642594
44.72799677
85.69466455
248.8968705
144.1677576
84.88102452
57.72781399
43.86568446
36.70093973
32.93434947
30.91969197
29.70558735
29.15312052
28.7255383
28.5517075
28.44699048
28.39521743
28.56774331
28.61177521
28.69786342
28.85035035
29.07923092
29.58071797
30.79731389
33.8727573
44.78309272
84.21518939
236.5618235
140.8133755
83.88084324
57.40998791
43.74714953
36.61439796
32.83806564
30.81135735
29.58950926
29.03254665
28.62256711
28.45172584
28.34763194
28.2963921
28.43314194
28.47625612
28.56180844
28.71605024
28.97200542
29.48107908
30.73924681
33.90582969
44.77700631
82.65652622
225.0572481
137.6843969
82.94655358
57.11335378
43.6382691
36.53484805
32.74727664
30.70687275
29.47625586
28.91451016
28.47598179
28.30278597
28.19908398
28.14849409
28.35896598
28.40158052
28.48677671
28.64001808
28.86546036
29.38440791
30.68356575
33.92565704
44.72079413
81.07619125
214.3433003
134.7448611
82.06421279
56.83253956
43.53651955
36.46094411
32.6612742
30.60591328
29.36666482
28.79906641
28.3914655
28.2189856
28.11546192
28.06518097
28.18737058
28.22892513
28.31346218
28.4680309
28.76475975
29.29234614
30.63092441
33.93402807
44.6307192
79.54212431
204.3752619
131.975851
81.22892155
56.56529823
43.44032848
36.39174853
32.57965258
30.5083892
29.26304112
28.68987517
28.20373378
28.02879567
27.92545115
27.87577069
80.56428611
200.9427466
96.32176282
86.58871944
255.624257
208.7455122
95.22557566
248.584556
257.5121207
106.5077816
221.2653929
245.1035007
115.4943829
1148.354543
959.1422397
197.3317089
217.5797752
141.0730236
684.7435467
1120.055668
581.7218038
191.2774119
195.0296799
61.2755549
50.83371108
87.78875414
46.91290073
678.2780033
218.7196717
158.4843001
65.48626216
51.81803534
43.90255715
73.82903168
69.80372727
2356.594827
1671.521734
207.433686
81.35811992
70.02695571
45.2126543
79.18428938
74.38118655
90.20130674
255.1642772
233.5811706
1253.597604
1785.246671
209.4798774
89.83964009
84.23443041
46.34375627
87.29721978
80.06390035
100.6588929
351.2620715
287.4133956
666.3247933
908.6065129
47.58495675
97.56348787
88.28384394
109.3294075
514.8958327
420.3119902
2848.60753
420.9931066
491.6859506
49.41514548
117.2183517
99.08035742
124.2974229
1065.040996
718.2911431
152.5767452
511.8463576
674.1757701
208.3419348
239.4848003
126.0590981
201.7944329
1627.791394
717.9698127
156.5297306
567.449148
1120.257137
230.960918
213.3624159
84.15226697
277.221407
286.8400303
244.924319
274.6308629
1809.432888
2356.449151
235.1621153
1608.069648
1362.549154
1157.814575
1604.608277
232.1992192
284.4639136
258.752312
91.31922704
327.1936218
367.3429315
288.7906905
324.1048992
953.9070947
1223.836823
255.4439121
905.7745947
698.1008052
1345.567027
943.2837626
257.1600091
416.3265211
354.3735857
102.0034791
428.4952325
523.0121024
369.9716727
424.8200763
507.1361914
639.4028681
708.2909522
523.8384048
109.5835703
3754.940784
701.1048914
1040.354369
527.7449821
686.0188179
4152.484131
384.5771702
413.7522194
2539.682139
8557.098427
1072.818807
125.5551486
792.3763018
1656.410303
7930.663865
1048.298432
1631.661242
816.223911
41.81340626
69.01935631
57.24298235
74.31192898
163.7302457
109.0561842
4293.203017
752.3744387
83.68541491
211.1095499
189.5875927
6718.772952
193.1039166
92.0921606
90.94563085
6294.785748
961.7260855
1074.855036
715.2022431
339.2785708
371.080785
186.9770465
167.6881772
76.3712502
1496.260269
314.2904066
697.0035911
180.1776589
499.6316885
143.993455
1098.015964
1428.882401
231.1849055
524.7701696
445.1357997
673.1325919
539.9905075
235.0062156
1718.872644
4931.157191
980.5001104
86.94602101
68.64382206
113.2759771
188.2253771
83.15769547
89.22166144
6226.891062
468.7877995
4291.995251
548.5366933
3093.87183
420.3493435
1914.430327
1889.002113
1470.557656
1507.694854
2845.363092
5746.41852
757.0137539
3463.36934
1826.072955
6507.776109
3972.38493
792.4952054
454.0127248
185.2731161
192.4803493
804.4114601
915.3474284
5749.502995
770.0358058
233.8465809
246.2262486
218.9099858
229.1589029
767.3293746
1375.646883
1498.62647
222.6741929
978.0552735
817.8712794
1427.104127
977.6129371
226.5653756
165.7218615
518.3025724
246.5986608
732.3751454
551.8219105
177.9910261
726.8020875
1027.294166
1140.198272
1078.178337
275.9189266
1517.650695
276.1705984
259.7515416
1487.24982
1444.380328
1514.359062
1491.908779
263.6771099
1939.624632
1962.636608
1464.407421
473.9963909
463.0142596
474.8442422
475.8173109
1451.508313
1360.823741
422.0071474
386.1117063
456.9267009
432.7011648
1385.122368
345.5802155
348.1839859
303.6275611
305.7896829
1019.934278
6742.512135
1040.606314
456.468062
462.8573472
396.9548819
400.7057433
1719.448447
1231.781964
573.0703916
1521.320546
2622.389169
572.4419099
206.1176383
215.3995812
195.0993872
203.2433422
564.3591253
1927.469844
742.7636308
754.4327581
561.9070943
566.1760262
6425.875493
1378.618561
686.2389124
771.0846449
251.5071502
261.0996123
1301.795434
2622.938666
2471.488309
3469.15922
1079.587355
6967.220164
3690.305495
6073.517114
1075.680826
927.8535505
4562.533907
2920.653706
4981.889743
2690.82049
3549.624671
50.7889053
118.2599871
119.4612749
170.7683218
4261.195206
7998.347383
412.8188006
174.4470287
187.1550231
1443.358998
3966.279778
5157.20141
595.1232688
658.9682648
1286.547424
309.4638323
328.9726624
695.2128027
182.2514746
133.0829624
277.7505548
590.4045806
166.5446242
196.4106334
2220.097444
5606.817733
5774.066134
1781.394068
1348.888724
3959.975822
2821.812757
6693.525593
6530.016381
1695.276217
326.2232515
156.7563935
161.228128
151.2782305
155.338556
320.6031147
176.885556
183.1527491
449.7026916
986.3379944
411.0880767
428.3470322
6718.582302
3506.323359
627.6620935
1412.391394
5190.749083
5612.033475
769.0571232
308.1221222
256.8665292
371.272433
325.7089711
806.382099
1868.82618
6649.888874
6707.660705
2228.900741
272.740915
146.2540427
150.0001245
716.7999639
705.1835034
358.8345248
2652.943339
2415.187975
1144.503906
809.9863258
417.3971619
435.8319327
1183.431813
462.8568167
472.7828091
442.312682
457.9358528
1157.950769
381.3395358
169.4390732
174.9657291
162.784989
167.6981528
377.2168805
439.5678619
1005.843936
997.4605511
1559.340827
1516.14656
503.3971753
380.3104267
750.9947287
718.7136191
993.867588
988.3704502
414.3292945
553.4078798
1182.80085
950.8054296
6502.01265
2859.989879
722.6349685
885.6182205
541.8930215
1589.554064
1566.192018
1592.63697
606.7945093
5577.166734
8620.349786
325.1200057
362.8160714
434.6811595
449.8725877
1077.846971
2718.428128
1703.233376
727.9023444
1669.939504
8418.177606
2517.054322
2337.194172
15822.67175
1056.946162
1555.497559
2591.674968
3188.06655
2355.10688
6693.421746
6804.466605
1765.471179
2390.605937
6467.558398
1535.396351
1472.451529
480.6801141
1830.860676
761.0638887
1788.133746
526.3251472
5160.274219
3859.245958
1250.170357
5822.093083
6602.123238
5147.311387
3946.401663
1403.348324
5282.809101
6362.801437
3910.577013
5054.959829
6720.649837
2811.919255
3583.81029
2083.662798
2564.12475
6042.077852
6577.58783
1742.877707
1047.715081
2914.431445
1928.876189
938.6266738
576.5762642
1736.37083
6058.121365
7840.464089
2109.400396
1806.964617
5851.643974
6063.388095
4387.179655
4083.667831
1384.018555
6731.202096
6635.247512
5018.764031
6533.558523
6599.940386
1646.006726
6646.580698
4508.132202
4086.421561
4539.061069
2551.773107
1153.237584
1252.516007
5109.64004
1479.109197
1687.610322
1292.627502
1416.294043
4842.287016
4474.924918
1335.179125
1609.63775
385.9506769
405.2079748
900.9517682
742.2416144
367.5171286
381.1841584
1473.50768
1482.30188
973.836172
379.3182644
398.7925799
354.7722594
373.5542697
968.1448328
1018.79249
441.534616
475.8942166
405.5220446
431.4148131
1026.495213
670.040914
327.807925
349.0766227
952.5543253
983.0728454
3746.191654
3877.229743
1338.484137
5407.183374
5613.731459
7061.184142
3916.693271
3261.477937
5510.956017
3861.99963
899.7065538
2682.328627
3594.180363
1548.238825
568.7286445
631.279999
546.142804
558.4643098
1517.384049
676.8542162
685.3972897
651.5093857
673.7779057
1474.563859
502.8007587
514.038055
483.8416617
498.821423
1468.266384
1504.525498
531.8829289
542.1517182
517.6927232
528.385265
1503.874072
6512.953677
6602.744182
1887.973231
2133.946564
6832.071579
6485.816005
970.6913475
973.6385934
948.427408
969.7995161
983.1608268
993.6532099
974.8679185
981.0671282
698.8858684
707.4451953
688.0492615
696.0097187
744.3000718
907.8990798
711.7240712
722.7430013
2244.363564
2659.598677
1763.841493
2079.340632
7031.924925
4277.768529
4700.467332
2857.617945
4108.010763
1017.482759
1011.021032
443.5780308
1591.073357
1595.017237
1562.004534
1582.689925
1637.224193
492.9742973
1481.982698
1067.849544
961.8789419
770.664797
384.1745556
1038.148456
1474.779191
994.0921221
1047.725904
1530.236515
1551.396761
1493.244535
1521.267979
410.9256324
986.7926606
978.8335843
6664.242823
1830.580903
6648.076766
5834.16576
6626.105901
1971.941588
6703.651483
2573.941045
6439.491933
5653.702011
728.7956623
804.7413884
1620.28756
1594.458944
546.3361242
591.6728889
1680.108689
1622.589038
6386.453067
1115.031385
460.7028054
500.0419929
6405.263484
7221.677209
1737.080046
7842.294441
5875.644625
2981.172879
1058.272924
6984.819145
4403.313087
7650.746565
4785.442567
1501.474942
77.73560801
47.79025103
39.29720417
6482.461319
6456.336519
178.6488269
90.72691248
92.01577198
6681.322254
1318.89049
3649.383558
2847.595211
433.7346252
360.1006464
208.5731341
480.8790703
308.7278297
767.6957639
2807.202069
449.992662
525.7810671
62.23387767
75.37622807
161.9651408
589.1632589
1225.371565
1836.38747
245.1223257
136.711239
140.42541
131.5087618
135.4635878
242.0915689
1126.605436
1268.882732
4023.241714
906.4142705
793.8767536
458.9207427
351.0454541
363.4224885
737.5783982
2004.708809
2578.695006
844.0177263
141.5880322
145.0661963
269.2662727
335.2590252
676.664491
653.2994183
632.6696432
569.9316751
315.3164608
634.2745196
334.0494011
346.920295
5210.808664
4941.23975
3454.404157
1595.7409
1575.333794
1019.486071
4604.937736
6341.810975
5770.702266
1863.193638
984.7904678
1096.617881
1659.363303
1052.679504
1626.897641
1614.884471
1630.418545
4654.466834
6518.951473
4487.349881
4872.6266
6234.847373
2146.566151
1692.837631
976.5131313
1509.970141
238.8197846
186.5922951
352.5225396
1205.389272
3386.808462
2398.296067
6495.404418
6830.069469
6966.053032
5843.271227
6656.509701
118.8414672
156.478276
450.2553006
5030.064143
3218.54544
2448.299596
6846.803176
5236.673079
3137.783918
5175.364866
4796.732083
7007.520358
6669.724246
5157.032969
1042.562489
1126.616927
2332.191986
6665.959325
3946.831168
4357.717578
5152.761497
3577.537575
4002.987379
1423.032158
1851.212481
1495.366523
976.7049376
684.965938
692.0160709
1393.707379
897.5019913
937.9518016
697.2858657
705.9039857
986.6303465
292.4892177
321.2184746
644.64526
808.8127928
1400.231096
1043.095327
1520.826997
1572.267036
1035.305935
1827.972887
1361.83021
1409.085372
985.62652
986.5583072
1520.194333
1491.588294
1501.557527
1437.583366
1455.378839
1481.58197
961.1142573
962.9837829
953.0732122
956.5373012
1454.177678
1511.144498
979.2948267
981.4609437
965.1671267
967.4768239
1496.066191
689.395257
680.1432587
337.8857581
356.2221365
702.027974
692.3786427
542.6518161
532.5865318
297.0703012
1523.45137
1524.667991
1504.431959
1507.272555
1844.505929
1529.440123
1529.848935
312.8016262
559.513509
546.7762189
6782.442527
6719.388851
4541.644897
4797.008723
6700.811378
6804.115206
7033.461846
1120.134487
2318.81137
1917.786324
319.0407287
329.9789649
608.0634252
548.3032511
307.2361442
315.9723291
1048.085164
1048.211503
739.9368642
756.5799502
1054.684694
1058.857137
6389.033819
1375.353822
911.7878339
900.199251
11055.3365
2142.609536
2850.645016
5375.617506
4630.914021
1687.832609
1668.85714
1066.839114
6759.352342
7319.079045
7011.537591
5635.826636
1129.125852
1729.029002
1677.896021
3705.981386
1532.121435
1885.884966
6373.26346
6300.788667
5206.256432
4909.364273
3237.707349
1578.099827
2398.809417
2169.419582
4423.890027
6464.085926
5720.663374
6548.415496
6316.326027
4864.941555
280.34516
404.3607797
1521.73035
5860.499016
5717.917165
6019.97807
5971.882635
5696.418401
3722.231059
3706.480637
3729.632706
3721.940395
5688.957938
6718.999058
3769.476883
3806.171354
3596.1727
3713.109303
6820.735308
5384.421172
3413.545762
3081.488511
3685.627227
3600.90419
5498.426298
6628.371017
3900.316199
3935.833107
3846.369543
3869.487075
6674.784573
6177.752596
6057.055302
6259.829015
6016.825029
1004.472671
715.9796019
719.0662726
1546.852222
1006.530461
1009.641071
982.6736312
1001.079082
1536.26226
6232.34141
6431.799503
5740.944898
6308.66286
1598.893938
1611.129179
1573.268824
1586.630146
2014.356837
969.6742532
1533.986842
1476.838787
1580.790941
1013.797804
1016.577445
1010.816422
1012.629233
1574.752677
1515.444698
1553.617093
1081.465939
1459.463569
1993.46501
6642.768514
6287.316889
5072.766063
6475.336305
820.0262347
1130.683372
13046.4402
1080.258176
755.5926573
757.9894098
1674.886314
8134.942077
8456.172297
9917.038261
6260.790384
6079.873493
1641.047314
1630.639593
1053.11143
1599.248824
3706.301239
5672.220599
3878.582533
4833.921698
3778.012219
1603.199501
5111.208314
3753.063543
6750.424533
7014.341114
6432.106257
5192.944896
5776.766641
1506.794091
1811.080363
1754.710008
847.8698391
1062.086917
1551.18125
1627.031233
1082.502685
1526.645661
2020.227466
6431.073988
6611.286733
6356.855329
5841.454107
6616.594667
6559.170628
6434.918931
4286.392507
5724.988041
5297.471628
6370.201732
6572.231366
4669.695174
4927.556061
5337.958252
6616.346995
5510.909417
4233.543128
4512.480809
4797.177691
3333.667251
4707.140113
2451.768128
3648.989896
5017.420807
5551.190274
5048.855039
6313.444904
3928.726153
3731.148678
5423.663439
3869.672936
5866.52993
5903.436939
3738.328918
3732.80417
3759.306449
3732.275145
5949.582437
4269.037903
2464.303743
2513.124044
6662.180128
6658.893006
5791.296095
6972.705873
6755.664485
6678.157164
6689.027862
6941.08525
5655.277582
2979.849917
3340.280432
2585.093859
2722.973493
4869.396618
6674.395714
5746.551917
3578.518572
6963.239705
6686.215825
6666.32827
4749.2834
6690.869502
6477.432248
3025.668965
3441.590611
5821.283509
1456.941871
1493.20503
751.1946978
825.9061384
1350.407264
983.6544975
709.114265
731.5819342
1502.201462
1474.810375
905.7633258
1573.95135
1914.85457
983.1634123
1533.02742
1526.687877
3740.206804
2516.200562
2479.372912
2764.986004
2675.452168
3933.521848
5822.711656
5498.054369
3668.66579
5558.118079
5751.410968
5256.411508
5488.930971
3609.476165
5391.890356
5339.291735
6898.865549
5105.696206
1035.461068
1027.393212
1479.512953
1524.370664
994.634138
990.6462777
1479.043081
1487.015071
1464.685742
1473.071732
959.262802
960.4588197
1480.663131
1461.565546
957.5320431
958.2713724
973.9414824
976.0716313
1507.137623
1500.923
970.0199592
972.1006912
6570.730701
4030.788597
4063.792277
3961.269589
3991.747728
6556.872603
6522.467822
4510.115274
5240.68598
4124.524191
4238.101386
6508.905232
971.7623545
1496.240857
1488.34935
1507.400131
1502.19714
972.5872235
963.8701577
1460.789988
1445.333411
1480.843531
1471.852031
968.1558038
986.9488368
1541.283268
1533.729071
1552.361287
1544.971336
988.7185051
976.4444706
1517.456086
1512.962637
1529.294751
1522.493772
978.2267142
1517.148124
1519.387594
701.6094988
978.2949925
976.9462059
981.9456697
980.8853606
704.8934523
1511.299805
1513.85006
1563.990169
1489.640236
763.4989691
1027.003304
1036.150667
1414.432261
1366.829487
835.4451727
713.48083
986.1902455
985.9232643
990.8552817
994.7030939
721.7370643
1536.993061
1530.507494
6675.775966
6539.766087
6818.036891
5088.019433
5819.705562
4417.587302
6710.611013
6784.269675
6718.135148
6727.757218
4525.179079
3210.368805
5846.441263
5051.859791
6563.586391
6696.805762
3745.754264
1021.506765
736.0800245
737.4651412
724.4223213
726.5159975
1011.277191
1591.401119
1602.896449
1566.644088
1580.403952
1551.464023
1946.968563
1425.096232
857.841704
937.600324
761.0739632
781.5855738
1057.826703
1390.560088
1888.45768
1514.369322
1442.305553
1003.785111
1563.202096
1552.715245
1594.422303
1556.509421
999.9927297
1536.391023
1545.84135
1504.011628
1513.843679
6416.801857
4591.351081
4830.735176
3658.476773
4201.869358
6501.921707
6645.466941
6469.874592
5180.855834
5766.321722
6918.389303
6260.690067
4947.759766
5176.157092
4155.052375
4556.152148
6434.587277
1638.827669
1639.856318
1624.030792
1627.155837
1095.925536
1106.795325
782.9087505
1694.199836
1605.236836
1655.346198
1646.937761
1608.015132
1023.789839
1030.289071
1018.064173
1022.400389
1604.732262
1638.15494
1041.315948
1092.403484
1031.472923
1044.11085
1641.280319
6203.458594
781.6668289
785.5348446
1116.529182
6291.763524
8750.772509
9002.649637
8898.910175
8739.874595
6874.658814
1688.106361
6906.195187
5190.613444
5556.78483
1065.161872
1661.623792
1648.024464
6930.214963
7507.497737
7293.457756
6055.711381
6569.35489
7972.575522
7598.485931
5138.924801
7198.334551
6311.690934
2040.167205
1649.160236
1118.684936
31.78676637
31.80966726
31.87878916
31.81894867
31.856753
31.90258997
31.87048909
31.9211647
31.93650495
31.93710538
31.98992063
31.97438011
32.00356015
32.03485247
32.00112956
32.03929215
32.03688582
32.00304302
32.02919825
31.99214074
31.98000645
31.97809395
31.92801445
31.94404465
31.91152184
31.86556722
31.91043153
31.85300324
31.81834412
31.88517637
31.69730957
31.74508592
31.78995588
31.76502259
31.84085252
31.84673446
31.86966803
31.97123921
31.92374599
32.00600705
32.1163484
32.00426208
32.14092384
32.2087127
32.06055889
32.2253683
32.21078345
32.0568919
32.18698624
32.10784926
32.00788779
32.07849912
31.9715763
31.93057196
31.93970755
31.85097567
31.85622123
31.82444028
31.75748586
31.79958625
31.63796108
31.7288505
31.73557281
31.76748838
31.91928919
31.84841211
31.980719
32.19772826
32.0064268
32.27684707
32.54465498
32.16955007
32.60178615
32.77609127
32.29320691
32.83012385
32.80365186
32.28026073
32.72246139
32.52493731
32.17457624
32.44957168
32.18954209
32.01024909
32.1126348
31.921242
31.8579644
31.86883462
31.7426924
31.74779931
31.61520068
31.78099265
31.73315375
31.85602985
32.15601842
31.9622663
32.2868027
32.79819081
32.30193085
33.01247277
33.87435278
32.70343622
34.0898089
34.88932341
33.06525806
35.06679462
34.89064631
33.03549297
34.51287343
33.80304656
32.72619038
33.53838122
32.81643139
32.3144732
32.61878307
32.17427225
31.96917983
32.06143686
31.80250595
31.74867304
31.64379988
31.93199413
31.80958275
32.06445771
32.63410763
32.25190674
32.90345362
34.15273722
33.04509263
34.79163308
38.32564365
34.37659044
39.8455923
47.20330822
36.04581373
47.77481715
44.50854574
35.80282079
41.75439672
37.60458454
34.37219336
36.54296018
34.31209011
33.12842271
33.79489117
32.73529243
32.29251591
32.49121657
31.96967466
31.83217611
31.72810786
32.17965702
31.98601983
32.39283816
33.36774613
32.79779932
33.86990706
36.56235864
34.66640051
38.24937159
54.63776333
40.0880499
49.05161345
56.94853932
45.67707313
73.61353163
69.61265304
51.29978425
55.06316397
47.62750691
44.0817912
43.86612952
37.28947801
34.96523794
36.04009015
33.7184134
32.95700068
33.23348026
32.27190201
32.03310692
31.86232354
32.50262548
32.25622003
32.80693833
34.22550507
33.58372143
34.97459129
39.12583727
37.26268096
40.1973458
43.51720946
42.24033646
68.50028892
79.33620444
74.38710054
116.8048102
79.44086356
64.96817318
55.93943404
41.7469062
38.38805497
39.33196401
35.09010834
34.05220578
34.26118315
32.69323367
32.36941837
32.02876756
32.84559672
32.58853569
33.22871917
34.9827979
34.4237021
35.8954811
40.83006678
39.62708295
43.01016322
47.21548192
46.50562708
82.27574068
98.47078962
97.11219599
190.2542121
112.8800357
100.933554
67.56563097
46.43369205
43.07540317
42.83264165
36.56642381
35.49293569
35.37382072
33.15969564
32.81018217
32.2077054
33.17150396
32.92872264
33.61397563
35.59022723
35.14633194
36.59746317
41.93240468
41.13769184
44.60752003
49.23201596
48.77478433
88.2413971
117.2099479
113.899793
212.3710447
130.4373371
125.9078748
74.69996331
49.94535416
47.59403876
45.56978621
37.78580291
36.94537605
36.30688728
33.57110781
33.26383966
32.38522273
33.46193076
33.24553032
33.94652607
36.07237797
35.71673624
37.14354635
42.80178725
42.14958167
45.77786883
50.8523908
50.37679709
97.96137665
133.4788175
130.4366698
202.2552477
132.8877527