/*--------------------------------*- C++ -*----------------------------------*\
| =========                 |                                                 |
| \\      /  F ield         | OpenFOAM: The Open Source CFD Toolbox           |
|  \\    /   O peration     | Version:  v1912                                 |
|   \\  /    A nd           | Website:  www.openfoam.com                      |
|    \\/     M anipulation  |                                                 |
\*---------------------------------------------------------------------------*/
FoamFile
{
    version     2.0;
    format      ascii;
    class       volScalarField;
    location    "1.05";
    object      p;
}
// * * * * * * * * * * * * * * * * * * * * * * * * * * * * * * * * * * * * * //

dimensions      [0 2 -2 0 0 0 0];


internalField   nonuniform List<scalar> 
12556
(
1019.960618
1018.443972
1014.821997
1007.481235
997.2609979
975.7476728
941.0550935
886.498334
805.9461235
692.4642016
542.1745097
356.7420912
148.0222218
-64.79153553
-262.434969
-430.2755659
-563.6190771
-664.0363226
-736.3626849
-785.9938803
-826.729293
-844.7190308
-855.0172652
-859.6887363
1020.914341
1019.882972
1017.228972
1011.618515
1001.435896
982.9420397
951.9814196
907.5057667
834.383021
727.9563815
581.5600428
394.4460107
178.9429368
-44.00406911
-252.5837962
-429.4430843
-566.905528
-668.7701954
-748.5255566
-794.5883282
-834.2466369
-849.7143414
-858.665919
-862.717194
1023.157122
1023.196085
1022.806188
1020.982383
1013.644386
1002.031355
980.1606921
941.2281973
878.6339884
779.7064823
629.4603206
424.0278045
178.6987731
-72.8961082
-296.9752625
-478.2125373
-613.4998546
-706.9816144
-781.7224409
-818.7245741
-851.4544198
-861.601604
-867.5428804
-870.095532
1025.837214
1027.391145
1030.247468
1033.554143
1031.734411
1029.907318
1022.234448
996.5518986
953.7784816
867.5709842
714.8412949
479.3895935
172.2998206
-144.4150943
-401.0180205
-578.7193549
-698.1207649
-775.6380734
-832.7064226
-854.9588725
-875.6087642
-878.9579222
-880.3195011
-880.6826135
1027.379456
1030.669969
1037.296958
1046.660545
1051.723818
1062.798336
1073.454465
1070.247914
1056.225197
1000.191948
867.8562213
602.1688985
175.4894752
-281.7935366
-593.2723952
-756.0976304
-831.9613751
-870.6432698
-898.2390559
-900.2655433
-903.5574559
-898.3485937
-894.2115316
-892.0173708
1026.067108
1031.091115
1041.465752
1057.361289
1069.746007
1095.377432
1127.24608
1151.75834
1180.718358
1189.690112
1137.241513
890.2764348
201.931119
-582.0735246
-942.912921
-1024.789581
-1012.886477
-988.3594204
-972.9108348
-949.0748082
-931.2524979
-916.5190273
-906.418269
-901.5367952
1020.24871
1026.788184
1040.322604
1061.884754
1082.75921
1121.206984
1173.543408
1226.661739
1305.471744
1406.057415
1541.543991
1605.712859
358.2260889
-1424.121682
-1536.310351
-1381.747987
-1226.005593
-1115.194397
-1046.646558
-994.3318352
-954.5385985
-929.8533781
-914.1622412
-906.7861731
1008.500286
1016.117961
1031.870837
1057.319826
1085.575578
1133.59445
1200.724587
1277.932726
1396.682288
1574.102206
1889.354041
2526.469901
-3463.521261
-2327.657073
-1758.176058
-1424.930307
-1227.562344
-1104.649047
-1027.850641
-967.0030689
-934.6544709
-914.7559865
-905.3184394
989.7577553
997.8629743
1014.592218
1041.718041
1075.312872
1127.725833
1201.76022
1292.553954
1427.650254
1618.166834
1909.489653
2303.441501
-4814.7054
-2824.041546
-1994.189326
-1548.010674
-1294.819486
-1133.441765
-1040.878738
-964.8236981
-928.1039881
-905.8461363
-895.2238835
963.4724979
971.4188222
987.7596744
1014.15756
1050.574938
1101.970377
1174.005218
1264.958304
1390.846618
1554.250755
1758.459135
1959.785014
-4254.119472
-2726.007552
-1977.829552
-1544.101296
-1295.723746
-1124.33119
-1028.815103
-945.7675408
-908.6233953
-886.142311
-875.3699302
929.6875138
936.8835119
951.5780724
974.9572035
1011.904864
1057.58542
1120.48132
1203.067249
1308.775782
1435.005353
1575.289172
1705.830304
-3104.227508
-2245.423291
-1753.457741
-1435.876741
-1233.04102
-1077.334236
-991.3919722
-909.8516139
-876.1947756
-855.5776631
-845.6302783
888.9889015
894.9566549
907.1146461
925.4260824
961.5985499
997.5988022
1046.595493
1115.481293
1196.589129
1287.166118
1382.292347
1492.863691
-1976.177738
-1645.367854
-1427.416201
-1253.848019
-1121.767369
-999.8200887
-932.4680062
-859.2329364
-832.3890381
-815.2109005
-806.8618806
842.4413368
846.8764408
856.0563585
869.0246996
900.2034289
925.8460947
958.2582025
1011.510621
1066.52543
1121.719915
1169.261752
1247.140012
-703.4801757
-988.7447737
-1093.510681
-1095.145253
-1048.41885
-985.9961546
-903.6565891
-857.9703398
-799.0286163
-779.9191951
-766.9621487
-760.6906541
791.3388016
794.145732
800.1533307
808.1603004
833.0817913
848.1154447
864.4324947
899.9351912
929.8709127
950.2308244
943.9534869
925.8966295
306.7212282
-387.1839411
-682.8231468
-816.0805147
-855.5621984
-844.4976385
-800.9239799
-775.7818292
-733.4482336
-721.6750066
-713.1975402
-709.177591
737.1296203
738.253127
740.7664698
743.644197
762.7483491
766.6936924
768.1252164
784.0759433
790.1300706
781.6466339
733.7199699
594.6032543
292.6241379
-136.1276337
-435.2704004
-610.1452971
-691.1373942
-712.9685984
-699.4281207
-692.5798296
-665.5398947
-660.4622116
-656.3493373
-654.4740824
681.246029
680.8467092
680.0999361
678.2813724
691.9515641
686.7462714
676.4572926
673.2888703
657.2052289
626.5639698
559.9063526
440.2434499
221.7207972
-67.07746231
-307.9831063
-470.5085639
-559.5989096
-598.0378791
-605.7963878
-612.6699617
-598.3144778
-598.8902045
-598.6115137
-598.5761095
625.0582848
623.4131389
619.9973813
614.3698879
622.9703633
610.6873727
591.5421046
574.8323695
538.1152623
489.2404706
415.5756508
307.8802202
135.8228039
-62.72133184
-243.5297559
-375.8347753
-455.4392491
-501.6831596
-522.4376535
-538.538578
-534.0356859
-539.0482797
-541.8057605
-543.173168
569.7657582
567.1614971
561.6913206
553.1946842
557.5888922
540.2429421
515.2114618
491.4643201
441.7589894
380.0339396
300.8628142
208.4301016
73.06068395
-71.4147586
-202.1337072
-301.9902286
-371.7046637
-421.0636402
-449.480359
-471.2497107
-474.0762265
-482.2351968
-487.2332024
-489.6062756
516.2984828
513.0046367
506.0570668
495.5677585
496.7982163
476.3012084
448.0024611
421.1437451
370.7066479
306.8118634
227.4844508
145.420817
38.24884871
-68.72046642
-163.799892
-243.507286
-306.8813171
-355.195924
-386.8137265
-411.3989982
-419.0951837
-429.2390929
-435.7158868
-438.811087
465.3324123
461.6020418
453.7193215
442.0188358
441.0559277
418.9736648
389.2980451
361.8658383
313.5515054
255.2324831
186.2976238
116.2065144
29.70041104
-54.55055908
-132.2187551
-199.9511917
-256.2552724
-301.4162439
-333.4288965
-358.7327707
-369.3280544
-380.5094309
-387.8265203
-391.3218097
417.32005
413.373953
405.0342466
392.7898955
390.3890119
367.9319603
338.4045199
311.7470404
266.8698378
214.8378476
155.8922244
95.00484722
24.79517458
-44.3446303
-108.9217156
-166.5764104
-216.0125778
-257.0907644
-287.9560645
-312.6169869
-324.6538042
-336.15166
-343.7987738
-347.4566175
372.5198383
368.5333605
360.1175592
347.8622932
344.5938013
322.6350283
294.386883
269.1230615
228.282163
182.2318339
131.2113385
79.10053397
20.65493085
-36.88362844
-91.0957709
-140.3066744
-183.4443468
-220.1810374
-249.0549358
-272.2975487
-284.7529767
-296.045661
-303.6481572
-307.2903421
331.0228479
327.1268479
318.914252
307.0373842
303.350767
282.4639434
256.113906
232.6731134
195.9836093
155.3924541
111.1644109
66.41855876
17.22190563
-31.16811557
-77.01918647
-119.1331655
-156.6489153
-189.2027247
-215.5592252
-237.0111759
-249.1958517
-259.9363777
-267.2393507
-270.7425716
292.7903388
289.0788771
281.2651517
270.0324818
266.264789
246.8115575
222.6356572
201.2756412
168.6216458
132.9498588
94.60926787
56.07560736
14.36924338
-26.61533713
-65.59845095
-101.7074907
-134.2589974
-162.9068317
-186.5882569
-206.0556949
-217.5247971
-227.501718
-234.3416628
-237.6254838
257.6934668
254.2310328
246.947758
236.5300657
232.9251295
215.1050318
193.2229644
174.0286356
145.178376
113.9280453
80.71599044
47.49538858
11.98676465
-22.87293425
-56.11955399
-87.10486617
-115.2864197
-140.3542813
-161.3725852
-178.8090899
-189.2945538
-198.3925161
-204.671981
-207.6877401
225.5435633
222.3708173
215.6998583
206.1969867
202.9216479
186.8222386
167.244158
150.205325
124.8812077
97.61075823
68.89066887
40.27061198
9.985746105
-19.71612786
-48.09867312
-74.67178991
-99.00249363
-120.8213983
-139.2811395
-154.727012
-164.0849007
-172.254566
-177.9237808
-180.6462355
196.1099885
193.2493106
187.2349561
178.6953785
175.8672241
161.5025783
144.1733682
129.2226161
107.1408478
83.46271913
58.70048198
34.10688204
8.295482515
-16.99574078
-41.1984792
-63.93687815
-84.86304506
-103.7467109
-119.797352
-133.3418154
-141.5046411
-148.7403992
-153.7828604
-156.2032914
169.1355338
166.596294
161.2561579
153.6932202
151.3925492
138.7313062
123.5593737
110.6010931
91.4930118
71.06844879
49.82119207
28.78557512
6.859042974
-14.60836396
-35.17468335
-54.54874492
-72.44975716
-88.6834547
-102.4894655
-114.2449468
-121.1945788
-127.5178448
-131.9387142
-134.0591733
144.3509629
142.1339921
137.4680827
130.872266
129.1562603
118.1414557
105.0190294
93.94359036
77.56640957
60.10334852
42.00271257
24.14058001
5.63039942
-12.48017502
-29.84601155
-46.24027104
-61.43592955
-75.27221807
-86.99789328
-97.08329581
-102.8288402
-108.276335
-112.0936322
-113.9225329
121.4839443
119.5846301
115.5819882
109.9303371
108.8401668
99.40374976
88.24197406
78.90865003
65.05626063
50.30588696
35.04510395
20.04103461
4.571616147
-10.55620023
-25.07292862
-38.80169036
-51.55820618
-63.20908605
-73.01998824
-81.54769871
-86.1121648
-90.72747453
-93.96600494
-95.51521301
100.2581995
98.6698766
95.31424584
90.57380935
90.15640388
82.21708558
72.96049497
65.21927358
53.71106388
41.46064588
28.78690581
16.38187037
3.651121453
-8.794169439
-20.74536242
-32.06556788
-42.60475624
-52.23985939
-60.28787794
-67.36520439
-70.77148268
-74.60160801
-77.28841361
-78.57045853
80.42581955
79.13878496
76.41185343
72.55075005
72.81672455
66.30546646
58.84364492
52.65428065
43.31864637
33.38562864
23.09362263
13.0768604
2.842534553
-7.160400393
-16.77392739
-25.89487503
-34.40482958
-42.20003662
-48.54445264
-54.28808786
-56.57446055
-59.66244139
-61.82443281
-62.85322209
61.64998948
60.66401336
58.5557311
55.5308116
56.62193585
51.42050346
45.55275163
40.99330573
33.68488061
25.92136659
17.84734078
10.05250079
2.123369484
-5.626653646
-13.08253052
-20.17048976
-26.80240245
-32.91054509
-37.60378252
-42.09435394
-43.24102696
-45.63796059
-47.29476206
-48.07580366
43.95699537
43.24496455
41.73644368
39.58253205
41.0823198
37.33235151
33.01771547
30.00867412
24.62936136
18.92305848
12.94627707
7.245829027
1.474417902
-4.168885071
-9.605453265
-14.78726176
-19.65330468
-24.1570413
-27.30611431
-30.56326942
-30.79444767
-32.48687
-33.66114999
-34.22056353
26.09088272
25.73219024
24.83993499
23.54741659
26.27612748
23.83759287
21.0072967
19.51889425
15.9855798
12.25407084
8.298135158
4.602462366
0.8790058364
-2.76619246
-6.284699146
-9.651335473
-12.83058932
-15.80068365
-17.45930491
-19.59093933
-18.35496639
-19.36836661
-20.05922853
-20.3349162
12.20962023
11.92003473
11.48475361
10.85026635
11.83114212
10.609775
9.241070566
9.358513926
7.590605078
5.773779893
3.80932391
2.082535292
0.3233412674
-1.40003778
-3.069053721
-4.678712299
-6.216793378
-7.691577839
-7.831835644
-8.809361037
-8.513737327
-8.979351652
-9.302811677
-9.533582509
2356.729035
-5201.962714
-3711.23499
1996.20038
-4648.225349
-5220.349211
1734.095443
-3381.535649
-4507.192662
1520.108358
-2154.339313
-3219.634899
1266.512307
-750.8632655
-799.3235929
-1100.890633
-2011.661425
955.0627179
390.054212
-702.1918476
251.4103039
-394.3948305
-985.2850495
2456.49245
641.1909824
-3311.959318
-1217.433538
-7306.967759
-5088.576716
-4783.989311
-3061.258244
-2531.983514
1801.665404
1973.496339
2251.756683
-6666.547326
-7258.93697
-4374.753912
-3082.648003
-3138.369536
1621.900319
1721.296874
1938.915067
1856.894094
1897.382337
2031.516107
-4730.151946
-5697.742071
-3252.040691
-2569.720567
-2988.780492
1431.955162
1506.242048
1693.33054
1625.357918
1667.286144
1756.853823
-3033.024079
-3743.682379
1224.217862
1264.53451
1478.924918
1396.569808
1458.847092
1562.164092
-1589.195301
-1585.228096
-2193.938702
999.8351913
966.4996757
1229.660434
1112.354857
1138.839282
1312.479391
667.4754023
413.3807963
405.7438598
2955.140175
2497.694458
3319.997585
3037.077615
-7291.375421
-7341.168974
-4889.865241
-6989.867213
-7108.858635
2050.446661
2192.799257
2114.447285
2199.841519
2054.478001
2451.814528
2223.552423
-5758.258008
-6620.384731
-4942.666044
-6482.908769
-5664.172524
-7080.203433
-6528.264552
-4994.806608
1770.807728
1879.56868
1824.64184
1889.227208
1772.535643
2044.49002
1898.990446
-3850.383565
-4663.943541
-3871.51471
-4553.256967
-3777.929971
-5604.962957
-4675.311441
-4035.029358
1569.053955
1661.723058
1599.288223
1665.668205
1573.901265
1765.092145
1671.031507
-2283.961322
-2936.035251
1322.100784
1451.467412
1380.349749
-1537.340569
1457.290867
1327.913115
1566.866587
1464.742776
-1580.086602
-985.7972502
-1503.668083
-1536.102022
1006.428521
1124.317136
1091.68093
13.58979396
1129.753796
946.1224186
1318.299005
1143.34194
-58.64791579
1930.044447
2295.704982
2395.856426
2545.592781
2968.810525
3163.858343
-9878.931098
-6763.515591
2157.755688
2217.165823
2445.416874
-3633.166867
-2110.889978
-1879.477738
-2403.070155
-2021.154456
-1987.646395
-2308.558576
-117.1764788
-451.7655898
-838.8668362
2489.293844
2899.72417
2509.263561
2681.794434
4174.342906
3923.242531
-4792.510755
-6881.922358
-4677.923197
-2361.905012
-2710.227709
-2597.794045
-2892.804394
-2259.4567
-3675.318783
-2986.969007
-2749.957079
-1110.537575
-208.9837012
-388.6955346
908.5196783
2188.16962
3236.180066
-4537.172644
-1646.892848
517.5045117
-9938.948239
-6810.995849
-9459.06512
-6386.605925
-9315.789223
-6467.892464
-6937.778715
-6979.123715
-5183.592396
-5249.4128
-3191.293459
-3544.120762
-3329.878395
-3529.937091
-3162.648146
-4001.001377
-3586.331718
-3431.641306
1507.782438
1473.98975
1429.906655
-1600.594398
-1890.584349
-1931.001749
1229.576662
1194.586788
1124.220839
1276.029724
1216.003659
1240.232209
3077.327951
2724.00613
2727.57412
2727.875561
3090.481574
2476.956071
2687.275773
2662.224043
3330.129244
3840.402678
4033.586509
3157.862276
3753.554461
3272.317443
3818.128509
3160.932597
-7418.124862
-7430.477347
2130.044216
2222.677064
2119.776886
2337.093307
2329.635975
2457.989927
2231.616557
2315.222489
2305.200624
-6157.479033
-6213.128086
-6108.120677
-5481.160661
-5703.642061
-5136.668943
-5399.626001
-6054.268622
-6838.369094
-5985.615054
-6078.32401
-5769.315253
-5939.940799
-6798.974277
1831.196853
1822.83374
1976.360357
1965.767623
-4186.265347
-4049.453548
-4244.593072
1623.820078
1617.446695
1717.772052
1711.60906
-3105.20595
-2741.200096
-2651.131114
-2758.866902
-3125.666634
1381.870232
1348.303532
1294.71281
1414.420872
1365.512349
1391.695093
-1162.006578
1396.322945
1385.996538
1518.629407
1512.395977
-1935.735754
-1168.059321
-1225.226129
-1505.62766
1098.972864
1021.444681
925.7645277
951.7869775
507.3451376
235.9833942
1246.467023
-196.22646
197.8077884
-112.0058679
1236.430632
-300.155342
-147.5268367
166.9686204
-8833.83924
-2193.386585
-2363.103585
782.4521626
714.3767854
929.222482
813.5198706
835.0796798
976.0347104
302.5912022
-72.99030934
-275.1414718
4885.029834
-2395.445541
-2585.354622
-871.9106491
-1133.81611
-1117.935158
-91.94758511
-344.7780295
-47.3705857
1327.564968
2804.647627
4070.451957
-6032.342981
-2265.215062
231.0391864
-6793.601846
-7831.709474
-7653.852655
-7145.922498
-4920.841992
-5118.252823
-4900.460707
-5977.492947
-5781.243982
-5510.225325
1708.595157
1683.647959
1645.518105
1737.282822
1696.71476
1715.075378
1529.450818
1488.091737
1514.248558
1180.150348
1166.436002
1126.307849
901.3040267
721.8261406
459.341919
-7353.960449
-7929.338022
-7900.367105
-7219.789704
-6026.54247
-5804.837885
-6091.507444
-6063.036411
-7203.915441
-5934.815165
-6231.223728
-6046.485151
-6458.164095
1814.407403
1794.776654
1751.246002
1780.75945
1800.568901
1793.120522
-4833.405689
-4619.496113
-4479.423116
-4206.533833
-3951.89638
-4248.179907
-5174.89041
-4751.740451
-5043.262449
-4348.675592
-4651.763179
-5112.003113
1613.362029
1582.269069
1542.918337
1632.992001
1595.136208
1619.675875
1649.018683
1664.269664
1677.499314
1588.128335
1612.937575
1593.995063
1744.687366
1751.711734
1773.686543
1681.545215
1695.709464
1687.580413
-2558.371549
-2691.86217
-2359.151418
-1351.894566
-1373.677003
1433.928307
1346.345132
1545.25343
1554.865267
1581.599727
1505.873022
1485.60275
-1720.589533
755.3817092
995.6679261
948.8655301
1111.798664
1063.134139
1068.406119
205.7756409
422.9974042
200.3254026
1075.352649
447.4193856
740.7209249
546.1801859
552.5165757
1283.738659
1184.370592
-9104.375425
-8536.612927
-8691.141386
-3793.167897
-3863.819753
-1993.871104
-2142.49033
-2140.253433
2585.782385
2556.571245
4246.524552
4795.144561
4695.71973
4659.086721
4197.011882
-2783.361258
-2589.466451
-2556.796874
-2586.767642
-2798.32487
-1107.410462
-926.1263897
-953.539539
-927.2878255
-1104.262122
-699.182632
-877.1638984
-450.2549488
-489.3319358
-650.9060059
-286.2016582
-437.3881449
-350.6278123
-9724.568307
-8374.279449
-7939.125178
-8589.42754
-8464.436284
-7750.655161
-6989.262444
-8451.654031
-7343.823197
-7209.594084
-6828.617312
-7105.372932
-7588.691946
-7403.729311
-5408.137192
-5192.962726
-4986.617534
-5253.681754
-5472.855732
-4968.461407
-5187.510643
-5552.271645
-5445.642807
-5720.384071
-5489.219709
-3337.68571
-3409.970777
-3379.741274
-3299.739508
-3453.898275
-3839.705953
-3726.537546
-3892.598305
-3505.377982
-3672.050343
-3780.46215
-1799.04321
-1787.428985
-1939.379563
1214.300456
1179.883788
1189.906011
1269.002885
1256.50032
1225.865748
2906.61777
2856.140334
2860.690846
2859.368833
2733.623903
3059.27131
2905.642501
2912.104702
2557.462196
2565.912255
2488.045519
2695.732968
2595.448504
2588.161489
3394.532976
3292.070596
3117.61405
3517.987459
3418.188451
-8107.622546
-7950.939698
-7371.583508
-8151.048808
-8373.075254
-8094.270106
-8499.99983
-8638.029943
-8462.992663
-8450.676073
-7431.014826
-8196.359271
-8171.876014
2176.024006
2172.511688
2144.563253
2216.575525
2183.263841
2188.608306
2102.921216
2078.088546
2136.598873
2111.10588
2378.379128
2385.185695
2334.764324
2465.492684
2403.816067
2395.832837
2267.50517
2264.890714
2227.923904
2319.537045
2277.983626
2281.208771
-6458.666367
-6291.215598
-5991.943401
-6395.57749
-6711.511792
-6509.110072
1863.783465
1840.082691
1899.616643
1871.042019
1802.507401
1783.722367
1831.435351
1808.638176
2026.273408
1993.307805
2069.033555
2037.295618
1938.968178
1908.480804
1982.382877
1949.896152
-4170.460056
-4363.566344
-3952.065528
-4117.637332
-4202.528126
-4671.562506
-4892.25419
-4420.201965
-4606.7994
1635.348544
1657.922849
1643.013966
1663.894373
1638.29985
1680.990642
1670.738489
1632.283651
1599.575401
1616.103261
1628.927269
1726.96107
1744.540827
1737.383646
1747.85121
1729.618959
1776.55355
1754.403862
1697.215025
1684.219464
1720.968658
1702.375876
1693.366616
1701.07372
1719.975941
-2796.297359
-2920.513102
-2983.33905
-2786.336348
-3038.424138
-2968.476676
-1114.005147
-1325.625398
-1340.659053
-1116.502135
1425.893514
1356.972381
1529.5218
1547.294075
1538.232105
1492.759269
1513.505824
1525.123469
-1813.254028
1043.436283
1045.302336
989.7402853
607.0625857
533.2630657
1052.02849
301.469146
434.2071883
352.2322838
1271.633386
-341.9765084
62.29309455
254.2372987
22.75843697
1188.892607
-3134.956522
-2284.718296
-1555.660484
-2341.591316
-2398.347408
-1128.10844
-1222.876981
-1706.352508
-2400.383074
-902.5972752
-877.7244773
-710.8613845
-2172.146496
-1621.139052
-1599.350797
1240.900436
3221.274155
4478.450363
-7414.844511
-3087.399864
-50.51690821
-2203.775319
-1930.509991
-4332.184762
-7098.411802
-8060.900732
-8228.459893
1953.891258
1927.348788
1874.649041
2001.658283
1945.590201
1973.329578
-1584.391654
-1735.66489
-1732.701761
-2262.3286
-1973.262564
-1927.690031
1296.367701
1267.391675
1280.206511
-8256.053436
-8220.208094
-7435.029291
1857.772816
1809.956217
1829.878211
1863.645737
1869.829023
1897.387984
1906.549191
1936.273615
1926.53105
1344.829859
1332.542232
1306.240945
-1547.518916
-1499.246979
-1491.124894
1333.069816
1342.879254
1336.527716
-1656.158588
-1663.435674
-1557.678642
-1377.521636
-1380.943597
-1534.125295
1114.083822
1308.524581
1315.64579
1324.12981
1153.828013
-9779.59624
-3672.535468
-2005.125363
-2081.476295
-2082.991315
-2347.009505
-2187.276535
-2160.914483
2643.736431
-5684.111788
-5171.203495
-6288.680074
-2508.270577
-2557.729036
-2392.814253
-691.5373334
-705.6689665
-524.3257984
-531.8637622
-634.1788765
-3003.504352
-2599.57409
-5782.708604
-9655.751059
-9088.285047
-8920.62645
-9300.622905
-9381.058048
-3241.063055
-3275.222906
-3222.722277
-3557.931019
-3562.723574
-3538.509019
-3091.552896
-3244.627797
-3315.596811
-3961.851629
-3902.870798
-3962.626265
-1929.017616
-1909.17544
-1941.63137
3013.852693
3099.061781
2766.539838
2770.059455
2772.739643
2731.092157
2496.368717
2507.29366
2484.031101
2691.841223
2655.637373
2650.57205
3532.148243
3356.955574
3483.797279
3715.112036
3739.382015
3880.137693
3166.88568
3239.987079
3237.925739
2156.249298
2152.931286
2150.384355
2220.42014
2209.752403
2212.358411
2099.143166
2092.495137
2144.551404
2135.370452
2346.398537
2348.298619
2332.272331
2462.059841
2440.511415
2437.332974
2240.937683
2241.215646
2230.549156
2317.545626
2304.627408
2303.926577
1837.963249
1861.853069
1854.681685
1800.83551
1807.229915
1829.803962
1989.149983
2021.157638
2005.558188
2012.273024
2000.752211
2084.800197
2073.881639
1920.483371
1989.347086
1978.051508
1936.914016
1946.780308
1978.4953
-4359.121102
-4438.169167
-4024.863599
-4098.205533
-4119.194936
-4510.856589
-4515.792223
-4417.133496
-4555.5
-4374.750636
1368.392541
1342.04223
1353.663391
1419.687658
1403.210845
1377.844672
1400.684335
1412.508213
1406.858231
1376.112315
1379.913398
1389.74414
-1937.903384
963.2546594
980.3990269
944.1843421
635.8252771
970.0525993
391.2549799
493.9920882
596.4107204
1252.915503
1259.246416
1254.74079
-258.7649024
-105.0113473
-87.09540724
-102.7768694
1224.125664
1231.23054
1243.682612
-12.32273894
-97.365436
-236.3545938
-2224.654806
-2274.100986
-2386.41083
-2336.349896
-2317.461769
5089.605573
5043.810603
5106.846393
-2458.693718
-2482.87526
-2390.413886
-2600.190151
-2541.724213
-2534.075052
-4115.025319
-3461.767298
-7010.446502
-7056.096637
-7079.342406
-6962.895894
-7012.893082
-7769.157284
-7579.133137
-7632.241527
-7477.22428
-7528.696579
-7711.692334
-5916.395124
-5827.405599
-5891.434761
-5688.351407
-5761.424243
-5852.561608
-7960.512377
-7747.160636
-7755.483251
-7686.161011
-7728.491356
-7952.056391
-6165.867365
-6076.575538
-6137.233721
-5955.807602
-6016.779443
-6108.824205
-6868.281765
-6915.625684
-6741.035183
-6805.081314
1669.217719
1664.039434
1658.662573
1595.069023
1591.095199
1583.78936
1605.829606
1598.994766
1603.866396
-1494.820633
-1551.865664
-1349.348697
-1436.813276
1451.748682
1446.774492
1465.606991
1457.423749
1350.609511
1341.775024
1347.618846
1344.534517
1563.780991
1560.653756
1552.509474
1576.751037
1569.042686
1573.362876
1480.942892
1475.413132
1498.025801
1480.063673
1488.323475
-1724.211829
-1719.541552
-1713.739464
-1556.968504
969.6039165
978.828729
1032.832348
1089.528554
1084.403737
1064.182661
1096.661584
401.4829151
392.4896258
995.6676079
891.6520904
692.7193337
1285.593382
1302.659813
1297.035587
1168.88128
-9769.883519
-10037.32886
-9460.060109
-9473.747133
-8889.085982
-7919.112835
-9793.72028
-9453.682996
-3725.032795
-3876.795929
-2141.846929
-2134.914423
-2137.793023
2613.25395
2524.434177
4842.158808
4645.95649
4605.334726
4207.683345
4076.844951
4492.192692
4332.211708
4473.622662
-2678.928104
-2596.94086
-2738.112445
-940.4582033
-934.6649595
-922.711966
-1045.587141
-736.4329144
-709.8209504
-699.4318243
-862.414885
-799.6109001
-802.2705622
-460.287322
-515.2347811
-508.1251719
-335.0249262
-343.4152253
-388.2611959
-9294.476868
-9214.373377
-9720.152943
-8557.999449
-8963.803905
-8953.160183
-9452.013701
-9437.209363
-7280.900215
-7164.654017
-7210.851812
-7105.56314
-7118.104401
-7221.286663
-7521.959728
-7366.744558
-7422.823671
-7261.374025
-7312.809205
-7462.241947
-5335.604848
-5259.868467
-5331.42234
-5321.431141
-5397.919822
-5007.599936
-5037.207538
-5017.60067
-5122.695196
-5636.634043
-5664.957297
-5618.769861
-5534.830372
-5611.222091
-5406.215661
-5475.273869
-5567.988817
-3377.981796
-3278.936202
-3277.147174
-3292.483659
-3232.671422
-3293.334804
-3486.302794
-3507.45269
-3435.040917
-3796.924847
-3839.214005
-3859.433122
2959.67126
2809.674411
2561.818543
2532.771837
2521.783551
2618.19153
2622.525078
2591.653876
3525.550295
3627.125232
3616.953609
3934.999509
3804.734334
3323.561001
3323.854175
3421.678245
-8044.245391
-7830.968065
-7869.499434
-7768.456351
-7796.370235
-7993.430254
-8221.834139
-8289.878184
-8570.239411
-8946.961743
-8832.905391
-9078.073616
-9059.553354
-8631.363733
-8497.900579
-8754.19746
-8693.912267
-8430.000134
2175.406669
2165.294979
2166.033504
2200.934436
2198.483794
2186.915428
2112.195586
2105.540811
2126.632009
2119.142643
2381.435245
2364.617026
2362.543006
2415.833702
2419.411191
2399.566812
2266.633194
2253.422879
2253.122513
2293.158677
2292.319112
2279.782546
-6407.975781
-6310.724833
-6362.448895
-6195.821112
-6253.858758
-6347.249845
-6661.418222
-6562.586745
-6642.676001
-6416.269275
-6483.902789
-6580.972909
1856.414479
1858.595
1865.051183
1842.174947
1851.002751
1848.508336
1889.173654
1888.276389
1900.364054
1870.88469
1878.056138
1879.282856
1796.567593
1799.020893
1804.133348
1787.034812
1793.407188
1790.367531
1823.106734
1823.814898
1832.763539
1809.409124
1815.877428
1815.461708
2035.690696
2023.998781
2015.300004
2019.920395
2031.199183
1997.296878
2008.577808
2004.295103
2060.370575
2047.465989
1944.973735
1934.841609
1928.272509
1931.384495
1941.988103
1909.564
1914.454223
1916.917249
1971.515608
1975.018102
1986.1158
1953.101651
1964.027287
1960.699979
1966.988987
1956.026832
-4263.666348
-4301.022917
-4190.389893
-4159.715677
-4178.683414
-4732.753667
-4763.073564
-4711.625712
-4928.538169
-4833.425532
-4804.943873
-4464.852951
-4495.342846
-4475.216976
-4655.315048
-4599.798785
-4534.833252
1642.303072
1638.511988
1631.647475
1652.532828
1645.646521
1650.171641
1654.496849
1645.457865
1677.998942
1674.760435
1627.774402
1617.504676
1611.712337
1611.638196
1609.217784
1624.972164
1618.880754
1623.859651
1734.222214
1739.389515
1751.1418
1734.587979
1769.044951
1771.620938
1779.580883
1757.284433
1764.214812
1761.699781
1692.313009
1687.942893
1713.43301
1707.615056
-2918.516389
-2904.369094
-2974.888341
-2785.547603
-2840.144315
-2874.94187
-3113.543049
-3162.769297
-3023.829079
-3023.687627
-3033.339862
-1274.998956
-1284.015492
-1338.996573
-1137.725998
-1205.096041
-1209.116332
1417.997805
1404.219388
1440.736425
1431.236403
1361.77455
1370.222666
1366.278367
1373.299188
1365.308499
1392.491174
1382.671726
1534.814661
1532.364283
1526.649777
1545.158929
1538.511795
1540.723794
1518.194414
1511.503466
1505.282944
1521.406174
1516.516448
1521.628526
-1877.575746
1041.001982
1015.123514
1015.060028
574.8821408
577.6785429
619.7212139
532.9661348
536.2403972
527.109219
1025.969503
388.3688105
345.4371875
285.314098
1262.367696
1264.373816
1271.768664
-322.6748109
141.8862305
90.23057687
241.4686009
234.7209622
242.6371119
76.17459733
-47.72403117
-29.53625623
66.60267118
1202.663577
1219.535533
1211.776763
930.5069728
884.1118394
856.2120552
864.4692307
792.636825
758.8347459
763.0284899
656.73645
622.4875905
614.2362607
469.4908688
443.9166848
414.879784
240.230857
232.9492309
179.71465
-2.376905218
9.44377651
-62.17012341
-229.2605563
-203.7662449
-281.3185865
-420.5801538
-388.8650503
-462.1392228
-568.1258866
-535.5689969
-598.3403021
-673.3299603
-645.5555521
980.8588253
947.3146973
897.3025381
932.2495862
869.788348
808.8300696
841.959316
733.8277807
672.5145576
688.7190037
525.1792425
480.3181877
461.5382739
250.0425034
242.0643494
173.9609224
-50.68602387
-11.25031198
-121.7939553
-312.9109961
-244.515683
-368.1760606
-508.2794498
-436.9197611
-547.3037777
-645.4654895
-583.8577643
-672.6644721
-738.6590962
-686.746116
1050.548496
1036.778374
967.4526958
1028.093603
984.2201793
894.5482048
962.096627
865.4527456
760.3965505
820.8231752
639.3798424
546.2043581
561.2491429
277.9258148
254.3161485
172.8636909
-142.9052913
-68.73031291
-238.3823931
-473.8420714
-344.4844844
-534.3469138
-669.5183775
-540.8398024
-702.7459729
-776.3386744
-672.1599042
-794.062615
-834.3662811
-759.988944
1131.455554
1145.945024
1062.790628
1148.173899
1144.322317
1019.656219
1137.161981
1086.653638
910.8645505
1055.995534
886.6257842
684.5004957
793.1052146
370.5797166
292.708898
192.0018008
-335.4993566
-177.0689218
-479.6732903
-775.1381348
-531.8319803
-835.1684033
-935.732888
-725.1244541
-949.4515084
-963.9923396
-818.1576342
-964.1191811
-959.0408101
-862.9484524
1209.508453
1258.488403
1174.853047
1275.869408
1332.230821
1190.376998
1352.811476
1415.514448
1160.154047
1432.801112
1422.479525
985.3246718
1361.06188
579.8964139
413.892085
349.4191896
-909.7912792
-421.4087703
-1115.585368
-1354.015277
-886.6544317
-1363.261658
-1313.494349
-1019.307315
-1285.783414
-1198.640699
-1019.117157
-1171.644126
-1102.840413
-993.8789663
1268.288418
1347.888831
1284.234326
1379.006332
1493.784296
1377.999779
1542.168073
1737.918918
1505.147934
1828.621211
2337.776605
1623.383667
1961.515908
1956.656106
1381.66423
339.8047908
-1204.768007
-494.0440641
-1946.298541
-1843.074812
-1514.394818
-2131.932215
-1766.915023
-1424.35491
-1670.446829
-1440.011531
-1261.215243
-1379.885834
-1238.889474
-1138.821962
1292.774773
1388.556052
1363.131057
1425.945152
1562.585495
1521.302884