/*--------------------------------*- C++ -*----------------------------------*\
| =========                 |                                                 |
| \\      /  F ield         | OpenFOAM: The Open Source CFD Toolbox           |
|  \\    /   O peration     | Version:  v1912                                 |
|   \\  /    A nd           | Website:  www.openfoam.com                      |
|    \\/     M anipulation  |                                                 |
\*---------------------------------------------------------------------------*/
FoamFile
{
    version     2.0;
    format      ascii;
    class       pointVectorField;
    location    "1.05";
    object      pointDisplacement;
}
// * * * * * * * * * * * * * * * * * * * * * * * * * * * * * * * * * * * * * //

dimensions      [0 1 0 0 0 0 0];


internalField   nonuniform List<vector> 
26316
(
(0 0 0)
(0 0 0)
(0 0 0)
(0 0 0)
(0 0 0)
(0 0 0)
(0 0 0)
(0 0 0)
(0 0 0)
(0 0 0)
(0 0 0)
(0 0 0)
(0 0 0)
(0 0 0)
(0 0 0)
(0 0 0)
(0 0 0)
(0 0 0)
(0 0 0)
(0 0 0)
(0 0 0)
(0 0 0)
(0 0 0)
(0 0 0)
(0 0 0)
(0 0 0)
(0 0 0)
(0 0 0)
(0 0 0)
(0 0 0)
(0 0 0)
(0 0 0)
(0 0 0)
(0 0 0)
(0 0 0)
(0 0 0)
(0 0 0)
(0 0 0)
(0 0 0)
(0 0 0)
(0 0 0)
(0 0 0)
(0 0 0)
(0 0 0)
(0 0 0)
(0 0 0)
(0 0 0)
(0 0 0)
(0 0 0)
(0 0 0)
(0 0 0)
(0 0 0)
(0 0 0)
(0 0 0)
(0 0 0)
(0 0 0)
(0 0 0)
(0 0 0)
(0 0 0)
(0 0 0)
(0 0 0)
(0 0 0)
(0 0 0)
(0 0 0)
(0 0 0)
(0 0 0)
(0 0 0)
(0 0 0)
(0 0 0)
(0 0 0)
(0 0 0)
(0 0 0)
(0 0 0)
(0 0 0)
(0 0 0)
(0 0 0)
(0 0 0)
(0 0 0)
(0 0 0)
(0 0 0)
(0 0 0)
(0 0 0)
(0 0 0)
(0 0 0)
(0 0 0)
(0 0 0)
(0 0 0)
(0 0 0)
(0 0 0)
(0 0 0)
(0 0 0)
(0 0 0)
(0 0 0)
(0 0 0)
(0 0 0)
(0 0 0)
(0 0 0)
(0 0 0)
(0 0 0)
(0 0 0)
(0 0 0)
(0 0 0)
(0 0 0)
(0 0 0)
(0 0 0)
(0 0 0)
(0 0 0)
(0 0 0)
(0 0 0)
(0 0 0)
(0 0 0)
(0 0 0)
(0 0 0)
(0 0 0)
(0 0 0)
(0 0 0)
(0 0 0)
(0 0 0)
(0 0 0)
(-9.920173869e-07 5.93476484e-06 2.775557562e-17)
(0 0 0)
(0 0 0)
(-5.459966097e-07 6.64775974e-05 3.330669074e-16)
(2.528203732e-06 5.651144674e-05 2.91433544e-16)
(0 0 0)
(0 0 0)
(0 0 0)
(0 0 0)
(0 0 0)
(0 0 0)
(0 0 0)
(0 0 0)
(0 0 0)
(0 0 0)
(0 0 0)
(0 0 0)
(0 0 0)
(0 0 0)
(0 0 0)
(0 0 0)
(0 0 0)
(0 0 0)
(0 0 0)
(0 0 0)
(0 0 0)
(0 0 0)
(0 0 0)
(0 0 0)
(0 0 0)
(0 0 0)
(0 0 0)
(0 0 0)
(0 0 0)
(0 0 0)
(0 0 0)
(0 0 0)
(0 0 0)
(0 0 0)
(0 0 0)
(0 0 0)
(0 0 0)
(0 0 0)
(0 0 0)
(0 0 0)
(0 0 0)
(0 0 0)
(0 0 0)
(0 0 0)
(0 0 0)
(0 0 0)
(0 0 0)
(0 0 0)
(0 0 0)
(0 0 0)
(0 0 0)
(0 0 0)
(0 0 0)
(0 0 0)
(0 0 0)
(0 0 0)
(0 0 0)
(0 0 0)
(0 0 0)
(0 0 0)
(0 0 0)
(-6.179960028e-05 7.698498873e-05 4.996003611e-16)
(-0.0003555334289 0.0004830247567 3.080868893e-15)
(-4.6509204e-06 6.702029357e-06 4.163336342e-17)
(-0.0006743050074 0.00133332645 8.021361353e-15)
(-0.001670837761 0.003125886871 1.994238108e-14)
(-0.001978763225 0.004235159231 2.702005286e-14)
(-0.0009255924076 0.002090784627 1.257327575e-14)
(-0.001118637504 0.004406534181 2.649269693e-14)
(-0.001946817457 0.007317486495 4.66710004e-14)
(-0.001611440128 0.008084170896 5.156985949e-14)
(-0.0009583777538 0.005014425122 3.014255512e-14)
(-2.260221436e-05 0.005861328593 3.526345882e-14)
(-3.632826985e-06 0.009128979323 5.830058658e-14)
(0.0005899849148 0.009007829004 5.755118604e-14)
(0.0003356527317 0.005764144366 3.469446952e-14)
(0.00107567408 0.004416274129 2.658984144e-14)
(0.001917589926 0.007319003761 4.680977828e-14)
(0.002091656758 0.006394050133 4.089784067e-14)
(0.001127788478 0.003696757976 2.225997164e-14)
(0.0006601081598 0.001349121176 8.118505868e-15)
(0.001641351949 0.003145638224 2.012279232e-14)
(0.001233096237 0.002102165392 1.34336986e-14)
(0.0003853278018 0.0006996332194 4.218847494e-15)
(0 0 0)
(6.483805162e-05 8.290042705e-05 5.273559367e-16)
(0 0 0)
(0 0 0)
(0 0 0)
(0 0 0)
(0 0 0)
(0 0 0)
(0 0 0)
(0 0 0)
(0 0 0)
(0 0 0)
(0 0 0)
(0 0 0)
(0 0 0)
(0 0 0)
(0 0 0)
(0 0 0)
(0 0 0)
(0 0 0)
(0 0 0)
(0 0 0)
(0 0 0)
(0 0 0)
(0 0 0)
(0 0 0)
(0 0 0)
(0 0 0)
(0 0 0)
(0 0 0)
(0 0 0)
(0 0 0)
(0 0 0)
(0 0 0)
(0 0 0)
(0 0 0)
(0 0 0)
(0 0 0)
(0 0 0)
(0 0 0)
(0 0 0)
(0 0 0)
(0 0 0)
(0 0 0)
(0 0 0)
(0 0 0)
(0 0 0)
(0 0 0)
(-0.0001725935451 0.0001218117256 1.026956298e-15)
(-0.0009424072824 0.0007101433516 6.022959909e-15)
(-0.0002233242581 0.0001818328433 1.429412144e-15)
(-0.003177349705 0.003249713694 2.541022948e-14)
(-0.005073597142 0.004818402896 4.067579606e-14)
(-0.006457318822 0.006717645524 5.662137426e-14)
(-0.00435994052 0.004879498033 3.810840532e-14)
(-0.00671433846 0.01046186535 8.149037001e-14)
(-0.008847059653 0.01285539428 1.080663337e-13)
(-0.008846802911 0.01479076081 1.243033454e-13)
(-0.006865015755 0.012291867 9.57289803e-14)
(-0.005223252008 0.01680148889 1.310063169e-13)
(-0.006427291161 0.01943446536 1.636468738e-13)
(-0.004959493956 0.02046657547 1.725564136e-13)
(-0.00408315629 0.01782929092 1.391387006e-13)
(0.0002866652555 0.0191481788 1.499911306e-13)
(0.0004649436504 0.02175469295 1.843525332e-13)
(0.002347875324 0.02156547843 1.830757768e-13)
(0.001817870835 0.0189717585 1.488115187e-13)
(0.005618188972 0.01667574456 1.312699949e-13)
(0.007113825502 0.01922102915 1.639660629e-13)
(0.008171863369 0.01789672895 1.528360771e-13)
(0.006409494514 0.0153818142 1.211808431e-13)
(0.006796321179 0.01039088177 8.192058143e-14)
(0.009061630681 0.01269585137 1.085520562e-13)
(0.008546249104 0.01070237432 9.148237723e-14)
(0.006245351847 0.008525940562 6.719624857e-14)
(0.003164708135 0.003273226129 2.57294186e-14)
(0.005068316177 0.004823156768 4.110600749e-14)
(0.003576996052 0.003152352738 2.683964162e-14)
(0.001983964178 0.00189833852 1.490474411e-14)
(0 0 0)
(0.0001713703407 0.0001230894557 1.040834086e-15)
(0 0 0)
(0 0 0)
(0 0 0)
(0 0 0)
(0 0 0)
(0 0 0)
(0 0 0)
(0 0 0)
(0 0 0)
(0 0 0)
(0 0 0)
(0 0 0)
(0 0 0)
(0 0 0)
(0 0 0)
(0 0 0)
(0 0 0)
(0 0 0)
(0 0 0)
(0 0 0)
(0 0 0)
(0 0 0)
(0 0 0)
(0 0 0)
(0 0 0)
(0 0 0)
(0 0 0)
(0 0 0)
(0 0 0)
(0 0 0)
(0 0 0)
(0 0 0)
(0 0 0)
(0 0 0)
(0 0 0)
(0 0 0)
(0 0 0)
(0 0 0)
(0 0 0)
(-7.426057133e-05 2.93867586e-05 3.747002708e-16)
(0 0 0)
(-0.003156626576 0.001688899837 1.892930257e-14)
(-0.004689079691 0.00223758317 2.810252031e-14)
(-0.007326851055 0.003756461972 4.696243394e-14)
(-0.005383933578 0.003087211227 3.450018049e-14)
(-0.01221946908 0.008917754306 9.874046025e-14)
(-0.0148077136 0.00970792294 1.199318422e-13)
(-0.01649669981 0.01188717852 1.464384169e-13)
(-0.01390173205 0.01114327295 1.230959779e-13)
(-0.01557719701 0.01755640051 1.933453397e-13)
(-0.01771598029 0.0179649077 2.206984595e-13)
(-0.01679607594 0.01963851746 2.414735079e-13)
(-0.01491882134 0.01938769233 2.136207877e-13)
(-0.009842942267 0.02340720861 2.593619763e-13)
(-0.01082458202 0.02316181734 2.869093851e-13)
(-0.00806547214 0.02382520565 2.96207503e-13)
(-0.007380888996 0.0242113575 2.690486722e-13)
(0.001066864241 0.02506490205 2.814415367e-13)
(0.001220202544 0.02444772942 3.078648447e-13)
(0.004375094729 0.02424189614 3.066435994e-13)
(0.003947931742 0.02485718899 2.801370247e-13)
(0.01160641673 0.02281372193 2.597366766e-13)
(0.01289900321 0.02242423574 2.872979632e-13)
(0.01513906204 0.02140360363 2.751826544e-13)
(0.01354681709 0.02166362127 2.473160565e-13)
(0.01644562682 0.01691879032 1.940392291e-13)
(0.01883074835 0.01710192335 2.212813266e-13)
(0.01883078809 0.01531030096 1.981748099e-13)
(0.01626755878 0.01498297416 1.718486464e-13)
(0.01230555038 0.008643859091 9.876821583e-14)
(0.01535439961 0.009471093533 1.225131108e-13)
(0.01320482485 0.007542789766 9.75469705e-14)
(0.01045621603 0.006786716507 7.753520048e-14)
(0.003608932137 0.001924842796 2.187139359e-14)
(0.005396384979 0.002551194651 3.26683125e-14)
(0.00304239155 0.001360363579 1.736111255e-14)
(0.001737991382 0.0008754827923 9.93649607e-15)
(0 0 0)
(0 0 0)
(0 0 0)
(0 0 0)
(0 0 0)
(0 0 0)
(0 0 0)
(0 0 0)
(0 0 0)
(0 0 0)
(0 0 0)
(0 0 0)
(0 0 0)
(0 0 0)
(0 0 0)
(0 0 0)
(0 0 0)
(0 0 0)
(0 0 0)
(0 0 0)
(0 0 0)
(0 0 0)
(0 0 0)
(0 0 0)
(0 0 0)
(0 0 0)
(0 0 0)
(0 0 0)
(0 0 0)
(0 0 0)
(0 0 0)
(0 0 0)
(0 0 0)
(0 0 0)
(0 0 0)
(-0.0003432099094 8.126243018e-05 1.637578961e-15)
(-0.0007804509082 0.0001487604641 3.73312492e-15)
(-0.002770890247 0.0005592649437 1.393329896e-14)
(-0.001863148194 0.0004659835137 9.381384558e-15)
(-0.01091779626 0.003319212049 6.541989173e-14)
(-0.01291149705 0.003193938446 7.738254482e-14)
(-0.01661538546 0.004438132128 1.064148769e-13)
(-0.01441051684 0.004719438643 9.225953335e-14)
(-0.02258238797 0.009546794175 1.824373985e-13)
(-0.02493064829 0.008599963493 2.013111899e-13)
(-0.02619078735 0.009947563433 2.316202785e-13)
(-0.02394658513 0.01116305902 2.120803533e-13)
(-0.02333122949 0.01540996707 2.90711899e-13)
(-0.0247869783 0.01334187268 3.075179e-13)
(-0.02273918829 0.01409012498 3.25503513e-13)
(-0.02147524236 0.01631594396 3.086281231e-13)
(-0.01304069593 0.01794926443 3.447936381e-13)
(-0.01352794785 0.01504090752 3.543415561e-13)
(-0.009910629156 0.01505385783 3.577138585e-13)
(-0.009596721868 0.0181129881 3.503725088e-13)
(0.001305092034 0.0179750608 3.559375017e-13)
(0.001195801662 0.01469843326 3.596151155e-13)
(0.004911212727 0.01454465731 3.595734821e-13)
(0.004970875812 0.01780244219 3.554517791e-13)
(0.01558261793 0.01687288349 3.455291608e-13)
(0.01596059177 0.01388194567 3.548272787e-13)
(0.01929756842 0.01350471067 3.489708522e-13)
(0.0186913366 0.01634231689 3.373828994e-13)
(0.02506209185 0.01383579337 2.913225217e-13)
(0.02663032116 0.01153940208 3.085864897e-13)
(0.0278059202 0.0106702581 2.882000194e-13)
(0.02589000017 0.01266612436 2.687849943e-13)
(0.02368510082 0.008824642332 1.876276912e-13)
(0.02610587564 0.007661651042 2.066541382e-13)
(0.02385602483 0.00653445891 1.751515599e-13)
(0.02139299468 0.007430768632 1.571798247e-13)
(0.01158881573 0.003379257213 6.991629498e-14)
(0.01366342905 0.003163080491 8.237854843e-14)
(0.009838584093 0.002171519628 5.595524044e-14)
(0.008058993945 0.002234440515 4.58660887e-14)
(0.0005310218211 0.0001275554116 2.581268532e-15)
(0.0009123072129 0.0001754898057 4.427014311e-15)
(2.31565171e-05 4.249373577e-06 1.110223025e-16)
(0 0 0)
(0 0 0)
(0 0 0)
(0 0 0)
(0 0 0)
(0 0 0)
(0 0 0)
(0 0 0)
(0 0 0)
(0 0 0)
(0 0 0)
(0 0 0)
(0 0 0)
(0 0 0)
(0 0 0)
(0 0 0)
(0 0 0)
(0 0 0)
(0 0 0)
(0 0 0)
(0 0 0)
(0 0 0)
(0 0 0)
(0 0 0)
(0 0 0)
(0 0 0)
(0 0 0)
(0 0 0)
(0 0 0)
(-3.26690671e-05 -1.253855685e-06 1.387778781e-16)
(-8.914514424e-07 3.553712435e-09 0)
(0 0 0)
(-0.002449690263 0.0001279224943 1.171285291e-14)
(-0.003091768262 1.905766148e-05 1.477984402e-14)
(-0.006411145951 5.394954e-05 3.226585665e-14)
(-0.005470031518 0.000310329659 2.753353101e-14)
(-0.01771127276 0.001347231977 1.061373212e-13)
(-0.01927907327 0.0003642757825 1.154770723e-13)
(-0.02338416445 0.0005440004886 1.496025526e-13)
(-0.02215043367 0.001875689661 1.418309914e-13)
(-0.03042445903 0.003485824153 2.450956105e-13)
(-0.03169976971 0.001185070713 2.549488398e-13)
(-0.03245575627 0.001358458928 2.853550729e-13)
(-0.03129651287 0.003954623767 2.757516437e-13)
(-0.02794956138 0.004822351929 3.414768468e-13)
(-0.02858571076 0.001534971512 3.476385846e-13)
(-0.02562014228 0.001478380038 3.566591467e-13)
(-0.02520219231 0.004926066142 3.531341886e-13)
(-0.01435718454 0.004790224152 0)
(-0.01465135026 0.001192789077 0)
(-0.01277821795 0.001149093533 0)
(-0.01080118158 0.001182721728 0)
(-0.01063899108 0.002962855418 0)
(-0.01055129307 0.004702685935 0)
(0.0007708801469 0.00431405134 0)
(0.0007005429512 0.00258333366 0)
(0.002596671437 0.002507793528 0)
(0.002656733149 0.004238765783 0)
(0.01601192383 0.003552574822 0)
(0.015996272 0.001772743812 0)
(0.01599294893 -3.517258895e-05 0)
(0.01787689902 -0.0001662005267 0)
(0.0197348611 -0.000261854918 0)
(0.01979785687 0.003311044288 0)
(0.02956079709 0.002650353602 3.438499485e-13)
(0.02996454758 -0.0007139355461 3.49706375e-13)
(0.03217553323 -0.0007809699893 3.356898093e-13)
(0.03152549093 0.002447950397 3.28057026e-13)
(0.03167279864 0.001835949568 2.509242814e-13)
(0.03278838281 -0.0006875806329 2.600003546e-13)
(0.03108285443 -0.0005741940325 2.28317365e-13)
(0.02968872751 0.001629647143 2.179645353e-13)
(0.01908441008 0.0009718714794 1.148803275e-13)
(0.02087006868 -0.0001835326288 1.25635613e-13)
(0.01642967562 -9.051935267e-05 9.328648964e-14)
(0.01479771355 0.000749695077 8.403000518e-14)
(0.003289086928 0.0001624586505 1.594557819e-14)
(0.004111409598 7.895432251e-06 1.992850329e-14)
(0.001472562197 4.678669077e-06 6.800116026e-15)
(0.00100188174 4.832446828e-05 4.635181128e-15)
(0 0 0)
(0 0 0)
(0 0 0)
(0 0 0)
(0 0 0)
(0 0 0)
(0 0 0)
(0 0 0)
(0 0 0)
(0 0 0)
(0 0 0)
(0 0 0)
(0 0 0)
(0 0 0)
(0 0 0)
(0 0 0)
(0 0 0)
(0 0 0)
(0 0 0)
(0 0 0)
(0 0 0)
(0 0 0)
(0 0 0)
(0 0 0)
(0 0 0)
(0 0 0)
(0 0 0)
(0 0 0)
(-0.0002943628485 -6.116441189e-05 1.276756478e-15)
(-0.0001677495223 -2.775051024e-05 7.21644966e-16)
(-0.0001372337403 -1.690207724e-05 5.967448757e-16)
(-0.004442467108 -0.0005906703973 2.123301535e-14)
(-0.004607485696 -0.0008262652591 2.201017146e-14)
(-0.008528346527 -0.001590372525 4.288236433e-14)
(-0.008302328365 -0.001143459948 4.175826351e-14)
(-0.02228825599 -0.003435378035 1.331990074e-13)
(-0.02265261849 -0.004799556944 1.352667978e-13)
(-0.02694791251 -0.006008048277 1.71682113e-13)
(-0.02655501063 -0.004285414291 1.693645224e-13)
(-0.03433632803 -0.006692624502 2.743361094e-13)
(-0.03472807878 -0.009438852714 2.768341112e-13)
(-0.03514002254 -0.01040287485 3.056166431e-13)
(-0.03477546066 -0.007377878735 3.03271297e-13)
(-0.02968388202 -0.008831954106 3.55784846e-13)
(-0.0298980207 -0.01234020798 3.566591467e-13)
(-0.0264449125 -0.01257855068 0)
(-0.02629701248 -0.009055919235 3.596289933e-13)
(-0.01520869501 -0.009464232883 0)
(-0.01529150848 -0.01124965552 0)
(-0.0134444405 -0.0113138589 0)
(-0.01336190315 -0.009531242818 0)
(0.01568484148 -0.01066428303 0)
(0.01562362868 -0.01243323081 0)
(0.0174694802 -0.01251542073 0)
(0.01753253081 -0.01074916973 0)
(0.03032011019 -0.01128479386 3.578665142e-13)
(0.03025572881 -0.01480937378 3.587408148e-13)
(0.03324144723 -0.01463732315 3.514410984e-13)
(0.033182046 -0.01114158182 3.49442697e-13)
(0.03586462648 -0.009214132142 2.858546733e-13)
(0.03624611997 -0.01217065622 2.89601676e-13)
(0.03496899276 -0.01082611204 2.584321646e-13)
(0.03451194974 -0.008168893688 2.54546384e-13)
(0.02447675846 -0.004572838657 1.475625178e-13)
(0.02501688128 -0.006158739257 1.509625758e-13)
(0.02030443043 -0.004651819256 1.154493168e-13)
(0.01978909223 -0.003426809477 1.124517146e-13)
(0.005965087123 -0.0008368524047 2.8907432e-14)
(0.006735770365 -0.001267564486 3.264055692e-14)
(0.003211847767 -0.0005700454699 1.482147738e-14)
(0.002644048852 -0.0003489616489 1.221245327e-14)
(0 0 0)
(0 0 0)
(0 0 0)
(0 0 0)
(0 0 0)
(0 0 0)
(0 0 0)
(0 0 0)
(0 0 0)
(0 0 0)
(0 0 0)
(0 0 0)
(0 0 0)
(0 0 0)
(0 0 0)
(0 0 0)
(0 0 0)
(0 0 0)
(0 0 0)
(0 0 0)
(0 0 0)
(0 0 0)
(0 0 0)
(0 0 0)
(0 0 0)
(0 0 0)
(0 0 0)
(0 0 0)
(-0.0004832203113 -0.0001820577741 2.095545959e-15)
(-0.0004364425088 -0.0001460176479 1.90125693e-15)
(-0.0003828826612 -0.000111929628 1.665334537e-15)
(-0.005475349125 -0.001743260534 2.614575223e-14)
(-0.005662101607 -0.00206489729 2.703393065e-14)
(-0.009873442389 -0.003764186599 4.959921363e-14)
(-0.009639010284 -0.003205951719 4.843347945e-14)
(-0.02409628655 -0.009267306175 1.435379593e-13)
(-0.02439825498 -0.01078266721 1.452032938e-13)
(-0.02868103541 -0.01342001042 1.819100426e-13)
(-0.02837845604 -0.01154735685 1.801891969e-13)
(-0.03587026542 -0.01795454141 2.839672941e-13)
(-0.03613071565 -0.02081056941 2.853550729e-13)
(-0.03637219772 -0.02280234274 3.128053372e-13)
(-0.03613546767 -0.01969367347 3.11639603e-13)
(-0.0304276312 -0.02285303862 3.580330477e-13)
(-0.03058210427 -0.02634783565 3.582550923e-13)
(-0.02700402223 -0.02659308093 0)
(-0.02686678552 -0.02309807928 0)
(-0.01579756098 -0.02354427989 0)
(-0.01586728162 -0.025292953 0)
(-0.01402523545 -0.02536694826 0)
(-0.01395527181 -0.02361828501 0)
(0.01515434835 -0.02477538993 0)
(0.0150834004 -0.02653431716 0)
(0.01692505028 -0.02661008127 0)
(0.01699628608 -0.02485205819 0)
(0.02990139581 -0.02538226256 3.595734821e-13)
(0.02975838867 -0.02889454319 3.596151155e-13)
(0.03306640701 -0.02869617098 3.554934125e-13)
(0.03315916777 -0.02518838393 3.549521788e-13)
(0.03718353698 -0.02138600272 2.993855164e-13)
(0.03730799532 -0.02446221148 3.012312622e-13)
(0.03644398757 -0.02203652171 2.716715741e-13)
(0.0362412559 -0.01922606716 2.695343948e-13)
(0.02695378556 -0.01146756192 1.631472735e-13)
(0.02732854056 -0.01326304404 1.656036419e-13)
(0.02268334086 -0.01029472324 1.293964935e-13)
(0.02228667899 -0.008861228853 1.27009514e-13)
(0.00772194747 -0.002550751715 3.744227151e-14)
(0.008035058062 -0.003036239446 3.896882816e-14)
(0.004143547771 -0.001482869265 1.913746939e-14)
(0.00390645168 -0.001221422051 1.804112415e-14)
(0 0 0)
(0 0 0)
(0 0 0)
(0 0 0)
(0 0 0)
(0 0 0)
(0 0 0)
(0 0 0)
(0 0 0)
(0 0 0)
(0 0 0)
(0 0 0)
(0 0 0)
(0 0 0)
(0 0 0)
(0 0 0)
(0 0 0)
(0 0 0)
(0 0 0)
(0 0 0)
(0 0 0)
(0 0 0)
(0 0 0)
(0 0 0)
(0 0 0)
(0 0 0)
(0 0 0)
(0 0 0)
(-0.0007128391386 -0.0003887693243 3.108624469e-15)
(-0.000642665194 -0.0003234052043 2.789435349e-15)
(-0.0005801871874 -0.0002675170819 2.525757381e-15)
(-0.006127513042 -0.00308440825 2.92543767e-14)
(-0.006316052999 -0.003470830674 3.014255512e-14)
(-0.01068731163 -0.00614837845 5.362377209e-14)
(-0.01045426368 -0.005507992203 5.24719157e-14)
(-0.02515070928 -0.01542190057 1.492833634e-13)
(-0.02544642215 -0.01704825422 1.509070646e-13)
(-0.02973768268 -0.02111520025 1.877109579e-13)
(-0.0294415186 -0.01913109318 1.860733789e-13)
(-0.03681456927 -0.02944575757 2.887134976e-13)
(-0.03706953602 -0.03238611464 2.900180096e-13)
(-0.03723781529 -0.03535436519 3.166633622e-13)
(-0.03700633112 -0.0321786791 3.155808947e-13)
(-0.03102669515 -0.0368193237 3.58726937e-13)
(-0.03117486737 -0.0403138283 3.588795927e-13)
(-0.02754643032 -0.04054390148 0)
(-0.02741143119 -0.03705805823 0)
(-0.01634940249 -0.0375036424 0)
(-0.01641779412 -0.03924555424 0)
(-0.01457824252 -0.03931904264 0)
(-0.01454388142 -0.0384480123 0)
(-0.01450954989 -0.03757771095 0)
(0.01456713914 -0.03883059629 0)
(0.01449111464 -0.04058266466 0)
(0.01633077682 -0.04065542735 0)
(0.01640702131 -0.03890393583 0)
(0.02930308797 -0.03941190439 3.596012377e-13)
(0.02914419427 -0.04289970215 3.595318487e-13)
(0.03239741206 -0.04244589664 3.546607452e-13)
(0.0325898287 -0.03905232104 3.5513259e-13)
(0.03683639193 -0.03312942086 2.999822613e-13)
(0.03659637318 -0.03591036425 2.988997938e-13)
(0.03575177274 -0.03230315619 2.691180612e-13)
(0.03599135282 -0.02981843393 2.702560398e-13)
(0.02695498221 -0.01792035049 1.639521852e-13)
(0.02675217257 -0.01938723432 1.629113511e-13)
(0.02215837702 -0.01503081306 1.268707361e-13)
(0.02234058527 -0.01390094834 1.277866701e-13)
(0.007815151997 -0.004064339497 3.794187187e-14)
(0.007712173382 -0.004375525536 3.744227151e-14)
(0.003907731443 -0.002102819806 1.806887973e-14)
(0.003980091734 -0.00196273343 1.840194663e-14)
(0 0 0)
(0 0 0)
(0 0 0)
(0 0 0)
(0 0 0)
(0 0 0)
(0 0 0)
(0 0 0)
(0 0 0)
(0 0 0)
(0 0 0)
(0 0 0)
(0 0 0)
(0 0 0)
(0 0 0)
(0 0 0)
(0 0 0)
(0 0 0)
(0 0 0)
(0 0 0)
(0 0 0)
(0 0 0)
(0 0 0)
(0 0 0)
(0 0 0)
(0 0 0)
(0 0 0)
(0 0 0)
(-0.001020906321 -0.0007289474093 4.440892099e-15)
(-0.0009374483087 -0.0006298466798 4.080069615e-15)
(-0.0008567316416 -0.0005394977654 3.719247132e-15)
(-0.006905970966 -0.004750740609 3.294586826e-14)
(-0.007113949855 -0.005221616826 3.393119119e-14)
(-0.01166366671 -0.008966010332 5.846712003e-14)
(-0.01141071183 -0.008220555157 5.721811913e-14)
(-0.02635446297 -0.02212831595 1.558336793e-13)
(-0.02666843729 -0.02389308195 1.575267694e-13)
(-0.03095798161 -0.02939178728 1.944000516e-13)
(-0.0306451277 -0.02726927772 1.926930837e-13)
(-0.037844893 -0.04136366525 2.939593013e-13)
(-0.03810917816 -0.04440968518 2.952776912e-13)
(-0.03817598038 -0.0482688895 3.209515986e-13)
(-0.03793858966 -0.04500827712 3.19883009e-13)
(-0.03161172486 -0.05080951237 3.592681708e-13)
(-0.03175454203 -0.05430892949 3.593791931e-13)
(-0.02808302942 -0.05449552561 0)
(-0.02794948714 -0.05100759494 0)
(-0.01689424271 -0.05145241709 0)
(-0.01696164706 -0.05319599165 0)
(-0.01512525774 -0.0532694329 0)
(-0.01509135306 -0.05239765384 0)
(-0.01505737396 -0.05152604006 0)
(0.01394606913 -0.05282649999 0)
(0.01386512123 -0.05457593464 0)
(0.01570307699 -0.05464676205 0)
(0.01578441017 -0.05289782983 0)
(0.0286057102 -0.0532556726 3.586853037e-13)
(0.0283906402 -0.05662381708 3.579636587e-13)
(0.03132152959 -0.05537212151 3.493455525e-13)
(0.03165120227 -0.05228647938 3.513717095e-13)
(0.03516644392 -0.04321040828 2.896710649e-13)
(0.03439048217 -0.04510707491 2.840228053e-13)
(0.0334748547 -0.04035672021 2.542965838e-13)
(0.03411399215 -0.03853847302 2.585709424e-13)
(0.02474974926 -0.02237616924 1.512401315e-13)
(0.02411496097 -0.02324799419 1.475208844e-13)
(0.01957765364 -0.01766531065 1.124655924e-13)
(0.02016629045 -0.01706527417 1.157546281e-13)
(0.006302356765 -0.004467310464 3.062827769e-14)
(0.005963705341 -0.004508658313 2.899069873e-14)
(0.002652446303 -0.001903669163 1.226796442e-14)
(0.002879494231 -0.00193733316 1.33226763e-14)
(0 0 0)
(0 0 0)
(0 0 0)
(0 0 0)
(0 0 0)
(0 0 0)
(0 0 0)
(0 0 0)
(0 0 0)
(0 0 0)
(0 0 0)
(0 0 0)
(0 0 0)
(0 0 0)
(0 0 0)
(0 0 0)
(0 0 0)
(0 0 0)
(0 0 0)
(0 0 0)
(0 0 0)
(0 0 0)
(0 0 0)
(0 0 0)
(0 0 0)
(0 0 0)
(0 0 0)
(0 0 0)
(-0.001290411774 -0.001138874677 5.606626274e-15)
(-0.001334485032 -0.001121455728 5.800915304e-15)
(-0.001218155591 -0.000972407002 5.301314943e-15)
(-0.00779427306 -0.006796521028 3.716471575e-14)
(-0.008060412766 -0.007398627332 3.841371665e-14)
(-0.01280187355 -0.0123056811 6.407374631e-14)
(-0.01248390675 -0.01140043789 6.250555629e-14)
(-0.02767158509 -0.02943812639 1.629252289e-13)
(-0.02805279798 -0.03140402698 1.649791415e-13)
(-0.03232892835 -0.03832869507 2.018663015e-13)
(-0.03195337896 -0.03600741604 1.998262666e-13)
(-0.03893490518 -0.05372769069 2.994271497e-13)
(-0.03923606735 -0.05691743093 3.00981462e-13)
(-0.03917405139 -0.06156399175 3.255173908e-13)
(-0.03891068055 -0.05819121329 3.242961455e-13)
(-0.03217403657 -0.06479898191 3.595873599e-13)
(-0.03231102173 -0.0682923489 3.596289933e-13)
(-0.02861435796 -0.06844322577 0)
(-0.02848157754 -0.06495607551 0)
(-0.01742814353 -0.0653995261 0)
(-0.01749400231 -0.06714300108 0)
(-0.01566107955 -0.06721589604 0)
(-0.01562797501 -0.06634384112 0)
(-0.01559481576 -0.06547243749 0)
(0.01328641672 -0.06678749283 0)
(0.01320059913 -0.06853096949 0)
(0.01503796603 -0.06860031261 0)
(0.01512435062 -0.06685685896 0)
(0.02762902842 -0.06633602747 3.542721672e-13)
(0.02731297383 -0.06935465539 3.522043768e-13)
(0.02978205763 -0.06671795231 3.383543445e-13)
(0.03023360664 -0.06412244447 3.419348138e-13)
(0.03221250657 -0.05030629767 2.680217159e-13)
(0.03163211431 -0.0520687935 2.638445018e-13)
(0.03007340105 -0.0453858374 2.302047442e-13)
(0.0310502049 -0.04450088634 2.372824159e-13)
(0.02128690672 -0.02433726392 1.305483499e-13)
(0.01994930712 -0.02399095933 1.224159663e-13)
(0.01548996145 -0.01743168729 8.917866445e-14)
(0.0168313056 -0.01800830447 9.68669589e-14)
(0.004231067851 -0.003796378233 2.058075932e-14)
(0.003695229458 -0.003489566481 1.797173521e-14)
(0.001200617364 -0.001077223083 5.551115123e-15)
(0.00151114508 -0.00128798498 6.994405055e-15)
(0 0 0)
(0 0 0)
(0 0 0)
(0 0 0)
(0 0 0)
(0 0 0)
(0 0 0)
(0 0 0)
(0 0 0)
(0 0 0)
(0 0 0)
(0 0 0)
(0 0 0)
(0 0 0)
(0 0 0)
(0 0 0)
(0 0 0)
(0 0 0)
(0 0 0)
(0 0 0)
(0 0 0)
(0 0 0)
(0 0 0)
(0 0 0)
(0 0 0)
(0 0 0)
(0 0 0)
(0 0 0)
(-0.002294752044 -0.002410774137 9.978129434e-15)
(-0.002091977544 -0.00210957211 9.089951014e-15)
(-0.001790260219 -0.001730307629 7.771561172e-15)
(-0.008916455682 -0.009409512467 4.246603069e-14)
(-0.009582201752 -0.01054663074 4.560241074e-14)
(-0.01454940285 -0.0167636545 7.266409696e-14)
(-0.01373199981 -0.01517310123 6.86395385e-14)
(-0.029340721 -0.03770554578 1.719180354e-13)
(-0.02990524614 -0.04006552895 1.749989043e-13)
(-0.03406584205 -0.04829917756 2.113725861e-13)
(-0.03358827725 -0.04568604796 2.08763562e-13)
(-0.04021449485 -0.06675743829 3.060468545e-13)
(-0.04040630231 -0.06987387707 3.067129883e-13)
(-0.04031074347 -0.07539475656 3.309297281e-13)
(-0.04001579302 -0.07188670418 3.295141937e-13)
(-0.03271719907 -0.07875374867 0)
(-0.03285474533 -0.08224038106 0)
(-0.0291524959 -0.08238878362 0)
(-0.02908407141 -0.08064606178 0)
(-0.02901612635 -0.07890315823 0)
(-0.01795109294 -0.0793466737 0)
(-0.01798373333 -0.08021728705 0)
(-0.0170670158 -0.08025342039 0)
(-0.01703446627 -0.07938304675 0)
(-0.002055607987 -0.0801985504 0)
(-0.002083322615 -0.08063229954 0)
(-0.002108121296 -0.08106624811 0)
(-0.001210209171 -0.08109245054 0)
(-0.001156337053 -0.08022545701 0)
(0.01256006183 -0.08071275861 0)
(0.012461094 -0.08244839983 0)
(0.01236141688 -0.08418352548 0)
(0.01604695537 -0.08432386702 0)
(0.01624170033 -0.08085123816 0)
(0.01440156301 -0.08078218832 0)
(0.02620118663 -0.07760017998 3.435307594e-13)
(0.02569506716 -0.07976065053 3.386457781e-13)
(0.02755327078 -0.0750489248 3.183842079e-13)
(0.02832277186 -0.07371847339 3.260169912e-13)
(0.02887653711 -0.05479401313 2.423061751e-13)
(0.02782231204 -0.05511929832 2.338407246e-13)
(0.0258885823 -0.04693482312 1.993127885e-13)
(0.02698941785 -0.04688393077 2.075423167e-13)
(0.01652928331 -0.02282494221 1.015854068e-13)
(0.0155337395 -0.02237467281 9.550693569e-14)
(0.01138123965 -0.0153391071 6.561418076e-14)
(0.01225872192 -0.01583887733 7.065181773e-14)
(0.001747705348 -0.001896671707 8.507083926e-15)
(0.001420779916 -0.001608941065 6.911138328e-15)
(0.0001126758572 -0.0001213553107 5.273559367e-16)
(0.0002152706829 -0.0002221499291 9.992007222e-16)
(0 0 0)
(0 0 0)
(0 0 0)
(0 0 0)
(0 0 0)
(0 0 0)
(0 0 0)
(0 0 0)
(0 0 0)
(0 0 0)
(0 0 0)
(0 0 0)
(0 0 0)
(0 0 0)
(0 0 0)
(0 0 0)
(0 0 0)
(0 0 0)
(0 0 0)
(0 0 0)
(0 0 0)
(0 0 0)
(0 0 0)
(0 0 0)
(0 0 0)
(0 0 0)
(0 0 0)
(0 0 0)
(-0.002176353315 -0.002665873177 9.492406861e-15)
(-0.002459554962 -0.002908019656 1.072752998e-14)
(-0.002628202906 -0.002995835679 1.147693052e-14)
(-0.01061903705 -0.01320891247 5.073719223e-14)
(-0.01027829391 -0.01326233164 4.909961326e-14)
(-0.01535426758 -0.02073633417 7.693845561e-14)
(-0.01576188475 -0.02052095082 7.900624599e-14)
(-0.03132003396 -0.04737768106 1.836308883e-13)
(-0.03082852526 -0.04835949818 1.806055305e-13)
(-0.03496769689 -0.05801528945 2.170208457e-13)
(-0.03544163754 -0.05671623994 2.202127369e-13)
(-0.04137785673 -0.08067165047 3.139849492e-13)
(-0.0410919676 -0.08297232133 3.111538804e-13)
(-0.04071001996 -0.08886205893 3.331640519e-13)
(-0.04089499185 -0.08623355332 3.355510314e-13)
(-0.03285915475 -0.09275107684 0)
(-0.03300061201 -0.0962381185 0)
(-0.02928806689 -0.09638872366 0)
(-0.02921735469 -0.09464560783 0)
(-0.02914660963 -0.092901682 0)
(-0.01800913626 -0.09335349089 0)
(-0.01807988132 -0.09509741672 0)
(-0.01622368976 -0.09517271601 0)
(-0.0161883008 -0.0943003481 0)
(-0.0161529447 -0.09342879018 0)
(-0.01708104048 -0.09339114053 0)
(-0.003159201431 -0.09395590154 0)
(-0.003194555979 -0.09482745952 0)
(-0.003229944161 -0.09569982747 0)
(-0.001373695565 -0.09577512907 0)
(-0.001302950507 -0.09403120324 0)
(0.01169073872 -0.09455831241 0)
(0.01154928147 -0.09804535407 0)
(0.01521401523 -0.09781822322 3.582412145e-13)
(0.0153931805 -0.09463355875 3.593514375e-13)
(0.02422586951 -0.08575887164 3.243655344e-13)
(0.02359121031 -0.08696662424 3.174405183e-13)
(0.02494697966 -0.08028469289 2.928907117e-13)
(0.02570040117 -0.07953045753 3.006345173e-13)
(0.02420349837 -0.053981063 2.041977698e-13)
(0.02322002057 -0.05373450006 1.961764085e-13)
(0.02077798856 -0.04390230413 1.604411048e-13)
(0.02219689617 -0.0452552087 1.713351683e-13)
(0.01172865134 -0.01896692408 7.213674103e-14)
(0.0102246541 -0.01712945134 6.286637877e-14)
(0.006957432619 -0.01091315567 4.010680676e-14)
(0.00792668222 -0.01199557247 4.569955525e-14)
(0.0002925723356 -0.0003727260916 1.429412144e-15)
(0.0001321568059 -0.000174631378 6.52256027e-16)
(0 0 0)
(0 0 0)
(0 0 0)
(0 0 0)
(0 0 0)
(0 0 0)
(0 0 0)
(0 0 0)
(0 0 0)
(0 0 0)
(0 0 0)
(0 0 0)
(0 0 0)
(0 0 0)
(0 0 0)
(0 0 0)
(0 0 0)
(0 0 0)
(0 0 0)
(0 0 0)
(0 0 0)
(0 0 0)
(0 0 0)
(0 0 0)
(0 0 0)
(0 0 0)
(0 0 0)
(0 0 0)
(0 0 0)
(0 0 0)
(-0.0005081792531 -0.0007094877275 2.220446049e-15)
(-0.0009221737033 -0.001247964553 4.024558464e-15)
(-0.001370172954 -0.001795511181 5.981326545e-15)
(-0.007874039942 -0.01127224877 3.763656053e-14)
(-0.006726054931 -0.009949815086 3.216871214e-14)
(-0.01097095105 -0.01699718939 5.503930645e-14)
(-0.0124134421 -0.01860663811 6.224187832e-14)
(-0.02702083226 -0.04704844816 1.582345366e-13)
(-0.02504386313 -0.04509278734 1.467576061e-13)
(-0.02915204519 -0.05549430581 1.808830863e-13)
(-0.0311666829 -0.05737348997 1.93262073e-13)
(-0.03823996494 -0.08542747897 2.884914529e-13)
(-0.03655968373 -0.08440306242 2.758210327e-13)
(-0.03701677483 -0.09218888207 3.013006511e-13)
(-0.03845178546 -0.09271092783 3.131106485e-13)
(-0.03303098906 -0.1055632019 3.557432127e-13)
(-0.03257047688 -0.1072359169 3.498729084e-13)
(-0.02957390703 -0.1094151748 3.565758799e-13)
(-0.029692987 -0.1067886426 3.594069486e-13)
(-0.01857503101 -0.1073032775 0)
(-0.01871652112 -0.1107911292 0)
(-0.015004057 -0.1109417311 0)
(-0.01486256688 -0.1074538794 0)
(-0.01671883944 -0.1073785768 0)
(-0.003725093514 -0.1079056883 0)
(-0.003866583629 -0.11139354 0)
(-0.0001540952064 -0.1115441428 0)
(-1.26050907e-05 -0.1080562911 0)
(0.01105380809 -0.1075370465 3.564232243e-13)
(0.01079508809 -0.1092612707 3.508859869e-13)
(0.01406992123 -0.1060358606 3.401168236e-13)
(0.01446627579 -0.105208084 3.48263085e-13)
(0.02155379035 -0.0883113149 2.916000774e-13)
(0.02062427297 -0.08717311402 2.789990461e-13)
(0.02126356329 -0.07817963545 2.50161003e-13)
(0.02235714012 -0.0797261662 2.63178368e-13)
(0.01922421092 -0.04910482933 1.623146062e-13)
(0.0178685928 -0.04703495275 1.507127756e-13)
(0.01522266277 -0.03657719183 1.173089403e-13)
(0.01655887315 -0.03860672238 1.277450368e-13)
(0.00654966709 -0.01211414766 4.024558464e-14)
(0.005628994212 -0.01073672392 3.455569164e-14)