/*--------------------------------*- C++ -*----------------------------------*\
| =========                 |                                                 |
| \\      /  F ield         | OpenFOAM: The Open Source CFD Toolbox           |
|  \\    /   O peration     | Version:  v1912                                 |
|   \\  /    A nd           | Website:  www.openfoam.com                      |
|    \\/     M anipulation  |                                                 |
\*---------------------------------------------------------------------------*/
FoamFile
{
    version     2.0;
    format      ascii;
    class       surfaceScalarField;
    location    "0.37";
    object      phi;
}
// * * * * * * * * * * * * * * * * * * * * * * * * * * * * * * * * * * * * * //

dimensions      [0 3 -1 0 0 0 0];
oriented        oriented;


internalField   nonuniform List<scalar> 
25162
(
0.0004314773409
0.9162185227
0.0005286337122
0.9166028436
0.0006106710643
0.9165679626
0.0002941628334
0.9166055191
0.0003609891379
0.4583400562
0.0003041066591
0.4583123587
0.0003686482867
-0.0003810069746
-0.0004660729293
0.4582909603
0.0005251126189
-0.0005807489995
0.4582416263
0.0006741227097
-0.0007753565421
0.4582208416
0.0008845149465
-0.001010317955
0.4581997971
0.001145520879
-0.001281437087
0.4581996673
0.001416769777
-0.001549471548
0.458225814
0.001655157522
-0.001738263083
0.4582835664
0.001788196632
-0.001799556028
0.4583616922
0.001772863785
-0.001714169262
0.4584212785
0.001622890789
-0.001516806713
0.4584536686
0.001398138064
-0.00126368262
0.4584587933
0.00113988927
-0.00101570913
0.4584653008
0.0008654083116
-0.0008129497848
0.4584399042
0.0007230455818
-0.0005965870248
0.45845447
0.0004921170352
-0.001771090685
0.918601044
0.0002612300095
-0.0004411833144
-0.001102253612
0.9186811629
-1.135251693e-05
0.9157590989
0.9137886475
0.00118701862
0.915031504
0.001869332189
0.9159205301
0.002098421488
0.9163388733
0.0005709341523
0.9171665631
0.0009664433436
0.4580966707
0.0006796327165
-0.4582053693
-0.4581978603
-0.000828442701
0.4580108834
0.00101541961
-0.4580619871
-0.001247348445
0.4577821326
0.0007184414889
0.0008087615155
-0.2289748649
-0.0008728041594
0.2289005222
0.00094714686
-0.001268850038
-0.2289184423
0.228820435
0.001366857272
-0.001772890408
-0.2288709427
0.2287418713
0.001901961863
-0.002368191498
-0.2288635794
0.2287192757
0.002512495137
-0.002956255967
-0.2289156129
0.2287901432
0.003081806761
-0.003299553849
-0.2290429547
0.2289441869
0.003398187782
-0.003544248773
-0.2292026348
0.2291924554
0.003554428128
-0.003365484008
-0.2293080795
0.2293878813
0.003285682193
-0.002936308951
-0.2293717558
0.2295059542
0.002802110532
-0.002391376029
-0.2293808289
0.2295304481
0.002241756831
-0.001855008617
-0.2293541229
0.2294896657
0.001719465856
-0.4588125389
-0.002582840243
0.460164339
0.001231040076
8.864019578e-06
0.4608461344
-0.001641281977
-0.4592137164
-0.001865719811
0.9179725454
0.0006624277985
0.001831790644
-0.001131063935
0.9179465071
0.0002913401232
0.9143366949
0.9140799876
0.001505890884
0.9135256132
0.004030283225
0.9133961377
0.006797339197
0.9135718174
0.002744146755
0.9150205334
0.006199222115
-0.4580793967
0.4579265782
0.002896965327
-0.4578577338
-0.002849601571
0.4585440943
0.002163241031
-0.4574010542
-0.002199864584
0.457225512
0.001150070228
0.001225336468
-0.2285404911
-0.001427516509
0.2283841943
0.00158381325
-0.2283248908
-0.002148305718
0.22810424
0.002368956478
-0.2281370967
-0.002980929713
0.2286223141
0.002501319342
-0.229383139
-0.0008114561458
0.229821582
0.0003970329054
-0.2292726466
0.0003387170016
0.2293779084
-0.0004264410563
-0.2284857106
0.000239523116
0.2282946569
-5.149045176e-05
-0.2279918371
-0.0008675401459
0.2275576946
0.001280202511
-0.2286532598
-0.002865332084
0.2280041582
0.003492326755
-0.2301213768
-0.005373505344
0.2302411091
0.005252584764
-0.2301711443
-0.004398644417
0.230458988
0.004110800757
-0.003018640013
-0.2301110322
0.2307398892
0.002389783064
-0.462683585
0.000731685141
0.4613827319
0.0005691679893
-0.4598685103
-0.0008181901684
0.4597687849
0.0009179156338
-0.0001594769903
0.9195432449
-0.0008663357869
-0.0005448867361
0.001435992634
0.9163510374
0.0006722461323
0.9151004414
0.9147522337
0.0005142813755
0.9130113318
0.001113900754
0.9127965183
0.002290529618
0.9123951885
0.003095543362
0.9121481215
0.002067398122
-0.4572015748
0.4568054595
0.00349165868
-0.4601336009
-0.004657519119
0.4571406617
0.007650458347
-0.4587691511
-0.008841608624
0.4604077797
0.0019211435
0.005281836481
-0.2278107018
-0.001856532455
0.2276362738
0.002030960509
-0.2277338806
-0.002503978707
0.2285192059
0.001731955361
-0.230632406
0.0003297525237
0.2312089588
-0.0008469595901
-0.2307913263
0.001717907516
0.2308983911
-0.001762060983
-0.2292594017
0.001288245227
0.2290039555
-0.0009979746446
-0.2275905629
4.479526285e-05
0.2273093227
0.0002306827014
-0.2264584454
-0.0008619457652
0.2262417209
0.001034009128
-0.2262997715
-0.001694824203
0.2259070802
0.00202103756
-0.2281152762
-0.003415346768
0.2274891253
0.003989166393
-0.2338658059
-0.001164044413
0.2374203758
-0.00239261468
-0.003050074155
-0.2314540619
0.2314116746
0.003092461418
-0.4612210705
-0.004719595663
0.4622645224
0.003676143857
-0.4603904957
-0.002602146184
0.461269547
0.001723094892
0.002632112628
0.9192825598
-0.001272777045
-0.001098650506
0.001890728292
0.9170924218
0.0008779595026
0.9161132101
0.9156301932
0.0001461995883
0.9128651322
0.0003345505049
0.9126081674
0.0006593725903
0.9120703664
0.001227357717
0.9111539293
0.000426207076
-0.4565670883
0.4558052305
0.001989215483
-0.4557720193
-0.002368583298
0.4552009004
0.002939702201
-0.4544055865
-0.003729204753
0.453725393
0.00234558954
0.002063808743
-0.2283701118
-0.004121757242
0.2266621768
0.005830363695
-0.2315539842
-0.00621074041
0.2344211492
0.00341567035
-0.2323597214
0.001359578628
0.2325558918
-0.001450303824
-0.2301734722
0.0003252675234
0.2294941386
0.0004388357103
-0.2271792319
-0.003511465835
0.2260979078
0.004631528185
-0.2262552096
-0.007301100767
0.2257976963
0.007752663244
-0.2264032604
-0.007509475062
0.2269980184
0.006862986387
-0.2257608147
-0.003855182841
0.2263241934
0.003197044896
-0.2344201559
0.006093370149
0.229854682
-0.001624988054
-0.2294176076
-0.003381004453
0.2288145067
0.003928199547
-0.004709458812
-0.2326177332
0.2330929574
0.00423423454
-0.4637487315
-0.005598625009
0.4651627519
0.00418460468
-0.4620905897
-0.003192430301
0.4629344761
0.002348543894
0.003450223857
0.9209480813
-0.002933018158
-0.002182727145
0.001906516898
0.9186361287
0.0008700002082
0.9171497268
0.9165001935
-0.0001037545835
0.9129688868
-0.0001192830023
0.9126236958
8.854674761e-05
0.9118625367
0.0002421138267
0.91074125
0.0002591122539
-0.4549546119
0.4546727342
0.0005239914872
-0.4547471551
-0.001450583449
0.4540310686
0.002166669965
-0.4529949988
-0.002650249097
0.4520639793
0.001757738067
0.001823530599
-0.2279336017
-0.001527396587
0.2285313109
0.0009666028611
-0.2324295747
0.0002949274249
0.2327374039
-0.000487967178
-0.2332938426
-0.002006996836
0.2312369191
0.004190177236
-0.2270614076
-0.00940761563
0.2276981024
0.008845636495
-0.2212448689
-0.01484085843
0.2202013552
0.01590277863
-0.2238011737
-0.02218821486
0.2229345295
0.02305363173
-0.2321245022
-0.01833583931
0.2333875637
0.01704329426
-0.2360104683
-0.005147319456
0.2345039525
0.006561262554
-0.2266809262
-0.005857933137
0.2273606058
0.005050937528
-0.2278659782
-0.003846304011
0.227893012
0.003715382369
-0.003746051391
-0.2340926509
0.2339995285
0.003824464798
-0.4663880176
-0.005954802949
0.4676376642
0.004705156334
-0.4633929638
-0.003791616041
0.4638131479
0.003371431993
0.002935930614
0.9230504195
-0.002442131351
-0.002596137474
0.001619641028
0.9199524183
0.0006730355907
0.9180963323
0.917173229
-0.0004788021237
0.9134476889
-0.0008339350374
0.9129788288
-0.001048209534
0.9120768112
-5.722243009e-06
0.9104126357
-0.0007138730019
-0.4545587234
0.4542717336
0.0002812674767
-0.4530240685
-0.0004960767006
0.4526859335
0.0008342117279
-0.4517579584
-0.001762579017
0.4514518123
0.0009999724609
0.001068856891
-0.2297236996
-0.0003356910054
0.230119602
7.337020842e-06
-0.234086076
0.0005227520946
0.2332049202
0.0005021338108
-0.2286672589
-0.001336017832
0.2280691407
0.002059937281
-0.218707923
-0.006726284666
0.2156283109
0.009849117173
-0.2135332627
-0.02402408076
0.1087624779
0.1032162543
0.01077839361
0.01480021767
-0.01861408344
-0.1088178003
0.1082010922
0.01923079149
-0.01537110911
-0.2446520986
0.02962564208
-0.01567727869
0.122569323
0.1235055213
-0.02033279942
-0.2386663526
0.2420866958
0.0168508855
-0.2310390387
-0.009175552983
0.2328909068
0.007188454038
-0.2287087189
-0.004088677953
0.2289561645
0.003714114101
-0.003330413022
-0.2330009934
0.2329181935
0.003364123082
-0.4688935851
-0.005245817153
0.4696328416
0.00450656059
-0.4646976205
-0.00340920933
0.4655898618
0.002516968046
0.001793132955
0.9245919941
-0.001576308184
-0.00175839945
0.0008570172548
0.920888534
0.0003253386041
0.9186280109
0.9174985676
-0.000865051603
0.9143127405
-0.001678827034
0.9137926042
-0.002300500311
0.9126984845
-0.001170014371
0.9109739329
-0.001691783119
-0.4542416308
0.45424375
-0.001172133577
-0.4525394018
0.001223336332
0.4524455992
-0.001129533813
-0.4503469393
0.0009753722376
0.4503173858
-0.0003551236605
-0.0005849115504
-0.2308329385
-1.419505022e-05
0.230909302
2.223617792e-05
-0.2333466722
-4.738022507e-06
0.2336080699
-0.0001085919821
-0.226533574
-0.0003212965292
0.2262841718
0.0006884777751
-0.2111215465
-0.002222498313
0.2105678378
0.002790193153
-0.09835311323
-0.002097468835
0.0985503661
0.001900215961
-0.02373863975
-0.1329945535
0.1354564658
0.02127672746
-0.0216569539
-0.2537598335
0.2574817101
0.01790323607
-0.2373868575
-0.01046864159
0.2388892914
0.008839718761
-0.2305790651
-0.005523203327
0.2312027737
0.004756410742
-0.002286775934
-0.2332273987
0.2332576204
0.002189128735
-0.4707616775
-0.003390014217
0.4717050491
0.002446642641
-0.4663147718
-0.00177753716
0.4669384328
0.001153876164
-0.000105725318
0.9253837755
-9.825488918e-05
-0.0005878011346
-0.0003001525772
0.9210829613
-0.0002026421805
0.9185305005
0.9172959255
-0.001240621785
0.9155533623
-0.002407204034
0.9149591865
-0.003638291111
0.9139295715
-0.002099722527
0.9120442585
-0.002608894133
-0.4544244588
0.4545956458
-0.002270909532
-0.4525128328
0.002468971208
0.4526952175
-0.002651355939
-0.4503489175
0.002813071226
0.4506633019
-0.001463737143
-0.001649828274
-0.2317710674
0.001936260526
0.2319699832
-0.002049294125
-0.2338712172
0.002280611718
0.2340429204
-0.002311324408
-0.2260340599
0.002336525592
0.2261651864
-0.002361405507
-0.2108417589
0.002732088949
0.2112280287
-0.003112647822
-0.1020530374
0.00284559305
0.1024487193
-0.003241274935
-0.01072538564
-0.1483301216
0.1491080494
0.009947457867
-0.01040384778
-0.2663310252
0.268060728
0.00865717244
-0.2428913513
-0.004755846478
0.2437014752
0.003831349045
-0.2324928288
-0.001821335059
0.2327172557
0.001458345971
-0.0007616595128
-0.2336196066
0.2336494967
0.0006570441238
-0.4729116246
-0.0006607566802
0.4739152716
-0.0003428903471
-0.467268692
0.0008113285715
0.4674732894
-0.001015925925
-0.002405668129
0.9249580622
0.001627334273
0.001204047167
-0.001726859898
0.920404153
-0.000905182288
0.9177088229
0.9163907432
-0.001579189014
0.9171325513
-0.003262486929
0.9166424844
-0.004867205412
0.91553429
-0.003021862624
0.9137398516
-0.003540935889
-0.4549500165
0.4552985721
-0.003370418224
-0.4529433896
0.003769606596
0.4534037429
-0.004229959868
-0.4511338081
0.004655331985
0.4519188005
-0.002530939482
-0.00289008891
-0.2327019379
0.003213938692
0.2330095883
-0.003438032683
-0.2347998397
0.004068221477
0.2351229667
-0.004259303564
-0.2268787783
0.004793354288
0.2271692216
-0.004987481694
-0.2124634733
0.005706943212
0.2128403344
-0.00608084886
-0.103896923
0.003705758035
0.104011762
-0.001900593221
-0.001920003821
0.00550860757
-0.1484402839
0.1477018002
-0.004770123816
0.004968249774
-0.2687503831
0.2677533685
-0.003988435748
-0.2439981152
0.002357862301
0.243621558
-0.002090855376
-0.2329012185
0.001683521984
0.2327151441
-0.001630158364
0.001550243079
-0.2338322723
0.2337692914
-0.00155878622
-0.4739555369
0.003381813362
0.4735414597
-0.00296773618
-0.4673324463
0.00289295746
0.4677117311
-0.003272242339
-0.004982444741
0.9232499066
0.003632665207
0.003057935082
-0.00328571903
0.9187074273
-0.001669339254
0.9160924431
0.9147214039
-0.002005905816
0.9191384571
-0.003990969091
0.9186275477
-0.006095211269
0.9176385322
-0.003919684429
0.915992097
-0.004427772306
-0.4558195701
0.4563358241
-0.004435938366
-0.4539218989
0.005071179192
0.4544915652
-0.005640845456
-0.453070303
0.006303697781
0.4544948693
-0.003756716088
-0.00394528359
-0.2340969209
0.004389011238
0.2345059021
-0.004716793024
-0.2362465564
0.005666619765
0.2366655742
-0.005962495407
-0.2281478559
0.006809706423
0.2285059322
-0.007081296603
-0.21390851
0.007882446251
0.2142597496
-0.00823267974
-0.1046357903
0.004559486057
0.1046913708
-0.002295653231
-0.00231941333
0.01489743007
-0.140591893
0.1394212306
-0.01372676763
0.01652254047
-0.2618809229
0.2590965165
-0.01376599868
-0.2406981325
0.007640719267
0.2401650956
-0.007215338733
-0.2315909119
0.005227515491
0.2310435136
-0.004803909363
0.004142032761
-0.2337412625
0.2336085131
-0.004068949574
-0.4727893766
0.007276235087
0.4717374613
-0.006224319852
-0.4679610353
0.005282117875
0.4671081071
-0.004429189666
-0.0073819348
0.9204646631
0.005279007767
0.004888170546
-0.004808499753
0.9161339923
-0.002368340356
0.9136522838
0.9123530636
-0.002397580409
0.9215360376
-0.004798893615
0.9210288609
-0.007301815106
0.9201414537
-0.004740835513
0.9185002743
-0.005069156797
-0.4569951186
0.4576438341
-0.005389550973
-0.4552528845
0.006136695445
0.4560496678
-0.006933478746
-0.4559550566
0.007793779941
0.4573618445
-0.00464519754
-0.004520862337
-0.2358611329
0.005468158996
0.2363644671
-0.00589329516
-0.2380437001
0.007102277008
0.2385421371
-0.00748706352
-0.2296732097
0.008549348158
0.2300870559
-0.008886701427
-0.2154287251
0.009856451442
0.2158892296
-0.01031688008
-0.1050439954
0.005691068253
0.1051050212
-0.002857736425
-0.002894357622
0.01846568925
-0.1313633417
0.1301822706
-0.01728461812
0.0218609899
-0.2503519926
0.2472892021
-0.01884098073
-0.2357540504
0.01308236372
0.2330253116
-0.01045979086
-0.2288624918
0.006752727452
0.2279357628
-0.005940425382
0.006108243651
-0.2331332072
0.2329359416
-0.005954795915
-0.4704327516
0.0105337545
0.4688860131
-0.008987015957
-0.4661922167
0.007639057752
0.4650451788
-0.006492019922
-0.009540133666
0.9183278117
0.006098019834
0.005578965237
-0.006144606181
0.9127384648
-0.002983233864
0.9104909114
0.9093698297
-0.006430083219
0.9279661208
-0.01301868366
0.9276174613
-0.01967079995
0.92679357
-0.005664793628
0.9255186841
-0.02102441611
-0.4584337974
0.4592521675
-0.006483163687
-0.4568726404
0.007369298312
0.4578718753
-0.008368533213
-0.4594804622
0.009335273094
0.4613009797
-0.005599950597
-0.005507524564
-0.2377866817
0.007015504311
0.2385739088
-0.007730679724
-0.24010532
0.008522053938
0.2404727149
-0.00878665386
-0.2313980893
0.009504409013
0.2323261486
-0.01036433229
-0.2175932398
0.01164515905
0.2182760741
-0.006121024061
-0.006206969216
-0.0529700281
0.00354874187
0.05300047038
-0.003579184154
-0.05801444313
0.006665375133
0.05753711858
-0.01300868238
0.006820631795
0.01725718758
-0.1230938462
0.2428890732
-0.03094994119
0.01693059884
-0.1230330722
-0.2389533585
0.02141132187
0.2353224268
-0.01783865557
-0.2276205056
0.01285938582
0.2262051096
-0.01155146576
-0.2258709463
0.009215692452
0.2253117352
-0.008750951461
0.00788848468
-0.2328428489
0.2326173855
-0.007684636411
-0.4670157772
0.01270233945
0.4651478279
-0.01083439007
-0.4638581416
0.009427913471
0.4625612809
-0.008131052744
-0.01123884923
0.9150506687
0.007476702682
0.007039289639
-0.007238087074
0.9087377027
-0.003563060133
0.9068158845
0.9058067696
-0.002869127815
0.9308352486
-0.005814266916
0.9305626004
-0.008915303411
0.9298946065
-0.006056267278
0.9288679346
-0.006208286611
-0.4620779592
0.4629392752
-0.006917583244
-0.4606689627
0.007881207008
0.4616997758
-0.008912020117
-0.463813286
0.01002592098
0.4642520616
-0.005287944843
-0.00511813296
-0.2404767705
0.005587750607
0.2407635571
-0.005797754026
-0.2423497373
0.006718162254
0.2428910019
-0.007159372732
-0.2333755332
0.009034049193
0.2342825778
-0.009881234239
-0.2211317081
0.01316371742
0.2220472493
-0.007023209949
-0.007056048693
-0.05444732739
0.008889991194
0.1092799815
-0.05436736744
-0.00464942544
-0.00470585242
-0.1118675072
0.00943056737
0.1118134984
-0.01856603662
0.009189478084
0.03090239845
-0.2364247899
0.2341034818
-0.02858344359
-0.2277412614
0.01678196746
0.2260865276
-0.01519508875
-0.223413633
0.01198106816
0.2215264372
-0.01019278233
-0.2240612836
0.007777345951
0.2249716119
-0.00876134797
0.008571531796
-0.2327658185
0.2325017016
-0.008310713272
-0.4635307001
0.01351582765
0.4621074182
-0.0120925457
-0.4612479177
0.01070928
0.45969727
-0.009158632258
-0.01069849889
0.9109327708
0.007338552053
0.007477844757
-0.00793525299
0.9059744568
-0.003882134144
0.9027627657
0.9019246355
-0.00302513247
0.9338603811
-0.006127006488
0.9336644745
-0.009384407474
0.9331520075
-0.006381054802
0.9323606544
-0.006496072513
-0.4638923988
0.4648262521
-0.007314908053
-0.4627550981
0.008326751837
0.4638268064
-0.009398460045
-0.4639981744
0.01055114016
0.4635931527
-0.005013276516
-0.005107631064
-0.2407690458
0.004167859957
0.2404689648
-0.003802083897
-0.2441263172
0.003269116057
0.2443356131
-0.003382243835
-0.2376256374
0.005025518781
0.2387508623
-0.006080428214
-0.2265310226
0.0110107783
0.2287952641
-0.01326012785
-0.1121916405
0.01781802394
0.2228351221
-0.01713684157
-0.111324664
-0.2263013813
0.02325040335
0.2269054674
-0.02385448945
-0.2277069265
0.02084737291
0.2258879515
-0.01905303477
-0.2205157642
0.01454865783
0.2193400067
-0.0134488675
-0.2177018565
0.0113724083
0.2172692666
-0.01103079504
-0.2242184666
0.01070360319
0.2232854704
-0.009820008453
0.01036374215
-0.2323166683
0.2300445223
-0.008091596198
-0.4608772896
0.01518977953
0.4579905335
-0.01230302347
-0.4581179547
0.01104250135
0.456285325
-0.009209871643
-0.01109062813
0.9069068998
0.007636116824
0.00748038224
-0.007993907769
0.9028777364
-0.004089900165
0.8988587581
0.8978347353
-0.003108147088
0.9369685282
-0.006287573469
0.9368439009
-0.009610097123
0.9364745312
-0.006542698729
0.9359014167
-0.006608160694
-0.4657850088
0.4667424056
-0.007500095566
-0.4648996703
0.008518103552
0.4659675041
-0.009585937366
-0.4638603559
0.01072488774
0.4650575622
-0.005946768464
-0.0059751813
-0.2386395111
0.004202006004
0.2377357867
-0.003257899749
-0.2440548415
0.0008575806592
0.2436102073
-0.0003325025222
-0.2413555169
4.34031063e-05
0.2418280902
-0.0004404892214
-0.2342372072
0.003042064951
0.235495
-0.004258315794
-0.2227435592
0.007740787271
0.2231597611
-0.008146193105
-0.2261970258
0.0105892538
0.2259838388
-0.01038673369
-0.2220273633
0.008618882426
0.2213054866
-0.007939710431
-0.2171926093
0.00655020465
0.2169865679
-0.006417250124
-0.2172648083
0.007065267171
0.2177006578
-0.007571879756
-0.2243051766
0.009544577155
0.2249688594
-0.01023355052
0.009819572693
-0.2283095386
0.2277791794
-0.009289213399
-0.45749149
0.01557699638
0.4550256994
-0.01311120572
-0.4536210267
0.009914839794
0.4522313043
-0.008525117351
-0.01029887316
0.9014068441
0.008164576982
0.007634351907
-0.005589875597
0.8981687389
-0.004151333027
0.8974202155
0.8936834023
-0.003123654001
0.9400921822
-0.006309770685
0.9400300176
-0.009618275154
0.9397830356
-0.006557816001
0.9393959614
-0.006555003897
-0.4676825771
0.4686248608
-0.007500099701
-0.4670168347
0.008490025829
0.4680442985
-0.009517489718
-0.4662474108
0.01060080168
0.4673953251
-0.005893141401
-0.005855574588
-0.2343298073
0.00648556606
0.2333550711
-0.005505172215
-0.2411809509
0.00157332409
0.2400449814
-0.0003878326787
-0.2418086027
-0.002299859305
0.2413372445
0.00283320138
-0.2376031452
-0.003312880828
0.2377996704
0.003161977866
-0.2247684193
-0.002357455587
0.2253135232
0.001829382604
-0.2260053422
-0.000724936845
0.2262399938
0.0004770950204
-0.2207552539
0.0002077946851
0.2210527351
-0.0005464412362
-0.2178976265
0.002227748541
0.2186626573
-0.003047561136
-0.2201871564
0.006179918132
0.2213383668
-0.007369622469
-0.226994809
0.0107220729
0.2266339433
-0.01036147334
0.009055712868
-0.2263675641
0.225940531
-0.008628679752
-0.4515604945
0.01469402362
0.4500510302
-0.01318455927
-0.4508483321
0.01173672872
0.4494452016
-0.01033359824
-0.009517954125
0.8950015315
0.008859364856
0.007063901926
-0.005216776795
0.8938675616
-0.003797430063
0.8960008688
0.8898859722
-0.00308236939
0.9431745516
-0.006216365798
0.943164014
-0.009447755056
0.9430144249
-0.006444116025
0.9427743684
-0.006382045978
-0.4695344787
0.4704354197
-0.007345057035
-0.4690398899
0.008283285651
0.4700031799
-0.009246575654
-0.4684950344
0.01024889776
0.4695416012
-0.005680690533
-0.005614773984
-0.2339917189
0.00623241532
0.2342752141
-0.006515910594
-0.2360065832
0.006543722957
0.2345695563
-0.005097644612
-0.238814883
0.001071789271
0.2377124248
6.230835667e-05
-0.2371942141
-0.002586890322
0.2366895031
0.003122158026
-0.2265490743
-0.003933282872
0.2267995849
0.003696208907
-0.2273083218
-0.002851873257
0.2277649148
0.002386621972
-0.2230340358
-0.0002363607628
0.2239526145
-0.0007072148673
-0.2219606854
0.004182752971
0.2232723014
-0.00551889789
-0.2253304968
0.009754464596
0.2260411205
-0.01046779047
-0.2254904485
0.009544575559
0.225160974
-0.00921510104
0.008205093664
-0.2248104554
0.2244676536
-0.007862291844
-0.4486548014
0.01357182155
0.4473686637
-0.01228568381
-0.4481498701
0.01102218358
0.4469010913
-0.009773404779
-0.01243073487
0.8905170128
0.00834988278
0.008565370708
-0.008168777254
0.889605604
-0.001215894847
0.8890479864
0.8886700774
-0.002995359715
0.9461699113
-0.006030466065
0.9461991203
-0.009136157683
0.9461201165
-0.006226455419
0.9459856691
-0.006121003016
-0.4712984088
0.4721447443
-0.00707279096
-0.4709270112
0.007946024166
0.4718134646
-0.008832477543
-0.4705328456
0.009742698109
0.4714684796
-0.005380861543
-0.005297470604
-0.2350664096
0.005865524294
0.2353113147
-0.006110429381
-0.2347229824
0.006848004978
0.2349679426
-0.007092965165
-0.234208554
0.007818089025
0.2343040895
-0.007913310957
-0.2346972665
0.005676677961
0.2339760311
-0.004948682581
-0.2268859366
0.003521479875
0.2266256979
-0.003256726945
-0.2292593909
0.00429935362
0.2297544262
-0.004796753978
-0.2270083439
0.007142644904
0.2280125637
-0.008151052242
-0.226673161
0.00995446845
0.2265411702
-0.009822477739
-0.2253200558
0.009306657342
0.2251139388
-0.009100540403
-0.2242981366
0.008405160798
0.2240465916
-0.00815361586
0.007361505186
-0.22356227
0.2232841213
-0.007083356453
-0.4461848701
0.0123674526
0.4450960506
-0.01127863307
-0.4457577052
0.01018679009
0.4446593855
-0.009088470336
-0.01166934478
0.8864241794
0.007754051926
0.008008126282
-0.007707583937
0.8856438431
-0.00382874521
0.8851691477
0.8848413322
-0.002874192317
0.9490441036
-0.005776413388
0.9491013414
-0.008723776141
0.9490674793
-0.005936128448
0.9489999152
-0.005801893739
-0.4729508446
0.4737355349
-0.006720818786
-0.4726576875
0.007523282613
0.4734633266
-0.008328921738
-0.4723506536
0.009145559368
0.473178981
-0.005029593114
-0.004944293635
-0.2359909699
0.005452990402
0.2362007823
-0.005662802814
-0.2356333273
0.006281170998
0.2358340068
-0.006481850477
-0.2349296524
0.007061106536
0.2351136757
-0.007245129903
-0.2339285075
0.007758856897
0.2340813063
-0.007911655778
-0.2256713929
0.008078423723
0.2254692122
-0.007876243076
-0.2304255421
0.008751828935
0.2304608011
-0.008787087907
-0.2282950243
0.008803666256
0.2282657
-0.008774341912
-0.2261997619
0.008578125288
0.2261006143
-0.008478977689
-0.2245771072
0.00809127453
0.2244208602
-0.00793502755
-0.223380079
0.00739993971
0.2231832569
-0.007203117596
0.006571177292
-0.2225528537
0.2223254428
-0.006343766331
-0.4440934918
0.01118078962
0.4431688388
-0.01025613667
-0.4436578645
0.009314412268
0.4426957102
-0.008352257922
-0.01081800027
0.8827263207
0.007125889435
0.007389969543
-0.00717826436
0.8820041072
-0.003575216987
0.8815661003
0.8812661152
-0.002730183817
0.9517742875
-0.005477796664
0.9518489543
-0.008247971671
0.9518376543
-0.00560055117
0.9518029824
-0.005450487698
-0.4744800156
0.4752018382
-0.006322373852
-0.474227175
0.007053901532
0.4749540094
-0.007780735933
-0.4739556329
0.008508696662
0.4746835018
-0.004655866743
-0.004580698847
-0.2367825301
0.00502863626
0.2369621838
-0.005208289981
-0.236380399
0.005727871442
0.2365457623
-0.005893234804
-0.2356045458
0.006361208258
0.2357503001
-0.006506962576
-0.2344798508
0.006906571842
0.234595145
-0.0070218661
-0.2250089507
0.007069109695
0.2248985585
-0.006958717558
-0.2305372664
0.007642011806
0.2305547422
-0.007659487624
-0.2281800643
0.007649156853
0.2281521667
-0.00762125928
-0.2258364104
0.007459251362
0.2257575218
-0.00738036282
-0.2240058943
0.007074897895
0.2238827745
-0.006951778062
-0.2226553455
0.006526948131
0.2224974772
-0.006369079836
0.005855520651
-0.2217286619
0.2215410993
-0.005667958037
-0.4423145965
0.0100634868
0.441524825
-0.009273715341
-0.4418200922
0.008459425485
0.4409774042
-0.007616737434
-0.009940757667
0.8794025891
0.006501936307
0.006762552922
-0.00662180626
0.8786851558
-0.003305511214
0.8782498053
0.877960604
-0.002572747705
0.9543470352
-0.005153835446
0.954430042
-0.007738653797
0.9544224726
-0.005240340598
0.9543918796
-0.005087210363
-0.4758839591
0.4765453719
-0.005901753438
-0.4756415295
0.006565645462
0.4762948851
-0.007219001055
-0.4753654562
0.007866672945
0.476004558
-0.004284801153
-0.004220973556
-0.2374606554
0.004613122256
0.2376148547
-0.004767321482
-0.2369979587
0.005206307495
0.2371354413
-0.00534379014
-0.2361426746
0.005726915166
0.2362602759
-0.005844516521
-0.2348964725
0.006162087807
0.2349836698
-0.006249285099
-0.2246709498
0.006233864414
0.2246242374
-0.00618715197
-0.2305881279
0.006722210256
0.2305938273
-0.006727909629
-0.2280700924
0.006700701862
0.2280432275
-0.006673836973
-0.2255425542
0.006534324673
0.2254770744
-0.006468844881
-0.223550223
0.006218897901
0.2234499719
-0.006118646845
-0.2220689973
0.005771860494
0.2219393899
-0.005642253057
0.005216863167
-0.2210460828
0.220888993
-0.00505977337
-0.4407932486
0.009035404366
0.4401145861
-0.008356741866
-0.4402107472
0.007649549443
0.4394712242
-0.006910026471
-0.009078922339
0.8764230312
0.00590618271
0.006152297568
-0.006067282758
0.8756735162
-0.003034562225
0.8752170847
0.8749260417
-0.002410546298
0.9567575815
-0.004821962482
0.9568414582
-0.007222459821
0.95682297
-0.004877512388
0.9567740959
-0.004727163757
-0.4771674382
0.4777716449
-0.005481719153
-0.4769124959
0.006083103051
0.4774994154
-0.006670022483
-0.4766038992
0.00724663164
0.4771663147
-0.003931687571
-0.00387735954
-0.2380436734
0.00422145957
0.2381767402
-0.004354526382
-0.2375134452
0.004728422312
0.2376290163
-0.00484399347
-0.2365799688
0.005162372234
0.2366767419
-0.005259145305
-0.235211534
0.005516148926
0.2352774604
-0.005582075248
-0.2245527767
0.00553587186
0.2245482704
-0.005531365633
-0.2305978373
0.005954415514
0.2305954406
-0.005952018866
-0.2279639256
0.005913607317
0.2279379009
-0.005887582543
-0.2252956468
0.005763913439
0.2252395498
-0.005707816447
-0.2231752743
0.005496984999
0.2230913396
-0.005413050291
-0.2215837713
0.00512295543
0.2214750786
-0.005014262671
0.004655459318
-0.2204718621
0.2203383097
-0.004521906993
-0.4394833492
0.008110581168
0.4388953205
-0.007522552458
-0.4387977176
0.006904582653
0.4381461561
-0.006253021224
-0.008262240482
0.8737527864
0.00535281405
0.005579671157
-0.005536106858
0.8729473826
-0.002773444667
0.8724544226
0.8721525971
-0.002249843591
0.9590074251
-0.004494627837
0.9590862424
-0.006717596173
0.9590459383
-0.004524301564
0.9589621996
-0.004381398372
-0.4783379726
0.4788893888
-0.005075717764
-0.4780544444
0.005620618615
0.4785824277
-0.006148601898
-0.4776943466
0.006663417711
0.4781913565
-0.003605025935
-0.003555401624
-0.2385478579
0.003860542604
0.238663427
-0.003976111728
-0.2379485875
0.00429746084
0.2380469028
-0.004395776234
-0.2369423091
0.004664524399
0.2370234759
-0.004745691164
-0.2354497807
0.004956797468
0.2354996789
-0.005006695737
-0.224580498
0.004947333177
0.2246041392
-0.00497097439
-0.2305792367
0.005308446828
0.2305712646
-0.005300474644
-0.2278609361
0.005254402471
0.2278356375
-0.005229103882
-0.2250821792
0.00511718116
0.2250329524
-0.005067954364
-0.2228586412
0.004885774497
0.2227867285
-0.004813861822
-0.2211740462
0.00456605617
0.2210811765
-0.004473186504
0.004165569663
-0.2199815884
0.219866486
-0.004050467346
-0.4383460115
0.007288601752
0.43783207
-0.006774660233
-0.437551739
0.006231029953
0.4369748864
-0.005654177346
-0.007506864559
0.8713564239
0.004849168906
0.005054058219
-0.005040601398
0.8704811194
-0.002528676414
0.8699424976
0.8696239207
-0.002095546325
0.9611029714
-0.004181474534
0.9611721706
-0.006237848143
0.9611023119
-0.00418981012
0.9609720448
-0.004057883233
-0.4794050967
0.479908686
-0.0046933994
-0.4790823455
0.005188044651
0.4795586628
-0.005664361936
-0.4786598634
0.006125737416
0.4791020133
-0.003306484553
-0.003261402745
-0.2389867014
0.003531787568
0.239087793
-0.003632879173
-0.2383203256
0.003911685913
0.2384049923
-0.00399635253
-0.2372480494
0.004226739903
0.2373172625
-0.004295953079
-0.2356302027
0.004471593677
0.2356680524
-0.004509443334
-0.224705585
0.004446752179
0.2247479793
-0.004489146437
-0.2305411448
0.004760101897
0.2305293245
-0.004748281653
-0.2277607792
0.004696991388
0.2277361544
-0.004672366586
-0.2248935645
0.004569554158
0.2248495701
-0.004525559701
-0.2225854791
0.004365122372
0.2225227046
-0.004302347816
-0.2208219324
0.004086935939
0.2207413086
-0.004006312123
0.00373882107
-0.2195573486
0.2194569498
-0.003638422244
-0.437349863
0.006565289973
0.4368967376
-0.006112164573
-0.4364474063
0.00563052711
0.4359338474
-0.005116968179