/*--------------------------------*- C++ -*----------------------------------*\
| =========                 |                                                 |
| \\      /  F ield         | OpenFOAM: The Open Source CFD Toolbox           |
|  \\    /   O peration     | Version:  v1912                                 |
|   \\  /    A nd           | Website:  www.openfoam.com                      |
|    \\/     M anipulation  |                                                 |
\*---------------------------------------------------------------------------*/
FoamFile
{
    version     2.0;
    format      ascii;
    class       volScalarField;
    location    "0.67";
    object      nut;
}
// * * * * * * * * * * * * * * * * * * * * * * * * * * * * * * * * * * * * * //

dimensions      [0 2 -1 0 0 0 0];


internalField   nonuniform List<scalar> 
12556
(
1.155897412
1.155869742
1.155838277
1.155811303
1.156030927
1.156024808
1.156035686
1.156069929
1.156138848
1.156265246
1.156442189
1.154090997
1.02948009
1.00818199
1.083085467
1.156545567
1.156363515
1.156230538
1.156115865
1.156067523
1.155818676
1.155824897
1.155848127
1.15587296
1.155178212
1.15509166
1.155003036
1.154929177
1.155127164
1.155134269
1.155213363
1.15546349
1.155795133
1.156390261
1.157316281
1.07223853
0.9508180402
0.9255981181
0.9692875219
1.11043396
1.157086504
1.156277589
1.155672162
1.155358847
1.155001211
1.154976878
1.155029295
1.155107738
1.154417479
1.154272979
1.154123201
1.154019729
1.154236097
1.154304029
1.154511475
1.155007352
1.155845028
1.157320105
0.9729677788
0.8045164199
0.723435499
0.7194694772
0.766970632
0.8816595169
1.078683848
1.156959311
1.155584562
1.154851109
1.154231483
1.154163667
1.15421876
1.154336122
1.153650067
1.153447559
1.153256458
1.153149249
1.153379892
1.153576491
1.154091028
1.1550109
1.156804554
0.9184806964
0.6884762788
0.537476453
0.4874722811
0.4923195228
0.5435793673
0.6400850691
0.7973148313
1.059104154
1.156161105
1.154714523
1.153662112
1.153425926
1.153440687
1.153586167
1.152846666
1.152594017
1.152365991
1.152279756
1.15260256
1.153016259
1.154024466
1.155675275
0.9734316739
0.6501941806
0.451054715
0.3438523292
0.2881043271
0.3037521114
0.3617399007
0.4516696033
0.5859901365
0.8038440195
1.1223337
1.155093853
1.153307258
1.152765204
1.152680639
1.152817064
1.15206144
1.151764452
1.151526243
1.151500301
1.151939584
1.152687994
1.154446668
1.157175143
0.7564904996
0.475418299
0.2945317533
0.1861467799
0.1463236296
0.1699945954
0.2344146524
0.3228991812
0.4426633614
0.6265164374
0.9322909563
1.156096245
1.153185862
1.152185991
1.151932035
1.152037922
1.151249425
1.150922702
1.150698132
1.150763624
1.151442147
1.152646548
1.155446605
1.002918977
0.6250976969
0.3724441763
0.2045334247
0.09371019921
0.05356324358
0.08531899125
0.1562490553
0.2426154912
0.3519018386
0.5089479075
0.7880681128
1.152831383
1.153324041
1.151694707
1.151181381
1.151209574
1.15051807
1.150166564
1.14997735
1.150233078
1.151114455
1.152948754
1.156968403
0.8977039667
0.5632707329
0.3374413063
0.1848022163
0.0761215707
0.04944456865
0.1206037637
0.2013057396
0.3016078869
0.4421690857
0.6935588375
1.04282965
1.153737127
1.151329168
1.150462946
1.150381856
1.149817026
1.149463406
1.149347999
1.14983605
1.150943037
1.153613158
1.155146414
0.8404985
0.5506984761
0.3582866569
0.2354944538
0.1649425924
0.06189710032
0.1194280793
0.1912068542
0.2820414377
0.4100465597
0.6434900142
0.961114738
1.154426829
1.15112552
1.149831366
1.149602439
1.149270412
1.148916122
1.148890473
1.149636338
1.151059488
1.154614084
1.107485259
0.8236096072
0.5700062633
0.4041687639
0.3166143747
0.3087843857
0.08796585168
0.1370681687
0.202005435
0.2891181022
0.4107272244
0.6242261078
0.9112822651
1.155363149
1.15117306
1.149400112
1.149000976
1.148824827
1.14849033
1.148594324
1.149664613
1.151457103
1.155894896
1.082349675
0.8271151788
0.6022012733
0.4568564878
0.3914538788
0.434586013
0.1201167998
0.1669850614
0.2291533695
0.3098892729
0.4236450077
0.6299145508
0.8883408631
1.156506818
1.151495586
1.149241902
1.148658448
1.148562081
1.148255977
1.148491932
1.149880547
1.152078506
1.157412071
1.076065271
0.8474863478
0.642326264
0.5051358238
0.4332849798
0.4316479329
0.1576602388
0.2090639384
0.2723011627
0.3516893826
0.4620411187
0.659431537
0.8939402538
1.157899095
1.152134713
1.149423041
1.148655608
1.148418052
1.148148541
1.148574609
1.150340422
1.152857849
1.158928369
1.081919127
0.8865803364
0.6927275455
0.5554057001
0.4667126849
0.3927790619
0.04361942371
0.2080384175
0.2715101996
0.3385924191
0.4160159389
0.5279770841
0.7079277271
0.9203014148
1.159363489
1.153033991
1.149920838
1.148994344
1.148455198
1.148226205
1.148823028
1.150906347
1.153961585
1.160629179
1.132055093
0.9375206702
0.763621335
0.6272099047
0.5279053473
0.27507133
0.08920883927
0.3099308978
0.3828685759
0.4418701521
0.5087416498
0.6129520094
0.7762233703
0.9635810624
1.16085953
1.15413588
1.150684316
1.149640343
1.148556792
1.148362084
1.149120938
1.151535139
1.155004718
1.162157377
1.167927013
1.022764262
0.867414445
0.7399209806
0.6454425617
0.1062344487
0.130336965
0.3771454988
0.5897351253
0.6019104224
0.6447346149
0.7340287395
0.8789000325
1.037062665
1.162256823
1.155305452
1.151618962
1.150472439
1.148787076
1.148627224
1.149527172
1.152231294
1.156052632
1.163522347
1.169041156
1.155380375
1.014516707
0.9224918902
0.7926034296
0.06528786056
0.1448410129
0.3922608433
0.6542552158
0.8412520292
0.8291777726
0.8906468369
1.012805753
1.139287915
1.163558217
1.156464142
1.152639009
1.151449416
1.148997586
1.148859549
1.149877414
1.152868077
1.157038116
1.164705306
1.169768281
1.162584016
1.127886284
1.030475663
0.718355301
0.04165549695
0.1677676166
0.4137667389
0.6775962802
0.902950745
1.047786415
1.085071744
1.162972177
1.170306103
1.164637321
1.157525751
1.153627875
1.152397468
1.149280979
1.149164385
1.150273799
1.153485607
1.157910474
1.165615357
1.170067295
1.16147716
1.120529841
0.9992634701
0.5754063986
0.03052900633
0.2026274725
0.4437582659
0.7036644705
0.9162110676
1.053643496
1.127957967
1.164677029
1.171337908
1.165471523
1.158438975
1.154564654
1.153330421
1.14947663
1.149370309
1.15054753
1.153965738
1.158633157
1.166256527
1.169990271
1.15969981
1.113332121
0.9651288063
0.42274589
0.03179871364
0.2340102991
0.4700032898
0.7205490404
0.9244229225
1.057864607
1.130199282
1.165676265
1.171943788
1.166027658
1.159140311
1.155332534
1.154108937
1.149719193
1.149629432
1.150856082
1.15440417
1.159190912
1.16663505
1.169487714
1.157378446
1.105138512
0.9321916055
0.3498136384
0.03452852221
0.2490473018
0.4819468727
0.7298182971
0.9308027486
1.060964266
1.131632839
1.166175425
1.172202192
1.166407115
1.159732434
1.156015255
1.154804056
1.149832646
1.149755317
1.151019518
1.15468821
1.159591215
1.166769712
1.168635942
1.154555906
1.095919444
0.8915411491
0.3011371562
0.03808587953
0.2604120267
0.4919462893
0.7364891838
0.935576946
1.063261224
1.132522345
1.166311689
1.172200003
1.166569338
1.160120341
1.156503655
1.155309303
1.149994292
1.149942264
1.151240909
1.154962689
1.159849195
1.16668678
1.167483088
1.151300407
1.085525504
0.8419153078
0.2652414487
0.04274292741
0.270563766
0.5006566886
0.7416140825
0.9388574518
1.064913984
1.133044525
1.16620246
1.17201811
1.166651072
1.160453108
1.156932768
1.155748012
1.150003484
1.149975934
1.151308039
1.155093086
1.159989768
1.166416031
1.166062001
1.147622524
1.07329973
0.7907185317
0.2381634228
0.04865475042
0.2797032397
0.5083343557
0.7458330283
0.940967151
1.066013233
1.133313269
1.165943156
1.17172529
1.166580303
1.160604645
1.157170911
1.155993664
1.150079525
1.150090215
1.151460124
1.155252075
1.16002761
1.165981871
1.164386674
1.143456481
1.058197637
0.7443736883
0.2169999841
0.05568174213
0.2879754942
0.5151845339
0.7494736274
0.9423565096
1.066689995
1.133419475
1.165608828
1.171374779
1.166511854
1.160764316
1.157402412
1.156220907
1.149989147
1.150035108
1.151441988
1.155261811
1.159978622
1.165398898
1.162452878
1.138678081
1.039879261
0.7038815556
0.2000982096
0.06368561297
0.2955362768
0.5213938197
0.7527540388
0.9434194398
1.067136786
1.133458522
1.16526211
1.171008128
1.166324857
1.160754561
1.157449593
1.15626078
1.149990843
1.150083945
1.151532961
1.155327404
1.159844792
1.164675573
1.160258383
1.133154596
1.019169954
0.6683046925
0.18643726
0.07235048363
0.302553683
0.527155227
0.7558725287
0.9444582065
1.067560753
1.133529786
1.16495823
1.170658737
1.166210468
1.160819152
1.157553786
1.156345837
1.149817901
1.149951075
1.151435879
1.155226782
1.159637368
1.163820934
1.157805077
1.12679906
0.997304564
0.6368167903
0.1752964398
0.08136837755
0.30920944
0.5326807438
0.7590451364
0.945712617
1.068140143
1.133720151
1.16474088
1.170353753
1.16598656
1.160712948
1.157473747
1.15624587
1.149758339
1.149942601
1.151470093
1.155209853
1.159355929
1.162848907
1.15510582
1.119611007
0.9752875443
0.6089182027
0.1661999518
0.09054633392
0.3156849284
0.538200819
0.7625032413
0.9473711117
1.068998975
1.134085697
1.164634728
1.170110128
1.165900854
1.160749396
1.157518565
1.156259706
1.149527134
1.149751438
1.151309059
1.155014679
1.159017005
1.161778245
1.152177234
1.111672985
0.953692308
0.5840625857
0.1586650361
0.09972245453
0.3221614565
0.5439659893
0.766459226
0.9495595366
1.070196344
1.134642753
1.164643246
1.169934744
1.165688261
1.160600287
1.157370907
1.156083917
1.149414569
1.149691637
1.151291796
1.154932638
1.15862401
1.160631888
1.149034783
1.103109787
0.9328026082
0.5617889003
0.1523209359
0.108789577
0.3288221365
0.5501995559
0.7710711454
0.952330557
1.071730028
1.135372386
1.164753234
1.169825012
1.165672434
1.160654257
1.157408342
1.156082047
1.149160485
1.149475462
1.151100693
1.154682767
1.158201178
1.159432504
1.145689703
1.094046559
0.9127025534
0.5417053188
0.1466444712
0.1176979766
0.3358359223
0.557092524
0.7764278299
0.955670995
1.073553821
1.136234295
1.164942334
1.169772329
1.165492943
1.160504916
1.157245607
1.155887669
1.148994204
1.149364437
1.151034831
1.154555562
1.15775382
1.1581971
1.142134171
1.084559881
0.8932859959
0.5233223325
0.1416693162
0.1264942502
0.3433627498
0.5647873508
0.782562254
0.959526086
1.075601458
1.137181248
1.165185417
1.169766657
1.165551228
1.160587975
1.15729496
1.155892137
1.148770563
1.149176329
1.15087187
1.154321544
1.157306131
1.156933006
1.138361103
1.074660195
0.8743672821
0.5061229471
0.1371798706
0.1352775791
0.3515926286
0.5734055445
0.7894752142
0.9638209104
1.07780342
1.138169121
1.16545825
1.169792763
1.165424371
1.160483249
1.157170379
1.155737065
1.148538016
1.149004259
1.150751418
1.154148234
1.156863406
1.155643616
1.134312919
1.064283793
0.8556335703
0.4894997935
0.1327415099
0.1442870611
0.3607677698
0.5830467685
0.7971100898
0.9684481662
1.080085866
1.139161097
1.165740119
1.169844919
1.165508399
1.16055785
1.157201881
1.155719674
1.148405043
1.148905321
1.150683615
1.154033261
1.156447986
1.154334052
1.129976752
1.053310873
0.8366669089
0.4728143672
0.1280784724
0.15381132
0.3710486472
0.5936410852
0.8052682798
0.9732358008
1.082361987
1.140122171
1.166017538
1.169909447
1.165498496
1.160560877
1.157183211
1.155675733
1.148162827
1.148746138
1.150605064
1.153896841
1.156093691
1.153033882
1.125447179
1.041728645
0.8173159429
0.4557911525
0.1231991253
0.1639198001
0.3822100081
0.6047202288
0.8135095952
0.9779256416
1.084524151
1.141014031
1.166313963
1.170026496
1.165632856
1.160679414
1.157248529
1.155682867
0.1474395342
0.05539136648
0.04249807515
0.2926775989
0.0810967371
0.05850508424
0.4212136229
0.113816797
0.08492812638
0.4375702495
0.1445773245
0.1186475049
0.3966412471
0.03317502226
0.04119446349
0.1832869737
0.1486397727
0.3160318479
0.06343331205
0.03407364917
0.08438220645
0.2518990142
0.1867265978
0.07407986568
0.05392476175
0.04382933308
0.08114893241
0.02776401616
0.0184311089
0.05925559629
0.1013803887
0.1022523267
0.2957724788
0.286389068
0.170183894
0.02469460875
0.03729838598
0.08450569795
0.1179635998
0.1040782482
0.3748693121
0.4030834376
0.3011192357
0.3554821708
0.1948213016
0.2183644631
0.04376135299
0.0307789787
0.1159828953
0.1462353973
0.1241168341
0.426960187
0.449240742
0.415681159
0.4597758145
0.1289454066
0.1657017652
0.08405982301
0.0605645654
0.4556887173
0.4119828772
0.4471017091
0.4223108599
0.07767604395
0.1014444997
0.01472628295
0.1355117129
0.1155514556
0.5094148196
0.3843895501
0.4071129488
0.3651469049
0.03111962953
0.05073446035
0.2789567506
0.08836219266
0.06491333362
0.06134694851
0.1386566159
0.02933678035
0.05567803411
0.03831133156
0.02913938342
0.0467203657
0.03084991914
0.04965392225
0.2215291251
0.2441881109
0.2411450395
0.1913462801
0.1788381236
0.1554833026
0.1938556799
0.03046538829
0.02454632479
0.07019384564
0.03694191223
0.04196909354
0.05064835776
0.03715034317
0.06859740076
0.1682541029
0.1912956521
0.371732127
0.1501746518
0.1276446963
0.1772442457
0.1520425762
0.05749222965
0.04486696973
0.1013468975
0.06308263107
0.08187175235
0.04240580088
0.06057324403
0.09702730387
0.1027738426
0.1274002939
0.4590115794
0.1029612462
0.07897893605
0.1263360941
0.1042314778
0.1119277399
0.08778970414
0.05169058542
0.07598383769
0.4209894742
0.01291007339
0.05382290052
0.03267765176
0.07797179605
0.05534561999
0.0125356136
0.1435742909
0.1378729995
0.01605053883
0.004794190379
0.030832426
0.3610497535
0.05139284341
0.01935961829
0.01179757573
0.03233036993
0.01968269518
0.04930982409
0.2181631482
0.1544410043
0.08872041232
0.09429153168
0.06030575042
0.03447511645
0.01338467766
0.008173858748
0.2224121623
0.2471296161
0.1514972883
0.01062436321
0.1506886839
0.18372322
0.1547707846
0.01288776105
0.04626821864
0.04005839328
0.06226638775
0.1618729595
0.1479876792
0.1377839713
0.06710682388
0.1050736316
0.0411420346
0.01242589991
0.02186632232
0.02110056194
0.02908167933
0.0450161627
0.03884597722
0.0285141917
0.1330904654
0.1092881408
0.1288258025
0.08493929684
0.1061709289
0.1299421962
0.02216376344
0.01465903611
0.03929313264
0.02132668759
0.03615139078
0.02860829337
0.01856073872
0.02829289174
0.02044099597
0.01336445324
0.02198603024
0.01723854077
0.009693531475
0.01526778681
0.02090201135
0.03187179895
0.03243914819
0.0372735223
0.03636358764
0.0150032227
0.01073417584
0.07344780054
0.0128356254
0.02267533966
0.01034367667
0.01167011724
0.06998170386
0.09122845873
0.2467230764
0.2352319337
0.05945693835
0.04961952177
0.01258948687
0.04594365403
0.1846939235
0.1732772467
0.2004383132
0.1893232328
0.04627268353
0.04903204669
0.04149932364
0.08860709346
0.06412854398
0.05429140498
0.0398507623
0.06369113605
0.09973645909
0.0355430048
0.02255435105
0.01420789323
0.05024274802
0.02506541977
0.0392230293
0.0243180489
0.05513175238
0.04079296576
0.03988776761
0.1891970998
0.03142543803
0.1886494633
0.207009752
0.03494139487
0.03887479336
0.03181771876
0.03446943121
0.2036537106
0.02919869749
0.02897034134
0.03983883686
0.0685473322
0.06384294182
0.07498480453
0.07027418783
0.04007907773
0.04479209259
0.05574451067
0.05047588246
0.06215512791
0.05722825186
0.04393811319
0.1392028592
0.1377432983
0.1658134042
0.164243961
0.05416372204
0.0102269324
0.05302848704
0.094151479
0.09243340976
0.1147979699
0.1133091129
0.02402814895
0.0342862846
0.09851909889
0.02676908586
0.01607511389
0.06737234481
0.2160196077
0.2044837466
0.231339856
0.2198356583
0.06863200928
0.01995733221
0.04946506655
0.04847774612
0.07124923037
0.07043377832
0.008617735717
0.02767911291
0.07358633505
0.06302531497
0.1688091597
0.1607230706
0.02487613698
0.01244552625
0.01687785924
0.01475964141
0.03092999865
0.01336536482
0.01481084353
0.01408436241
0.03096623967
0.0418714654
0.01497869094
0.01492626121
0.003781247059
0.01538804169
0.01271946671
0.6059532374
0.3722652997
0.3759002506
0.2532885054
0.009300999422
0.005412144594
0.1257142451
0.3114706798
0.2833092993
0.005819233766
0.01199367202
0.01161506901
0.0879754052
0.07750206378
0.02963770958
0.1831689329
0.1686500404
0.06495199848
0.008936251606
0.01507097528
0.01203437518
0.008260397409
0.0119500074
0.00850536506
0.02681118379
0.01136077691
0.01070007755
0.03485753615
0.04058570258
0.01155124041
0.0159212641
0.008545645542
0.008738014394
0.03222341957
0.1420918144
0.3048573847
0.2941320691
0.3189776889
0.3084082889
0.1451157564
0.2615448113
0.2503344611
0.09244686437
0.03418454616
0.09638714168
0.0914738849
0.01295368351
0.01927549114
0.06944842333
0.04390605639
0.01286799372
0.01145319327
0.03849898109
0.04183125765
0.03720971793
0.04876902993
0.04348406405
0.04055151071
0.029811441
0.008475775589
0.008522301097
0.02565711929
0.1781587322
0.3327261219
0.3224210233
0.05973585524
0.06157915094
0.1319690313
0.01690292466
0.0183680005
0.04805275883
0.07051795275
0.1018756148
0.09435061769
0.04791595982
0.082597146
0.07694702428
0.09161068301
0.08479660899
0.04894175901
0.1152790642
0.2761515419
0.2651773089
0.2905533362
0.2797850716
0.1169595935
0.09927462526
0.03741212074
0.03812609908
0.02175738019
0.02258726315
0.08312058198
0.1216124302
0.05573379515
0.05934449916
0.03842121419
0.03908797327
0.1080330681
0.1021604168
0.03608891312
0.04969202949
0.009340418925
0.01482493429
0.05156316394
0.03977953361
0.07506513771
0.02115290164
0.02161771589
0.02074296801
0.06431747328
0.01296432629
0.004395765889
0.1250151842
0.109775094
0.08980985875
0.08585892634
0.03052533467
0.01517308279
0.02233214604
0.05819056462
0.01913394134
0.01242140824
0.01783954794
0.0185811334
0.00281553486
0.03188248926
0.02074272725
0.01196740259
0.006430127515
0.01154448195
0.01059733669
0.01037243975
0.02226906024
0.01697933294
0.008408559581
0.03836336344
0.03990336915
0.0145335541
0.01084830112
0.006986633436
0.01140193857
0.01573056591
0.0113383698
0.01205701241
0.03291684604
0.01164434142
0.01146549514
0.01357300937
0.01360988865
0.02703973826
0.01371141376
0.01346256544
0.01405846405
0.0137113404
0.01351113585
0.01546568651
0.01427069883
0.01878565925
0.01627251644
0.01381154667
0.01270087296
0.02130666995
0.01777010044
0.02354373326
0.02189436035
0.01722197932
0.01531529228
0.01236500675
0.009729182755
0.007657877074
0.02845166498
0.03426009679
0.01046886103
0.009795033022
0.01090080445
0.01134684385
0.03954384672
0.009152028477
0.008946970743
0.01006450353
0.009224629502
0.008870406838
0.03320023251
0.008630225444
0.01079240106
0.01155535667
0.01091205799
0.0165888542
0.04146320441
0.03718650432
0.01049146398
0.03009161902
0.02589457576
0.03568473057
0.03175675013
0.01054070899
0.01227653724
0.02917691391
0.02437626076
0.1042944762
0.09812361145
0.03805945721
0.04838717553
0.111040228
0.1059669419
0.04444551652
0.04364894416
0.06592634766
0.07393019898
0.08889480152
0.05541474362
0.06941951427
0.0667136975
0.05902498508
0.1311159475
0.1212704742
0.09593374002
0.123914969
0.05894998451
0.03736672124
0.04082951894
0.05091284304
0.03243004414
0.03620344571
0.01813391202
0.01716217313
0.04523171757
0.01256193399
0.01247345959
0.009679895926
0.01806877306
0.02149139338
0.01284063263
0.01823760785
0.03482033192
0.02508371839
0.01899619229
0.02966094131
0.09235903875
0.08144880787
0.09816768921
0.09460814725
0.03075636033
0.07367360163
0.07162921141
0.07832943191
0.07440648923
0.03636942861
0.1126923293
0.108801214
0.1189157906
0.1140611184
0.03693180491
0.03288605481
0.1027577906
0.099380177
0.1075456787
0.1039248158
0.03321165993
0.008540596155
0.008479545459
0.02962767293
0.02679003939
0.008244412586
0.008553797701
0.04360346447
0.04286243825
0.04570673434
0.04385847165
0.04148920825
0.04047261779
0.04261523082
0.04175466131
0.06850880759
0.06668250713
0.07099297922
0.06914128285
0.06152848291
0.04833005491
0.06592299197
0.06395287052
0.01936548626
0.01655645329
0.02469125292
0.02087989311
0.006758153486
0.0109267255
0.01040235899
0.0154775264
0.01119847851
0.03647393619
0.03706504261
0.09801283555
0.0218142715
0.02159305482
0.02247387761
0.02199817961
0.02092001422
0.08534010075
0.02327693247
0.03433692743
0.04119126428
0.0539318208
0.1199594113
0.03774289939
0.02462534999
0.04033661448
0.03743364429
0.02324866971
0.02270745384
0.02418251996
0.02346955553
0.109317546
0.03931200506
0.04018217024
0.007730071934
0.02239179724
0.01158478144
0.01137624108
0.01113593358
0.02087755951
0.009675612682
0.01591268308
0.01317991203
0.01359146525
0.0509332405
0.04461572147
0.02056250023
0.02104421248
0.07416741979
0.06642098354
0.01968769323
0.02050130364
0.01297024338
0.02944689606
0.08341730235
0.07548532311
0.01429900485
0.01351901231
0.01836996319
0.01282016367
0.01481333896
0.01531323004
0.03177502392
0.009907892928
0.01484137727
0.0127009611
0.01509821126
0.02157971734
0.0506355408
0.1067628015
0.1367702477
0.0124395852
0.01186956931
0.1897113509
0.2378145266
0.195249261
0.00823185596
0.02883070086
0.01387527791
0.01519468308
0.1321632197
0.1426217744
0.1607990685
0.00464549626
0.006997412604
0.005193162938
0.004873231439
0.005542807595
0.004347552192
0.05381476873
0.03354806715
0.02137410761
0.02442054156
0.02283894469
0.02599554585
0.2052213664
0.3489918286
0.3492675967
0.3266015132
0.3403893139
0.2085513499
0.03499753145
0.03074879677
0.01236970622
0.05304391855
0.06318746564
0.1240995606
0.1177646865
0.112650987
0.04886193192
0.02632175087
0.02599813455
0.03296048081
0.3460039464
0.3360992307
0.1813208155
0.1452469776
0.0669019998
0.07046568734
0.07334345905
0.08339833546
0.1576300742
0.05918914427
0.125413695
0.119544769
0.01294157386
0.01280795221
0.01334697469
0.02044906162
0.02074608335
0.03352529389
0.0125787176
0.01316501394
0.01303106722
0.02066391033
0.04168931195
0.03619106699
0.01930381835
0.03212932033
0.01999629963
0.02017884679
0.01971869738
0.01339404871
0.01075804262
0.01193498589
0.01200867635
0.01278590167
0.01882169803
0.02343751301
0.04621749826
0.04011974254
0.03577013728
0.03257820209
0.02398688792
0.03439794224
0.01309506283
0.01703483945
0.01360796912
0.009932836089
0.00998455338
0.01388162096
0.01348780577
0.0218929792
0.01391916217
0.00973395384
0.01550654163
0.0181122201
0.01706933116
0.01181641653
0.01491892939
0.01387653594
0.01075025379
0.01099556097
0.007185364937
0.01077185025
0.01054982066
0.04738103966
0.04282223576
0.01801029063
0.0103118778
0.01167124691
0.01092220871
0.01242862669
0.01281595035
0.01223779836
0.04709927343
0.03675167398
0.04217530195
0.06476565051
0.0899196865
0.08875316477
0.04135279329
0.06573007298
0.06234576902
0.08778978561
0.08629358803
0.06249674315
0.03075922156
0.03722391596
0.03388159204
0.02610730714
0.0269566634
0.02226987101
0.04586955266
0.04464006584
0.04740136325
0.02397942601
0.03421698545
0.03261340843
0.05191835429
0.05156046517
0.03117319275
0.02902829314
0.0286300414
0.03158379922
0.03089409197
0.0354431428
0.05754126769
0.05697681795
0.06085184749
0.06015236329
0.03815156987
0.03213713301
0.05306003679
0.05257462147
0.0563951232
0.0558197698
0.03403509692
0.06445252708
0.06624312117
0.1436928236
0.1333516302
0.06213388139
0.06388228949
0.08973102528
0.09261955757
0.1707371854
0.02707354776
0.02692751049
0.02839998497
0.02818550996
0.02074523155
0.02666812979
0.02655966724
0.1593117781
0.08546077044
0.08865213053
0.009866831118
0.009816534326
0.01077924792
0.01046784269
0.01017693091
0.009633298192
0.006598913957
0.04913501947
0.01909404239
0.02322255075
0.1329744946
0.1273707792
0.06232454388
0.07145315707
0.1396272218
0.1346391688
0.03284866787
0.0329043589
0.0498107764
0.04816768926
0.03245443521
0.03239198078
0.01251703406
0.02353613057
0.03749554025
0.03672397635
0.009430522168
0.01500801527
0.01583983937
0.01502285461
0.01493161208
0.01906390458
0.01930555973
0.03137648994
0.01362279729
0.009853752489
0.01337754137
0.0142867929
0.02938688165
0.01855578577
0.01914969948
0.01447740063
0.02447629072
0.02036362692
0.01263214644
0.01259934409
0.01178481529
0.01181428916
0.01346826625
0.006263455198
0.004080425158
0.007246670031
0.01163803356
0.01220309635
0.01206247449
0.01166951789
0.01221087068
0.01143753638
0.009779014519
0.006405031143
0.005204778159
0.009653548089
0.009959535589
0.009298576068
0.009422764995
0.01107871974
0.0169256137
0.01714622919
0.01657686502
0.01675466269
0.0109652015
0.008598124489
0.01247458476
0.01246743954
0.01289623934
0.01257277105
0.008577513683
0.01218727517
0.0190950515
0.02124341325
0.0174084786
0.01796369739
0.01181099743
0.008481238738
0.01249031835
0.01250715226
0.01244045592
0.0124793522
0.008493999339
0.009035565658
0.009181280802
0.00879547214
0.009150038323
0.03757353513
0.0563525926
0.05590327824
0.02198989444
0.03650212296
0.03624707125
0.03781829546
0.03686958288
0.02220020713
0.01331579782
0.01291698267
0.01327627741
0.01337415856
0.0206445744
0.0204507977
0.02108436037
0.02085535725
0.01614499285
0.03562715179
0.02134882899
0.0222719237
0.02132388226
0.03574307023
0.0355219993
0.03608384694
0.03589791644
0.02145108383
0.02202802396
0.02140471185
0.03211028612
0.02303389709
0.0165450669
0.009100124888
0.01286379463
0.01266361636
0.00902024952
0.0437484835
0.03064630435
0.002963634042
0.03052729612
0.04647284535
0.04614733336
0.01909712048
0.01232541881
0.009093056195
0.003321475254
0.01448927098
0.0149855132
0.01975061748
0.01992073831
0.03206453371
0.02013577197
0.01039198513
0.01095739994
0.01425958535
0.005026504565
0.009186849426
0.006885820194
0.007627943409
0.0078463402
0.01066497399
0.006941710212
0.01225037481
0.01205036009
0.01232263136
0.03986601004
0.03113102753
0.008033333497
0.01009800381
0.01121657473
0.01831366334
0.02049474189
0.01206951324
0.01493595057
0.01426622343
0.01204292823
0.007910504961
0.01195061079
0.01354530309
0.009610437727
0.01340643604
0.01351842306
0.01392859241
0.01389162458
0.01386800636
0.01362697669
0.01347535103
0.01385918058
0.01432206371
0.01414268941
0.01358096126
0.01418563671
0.0148292291
0.01470543428
0.01590672082
0.01778137172
0.01511694224
0.02413721254
0.0196426246
0.01509840223
0.0141442927
0.015410076
0.009262507443
0.01484816049
0.01574426242
0.01063554735
0.01481024747
0.009791359012
0.01026238557
0.01622512073
0.0163877566
0.01582400144
0.01606799744
0.01009931124
0.01109096255
0.01878338379
0.01845145704
0.009117091663
0.009021978864
0.009456086117
0.006527745381
0.009218535332
0.00911159698
0.008730527384
0.006800793728
0.00935986519
0.01552584305
0.01384095006
0.01795695855
0.01702630333
0.01022415693
0.01096126822
0.01096698063
0.01253725493
0.007401235992
0.01128561403
0.01092538462
0.01087066973
0.01093544064
0.01104843513
0.01442604309
0.01293130362
0.01029075758
0.04552227316
0.04273614196
0.07993411088
0.07208873693
0.04322701
0.06224810664
0.08554548095
0.08242681478
0.03432639547
0.03170347243
0.02936808905
0.02243448765
0.02917295557
0.04142228687
0.04223719142
0.03727391469
0.01805295626
0.02611226299
0.02651493255
0.02370028589
0.02452139314
0.01704570464
0.01175863123
0.01258393537
0.01931411711
0.0135062509
0.01292445437
0.01444318735
0.01375595117
0.01957735328
0.01324271355
0.01381494055
0.01083992595
0.01408335019
0.04773298918
0.04790902881
0.03102621822
0.03074129119
0.05065581485
0.05064413077
0.02969454826
0.02931656361
0.03044533936
0.03003407706
0.05857316565
0.05803556493
0.03582607382
0.03752510493
0.0596190503
0.05910222194
0.05417549469
0.05366238293
0.03254965041
0.03358275335
0.05523488879
0.05469986083
0.008489912282
0.01259014311
0.01262909301
0.01254137914
0.01258095158
0.008482003999
0.008527990366
0.01178395927
0.01030110425
0.01258487834
0.01239210851
0.008551295346
0.04334511634
0.02580951643
0.02607474545
0.02538966918
0.02559335563
0.04310896907
0.04462470019
0.02700481358
0.0274888925
0.02633716169
0.02664296004
0.0441648909
0.04112220333
0.02418405552
0.02441821501
0.023819647
0.02404599691
0.04089459169
0.04234704824
0.0249992611
0.02518731235
0.02458322226
0.02481170696
0.04208138394
0.02750059127
0.02731780251
0.0679088084
0.04620991778
0.04651486041
0.04554821057
0.04581612348
0.06724380348
0.02793404178
0.02773194881
0.02543030091
0.02666430107
0.05956033337
0.04196172307
0.04167324972
0.02838457592
0.02978020871
0.05343265737
0.06546576461
0.04488358892
0.04507573385
0.04420188237
0.04415726428
0.06431874424
0.0262427838
0.02628329283
0.009924106891
0.009983382482
0.009968280292
0.010327123
0.01001593972
0.01071627857
0.009572840152
0.009626270437
0.009359348233
0.009459053725
0.01062067463
0.01387735302
0.009734547964
0.01021373614
0.009700333721
0.009628624727
0.01207347743
0.03639520167
0.05390132873
0.0536121954
0.05524579705
0.05489972722
0.03696878343
0.02176723228
0.02152682452
0.02234766934
0.02207575206
0.02198359927
0.01718409836
0.02452001155
0.04455046299
0.0400897299
0.05149930119
0.04978189357
0.03463264197
0.02670970562
0.0186244863
0.02390055547
0.02540816113
0.03968230089
0.02346626046
0.02375259495
0.02277359618
0.02351688318
0.03974520697
0.02308103471
0.02285788939
0.02391118069
0.02366535813
0.01169043741
0.01119999711
0.01117400339
0.012424573
0.01155881931
0.0117477061
0.0113101295
0.01138299154
0.01103482158
0.01123747244
0.007590816958
0.01347686989
0.01311530535
0.01330668536
0.01309756086
0.01320857002
0.0134168846
0.01999627586
0.01995381656
0.02024858188
0.02018349273
0.0307470085
0.03071286528
0.04619829869
0.01918771358
0.02023781755
0.01971883261
0.01978872285
0.02077444028
0.03493475206
0.03457478185
0.03535993557
0.03508159617
0.02085510181
0.02023209309
0.03389362062
0.03202157024
0.03445559966
0.03386609686
0.02021702367
0.01299893886
0.04458758703
0.04405359258
0.02922352813
0.01462336901
0.01181431019
0.01156176528
0.008731226271
0.01196141276
0.01377201551
0.01892342047
0.01364441396
0.01515082821
0.01487744826
0.03149290339
0.01942197591
0.01962459343
0.01342724014
0.012997767
0.01310804287
0.01419994504
0.0138194681
0.009303302492
0.009587767083
0.01483037451
0.01321438333
0.01398794475
0.0157789446
0.01943873657
0.0293835238
1.155085913
1.155558247
1.155694592
1.155766472
1.15661189
1.156218193
1.156952322
1.111120363
1.157059594
1.054958515
0.8972329003
1.09623471
0.868204706
0.8191603917
0.9606947818
0.7959528345
0.7700555877
0.9249556694
0.7746547873
0.8068638854
0.9568988317
0.8219478211
0.9116318315
1.088514821
0.9427430326
1.09732165
1.157320774
1.148443562
1.157002544
1.156450961
1.154954449
1.155972787
1.155585417
1.15643374
1.082417333
1.15686775