/*--------------------------------*- C++ -*----------------------------------*\
| =========                 |                                                 |
| \\      /  F ield         | OpenFOAM: The Open Source CFD Toolbox           |
|  \\    /   O peration     | Version:  v1912                                 |
|   \\  /    A nd           | Website:  www.openfoam.com                      |
|    \\/     M anipulation  |                                                 |
\*---------------------------------------------------------------------------*/
FoamFile
{
    version     2.0;
    format      ascii;
    class       surfaceScalarField;
    location    "0.64";
    object      phi;
}
// * * * * * * * * * * * * * * * * * * * * * * * * * * * * * * * * * * * * * //

dimensions      [0 3 -1 0 0 0 0];
oriented        oriented;


internalField   nonuniform List<scalar> 
25162
(
0.0004433743574
0.9162066256
0.0005621896806
0.9165811847
0.0006848282568
0.9165273614
0.0003425219336
0.9165249167
0.0004673895919
0.458335176
0.0003573459799
0.4582915524
0.0004576001925
-0.0004491525968
-0.0005811599466
0.4582586645
0.0006724954176
-0.00076355193
0.4581997252
0.0008988267601
-0.001047738917
0.4581675856
0.001210153284
-0.001393646833
0.4581394329
0.00158921395
-0.001785207967
0.4581436862
0.001976521815
-0.002158867585
0.4581884856
0.002301881977
-0.002404119994
0.4582792191
0.00245840088
-0.002461402121
0.458384001
0.002412401144
-0.00231770885
0.4584707289
0.002176980003
-0.002014569401
0.4585108257
0.001838743733
-0.001648180644
0.458512829
0.001470351612
-0.001295980502
0.4585098742
0.001101106307
-0.001006677282
0.4584753334
0.000881343909
-0.0007259472506
0.4584754206
0.0006005266592
-0.001574472956
0.9187366248
3.809842356e-05
-0.0005502502162
-0.0009905113255
0.9187660384
3.873203395e-05
0.9158207566
0.913838732
0.00121796717
0.9149886585
0.001958424301
0.9158407276
0.002302071928
0.9161837138
0.0007590260748
0.9168934188
0.001174543796
0.4579913252
0.0009238311361
-0.4581561303
-0.4581136185
-0.001155372349
0.4578224932
0.001446497619
-0.457931554
-0.001807293546
0.4574965517
0.001052752361
0.001189543442
-0.2288861874
-0.001282094212
0.2287726134
0.001395668226
-0.001878353496
-0.2288046422
0.2286535954
0.002029400236
-0.002634081504
-0.2287393041
0.2285480345
0.002825351089
-0.003505235422
-0.2287336412
0.2285311134
0.003707763296
-0.004320385399
-0.2288270165
0.2287100288
0.004437304362
-0.00420280343
-0.2290332176
0.2288254957
0.004410640598
-0.005016112881
-0.229255996
0.2292436874
0.005028421425
-0.004705912964
-0.2294032504
0.2295224169
0.004586746518
-0.00405246648
-0.2294828774
0.2296753149
0.003860028935
-0.003254640234
-0.2294862765
0.2297000604
0.003040856399
-0.002482117332
-0.2294383413
0.2296277643
0.002292694367
-0.4589555444
-0.003528036165
0.4604851116
0.001998469042
-0.0006095020932
0.4610630472
-0.001141300995
-0.4593122441
-0.001305674291
0.9184768766
0.0001521477035
0.001413274751
-0.0008157534275
0.9182761175
0.0004318019627
0.9145732013
0.914270534
0.001535919064
0.9134527394
0.004131627287
0.9132450193
0.007059961932
0.9132553792
0.003023704386
0.9144405222
0.006489154136
-0.4578638239
0.4576090126
0.003278515678
-0.4575268775
-0.003370550345
0.458036247
0.00286118085
-0.4569039322
-0.003116022716
0.4564615161
0.001721625944
0.001836812875
-0.2282180936
-0.002145120178
0.2279766037
0.002386610122
-0.2279040667
-0.003250002141
0.2275708287
0.003583240179
-0.2277089374
-0.003831592057
0.2318783597
-0.0003449601337
-0.2359525003
0.01458005131
0.2397592074
-0.01841852586
-0.2345539527
0.02666801167
0.2361809134
-0.02831761012
-0.2274848283
0.03005546269
0.2270083181
-0.02957410324
-0.2214762082
0.02503027838
0.2189854912
-0.02251072386
-0.2230328238
0.01195080794
0.2186276738
-0.007516509195
-0.230577527
-0.006684776711
0.2300507158
0.007212970873
-0.2306162613
-0.005978422334
0.231021969
0.005572714697
-0.004146919702
-0.2304879012
0.2312216608
0.003413160067
-0.4632435978
-0.0008534515294
0.4622489694
0.001848079978
-0.4602578403
-0.001839065994
0.4603721114
0.001724794898
0.0006490114882
0.9205539646
-0.001535637462
-0.001190461971
0.001885808283
0.9170393207
0.0008717929222
0.9155872166
0.9151423269
0.0005088124582
0.912943927
0.001155038258
0.9125987935
0.002485543985
0.9119248734
0.003378544147
0.9112266568
0.002320865255
-0.4567577414
0.4562268514
0.003909434209
-0.4594207766
-0.005253828233
0.4562004566
0.00847414817
-0.4576900965
-0.009950261593
0.4589745007
0.002648806787
0.006017050605
-0.2270886026
-0.002796341321
0.226790766
0.003094177935
-0.228675847
-0.002680201389
0.2337590808
-0.002420700134
-0.2464193729
0.0165267012
0.2502440967
-0.02042947857
-0.2484671454
0.02889159465
0.2500831164
-0.03058785373
-0.2390227491
0.03281215192
0.2390338281
-0.03286368499
-0.2255997016
0.0320196456
0.2251667318
-0.03157253173
-0.2135661367
0.029751674
0.2127150013
-0.02883630106
-0.2079643755
0.02416849759
0.2056612985
-0.02177515577
-0.2150517115
0.01174517791
0.2109202125
-0.007544242094
-0.2349019941
-0.002022725714
0.2373337094
-0.0004059687546
-0.004546939201
-0.2322980085
0.2323970421
0.004447905569
-0.4624606609
-0.006736627568
0.4639172895
0.005279998925
-0.4612495725
-0.003862601623
0.4624086679
0.002703506268
0.003529138279
0.9209389814
-0.002062828435
-0.00185132671
0.002374491999
0.918193967
0.001088262703
0.9168734459
0.9162305896
5.933753187e-05
0.9128845894
0.0002177374502
0.9124403936
0.0006255114223
0.9115170995
0.001379433542
0.909953859
0.0005188756783
-0.455855303
0.4549364516
0.002298284911
-0.4545878561
-0.002870492615
0.453767502
0.003690846715
-0.452588231
-0.004802321561
0.4515000405
0.003094329989
0.002796182052
-0.2271128428
-0.005132583038
0.2256474647
0.006596799828
-0.2471764723
0.0009827424233
0.2524494615
-0.006350961298
-0.2572917618
0.01666752525
0.2580987794
-0.01761110863
-0.2499798879
0.01617103101
0.24817874
-0.01447497599
-0.2354598394
0.007369438647
0.2329698638
-0.004921625218
-0.2240581218
4.47457319e-06
0.2237689305
0.0003019070374
-0.2138892346
0.002510548109
0.2158319783
-0.004376055676
-0.2036958895
0.01032459511
0.2049393808
-0.01143660603
-0.2134815926
0.02240793702
0.2065453374
-0.01533352607
-0.2182760819
0.004307506631
0.215106596
-0.001061795703
-0.00637523946
-0.2340915218
0.2347602347
0.005706526553
-0.4658318126
-0.007684968571
0.4676800564
0.005836724752
-0.4635229969
-0.004469915421
0.4646757981
0.003317114215
0.004214243127
0.923223442
-0.003601926245
-0.002896777456
0.002295189909
0.9201130202
0.00103050565
0.9181381302
0.9172610953
-0.0003202701083
0.9132048596
-0.0004984458045
0.9126185693
-0.0003448910104
0.9113635447
0.0001588803829
0.9094014428
4.864484146e-05
-0.453974162
0.4535628683
0.0005701740319
-0.4530715669
-0.001657932447
0.4521335624
0.002595936895
-0.4503545148
-0.003380000746
0.4490283633
0.002347841602
0.002358310635
-0.2329177577
-0.0007068869651
0.2350000803
-0.001425403725
-0.253708371
0.00577876638
0.2540989751
-0.006323532854
-0.2559432781
0.002367459467
0.2521738431
0.001235654047
-0.2376364785
-0.01434950705
0.2364759206
0.01541614802
-0.2213516543
-0.03219848527
0.2172133751
0.03631604167
-0.2228265272
-0.0474717284
0.2224076516
0.04789392987
-0.2282162674
-0.03622335765
0.2327838763
0.03169935096
-0.2202541675
-0.01084088939
0.2224888975
0.008737934709
-0.2041671642
-0.002723244338
0.206100075
0.0009672822406
-0.2098936446
0.0007646641412
0.2095926478
-0.0003220614897
-0.003894154905
-0.2340826076
0.2328867991
0.005109079521
-0.4693346347
-0.00766731187
0.4709976082
0.006004338347
-0.4654245032
-0.004783950782
0.4661081801
0.004100273809
0.003326124761
0.925809322
-0.002814395856
-0.003097608895
0.00177293811
0.9216662069
0.0007187845243
0.9191922838
0.9179798798
-0.0008700316177
0.9140748912
-0.001572803024
0.9133213407
-0.002049933564
0.9118406752
-0.000480094808
0.9091854038
-0.001353799765
-0.453389284
0.4530272268
-0.0001180375318
-0.4509388475
-0.0001883251983
0.4504561004
0.0006710722735
-0.4483796889
-0.001805543006
0.4478834829
0.001198136178
0.001103018738
-0.2378144521
0.0005974014577
0.238232779
-0.001109210907
-0.2542980184
0.0003795259319
0.250198067
0.003526914412
-0.242934816
-0.008999021106
0.2399044829
0.011862909
-0.216926493
-0.02442656644
0.2102348004
0.03106241571
-0.20283018
-0.05352438323
0.1025228962
0.09656634949
0.02647599586
0.0307893216
-0.03775230451
-0.1085161145
0.1079564676
0.03831195146
-0.030523324
-0.2536138761
0.05738549657
-0.03085669189
0.1284519105
0.1291564849
-0.03841972028
-0.2359967838
0.2423490546
0.03215349321
-0.2153730566
-0.0183270938
0.2202695417
0.01361619895
-0.2127291984
-0.004500869962
0.2140246985
0.003385598684
-0.002603309252
-0.2284575386
0.228032285
0.003097621626
-0.4726329087
-0.006136166368
0.4736848668
0.005084208257
-0.4672014736
-0.003789707753
0.4682411301
0.002750051193
0.001584993151
0.9275276624
-0.001469501681
-0.001833831878
0.0006438575259
0.9226073425
0.0001937619285
0.9196423794
0.9181736417
-0.001466142163
0.9155410333
-0.002854038588
0.9147092372
-0.004000107106
0.9129867437
-0.002131907255
0.9101797539
-0.002862549939
-0.4530251071
0.4530472552
-0.00215405533
-0.4502263345
0.002223511927
0.4501205109
-0.00211768837
-0.4467990546
0.001925304732
0.4468714194
-0.0007650342243
-0.001242868819
-0.2370960411
-0.0003954818445
0.2361039352
0.00127123834
-0.2449056095
-0.005390752669
0.243100979
0.00699169499
-0.2311245652
-0.01281977142
0.2288761386
0.014906892
-0.198617854
-0.02086942662
0.1968381811
0.02263005008
-0.08646259416
-0.01436392279
0.08607716586
0.01474935109
-0.03666703551
-0.143782753
0.1469069523
0.03354283621
-0.0403865724
-0.2617299988
0.2670256351
0.03513605968
-0.231288788
-0.02295620482
0.2348016593
0.01962137817
-0.2202797363
-0.01121665051
0.2227647243
0.008932232849
-0.002177020144
-0.2291809401
0.2297378749
0.001720609735
-0.475037455
-0.003048772691
0.4760819264
0.002004301309
-0.469026593
-0.001299031064
0.4696331562
0.000692467877
-0.001062288204
0.9280926298
0.0006083901133
-0.0001110693018
-0.000971640756
0.9225166951
-0.0005495491223
0.9192202877
0.9176240926
-0.002071134114
0.9176121675
-0.004061487293
0.9166995903
-0.006109498079
0.9150347545
-0.003622288843
0.9120531192
-0.004360574544
-0.4533638729
0.4536713347
-0.003929750608
-0.4502565194
0.004284413932
0.45059491
-0.004622804547
-0.4469117503
0.004959279527
0.4472810767
-0.002525700638
-0.002825355512
-0.2337474208
0.002031537781
0.2327872056
-0.001201757571
-0.2371861182
-0.002746545101
0.235376646
0.00434335425
-0.2233338359
-0.008866809856
0.2220430419
0.009998609997
-0.1961032232
-0.01113377949
0.1967851471
0.010443332
-0.09001272236
-0.002836717093
0.09081419137
0.002035248089
-0.01613324987
-0.160019108
0.1604083701
0.01574398779
-0.02402818245
-0.2782976738
0.2801062326
0.02224521867
-0.2444348502
-0.01605416466
0.2468301654
0.01383259016
-0.2297614727
-0.007271326475
0.2318471252
0.005397591188
-0.001105609754
-0.2325857939
0.2335176744
0.0002887239145
-0.4772631915
0.001127791507
0.4780924621
-0.001957062095
-0.4698528358
0.002258073333
0.4698771402
-0.002282377708
-0.004201468864
0.9269763653
0.002987927514
0.002329805788
-0.002905462728
0.9212206889
-0.001491517773
0.9178063428
0.9161325748
-0.002639160279
0.9202513277
-0.005396195899
0.919456626
-0.008108464104
0.9177470227
-0.005117262584
0.9149262527
-0.005864334986
-0.4542799603
0.4548872792
-0.005724581488
-0.4510880966
0.006424438148
0.4518795209
-0.007215862404
-0.4478307661
0.008022586227
0.4486987638
-0.004229942384
-0.004694937381
-0.2300071607
0.003854521403
0.2291394734
-0.003127120489
-0.230464907
-0.0002010192746
0.2289801918
0.001465534044
-0.2191881939
-0.004618857833
0.2184672804
0.00518038533
-0.199840748
-0.004497461344
0.2009994635
0.00333384784
-0.09520666992
0.0006441277937
0.09570700569
-0.0005507600016
-0.0005937035426
0.00304606927
-0.1566326287
0.1554748329
-0.001888273441
-0.004659840999
-0.2798115988
0.2783738843
0.006125130457
-0.2512090523
-0.006682642683
0.2520848985
0.005983017298
-0.237392241
-0.002579487719
0.2388880333
0.001297878842
0.001919440994
-0.2365265296
0.2373483559
-0.002625662675
-0.477823581
0.006525644013
0.4769840201
-0.005686083146
-0.4694656072
0.005247678487
0.4695132792
-0.005295350523
-0.007574060072
0.9241609685
0.005590098223
0.004799358713
-0.004952911924
0.9185995408
-0.002487600373
0.9153410312
0.9136449745
-0.003276866747
0.9235281945
-0.006563496307
0.9227432555
-0.01003336969
0.9212168961
-0.00654529128
0.9186672547
-0.007229080452
-0.4557703773
0.4566518806
-0.007426794597
-0.4528089649
0.008490687657
0.453861039
-0.009542761773
-0.449897922
0.0107570721
0.4512894179
-0.005966506633
-0.00623346818
-0.2266432173
0.005412127739
0.2258316918
-0.004752198514
-0.2248546748
0.001830065045
0.2235681569
-0.0007717839891
-0.2168028274
-0.001560249613
0.2163819464
0.001822127348
-0.2046372748
-0.0003661796388
0.2058814949
-0.0008799143233
-0.09867754962
0.002428049114
0.0990331428
-0.001376991534
-0.001406650762
0.01297655607
-0.145788361
0.1443014548
-0.01148964991
0.008834972623
-0.271600437
0.2688445767
-0.006031395342
-0.2530251216
0.001945284408
0.2533523204
-0.002090365442
-0.2425007252
0.003523103569
0.2433989678
-0.004207887393
0.006016594539
-0.2394432749
0.239861266
-0.006331354408
-0.4757062299
0.0114944749
0.4740542017
-0.009842446633
-0.4693637498
0.008389445679
0.4680563835
-0.007082079336
-0.01064907049
0.9199317837
0.007724250037
0.007154005209
-0.006897154713
0.914847625
-0.003388531266
0.9118324078
0.9102564432
-0.003845304839
0.9273734994
-0.007740068909
0.9266380196
-0.01182300623
0.9252998335
-0.007802777387
0.9228790442
-0.008232018309
-0.4577775799
0.4588719758
-0.008897173274
-0.4551641377
0.01016903627
0.4565498772
-0.01155477573
-0.4525623273
0.01308161871
0.4539508793
-0.007119973831
-0.007422525191
-0.2234028167
0.006508517143
0.2225825737
-0.005852149347
-0.2199036215
0.003098365635
0.218733706
-0.002164478593
-0.2154381905
0.0003254767347
0.2152190383
-0.0002636418279
-0.2097350454
0.002344303482
0.2110797862
-0.003689216743
-0.1013838373
0.003879908556
0.1017268832
-0.002091904446
-0.002131049999
0.01611444601
-0.1343808628
0.1329809208
-0.01471450401
0.01544383158
-0.2611418944
0.2588982237
-0.01311980262
-0.2527753291
0.009386225358
0.2526281691
-0.009040325073
-0.245173085
0.009250166926
0.2454519297
-0.009324604935
0.009629955983
-0.2400912996
0.2398476037
-0.009305893701
-0.4721008837
0.01542743283
0.4698791368
-0.01320568597
-0.4666477564
0.01127107196
0.4649753111
-0.009598626664
-0.01331333179
0.9161899043
0.008819252343
0.008235958875
-0.008557162292
0.9100914555
-0.004160499231
0.9074357447
0.906095944
-0.008039467293
0.9354129667
-0.01628313541
0.9348816878
-0.02468352874
0.9337002268
-0.009058710646
0.9318143651
-0.02456013899
-0.4602129375
0.4615451086
-0.01039088169
-0.4579956711
0.01186479138
0.4596464465
-0.0135155667
-0.4547474417
0.01520193013
0.4547032233
-0.007566524885
-0.007713379734
-0.2201054084
0.006481994676
0.219050278
-0.005605516021
-0.2152951415
0.003212262742
0.2142830318
-0.002442296733
-0.2148181783
0.001272034933
0.2144567513
-0.001067131606
-0.2152717647
0.003749335306
0.2166944945
-0.002578761555
-0.002593303524
-0.05232849365
0.002553831555
0.0524390265
-0.002664364404
-0.05824199819
0.006017381124
0.05778128228
-0.01170247495
0.00614580973
0.01412942228
-0.1248236625
0.245915183
-0.02409469132
0.01366001489
-0.1247862664
-0.2536281771
0.01735912655
0.252406481
-0.01601979496
-0.2520252181
0.01391579473
0.2518850467
-0.01355715365
-0.2461880635
0.01335487129
0.2462424565
-0.01321569006
0.01196805916
-0.2380713495
0.2372862422
-0.01113857216
-0.4673300311
0.01790568433
0.4647887943
-0.01536444752
-0.4632407912
0.01334895346
0.4613907308
-0.01149889296
-0.0153386835
0.9112033397
0.01040038461
0.009924863606
-0.009864754517
0.9046175266
-0.004846025566
0.9024170158
0.9012499184
-0.004536693573
0.9399496603
-0.009199341997
0.9395443362
-0.01412117805
0.9386220629
-0.009621156021
0.937150826
-0.009836482908
-0.4649266795
0.4663338259
-0.0110283024
-0.46308855
0.01259398481
0.4647750224
-0.01428045717
-0.4555469198
0.01611688527
0.4574748334
-0.008874787784
-0.00931170198
-0.2160321858
0.008583865002
0.2153395215
-0.008079252085
-0.210855753
0.005698447353
0.2097448966
-0.004832704155
-0.2150056609
0.002941519985
0.214649104
-0.002731648547
-0.2212899979
0.003923162645
0.222606774
-0.002639297296
-0.002600641427
-0.05486611534
0.004904270454
0.1101313212
-0.0548601906
-0.002667108765
-0.002642176913
-0.1124053173
0.007814236554
0.1122023246
-0.01518915134
0.007577907468
0.02310199724
-0.2387112597
0.2371314188
-0.02151695354
-0.24988055
0.01564581158
0.2498877695
-0.01549779858
-0.2520298617
0.01571606991
0.2540982382
-0.01756245476
-0.2459539124
0.01700038792
0.2447783126
-0.01566619958
0.01255481191
-0.2338058902
0.2327450863
-0.0114874763
-0.462506221
0.01877516128
0.4604351017
-0.01670404189
-0.4595285189
0.01472219373
0.457430174
-0.01262384873
-0.01494815872
0.9053688286
0.01032907076
0.01045359904
-0.01066658209
0.90033595
-0.005220095734
0.8969705295
0.8960298227
-0.00472767213
0.9446773324
-0.009577183773
0.9443938479
-0.01467277524
0.9437176544
-0.01000722018
0.9426285803
-0.01014330933
-0.4678338556
0.4693197532
-0.0114931178
-0.4664758993
0.01309776051
0.4681778424
-0.01479970361
-0.4608701207
0.01662154019
0.4651929716
-0.01044106526
-0.01055533744
-0.2147792045
0.01260479333
0.2152762694
-0.01326068482
-0.2069494881
0.01359346291
0.2063578765
-0.01323494113
-0.212275549
0.01119104859
0.2112014946
-0.01028814173
-0.2238799762
0.007122837526
0.2226658919
-0.005945067437
-0.1131174711
0.007446400166
0.2265276646
-0.007717599218
-0.1131389944
-0.2262481941
0.01464310156
0.2267590055
-0.01515391301
-0.237588852
0.01809629669
0.238957548
-0.01940412846
-0.251460662
0.02173637075
0.2519875895
-0.02207472698
-0.2537275429
0.02194047223
0.253530783
-0.02151655844
-0.2416325209
0.01904367224
0.2416904014
-0.01898296021
0.01359575476
-0.2314510733
0.2289958464
-0.01114052787
-0.458578483
0.02029743972
0.4550813497
-0.01680030639
-0.4553265449
0.01497761291
0.4529836213
-0.01263468925
-0.0153420217
0.8996905105
0.01057847025
0.01044186956
-0.01074011881
0.8957340471
-0.005437734319
0.891668145
0.8905920884
-0.004801246871
0.9494785793
-0.009711359489
0.9493039605
-0.01483661112
0.948842906
-0.01013183219
0.9480912825
-0.01016748116
-0.4708070243
0.4722949217
-0.01161972958
-0.4698598417
0.01319961571
0.4715136001
-0.01485337412
-0.4688311136
0.01660031134
0.4707271463
-0.009296139497
-0.00920033013
-0.2194532258
0.01465561169
0.2218423231
-0.01714085235
-0.2065374849
0.02273469623
0.2074945833
-0.02388352803
-0.2084078734
0.02513930193
0.2079810888
-0.02489318702
-0.2186574003
0.02271707154
0.2175742117
-0.021733465
-0.2239660969
0.01949663064
0.2220706086
-0.01762640778
-0.2318063372
0.02253375193
0.2334010764
-0.02410110999
-0.2437435526
0.02872782204
0.245046036
-0.02992274881
-0.2532284493
0.03144324966
0.2531497015
-0.03117957263
-0.2512097676
0.02810626514
0.2496756057
-0.02639226363
-0.2362907898
0.01969776995
0.233734375
-0.01707718825
0.01282150671
-0.226777473
0.2260930957
-0.01213712937
-0.4540142114
0.02035573301
0.4510192222
-0.01736074381
-0.449846682
0.01366927306
0.4480012377
-0.01182382872
-0.01445071996
0.8926375953
0.01099884915
0.01050478612
-0.008298946652
0.8895822738
-0.005473100353
0.8888422987
0.8851189881
-0.004770961267
0.9542495405
-0.009634021615
0.9541670208
-0.01467435058
0.953883235
-0.01003090916
0.9534102738
-0.009962432709
-0.4737410516
0.4751775983
-0.01146745595
-0.4731214644
0.01297513664
0.4746798439
-0.01453351623
-0.4725025691
0.01615736134
0.4741956004
-0.008971703235
-0.008878689333
-0.2320396541
0.009924923307
0.2355539053
-0.01345190727
-0.2137874473
0.02541326289
0.217079167
-0.02882025568
-0.2094797397
0.03663207249
0.2110960456
-0.03839201345
-0.2163081781
0.04148193226
0.2167349376
-0.04201306749
-0.214371493
0.04079749193
0.2117207494
-0.0381821524
-0.2363783038
0.04387406697
0.236723371
-0.04418020807
-0.2466431679
0.04411105527
0.2461702934
-0.04352905599
-0.250233943
0.03953355449
0.248224486
-0.03738078722
-0.2423311738
0.02872102789
0.2389544679
-0.02524422903
-0.2252721918
0.01425587819
0.2245215327
-0.01350465612
0.01178829316
-0.2242591058
0.2236979295
-0.01122711686
-0.4470528561
0.01908776363
0.4450873656
-0.01712227309
-0.4462072124
0.01525034693
0.4444051031
-0.01344823762
-0.01348856449
0.8847965549
0.01152781405
0.009801790749
-0.007820534724
0.883914244
-0.005068560213
0.8860903243
0.8800504279
-0.004656720232
0.9589062608
-0.009386707275
0.9588970079
-0.0142512935
0.9587478212
-0.009738409713
0.9584868044
-0.009589414393
-0.4765552406
0.4779103763
-0.01109354538
-0.4761760901
0.01250018374
0.4776113903
-0.01393548391
-0.4757989681
0.01540928704
0.4773100432
-0.008521892764
-0.008398469356
-0.2375133044
0.00930656246
0.2379109151
-0.009704173165
-0.230092717
0.01323794479
0.2351939042
-0.01835973522
-0.2194374411
0.0321834926
0.2232434268
-0.03605974228
-0.2207351228
0.04518232703
0.2228315479
-0.04734343407
-0.2077994434
0.04675004368
0.2083720237
-0.04734449804
-0.2359487823
0.051424365
0.2351787222
-0.05062194099
-0.2417619335
0.0458239542
0.2394152445
-0.04340574679
-0.2391698785
0.03375510855
0.2353221871
-0.02984055474
-0.2265409538
0.01665929252
0.2236421892
-0.01375319725
-0.2230003319
0.01245090812
0.2225580474
-0.01200862366
0.0106650339
-0.2222054085
0.2217532749
-0.01021290028
-0.4432693868
0.01759063626
0.4415912719
-0.01591252142
-0.4427400416
0.0142792266
0.4411333948
-0.0126725798
-0.01611965062
0.8789865527
0.01082263313
0.01110701974
-0.01058819755
0.878382791
-0.002442376853
0.8779445036
0.877608051
-0.004477563327
0.9633838241
-0.00900893131
0.9634283759
-0.01363239211
0.963371282
-0.009302834947
0.9632562268
-0.009098979583
-0.4791985451
0.4804569458
-0.01056123567
-0.4789773637
0.01185292767
0.4802785321
-0.01315409611
-0.4787292545
0.01447175378
0.480060755
-0.007972582478
-0.007830671796
-0.2390105648
0.008649894691
0.239348288
-0.008987617794
-0.2381590503
0.009992666079
0.2384887626
-0.0103223783
-0.2363619901
0.01128357594
0.2371079631
-0.01203055457
-0.2304310387
0.02177957496
0.2332211073
-0.02458296395
-0.2137074622
0.02812110056
0.2157836393
-0.0302027555
-0.2318924259
0.0309930982
0.2306344932
-0.02972396177
-0.2306861657
0.02289570164
0.2275434078
-0.01974002792
-0.2242864427
0.01322387672
0.2240691088
-0.01300654285
-0.2226068942
0.01222560541
0.222310398
-0.01192910922
-0.2213907045
0.01096021522
0.2210478616
-0.01061737235
0.0095529293
-0.2205528768
0.220184685
-0.009184737554
-0.4400454565
0.01599006977
0.4386233684
-0.01456798166
-0.4396622487
0.01315608935
0.4382487902
-0.01174263089
-0.01506622346
0.873699415
0.01001013436
0.01034322673
-0.009943812893
0.8732603804
-0.004937059569
0.8729377503
0.8726709914
-0.004252184129
0.9676360083
-0.0085400492
0.967716241
-0.01288153314
0.9677127659
-0.008773179187
0.9676847486
-0.008536875785
-0.4816445167
0.482799833
-0.009928495525
-0.4815094902
0.01110157623
0.4826767602
-0.01226884625
-0.4813046115
0.01343446739
0.4824648708
-0.007362480098
-0.007232246616
-0.2402800011
0.007953387895
0.240566129
-0.008239515763
-0.2393807478
0.009073566157
0.2396488792
-0.009341697583
-0.2379435632
0.01011231849
0.2381906052
-0.01035936047
-0.2351020504
0.01095991472
0.2350837979
-0.01094166222
-0.2196174855
0.01076968052
0.2203704893
-0.01152268429
-0.2290987476
0.01199471168
0.2291116409
-0.01200760493
-0.2261122752
0.01187276226
0.2260207381
-0.01178122514
-0.2234977056
0.01138698649
0.223329723
-0.01121900387
-0.2215303838
0.01061811778
0.2213013635
-0.01038909743
-0.2201340268
0.00963257603
0.2198627305
-0.009361279706
0.008505110672
-0.2192097115
0.2189061689
-0.008201568024
-0.437314243
0.01440705722
0.4361088986
-0.01320171282
-0.4369608818
0.0119853817
0.4357242641
-0.01074876404
-0.01390276746
0.8689389997
0.009158573223
0.009504609592
-0.009216332267
0.8685739452
-0.004587378444
0.8683087964
0.868083613
-0.003997995991
0.9716340043
-0.0080159594
0.9717342044
-0.01205494341
0.97175175
-0.008189536196
0.9717596127
-0.007940271286
-0.4838832099
0.484937679
-0.009244005322
-0.4837770754
0.0103022412
0.4848181233
-0.01134328909
-0.4835463053
0.01237028232
0.48455391
-0.006744175828
-0.006633711145
-0.2413552621
0.007260910712
0.241597895
-0.007503543606
-0.2403771651
0.008198777849
0.2405971719
-0.008418784602
-0.2388500757
0.00904341071
0.2390459338
-0.009239268741
-0.234938446
0.009652268608
0.2348658416
-0.009579664301
-0.2223703664
0.009597273003
0.2229570706
-0.01018397725
-0.2291167756
0.01041952573
0.2291089844
-0.01041173461
-0.2257661938
0.01027451893
0.2256868283
-0.01019515348
-0.2228791188
0.009870431006
0.2227440294
-0.009735341659
-0.2206894646
0.009256293907
0.2205070866
-0.009073915891
-0.2191323356
0.008468185532
0.2189133186
-0.008249168563
0.007550319227
-0.2181059642
0.2178546803
-0.007299035251
-0.4349966455
0.01291319471
0.4339689862
-0.01188553537
-0.434600822
0.01083652328
0.4335208073
-0.009756508587
-0.01270924327
0.864679371
0.008313569108
0.00865530284
-0.008456619412
0.8643213214
-0.004218348954
0.864070526
0.8638652641
-0.003728936621
0.9753629409
-0.007464827523
0.9754700953
-0.0111960577
0.9754829801
-0.007585672224
0.9754862758
-0.007337048612
-0.4859189601
0.4868758724
-0.008542584554
-0.4857974595
0.009492917888
0.4867229665
-0.01041842492
-0.4854924332
0.01132174262
0.4863663385
-0.006143757679
-0.006051890207
-0.2422678951
0.006596164176
0.2424743456
-0.006802614715
-0.2411981713
0.007386197097
0.2413807817
-0.007568807479
-0.2395724803
0.008082557462
0.2397298589
-0.008239936076
-0.2345959807
0.008520927368
0.2344924682
-0.008417414777
-0.2244931532
0.008568605407
0.2249346625
-0.009010114754
-0.2290645713
0.00910917647
0.2290440425
-0.009088647721
-0.2254620386
0.008949234021
0.2253910226
-0.008878218007
-0.2223755759
0.008601741421
0.222263428
-0.008489593536
-0.2200133366
0.008096472408
0.2198643401
-0.007947475902
-0.2183181592
0.007451748269
0.2181380835
-0.007271672609
0.006692812921
-0.2171913367
0.2169811929
-0.006482669124
-0.4330183709
0.01153255709
0.4321384683
-0.01065265452
-0.4325407804
0.00974544275
0.4315969446
-0.008801606981
-0.01153728703
0.8608825924
0.0075052442
0.007828821425
-0.007701106045
0.8604851404
-0.003848679019
0.860218099
0.860016585
-0.003457354382
0.9788202953
-0.006911296625
0.9789240375
-0.01034127672
0.9789129602
-0.006988324498
0.9788811341
-0.006747810507
-0.4877612269
0.4886269375
-0.007854035189
-0.4875931628
0.008705988083
0.4884155366
-0.009528361881
-0.4871811931
0.01032420494
0.4879425968
-0.005584790362
-0.005500818232
-0.2430455351
0.00597708323
0.2432219196
-0.006153467708
-0.2418828058
0.006647427549
0.2420363276
-0.006800949358
-0.2401555323
0.007229851043
0.2402834693
-0.007357788046
-0.2341538339
0.007543963233
0.2340341073
-0.007424236662
-0.2260674676
0.007670118854
0.2263861246
-0.00798877583
-0.2289695594
0.008007615815
0.2289412188
-0.007979275193
-0.2251880358
0.007839936305
0.2251234593
-0.007775359818
-0.2219535193
0.007534360107
0.2218580709
-0.007438911723
-0.2194563631
0.007108512831
0.2193319329
-0.006984082676
-0.2176444628
0.006570391048
0.2174938677
-0.006419795884
0.005933366368
-0.2164240901
0.2162462522
-0.005755528493
-0.4313223244
0.01028256792
0.4305646822
-0.009524925779
-0.4307405831
0.008737098628
0.4299140082
-0.007910523681
-0.01042439247
0.8575042286
0.006751601886
0.007051154351
-0.006976625593
0.8570373735
-0.003492256889
0.8567337303
0.8565243282
-0.00319177824
0.9820120735
-0.00637217498
0.9821044343
-0.009514769525
0.9820555548
-0.006413576046
0.9819666741
-0.006186733402
-0.4894242052
0.490206136
-0.007195506855
-0.4891888521
0.00795900645
0.4899200246
-0.008690179007
-0.4886544094
0.009392091929
0.4893203702
-0.005068888084
-0.004989164643
-0.2437112225
0.005409578704
0.2438629001
-0.005561256367
-0.2424611393
0.005983438679
0.242591977
-0.006114276393
-0.2406313189
0.006477302375
0.2407364718
-0.006582455254
-0.2336625919
0.006699410915
0.2335363625
-0.006573181599
-0.2271879247
0.006881321645
0.2274091745
-0.007102571458
-0.2288481611
0.007073724359
0.2288149279
-0.007040491061
-0.2249379453
0.006902969755
0.2248786542
-0.006843678635
-0.2215916996
0.006630035571
0.221508891
-0.006547226905
-0.2189880501
0.006264154091
0.2188822158
-0.006158319751
-0.2170779942
0.005807299101
0.2169501784
-0.005679483348
0.005265430541
-0.2157728783
0.2156207407
-0.005113293
-0.4298597441
0.009164042699
0.4292032694
-0.008507568026
-0.4291637052
0.007820262231
0.4284377395
-0.007094296591
-0.009391164634
0.8544988577
0.006062233907
0.006334301661
-0.006298760285
0.8539449692
-0.003157292574
0.8535922626
0.8533670356
-0.002938695911
0.9849507694
-0.005860111542
0.9850258499
-0.008734323758
0.984929767
-0.005872732693
0.9847689427
-0.005663859721
-0.4909237649
0.4916298169
-0.006578784699
-0.4906080167
0.007263508678
0.4912592078
-0.007914699819
-0.4899441308
0.008535277704
0.4905289125
-0.004596195904
-0.004523863527
-0.2442850382
0.004893605683
0.2444164482
-0.005025015592
-0.2429563724
0.005389731656
0.2430693824
-0.005502741612
-0.2410238092
0.005813803976
0.2411111091
-0.005901103912
-0.2331574876
0.005965681009
0.2330326524
-0.005840845823
-0.2279569579
0.006183879409
0.2281059687
-0.006332890193
-0.2287101263
0.006275331918
0.2286737669
-0.006238972489
-0.2247077282
0.006104192617
0.2246528929
-0.006049357356
-0.2212760611
0.00585754981
0.2212031435
-0.005784632239
-0.218587562
0.005538391298
0.2184962067
-0.005447035948
-0.2165950643
0.005145105616
0.2164852392
-0.005035280538
0.004678979203
-0.215214336
0.2150829862
-0.004547629458
-0.4285904959
0.008172547616
0.4280180361
-0.007600087845
-0.4277781354
0.006997535903
0.4271383016
-0.006357702085
-0.008449398799
0.8518224689
0.005441553208
0.005684234353
-0.005677090214
0.8511726606
-0.002848998987
0.8507641713
0.8505180366
-0.002701956703
0.9876527261
-0.005382441401
0.9877063346
-0.008009775245
0.9875571008
-0.00537284553
0.987314907
-0.005182894057
-0.4922763216
0.4929144935