/*--------------------------------*- C++ -*----------------------------------*\
| =========                 |                                                 |
| \\      /  F ield         | OpenFOAM: The Open Source CFD Toolbox           |
|  \\    /   O peration     | Version:  v1912                                 |
|   \\  /    A nd           | Website:  www.openfoam.com                      |
|    \\/     M anipulation  |                                                 |
\*---------------------------------------------------------------------------*/
FoamFile
{
    version     2.0;
    format      ascii;
    class       surfaceVectorField;
    location    "0.64";
    object      Uf;
}
// * * * * * * * * * * * * * * * * * * * * * * * * * * * * * * * * * * * * * //

dimensions      [0 1 -1 0 0 0 0];


internalField   nonuniform List<vector> 
25162
(
(99.99873649 0.005055875461 -2.257413921e-21)
(99.99526515 0.004349868861 6.681177209e-21)
(99.99786128 0.01308065343 -2.228977913e-21)
(99.99248845 0.0157127881 2.253007507e-21)
(99.99609532 0.02738726855 -4.447451373e-21)
(99.98661128 0.03565004504 1.342103081e-20)
(99.99808934 0.03325379256 1.387909344e-21)
(99.97542814 0.07169616388 -8.853451863e-21)
(99.98932964 0.07404773065 -1.479048558e-21)
(99.99675249 0.06093072922 2.150379647e-21)
(99.99896158 0.03672066668 1.066016381e-21)
(99.98723679 0.1051145895 2.138486063e-21)
(99.99707131 0.0601391502 1.047346734e-21)
(99.99783382 0.04648879839 -1.078088024e-21)
(99.99634939 0.07733078182 1.047303957e-21)
(99.98003481 0.174977334 2.084893501e-21)
(99.99597206 0.09868165069 0)
(99.99570646 0.1223133359 -3.839587111e-21)
(99.97369824 0.2713801053 -3.839567127e-21)
(99.99507983 0.1504473201 -1.000526455e-21)
(99.99437563 0.182950525 3.346725618e-21)
(99.96561064 0.4013609266 3.652815421e-21)
(99.99371313 0.219768644 4.512662949e-22)
(99.99317733 0.2603848344 -3.010797102e-21)
(99.95938895 0.5634797723 4.276837652e-22)
(99.99286618 0.3038434608 -3.082883527e-21)
(99.99292816 0.3485507728 3.027545182e-22)
(99.95918757 0.7417577983 -2.069055301e-21)
(99.99298785 0.39221964 2.748979257e-21)
(99.99314651 0.4325898059 2.359692726e-21)
(99.96857862 0.8993120866 -1.049024394e-21)
(99.99438589 0.4662843529 0)
(99.99653947 0.489958171 0)
(99.98803703 0.9942494271 2.437644621e-22)
(99.99881628 0.5027853401 0)
(100.0012397 0.5045386851 3.117263969e-22)
(100.0097092 1.000567312 -7.606098907e-24)
(100.0036762 0.4941841421 9.129103341e-22)
(100.0058465 0.4730889025 -5.663038427e-23)
(100.0286222 0.9166277986 -5.955748483e-22)
(100.0070074 0.4424602506 -9.956004142e-22)
(100.0068586 0.4055530037 9.542709546e-23)
(100.0374391 0.7727483312 1.739864822e-21)
(100.0066751 0.3655272034 4.488841899e-22)
(100.0066966 0.3244509133 0)
(100.0378403 0.608343685 0)
(100.006454 0.2839899883 0)
(100.0061755 0.2455239744 7.777990771e-22)
(100.0327973 0.4556593493 1.630719361e-21)
(100.0062743 0.2104621647 -3.94454012e-21)
(100.0060757 0.1766870036 -1.455022321e-21)
(100.0274148 0.3225576488 3.202281764e-21)
(100.0052219 0.1473866824 3.202042805e-21)
(100.0039024 0.1227683113 -9.064945756e-22)
(100.0165014 0.221705027 -5.974256922e-23)
(100.0009899 0.105140064 1.76152624e-21)
(100.0102902 0.1020186562 -7.886069363e-21)
(100.0587565 0.2502207467 5.798120217e-22)
(100.0208035 0.2243987431 -2.809454163e-21)
(100.0033552 0.105062854 -1.633307356e-21)
(100.0072837 0.05933837092 -9.927821836e-22)
(100.0399145 0.1531264919 1.573381592e-20)
(100.0060606 0.02776740582 -7.975891523e-21)
(100.0296627 0.08206565434 -1.677669197e-20)
(100.0261678 0.02591895304 1.526252818e-21)
(99.98821101 0.01373378868 1.115834323e-20)
(99.98235936 0.006454464548 3.09132536e-22)
(99.97964912 0.0359713509 1.783803903e-20)
(99.97165005 0.02452534109 -1.559507372e-20)
(99.96379855 0.07605981257 9.380844552e-21)
(99.94909956 0.05854473293 -2.420263257e-20)
(99.95504814 0.1304197475 -1.566187753e-21)
(99.91200297 0.1209471936 4.661950693e-20)
(99.92203284 0.1573840505 -1.028754433e-20)
(99.93256515 0.1685013047 -2.208079247e-21)
(99.94777754 0.1688952199 4.362832305e-21)
(99.96856898 0.1190787035 2.164568792e-21)
(99.94836049 0.2054864346 2.117437734e-21)
(99.93170022 0.2229424271 2.154591168e-21)
(99.8847469 0.2963982833 -4.348277262e-21)
(99.91405425 0.2909482271 -1.856631919e-23)
(99.91949427 0.3411629493 2.085220699e-21)
(99.8932305 0.3752219425 -1.846880649e-23)
(99.8243882 0.4930699654 0)
(99.88262707 0.4450062972 0)
(99.85040081 0.5088219279 -2.613423836e-21)
(99.88866709 0.51824848 -5.141866152e-21)
(99.87524223 0.5452216099 -7.230724976e-23)
(99.83899224 0.6312493393 -1.156944053e-20)
(99.8650097 0.5982640315 -3.975864347e-21)
(99.83133391 0.8171473525 2.457723533e-23)
(99.85280259 0.7721260808 -2.631642983e-21)
(99.78451651 0.94602754 -1.435600293e-20)
(99.82240592 0.8900727754 -3.495678085e-21)
(99.79436512 1.168498147 -6.579481164e-21)
(99.82393695 1.093966025 -6.201166369e-21)
(99.74018676 1.348205825 6.361560794e-22)
(99.78966302 1.257923301 -7.896248539e-21)
(99.78210948 1.572077451 -8.582941889e-23)
(99.81889305 1.455503823 -5.191487049e-21)
(99.73024713 1.803653413 2.637293658e-21)
(99.78805842 1.666699697 -3.910314571e-21)
(99.81894389 1.951549756 -4.682843047e-21)
(99.85928446 1.783654703 -6.687141146e-21)
(99.78178275 2.226112292 -3.637486642e-21)
(99.83876962 2.034178314 -2.091575862e-21)
(99.9109142 2.212584072 -9.392635387e-22)
(99.9480743 1.993302008 -1.925757945e-21)
(99.90000702 2.502647049 7.091442505e-20)
(99.93925882 2.263850583 -1.684102206e-21)
(100.0221237 2.274614473 4.755363917e-22)
(100.0427507 2.02047888 -4.07849583e-22)
(100.0355753 2.544742563 -1.462379779e-22)
(100.0492479 2.28200096 -5.886843079e-22)
(100.1268611 2.133574577 -2.270140377e-22)
(100.1075209 1.860860798 -2.350765524e-22)
(100.1577917 2.346791106 -1.150393968e-22)
(100.1459337 2.079524008 1.901201837e-21)
(100.1882269 1.831371642 2.323160515e-21)
(100.1405525 1.574433906 4.023346718e-21)
(100.2225979 1.984909879 4.052639875e-21)
(100.193543 1.743416145 5.507460222e-22)
(100.2013509 1.462433603 -6.665559402e-21)
(100.1421083 1.242226126 -6.231589425e-21)
(100.2334826 1.565602874 -2.24201571e-21)
(100.1972738 1.364552372 -2.214055399e-21)
(100.1792785 1.105619937 -5.355841713e-21)
(100.1190737 0.9319496902 4.899505313e-22)
(100.1997998 1.16900791 -1.44266403e-21)
(100.1694492 1.019196774 5.877984663e-21)
(100.110551 0.6382296444 -1.364134095e-20)
(100.1766302 0.8703361288 -1.364028105e-20)
(100.2477671 0.9395870756 1.383349385e-20)
(100.1524815 0.7234796183 -2.791017457e-20)
(100.1288422 0.5974289981 1.218711627e-20)
(100.1783744 0.6362342277 -1.72215752e-20)
(100.1047793 0.4913184531 2.45131937e-20)
(100.0791184 0.4348095092 2.724661328e-20)
(100.0974237 0.2960504387 2.337883951e-20)
(100.2215142 0.4656773811 -2.126478022e-22)
(100.1696509 0.5226639865 4.904884167e-20)
(100.0998205 0.4159701382 2.660763746e-21)
(100.07008 0.172535493 -6.772353515e-22)
(100.1558079 0.2832538049 3.357681051e-20)
(100.0562147 0.07916308733 -7.808444968e-21)
(100.1176902 0.1518910272 -1.780015991e-20)
(100.1008378 0.04774155699 7.975039374e-21)
(99.96898046 0.01579187175 -2.677523829e-20)
(99.96745898 0.004161957825 -1.338219675e-20)
(99.94514049 0.04444471045 -5.802242804e-20)
(99.94469357 0.01952899404 1.240810617e-20)
(99.90225878 0.1004549226 1.264716655e-20)
(99.89656746 0.05693757787 -4.912508835e-20)
(99.85353163 0.192577245 2.966381782e-20)
(99.81878005 0.1291804419 5.344628323e-20)
(99.80430297 0.2078903331 -4.87289112e-20)
(99.87199666 0.2080142265 -8.912233122e-21)
(99.80544517 0.2325553869 -6.549353109e-20)
(99.82142663 0.2637892689 -4.426927839e-21)
(99.79835395 0.3729215473 -8.682451026e-21)
(99.77517755 0.3553314676 -4.326871617e-21)
(99.69164358 0.4303019215 3.034277519e-20)
(99.72033804 0.4696290368 8.534744883e-21)
(99.6948676 0.6277363948 -7.52158445e-21)
(99.65630525 0.61075131 5.550428552e-21)
(99.53289627 0.7381533888 -4.279248372e-20)
(99.61742257 0.7571341649 3.060386154e-21)
(99.55519364 0.8108175495 -1.871580502e-20)
(99.59654146 0.9550087305 -7.775888822e-21)
(99.56554878 0.9504146395 0)
(99.49097109 1.050009915 8.030899789e-21)
(99.52878001 1.063258919 -7.754554557e-21)
(99.45883887 1.458333175 3.800628906e-21)
(99.41213653 1.464791042 1.491251247e-20)
(99.31520826 1.615161073 7.394404064e-21)
(99.37384436 1.618347341 1.853496879e-20)
(99.34046945 2.113994367 -1.663476867e-21)
(99.27325557 2.143476984 6.620897798e-21)
(99.16464415 2.356971569 6.627332624e-21)
(99.25010368 2.333376283 2.333324181e-19)
(99.31334306 2.88030888 -4.093585706e-19)
(99.2236799 2.954503296 -4.065517896e-20)
(99.12469483 3.251391628 -3.168359378e-19)
(99.23305639 3.169633464 -9.13023451e-20)
(99.44557662 3.648216419 2.100328409e-19)
(99.34227085 3.804809661 4.729814009e-19)
(99.29641828 4.161250054 -3.907599851e-20)
(99.40716167 3.987170481 -1.839013183e-20)
(99.76728207 4.134539327 6.910867452e-20)
(99.6626442 4.38039343 -5.489993203e-19)
(99.71596581 4.739088351 3.530002575e-19)
(99.77367817 4.462311685 2.83443106e-19)
(100.1339016 4.216388389 2.41248819e-20)
(100.112113 4.526593023 1.357763941e-19)
(100.2001465 4.817840104 4.186005919e-20)
(100.219074 4.478114129 -2.334776208e-20)
(100.452872 3.847206605 0)
(100.4878897 4.176293309 0)
(100.6032342 4.370952549 0)
(100.5558913 4.027136412 0)
(100.6116124 3.204822075 8.157413642e-21)
(100.6866621 3.505155761 5.525751084e-20)
(100.7925174 3.615950477 -2.378512563e-20)
(100.7066855 3.311955285 1.14355339e-20)
(100.6282177 2.491498938 -6.252823827e-21)
(100.716477 2.736347633 -1.452639867e-20)
(100.8037127 2.788848638 -5.075849399e-21)
(100.7059348 2.548704081 5.679034879e-21)
(100.6398546 2.020999482 -1.796792142e-20)
(100.5519819 1.830226562 -1.212181517e-20)
(100.7054368 2.038262962 -1.213816193e-20)
(100.6131396 1.856702999 6.548184759e-21)
(100.4371753 1.219910517 -5.401362813e-20)
(100.5842156 1.490786754 -2.841829903e-20)
(100.6806305 1.472980274 -8.186393525e-20)
(100.5074549 1.231571829 -3.842992996e-20)
(100.3198424 0.8202310322 -6.217569999e-20)
(100.4342237 1.009356225 2.458817132e-20)
(100.4968415 0.9798346638 -2.950828787e-20)
(100.3653838 0.82088654 -2.58045858e-20)
(100.2706 0.4480271635 1.082474056e-20)
(100.4651321 0.613819557 -2.654530561e-20)
(100.4388496 0.741925986 -1.608556097e-22)
(100.3268709 0.6733987758 -1.526621498e-20)
(100.1968507 0.2595854358 1.573178767e-20)
(100.3330885 0.3701836772 2.800889972e-20)
(100.1568672 0.1186680085 -2.00397021e-21)
(100.2506361 0.19713106 -4.048648459e-21)
(100.2127515 0.061463042 0)
(99.94887407 0.006851070419 2.687646314e-20)
(99.96101855 -0.004246418322 -4.481842836e-21)
(99.90349581 0.0296743097 2.261370174e-20)
(99.92323009 -0.004880801016 3.138647983e-20)
(99.82223203 0.0856173267 -8.986581023e-21)
(99.84393726 0.02048631596 -4.459598449e-21)
(99.71667965 0.2050228966 0)
(99.71285352 0.08464497019 6.848614595e-21)
(99.66062881 0.191895317 2.091598822e-20)
(99.72859831 0.2416361768 -6.11948604e-20)
(99.64541361 0.2322306641 1.572546457e-20)
(99.64697087 0.2936061186 0)
(99.56813931 0.4638391099 3.781213813e-22)
(99.55421138 0.4087200486 -3.482354247e-20)
(99.43135049 0.4698545245 -3.480011571e-20)
(99.44387357 0.5551110839 7.067153249e-20)
(99.34476347 0.8159245392 -1.050884706e-19)
(99.31483508 0.7386528976 3.772548464e-20)
(99.1339238 0.8510759685 -7.024690018e-20)
(99.20752779 0.9578179197 -3.489661435e-20)
(99.12208488 0.975393086 -5.750505904e-20)
(99.10495169 1.277572413 8.357146778e-21)
(99.07278331 1.230931598 1.661726717e-20)
(98.95530866 1.330552948 4.197628571e-20)
(98.99030116 1.390926909 8.288345607e-21)
(98.78114304 2.019300047 -1.304155987e-19)
(98.72542466 1.966478179 -1.175791737e-19)
(98.57355096 2.1256861 -1.615966532e-19)
(98.63911134 2.193034955 -1.616167473e-19)
(98.50001417 3.056929496 1.205288112e-19)
(98.40509121 3.013121422 -2.531766791e-19)
(98.22667216 3.281534817 -2.345140509e-19)
(98.34088523 3.336435757 1.090675202e-18)
(98.38602723 4.425690736 1.576534525e-18)
(98.24069012 4.432676619 7.273471058e-19)
(98.07407126 4.840566102 7.537940675e-19)
(98.252575 4.823744381 1.457125379e-18)
(98.74136532 5.864065203 -2.048590767e-19)
(98.47475645 5.978781001 -1.399903785e-19)
(98.49563525 6.512107224 -1.007269414e-18)
(98.64743366 6.324063032 -1.381119933e-19)
(99.57268488 6.789863033 -5.184926179e-19)
(99.3813095 7.079767795 -2.643246737e-20)
(99.5352962 7.579315909 -1.026139343e-19)
(99.66949499 7.214872275 -2.699357594e-19)
(100.5690498 6.808914821 0)
(100.5282176 7.213891834 4.663619332e-21)
(100.7729399 7.548904415 -2.584049298e-19)
(100.7823783 7.087160904 0)
(101.2850114 6.016704009 7.026334376e-20)
(101.3638956 6.433615207 3.319474982e-19)
(101.613668 6.588448275 8.843238244e-19)
(101.4907202 6.151635872 9.831195894e-19)
(101.5417657 4.85104413 -6.124976589e-19)
(101.68572 5.216227077 -4.018361761e-19)
(101.8771146 5.252607322 -7.657332873e-19)
(101.6997689 4.891802206 -9.483044215e-20)
(101.4846779 3.639057447 4.623603255e-20)
(101.6410384 3.931432549 -4.690124072e-20)
(101.7716626 3.898561153 0)
(101.5957108 3.623522416 2.178480108e-19)
(101.4187823 2.802695759 0)
(101.2775069 2.597056236 4.850205009e-20)
(101.5038618 2.755444123 0)
(101.351014 2.561975931 0)
(100.9757869 1.68861627 3.005807392e-20)
(101.2207768 1.978556583 1.944491122e-20)
(101.3160298 1.854902835 -1.739523594e-20)
(101.0526133 1.615723117 3.761169277e-20)
(100.7103615 1.109476054 -3.448110249e-20)
(100.897542 1.307890041 -1.539741931e-20)
(100.9532667 1.204711964 -1.557921295e-20)
(100.7591739 1.048968116 -7.512216043e-21)
(100.5125799 0.5320320724 -9.554958849e-21)
(100.7708977 0.6651471667 -2.009417843e-20)
(100.8064097 0.8759117717 -2.621415373e-21)
(100.6624614 0.8384298028 5.081380589e-21)
(100.3731095 0.3047999411 8.066217054e-21)
(100.5473157 0.3961370767 1.227313298e-20)
(100.2950602 0.1380094127 -2.04431651e-21)
(100.4079375 0.2069643643 -3.612797272e-21)
(100.3429046 0.06376304486 -5.200112101e-22)
(99.94168835 -0.01631436935 0)
(99.97642893 -0.01969358094 0)
(99.87163996 -0.01529697742 4.514439653e-21)
(99.9223556 -0.05142576935 0)
(99.74549775 0.02049857071 1.138132871e-20)
(99.81032491 -0.05655254422 -3.788964375e-21)
(99.5685614 0.1354633039 2.008916281e-20)
(99.62275534 -0.02145031292 2.524874142e-20)
(99.51269919 0.09739490435 -7.640227169e-21)
(99.56425436 0.2024372974 2.709769405e-20)
(99.47214812 0.1512147411 2.201508671e-21)
(99.44995011 0.2337760115 -1.074385528e-20)
(99.28699308 0.4449544364 0)
(99.29764212 0.3557128782 -2.267440008e-20)
(99.14058939 0.3865466156 -1.861553001e-20)
(99.11640363 0.5121289698 4.630114673e-21)
(98.90451409 0.8389607956 0)
(98.90319786 0.7131615775 4.629618958e-21)
(98.66655018 0.7783341126 -4.773405708e-21)
(98.6966177 0.9776455254 2.331730373e-20)
(98.60076017 0.9564601921 6.008628746e-21)
(98.4592376 1.393594903 2.333788824e-19)
(98.44371019 1.300740077 -3.480718972e-20)
(98.28134032 1.380505048 7.359787061e-20)
(98.29776652 1.490038237 9.692176849e-20)
(97.86670513 2.347727853 -1.055903061e-18)
(97.82330451 2.220871119 -5.271799451e-19)
(97.60385283 2.379533263 -8.103714813e-19)
(97.65055075 2.536753642 4.827036371e-19)
(97.22734756 3.894966905 2.286282409e-19)
(97.12168171 3.74703382 0)
(96.82968032 4.063065201 -2.479623444e-19)
(96.95959527 4.245114392 -7.5605028e-21)
(96.86292063 6.133440596 5.609538281e-19)
(96.63880897 6.020842363 -4.322761036e-19)
(96.34054025 6.559378735 -4.248505845e-19)
(96.62915527 6.690318673 3.291460177e-21)
(97.46042174 8.680989957 -2.871206773e-19)
(97.10376239 8.764476482 -4.232912392e-19)
(96.98744149 9.518808093 3.922410017e-19)
(97.46035974 9.407084777 -2.176761642e-19)
(99.4477698 10.41044514 -5.661249502e-20)
(99.06617192 10.82493576 -2.579695499e-19)
(99.42009721 11.56695092 1.02976644e-19)
(99.75103852 11.01072475 -9.854633883e-20)
(101.7442001 10.07984082 7.553557094e-20)
(101.6839005 10.69508074 -4.701446607e-20)
(102.2249925 11.05462756 2.381890965e-20)
(102.2018428 10.34394495 5.05917248e-19)
(103.0172957 8.348444176 -1.257479471e-20)
(103.2128755 8.905802707 -6.222287035e-19)
(103.6556618 8.929033984 7.648149223e-19)
(103.3780163 8.370883309 -8.008482851e-19)
(103.2092344 6.336685294 1.716636124e-19)
(103.494314 6.759837871 1.216250992e-19)
(103.7842099 6.643809099 -7.310660452e-19)
(103.4424362 6.249452824 -4.924134012e-19)
(102.840674 4.568749125 3.376280114e-19)
(103.1144358 4.873886714 2.496974619e-19)
(103.2657281 4.734384319 2.604017818e-19)
(102.9713262 4.458373114 0)
(102.5194613 3.339255466 -1.545612079e-20)
(102.297232 3.122246848 -4.015622794e-21)
(102.6008623 3.204466991 3.499420442e-20)
(102.3692414 3.015434241 2.37654662e-20)
(101.6926797 1.960791398 -9.765824648e-20)
(102.0390007 2.233475193 -6.196804985e-20)
(102.0986671 1.996339133 -3.485825111e-20)
(101.7494321 1.800916447 -1.802149647e-20)
(101.2188666 1.257537602 1.20004427e-20)
(101.483239 1.436868524 3.621909026e-20)
(101.5029698 1.262510648 -4.039433824e-21)
(101.2473302 1.134180796 -3.958168652e-21)
(100.7893247 0.53007025 2.08835714e-21)
(101.0984348 0.5971685676 0)
(101.2252589 0.8716305514 -1.059350527e-22)
(101.067226 0.883940989 -1.08126184e-20)
(100.5683873 0.2955830884 4.584525484e-22)
(100.768429 0.3469933216 2.088168866e-21)
(100.4440196 0.1312973791 -2.094556382e-21)
(100.5628888 0.1740402918 -2.096232141e-21)
(100.4667415 0.05250706816 -2.105088382e-21)
(99.96310319 -0.05457301762 0)
(100.0279352 -0.04218077178 2.206311611e-21)
(99.86839382 -0.09255447794 -9.056495462e-21)
(99.95829254 -0.1199206051 -2.222858533e-21)
(99.69703485 -0.0977725437 9.351938224e-21)
(99.81546325 -0.1742982816 -4.517720803e-21)
(99.43758518 -0.009287398255 1.227374297e-20)
(99.5735804 -0.1918407949 3.659242779e-21)
(99.39680504 -0.0808401299 -3.285609252e-23)
(99.40303001 0.07593266401 -9.156066416e-21)
(99.32399423 -0.02116282166 -9.218145558e-21)
(99.26420821 0.07478077876 0)
(98.99941131 0.2926898218 -1.861507046e-20)
(99.04945102 0.1780975632 0)
(98.87009823 0.1630266017 -1.097048388e-22)
(98.79048727 0.3163296582 -7.206279962e-23)
(98.42695084 0.6670906961 9.578220711e-21)
(98.48033834 0.4994123975 1.441142049e-20)
(98.20204846 0.5032476551 1.939573756e-20)
(98.1595203 0.7716944123 -1.531433144e-20)
(98.06917195 0.7075279226 -1.584516173e-20)
(97.75167619 1.228341411 2.83632863e-21)
(97.7733952 1.096395454 -3.619486054e-19)
(97.57915414 1.137461487 -2.921851974e-19)
(97.55026138 1.292807912 -4.395203366e-19)
(96.74090758 2.327323705 2.826408957e-19)
(96.74573407 2.122436034 -2.759833611e-19)
(96.44171155 2.251638197 -2.753792006e-19)
(96.42973219 2.498280182 -2.846317372e-19)
(95.43916369 4.318264775 -2.942198606e-19)
(95.369444 4.012518301 -2.73950932e-19)
(94.91275542 4.302865521 -5.628556777e-19)
(95.00023235 4.673145393 -4.304496e-19)
(94.29017361 7.628372632 -4.308107758e-19)
(94.00744057 7.251402247 -2.670869161e-19)
(93.41691589 7.838540518 -3.113939597e-19)
(93.79063898 8.318164318 3.012901778e-19)
(94.74868871 12.32170257 3.652450663e-20)
(94.01569095 12.11844197 -9.431405325e-20)
(93.56194037 13.29113936 -6.233951726e-19)
(94.56952408 13.49244081 5.821355748e-20)
(99.11329149 16.05050283 2.145293816e-20)
(98.15994953 16.6921637 -1.831885293e-19)
(98.81105985 18.09299937 1.269239102e-20)
(99.82887767 17.09735677 -1.05407628e-19)
(104.4294426 14.51625593 2.662236573e-19)
(104.3667663 15.65014913 0)
(105.528024 15.89857058 1.150676968e-19)
(105.3527372 14.62784879 0)
(106.2705518 10.54243697 8.743822976e-19)
(106.7317007 11.3103935 2.570623038e-19)
(107.4246911 10.99717438 4.295254793e-19)
(106.8127476 10.28685234 2.049411391e-19)
(105.8609386 7.291100519 -2.839851267e-19)
(106.3775922 7.71981795 -1.111514779e-18)
(106.6734463 7.379180743 -1.043524264e-18)
(106.1065951 7.014228819 3.445759265e-19)
(104.7387135 4.986086981 8.708809116e-19)
(105.1691428 5.249248408 -6.298286551e-19)
(105.2844971 4.966563921 3.329732885e-19)
(104.8448272 4.753903585 0)
(103.9213893 3.468343139 -5.479904105e-20)
(103.5964565 3.284887442 3.36657447e-19)
(103.9570505 3.244362215 1.7203678e-19)
(103.6385673 3.094237881 3.041614845e-19)
(102.5232877 1.951327478 2.825579772e-20)
(102.9769844 2.1604378 -2.852659995e-22)
(102.9515287 1.817922705 1.731668423e-20)
(102.5220855 1.703930669 1.291963983e-20)
(101.7886555 1.21291965 -1.692464722e-20)
(102.1207167 1.336514898 -8.641938576e-21)
(102.0728764 1.102904488 -8.643612829e-21)
(101.7685505 1.034270269 1.320413351e-20)
(101.0600544 0.4211234342 0)
(101.4032541 0.4012898544 1.393353321e-21)
(101.6333108 0.6992370737 -1.163498179e-20)
(101.4878428 0.7895179735 2.883153483e-20)
(100.7482102 0.2233643401 -5.280755096e-22)
(100.9548696 0.2143364458 -1.646013706e-21)
(100.574006 0.09513983504 -2.117944562e-21)
(100.6837921 0.09547981472 -2.39799784e-21)
(100.5564665 0.02700358593 2.67403254e-21)
(100.028317 -0.1068205506 -1.584403539e-23)
(100.1287164 -0.07077903348 7.956830292e-23)
(99.91183298 -0.1999395858 2.312502427e-21)
(100.0462085 -0.2073680671 -9.720403544e-23)
(99.70063816 -0.2666698786 -1.213931767e-20)
(99.87859636 -0.3271261656 1.838237023e-21)
(99.36158232 -0.2373071267 -1.096861794e-20)
(99.59318966 -0.4184792986 -1.841838627e-20)
(99.3479688 -0.3367587621 -1.567545608e-20)
(99.28620333 -0.1427557718 -8.574066858e-21)
(99.23936003 -0.2832325263 -3.41723039e-21)
(99.13450954 -0.187414752 4.623238644e-23)
(98.76015219 -0.001350798277 1.398407277e-20)
(98.86114533 -0.127561339 1.422601017e-20)
(98.67618117 -0.1981102004 7.039109239e-21)
(98.53097949 -0.03836505865 2.420439006e-20)
(98.00610413 0.2842728344 -2.939403998e-20)
(98.13381602 0.08830786899 -2.466108062e-20)
(97.84880227 0.01205890747 7.727987121e-22)
(97.69968502 0.3085848885 1.960665733e-21)
(97.63501249 0.2063532721 1.95127491e-19)
(97.09863459 0.7450996215 -6.079806546e-19)
(97.17601069 0.5864580888 -1.517825196e-18)
(96.95839917 0.5760092136 -1.95873915e-21)
(96.86023744 0.7597721479 -6.258259787e-19)
(95.5650447 1.798068227 0)
(95.66349566 1.527013706 -1.261614545e-18)
(95.29863075 1.569550192 6.339067485e-19)
(95.16880501 1.88712579 0)
(93.28883039 3.829399518 0)
(93.36370637 3.378586353 -1.627480642e-19)
(92.76897963 3.500646625 -3.501925874e-19)
(92.64829286 4.046669213 2.215692465e-20)
(90.26041916 7.582558996 1.185254846e-18)
(90.15750487 6.811334097 1.200127791e-18)
(89.13753122 7.091721168 -5.460569393e-20)
(89.22964133 8.096565022 1.078400888e-20)
(87.61329678 15.47299358 -1.553959319e-19)
(86.59109265 14.07066023 -3.9915317e-19)
(84.5535976 15.98288576 -8.151168943e-19)
(84.7609071 14.9830426 3.459650635e-19)
(86.72185152 17.30948701 4.244736276e-19)
(85.52608072 17.35200844 -2.530145748e-18)
(94.29887371 28.22072618 7.463089671e-20)
(95.83800687 27.5859704 -3.770249677e-19)
(95.07340371 30.21637642 1.306708249e-19)
(96.89841594 29.08615504 -3.837221191e-19)
(111.1656323 22.69903093 0)
(111.1569329 20.64191087 0)
(112.9136928 19.84873211 8.654825713e-19)
(112.2553342 23.28538916 -2.094950887e-18)
(114.4439064 21.69452408 1.335304904e-18)
(114.090823 22.69034181 0)
(112.8017942 12.63256964 -8.491377614e-19)
(111.7325935 11.73547855 4.137463843e-19)
(113.4576817 11.62191655 -5.006872393e-19)
(112.2474279 10.96217938 0)
(109.4099286 7.091256021 -4.553670098e-19)
(110.2379137 7.411564915 2.245688384e-19)
(110.3883953 6.758697807 -3.403988075e-21)
(109.5502016 6.568002297 4.202640243e-19)
(107.0201891 4.524571677 5.144170143e-21)
(107.6128625 4.65973097 -1.033233085e-18)
(107.5973096 4.233586966 5.095270751e-21)
(107.024276 4.167648922 9.294010113e-21)
(105.4547759 2.952972563 -4.027415544e-19)
(105.0346269 2.873202851 4.924621341e-19)
(105.3902851 2.661855094 -1.212722558e-19)
(104.9936288 2.606757115 2.765722581e-20)
(103.365666 1.590194806 4.5793117e-21)
(103.9197665 1.67431133 2.007915519e-20)
(103.7438399 1.264942252 -2.676542844e-21)
(103.2618916 1.272524705 -4.782312043e-21)
(102.3351069 0.9271442972 4.747496804e-21)
(102.7113149 0.961090842 -3.127330113e-23)
(102.5727666 0.6925643379 -7.648322218e-21)
(102.2429638 0.708884322 9.610184464e-21)
(101.2748041 0.2016350928 -1.876848571e-22)
(101.6079291 0.08288129443 -3.076929587e-22)
(101.9728294 0.3530805552 8.595101646e-22)
(101.8579742 0.4845805641 6.995047054e-21)
(100.8755844 0.08647611845 -3.525969569e-21)
(101.0633531 0.002023958013 -2.564150019e-22)
(100.6548179 0.02834485659 2.626575974e-21)
(100.7385573 -0.02522912877 -2.384815024e-21)
(100.5831846 -0.01181982494 4.633199112e-22)
(100.150451 -0.1702550393 1.664421027e-23)
(100.2893237 -0.103734767 -3.266795322e-21)
(100.0177945 -0.3314066283 -5.97078371e-22)
(100.1982515 -0.3083096278 1.426359317e-21)
(99.77744451 -0.4760162115 -4.696660359e-21)
(100.0150877 -0.5046017949 -3.093184021e-21)
(99.37231715 -0.529587023 9.739351865e-21)
(99.70214885 -0.6840885511 -1.069918934e-21)
(99.39637539 -0.6532226268 1.002322187e-21)
(99.24974924 -0.4433498738 4.737628676e-21)
(99.25465098 -0.6145871773 9.814515937e-21)
(99.10183349 -0.5346515989 6.910911192e-21)
(98.62586526 -0.4213050227 -2.373062391e-21)
(98.78418262 -0.5391830352 3.658090342e-21)
(98.61349544 -0.665837358 2.419262864e-21)
(98.40128746 -0.5258777147 7.324264462e-21)
(97.74102781 -0.3037409358 -6.042331267e-21)
(97.94728233 -0.4920177096 -3.915009299e-20)
(97.6899719 -0.6521358319 -4.165529416e-20)
(97.42632496 -0.3667861947 8.015246622e-19)
(97.40147541 -0.5047006432 -3.35120756e-20)
(96.63324238 -0.04306407022 7.902787601e-20)
(96.77937832 -0.2036681883 7.827501755e-20)
(96.56425024 -0.2781126533 7.169703551e-19)
(96.38735981 -0.09966423834 -7.655126201e-20)
(94.65427903 0.6701430482 6.612717663e-19)
(94.87389825 0.3900319362 2.781335482e-18)
(94.51003566 0.3127607446 7.249311168e-19)
(94.23681759 0.6211290292 9.734345429e-19)
(91.49931044 2.024175514 3.089643748e-19)
(91.81615037 1.546624442 5.070662769e-19)
(91.22513766 1.411767981 1.200702692e-18)
(90.80213909 1.937598543 -2.351453412e-20)
(86.39495315 4.235157057 2.048334991e-18)
(86.87486264 3.364669662 -7.366050659e-19)
(85.91492041 2.968732518 2.073168289e-18)
(85.15981126 3.918568019 3.125029693e-18)
(76.72843621 8.06119933 1.263256069e-18)
(77.36277699 6.887283735 1.24791582e-18)
(76.21208984 6.200556068 1.383047048e-18)
(75.22111932 7.462842551 0)
(130.8110113 24.12553415 1.946087374e-19)
(128.5577063 23.15758913 0)
(131.2711414 21.76860563 0)
(129.1477943 21.29466213 0)
(120.9258398 9.691982532 1.32277939e-18)
(119.0192031 9.388736755 -1.061064544e-19)
(120.6882206 7.942350144 -1.595756204e-18)
(118.9495152 8.031145759 -1.400140755e-18)
(113.1829423 4.925736855 -5.717750364e-19)
(114.2596848 4.887171049 -5.998372472e-20)
(113.9879141 4.045016138 -1.127231729e-18)
(113.0030121 4.225206013 5.019452729e-19)
(109.1855741 2.937421575 0)
(109.8771421 2.850709056 0)
(109.6340031 2.370156024 0)
(109.0078105 2.519242544 -2.508253824e-20)
(106.7994797 1.711204484 -1.548940505e-18)
(106.3307897 1.771501872 -7.492066289e-19)
(106.5993858 1.393852372 -4.658868893e-22)
(106.1740731 1.476424566 -1.117490606e-18)
(104.0620587 0.8494219088 -5.213182569e-21)
(104.6640076 0.7677915532 -2.399140263e-20)
(104.3011988 0.3574489424 8.319751769e-21)
(103.8242726 0.5135403732 1.209281452e-21)
(102.7555165 0.4042411592 -2.092128763e-21)
(103.1419839 0.3255924983 1.451914842e-20)
(102.8882206 0.06938575034 5.359915117e-21)
(102.5785475 0.1846378278 1.059109131e-20)
(101.3809797 -0.1115356493 -3.734324741e-22)
(101.6696347 -0.3340363068 -1.116515195e-21)
(102.1528291 -0.1411902301 -1.133735025e-21)
(102.1054032 0.04950670998 -1.262648087e-21)
(100.9143721 -0.1069428745 1.13715532e-21)
(101.0588864 -0.2712168992 1.389980341e-21)
(100.6573505 -0.06380880137 -4.493959957e-21)
(100.6978031 -0.1781479305 1.73607799e-21)
(100.5229729 -0.06114119493 -2.229578501e-21)
(100.3390504 -0.2405149211 -1.857038916e-21)
(100.516203 -0.1386950627 1.029975737e-21)
(100.1978448 -0.4774612826 -1.083152244e-21)
(100.4217954 -0.4154328153 -7.587345187e-22)
(99.94266629 -0.7094539402 5.525625744e-22)
(100.2339761 -0.6930736767 -2.732030742e-22)
(99.49369355 -0.8642244368 6.421503516e-22)
(99.91283654 -0.9673008202 9.201727064e-22)
(99.560563 -1.001229651 5.505664932e-22)
(99.32405128 -0.7991036357 1.609883944e-21)
(99.39139562 -0.9866300775 -1.618291348e-23)
(99.19538789 -0.9354956745 -1.618521519e-23)
(98.64331228 -0.9258253252 -2.409674703e-21)
(98.85514665 -1.017719982 0)
(98.71746428 -1.194645372 -1.177812402e-21)
(98.45043017 -1.096156341 -1.250219745e-21)
(97.70016169 -1.023202684 9.256463046e-22)
(97.97659778 -1.17400379 -3.107378507e-22)
(97.77369127 -1.404792371 9.249102297e-22)
(97.40368905 -1.171441789 6.249223154e-22)
(97.42703587 -1.328382841 2.193841473e-21)
(96.48408649 -1.037030778 -4.043808304e-20)
(96.68913849 -1.168090681 6.408072167e-19)
(96.50306226 -1.299173151 0)
(96.25977367 -1.159976916 -1.292607125e-18)
(94.30625811 -0.8394697538 1.830815199e-19)
(94.61362079 -1.059728236 1.71219819e-18)
(94.31751884 -1.23467221 -3.445747856e-19)
(93.9297647 -1.007947878 -1.781455749e-19)
(90.90976246 -0.5350662702 4.89465888e-19)
(91.3957272 -0.8646372327 -6.669457689e-21)
(90.96230235 -1.164772991 -3.534961558e-19)
(90.36951829 -0.8519154111 1.360597409e-22)
(85.84562058 -0.7038078182 3.142861189e-18)
(86.65290065 -1.132201482 4.47347362e-20)
(86.14202075 -1.736388605 4.941638515e-22)
(85.20198693 -1.414967878 -7.585074772e-20)
(79.12538671 -3.168597463 1.221908945e-18)
(79.9127961 -3.237134707 -1.262242319e-18)
(79.78461236 -3.852656427 -5.377566065e-20)
(79.03415561 -3.918245726 -3.511074682e-19)
(143.2804454 3.552407902 -2.406658016e-18)
(141.563345 4.810682985 -2.408243436e-18)
(141.6989002 2.216110724 -4.901292039e-18)
(140.2688516 3.433127076 -2.537250702e-20)
(125.7615849 1.114252169 -3.362102501e-18)
(123.9585456 2.022611503 1.683748251e-18)
(124.3306986 -0.1976051987 -1.489767068e-18)
(122.9310081 0.7910686166 -2.056054115e-18)
(115.628137 0.7424652281 -8.899378329e-19)
(116.6326613 0.2008545781 -1.850847984e-18)
(115.8645974 -0.4835899821 6.805182223e-19)
(115.0310304 0.1009791076 -1.134962448e-18)
(110.5535088 0.3235903293 -5.025466792e-19)
(111.1896919 -0.03343839182 5.696506899e-21)