/*--------------------------------*- C++ -*----------------------------------*\
| =========                 |                                                 |
| \\      /  F ield         | OpenFOAM: The Open Source CFD Toolbox           |
|  \\    /   O peration     | Version:  v1912                                 |
|   \\  /    A nd           | Website:  www.openfoam.com                      |
|    \\/     M anipulation  |                                                 |
\*---------------------------------------------------------------------------*/
FoamFile
{
    version     2.0;
    format      ascii;
    class       volScalarField;
    location    "0.12";
    object      nut;
}
// * * * * * * * * * * * * * * * * * * * * * * * * * * * * * * * * * * * * * //

dimensions      [0 2 -1 0 0 0 0];


internalField   nonuniform List<scalar> 
12556
(
1.155891896
1.155863325
1.155833007
1.155809701
1.156030877
1.156029254
1.156049588
1.156099228
1.156195875
1.156360426
1.156585261
1.027809223
0.944764119
0.9519258331
1.051142593
1.156548983
1.15635378
1.156217208
1.156107381
1.156063343
1.155824854
1.155830829
1.155855262
1.155881267
1.15515497
1.155067039
1.154980473
1.154914534
1.155130979
1.155165272
1.155292675
1.155599627
1.156059483
1.156845541
1.156702091
0.9585603059
0.8735071074
0.8685087337
0.9385936011
1.100364922
1.157047863
1.156220979
1.155624433
1.155334474
1.154988365
1.154988065
1.155049919
1.155128488
1.154381694
1.154236358
1.154097721
1.154020072
1.154259692
1.154390098
1.154709252
1.155352871
1.156489045
1.103841095
0.8705943762
0.7272596371
0.6754041705
0.6828690977
0.7436159703
0.8732146949
1.087345576
1.156834548
1.155479129
1.154790759
1.154218051
1.154171552
1.154244545
1.154368245
1.153596385
1.153396101
1.153224244
1.153154729
1.153447809
1.153764803
1.154521426
1.155734478
1.096206911
0.7979721696
0.6136403044
0.5124693499
0.4579633264
0.4703179699
0.5284213716
0.6361391106
0.8080664566
1.088773537
1.155966405
1.154590975
1.15359038
1.153416102
1.153462869
1.153618916
1.15277796
1.152534316
1.152344775
1.152337605
1.15274905
1.153373355
1.154804625
1.156994764
0.8267891491
0.572866974
0.4114273099
0.312235122
0.2730682394
0.2903481077
0.3517469698
0.4505318317
0.5989655559
0.8329257173
1.157444504
1.154864557
1.153181464
1.152724173
1.152692428
1.15285048
1.151972224
1.151692329
1.151511271
1.151585824
1.152215701
1.153304877
1.155765191
0.9853942239
0.6484459801
0.4245423676
0.2720650548
0.1749492633
0.1378996821
0.1617113473
0.226905829
0.3219370115
0.4547241658
0.6557186583
0.9810205154
1.155723375
1.152972616
1.152103944
1.151926267
1.152065894
1.151143797
1.150849271
1.150715081
1.150985469
1.151882427
1.153624556
1.157359311
0.8355721491
0.5405394921
0.3355988657
0.1900592321
0.08816105633
0.05071041654
0.08115078465
0.1501760029
0.2407421721
0.3624327468
0.5358397766
0.8328702456
1.157165301
1.153003283
1.151565909
1.151161856
1.151242323
1.150403598
1.150098376
1.150037614
1.150562128
1.151704504
1.154370667
1.051509776
0.7519103526
0.490064747
0.3046250636
0.1705180095
0.0705522987
0.04733056782
0.1161530144
0.1989662553
0.3102907421
0.4679491909
0.7357811201
1.098803619
1.153298933
1.151152801
1.150435155
1.150424416
1.149712473
1.149427459
1.149489411
1.150327
1.151841514
1.155538315
0.977550676
0.7054542025
0.4816142702
0.3238434393
0.2144982814
0.1488549377
0.0603831083
0.1156134171
0.1884650987
0.2893675866
0.4330903026
0.6817551917
1.011703783
1.153875189
1.150905772
1.149808996
1.149670773
1.149197908
1.148935805
1.14913849
1.150334618
1.152321212
1.157044297
0.9391022525
0.7008008847
0.5010318201
0.3643379549
0.2849512036
0.2727485941
0.08611666296
0.1332108725
0.1998620078
0.2952360308
0.4314319046
0.6589844458
0.9557744691
1.154728516
1.150910561
1.149375762
1.149092808
1.148823827
1.148609782
1.149003359
1.150640004
1.153115152
1.158771472
0.9239032943
0.7096656904
0.5319450249
0.4114099633
0.3493236192
0.3783170023
0.1172228127
0.162551966
0.2266058512
0.3163150708
0.4440599111
0.6612439538
0.9268486641
1.155812018
1.151187964
1.149222571
1.148771513
1.148666867
1.148506852
1.1490875
1.151150972
1.154165695
1.160593997
0.9259462531
0.7331901745
0.5702441675
0.4551880317
0.385912712
0.3930205298
0.1533928837
0.2034895449
0.2692591082
0.3585673859
0.4810298651
0.6868389569
0.9279662019
1.157153484
1.151785703
1.149389019
1.148784126
1.148664947
1.148573929
1.149414788
1.151965722
1.155365929
1.155637863
0.94086443
0.7747987602
0.6189181549
0.5031177385
0.4180402968
0.3430615848
0.04223163748
0.2014079051
0.2638498579
0.3345921921
0.4214143275
0.5442463724
0.7310006933
0.9459833941
1.158591225
1.152650226
1.14987992
1.149122896
1.148859463
1.148837194
1.14990727
1.152865193
1.156916891
1.164498281
0.9966140034
0.826583353
0.6879518235
0.5728756579
0.4829363129
0.2887177536
0.08729098835
0.2963183426
0.3689190791
0.4334850603
0.5118953974
0.6257692651
0.7939247313
0.9848353082
1.160072477
1.153717261
1.150631507
1.149771741
1.149120641
1.149158508
1.150442289
1.153808497
1.158328761
1.166302504
1.060964217
0.9133986707
0.7867837625
0.6810848645
0.5995780298
0.1269456769
0.1288988837
0.375656744
0.5563637059
0.5827417447
0.6391522063
0.7393264508
0.8897748581
1.051980858
1.161508376
1.15485962
1.151536477
1.150575301
1.149498335
1.149593111
1.151062028
1.15478242
1.159688276
1.167976824
1.159920808
1.037441155
0.9253090082
0.8490453789
0.8125089678
0.07074701034
0.148465836
0.4051034447
0.685909869
0.7935201956
0.8093564809
0.885664169
1.015390678
1.148899706
1.162833461
1.155997537
1.152542041
1.151541795
1.149838637
1.149972984
1.151594778
1.155649766
1.160927635
1.169449279
1.17329978
1.163481736
1.124408583
1.023656836
0.6752733758
0.03214733061
0.1957891112
0.4538478624
0.731817184
0.9509417731
1.035278029
1.066773154
1.168322349
1.171667165
1.163964503
1.157053449
1.153498455
1.152465265
1.150229277
1.150398018
1.152137032
1.156447195
1.16199815
1.170659266
1.174508552
1.164262471
1.11760539
0.973784918
0.4080751274
0.0326703593
0.2573160347
0.5135785885
0.7752211576
0.9684311839
1.083770348
1.143202522
1.170328032
1.172869284
1.164860943
1.157970011
1.154417515
1.153371384
1.150499595
1.150686735
1.152510673
1.157050855
1.162863932
1.171588641
1.175443472
1.16448081
1.113836238
0.92289258
0.2361983772
0.04652030525
0.3037606597
0.5556891691
0.7968485858
0.9770720002
1.088636423
1.145988453
1.171642725
1.173643006
1.165478499
1.158666251
1.155153374
1.154103698
1.150780693
1.150988602
1.152872628
1.157560046
1.163516782
1.172254558
1.175950155
1.164287492
1.109398013
0.882924409
0.2028733512
0.05844327341
0.3202771757
0.5668169172
0.8067191578
0.9837640725
1.092224874
1.147861059
1.172415053
1.174050228
1.165903884
1.15923334
1.155779912
1.15472697
1.150898002
1.151119721
1.153046354
1.157866249
1.163974523
1.172683483
1.176177205
1.163792341
1.104055999
0.8350386717
0.1842597942
0.06887282772
0.3308802162
0.5754382263
0.8136511575
0.9888569004
1.094860269
1.149071177
1.172767397
1.174164861
1.16609321
1.159580206
1.156195008
1.155143456
1.151037872
1.151284516
1.15324676
1.1581294
1.164265912
1.172917019
1.176191679
1.163072718
1.097654424
0.7855231894
0.1720090514
0.07945345029
0.3397385021
0.5825395678
0.8183300487
0.9924533602
1.096724475
1.149789044
1.172798933
1.174055891
1.16618278
1.159862789
1.156544693
1.155489141
1.151017622
1.151287772
1.15328083
1.158231002
1.164431888
1.173002757
1.176051692
1.162160449
1.089565841
0.7431977608
0.1640720421
0.08958265546
0.3471141541
0.588332589
0.8214982699
0.9946926925
1.097907201
1.150118283
1.172587243
1.173780448
1.166090094
1.159943813
1.156686688
1.155627594
1.151041965
1.151348587
1.153377031
1.158347456
1.164501966
1.172979144
1.175792967
1.16102037
1.078908353
0.7095791007
0.1591117608
0.09886958231
0.35325165
0.5930274771
0.8236447254
0.9958421527
1.098479773
1.150121324
1.172188799
1.173380888
1.165955098
1.159998612
1.156793741
1.155723526
1.15089986
1.151240639
1.153304183
1.158317744
1.164502331
1.172871334
1.175429692
1.159553881
1.065611262
0.6829919453
0.1564583988
0.107144602
0.358347696
0.5968092698
0.8250434133
0.9961918964
1.098535848
1.149848441
1.171646447
1.17288769
1.165650145
1.159843681
1.156682153
1.15560178
1.150804532
1.151191509
1.153302108
1.158331371
1.164442413
1.172697566
1.174966089
1.15763424
1.05072124
0.6618563527
0.1555684754
0.1144144705
0.3625916398
0.5998319856
0.8258623802
0.9959719093
1.098181313
1.149349938
1.170994644
1.172323046
1.165362735
1.159724885
1.156599178
1.155501914
1.150541957
1.150969481
1.153122816
1.158192065
1.164336567
1.172471614
1.174402151
1.155158355
1.035496562
0.6449770959
0.1560521392
0.1207760048
0.3661276405
0.6022306737
0.8262219746
0.995340634
1.097510754
1.148673576
1.170261645
1.171706559
1.164938319
1.159434013
1.156340036
1.155228522
1.15036444
1.150843274
1.153051487
1.158136083
1.164187275
1.172203034
1.173730648
1.152084471
1.020768914
0.6314365313
0.157622413
0.1262896528
0.3690711192
0.6041183965
0.8262118579
0.9944031475
1.096598941
1.147860281
1.169471049
1.171055879
1.164591564
1.159239771
1.156169614
1.155037162
1.150039373
1.150559608
1.152809181
1.157920746
1.164009333
1.171898139
1.172938454
1.148447309
1.006967551
0.6205932753
0.160087021
0.1310435067
0.3715236037
0.6055807304
0.8259010222
0.9932331859
1.095503853
1.146943694
1.168642499
1.170384911
1.164107337
1.158873863
1.1558264
1.15467706
1.149843002
1.150414374
1.152716298
1.157834768
1.163803124
1.171562077
1.172012182
1.144338868
0.994243302
0.6119631818
0.1632893531
0.1351399713
0.373580891
0.606694796
0.8253501232
0.9918870047
1.094270329
1.145950456
1.167790595
1.169702195
1.163708998
1.158590158
1.155550248
1.15437586
1.149499522
1.150109798
1.152448902
1.157577988
1.163583084
1.171197831
1.170942636
1.139875842
0.9825963108
0.6050731837
0.1670679398
0.1386957215
0.3753314615
0.6075307164
0.824614453
0.9904090997
1.092932918
1.14490105
1.16692476
1.169008913
1.163158273
1.158134854
1.155107624
1.153915176
1.149244388
1.149906103
1.152300124
1.157449648
1.163341137
1.170806808
1.169727196
1.135174715
0.9719861031
0.5996777063
0.1713256035
0.1418248236
0.3768419843
0.6081507879
0.8237377938
0.9888335299
1.09151776
1.143809937
1.16605048
1.1683098
1.162710846
1.157768806
1.154739723
1.15352002
1.14889991
1.149597056
1.152028609
1.157180814
1.16308826
1.170387717
1.168369749
1.130338121
0.9623566758
0.5955125721
0.1759967906
0.1446093672
0.3781565815
0.608596585
0.822750698
0.9871844842
1.090043285
1.142686974
1.165171222
1.167604289
1.162166595
1.157319055
1.154300348
1.153064948
1.148504637
1.149257215
1.15175389
1.156953818
1.162815999
1.169941617
1.166879553
1.125449787
0.9536415773
0.5924019263
0.1810223042
0.1471184998
0.3793036782
0.608902329
0.8216765181
0.9854793074
1.088522058
1.141539966
1.164291897
1.166908775
1.161680705
1.156918644
1.153905834
1.152644606
1.14824592
1.149026678
1.15155512
1.15675849
1.162541202
1.169474873
1.165282469
1.120567544
0.9457498936
0.5901584788
0.1863169292
0.149423822
0.3803134581
0.6090949895
0.8205355904
0.9837308437
1.086961887
1.140372106
1.163427231
1.166226622
1.161306401
1.156615876
1.153607415
1.152332794
1.147745616
1.148590409
1.15119063
1.156433554
1.16229964
1.16902303
1.163671464
1.115737496
0.938600065
0.5886024077
0.1917716037
0.1515892586
0.3812252677
0.6091939393
0.8193414862
0.9819457045
1.085363449
1.139179518
1.162644795
1.165634662
1.160617492
1.156019731
1.153011933
1.15170416
0.133659318
0.05420773395
0.04056103107
0.2587589078
0.0794797418
0.05730676949
0.3668826997
0.1112257745
0.08321980977
0.3968483176
0.1407952054
0.1158856764
0.3517844584
0.03246594959
0.04001401443
0.177877833
0.1446980345
0.3289971523
0.06189017664
0.0333644308
0.08233094534
0.2418010764
0.1810344363
0.06875061977
0.05120427503
0.04178643865
0.07730345179
0.02730647118
0.01758257611
0.05773821148
0.09806603044
0.09821241981
0.2668618791
0.2544970974
0.1539697625
0.02188903488
0.0332186508
0.0827165306
0.1147419868
0.1008613148
0.3351707362
0.3534079392
0.2673902122
0.3132858491
0.1953416496
0.2166988983
0.03995155411
0.02769557561
0.11324056
0.142405138
0.1207756365
0.3803238561
0.3893103814
0.3634821084
0.4004094299
0.1317293294
0.1679643663
0.07944997756
0.05627202722
0.4072112046
0.3542983693
0.3873674668
0.3776063923
0.08028213838
0.1043487549
0.01493275288
0.1310934277
0.1110017045
0.4626609283
0.3938984025
0.3499405451
0.3244408437
0.03238033827
0.05266773942
0.3022181174
0.08626049844
0.06334549362
0.05752744415
0.1271481721
0.02747107426
0.05218259557
0.03411835019
0.02902664802
0.0453110581
0.030364234
0.04845356346
0.2194927498
0.2391473465
0.215593959
0.1880155998
0.1780156331
0.1407269299
0.1900762428
0.02739077944
0.0217619573
0.0687755879
0.03312863652
0.03804032557
0.04714365984
0.03330255406
0.06717610093
0.170386424
0.1920684283
0.327282789
0.1513433193
0.1297117296
0.1765733269
0.1531255309
0.05328217872
0.04100091168
0.09915290157
0.05839204891
0.07691374266
0.0384749275
0.05591234933
0.09497147494
0.1056809137
0.1302116818
0.4021826463
0.1054055201
0.08127673222
0.12844215
0.1066650759
0.1073749031
0.08316985341
0.05365036922
0.0785623143
0.3672622808
0.01380703374
0.05565148394
0.03383615365
0.0802619298
0.05720668605
0.01365898853
0.1395773319
0.1335131979
0.01597232161
0.004841078733
0.03210654461
0.3200429589
0.05000386323
0.02003331115
0.01184387238
0.03348183067
0.02035015729
0.04798705261
0.1994942443
0.1403239256
0.08239693648
0.08681856247
0.05652115587
0.03237048647
0.01079632009
0.008019672186
0.1988368474
0.2371881671
0.1375514016
0.01186905425
0.1466226632
0.1788094978
0.150685001
0.01387183725
0.04377634117
0.03786770339
0.0602520351
0.1570467409
0.1438587366
0.1254720471
0.06277596149
0.09638498971
0.04139648143
0.01176729658
0.02124854287
0.020097507
0.02822035155
0.04348278873
0.03676035885
0.02730558914
0.129780291
0.1041779036
0.1236346054
0.0799654984
0.101078917
0.1267691887
0.02138998598
0.01547601361
0.03845888976
0.020202152
0.03401463019
0.02677706392
0.01767626091
0.02696961118
0.01946416585
0.01127986491
0.02078653207
0.01445242155
0.009423020769
0.01336163235
0.01982424086
0.02836700757
0.02887162804
0.03378208975
0.03292547516
0.01459656737
0.01177402251
0.06892073605
0.01273661758
0.02165991441
0.01155552838
0.01186080101
0.06550064309
0.09408517026
0.2531381657
0.242080567
0.05640473353
0.04692763113
0.01369089572
0.04780874881
0.192594449
0.1813138629
0.2081376235
0.1971727595
0.04813668074
0.04887170894
0.04176853537
0.08211762279
0.06380512467
0.0514941334
0.04026287536
0.06338612867
0.09215256904
0.0333378417
0.02188920021
0.0135762262
0.04779053557
0.02425316254
0.03678703411
0.02372779196
0.05161566689
0.04102005584
0.04055126367
0.1870890025
0.03201110091
0.1866292694
0.1905457162
0.035448979
0.03930102283
0.03239198799
0.03498732481
0.198477476
0.02612390104
0.02589951303
0.0359073299
0.06779537044
0.06312867532
0.07415197596
0.06949368171
0.03615147061
0.04023219993
0.05491285573
0.04970248792
0.06143012951
0.05639891084
0.0394592374
0.1408675968
0.1394668709
0.1660727513
0.1646184298
0.04993392034
0.01147792207
0.04883650252
0.09663005307
0.0948996498
0.1171210687
0.1156509624
0.0229481427
0.03239347642
0.0939113178
0.02563479181
0.01551782362
0.06982752321
0.2234247658
0.2121110986
0.2382964331
0.2271419118
0.07111012702
0.01937480661
0.05123109698
0.05022195141
0.07348518764
0.07265942256
0.009388866785
0.02680644553
0.07028851221
0.05986081674
0.1769239234
0.1691392623
0.02596458873
0.01288509022
0.01730815276
0.01555039861
0.03208207463
0.01370870018
0.01561652828
0.0145500894
0.03213966967
0.04090958307
0.0156888159
0.01564289634
0.003971632107
0.0151640152
0.01309467506
0.5641162638
0.3977549706
0.3923249511
0.2699225808
0.009460017869
0.005443207641
0.124108404
0.3086847483
0.2705430337
0.005711353829
0.01259840828
0.01266408152
0.08470804782
0.07419423773
0.02874228707
0.1801865008
0.1633221282
0.0629109718
0.008514302638
0.01434330387
0.01133609071
0.008060666512
0.01143182454
0.008186994878
0.02374722592
0.009806157918
0.009182028876
0.03103698289
0.03693512985
0.01108747879
0.0149045536
0.009035524357
0.009294149469
0.02906577691
0.1446200657
0.3072976833
0.2975841855
0.3199019084
0.3104852642
0.1476069274
0.2672583212
0.2565933132
0.09531275127
0.03555426704
0.1007497595
0.09577208716
0.01307190482
0.01953034408
0.06811791493
0.03909658256
0.01127318717
0.009929502012
0.03955776072
0.04105944981
0.03618499283
0.04800986451
0.04273770693
0.04170030294
0.02674965407
0.008758647952
0.008984998545
0.02279740626
0.1797790168
0.3318176427
0.3229425264
0.06110227975
0.0629311081
0.1339017343
0.01582734705
0.01715948162
0.04405158115
0.0656807887
0.09988413433
0.0927345052
0.04376823844
0.08152202687
0.07606506997
0.09012086939
0.08362811954
0.044769941
0.1182220905
0.2809888466
0.2706921759
0.2943129294
0.284374402
0.1198972291
0.1017413633
0.03843973245
0.03916363532
0.02232135843
0.02318408228
0.08546139883
0.1238206473
0.05707243427
0.06070750614
0.0394596398
0.04013228156
0.1104324917
0.09756884606
0.03402644648
0.0466340103
0.009991426504
0.01514385293
0.05335471594
0.04120987713
0.07733703654
0.02170279912
0.02217623384
0.02125918291
0.06641543298
0.01403707278
0.004429347669
0.1319306257
0.1168988574
0.09409788415
0.09013742578
0.03184045981
0.01578406909
0.02173593767
0.05660840749
0.01982308315
0.01253286753
0.0181825276
0.01938280686
0.002814454709
0.03304455756
0.02144283257
0.01159917841
0.006547903548
0.01140142089
0.01176990356
0.0112937294
0.02133030645
0.01648047553
0.009200057919
0.03874594824
0.04022335103
0.01397715086
0.01063102403
0.006812816907
0.01115635152
0.01516202593
0.01234090847
0.01247627562
0.0313730044
0.01284764885
0.01246616945
0.01454828889
0.01490168449
0.02616763185
0.01457454223
0.01414996767
0.01534260202
0.01463330959
0.01394463145
0.01577275265
0.01530043652
0.01877854155
0.01617682657
0.01440149051
0.01059663244
0.01936872143
0.01692701959
0.02045081021
0.01924526048
0.01636375033
0.01450519586
0.01227005924
0.008557716556
0.007201853551
0.02526068484
0.03049439313
0.009007325422
0.008542322975
0.01053387621
0.01091596093
0.03594745311
0.0100336177
0.009675205864
0.01023624651
0.01008836321
0.009564048117
0.02998454846
0.009232543919
0.01044680005
0.01191702972
0.01151434198
0.01595889314
0.03829301386
0.03428639847
0.01122062592
0.02789606715
0.02419169994
0.03290526461
0.02937728832
0.01113990779
0.01341543139
0.02818196282
0.02337806796
0.1087780705
0.1024827315
0.03961102442
0.05028915672
0.1156090781
0.1104745287
0.04453484765
0.04377396916
0.06534419801
0.06963830133
0.08326260566
0.05223282638
0.06548946964
0.06604586191
0.05903312589
0.1215538907
0.1184918887
0.08939376623
0.1119452816
0.05896976259
0.03613401779
0.03853974394
0.04806568073
0.03124885066
0.03488108882
0.01595553926
0.01504158043
0.04108767016
0.01088413231
0.01096187261
0.008495309777
0.01579467898
0.01861328005
0.01131707535
0.0159383765
0.03571146026
0.02197312146
0.01667807619
0.03025998593
0.09256395178
0.08195758862
0.09803767604
0.09471477249
0.03134894335
0.07443610714
0.07248276802
0.07891648803
0.07513398307
0.03684248866
0.1110678113
0.1076572874
0.1164513196
0.1122529482
0.03739416418
0.03344208244
0.1022369523
0.09915209297
0.1065423736
0.1032921467
0.03375959937
0.008505100968
0.008653524571
0.02656360583
0.02385363278
0.007273155251
0.00846120604
0.04459881786
0.0438654314
0.04669626811
0.04485065143
0.04249043803
0.04147160748
0.04361848728
0.04275940936
0.06948536809
0.06771205216
0.07187416627
0.07009450048
0.06262595497
0.04933972102
0.06697765584
0.06503913891
0.01825002989
0.01560278471
0.02310896963
0.01965367873
0.00744090365
0.01088186127
0.01044980553
0.01464391301
0.01108821038
0.037491391
0.03809030683
0.1004865654
0.0223721378
0.02214608887
0.02304182507
0.02255823116
0.02145362544
0.08771474116
0.02390319891
0.03529562355
0.04225301987
0.05524032415
0.1221970371
0.03869496921
0.02524869793
0.04133324748
0.03838425216
0.02382943347
0.02327670349
0.02479203895
0.02405435313
0.1117031424
0.04035552455
0.04122851781
0.008512723036
0.02142381569
0.01273689139
0.01255908991
0.0120916034
0.01997760722
0.01026764762
0.01605230137
0.01399546969
0.01440840697
0.05271905596
0.04623460524
0.0211002716
0.02158936435
0.07642997977
0.06857409323
0.02019785553
0.02103832181
0.01385479507
0.03075382657
0.08766229964
0.07953183157
0.01459082083
0.01370683799
0.01906421166
0.01299035793
0.01512908157
0.01614158003
0.03293946718
0.01024618277
0.01551735773
0.01288297706
0.01572179779
0.0223011787
0.04838621979
0.1022998381
0.1309408476
0.01344969637
0.0128777557
0.1840578484
0.2310269504
0.1898859585
0.009025519803
0.02806556163
0.01511702762
0.01580325219
0.1269709383
0.1386742587
0.1564378435
0.004516981396
0.006727999299
0.004971182518
0.004866622506
0.005364192551
0.004239704589
0.05131230886
0.03197863
0.02035680739
0.02318893316
0.02158881298
0.02413073055
0.2048866885
0.308809005
0.3298475124
0.2883409331
0.3019666399
0.2079024199
0.03385609261
0.02975702952
0.01327923968
0.04983984464
0.05972200516
0.1195789013
0.1224089818
0.1172403189
0.05077122001
0.0243528513
0.02277567221
0.0336618677
0.3403136287
0.3346837006
0.1827551099
0.1466477648
0.06817720468
0.07170511339
0.0745766795
0.0845935348
0.1584287602
0.06139886661
0.1301548523
0.1242122397
0.01402229575
0.01396765337
0.01406024706
0.02104335823
0.02134670573
0.03471330168
0.01372557413
0.01402604949
0.01398588823
0.01997233573
0.04002882301
0.03495031831
0.01997522946
0.03328344416
0.02058287338
0.02076978549
0.02039823105
0.0114119841
0.01197574203
0.01299977937
0.01313251124
0.0137775958
0.01803504783
0.02250349061
0.04356344483
0.04045273937
0.03462287425
0.03128405956
0.02283077636
0.03272572812
0.01323863638
0.01644133809
0.01416656029
0.01043709323
0.01040921119
0.0145334782
0.01399012563
0.02083223053
0.01331030108
0.009426399821
0.0131804657
0.01542192016
0.01499009264
0.01024914335
0.01269328264
0.01365852359
0.01174217369
0.01182410406
0.007918019485
0.01167209774
0.01145514192
0.04396601126
0.03957710793
0.01727175148
0.01157531545
0.01170955143
0.01119407863
0.01359914932
0.01343674732
0.01304556817
0.04707585806
0.03690495017
0.04236926854
0.06432233067
0.08546501594
0.08717507077
0.04174746767
0.06563602321
0.06239151461
0.08631556322
0.08496356446
0.06232844348
0.02891389755
0.03519053172
0.03284613419
0.02540929337
0.02590979412
0.02134824734
0.04569345717
0.04457123139
0.04502106859
0.02450368021
0.03486353869
0.03325780728
0.05252261901
0.05216620162
0.03175712268
0.02964717287
0.02925335262
0.03221656104
0.03152041439
0.0359395367
0.05789072441
0.05735708469
0.06098162544
0.06032950209
0.03858855323
0.03270878348
0.05362022175
0.05314719219
0.05680466414
0.05625644729
0.03456273988
0.06577150048
0.06753033519
0.1451654249
0.1352370818
0.06348311091
0.06520967934
0.09076407523
0.09353528274
0.1706230966
0.02769960645
0.02755001638
0.02902486894
0.02880959885
0.02123498574
0.02729345284
0.02718120703
0.1600110988
0.08662724929
0.08972819217
0.01104586089
0.01097855091
0.01111644977
0.01089641814
0.0114155332
0.01076784232
0.007153675499
0.04508657844
0.01782072348
0.02155560585
0.1377895279
0.132136668
0.06464814876
0.07397099476
0.1444839163
0.1394664602
0.03397685715
0.03403318272
0.05158110292
0.04990794048
0.03357333374
0.03350131739
0.01351128026
0.02455219889
0.03941565915
0.03849584314
0.009458509769
0.01560748927
0.0165720288
0.01544261742
0.01551165159
0.01964341615
0.01988903325
0.03254375021
0.0139980751
0.01009152607
0.01369708483
0.01485137087
0.03047905305
0.01912971005
0.01973609926
0.0152868866
0.02405596016
0.02021682465
0.01368101786
0.01363605969
0.01298153397
0.01290627902
0.01363087125
0.00611431227
0.004036312081
0.007029605391
0.01249497604
0.01334247184
0.01324360336
0.01268891321
0.01325833482
0.01249445706
0.009438410583
0.006173704109
0.005179520625
0.008697006573
0.008925313035
0.008513897092
0.008570174436
0.009513674371
0.01481046395
0.01501565366
0.01447561886
0.01464862108
0.009402757074
0.009178394477
0.01135699351
0.01133362713
0.01177700826
0.01146515286
0.009223750799
0.01064252375
0.01678929228
0.01871461243
0.01526623557
0.0157711576
0.01031283819
0.008805176526
0.01128814194
0.01128620054
0.01128932878
0.01130007755
0.008859078638
0.008413571998
0.008483619989
0.008351959551
0.008571646228
0.03860490033
0.05787805012
0.05742406778
0.02255948074
0.03757535929
0.03732089611
0.03891111078
0.03794713223
0.02278012016
0.01413664012
0.0138190327
0.01413926748
0.01418307441
0.02116081178
0.0209684317
0.02159997704
0.02136804773
0.01657648712
0.0369085095
0.02196903483
0.0229397319
0.02187533019
0.03681355136
0.03659345503
0.03715573731
0.0369717653
0.02200735303
0.02260611099
0.0219411211
0.03321013863
0.02366282037
0.01687270212
0.009854431984
0.01382087063
0.01379075267
0.009730161577
0.04589287252
0.03226249167
0.002962341397
0.03183690871
0.0486260133
0.04832262807
0.0197747118
0.01243656738
0.009191066169
0.00320714308
0.01473790764
0.01536822323
0.02033380431
0.02050611213
0.03322356652
0.0208152579
0.009118460583
0.009336164195
0.01302395178
0.005480114076
0.009299491305
0.006812926461
0.007951054925
0.007869795395
0.01191045917
0.007698297284
0.01326387788
0.01319925426
0.01348217229
0.04018448164
0.03154693388
0.008067820079
0.009813262966
0.01098587091
0.01779594603
0.01984449787
0.01183298481
0.0146082893
0.01386250505
0.01320613688
0.00870527047
0.01303818034
0.0143092378
0.01018374863
0.01406921023
0.01416633358
0.0151323313
0.01458803787
0.01467074532
0.01424163492
0.01402452892
0.01487711075
0.0151669692
0.0148614906
0.01407428996
0.01488115376
0.01560017195
0.01565154191
0.01352362055
0.01464809931
0.01326748673
0.02109629064
0.01687803253
0.01304264533
0.01206190274
0.01298255304
0.008220049294
0.0129044754
0.01374761138
0.00942452733
0.01296249586
0.00849749051
0.008842523318
0.01414821196
0.01430449482
0.01378320909
0.0140146606
0.00874522053
0.01069345033
0.01714162536
0.01684319042
0.009957461586
0.009782108513
0.009986982976
0.006837076118
0.0101450656
0.01003542784
0.009374693315
0.006658791442
0.009537921709
0.01418999395
0.01265477149
0.01639332693
0.01554940295
0.0100374159
0.01218406745
0.01204635146
0.01259579454
0.008131804931
0.01245404082
0.0118462234
0.01159293367
0.01212089093
0.01224307282
0.01389587445
0.01269321807
0.01124061876
0.04554417161
0.04291544197
0.07914564287
0.07170142711
0.04358664663
0.06208641671
0.08431000298
0.081473666
0.03327333948
0.03076656723
0.02840707608
0.02163329053
0.02806429968
0.0397402405
0.04061143325
0.0360593508
0.01585534765
0.02301165889
0.02336448131
0.0208790678
0.02161802286
0.0149846618
0.01030438317
0.01107335592
0.01679312547
0.01186430423
0.01147075133
0.01247044206
0.01203126549
0.01704504844
0.01162825716
0.0122755043
0.009536496012
0.01236089243
0.04841764584
0.04858281552
0.03159940741
0.03133987299
0.05130164521
0.05129015739
0.03031084315
0.02993438044
0.03106622013
0.03065398958
0.05885974663
0.05835740508
0.03631352274
0.03797491623
0.05983748613
0.05935582606
0.05468928591
0.05419503686
0.03311067778
0.03411824925
0.05569858323
0.05518746452
0.008568007777
0.01130501503
0.01132249265
0.01129306269
0.01131260428
0.008606770753
0.008344515609
0.01058793595
0.009433777187
0.01127490619
0.01109839165
0.008413924499
0.04434363376
0.02643163585
0.02670142908
0.0260048226
0.02621048508
0.04410937684
0.04561024624
0.02764738953
0.0281470303
0.02696851612
0.02728086401
0.04515322161
0.04212476119
0.02478542027
0.0250177945
0.0244140393
0.02464204077
0.04189319797
0.04335208561
0.02560803781
0.02579754427
0.02518799324
0.025415621
0.04308478803
0.028126691
0.02794115771
0.06890337058
0.04708660138
0.04738844996
0.04643488465
0.04670213658
0.06826114329
0.02855947962
0.02835586759
0.02603597387
0.02728757879
0.06065141668
0.04284887249
0.04256400201
0.02906046272
0.03047772655
0.05447818211
0.06652411818
0.04577934764
0.04597199918
0.04510637534
0.04506181134
0.06540319732
0.02686557773
0.02690422873
0.01111865006
0.01112930963
0.01104406386
0.01087399625
0.01089058634
0.01070126267
0.01061259296
0.01069079099
0.01033484449
0.01043958536
0.01062393964
0.01322650337
0.01049001131
0.01063733195
0.01074318437
0.01072988677
0.01176932834
0.03740966267
0.05540644097
0.05511607414
0.05676554753
0.05641602712
0.03799326278
0.02232329158
0.02207815064
0.0229124672
0.02263866228
0.02252928533
0.01756732687
0.02516973451
0.04581853571
0.04123667156
0.05295380661
0.05120273377
0.03561413704
0.02738514669
0.01906429338
0.02449385457
0.02605591904
0.04067403951
0.02405309457
0.02434449197
0.02333772546
0.02410386292
0.04073795828
0.02365511182
0.02343105682
0.02450992484
0.02425809398
0.01288836605
0.01204265205
0.01208411004
0.0126899339
0.0121449208
0.01294757556
0.01253542743
0.01258437372
0.01206872437
0.01236014911
0.008348786106
0.01421319905
0.01425274899
0.01434757318
0.01437639179
0.01438707885
0.01412281231
0.02052145207
0.02048023623
0.02076933153
0.02070519051
0.03179058194
0.0317526544
0.04787544991
0.01970947597
0.02078373295
0.02024532625
0.02032139757
0.02131405436
0.03599682942
0.03563352743
0.03642679346
0.03614826218
0.02139881229
0.02076555968
0.03494393217
0.0329713354
0.03551213525
0.03491222156
0.0207501543
0.01393271626
0.04672143318
0.04621075157
0.03050830204
0.01490290088
0.01193681087
0.01169555082
0.00880910756
0.01206372753
0.01399227402
0.01961684633
0.01387740991
0.01559939089
0.01532792284
0.03265338593
0.02000063
0.02020571379
0.01377797335
0.01322446433
0.01336180227
0.01457507325
0.0141194578
0.009460706746
0.00980558422
0.01549078991
0.01349305469
0.0143582063
0.01626028596
0.02004368305
0.03049785188
1.155364884
1.156013778
1.15592234
1.156293395
1.157392846
1.156621158
1.157843716
0.9842411095
1.157657546
0.9410295768
0.8108481472
0.977826337
0.7871811512
0.7539846826
0.8778686531
0.7354912123
0.7306159514
0.8637518487
0.734147312
0.7786015492
0.9234193918
0.7965815706
0.8983246098
1.075466593
0.9332134008
1.101331146
1.157299201
1.156456743
1.156907352
1.15639422
1.155563707
1.156932057
1.156141941
1.157534467
0.9338840189