/*--------------------------------*- C++ -*----------------------------------*\
| =========                 |                                                 |
| \\      /  F ield         | OpenFOAM: The Open Source CFD Toolbox           |
|  \\    /   O peration     | Version:  v1912                                 |
|   \\  /    A nd           | Website:  www.openfoam.com                      |
|    \\/     M anipulation  |                                                 |
\*---------------------------------------------------------------------------*/
FoamFile
{
    version     2.0;
    format      ascii;
    class       volScalarField;
    location    "1.48";
    object      p;
}
// * * * * * * * * * * * * * * * * * * * * * * * * * * * * * * * * * * * * * //

dimensions      [0 2 -2 0 0 0 0];


internalField   nonuniform List<scalar> 
12556
(
1020.055746
1018.11588
1013.619731
1004.814254
992.9529416
968.4180592
929.633078
869.6486301
782.4170564
661.5379807
504.4102474
314.68819
106.1805728
-101.6465874
-290.0966136
-447.0652634
-569.9610468
-661.3450681
-726.4951333
-770.7733133
-806.7655713
-822.5643323
-831.5008264
-835.5529869
1021.270285
1019.857595
1016.40212
1009.470595
997.5248211
976.2216359
941.2988585
892.1346165
812.2844287
697.8752756
543.3264246
350.6370461
134.6423783
-84.02262735
-283.0943026
-447.7023371
-573.7916139
-666.0844738
-737.6567114
-778.5410075
-813.4678937
-826.9896508
-834.6880177
-838.1628301
1024.166485
1023.907675
1022.881811
1020.053093
1010.990522
997.0108056
971.5686552
927.748343
857.9921106
749.3500476
590.3799124
380.3077635
134.8917291
-112.5140704
-327.8477468
-496.090166
-618.1006501
-701.6332575
-767.9957671
-800.3913141
-828.7720773
-837.4896656
-842.411235
-844.5381672
1027.828966
1029.205278
1031.658433
1034.324123
1031.190419
1027.619527
1017.256421
986.864104
936.8421435
842.5838873
684.8972555
448.6718357
143.7150522
-169.7008776
-420.9595347
-589.9698671
-697.6090416
-764.805932
-814.1630617
-832.9235485
-850.2448112
-852.6688614
-853.4720516
-853.6257909
1030.530328
1033.7835
1040.320279
1049.415432
1053.98499
1064.096983
1073.38715
1066.910184
1047.514396
986.3372826
853.5334692
593.7944851
173.2560745
-280.2079688
-591.2533636
-750.0178345
-819.3311789
-851.0210817
-872.9829047
-873.2915916
-874.8541536
-869.5270618
-865.3700113
-863.2022451
1030.413607
1035.544736
1046.172347
1062.437995
1074.489038
1100.697438
1133.003221
1156.668738
1181.388852
1186.474827
1134.628152
899.4391854
229.825127
-547.8450288
-913.6342686
-996.9668543
-981.6754102
-955.9228265
-939.2936884
-916.3822343
-898.9553262
-885.0677213
-875.5557481
-870.96074
1025.688412
1032.472335
1046.556304
1068.962446
1090.327504
1130.450597
1185.400251
1239.580583
1314.768415
1406.625878
1534.63788
1606.067966
400.3791736
-1363.10021
-1486.453464
-1330.785191
-1174.39341
-1067.595077
-1003.736104
-955.9227781
-918.8438437
-896.0227311
-881.5299598
-874.684102
1014.812259
1022.770446
1039.267148
1065.92918
1095.14545
1145.719395
1217.086262
1296.348187
1409.6923
1572.593977
1870.76262
2496.735778
-3366.79412
-2268.871225
-1692.964985
-1356.669716
-1166.297381
-1053.846254
-984.6811168
-928.8385296
-899.1290907
-880.870992
-872.1861664
996.6253981
1005.118564
1022.679441
1051.192256
1086.136798
1141.457588
1220.175964
1313.193345
1440.845523
1613.713815
1886.912422
2267.273374
-4732.076415
-2770.317694
-1925.727801
-1471.356385
-1225.472564
-1078.210798
-994.7434973
-925.5058685
-891.9139554
-871.5187934
-861.7629116
970.5297897
978.861889
996.0168214
1023.7716
1061.679757
1115.975448
1192.071762
1284.355076
1401.899811
1548.720715
1739.685996
1934.806552
-4204.258003
-2684.844462
-1916.390004
-1471.414343
-1226.227106
-1069.049525
-982.573833
-906.9446094
-872.9444165
-852.3012395
-842.3923405
936.5682729
944.1034118
959.4979483
984.0548509
1022.375549
1070.591308
1136.633592
1219.677572
1317.367321
1430.386784
1562.676011
1691.149363
-3076.479851
-2215.559983
-1703.565955
-1371.112211
-1169.529149
-1026.204632
-947.6423294
-873.1554805
-842.1577222
-823.1324238
-813.944699
895.3678556
901.5976247
914.2775629
933.4122923
970.8938972
1008.734964
1059.765596
1128.618956
1203.184058
1284.657264
1376.117535
1487.31701
-1961.904709
-1624.222139
-1390.373705
-1203.07401
-1069.202216
-955.7238286
-893.2385646
-825.9049087
-800.9077175
-784.9335427
-777.1663706
848.0637583
852.670095
862.1887949
875.6521324
907.7564409
934.5872588
967.8830727
1020.800018
1071.136485
1121.18617
1168.839898
1250.740429
-705.0951125
-979.226663
-1079.793277
-1071.36897
-1012.490433
-945.9007697
-867.7420731
-824.4389371
-769.6998045
-751.5900795
-739.3999526
-733.4971431
796.0343583
798.9213562
805.0842245
813.2983541
838.7346407
854.214813
870.4915604
905.1318708
932.1755933
950.6697634
946.7506615
936.5056226
314.6636749
-379.0763978
-676.4409391
-804.0505862
-832.335426
-816.257429
-772.9437799
-748.2090536
-708.2307996
-696.7576135
-688.642131
-684.7816153
740.8096698
741.9262299
744.4078111
747.2217992
766.5421511
770.2153611
770.9115025
785.7966405
790.559248
781.9637358
736.1254283
602.4014022
296.0134264
-132.0200055
-435.2008644
-606.5447209
-678.2753803
-694.0278612
-678.3610485
-670.4917937
-644.2394011
-638.9531361
-634.8587178
-632.9681668
683.8979089
683.4228231
682.4957318
680.387277
694.0129824
688.0398916
676.5206764
671.7639035
654.3502318
624.2921792
559.664563
444.4794254
221.7317612
-68.59382715
-314.2119283
-472.1654097
-553.3121093
-585.7194668
-590.1570316
-595.1930151
-580.5568625
-580.5989216
-580.070264
-579.8926675
626.7357832
624.9689069
621.2772263
615.2184059
623.5392124
610.2534275
589.5945308
570.8446347
531.6373103
482.1360302
409.1205042
301.2446289
127.099817
-72.86883406
-253.1208575
-380.3168424
-452.8570264
-493.6268343
-510.7777134
-524.7714721
-519.387639
-523.6586408
-525.9856418
-527.1338806
570.5709657
567.8186902
562.0197738
553.0226053
556.9929324
538.5538083
511.9259334
486.226482
433.4439757
369.713097
289.789933
195.4996243
58.53774917
-85.05169124
-212.4554105
-306.8782722
-370.8724249
-415.6630775
-440.8115996
-460.4295568
-462.075149
-469.3807936
-473.8495379
-475.9650196
516.3607643
512.909425
505.615742
494.6097906
495.3676902
473.8116685
443.9496249
415.5652221
362.8055258
297.082609
216.6226074
129.3220877
23.52034962
-81.20489001
-172.4018687
-247.6946659
-306.8524165
-351.5154341
-380.3084386
-402.8588557
-409.2810463
-418.5483057
-424.4649432
-427.2897108
464.7920485
460.9084687
452.6921693
440.4975617
439.0813584
416.0466943
385.0366686
356.4106134
306.4260305
246.6150701
177.0147519
104.1208579
18.42081856
-63.83193338
-138.7278108
-203.3142931
-256.4846844
-298.792141
-328.3982144
-351.9285235
-361.2921899
-371.6343381
-378.4066365
-381.6388787
416.3160609
412.2301707
403.5903311
390.9072164
388.0772252
364.8250589
334.2456719
306.6429935
260.6391021
207.6685276
148.5284642
85.8969528
16.37916998
-51.26755883
-113.8243237
-169.1741486
-216.2577666
-255.1321522
-283.9658424
-307.136106
-318.0469568
-328.7846878
-335.9302758
-339.344187
371.180911
367.0726817
358.3985409
345.7728919
342.1214934
319.5202202
290.5308455
264.4906981
222.9103625
176.2293666
125.3690105
72.0599911
14.26761085
-42.09096363
-94.77794662
-142.2575203
-183.6041102
-218.6222356
-245.8379686
-267.8308277
-279.2990758
-289.9266625
-297.0826621
-300.5064182
329.461913
325.4637506
317.0356382
304.8564434
300.8408799
279.4536638
252.5406124
228.5450517
191.3800563
150.3619454
106.5041544
60.95397713
12.32311568
-35.1115994
-79.77851501
-120.5625338
-156.6932836
-187.8960803
-212.9255139
-233.3368055
-244.6777788
-254.8484215
-261.7627623
-265.0754759
291.1029879
287.3086716
279.3204401
267.8481528
263.8070181
243.9760325
219.3922318
197.635955
164.6852988
128.7355962
90.86972196
51.81313355
10.58654543
-29.61542437
-67.66009199
-102.7286044
-134.1951937
-161.7738508
-184.388746
-203.0057558
-213.7690112
-223.2651372
-229.7729743
-232.8940073
255.9585128
252.4310087
245.0106692
234.4086289
230.5795514
212.4819046
190.3120894
170.8427286
141.8179012
110.404869
77.6982089
44.15268442
9.05314498
-25.16092945
-57.65313337
-87.81285409
-115.1357337
-139.3533929
-159.5159311
-176.2600521
-186.1629408
-194.8603376
-200.8603457
-203.7391851
223.8243101
220.6019622
213.826394
204.1858848
200.7285175
184.4317459
164.6582979
147.4339927
122.0185361
94.67149282
66.44824023
37.63866091
7.705604985
-21.46177223
-49.23218825
-75.14360181
-98.78928785
-119.9289998
-137.7019299
-152.5864361
-161.4689033
-169.3081064
-174.7449601
-177.3536364
194.4559615
191.5585626
185.4665565
176.8274592
173.8519554
159.3524742
141.8973554
126.8268102
104.7101978
81.01622114
56.72424077
32.03177017
6.523197924
-18.32542738
-42.02894573
-64.23350979
-84.6101907
-102.9495458
-118.4495747
-131.5402129
-139.3190852
-146.2843977
-151.1355091
-153.4623084
167.5845885
165.0190293
159.6229569
151.9907147
149.5703009
136.8218876
121.5753195
108.544905
89.44011408
69.04164613
48.22574608
27.15197903
5.48487611
-15.61718416
-35.77588661
-54.7179575
-72.17694193
-87.97390565
-101.3397342
-112.7295555
-119.3724571
-125.4760714
-129.7407711
-131.7848871
142.9314814
140.6963619
135.9915443
129.3497371
127.5352158
116.4684066
103.307641
92.19526895
75.84527625
58.43462589
40.72276236
22.86110401
4.570769274
-13.24031525
-30.2743334
-46.31927165
-61.15928351
-74.6452387
-86.02190351
-95.81374373
-101.3174204
-106.5880194
-110.2791098
-112.0463838
120.2167327
118.3055127
114.2769715
108.596851
107.4239691
97.96072656
86.77424322
77.44102403
63.62665496
48.94312931
34.03058289
19.04936598
3.762440472
-11.12287027
-25.37165028
-38.8194934
-51.2909768
-62.65845013
-72.19993168
-80.49286866
-84.8701009
-89.34453969
-92.48233733
-93.98242218
99.15844504
97.56280315
94.19090476
89.4349723
88.94578569
80.99796309
71.72918725
64.00284396
52.53881846
40.36143144
27.99688581
15.62671541
3.043085636
-9.209780749
-20.94773377
-32.04477594
-42.35858824
-51.77201148
-59.60501803
-66.50082276
-69.76641811
-73.48634047
-76.09415182
-77.33771198
79.50354339
78.21249746
75.47613872
71.60897867
71.81018642
65.30316032
57.84392914
51.66498745
42.37664624
32.51674693
22.49426878
12.51768793
2.397363117
-7.457498077
-16.90528251
-25.85261735
-34.1882072
-41.81614547
-47.99003805
-53.5958149
-55.78170772
-58.78611016
-60.88777943
-61.88724218
60.91498362
59.92694949
57.81344732
54.7888566
55.81724294
50.62802664
44.78087216
40.21836354
32.95309384
25.25623062
17.41268175
9.657359344
1.811344853
-5.829977444
-13.16181521
-20.11928761
-26.62047707
-32.60181627
-37.17491852
-41.56100571
-42.64214588
-44.97849456
-46.59102873
-47.35061668
43.405499
42.69336253
41.18228888
39.03023045
40.48476448
36.74467133
32.44778621
29.43689058
24.09259681
18.44105144
12.65613593
6.989238514
1.272520121
-4.296799375
-9.646306448
-14.73603077
-19.51012662
-23.92507487
-26.99484689
-30.17949752
-30.37932036
-32.03167284
-33.17603855
-33.72126773
25.75802263
25.39741681
24.50359662
23.21201071
25.88313614
23.45040713
20.63681723
19.14273976
15.63481455
11.94270595
8.134372786
4.462450487
0.7694073399
-2.831317699
-6.295914256
-9.605862464
-12.72912618
-15.64553119
-17.26259067
-19.35107527
-18.10817122
-19.09887572
-19.77240339
-20.0394694
11.95258248
11.6690787
11.23860219
10.61215253
11.63697288
10.42523517
9.062952059
9.174244246
7.424043156
5.631607315
3.753753147
2.035293597
0.2925632975
-1.408712786
-3.054389009
-4.641780429
-6.159160528
-7.612866709
-7.747653606
-8.708768373
-8.463211925
-8.929836877
-9.250814984
-9.481735106
2319.501256
-5108.488386
-3604.268165
1969.864407
-4592.952284
-5132.261858
1718.217116
-3351.786221
-4456.184007
1513.428218
-2139.622357
-3192.288284
1269.353368
-754.1146968
-801.4203176
-1092.3776
-1998.233243
966.1064033
399.196359
-705.2589106
259.9037948
-386.6540196
-977.0951429
2430.784977
676.5038209
-3209.321274
-1157.803425
-7125.038772
-4913.201902
-4696.957071
-3001.838319
-2469.977049
1781.562244
1947.893279
2217.735508
-6585.892699
-7148.379878
-4321.287412
-3037.267891
-3081.835771
1607.729108
1705.514857
1914.602297
1836.016026
1876.141575
2004.886296
-4689.60472
-5641.030647
-3222.025967
-2538.692297
-2947.259343
1424.197262
1499.325829
1678.693929
1614.163604
1656.595382
1741.673347
-3015.124408
-3717.450252
1222.535918
1266.838074
1473.102771
1394.443118
1457.91116
1556.56648
-1591.943369
-1580.021056
-2184.418308
1002.406427
975.8834068
1233.145988
1121.065143
1153.208593
1317.822985
673.9856306
415.8955709
414.436609
2900.899641
2451.362132
3283.899688
2982.503133
-7178.612079
-7163.999611
-4781.850055
-6825.484885
-6996.978098
2022.956014
2158.333216
2083.818718
2165.085939
2027.001428
2406.838601
2187.657565
-5700.288665
-6540.973813
-4874.218133
-6403.775807
-5606.43984
-6970.721539
-6447.717585
-4923.899513
1754.986723
1859.036917
1805.060232
1868.427193
1756.781514
2017.489637
1877.796777
-3822.644481
-4624.157742
-3833.625755
-4513.80561
-3749.733161
-5548.46929
-4634.111086
-3994.074371
1563.162731
1651.328735
1589.231154
1655.291297
1568.036822
1749.69457
1660.348726
-2273.710886
-2919.187434
1327.023553
1450.862387
1378.914167
-1541.230355
1456.730561
1332.855992
1561.299474
1463.849419
-1584.057082
-981.8936963
-1498.535692
-1539.015537
1034.070577
1139.708824
1100.686995
19.96866514
1145.322273
963.2580129
1323.657092
1158.062579
-53.52241263
1907.49216
2260.900897
2368.07173
2508.295706
2917.154431
3128.569753
-9555.797346
-6500.42436
2125.664569
2181.581468
2401.449503
-3613.31892
-2095.259766
-1858.721878
-2375.009878
-2021.987896
-1983.744509
-2302.195479
-111.937339
-445.9774197
-834.7917841
2444.081242
2848.122285
2471.164368
2624.685361
4145.504917
3857.938705
-4631.153349
-6710.715788
-4567.227863
-2354.961368
-2700.194257
-2578.433215
-2875.53323
-2248.894575
-3648.535484
-2968.643838
-2728.811564
-1114.963819
-211.2818155
-388.8370297
970.2665557
2193.688992
3205.898908
-4371.226222
-1547.820329
586.7964126
-9619.648102
-6613.021276
-9161.350548
-6142.414723
-9020.471974
-6272.63726
-6843.414446
-6882.970709
-5135.904925
-5200.589386
-3175.376008
-3526.87805
-3308.638552
-3511.329325
-3146.823615
-3976.401269
-3567.014136
-3409.200415
1504.613701
1470.731016
1428.512672
-1598.888092
-1887.323178
-1933.260856
1238.903604
1203.166707
1135.946057
1281.011968
1223.624765
1248.988381
3011.751672
2666.042194
2675.447894
2670.339737
3026.327539
2427.458861
2630.985427
2611.694314
3280.656835
3777.463406
4002.194155
3092.569205
3688.660478
3220.514824
3750.454251
3094.602712
-7282.123425
-7289.788056
2098.736661
2186.642693
2089.008991
2296.222737
2287.080641
2409.457611
2194.909215
2273.461104
2265.608511
-6089.69019
-6143.504355
-6039.227469
-5415.294673
-5629.709819
-5080.290435
-5336.300671
-5986.929934
-6743.054818
-5896.49931
-5978.592963
-5692.532839
-5854.070972
-6705.416983
1812.793232
1804.801979
1952.19037
1942.021986
-4153.364603
-4023.587958
-4210.977536
1615.550925
1609.474794
1704.619848
1698.758719
-3090.320659
-2730.314367
-2637.362055
-2748.570525
-3111.115888
1383.99287
1350.236762
1298.889189
1413.668333
1366.748889
1393.458092
-1166.557628
1398.123875
1388.156292
1515.185146
1509.25956
-1938.503708
-1171.741858
-1224.153133
-1504.36875
1111.748228
1038.004607
953.4324113
978.3304078
523.0834147
245.2141202
1255.297675
-198.4020895
205.8138572
-113.0908983
1245.834461
-298.9759214
-148.8560209
174.0936934
-8461.483946
-2190.66421
-2358.857186
785.1325006
718.4047829
938.3573251
821.251535
841.1691783
998.677847
306.6879611
-67.25826269
-267.6393367
4893.655285
-2391.633525
-2579.098515
-870.2027353
-1132.771355
-1121.546909
-84.92734508
-338.360818
-41.12735984
1422.107463
2822.758158
4049.094697
-5781.424531
-2110.132502
356.1974194
-6706.994407
-7717.207953
-7546.759523
-7042.032943
-4877.594264
-5075.216469
-4859.230866
-5919.698279
-5726.297237
-5457.284804
1695.733957
1670.934172
1634.592286
1722.131575
1683.398216
1701.909764
1523.799325
1484.226532
1510.776785
1192.087586
1177.877155
1139.874136
919.3433863
730.7375732
465.0397211
-7232.430234
-7802.366313
-7783.753033
-7081.620588
-5905.721351
-5671.638145
-5987.8923
-5946.68502
-7070.105231
-5872.791282
-6167.997465
-5987.263697
-6383.181479
1796.617577
1777.115105
1735.481127
1765.036504
1783.861418
1776.422146
-4792.315948
-4583.189145
-4442.491354
-4172.23427
-3917.845099
-4209.359215
-5126.189661
-4703.838269
-4989.117082
-4308.159643
-4605.785116
-5064.332287
1605.366841
1574.276162
1536.679721
1622.657516
1586.559357
1611.387701
1639.552902
1654.873666
1667.179943
1582.32461
1606.348816
1587.239738
1730.209906
1737.281076
1758.300372
1670.914208
1684.139908
1675.968446
-2545.550848
-2681.405717
-2351.415093
-1359.448269
-1378.261382
1434.342722
1350.007509
1540.587908
1550.257551
1576.104216
1504.0632
1483.707567
-1724.635899
787.5796869
1013.46108
966.1084981
1126.147697
1080.032746
1087.125474
213.9726441
436.9442415
209.4922739
1094.397564
466.9774675
755.4031512
561.779517
583.1113526
1290.491556
1196.538862
-8807.419235
-8176.529269
-8407.083912
-3770.444002
-3841.039789
-1992.251972
-2140.059072
-2141.022925
2532.0822
2503.797687
4195.078474
4739.941058
4687.17037
4599.109772
4140.762526
-2774.247345
-2583.448532
-2548.253271
-2581.73101
-2790.277887
-1114.65121
-932.8968039
-957.6315975
-934.5446255
-1112.224971
-705.8662926
-884.1257866
-456.3559395
-493.6291244
-657.0000656
-287.3099351
-440.9566463
-355.7932453
-9416.85014
-8128.408538
-7696.728967
-8362.06615
-8220.205943
-7510.873335
-6761.527355
-8176.302056
-7247.883819
-7116.332298
-6739.769549
-7003.603027
-7483.863218
-7305.418779
-5359.742609
-5148.483535
-4942.376072
-5208.962785
-5425.880728
-4926.185172
-5143.525473
-5502.1342
-5393.822642
-5665.915307
-5437.875007
-3322.011118
-3392.513734
-3361.925723
-3280.857361
-3433.442896
-3815.861341
-3702.644918
-3866.829848
-3484.40498
-3648.701135
-3756.657826
-1801.295197
-1787.093356
-1938.271758
1223.250457
1190.521844
1201.102271
1276.197097
1263.416814
1234.213027
2843.94234
2794.842336
2800.126253
2802.155191
2678.835629
2999.52312
2847.681672
2850.590627
2505.251522
2515.553963
2440.008291
2641.845712
2544.117493
2534.967043
3327.738356
3231.816298
3057.235285
3449.39401
3350.111517
-7966.828251
-7823.10812
-7246.801415
-8024.684328
-8231.538897
-7967.994285
-8320.106139
-8418.079571
-8314.792476
-8282.395242
-7275.29198
-8026.318805
-8024.565434
2142.412947
2139.179622
2112.873234
2180.902041
2149.364249
2154.417566
2073.869467
2050.496941
2105.465484
2081.548041
2333.352448
2341.224156
2293.047809
2418.354734
2359.07447
2349.926802
2228.789938
2226.658347
2191.635261
2278.520173
2239.083184
2241.761532
-6390.464761
-6226.487601
-5928.549447
-6321.704903
-6637.332333
-6438.957678
1844.333902
1821.680764
1878.743701
1851.23386
1785.803349
1768.027525
1813.372844
1791.593427
2000.851754
1969.089397
2041.901881
2011.460622
1916.643105
1887.250633
1958.555012
1927.205351
-4141.431088
-4329.768624
-3925.118286
-4088.986995
-4176.577991
-4635.06447
-4850.721836
-4386.258912
-4571.407109
1627.154579
1648.827163
1633.848511
1654.817892
1630.111717
1670.68378
1661.362152
1624.405579
1592.511124
1609.227491
1621.031599
1713.824148
1730.435911
1723.259705
1733.782291
1716.564248
1761.175301
1739.995325
1685.652649
1673.598976
1708.164569
1690.499825
1681.444958
1689.190806
1707.154513
-2789.539055
-2907.872186
-2971.777837
-2778.703376
-3026.811794
-2955.552189
-1122.247317
-1330.002686
-1347.870524
-1124.443872
1426.643129
1360.263172
1526.152457
1542.997077
1533.869235
1490.54995
1511.388615
1522.06385
-1816.332135
1063.50549
1063.103088
1010.40097
633.1987552
555.9108693
1072.532588
314.6167839
452.2496472
365.3916524
1278.88436
-347.1475325
66.45228039
265.655025
25.64218561
1200.29857
-3041.822459
-2223.778545
-1504.032212
-2338.705877
-2395.502719
-1118.571966
-1208.372265
-1687.524478
-2398.481252
-906.7113438
-884.2702095
-716.5240699
-2162.230036
-1614.480085
-1588.837321
1396.675998
3277.611923
4497.257207
-7069.221508
-2852.975367
140.4028572
-2120.624563
-1834.298922
-4178.965501
-6905.574713
-7832.801498
-8014.572383
1930.446517
1904.177157
1853.615471
1975.431005
1921.677171
1949.116428
-1585.181345
-1735.688361
-1735.62192
-2255.246206
-1968.399302
-1920.265002
1301.482081
1273.778758
1286.912116
-8050.376111
-8043.755966
-7273.729516
1837.431018
1791.651896
1811.41704
1843.868171
1850.040006
1876.536593
1885.329672
1913.963268
1904.286697
1348.46491
1336.016926
1310.882623
-1552.010568
-1503.728571
-1494.982149
1338.071544
1347.543523
1341.059999
-1659.504778
-1667.694475
-1562.827336
-1381.030722
-1382.206319
-1534.949173
1130.682653
1314.339587
1321.476037
1329.529275
1167.611432
-9460.210716
-3652.260125
-2005.265692
-2080.230547
-2083.430995
-2342.138364
-2183.87574
-2155.657519
2587.757601
-5547.956979
-5031.607059
-6109.697508
-2500.082286
-2550.985141
-2387.848483
-699.4231625
-713.8980099
-531.4481264
-538.7721166
-641.5657968
-2871.094137
-2449.140383
-5549.273774
-9344.583731
-8806.851226
-8645.20222
-9034.312515
-9095.850643
-3225.08713
-3259.352644
-3207.031421
-3541.490284
-3544.592027
-3519.40562
-3074.995632
-3226.45945
-3299.188366
-3937.631197
-3879.240458
-3937.707776
-1930.282182
-1909.68851
-1942.584627
2948.98752
3031.998071
2707.578177
2711.517972
2715.333918
2674.734583
2445.97236
2457.252421
2434.918609
2636.457617
2601.166035
2595.28937
3474.253446
3296.831769
3417.266289
3645.747741
3668.139021
3810.361705
3099.04925
3170.587244
3170.753613
2123.725842
2120.603913
2118.652898
2184.489343
2174.450448
2176.974345
2071.056581
2064.904478
2113.338097
2104.676874
2303.062303
2305.204708
2289.9565
2413.860756
2393.204421
2389.708926
2203.581015
2203.959615
2193.969567
2275.999531
2263.823609
2262.991658
1819.566157
1842.417089
1835.285797
1783.772093
1790.185796
1811.746751
1964.947687
1995.751536
1980.233297
1987.638239
1976.511152
2057.687559
2047.208836
1898.797055
1965.494735
1954.583909
1914.263722
1924.102866
1954.682659
-4328.218828
-4405.048574
-3998.23442
-4069.66342
-4091.806014
-4475.843473
-4485.324695
-4381.053176
-4520.319761
-4341.076061
1370.362973
1345.081467
1356.909824
1420.404598
1403.781517
1379.414701
1402.518544
1413.980407
1408.304139
1378.635551
1382.484265
1391.949953
-1940.335369
987.0759005
1002.602765
968.6340063
667.0806999
993.9119489
404.9847971
513.8341328
619.9762048
1261.787023
1267.558216
1263.041779
-261.9418961
-105.852692
-86.88937646
-102.8240953
1234.139387
1241.273538
1253.126116
-10.05633546
-95.24603151
-236.6398344
-2223.443173
-2271.924963
-2382.830096
-2332.870106
-2313.151842
5076.655712
5078.503929
5066.774611
-2453.946165
-2478.717758
-2388.106181
-2594.864322
-2536.607353
-2527.968882
-3907.30232
-3233.97597
-6686.162907
-6971.106971
-6989.901531
-6877.790117
-6927.797104
-7657.396466
-7468.480061
-7519.192352
-7370.941471
-7420.295213
-7602.516385
-5859.530888
-5771.210331
-5833.921241
-5635.542086
-5706.682745
-5796.599122
-7844.492448
-7625.706538
-7630.625959
-7570.784686
-7610.753517
-7835.782282
-6104.1817
-6015.060995
-6074.305631
-5896.792778
-5956.454286
-6048.223905
-6786.460099
-6832.086833
-6662.036234
-6725.188748
1659.516545
1654.311414
1649.238244
1588.974929
1584.974726
1577.978001
1599.129369
1592.588399
1597.504287
-1500.487409
-1557.279702
-1356.464452
-1443.174729
1451.852199
1447.236263
1465.100172
1457.223061
1354.190376
1345.871637
1351.899844
1348.240429
1558.874125
1555.739323
1547.897608
1571.240888
1563.829522
1568.166196
1479.863965
1474.643184
1496.215997
1478.513798
1486.68206
-1728.815217
-1723.80807
-1716.995998
-1562.328385
991.4792701
1004.841822
1069.402847
1107.036339
1101.507555
1082.397775
1114.426143
418.9745637
409.2727749
1034.819078
927.9851384
722.8982971
1292.35689
1308.956758
1303.309324
1181.84785
-9427.06304
-9704.124444
-9155.595998
-9089.968879
-8541.800073
-7597.077771
-9419.171303
-9080.893951
-3703.624657
-3855.906596
-2141.92448
-2133.732581
-2137.937751
2558.628392
2472.372117
4793.688797
4602.091635
4553.262345
4136.037905
4002.993581
4433.441482
4267.407507
4408.014895
-2672.015251
-2592.567032
-2730.267076
-948.2581309
-942.8609919
-930.7638466
-1053.214563
-743.6895314
-717.8181622
-706.6281518
-870.2035419
-807.5321691
-809.3835368
-465.9421204
-521.4654116
-514.9317294
-339.2361778
-347.5448658
-393.3078425
-9009.207706
-8927.219877
-9403.383622
-8324.109911
-8713.221669
-8709.491281
-9155.028591
-9139.313808
-7187.743289
-7069.896562
-7114.525227
-7012.252977
-7026.447565
-7131.760168
-7419.372572
-7264.656201
-7318.672726
-7163.143269
-7212.674134
-7361.669254
-5289.491958
-5213.429144
-5282.993875
-5276.348672
-5352.298617
-4968.71732
-4998.835875
-4975.729352
-5079.184208
-5584.196917
-5616.31165
-5569.753153
-5485.380636
-5560.495345
-5355.71053
-5424.470346
-5515.486181
-3362.066249
-3265.109417
-3262.311114
-3279.281053
-3217.835218
-3278.353955
-3467.043835
-3489.41534
-3418.38619
-3773.117405
-3816.329554
-3838.151074
2895.757146
2749.602257
2510.122125
2481.854063
2470.517059
2563.783826
2568.983896
2539.10452
3453.070897
3554.93787
3547.677786
3863.202326
3731.702529
3255.527356
3253.432667
3350.005193
-7908.292148
-7695.780233
-7729.992465
-7641.420203
-7665.100787
-7861.198741
-8090.567921
-8154.275642
-8378.859909
-8737.308785
-8638.786192
-8833.911228
-8835.051136
-8425.624451
-8342.783529
-8574.406636
-8528.087786
-8269.672252
2141.878988
2132.353897
2133.003066
2166.161639
2163.79565
2152.823135
2083.083046
2076.945771
2096.464535
2089.504456
2336.708465
2320.720332
2318.385664
2369.066133
2372.978573
2353.993688
2228.026909
2215.506707
2215.11593
2252.984302
2252.296356
2240.489086
-6340.820246
-6243.756966
-6294.138791
-6131.320724
-6188.028622
-6281.361333
-6583.600653
-6486.230663
-6569.505122
-6345.693174
-6409.547963
-6506.502254
1837.322423
1839.499564
1845.591195
1823.762763
1832.254872
1829.764587
1868.656453
1867.744843
1879.513383
1851.048649
1857.854421
1859.119032
1780.201423
1782.655424
1787.427264
1771.334269
1777.375532
1774.336487
1805.385453
1806.077502
1814.681118
1792.354126
1798.478642
1798.078033
2010.246173
1998.964218
1990.285762
1994.90239
2005.773799
1973.072685
1983.959666
1979.681847
2034.102699
2021.605365
1922.637511
1912.866596
1906.317227
1909.448516
1919.660232
1888.349725
1892.84184
1895.291447
1948.072692
1951.566437
1962.279957
1930.406837
1940.956073
1937.635419
1943.903358
1933.320186
-4234.052665
-4271.190133
-4162.773563
-4130.94941
-4152.437892
-4695.41521
-4726.376403
-4675.102474
-4888.15355
-4795.523391
-4765.965234
-4432.194683
-4463.920305
-4440.231523
-4619.328245
-4564.294753
-4501.07306
1633.804998
1629.987743
1623.420638
1643.410962
1636.824794
1641.374673
1645.708481
1636.961841
1668.005054
1665.076272
1620.196218
1610.092605
1604.377979
1604.303223
1602.193993
1617.038107
1611.258126
1616.28154
1720.424482
1725.504373
1737.064882
1721.23437
1753.989086
1756.568435
1764.203754
1742.885681
1749.489077
1746.971663
1681.063416
1677.007599
1700.91852
1695.419319
-2908.408705
-2893.517829
-2962.785276
-2777.047715
-2830.738422
-2865.646332
-3100.788901
-3149.251323
-3011.378306
-3012.827909
-3023.153143
-1281.745105
-1290.019514
-1345.353482
-1144.624429
-1211.629679
-1216.390565
1419.474631
1406.042197
1441.542815
1432.379905
1365.126809
1373.167187
1369.171066
1376.269001
1368.652245
1394.684115
1385.258897
1531.136775
1528.669005
1523.261788
1540.852465
1534.5108
1536.737542
1515.760278
1509.04952
1503.139112
1518.327634
1513.749137
1518.879872
-1880.374909
1060.43716
1035.952585
1036.75068
598.8981142
603.6998452
649.5262366
556.3710807
560.2080359
549.8428696
1047.829353
403.8561367
358.9801289
297.1793275
1270.143692
1272.154246
1279.035251
-327.0792549
149.1534148
95.76556589
251.9297723
244.26118
253.0698052
80.72538039
-46.32179763
-27.62626109
70.49214417
1213.837331
1230.197393
1222.466828
916.3691473
864.8983138
835.9173852
843.2778485
764.7742538
730.7161879
732.6231923
619.0813442
586.0191529
574.5608187
425.409512
400.7869314
369.9621537
195.1589737
187.8229505
134.2421245
-44.91666048
-31.95561946
-103.1207703
-263.5745714
-236.6486793
-312.7425465
-442.1967602
-410.0517082
-480.3550694
-576.3997382
-545.0685229
-603.7067009
-671.1209489
-645.0673672
970.0255184
931.2837576
878.6804228
914.0343867
844.7692148
781.1022357
814.8941727
701.848983
635.2870092
655.6151016
490.2133081
437.3295126
426.3603788
214.8203594
198.186356
140.0863626
-81.98511049
-52.33626261
-151.9663915
-338.6681945
-278.0309375
-392.0386523
-525.0666607
-458.2772815
-561.2766066
-649.9419522
-591.5342225
-673.958568
-731.6822971
-683.61716
1045.298354
1027.273999
952.636881
1016.994395
968.5531129
871.4005996
945.2312277
846.8955301
731.2727731
802.4644694
623.7302705
515.3753417
546.9895257
267.8595558
223.932742
163.2403651
-149.4095009
-94.99822482
-244.4317454
-478.7077278
-366.0383359
-538.5659476
-670.415838
-554.5928233
-701.9395229
-769.5222845
-674.7711912
-785.1432177
-819.155077
-751.3249035
1134.215239
1145.639927
1055.601219
1147.266743
1140.025096
1006.82769
1131.813369
1081.168863
896.0180615
1051.572623
889.4798156
674.2028313
799.6464603
389.282735
289.8732723
214.2370609
-308.9444054
-175.7089645
-453.5635045
-751.8780453
-530.1002091
-812.5589353
-912.6055996
-720.5322509
-925.9484856
-939.1520553
-807.2302422
-938.0347083
-930.8043529
-844.9518031
1220.629118
1267.499627
1177.35203
1283.573992
1334.671193
1188.007811
1353.166661
1411.569226
1156.733457
1428.282532
1422.91949
990.346852
1365.811988
612.9679774
437.3916701
387.9259414
-856.3987408
-386.8694778
-1061.876184
-1306.35645
-856.5639537
-1316.700213
-1267.782875
-990.0847109
-1239.61027
-1151.841025
-988.4487055
-1124.982137
-1058.07283
-961.6910545
1285.609407
1362.370915
1295.114097
1391.394742
1496.946421
1380.910815
1541.511289
1725.345297
1499.554184
1812.758873
2313.241268
1619.214608
1952.524278
1957.80782
1392.243792
403.1251811
-1120.72706
-437.8324737
-1873.154992
-1780.808974
-1457.182177
-2073.846416
-1706.092778
-1373.944586
-1607.88279
-1374.986336
-1209.204115
-1315.274951
-1178.614578
-1089.948182
1312.732717
1404.710592
1378.438388
1439.453808