/*--------------------------------*- C++ -*----------------------------------*\
| =========                 |                                                 |
| \\      /  F ield         | OpenFOAM: The Open Source CFD Toolbox           |
|  \\    /   O peration     | Version:  v1912                                 |
|   \\  /    A nd           | Website:  www.openfoam.com                      |
|    \\/     M anipulation  |                                                 |
\*---------------------------------------------------------------------------*/
FoamFile
{
    version     2.0;
    format      ascii;
    class       volVectorField;
    location    "1.48";
    object      U;
}
// * * * * * * * * * * * * * * * * * * * * * * * * * * * * * * * * * * * * * //

dimensions      [0 1 -1 0 0 0 0];


internalField   nonuniform List<vector> 
12556
(
(99.99802368 0.004750351351 -4.656852354e-21)
(99.99748962 0.01571060486 4.562168579e-25)
(99.99596597 0.0322950982 -4.644248606e-21)
(99.99343569 0.05815123913 -4.608477051e-21)
(99.99980564 0.04492698096 4.437873325e-21)
(99.99682157 0.07234646895 0)
(99.99523719 0.114110807 0)
(99.99487115 0.1701946241 -7.641911806e-21)
(99.99368552 0.2417893599 8.826350386e-22)
(99.99316789 0.3244778326 -5.620188329e-21)
(99.99337429 0.4061743937 7.851390537e-22)
(99.99530989 0.4674880255 0)
(100.0003954 0.4891727822 0)
(100.0052025 0.464764118 1.356486843e-21)
(100.0065892 0.4040459042 -1.873890588e-21)
(100.0066153 0.326319902 1.01116883e-21)
(100.0060303 0.248824882 0)
(100.0051903 0.1814849332 1.562267644e-21)
(100.0046672 0.1261139006 6.395960036e-21)
(100.0024801 0.08690976939 -1.766850165e-21)
(100.0094317 0.0970602882 -1.525620183e-20)
(100.0063166 0.05900901623 0)
(100.0045365 0.03104229971 -1.90420125e-21)
(100.0042834 0.009704158538 -1.339603458e-20)
(99.98226262 0.01280674424 1.866882498e-20)
(99.97594306 0.0428848825 4.658881509e-21)
(99.96167969 0.08889514826 3.251301157e-20)
(99.93733241 0.161003007 -1.392421499e-20)
(99.94245088 0.2136275966 4.473153019e-21)
(99.90589045 0.3476013711 -6.163824397e-23)
(99.85994846 0.5486619291 0)
(99.83759502 0.7236926807 -7.759774017e-21)
(99.79305282 1.040341249 -7.10563902e-21)
(99.76715 1.418374956 -1.211615924e-20)
(99.77983353 1.800246353 -4.878850827e-21)
(99.84318065 2.100352646 -8.700238668e-21)
(99.94914508 2.224131281 8.174143915e-23)
(100.0596289 2.129813727 5.03382317e-22)
(100.1385169 1.860803792 -6.19480771e-22)
(100.1698967 1.508069085 5.219900674e-21)
(100.1631206 1.147744518 -9.876322803e-21)
(100.1344055 0.8384913607 0)
(100.1346878 0.6140660184 -2.694969288e-20)
(100.0933628 0.410404315 5.169893044e-20)
(100.0885326 0.274776756 1.476978791e-20)
(100.0602555 0.1664771835 3.02846895e-20)
(100.0440401 0.08788864785 -3.037442066e-20)
(100.0378141 0.02752240774 1.530035415e-20)
(99.95223258 0.0168110415 -1.862722202e-20)
(99.93429896 0.05748330536 -3.742486285e-20)
(99.89527784 0.122025817 -8.378808188e-20)
(99.83022427 0.2260272845 1.114488631e-19)
(99.80038846 0.3390706782 -9.211238283e-21)
(99.69064142 0.5679754547 -8.913302971e-21)
(99.54767004 0.9157545157 -1.544711341e-20)
(99.47618038 1.284685101 0)
(99.3323305 1.896697045 2.949601567e-20)
(99.25430267 2.638797477 -1.282874366e-20)
(99.3102395 3.420555048 4.23578666e-23)
(99.55162118 4.077915827 0)
(99.959762 4.382403055 0)
(100.3754247 4.190373975 2.822769408e-21)
(100.631467 3.595281893 4.532574778e-20)
(100.6986307 2.847814743 4.206910868e-21)
(100.6485823 2.133921835 -1.059763907e-20)
(100.5309841 1.520759357 -2.434783416e-20)
(100.4429672 1.036679308 -1.619130579e-19)
(100.3154382 0.6835032483 -3.563968115e-20)
(100.2427382 0.4106564806 -1.50894022e-20)
(100.1683034 0.2464377305 3.426303125e-20)
(100.1236191 0.1300981764 -3.842698707e-21)
(100.1040795 0.0405319447 0)
(99.9166852 0.01421934134 -9.400005053e-21)
(99.88216771 0.05153672236 6.577944068e-20)
(99.80825286 0.1187941959 -1.882420878e-20)
(99.6876942 0.2315278714 0)
(99.59450369 0.3914458529 0)
(99.37873026 0.6880980729 -7.236607364e-20)
(99.08411699 1.15598142 -1.44623407e-19)
(98.86560077 1.711265015 3.389174317e-20)
(98.53609932 2.603053527 0)
(98.32268949 3.743650442 -1.250969579e-19)
(98.37504477 5.067389904 4.00247975e-19)
(98.88515018 6.321551187 -1.045987752e-19)
(99.89184281 6.991411248 -1.022469146e-19)
(100.9672253 6.654781954 -4.854588264e-20)
(101.5742599 5.519125422 3.265511388e-19)
(101.6402329 4.163740636 1.491609044e-19)
(101.4394279 2.984532171 9.547852875e-20)
(101.1671456 2.075234756 0)
(100.9092426 1.344258002 5.843260081e-20)
(100.6456276 0.8654882809 -4.486212709e-20)
(100.4556929 0.4791870103 -3.855258281e-20)
(100.3176594 0.2842105754 1.947651497e-20)
(100.2321505 0.1476751604 -3.903946817e-21)
(100.1931159 0.04553665167 0)
(99.89158627 0.003382549155 0)
(99.83764644 0.01951143689 0)
(99.72315594 0.06965727386 9.528369416e-21)
(99.53523385 0.1651517826 1.437349267e-20)
(99.36339485 0.3500277402 2.378659394e-20)
(99.00582344 0.670796134 0)
(98.51151321 1.184875735 0)
(98.06740291 1.878743731 0)
(97.44778533 2.998934683 -6.302825492e-19)
(96.9244445 4.565368253 -1.201677894e-18)
(96.74922945 6.638216626 -1.118263718e-18)
(97.4788048 9.007277086 0)
(99.61343353 10.55297647 0)
(102.0971637 9.923881558 0)
(103.3011791 7.72942667 6.601736348e-19)
(103.2180161 5.389810424 -9.032450432e-20)
(102.6186143 3.616651972 2.152776821e-19)
(102.0150849 2.398326472 -3.915765804e-22)
(101.49983 1.477384955 -9.554208215e-20)
(101.0513649 0.9229632004 7.924098091e-21)
(100.6982823 0.4607323098 0)
(100.4819182 0.2670374923 3.968654524e-21)
(100.3473307 0.1337143713 -2.980800898e-21)
(100.2848425 0.04043146803 -9.881017362e-22)
(99.89487897 -0.01629998037 0)
(99.8209497 -0.04060020615 0)
(99.66592403 -0.03183184495 -1.907513698e-20)
(99.40663638 0.02147547191 3.895319597e-20)
(99.14459855 0.1977055302 0)
(98.62966719 0.4820850626 0)
(97.90538378 0.9587012589 3.057268169e-20)
(97.1908248 1.688117542 -5.027403543e-19)
(96.1606799 2.88056829 0)
(95.03350078 4.727840318 7.401053766e-19)
(94.02569635 7.686724916 -3.458597726e-19)
(94.31951749 12.23531946 1.093132273e-18)
(98.72837328 16.27408358 0)
(104.5697377 14.61702054 0)
(106.4474887 10.01410176 0)
(105.663806 6.282069879 0)
(104.209258 3.860655329 0)
(103.020463 2.402513438 3.21039618e-20)
(102.1539027 1.377231958 2.451938457e-20)
(101.4820595 0.8195503298 -1.633018106e-20)
(100.9358932 0.3435217888 0)
(100.6312679 0.1869378802 0)
(100.44457 0.08430187592 -9.993215121e-22)
(100.3571501 0.02415922125 -2.993660586e-21)
(99.94395137 -0.0443710061 4.666615428e-21)
(99.85197477 -0.1267660393 -4.703508975e-21)
(99.66184705 -0.1821688469 9.609684922e-21)
(99.33964992 -0.2001308993 -3.514425478e-20)
(98.977482 -0.06838893735 7.708605219e-23)
(98.32043964 0.1174768842 3.023546116e-20)
(97.39842925 0.4609610456 -1.484733243e-19)
(96.38631302 1.087761546 -2.150167129e-20)
(94.88520435 2.136177851 -1.657391978e-18)
(92.9185454 3.85894067 0)
(90.0879436 7.005748905 -3.550490565e-18)
(86.64914421 14.57834286 4.295366997e-19)
(95.1164717 27.45355991 6.874883354e-19)
(111.6590863 20.89001544 1.480795769e-18)
(111.8647348 11.37458633 -7.443863964e-19)
(108.924056 6.142130531 0)
(106.0900093 3.420505082 5.919599069e-19)
(104.0890004 1.97088092 0)
(102.7618339 0.9959458103 0)
(101.8754364 0.5303860958 8.816652006e-21)
(101.1242034 0.1289601173 2.613740205e-21)
(100.7335349 0.0405676869 -3.094046356e-21)
(100.4990899 -0.0001930544299 -3.519752083e-21)
(100.3878879 -0.003086586046 8.490324748e-21)
(100.0538024 -0.07913683455 -4.667102494e-21)
(99.94813337 -0.2335100465 4.705189817e-21)
(99.7325506 -0.3706367724 -5.979637282e-21)
(99.36482073 -0.4823171689 -4.033079486e-21)
(98.91791802 -0.4299880027 1.722768073e-20)
(98.15562301 -0.3954025962 1.03007816e-20)
(97.1003181 -0.2772250089 1.138270703e-20)
(95.83962001 0.1195222263 0)
(93.98114058 0.7622304099 0)
(91.33215253 1.772158626 -2.266239278e-18)
(86.78105584 3.30913007 -2.077899243e-18)
(77.58773944 6.382281762 -2.649824969e-18)
(128.3490795 22.57684163 0)
(119.0372229 8.857735572 0)
(112.391539 4.178392944 8.41844844e-19)
(107.8418591 2.075929326 0)
(105.0163472 1.048964661 -1.18738604e-18)
(103.2109786 0.3371559092 -4.658562912e-21)
(102.1523951 0.07340251915 1.98698199e-20)
(101.2158732 -0.1748956599 -3.175928498e-21)
(100.7581136 -0.1617991527 2.600857682e-21)
(100.4871117 -0.1143360073 -4.863811318e-22)
(100.3563998 -0.03998148204 -7.961242158e-21)
(100.2353529 -0.1179703528 -2.249656011e-21)
(100.1220136 -0.3526840011 -1.690799988e-21)
(99.8935675 -0.5817090387 -5.803102292e-22)
(99.50305739 -0.8001637943 1.759928304e-21)
(98.99530601 -0.8518041512 -3.506390464e-23)
(98.1896028 -1.000415069 0)
(97.08193081 -1.147311501 -2.923117896e-21)
(95.68960437 -1.063803539 1.62458501e-18)
(93.71204323 -0.9350376805 -2.877734781e-18)
(90.9910042 -0.8208032269 -3.125250657e-18)
(86.73906518 -1.245813871 4.373789232e-18)
(80.75669294 -3.445861535 -4.890713301e-18)
(140.4788246 4.476541037 0)
(123.5244267 1.417046332 6.050856731e-18)
(114.557862 0.3234010015 0)
(108.9110497 -0.09535068835 -1.400231904e-18)
(105.5417036 -0.2731314023 1.244548009e-18)
(103.3986533 -0.5197202994 -4.733219886e-21)
(102.2354319 -0.5108019999 1.112523887e-20)
(101.176709 -0.5396517459 1.086438202e-21)
(100.6811211 -0.4016453589 0)
(100.3892391 -0.2485862906 4.009668132e-21)
(100.2464039 -0.08353145919 3.965372446e-21)
(100.4938335 -0.1577240129 4.430720018e-21)
(100.3795126 -0.4745758667 6.98429372e-23)
(100.151941 -0.7970790597 0)
(99.76340945 -1.124952385 2.265371091e-22)
(99.22535139 -1.292111924 -2.362749336e-21)
(98.4381703 -1.626003075 2.529620781e-21)
(97.36294615 -2.029944775 8.738105661e-20)
(95.97805521 -2.247601689 0)
(94.11654862 -2.558434911 -2.937693292e-18)
(91.70102039 -3.064052778 2.055066473e-18)
(88.36082009 -4.28734661 -5.279904974e-21)
(84.68003932 -6.51502459 2.095971032e-18)
(136.1284548 -12.3205135 0)
(122.6463858 -6.819899768 -2.825338501e-18)
(114.3860023 -4.115713055 8.967584514e-19)
(108.8505532 -2.568692463 3.598883049e-19)
(105.4839641 -1.758016796 -2.491255589e-18)
(103.2573201 -1.459202174 3.996078687e-20)
(102.0883443 -1.151706926 0)
(100.9881354 -0.9260648301 -1.060984168e-21)
(100.488906 -0.6551266221 -4.41851664e-21)
(100.1944028 -0.3905132289 4.936268986e-22)
(100.0483617 -0.1296699686 0)
(100.8282153 -0.1953528619 -2.1808701e-21)
(100.7191412 -0.5896143739 2.200844816e-21)
(100.5048276 -0.9988928425 2.144458688e-21)
(100.1428447 -1.429326578 -2.013445637e-21)
(99.60215725 -1.709888161 -2.327627305e-21)
(98.88299639 -2.20598876 0)
(97.90696213 -2.828581731 -1.306087045e-20)
(96.6197253 -3.294744766 0)
(94.97699125 -3.908647896 -9.5411939e-19)
(92.93773716 -4.755013543 -3.799242881e-18)
(90.24498838 -6.238644344 -1.796324076e-18)
(87.38954715 -8.179471076 1.790663039e-18)
(126.2090256 -20.98331786 3.308411437e-18)
(118.2058908 -12.54518727 0)
(112.2389248 -7.643273073 -2.211497595e-20)
(107.7648107 -4.728074986 2.569103736e-18)
(104.8477214 -3.144645903 0)
(102.786807 -2.346052093 0)
(101.7136916 -1.76659615 -2.62209157e-20)
(100.6491391 -1.293711597 -1.332024723e-20)
(100.180995 -0.8971848334 1.00953075e-21)
(99.90160491 -0.5269055482 -3.19660744e-21)
(99.76106748 -0.1741590702 4.680735723e-22)
(101.2315742 -0.2282331856 7.970945523e-21)
(101.1330906 -0.6894511418 0)
(100.9412966 -1.17006753 -2.140238057e-21)
(100.6223274 -1.697172612 0)
(100.0988095 -2.072685372 0)
(99.48805699 -2.693239116 -6.912087773e-21)
(98.6566583 -3.480007714 1.473836218e-19)
(97.52017071 -4.126530957 -1.531172377e-18)
(96.12981164 -4.931015527 -1.763888946e-18)
(94.43783732 -5.974159132 5.53256381e-20)
(92.17791285 -7.62878897 0)
(89.59322366 -9.584930249 -1.183690607e-18)
(116.2166512 -23.65900472 0)
(112.6168656 -15.1468463 -8.828500561e-19)
(109.1152972 -9.668598723 -3.315884519e-19)
(106.0061733 -6.198710992 -1.38114384e-18)
(103.7778377 -4.217812526 -2.081318638e-19)
(102.0478611 -3.072680357 2.098292673e-21)
(101.1459676 -2.289760228 -3.203700918e-20)
(100.1817107 -1.615598183 7.88448098e-21)
(99.77006047 -1.104993353 0)
(99.51931553 -0.6463671707 3.680468779e-21)
(99.39146766 -0.2133112651 0)
(101.6927219 -0.2554148732 7.960694546e-21)
(101.6078522 -0.7725286274 1.254915072e-19)
(101.4425851 -1.310180178 -2.528050311e-19)
(101.1710306 -1.90814598 -4.059428494e-22)
(100.714382 -2.352689816 -2.004148687e-21)
(100.2129123 -3.058719001 0)
(99.54970002 -3.95326048 5.592674591e-19)
(98.58456705 -4.703092566 2.129362144e-18)
(97.46076335 -5.608849575 8.026780557e-19)
(96.10859547 -6.767894974 4.853993687e-20)
(94.29138607 -8.620181768 2.625150101e-18)
(92.0897773 -10.89445076 0)
(102.7451267 -32.11770451 -1.751045746e-19)
(107.4500482 -21.49555565 3.033920411e-19)
(107.4646719 -15.16017414 -6.430315213e-19)
(105.9187179 -10.26503154 2.432903488e-19)
(104.0232457 -6.924700344 -2.366697104e-19)
(102.4820805 -4.897063351 5.111751064e-19)
(101.1403042 -3.57682882 -6.418734321e-20)
(100.437592 -2.675324013 0)
(99.62180891 -1.860986517 0)
(99.27731114 -1.266147073 1.154745674e-20)
(99.06325494 -0.7414439189 2.127030635e-21)
(98.95300115 -0.2445335744 -6.907578025e-21)
(102.1971292 -0.2743541743 0)
(102.1276195 -0.8310960699 0)
(101.9929362 -1.407454933 0)
(101.7714309 -2.043409034 0)
(101.379185 -2.553298778 0)
(100.9896605 -3.316981812 0)
(100.4781925 -4.261554105 0)
(99.70823586 -5.05104501 0)
(98.83856676 -5.981294137 -7.071695446e-19)
(97.82522253 -7.163097289 -8.013045637e-19)
(96.53845221 -9.048642055 -2.114211459e-18)
(95.28862006 -11.69276636 2.50309393e-19)
(96.3092538 -21.15921701 -1.519283654e-19)
(102.3067153 -17.60661582 0)
(103.6354891 -13.60474588 0)
(103.1902973 -9.847581085 -1.042166416e-20)
(102.1358082 -7.037230227 -3.970354772e-20)
(101.1343807 -5.20669469 -5.59718983e-20)
(100.164962 -3.856841635 -9.002373307e-20)
(99.65588619 -2.919096535 -3.384873079e-20)
(99.00312047 -2.01758884 -1.881401309e-20)
(98.72714205 -1.377159395 1.856322753e-20)
(98.553437 -0.8081836826 0)
(98.46306053 -0.2664184345 1.854206715e-20)
(102.7301054 -0.2851206374 0)
(102.6766799 -0.8645539876 0)
(102.5747182 -1.462302307 0)
(102.4047103 -2.109601426 0)
(102.0747814 -2.652383094 0)
(101.8008054 -3.42972248 0)
(101.4360434 -4.35462015 0)
(100.8397489 -5.189800624 1.07468804e-18)
(100.1805169 -6.111742142 0)
(99.4633255 -7.19684692 -5.640030698e-19)
(98.71350077 -8.756717855 -4.200373201e-19)
(98.41448246 -11.25745361 0)
(97.91661959 -14.02863764 -3.276941318e-19)
(100.3106354 -13.60858469 0)
(101.2373504 -11.49302477 -7.851508052e-20)
(101.1050298 -8.915900864 -5.470766128e-19)
(100.504089 -6.752287831 9.744039843e-19)
(99.87066143 -5.235114477 -2.43934518e-20)
(99.19308608 -3.944952393 0)
(98.86201458 -3.030839137 0)
(98.35603758 -2.092184485 -3.51356904e-20)
(98.14485301 -1.437572673 1.733811037e-20)
(98.01104246 -0.8455952835 7.25327578e-22)
(97.94037755 -0.278744741 -1.277931433e-20)
(103.2765438 -0.28826205 0)
(103.2379575 -0.8740108486 0)
(103.1660842 -1.476565032 0)
(103.0435229 -2.116546775 0)
(102.7708432 -2.669667895 0)
(102.5904366 -3.428265487 0)
(102.3469528 -4.288629724 -1.565283266e-21)
(101.8937809 -5.145767613 -8.12331709e-19)
(101.3854387 -6.049275579 -1.811686346e-18)
(100.860954 -7.001457764 -2.06429422e-19)
(100.3934188 -8.145988326 1.656212049e-19)
(97.00627128 -9.045839568 -5.175359963e-20)
(99.02894398 -10.76628134 -2.24800745e-19)
(99.67391483 -10.70512111 0)
(99.82532042 -9.525118427 5.881751727e-19)
(99.57741063 -7.823088487 4.391515471e-19)
(99.16548816 -6.25828806 0)
(98.75080496 -5.046479077 0)
(98.28748068 -3.880414595 -3.00755822e-20)
(98.09345681 -3.032323903 4.542918173e-20)
(97.70886252 -2.097602148 1.095673839e-20)
(97.55453626 -1.452895282 1.867371531e-20)
(97.45593205 -0.8564336797 -2.12168328e-20)
(97.40284595 -0.2823290746 0)
(103.8225901 -0.2849220791 0)
(103.7965438 -0.8630824729 0)
(103.7493815 -1.45628799 0)
(103.6662387 -2.073684378 0)
(103.4444823 -2.619612601 0)
(103.3347854 -3.335177041 0)
(103.1751623 -4.114628032 0)
(102.8235485 -4.924131797 -9.991188972e-20)
(102.4008446 -5.78858033 1.31988895e-18)
(101.9342365 -6.608200806 2.516450629e-18)
(101.7288541 -7.507765784 -6.060808346e-20)
(92.6007555 -7.054318905 0)
(99.57766402 -8.768462795 -6.475816775e-19)
(99.28341587 -8.692726424 0)
(98.85435325 -7.901471359 0)
(98.45157013 -6.785784702 -3.819297375e-19)
(98.09568212 -5.699671761 7.625538318e-21)
(97.7966825 -4.730481155 0)
(97.48036064 -3.717072093 0)
(97.3727963 -2.94637592 0)
(97.08381453 -2.048356005 3.804801178e-20)
(96.97538441 -1.430702213 -3.559927e-20)
(96.90503838 -0.844643503 -2.399327185e-21)
(96.86622518 -0.2788058635 2.407482473e-21)
(104.3565349 -0.2764104591 0)
(104.3404712 -0.8359998443 0)
(104.3121968 -1.408720366 0)
(104.2593397 -1.992248101 0)
(104.0785287 -2.51665742 0)
(104.0173957 -3.174995041 0)
(103.9071029 -3.867292537 0)
(103.6095324 -4.575097436 0)
(103.1977517 -5.338900836 2.055228707e-19)
(102.7277176 -6.050303663 -1.133235179e-19)
(100.5536753 -6.553566361 0)
(97.15619494 -7.130620334 0)
(99.5704311 -7.398758742 1.848635471e-19)
(98.79231048 -7.203036998 -2.604095104e-19)
(98.10880953 -6.63577572 2.745468761e-20)
(97.61606517 -5.910087105 0)
(97.25639662 -5.13216958 0)
(97.00427695 -4.354417151 0)
(96.76877718 -3.48424639 0)
(96.71223604 -2.796795746 0)
(96.4940855 -1.956623836 0)
(96.41995929 -1.377359796 0)
(96.37144633 -0.8156607044 0)
(96.34350221 -0.2702653914 0)
(104.8694722 -0.2640010225 0)
(104.8608506 -0.7968621088 0)
(104.8458665 -1.340991702 0)
(104.8143436 -1.884008775 0)
(104.663553 -2.377088447 0)
(104.6302208 -2.972411426 0)
(104.5410689 -3.581323371 0)
(104.260944 -4.186398232 0)
(103.8360174 -4.806450499 0)
(103.3270897 -5.396334759 0)
(97.7704107 -5.500577158 -8.013157008e-21)
(99.96770656 -6.24656009 0)
(99.35627971 -6.259711319 -1.031038082e-19)
(98.37148087 -6.074481415 6.712279145e-22)
(97.5821702 -5.692814303 0)
(97.00339181 -5.177003173 0)
(96.60048316 -4.580453558 0)
(96.35106432 -3.95500624 0)
(96.15145276 -3.214046301 0)
(96.11964387 -2.609869039 0)
(95.94814114 -1.837887815 0)
(95.89707497 -1.303071913 0)
(95.86345209 -0.7735707743 0)
(95.84412932 -0.2568748263 0)
(105.3551209 -0.2489134187 0)
(105.3515247 -0.749565855 0)
(105.3446445 -1.259774875 0)
(105.3262454 -1.759512253 0)
(105.1958312 -2.215786433 0)
(105.1732865 -2.748165571 0)
(105.0837505 -3.282515476 0)
(104.8000173 -3.793918415 0)
(104.345541 -4.298266889 0)
(103.754495 -4.754686602 0)
(97.52477975 -4.777607162 0)
(100.2934716 -5.353335844 0)
(99.2750905 -5.354784148 0)
(98.12882322 -5.212353485 0)
(97.210174 -4.928306668 0)
(96.53763939 -4.535551597 0)
(96.08169131 -4.068263057 0)
(95.81199268 -3.559993535 0)
(95.62040785 -2.930802972 0)
(95.5940976 -2.404575244 0)
(95.44982661 -1.704344881 0)
(95.41233029 -1.216117116 0)
(95.38762163 -0.7234918031 0)
(95.3738635 -0.2406662455 0)
(105.8095133 -0.2322460231 0)
(105.8088114 -0.6976142902 0)
(105.8055792 -1.171013352 0)
(105.7932571 -1.627157437 0)
(105.6757231 -2.044601351 0)
(105.6511715 -2.517778552 0)
(105.5461676 -2.985367746 0)
(105.2475813 -3.416862529 0)
(104.7553275 -3.830823042 0)
(104.0518861 -4.187118433 0)
(97.52005471 -4.175592484 0)
(100.4039686 -4.632947641 0)
(99.22231035 -4.622029034 -2.487080708e-35)
(97.94750389 -4.505528377 0)
(96.92599289 -4.284550708 0)
(96.17455661 -3.977466511 0)
(95.66547016 -3.60459766 0)
(95.36456058 -3.186871759 0)
(95.16466005 -2.65133564 0)
(95.13086438 -2.194748275 0)
(94.9993145 -1.565213318 0)
(94.96782743 -1.123002991 0)
(94.94717126 -0.6693445749 0)
(94.9366269 -0.2230594005 0)
(106.2306273 -0.2149045443 0)
(106.2310811 -0.6438690073 0)
(106.2280128 -1.079555754 0)
(106.216195 -1.493362428 0)
(106.1056553 -1.872244867 0)
(106.0704037 -2.291617619 0)
(105.9407639 -2.698299642 0)
(105.6212047 -3.065721174 0)
(105.0893263 -3.409086951 0)
(104.2637643 -3.691514471 0)
(97.59093671 -3.667836684 0)
(100.4563103 -4.038635824 0)
(99.17041999 -4.017260163 0)
(97.80180941 -3.917570528 0)
(96.70196126 -3.739632123 0)
(95.88532445 -3.493634895 0)
(95.32675085 -3.190999123 0)
(94.99060578 -2.844386959 0)
(94.77278219 -2.386353431 0)
(94.72362777 -1.99001166 0)
(94.59460099 -1.427060522 0)
(94.56341522 -1.028720148 0)
(94.54312827 -0.6141494963 0)
(94.5339241 -0.2050542061 0)
(106.618032 -0.1975850252 0)
(106.6182951 -0.5904845181 0)
(106.6128523 -0.9890313424 0)
(106.5974461 -1.362819658 0)
(106.48943 -1.704797993 0)
(106.4379203 -2.075876096 0)
(106.279793 -2.429232948 0)
(105.9353877 -2.744371688 0)
(105.3653464 -3.032547863 0)
(104.4146255 -3.258826417 0)
(97.71344824 -3.237226546 0)
(100.478725 -3.539504246 0)
(99.11901148 -3.51080311 -3.651261688e-35)
(97.68067047 -3.423269102 0)
(96.52056934 -3.276065211 0)
(95.65042381 -3.074800103 0)
(95.0474581 -2.825356985 0)
(94.67638153 -2.535133944 0)
(94.43438765 -2.141538834 0)
(94.36573639 -1.796283227 0)
(94.23236534 -1.294404999 0)
(94.19745378 -0.9368516284 0)
(94.17493814 -0.5600862334 0)
(94.16566406 -0.187361063 0)
(106.9724937 -0.1808000671 0)
(106.9715582 -0.5390069013 0)
(106.9619744 -0.9020000925 0)
(106.9401389 -1.238763215 0)
(106.8313781 -1.546271041 0)
(106.760287 -1.874503396 0)
(106.5720643 -2.182189925 0)
(106.2020424 -2.454047572 0)
(105.5963067 -2.698584572 0)
(104.5218446 -2.881422224 0)
(97.87029979 -2.869436919 0)
(100.4830972 -3.116209771 0)
(99.06857408 -3.082501453 0)
(97.57745488 -3.00438378 0)
(96.37040573 -2.880038736 0)
(95.45635838 -2.712402724 0)
(94.81426569 -2.503939637 0)
(94.40988019 -2.25847068 0)
(94.14126939 -1.918702996 0)
(94.05085119 -1.616905964 0)
(93.90871746 -1.170142805 0)
(93.86743059 -0.8497845178 0)
(93.84095783 -0.5086345495 0)
(93.83059302 -0.1704677784 0)
(107.2955829 -0.1649121488 0)
(107.2927229 -0.4905029261 0)
(107.2778317 -0.8201882149 0)
(107.247707 -1.123262953 0)
(107.1359073 -1.399142614 0)
(107.0435451 -1.689705224 0)
(106.8252037 -1.958511834 0)
(106.430398 -2.194297155 0)
(105.7914323 -2.403851138 0)
(104.598093 -2.55273464 0)
(98.04751414 -2.55365186 0)
(100.4756513 -2.755041101 0)
(99.01953188 -2.718059798 1.332736315e-35)
(97.48793786 -2.647550135 0)
(96.24384571 -2.540780846 0)
(95.29364806 -2.399038203 0)
(94.61734488 -2.222677903 0)
(94.18193811 -2.013096218 0)
(93.88628895 -1.718359935 0)
(93.77326859 -1.453550919 0)
(93.61966989 -1.055963183 0)
(93.57038927 -0.7690048477 0)
(93.53887965 -0.4607447406 0)
(93.52671199 -0.154694429 0)
(107.5893881 -0.1501623779 0)
(107.5841076 -0.4456631082 0)
(107.5632048 -0.7446822378 0)
(107.5236706 -1.017514186 0)
(107.4072918 -1.264735844 0)
(107.2930751 -1.522396707 0)
(107.0455834 -1.758177538 0)
(106.6276786 -1.963758792 0)
(105.9575491 -2.144863014 0)
(104.6526559 -2.267061003 0)
(98.23461447 -2.281668836 0)
(100.4600897 -2.445823539 0)
(98.97213629 -2.406865374 0)
(97.40923811 -2.342676978 0)
(96.13558925 -2.2497803 0)
(95.15545639 -2.128387328 0)
(94.44932599 -1.977556014 0)
(93.98540858 -1.797055374 0)
(93.66335021 -1.540092364 0)
(93.52787592 -1.306752062 0)
(93.36133684 -0.9526848939 0)
(93.30318129 -0.6953476036 0)
(93.26602841 -0.4169760644 0)
(93.2515864 -0.1402348436 0)
(107.8563308 -0.1366958527 0)
(107.8483124 -0.4048864193 0)
(107.8210357 -0.6760897224 0)
(107.7715088 -0.9220980963 0)
(107.649505 -1.143632134 0)
(107.5135821 -1.372708675 0)
(107.2384909 -1.58047852 0)
(106.7995282 -1.760676047 0)
(106.0998966 -1.918378186 0)
(104.6922899 -2.019547785 0)
(98.42425517 -2.047171414 0)
(100.438875 -2.180874764 0)
(98.92651618 -2.140891469 0)
(97.33929738 -2.082047055 0)
(96.04183789 -2.000314192 0)
(95.03676105 -1.895174495 0)
(94.30461986 -1.764892305 0)
(93.81469818 -1.608153754 0)
(93.46740556 -1.382967688 0)
(93.3101985 -1.176366003 0)
(93.13001292 -0.8605434649 0)
(93.06261023 -0.6291849641 0)
(93.01954347 -0.3776001972 0)
(93.00253672 -0.127188263 0)
(108.0990329 -0.1245867925 0)
(108.0880887 -0.3683593333 0)
(108.0543126 -0.6146733682 0)
(107.99458 -0.8371681012 0)
(107.866267 -1.035876251 0)
(107.7092393 -1.240250293 0)
(107.4083978 -1.424311903 0)
(106.9504371 -1.583126789 0)
(106.2226772 -1.721449305 0)
(104.7219259 -1.806071121 0)
(98.61167333 -1.8454022 0)
(100.4137173 -1.954266754 0)
(98.88268684 -1.913893037 0)
(97.2765539 -1.859594567 0)
(95.95975199 -1.786963757 0)
(94.93375058 -1.694959461 0)
(94.17886812 -1.581364735 0)
(93.66530444 -1.444151344 0)
(93.29417854 -1.245744914 0)
(93.11625892 -1.061814007 0)
(92.92221543 -0.7793929126 0)
(92.84552761 -0.570570574 0)
(92.79650041 -0.3426868935 0)
(92.7767673 -0.1155867671 0)
(108.3201597 -0.1138622282 0)
(108.3061931 -0.3361281626 0)
(108.2659465 -0.5604718531 0)
(108.1960381 -0.7626233082 0)
(108.0609744 -0.9412121645 0)
(107.8837023 -1.124369656 0)
(107.5590607 -1.288422579 0)
(107.0840089 -1.429225015 0)
(106.3293211 -1.551466011 0)
(104.7451743 -1.623130237 0)
(98.79406572 -1.672690396 0)
(100.3857844 -1.761320366 0)
(98.84057526 -1.720949786 0)
(97.21978138 -1.670520431 0)
(95.88715484 -1.605368809 0)
(94.84347661 -1.524057903 0)
(94.06862326 -1.424082195 0)
(93.53356174 -1.302936234 0)
(93.14006732 -1.127099474 0)
(92.94256525 -0.9623150166 0)
(92.73473996 -0.7088793546 0)
(92.64893373 -0.5193633059 0)
(92.59403866 -0.3121796292 0)
(92.57150572 -0.1054201148 0)
(108.5224396 -0.1045165951 0)
(108.5054076 -0.3081464207 0)
(108.4588068 -0.5133798523 0)
(108.3789048 -0.6981936409 0)
(108.2367419 -0.8592158757 0)
(108.0402111 -1.024306418 0)
(107.6935683 -1.171406043 0)
(107.2032389 -1.29720672 0)
(106.4226806 -1.406103765 0)
(104.7646843 -1.467693255 0)
(98.97002216 -1.525952302 0)
(100.3559114 -1.598174518 0)
(98.80006061 -1.558076216 0)
(97.16798107 -1.510944854 0)
(95.82231672 -1.451963294 0)
(94.76358482 -1.379385574 0)
(93.97108295 -1.290546807 0)
(93.41636131 -1.182640425 0)
(93.00198814 -1.025771882 0)
(92.78601706 -0.8770136284 0)
(92.56458392 -0.6485249968 0)
(92.46994279 -0.4753071685 0)
(92.40934572 -0.2859440452 0)
(92.38399026 -0.09665084332 0)
(108.7083137 -0.09653244191 0)
(108.6882231 -0.2843276574 0)
(108.6354361 -0.4732123945 0)
(108.5458105 -0.6436014629 0)
(108.3964125 -0.7893795909 0)
(108.1816826 -0.9392804706 0)
(107.8146116 -1.071595374 0)
(107.3105376 -1.185594768 0)
(106.5051252 -1.28335985 0)
(104.7823739 -1.337206013 0)
(99.13902256 -1.402656791 0)
(100.3247475 -1.461697299 0)
(98.76101581 -1.422061414 -2.288802155e-36)
(97.12032773 -1.377738464 0)
(95.76383176 -1.323841193 0)
(94.69215945 -1.258380372 0)
(93.88396432 -1.178632131 0)
(93.3112723 -1.081844126 0)
(92.87712633 -0.9407446105 0)
(92.64383253 -0.8050310474 0)
(92.4091436 -0.5978668454 0)
(92.3060055 -0.4380929632 0)
(92.2399108 -0.263817829 0)
(92.2117556 -0.08923370804 0)
(108.8810283 -0.0898650476 0)
(108.8578434 -0.2645337285 0)
(108.798997 -0.439741887 0)
(108.6999233 -0.5983455439 0)
(108.5426416 -0.7311965059 0)
(108.3107475 -0.8684127701 0)
(107.9251476 -0.9883199789 0)
(107.4078452 -1.092870994 0)
(106.578664 -1.181499672 0)
(104.7996206 -1.229541314 0)
(99.30114937 -1.300846937 0)
(100.2927925 -1.349408155 0)
(98.72330876 -1.310347287 0)
(97.07612176 -1.268395455 0)
(95.71052643 -1.218652038 0)
(94.62759749 -1.158929189 0)
(93.80534646 -1.086497459 0)
(93.21629906 -0.9988301792 0)
(92.76300765 -0.8708202374 0)
(92.51351173 -0.7455534833 0)
(92.26541152 -0.5562904855 0)
(92.1541182 -0.4073919292 0)
(92.08269059 -0.2456020634 0)
(92.05171878 -0.08310247587 0)
(109.0404713 -0.08453857408 0)
(109.0143376 -0.2487558059 0)
(108.9496502 -0.412802884 0)
(108.8414915 -0.5626961584 0)
(108.6778269 -0.6840550494 0)
(108.4297334 -0.8108755608 0)
(108.0275124 -0.9218790238 0)
(107.4971118 -1.017554847 0)
(106.6451102 -1.099033079 0)
(104.8174365 -1.142929688 0)
(99.45686837 -1.218950319 0)
(100.2604266 -1.259289209 0)
(98.6867975 -1.220880721 0)
(97.03474424 -1.18090476 0)
(95.66138068 -1.134496986 0)
(94.56849621 -1.079304597 0)
(93.73347115 -1.012603215 0)
(93.12913504 -0.9316471943 0)
(92.65776692 -0.8145416762 0)
(92.39270556 -0.6976246592 0)
(92.13296477 -0.5238506564 0)
(92.0138758 -0.3829265407 0)
(91.93734355 -0.2312165096 0)
(91.90370598 -0.07825566689 0)
(109.1987696 -0.08034759698 0)
(109.1692288 -0.2365907846 0)
(109.0984453 -0.3920230786 0)
(108.9803396 -0.5337971376 0)
(108.8050511 -0.6477230969 0)
(108.5406624 -0.7665354709 0)
(108.1227748 -0.8711257503 0)
(107.5801948 -0.9589002787 0)
(106.706083 -1.034789516 0)
(104.8365659 -1.075941036 0)
(99.60679155 -1.155668989 0)
(100.2279982 -1.189755994 0)
(98.65135021 -1.152069264 0)
(96.9956446 -1.113703936 0)
(95.61549815 -1.069894972 0)
(94.51362608 -1.018160672 0)
(93.66680102 -0.9558119869 0)
(93.04798158 -0.880021019 0)
(92.55949508 -0.771422278 0)
(92.27949474 -0.6614908156 0)
(92.00297696 -0.4978964902 0)
(91.87546873 -0.3643139499 0)
(91.79366834 -0.2202531748 0)
(91.75694041 -0.07448718225 0)
(109.3206054 -0.07791010613 0)
(109.2889057 -0.2291617747 0)
(109.2134434 -0.3788170331 0)
(109.0889101 -0.5185824414 0)
(108.9233184 -0.6213876576 0)
(108.6452094 -0.7345743126 0)
(108.2125963 -0.8349863045 0)
(107.6584644 -0.9160860399 0)
(106.762999 -0.9878137125 0)
(104.8575969 -1.027475897 0)
(99.75168646 -1.110102339 0)
(100.1958147 -1.139668004 0)
(98.61682133 -1.102719674 0)
(96.95830872 -1.065605921 0)
(95.57206336 -1.023713314 0)
(94.46188377 -0.9744615484 0)
(93.60398827 -0.9152132093 0)
(92.97138201 -0.843079745 0)
(92.46649664 -0.7408887581 0)
(92.17236648 -0.6361410328 0)
(91.90026708 -0.4842764528 0)
(91.76729967 -0.3525712288 0)
(91.68146242 -0.2136352225 0)
(91.64285534 -0.07234953372 0)
(109.5498004 -0.07507197898 0)
(109.5133957 -0.2219471275 0)
(109.4288573 -0.3666800077 0)
(109.2872781 -0.4982917894 0)
(109.0326184 -0.6059773702 0)
(108.740232 -0.7153257061 0)
(108.2947202 -0.8137905176 0)
(107.7331139 -0.8883728593 0)
(106.8171561 -0.957284935 0)
(104.8810562 -0.9968191276 0)
(99.8920251 -1.08184993 0)
(100.1641459 -1.108263898 0)
(98.58309125 -1.071996841 0)
(96.92228308 -1.035767784 0)
(95.53035587 -0.9951415793 0)
(94.41228673 -0.9474640318 0)
(93.54381195 -0.8901362401 0)
(92.89793022 -0.8204132591 0)
(92.38117215 -0.7227789856 0)
(92.07495172 -0.6213605102 0)
(91.71321306 -0.4667199145 0)