/*--------------------------------*- C++ -*----------------------------------*\
| =========                 |                                                 |
| \\      /  F ield         | OpenFOAM: The Open Source CFD Toolbox           |
|  \\    /   O peration     | Version:  v1912                                 |
|   \\  /    A nd           | Website:  www.openfoam.com                      |
|    \\/     M anipulation  |                                                 |
\*---------------------------------------------------------------------------*/
FoamFile
{
    version     2.0;
    format      ascii;
    class       volScalarField;
    location    "0.01";
    object      k;
}
// * * * * * * * * * * * * * * * * * * * * * * * * * * * * * * * * * * * * * //

dimensions      [0 2 -2 0 0 0 0];


internalField   nonuniform List<scalar> 
12556
(
36.9068806
36.90689389
36.90693041
36.90716833
36.95417371
36.95474671
36.95544162
36.95701235
36.96008075
36.96541583
36.97323102
36.98202881
36.98815644
36.98855541
36.98323492
36.97508924
36.9674328
36.96153265
36.95811434
36.9559662
36.90825713
36.90728374
36.90687646
36.90662138
36.72945301
36.7296452
36.72986069
36.72999138
36.77347509
36.77576488
36.77974079
36.80809745
36.82220383
36.84685639
36.88324621
36.92494121
36.95611147
36.96093174
36.93876596
36.90094319
36.86370988
36.83508399
36.79497184
36.78301363
36.73377883
36.73140402
36.73007033
36.7293529
36.55558761
36.55614234
36.55664722
36.55682022
36.59502305
36.59976399
36.60933784
36.64739535
36.68158233
36.739952
36.82316638
36.91167678
36.96708386
36.97517821
36.93545313
36.85914592
36.7751966
36.71116997
36.64356253
36.61730486
36.56707193
36.56141721
36.55848163
36.55718855
36.3711129
36.37168071
36.3725523
36.37437736
36.42107917
36.43123473
36.45093329
36.5059577
36.57702058
36.69917159
36.84294406
36.97202864
37.05155599
37.05938288
36.99809177
36.88719486
36.75361938
36.62729964
36.51847773
36.46835783
36.39455197
36.38379238
36.37827568
36.37598284
36.17540836
36.1759579
36.17748318
36.18244724
36.2449969
36.26497892
36.30242606
36.38820791
36.52871804
36.72753646
36.94905454
37.15940256
37.28694201
37.28903683
37.17424038
36.9951343
36.79777739
36.6108839
36.4263945
36.33391349
36.22017709
36.19817813
36.18813321
36.18416487
35.97816629
35.97891044
35.98168882
35.99072248
36.06434138
36.09861964
36.16534326
36.29900222
36.52437612
36.81587828
37.18415688
37.60510456
37.87944108
37.8433097
37.54752639
37.22497424
36.91514899
36.6411006
36.37145167
36.21298536
36.05458406
36.0141199
35.99716949
35.99058016
35.78819406
35.78951692
35.79433465
35.80838463
35.8890396
35.94169811
36.04961738
36.24814489
36.55908261
36.98423874
37.61309236
38.66544465
39.45954422
39.23554747
38.26800528
37.62301656
37.12163465
36.72278078
36.36432905
36.11909789
35.90375946
35.83996722
35.81309892
35.80269842
35.60835232
35.61049928
35.61798399
35.63893937
35.72741978
35.80205663
35.96077422
36.2300119
36.63171954
37.21979278
38.21916114
40.47691328
41.69498846
39.48258342
38.22121493
37.42964584
36.86308879
36.38639403
36.05614392
35.77084183
35.67808379
35.63827277
35.62292653
35.43822751
35.44179361
35.45312286
35.48266408
35.57825735
35.67924218
35.89226003
36.22584878
36.71980269
37.45716445
38.74054281
42.01622733
45.74056986
41.01924257
38.96278963
37.81269067
37.0468887
36.43423344
36.01975242
35.6542422
35.52825629
35.47268075
35.45136844
35.27633952
35.28132432
35.29651004
35.3352119
35.43980249
35.56980093
35.83660845
36.22750769
36.80647505
37.65866619
39.09974433
42.55799939
48.72703914
42.43925027
39.71619026
38.21655645
37.25013289
36.49779714
36.00057199
35.55286412
35.39031306
35.31681078
35.28856517
35.12253691
35.12962938
35.15008795
35.19975031
35.31087161
35.47112961
35.78938888
36.23296714
36.88940492
37.83703199
39.41514788
42.46574934
50.23825164
43.51448443
40.37414813
38.59134858
37.44771894
36.56526977
35.99174173
35.46354425
35.26468293
35.17217655
35.13635097
34.97589171
34.98486755
35.00992112
35.06953128
35.19073326
35.38038173
35.74657216
36.24126777
36.96966562
38.01221817
39.742835
42.12578975
50.90561902
44.242679
40.88800353
38.90590254
37.62049671
36.62579474
35.98545793
35.38610131
35.15106478
35.04013224
34.99640091
34.83654967
34.84799763
34.87957335
34.95069886
35.0772019
35.29435938
35.7023339
36.2490628
37.04715635
38.18980604
40.08267877
41.60197878
49.2577516
50.84498841
44.70996312
41.25180765
39.14189575
37.75461775
36.67102547
35.97333287
35.31573806
35.04874315
34.92042059
34.86924962
34.70355263
34.71729992
34.75457514
34.83444569
34.97579354
35.22776774
35.68216406
36.27057561
37.14424032
38.40503027
40.45317609
40.23618824
56.38215335
50.83999862
44.96577083
41.46732971
39.29403974
37.84329869
36.69769033
35.95162562
35.24658639
34.95520711
34.81151181
34.75363843
34.57551244
34.59146992
34.63400375
34.72192493
34.87316874
35.1491621
35.63484316
36.267084
37.20731427
38.56833455
40.67922254
36.17827864
54.79798715
50.35437103
44.90967135
41.52291936
39.36009708
37.88542238
36.69826748
35.91498003
35.17631802
34.86657314
34.70988677
34.64647894
34.45095694
34.4689769
34.51599451
34.6112479
34.77182375
35.06672649
35.57784308
36.24618714
37.25326179
38.69976523
40.68523203
30.81136419
52.41594727
49.42415529
44.64324353
41.45535889
39.34376547
37.87607083
36.66716864
35.85886303
35.09878485
34.77703302
34.61159028
34.54379529
34.32820905
34.34807133
34.39869643
34.50052183
34.66990623
34.97944744
35.50934023
36.20359902
37.25828884
38.75876159
40.32945241
25.20665144
50.28799617
48.37650928
44.18036243
41.26897356
39.2628876
37.81775694
36.59420065
35.78326057
35.01350341
34.68474244
34.5125212
34.44125931
34.20594007
34.22733131
34.28073344
34.38824162
34.5657367
34.88613664
35.42913507
36.13879327
37.21798477
38.69959901
39.74290024
21.26149201
48.12551738
47.3641148
43.66613605
40.99951575
39.10434504
37.70205597
36.48879385
35.68494064
34.91544815
34.58378092
34.40937588
34.3356384
34.08307085
34.1057373
34.16124837
34.27345647
34.4578389
34.78589045
35.33783238
36.05695149
37.13968752
38.53549506
38.93647118
17.98114459
46.1300421
46.4126594
43.17113104
40.70458283
38.90480925
37.55035109
36.36023615
35.5693503
34.80618637
34.47446218
34.29941501
34.22456723
33.95892064
33.9825902
34.03972272
34.15575486
34.34581194
34.67948602
35.23763192
35.96205862
37.03990249
38.31734424
37.97857908
15.81249606
44.32375764
45.52354786
42.70870364
40.40609051
38.68785851
37.37774517
36.21520483
35.43976284
34.68658754
34.35687476
34.18228377
34.10698042
33.8331401
33.85763593
33.91605961
34.03512412
34.2299279
34.56822601
35.1310252
35.85872328
36.92552918
38.06147028
36.90013077
14.91325967
42.78944253
44.70143581
42.27814365
40.11631451
38.46618885
37.19346168
36.05865473
35.29952275
34.55826703
34.23189165
34.05820788
33.98288662
33.70572187
33.73086628
33.79039512
33.91181825
34.11065276
34.45306461
35.01927069
35.74863334
36.79540044
37.75718457
35.80083197
14.56863958
41.45302922
43.95068043
41.87471443
39.83740308
38.24466034
37.00348984
35.89507768
35.1518661
34.42326309
34.1008836
33.92811656
33.85295184
33.57681937
33.60245622
33.66297965
33.78629378
33.98851614
34.33460778
34.90283468
35.63148374
36.6478493
37.41484858
34.74076913
14.35152591
40.24741282
43.25365943
41.49137024
39.57050781
38.02678225
36.81286759
35.72813861
34.99955213
34.28352843
33.96528621
33.79326123
33.71823372
33.44667587
33.47270127
33.53417674
33.65907663
33.8641296
34.21344624
34.7824052
35.50757281
36.48439097
37.04881521
33.74787714
14.10240517
39.145507
42.595955
41.12151161
39.31446026
37.8148461
36.6247278
35.56015024
34.84459706
34.14066776
33.82633026
33.65479221
33.57983727
33.31563251
33.34199208
33.40441211
33.53072314
33.73811163
34.09023897
34.65898425
35.37800625
36.30709523
36.66682367
32.82597785
13.87010888
38.13276659
41.96897236
40.7613056
39.06632732
37.60897342
36.44008005
35.39247725
34.68844675
33.9958763
33.68502573
33.51374242
33.43875527
33.18393455
33.21062897
33.27399862
33.40166912
33.61102163
33.96561048
34.53350332
35.24386513
36.11735682
36.27696202
31.97064319
13.68468931
37.19574343
41.36947546
40.40909128
38.82379744
37.40838865
36.25896272
35.22595285
34.53213499
33.85003057
33.54220806
33.37099617
33.29589413
33.0522198
33.07924409
33.14356233
33.27253452
33.48339465
33.84013323
34.40662751
35.10583201
35.91661357
35.88442887
31.17781293
13.54653769
36.32467075
40.79425597
40.06412376
38.58561208
37.21231623
36.08125458
35.06108528
34.37635438
33.70386422
33.39863514
33.22736412
33.15206373
32.91979077
32.94712287
33.01241106
33.14292847
33.3556422
33.71427735
34.27877815
34.96421077
35.70693993
35.49238695
30.44339391
13.44766118
35.51269152
40.24273057
39.72584818
38.35106213
37.02010813
35.90680704
34.89815338
34.22153575
33.55756465
33.25445513
33.08299567
33.00740907
32.78993515
32.81754737
32.88370483
33.01527138
33.22812224
33.5883898
34.15021365
34.8191861
35.49021193
35.1031116
29.76298305
13.37597717
34.75314983
39.71101724
39.3938166
38.11974369
36.83128234
35.735474
34.73731859
34.06796031
33.41238115
33.11129358
32.93960986
32.86367675
32.65452044
32.68249908
32.74980394
32.88384823
33.10098453
33.46273594
34.02107711
34.67094339
35.26789351
34.71810206
29.13176096
13.32447423
34.04021888
39.19643408
39.06761995
37.89136308
36.64545031
35.56706944
34.57864254
33.91579641
33.2655345
32.96550768
32.79342295
32.71704982
32.53348046
32.56173873
32.62967727
32.76321914
32.97459295
33.33753097
33.89148607
34.51974868
35.0418118
34.33839383
28.54525047
13.28707503
33.36914867
38.69677973
38.74688446
37.66567123
36.46228943
35.40139906
34.42214051
33.76512747
33.12586911
32.82840455
32.6561106
32.57935354
32.38676882
32.4154998
32.48491001
32.62328048
32.84902404
33.21298554
33.76154769
34.36594907
34.81350734
33.96474091
27.99954628
13.25952195
32.73631966
38.211802
38.43132557
37.44247862
36.28154242
35.23827398
34.26783994
33.61617909
32.97196543
32.67326696
32.50024139
32.42293457
32.28324985
32.31224871
32.38214327
32.51809565
32.72414056
33.08926327
33.63139959
34.20988333
34.58391645
33.59758737
27.4900594
13.24092518
32.13860903
37.74083849
38.12073297
37.22161341
36.10297632
35.0774911
34.11583669
33.4688069
32.84925722
32.55501578
32.38190898
32.30420938
32.12402161
32.15355189
32.22486391
32.36571673
32.60188611
32.96678941
33.50132738
34.05194457
34.35343291
33.23727055
27.01317658
13.22922285
31.57406689
37.28364181
37.81496074
37.00296496
35.92642349
34.91893283
33.96646286
33.32419595
32.67816355
32.38144322
32.20754198
32.12919464
32.03498337
32.06481118
32.13686901
32.27793227
32.48019274
32.84662055
33.37252865
33.89247055
34.12255879
32.88419949
26.56564077
13.22410533
31.04174706
36.84045432
37.51400378
36.7864545
35.75174509
34.76245953
33.82089053
33.18199313
32.5783012
32.28327233
32.10899847
32.03028577
31.83359885
31.86416742
31.93805876
32.08370159
32.36574415
32.73131217
33.24907106
33.73220943
33.89287075
32.54161196
26.14638594
13.22542298
30.54355072
36.41553105
37.21981627
36.57274645
35.57918579
34.60808855
33.68328314
33.04822836
32.36098509
32.06475657
31.88955475
31.80999608
41.89600636
46.15635669
42.03108364
42.54107284
49.49766578
46.58444741
42.49489181
51.14432094
49.78936667
42.18159333
51.83584813
51.2597906
41.64172305
45.12722921
48.37302609
52.28435126
51.87711389
40.67905788
54.34507936
45.54526195
56.08584725
52.82721008
52.32420821
40.19768309
39.36240426
41.65068657
39.19988096
48.79662321
43.26307841
45.27467403
41.37208062
39.94468688
39.01837905
41.83910119
41.24919207
54.03175491
54.329809
48.44476892
43.15586605
41.84854541
39.33596026
42.02724548
41.88948611
42.56853725
43.98127604
44.79888569
53.76753306
53.22020199
50.1130839
44.46698796
43.53265141
39.67040228
41.95705384
42.02581021
42.36015851
41.06256698
42.65741126
54.78834735
54.23578127
40.00661437
41.72421166
41.94022239
41.92575126
37.05851826
39.12367084
39.57249541
55.45557624
55.19634286
40.38451286
41.15834767
41.6765863
41.26779755
32.06406506
34.15722475
39.13248275
54.11028797
54.63097369
45.49084863
46.8588849
42.40038383
45.18432267
54.16305132
49.08225629
44.31935502
48.33984311
52.91054996
44.90062432
45.55261897
42.41202259
46.0655123
44.97319764
46.85719438
46.19704171
53.25927831
53.91697829
48.2133451
54.4840298
54.20248461
53.13753937
54.5061312
47.98574711
42.80961166
43.8459268
42.55916164
43.5934263
42.11228349
44.90370287
43.6857366
54.13371194
53.82502109
50.6952152
54.66050836
54.83969297
54.19091916
54.61673499
50.51355502
39.23713458
40.9613138
42.32001621
40.17871819
38.07188818
42.01299321
40.29446844
55.16229447
54.84677115
34.29647848
36.90580138
41.89494079
39.72755113
35.30775965
32.84522645
37.9497059
35.48654671
39.9728146
55.87828347
55.49801
39.68517381
39.92680565
31.99014103
41.21676687
51.60851832
31.99401914
70.02558658
32.75921971
31.99314245
51.01578335
38.62979476
41.14182407
39.929749
41.22513692
44.40370461
42.0660788
56.67943429
45.13258628
42.33097806
45.63518794
45.92488208
43.29811254
50.864539
45.3125109
44.72055078
46.57120154
50.75882662
49.55541147
53.56318224
56.15309473
55.96829155
45.82864036
44.64390831
41.42666263
51.03687233
43.93661014
49.43958363
42.96770669
47.52490989
43.76071197
49.22269866
46.13640552
51.63910684
55.03017797
55.14177373
54.85107199
55.01121035
51.56715601
41.0383304
43.22127765
47.88848506
40.79305168
40.39351493
42.05668921
42.89455189
40.86587045
40.86128673
60.19561491
46.22803457
56.35321069
44.51452071
53.67794105
45.50704043
54.75807889
54.77451574
53.46972566
53.43445763
41.51011646
42.44241984
54.59329568
41.7634462
44.66367612
43.61410451
41.68314469
54.53114294
38.18308711
41.56935511
41.27176815
52.91477619
51.39254767
43.7207992
33.20350615
39.57611681
39.08060646
40.18784583
39.74849524
33.3758322
54.2914628
51.38863324
46.19060416
51.60722471
52.51645608
48.25535453
51.34902782
46.3825296
43.67166959
47.6105109
43.43870698
51.96531406
48.21048669
44.10675876
49.9741814
54.16207502
52.08886391
51.73173369
45.54557949
42.50595722
45.47539894
46.66018575
45.23506555
47.82807528
42.82429978
44.88984532
46.55682811
53.6553686
53.71887196
54.34407493
51.66922384
51.06493686
52.29848287
51.84254039
54.32189585
54.25928998
49.76660139
48.80545637
50.83721509
50.05513015
54.35755077
42.91779082
42.82205535
44.37349248
44.29644504
54.20550813
44.01902819
54.16171383
39.34604991
39.20124865
41.21425751
41.09773361
45.20498624
48.61760853
55.00307177
45.50299229
41.75296512
35.90296979
40.71715103
40.32812558
41.16799866
40.83604792
36.02971081
40.39253355
34.51192128
34.41571263
37.08967241
36.96196277
47.49118564
42.79767588
54.34166334
53.33014278
38.88880656
38.42563863
31.68363519
33.54557525
42.0680554
41.01469328
32.28334426
58.19382678
41.00701244
52.18088462
32.21278513
48.78243813
41.85254938
40.71184835
54.500036
39.98377889
39.85051504
40.63721872
40.65600818
41.06193803
39.71246893
32.37377116
40.61939217
55.59551
52.3074362
52.76681832
47.93200189
39.97032431
41.17682855
55.30917385
54.61900412
43.73757031
56.25102037
56.18526675
53.98265323
42.17929122
41.67925236
43.62274909
44.55073944
42.02494844
42.17413417
54.4288067
56.02244823
55.25020138
54.67446903
53.59808385
46.38050978
47.09612521
48.1622383
47.46429922
53.19132071
41.78238446
42.83766334
42.63222623
43.09521215
42.90364488
41.89799171
41.93229105
41.66237557
38.30428302
32.36870214
36.49311574
36.0726406
62.48881734
47.41134651
54.65304329
53.40946875
56.80427231
56.2241616
50.52125182
46.906244
45.62547696
48.45319973
47.31256306
50.84533992
53.40441567
49.2160275
48.44544332
53.75587839
43.27109654
43.32606773
43.15569191
39.1205791
39.54448137
42.42170234
47.37057044
47.70984214
53.9701676
54.7623038
53.24162552
53.10983025
54.27821228
52.7500035
52.42435452
53.05697011
52.83620937
54.29758486
40.11363955
42.26140648
42.01754832
42.56119056
42.33897462
40.22963228
39.83115626
35.40735947
35.66835512
33.74725493
33.90153797
38.48474721
41.68085804
38.45383487
38.99610804
35.76572331
36.0485189
40.63994681
55.04245471
49.04049299
51.86701669
50.56784749
39.50615309
34.93897154
33.41778414
37.58481442
33.51165402
33.6963146
33.07486305
36.30283872
44.22436422
39.49049391
37.2194126
36.46332168
35.93729413
35.53060362
31.84912036
40.88222083
43.386854
53.19317735
32.02195384
75.91942254
43.72983824
42.3575098
47.54138485
32.54924473
32.05340629
51.44483682
50.07747733
50.58066168
43.72658065
43.93075233
41.65474872
40.26682831
46.81234773
49.48437395
49.39179312
45.92154227
52.73178657
45.94468022
53.0527788
46.58557687
41.11372305
40.11736614
47.65962082
42.41054249
44.6266226
43.08765404
39.92322719
42.65590645
44.14159497
50.93379464
39.96271156
42.55555431
55.72139291
39.70997093
39.75852877
40.55767309
39.8251552
50.36887739
60.86569738
51.70485318
48.70314658
55.03490545
52.36862927
48.12828885
45.63485306
49.60053384
53.92782298
53.39154819
54.57741171
54.73527923
55.01459633
54.19497677
46.87716064
46.4417238
53.54474764
46.2590424
46.83418073
45.37236905
46.00744942
47.03075999
53.23875279
47.37064978
47.00291414
41.16655075
41.28063318
42.52590947
51.53486027
50.88094129
42.48445323
49.61259356
48.56178825
50.62791563
49.92808348
42.1498905
40.10497461
44.2242868
42.37350668
37.08245149
36.62115956
32.56780454
33.70217938
37.59716416
37.21240595
53.23547057
52.81147924
52.46392435
48.55838632
49.00995967
47.70371413
48.36754449
52.71803814
50.13940797
49.04472918
48.84702882
49.08571727
49.07872495
50.35686786
50.61843389
46.69525799
47.47780085
52.90347571
53.26074282
56.5774225
56.39208644
53.08113084
57.35672078
57.91851841
57.77097439
56.99712256
55.82160104
58.0767311
56.94174107
50.59475213
55.29253287
56.58066954
41.39439996
45.65123169
44.94234138
46.3249331
45.84423105
41.8374003
43.94928584
43.45289419
44.69514413
44.11990569
46.2791064
48.17567459
47.72708135
48.73008134
48.32069658
46.65346498
43.65318102
46.95903091
46.48642027
47.57511181
47.11468408
43.95515067
50.21702521
49.41206741
53.46411027
53.7739979
51.31128732
50.50866608
38.74349003
38.33198536
39.47338463
38.88837382
37.67463473
37.28281927
38.20171041
37.79561897
42.65057318
42.17266922
43.29195499
42.81391175
41.22718753
39.86399683
41.99864248
41.51290835
46.52325789
45.64380757
48.25025336
47.02048451
44.68832171
44.75094831
45.24193251
45.31921024
44.68055549
35.02729159
35.32053568
39.71421892
34.17790877
33.96954434
34.43253131
34.24430894
33.87808366
38.66015313
33.96546274
34.88329365
36.6634931
38.20328076
41.56832088
36.38344269
35.21834312
37.19293791
36.66186831
34.76484796
34.51466665
35.1453903
34.86196078
40.75428319
36.14641634
36.4738363
44.70760315
43.78092535
44.12421387
42.19918814
44.06003115
43.2095983
52.23322575
39.58539181
50.59862256
46.30610306
34.83745145
33.78137987
33.28475265
33.45763097
37.46155288
36.52486712
33.14052699
33.24188906
47.30724929
31.79411656
35.37102383
34.56962856
59.43193061
65.51813708
31.96544749
68.57213514
51.69618281
41.25332209
32.47017763
58.04984262
42.00545568
67.00402694
42.99921975
32.17160837
41.34882993
39.51488737
38.46352701
46.02839999
45.79293633
51.44999138
45.83940721
45.47288404
45.99496753
43.27930974
39.69458008
39.56852401
55.14397468
54.97867611
52.04785453
43.55563682
43.18034376
45.06391311
48.58358016
43.55258468
43.66579937
40.41200897
40.71358575
42.60834389
47.60429981
50.30781399
52.658544
44.35649552
43.68305172
43.56874727
43.79983136
43.71571181
44.47258175
46.53796323
44.85655741
39.78295686
52.35585705
53.45285233
55.33773593
38.08019073
37.71756547
33.82446035
53.3368033
54.97230449
50.25326105
43.52490647
43.37881946
43.41900098
43.3047134
40.84898655
41.39425653
41.65614126
42.44930254
43.96234251
35.03831263
38.56549424
38.19751671
42.49900353
41.28255024
39.55390031
32.5120771
32.53437852
32.95691155
40.65959424
48.22244933
44.87873251
40.62810006
48.81472986
47.02809325
31.99163552
32.68809376
32.48372301
32.50089267
31.99947801
56.98937413
43.45552294
40.01573073
40.59644566
46.26922512
40.97365217
42.44218247
50.84755965
50.45535364
45.18411241
43.84839021
45.35655287
48.09066453
40.12378576
40.53799594
53.49818274
55.11510889
56.37857015
49.11079972
54.1198512
41.77801297
42.03224004
44.0827299
58.07429937
54.52462027
52.52344492
60.99210594
59.00157474
41.32733442
41.50981554
41.16972034
44.13897857
43.50785938
41.87260925
52.32829534
51.75829014
42.94683728
43.54042731
42.53945218
42.56311434
41.74899143
39.60458396
39.78051439
54.04574597
54.66747265
51.90148863
51.91004052
51.12964237
50.97734012
48.70353952
49.48517607
49.18082774
50.8285027
50.64684052
51.01033123
45.52202877
46.44438228
50.18172751
51.16355829
55.15462938
52.3844885
55.44939397
55.74770924
53.74053905
40.15022098
41.79179671
41.35046866
44.72200009
44.53036999
42.311936
39.64941995
39.45911099
40.99880462
40.72066237
45.58207761
47.28870062
47.02348763
48.89796844
48.62629383
47.42337078
43.06284543
45.22077283
44.9952917
46.75610597
46.49603734
44.57190472
40.25797989
40.69700393
43.2112168
42.5196977
39.6828101
40.11502526
43.23405319
43.65564125
44.61148568
38.28904788
38.16591151
39.28442838
39.12950926
36.82134415
37.98075727
37.87617826
44.0458842
42.64129348
43.08778944
44.63639575
44.77178399
42.76317421
42.94731135
44.10898225
44.9348165
45.26038058
54.01323264
47.87346631
49.04466709
39.01766482
38.68202906
35.33513614
36.40351675
39.41376347
39.11713179
33.13146946
33.21061119
34.63497483
34.24654386
32.97532839
33.0803072
47.60877092
31.83495958
32.25657731
31.82380383
107.0328053
32.62562436
41.43318881
48.47750509
45.2298082
32.27157464
32.30584859
32.3313559
57.35666333
61.56996004
59.84362257
47.38311135
32.18567885
32.22891028
32.25282012
40.48470189
42.59393284
41.01166238
45.86751623
45.60203902
41.25216794
40.625252
39.84457983
49.84917764
49.74007306
53.05220888
40.18375185
44.82125424
42.74519551
45.16797134
44.58076284
40.50360505
42.96076082
43.38241083
46.10709906
52.65193701
52.89880362
52.27374979
52.47469591
55.77510843
55.4474788
55.61456617
55.10811026
55.28452535
55.50755523
47.90621352
48.86478134
49.02266831
48.63681249
48.7068027
47.74806617
56.57271704
55.91886496
55.88904278
55.75760644
55.87526039
56.38599606
48.87874868
49.56534297
49.7424857
49.20218414
49.37615712
48.66090564
51.74699837
51.91471213
51.27426393
51.41936926
35.48655038
37.30735679
37.1971039
33.80519256
34.666852
34.5810517
34.92416312
34.76760972
33.84876252
48.70816846
49.51439247
45.46463719
49.20655334
32.98797765
32.96408283
33.04718729
33.01744091
33.01209502
33.12909878
32.57262179
32.69131187
33.58035689
34.36024243
34.28197219
34.50777069
34.43331521
33.63470513
33.14217599
33.09082486
33.4315354
33.27293179
33.37991628
48.91365058
47.77582152
41.80251732
49.43482191
33.30869047
32.68897616
39.85321815
31.8808825
32.85093934
32.71387604
31.96753583
73.19436836
73.95477099
62.29439588
64.26770977
56.12716059
32.42087317
32.45567654
32.62020372
32.02190936
54.2482367
58.9555618
54.72435807
55.42954915
52.59842216
46.85179479
57.68193413
53.12159909
43.75293901
44.21980619
46.84827407
41.44999064
43.25487538
50.17533511
48.037416
50.14983727
46.96887853
49.24614329
54.45208526
55.7953882
49.97119598
53.41083674
56.42876689
44.296391
45.16483917
44.06545123
47.21421037
53.04210834
53.16528492
51.55551617
40.44252434
48.11567057
44.29833116
52.25514927
52.87249757
41.35432965
42.97980766
45.13022972
54.89310912
46.68152829
40.80724507
41.55687349
57.74090571
54.93884726
57.84579458
53.99304269
56.17164747
58.27796092
59.20866643
58.45806502
53.55921849
53.92833723
54.1458816
53.35485925
53.57932355
53.40318904
54.72060034
54.74699587
54.93699964
54.35734505
54.55621106
54.47386228
46.72230632
49.51146411
49.51261247
46.42972958
46.68947026
45.53516394
46.16394978
45.96599963
45.91138647
47.34868666
47.60035832
47.10468036
48.92364321
48.67347502
49.46075715
49.26845477
47.07929123
43.26191776
42.19868138
41.18681483
44.18358258
43.78020431
43.73678605
41.58044031
43.5436571
43.24294943
42.8841776
42.63940437
42.88301408
53.68306475
52.31542371
50.11066022
49.80203042
49.13992772
50.76843256
50.48963643
50.26781622
56.18775768
55.87149819
52.18828129
56.17532513
57.95777259
53.59236472
56.07547043
56.18320326
56.53508503
55.37385367
55.20463893
55.68992345
55.57191091
56.49245287
57.56777708
57.71815772
56.62610495
59.00774062
58.97455917
58.75962362
58.95825373
56.4450625
58.17383132
58.73509101
59.73593711
58.16165005
43.59663159
43.46516317
41.29097175
41.97491239
44.21900441
44.08099304
40.04975678
39.84449077
40.48302994
40.26130012
47.82098863
47.55282743
45.91492972
47.03613334
48.3580482
48.08951308
45.72668188
45.48589834
43.38650799
44.24215844
46.23331126
45.98357457
49.99282898
50.3059084
50.49107339
49.93176551
50.11878686
49.67460411
51.03729343
50.94410722
51.0193549
50.67212768
50.82845309
50.81190208
38.60104373
36.57913356
36.69882661
36.35727087
36.47314237
38.46770101
39.22846484
37.09208038
37.26041389
36.81692954
36.95129707
39.04715226
37.5341616
35.71638578
35.82899644
35.5318251
35.64209349
37.426721
38.06529042
36.13428716
36.25384684
35.91610979
36.03491002
37.93648409
38.6125427
38.47198988
42.49300847
40.80774143
40.96681924
40.47636599
40.62179761
42.32620677
38.94780311
38.79385018
37.38217198
37.26199675
40.97744817
39.30035994
39.40372949
37.48877994
37.84237081
40.42855142
41.852956
40.15495433
40.27665944
39.82462253
39.91779958
41.65712514
37.68563957
37.59720696
44.11792511
44.36810624
44.36077781
43.22526022
43.56117315
44.91638944
45.38234952
45.27141257
45.74250943
45.65788681
45.0703048
44.91877732
44.37562512
44.11269577
44.99615789
44.86497013
44.69040608
35.139562
36.83242285
36.71197157
37.07723646
36.97025552
35.23766613
34.11516898
34.04133313
34.36711225
34.29818734
33.83634202
33.97450439
34.11932319
35.70139246
35.20373643
36.49120122
36.27255317
34.56252821
35.52116767
35.11546483
35.12946987
35.31890223
37.02395923
35.35133546
35.46355373
35.16877367
35.28380091
36.93438501
34.6812307
34.59012777
35.05647701
34.95284823
43.68860268
40.53797405
40.87586356
40.28007208
40.32409614
43.84341661
43.51177145
43.45697
41.25164242
42.1732316
44.47749257
49.89747406
41.54079142
42.88329599
39.93389404
40.62692727
50.42890632
32.87874869
32.83707358
32.94121911
32.91340022
32.7067571
32.93311404
34.11188906
32.67743934
32.54844483
32.78503177
32.72401867
33.34297631
34.04997816
33.97544093
34.20554901
34.12714384
33.39208184
33.16722801
33.73274083
33.66308956
33.89540326
33.82836639
33.20171068
47.02071693
32.65247553
32.39092193
31.77108167
57.18630045
83.30322912
88.66020886
81.80393214
82.64972356
61.5328632
32.19327193
60.68729144
46.07871698
48.50887388
32.40246327
32.32929027
32.38044476
58.25244007
64.16990429
62.90121026
51.45604109
57.08039498
68.58642609
64.40863926
44.90256875
60.817118
54.32650074
32.69269635
32.07972545
32.07485865
36.68615471
36.7057052
36.81762024
36.71402455
36.74847886
36.83920013
36.76195756
36.81314513
36.87273265
36.83111657
36.89107568
36.91420378
36.90859036
36.95095651
36.95000419
36.959189
36.96910502
36.96252313
36.96691727
36.94336733
36.94692298
36.93138567
36.87985449
36.91132474
36.86240443
36.80827606
36.87281104
36.79266751
36.74975721
36.8415876
36.53913755
36.58022765
36.67124327
36.59861974
36.67091741
36.72326195
36.7005072
36.79983441
36.80136811
36.83141235
36.92204229
36.89272547
36.94805417
37.00820934
36.9576709
37.02075533
37.03308207
36.97765101
37.02887841
36.9927698
36.94895697
36.97414136
36.90159309
36.88041262
36.87377428
36.78364906
36.79430215
36.75202594
36.66647037
36.72404569
36.41594062
36.49825573
36.55501247
36.5350871
36.66738073
36.66331715
36.71451447
36.86235408
36.80733567
36.91214561
37.05443388
36.94309392
37.09573536
37.19003158
37.03831772
37.21116691
37.22512757
37.06364754
37.21147734
37.14591214
37.01915049
37.11534346
37.00218014
36.91787983
36.95904932
36.82482297
36.78788121
36.78013026
36.65104744
36.65483873
36.31812893
36.46318213
36.48514409
36.5221537
36.71489866
36.6753385
36.78734061
37.02601752
36.89279819
37.11092265
37.37613686
37.11047604
37.45560315
37.64870563
37.27000914
37.69786976
37.69946119
37.29445068
37.63919608
37.49127711
37.21106639
37.42831439
37.2243945
37.04368135
37.15378962
36.94530464
36.84701264
36.87834747
36.6898636
36.65595799
36.25709011
36.4671436
36.46163408
36.54635587
36.82522933
36.73596886
36.93436022
37.32624491
37.08528726
37.48347007
38.07385997
37.4949095
38.29270294
39.12389168
37.85445793
39.13990846
38.91439446
37.84951722
38.64726061
38.20184954
37.62540525
38.04678663
37.62999239
37.30619916
37.50466972
37.16358054
36.98962487
37.0605261
36.78133148
36.70677601
36.23254193
36.50493159
36.47359756
36.61112602
36.99852066
36.86346755
37.15757539
37.78005894
37.428377
38.06316636
39.69738559
38.32392386
39.17552865
39.80757698
38.91731162
40.440224
40.47843272
39.44427932
39.95645454
39.3436563
38.95308121
39.1329328
38.2766361
37.76824248
38.05373216
37.49945873
37.23640641
37.34345251
36.93963827
36.81419492
36.22621871
36.56298107
36.51824942
36.69764136
37.19389656
37.0477429
37.40089951
38.23547496
37.90350716
38.36881053
38.80287214
38.61226545
40.7454669
41.39069951
41.05408224
43.1976175
42.0147057
40.90274044
40.63285709
39.12812243
38.47508112
38.77131652
37.93629552
37.60146818
37.71304154
37.15449183
36.98911728
36.22679417
36.62500061
36.57844269
36.78519262
37.36980719
37.24026863
37.61137179
38.57155
38.33001622
38.84078708
39.38082747
39.26330676
42.12227699
43.07036311
42.95284741
47.05191649
44.69167886
43.71532446
42.11392252
40.02288137
39.35434287
39.53375842
38.41043935
38.0537266
38.11670631
37.39648797
37.21355553
36.23140693
36.68641548
36.64043958
36.8689701
37.52572302
37.4101324
37.7933717
38.84418519
38.64233519
39.17882833
39.77737403
39.68293443
42.56890622
43.38457234
43.43235392
49.44471864
46.62911035
46.0127133
43.27955985
40.81198981
40.23396168
40.22165124
38.85847525
38.52688477
38.50258082
37.63586658
37.45747647
36.23927773
36.74669965
36.7015861
36.94988454
37.67495215
37.56317531
37.96825727
39.12344473
38.91112415
39.49945689
40.15695237
40.05976186
42.43344743
42.82777224
42.96381714
50.57662428
47.7255777