/*--------------------------------*- C++ -*----------------------------------*\
| =========                 |                                                 |
| \\      /  F ield         | OpenFOAM: The Open Source CFD Toolbox           |
|  \\    /   O peration     | Version:  v1912                                 |
|   \\  /    A nd           | Website:  www.openfoam.com                      |
|    \\/     M anipulation  |                                                 |
\*---------------------------------------------------------------------------*/
FoamFile
{
    version     2.0;
    format      ascii;
    class       volScalarField;
    location    "0.01";
    object      omega;
}
// * * * * * * * * * * * * * * * * * * * * * * * * * * * * * * * * * * * * * //

dimensions      [0 0 -1 0 0 0 0];


internalField   nonuniform List<scalar> 
12556
(
31.92929149
31.93007491
31.93089578
31.93170828
31.96642547
31.96714683
31.96754613
31.96837517
31.96987263
31.97244327
31.97620609
31.98044124
31.98343467
31.98362532
31.98101625
31.97709052
31.97340178
31.97024649
31.96879029
31.96752311
31.93223416
31.9310333
31.93003189
31.92908592
31.79650034
31.7991433
31.80178536
31.80378545
31.83566553
31.83768316
31.83969863
31.85860008
31.86537734
31.87721419
31.89470934
31.91470961
31.92983345
31.93214826
31.92097826
31.90289123
31.88505752
31.87149671
31.84695038
31.84070303
31.80551299
31.80244004
31.79931368
31.79648093
31.66776164
31.67232298
31.67665771
31.67960036
31.7053314
31.70855997
31.71338973
31.73740454
31.75360518
31.78130889
31.82112842
31.86403737
31.89572818
31.9003286
31.87648474
31.83848007
31.79866505
31.76776164
31.72956441
31.71634572
31.68421461
31.67885662
31.67341655
31.66852328
31.53016708
31.53628721
31.54210123
31.5464062
31.58012194
31.58590706
31.59562588
31.62578153
31.65931363
31.71681605
31.79755109
31.88537153
31.94367953
31.9496288
31.89625212
31.82119305
31.74417884
31.68373239
31.62769112
31.6031736
31.55644355
31.54754923
31.53963942
31.53284084
31.38373953
31.39120959
31.39825151
31.40438125
31.45185151
31.46239048
31.47953973
31.52606318
31.59273591
31.70400792
31.88058074
32.11458513
32.25625762
32.25571402
32.08620789
31.90193475
31.74430741
31.63286439
31.54002738
31.49535294
31.42271956
31.40853077
31.39746116
31.38830938
31.23664939
31.24544674
31.25393823
31.26236351
31.31677307
31.33412583
31.36402422
31.43392989
31.54581471
31.76676696
32.20630788
33.02787925
33.67977154
33.48212095
32.73230597
32.19792748
31.84010684
31.61988581
31.46542456
31.38942266
31.29328684
31.27011151
31.25492704
31.24331258
31.09586256
31.10605201
31.11622883
31.12739968
31.18468791
31.21086718
31.26063141
31.3606407
31.54017265
31.9587512
33.03642
36.78314509
42.43065659
39.49074416
34.63034772
32.91400197
32.09362533
31.66610754
31.41476762
31.29687315
31.17378091
31.13893394
31.11846377
31.10393778
30.96300902
30.97451909
30.98636776
31.00085945
31.06204291
31.09837832
31.17240956
31.30900701
31.5782291
32.26445604
34.37890283
45.91499092
60.4061161
39.22310482
34.2877316
32.56400193
31.80229782
31.39543937
31.22185134
31.06533211
31.01621358
30.98910014
30.97132644
30.83681151
30.84997004
30.86423015
30.88297636
30.9473373
30.99544343
31.09485316
31.26538781
31.63088641
32.55541233
35.37575274
52.71947864
107.4337422
46.2212581
36.25130343
33.22300912
32.00831417
31.40182247
31.16101742
30.96606342
30.90099061
30.86609274
30.8447676
30.71570302
30.73023708
30.7466124
30.76950305
30.83856804
30.89946038
31.02391191
31.22551419
31.67836736
32.7717978
35.95056886
59.07087939
133.8392895
52.42476768
38.29331179
33.94871015
32.25056786
31.42650255
31.10981584
30.87484962
30.79211421
30.74832408
30.72311119
30.59935885
30.61566256
30.6349683
30.66332704
30.73457481
30.80889755
30.95735078
31.18890278
31.71973361
32.9507554
36.52093123
66.78104812
134.4773168
56.04171588
39.91618893
34.60058824
32.48551824
31.45666721
31.06471832
30.78950366
30.68949042
30.63638043
30.6069735
30.48678767
30.50459388
30.52630011
30.55929897
30.63469568
30.72220272
30.89303392
31.15500153
31.75878727
33.13311137
37.37960554
77.82855919
125.0868648
57.33318497
40.93511778
35.08981083
32.67839673
31.47970402
31.02188854
30.70964571
30.59252448
30.53016104
30.49636887
30.37834763
30.39800106
30.42308162
30.46189058
30.53821109
30.63857388
30.82916418
31.12291586
31.79622096
33.32608929
38.51602265
89.2861896
536.3838412
109.2197547
57.32346082
41.42658496
35.38580197
32.80604189
31.48573239
30.97703404
30.6335338
30.50092997
30.42970748
30.3916425
30.27331924
30.29467558
30.32276341
30.36575482
30.44774991
30.56444039
30.77881057
31.10099152
31.85551115
33.59730956
40.40895883
142.9121937
342.5438137
102.5959154
56.80857956
41.5123112
35.50752944
32.86309755
31.47381558
30.92736761
30.55759299
30.41322167
30.33414675
30.29206741
30.17096513
30.19396731
30.22488481
30.27170751
30.35704824
30.48487825
30.71477176
31.06619837
31.88042386
33.81562044
42.75340579
514.2401631
269.0211961
96.21179543
55.53130053
41.26938519
35.47533923
32.85497712
31.43625858
30.86995859
30.48130784
30.32805282
30.24146055
30.1957813
30.07046624
30.09507637
30.12858818
30.17877564
30.2672072
30.40353666
30.64652829
31.02510293
31.89957269
34.06737907
46.21271295
778.9536902
237.7910319
90.0956201
54.01793586
40.83076126
35.33152398
32.78563608
31.37797873
30.80293236
30.4012166
30.24186509
30.15020043
30.1013975
29.97078748
29.99703965
30.03280114
30.08600069
30.17751264
30.3204411
30.57369119
30.97548323
31.91097266
34.41157483
50.97779642
845.0896703
213.3696057
85.16802282
52.58753311
40.35771131
35.15296347
32.686245
31.30002529
30.72687237
30.31742777
30.15411236
30.05785497
30.00633979
29.8711916
29.89897273
29.93677806
29.99268931
30.08726477
30.23500985
30.49637001
30.91718684
31.9113565
34.83255754
57.43988288
809.7933799
197.6125535
81.96000604
51.49567678
39.94555319
34.96060105
32.56458627
31.20672359
30.63947835
30.22725604
30.06167323
29.96326634
29.90945063
29.77102944
29.80023
29.83993131
29.89832637
29.99562229
30.14656983
30.41472343
30.85411701
31.90895727
35.32737709
64.82128137
746.3845916
187.3434109
80.28303638
50.77245579
39.61763955
34.77078057
32.43275694
31.10349839
30.54396039
30.13143695
29.96453253
29.8646212
29.80960145
29.66988875
29.70030458
29.74177363
29.80250652
29.90223746
30.05551773
30.3297611
30.78665133
31.91329592
35.99673581
75.40123041
678.4999221
179.7576688
79.62972425
50.27985559
39.34223873
34.59096105
32.29731431
30.99451442
30.44196179
30.0301439
29.8626699
29.761836
29.70612969
29.56755119
29.59893121
29.64208946
29.70497535
29.80701917
29.96249202
30.24267405
30.71718943
31.93534995
36.97366627
86.93262999
609.2024973
173.9935472
79.07794055
49.95826236
39.11411903
34.42555531
32.162391
30.88218819
30.3347392
29.92395646
29.75642733
29.65508163
29.5991526
29.46400594
29.49604262
29.54073254
29.60560373
29.70990669
29.86778904
30.15392236
30.64726691
31.97949862
38.26440955
96.08876563
548.4092513
168.8228676
78.44866112
49.76746117
38.92449097
34.2730833
32.03018279
30.7676531
30.2235541
29.81377147
29.64651936
29.54483645
29.48901861
29.35936258
29.39174781
29.43773789
29.50437913
29.61084774
29.7713929
30.06351341
30.57714385
32.04740713
39.91259624
102.9524398
497.5302604
163.6089585
77.74705893
49.64195768
38.77343438
34.1320066
31.90151686
30.65172798
30.10958002
29.70055488
29.5336862
29.43180687
29.37629586
29.25381545
29.2862894
29.33331418
29.40140723
29.50990159
29.6732526
29.97157706
30.50764838
32.14931115
41.72069518
107.9447997
455.3447125
158.4357494
77.00049957
49.53707858
38.65939323
34.00349534
31.77738592
30.53520721
29.99373382
29.58510302
29.41864324
29.31667654
29.26161963
29.14763535
29.1799302
29.22776182
29.29703695
29.40731051
29.5735706
29.87862645
30.44069298
32.30551802
43.40772683
111.4297686
420.2253071
153.4484337
76.23104367
49.43506431
38.57419086
33.88813709
31.65843341
30.41883401
29.87679329
29.46816885
29.30203257
29.20004607
29.14554093
29.04100805
29.07296648
29.12133219
29.19164584
29.30346006
29.47269683
29.78540143
30.37917205
32.53016414
44.87224551
113.7068275
390.8293035
148.752173
75.45545544
49.32872141
38.50864059
33.78508564
31.54470689
30.30317796
29.75938807
29.35036205
29.18440396
29.08245257
29.02851785
28.93444774
28.96596504
29.01468108
29.08579323
29.19878765
29.37106229
29.69268609
30.32650188
32.8149716
46.11856843
115.0502129
365.3650053
144.3088584
74.68398303
49.21466374
38.45530679
33.69279066
31.43596551
30.18865427
29.64204459
29.23225864
29.06631334
28.96440593
28.91103475
28.82719829
28.85816338
28.90710214
28.97907148
29.09365633
29.26909086
29.60129052
30.28604657
33.13595869
47.17385036
115.6730021
342.7760389
140.0883584
73.92148411
49.09224192
38.40846581
33.60945161
31.33187298
30.07554299
29.52513236
29.11391538
28.94777074
28.84591062
28.79307682
28.72249254
28.75289113
28.80188604
28.87415022
28.9884394
29.16720325
29.51210708
30.26007659
33.46892821
48.06551393
115.7396203
322.5743893
136.0831357
73.1691554
48.96224728
38.36414945
33.53321062
31.23203698
29.96402087
29.40891996
28.99666326
28.83036942
28.72856665
28.67624878
28.61216314
28.64199353
28.69108293
28.76482779
28.88338217
29.06579861
29.42603468
30.24915377
33.79694037
48.81796517
115.3782066
304.4162871
132.2833252
72.42630402
48.8255271
38.3199908
33.4623164
31.1359819
29.8541681
29.29359381
28.87733781
28.7101073
28.60826776
28.55643465
28.5156857
28.54500771
28.59392432
28.66657396
28.77883942
28.96526851
29.34394175
30.25216805
34.1104317
49.45177669
114.6803699
288.0443046
128.6771245
71.69149816
48.68240529
38.27466534
33.39533157
31.04323663
29.74603329
29.1792807
28.7653934
28.59862925
28.49684614
28.44539596
28.39476072
28.42351864
28.4726262
28.54854565
28.67510032
28.86600958
29.2665054
30.26683964
34.40499141
49.98391752
113.734603
273.2501743
125.2527289
70.96324803
48.53275535
38.22735212
33.33116054
30.95338447
29.63968026
29.06622654
28.63878841
28.46921991
28.36717264
28.31607334
28.31306369
28.34142726
28.39029302
28.46371283
28.57178275
28.76831218
29.19413761
30.29063351
34.67923413
50.42874045
112.6070211
259.6918211
121.9949828
70.24016322
48.37618458
38.17739859
33.26892565
30.86603053
29.53519854
28.95435952
28.54202325
28.37455008
28.2725739
28.22174687
28.18268287
28.21047089
28.2593805
28.33577903
28.47093689
28.67264233
29.12710137
30.32130075
34.93329962
50.79828929
111.3543461
247.3338114
118.8953657
69.52129337
48.21220949
38.12423318
33.20792037
30.78086179
29.4327526
28.84451653
28.40126155
28.23004132
28.12771318
28.07721143
28.11063756
28.13813436
28.18706027
28.26334904
28.37052163
28.57999356
29.06588305
30.35698296
35.16805108
51.10308371
110.0221639
235.9694017
115.9456937
68.80652453
48.04045094
38.0673337
33.14753254
30.69757118
29.33310229
28.73653931
28.32088728
28.14965232
28.04712549
27.9967531
27.94578433
27.97266824
28.02171622
28.10063898
28.27557645
28.49184574
29.0115368
30.39591098
35.38334277
51.35027669
108.6519238
225.5134483
113.150541
68.10156129
47.86211885
38.00663126
33.08747271
30.6160485
29.238288
28.63397788
28.14301334
27.96848563
27.86542497
27.8152921
52.19966021
124.2430913
66.88576573
58.24968716
158.8111427
128.910586
65.65953204
158.2909295
160.2644067
76.4503131
144.2280165
156.6312226
88.09897861
658.2560166
560.7249133
131.0844579
142.104664
120.5267489
421.341325
645.1186203
355.3427944
128.4460561
129.8426003
44.45473677
41.39097326
62.35124953
39.47516615
321.3208418
123.1957259
102.1219466
49.5204453
41.86201705
35.82419247
50.64908261
47.03744561
1020.454956
710.0994383
132.2877852
58.85908499
52.100261
36.38243195
55.95754332
51.29308244
61.6973534
184.1450923
159.2925126
629.9281075
828.2999327
135.3104059
64.02881761
60.58673558
37.19230245
63.06856387
56.69751927
70.50104741
293.9521796
222.5786435
378.8814689
487.7488492
38.27835499
73.52922181
64.06320581
80.46184279
496.8194415
378.407058
1437.422431
250.9244726
290.8032199
40.06672329
96.43762699
75.20653629
98.92798442
1200.336124
756.5736428
153.6029546
357.5452823
415.4464105
116.7940146
144.4441426
77.57621362
112.6888154
689.6756497
336.3173133
98.55614198
278.8236005
499.362091
156.2247483
136.2230565
55.55958774
182.2098871
201.2505593
149.4159732
178.7509487
835.7180125
1022.556038
146.0863277
733.5215968
663.413092
515.0906489
729.6336837
144.0205556
218.8310703
188.2538008
62.62271738
248.4263578
297.9632853
203.5729629
244.926811
507.2950016
617.9142394
161.181944
482.8731554
388.7330569
658.0567716
498.2310392
161.5780735
373.351522
297.768525
71.84897485
374.392682
490.9811367
301.2854397
369.681954
299.2907837
366.2931436
743.533036
508.31535
80.95549018
2133.300242
716.263564
1145.273375
497.2044351
696.7335528
2532.519876
233.4445967
247.0090743
1271.361885
8548.180032
1213.315709
100.5676028
477.4223323
1912.52381
7744.482802
1156.448536
1876.859685
490.2427197
35.18900618
46.67169465
42.05597103
49.46265594
93.79836676
68.95183134
1658.889248
300.3306836
54.82513045
133.7856516
115.0357754
4239.886102
126.6138186
65.57207089
64.70228827
4738.87954
542.0235732
601.49958
427.8346267
209.6343913
226.3093265
111.6671942
96.13585661
50.28969528
1159.949473
158.8455547
372.1713061
105.6370858
248.5222024
91.48699804
615.3934178
780.3483753
149.6710688
302.1403525
258.9638593
376.8745512
310.2085349
151.6841392
899.3341121
3648.951528
570.9475118
60.8566965
50.69297882
72.31790993
110.5563782
58.62212793
62.06107446
2189.893632
228.6979772
1560.152352
235.4861928
1157.264572
207.0061593
830.3341222
818.4454996
710.8965476
724.6110729
1451.233668
3414.965795
420.3151915
1724.89191
964.6952544
3887.288944
2039.844648
436.1682178
421.7418078
145.7825264
154.4123648
456.4407722
516.7773556
4166.615002
830.3083128
206.689474
223.0358368
187.2929862
200.5944114
826.1588054
951.9898461
1157.223782
126.3007027
687.7593128
516.3041108
1177.549367
691.9878564
129.5839502
94.50844023
257.5196187
127.205582
441.9297744
281.3534222
100.2001911
393.7526323
657.974298
493.9010816
470.5186237
185.9723421
1428.860772
186.7631319
161.7777876
1316.412197
1204.747803
1414.926507
1330.994822
165.8844827
873.6419336
880.78316
691.3011591
257.2686037
250.529
259.6769557
258.5390414
687.9387469
611.6694011
229.0036878
210.6935551
247.2522743
234.3853742
624.1955501
270.8148889
274.0108664
221.1483861
223.7012322
535.3775391
4039.426217
544.6824313
410.0238841
417.7853594
334.070388
338.7965925
912.9995993
676.5713832
334.1211822
824.4325632
1349.065418
573.1293934
171.091262
182.7942627
157.5120667
167.5068261
562.4147104
981.9247095
774.4193373
790.3374221
542.8934623
548.6553671
4996.250806
764.4697299
396.6187487
439.1422754
230.2069794
245.1711428
1523.167003
3058.835972
1047.142453
1778.428597
1206.451285
5911.295956
2040.350559
4961.734996
1202.560135
545.1269048
3225.359455
1298.417626
1889.944619
1386.599064
1875.749515
42.09960198
109.7987562
100.094568
164.9760252
4172.145108
7730.540306
275.0119225
119.4988272
126.3586401
545.9233869
2189.801746
3287.732537
352.7575391
383.3188733
719.4995605
195.5156002
204.2617825
417.0957895
107.9438051
79.7285583
146.893777
249.9826834
98.85814567
112.2938138
959.1781457
2185.860604
2280.634064
763.4515773
665.6199146
1808.462019
1341.242163
2976.31829
2980.319254
796.6363056
264.675459
112.6042864
117.7624708
106.288202
110.9648879
258.6142067
135.8877252
143.2638321
416.1517896
1098.678381
406.0740322
429.4014836
6414.084399
2882.218544
396.9925709
599.8389047
1978.679632
2174.298164
362.3433091
171.6945135
145.8692217
203.3645561
180.3960212
376.9096539
853.6307168
2887.117174
2974.23938
979.9486733
204.8069653
100.5814814
104.8210897
669.7722531
651.7792048
287.3004171
1272.275788
1178.445208
587.0284901
440.2810126
238.1984988
245.7415165
599.9365417
256.1861119
259.3283688
248.3779378
254.3637529
590.7882344
330.9292925
127.2285856
133.6419113
119.5583042
125.2217975
325.9456662
388.5638931
1042.322416
1028.21382
1733.137266
1676.088513
466.1696295
313.9458386
714.7834079
672.8599635
1021.986746
1010.867209
356.2488827
324.1471334
652.998463
527.0652529
5303.217251
1441.562651
745.3511831
952.9498099
516.1126462
1774.244619
1742.109735
1790.956765
600.1470806
4055.924072
8972.072118
320.6362517
380.5193404
438.3923243
460.0034622
1228.718862
1190.598061
800.0467435
444.007575
1937.751954
7502.403929
1138.242301
996.7767494
16251.27023
1172.260955
1782.055056
977.8410685
1126.534584
880.7073965
4187.16418
4267.170855
953.0544616
1236.469111
4949.72099
1246.240484
1178.419878
237.2700348
825.475142
339.9797329
823.8868109
258.1346675
3201.83329
2065.889929
692.0083586
3925.713114
4656.086516
3807.479705
2410.702065
766.431167
3983.166412
5176.790437
2373.247636
3751.259517
5601.150354
1333.390017
2017.052854
951.3194751
1193.409058
4980.093882
2250.645212
681.1472895
435.9428629
1084.245159
745.3868138
396.6121823
257.3559227
662.9073043
2397.586458
3032.556611
914.1591103
776.5004818
2305.457859
2401.751305
1971.113147
1875.779528
679.5242727
3336.345648
3236.988102
2379.377022
3267.093462
3188.626765
778.150125
3086.88347
2026.539158
2152.071497
2455.840203
1307.50578
617.1747022
664.4790557
2777.616636
769.9629091
867.6199858
683.7196115
742.219942
2572.145691
2805.307742
748.3797115
880.9629841
373.1424492
397.8589304
992.8324771
790.9104807
348.8269013
366.8292176
1072.876737
1093.028657
662.8781972
217.2123253
240.9063963
192.0225216
210.6171305
653.9115613
756.1633121
279.6996316
311.9670403
248.9258578
271.3617743
760.2891352
379.6486911
170.9950875
186.7503579
563.4581065
595.9423694
1431.428935
1500.763897
570.0197375
2101.80537
2112.423048
2638.835436
1448.456396
1203.254444
2044.508523
1434.931849
405.214881
1027.212108
1367.268064
1493.678091
434.9338684
502.3193914
406.3250256
423.133594
1444.929773
560.2722683
575.6838127
525.2511895
554.8354444
1274.494433
344.7318182
360.3214447
320.6033672
339.328454
1258.453743
1379.945461
385.747137
400.6238778
365.4669816
380.6488178
1371.419774
2740.936932
2832.941402
858.9277798
944.4097659
2797.976085
2714.050625
941.5724878
951.3248078
906.8859102
938.4186392
972.1056573
990.8263922
954.6724554
968.0313059
600.0880439
614.7678779
580.5848012
594.9847627
664.8343145
857.3696778
621.7703617
638.6891124
1122.562472
1303.108708
901.6156643
1046.696645
4266.706078
2039.36185
2215.37241
1388.003003
1948.491373
1061.790763
1050.513824
393.7013588
1757.374655
1764.612022
1714.005263
1744.520703
1820.04039
453.6247696
1633.680347
1125.219061
970.1907683
738.6351419
318.578931
1052.274874
1588.168381
992.493003
1063.44322
1666.142582
1698.081726
1612.693234
1652.635218
351.8762812
1007.142299
992.2957192
4726.088913
975.2052636
4559.809652
3830.992059
4544.416337
1041.787715
5562.238444
1282.269241
5222.786745
4357.663393
754.3421359
854.5316957
1817.473852
1780.784556
522.0269299
581.2240054
1897.070177
1821.46929
4948.658066
1278.628065
475.1708349
528.7530054
5383.968175
6195.747362
2027.838721
6775.818099
4682.35158
1328.443765
1174.954517
5916.118209
2983.819027
6539.054389
3472.773693
1714.681426
56.95544171
39.7481647
35.35124403
4793.364542
4770.356593
119.1047146
65.11111399
65.55060439
5013.757247
735.144899
2091.149626
1390.389477
252.8752978
215.8740708
137.0158056
213.1754473
159.4065963
297.7835377
972.4824502
212.5254424
230.9813152
48.47317285
55.57157671
95.22793607
281.7986239
501.681605
716.6591346
172.6785472
90.58487341
94.1412245
86.16909604
89.44714901
169.177575
644.301398
715.4284249
2354.430089
503.5876593
445.1204341
271.6308636
327.2280974
343.4608394
784.3540185
776.0108266
986.8763606
384.8446563
95.37488404
99.24132728
200.6201992
258.1252539
605.9465036
575.3443071
551.04222
479.7064515
234.8634431
650.8395078
305.5019456
321.9416747
3754.335012
3459.179964
1866.268662
1812.986384
1787.604719
1117.939665
3014.534714
4967.492822
4347.511561
969.6929491
568.4488167
627.3843712
1915.397266
1163.857908
1852.514376
1837.519085
1876.681367
1742.92645
4069.713416
2752.810962
3146.60465
4674.00871
1137.504841
922.2395635
548.3212615
1196.015936
136.6535286
110.1673591
180.4304812
669.0621298
1758.269197
1254.386321
5392.969837
5771.609338
5909.315737
4704.492495
5567.607969
76.73493062
95.53139803
205.2677422
1797.091232
1185.162091
923.1069159
2365.489474
1853.668188
1585.840009
3031.385497
2729.605181
4614.175343
4311.829199
2897.267269
561.8113234
602.9258092
1206.376549
4051.398707
1964.247325
2196.397132
3525.373004
1915.44969
2274.191591
997.7379995
1360.061257
1133.431956
678.1400511
448.9143155
456.9284319
1134.487726
665.9901345
708.422462
462.8226328
474.9789655
710.0148728
149.9688684
166.5729115
353.9395151
452.36726
821.5557271
575.2640248
1024.381363
1071.021261
657.8591517
1834.308048
1287.826865
1347.131147
836.8556862
840.6829615
1436.248057
1482.871736
1501.052065
1384.650685
1411.719824
1300.174624
764.594771
771.2363059
727.5537947
735.976985
1224.545663
1404.560569
820.9072854
826.9597352
778.2669216
785.3199298
1344.886088
626.5089139
611.4828152
261.2837764
284.0430557
646.8639527
631.3632756
444.5832127
430.2893838
213.3941642
1556.840499
1560.566627
1509.351478
1516.523568
1972.019514
1571.894892
1573.748019
231.9644083
467.3353436
450.3183651
3878.667304
3828.949161
2318.541573
2450.752491
4012.770229
3862.100456
4032.853982
576.5820729
1138.659736
956.3114527
286.4769375
300.3991579
618.7345789
540.6708409
271.3391368
282.5742957
1145.196848
1144.486418
770.2682024
793.6628205
1155.907955
1160.35839
4944.553959
1607.024158
1038.711172
1024.042949
12245.7725
2525.110828
1220.151506
4099.430443
3175.038831
1932.207628
1907.334461
1188.468581
5681.360022
6243.691915
5923.999833
4500.882882
1269.532827
1983.91998
1919.710766
2087.901113
778.2967284
896.1765393
4700.990242
4618.258883
3413.280324
3136.750978
1685.340368
804.3558614
848.1230753
921.1744412
2604.349434
4674.424971
3917.573258
4733.043743
4505.31832
3013.968641
145.6681184
190.7348214
528.8273331
2356.871911
2294.920125
2430.359219
2404.488306
2230.840961
1483.170166
1469.042284
1500.000887
1486.942019
2238.801157
3024.715469
1686.329892
1695.312794
1627.406007
1671.160768
3080.166523
2063.563043
1344.799545
1218.003258
1457.002992
1418.210574
2118.880143
2883.360066
1711.87175
1720.106434
1704.05475
1707.027627
2923.846869
2503.243941
2451.218041
2569.414748
2465.096581
1039.719727
697.1272496
701.6470173
1715.543845
1060.466923
1065.991637
1028.262751
1052.385412
1702.17702
4913.832008
5142.643352
4388.538179
4999.581874
1803.660628
1819.552993
1770.288095
1787.261221
2306.096579
1056.191806
1736.221998
1664.85502
1761.90524
1075.10072
1080.164501
1068.726229
1072.590834
1753.982994
1698.627965
1745.867861
1169.932413
1628.308629
2273.807159
5308.996456
4904.616701
3533.764815
5194.096368
889.7818085
1270.675033
12938.01069
1229.722932
830.6684908
835.3373562
1940.085196
7095.37525
7325.103163
9205.233102
5477.852851
4955.856157
1870.16321
1857.188937
1165.619674
1835.711962
1481.928751
2133.026088
1471.363051
1922.632947
1432.833752
568.5560759
2092.786769
1421.307758
4236.725949
4444.380472
4893.940851
3472.794228
4099.774435
1197.881599
1550.799434
666.6300513
358.3163626
495.82573
805.9393803
916.5436303
521.6376618
779.1885407
1042.669121
4509.926713
4806.479052
4425.594042
4638.058306
5511.877256
5445.148408
5238.806868
2834.516489
4544.756882
4052.364026
5230.445815
5451.161245
3289.811282
3659.761078
4147.09139
5531.531683
4330.221708
2791.223496
3165.15573
1697.74195
1226.35766
1716.500776
925.8415534
1326.910827
1773.663582
1937.472271
1780.050426
2496.907824
1616.644144
1532.932497
2173.360594
1599.13719
2347.696791
2337.593336
1517.58756
1503.69209
1539.486306
1518.283683
2352.217063
1940.596683
1168.062315
1184.379871
3293.00162
3272.781449
2798.742489
3683.942139
3560.48363
3391.152439
3212.792837
3353.25221
2550.413773
1374.635089
1525.603917
1211.524153
1266.95651
2174.186468
4353.207786
3543.225578
1807.326902
4717.397924
4466.614088
4452.909226
2611.652892
4328.617606
4171.283041
1498.912797
1682.52581
3313.620968
1040.92403
1121.470386
523.7008731
595.4966929
1085.263823
710.921042
480.3132969
504.1679133
933.5564792
893.5745558
526.4937907
872.6822941
1195.872207
602.9884326
1003.734939
979.5222482
1434.406666
995.1542871
977.6762664
1096.333
1059.994411
1516.418395
2211.573877
2086.662062
1352.554527
1987.49045
2085.905897
1862.915522
1963.476253
1326.66021
1998.019597
1970.14123
2514.006656
1875.152758
909.3324839
902.0262031
1408.081921
1452.827364
856.1386175
853.6228091
1456.389803
1472.337488
1427.883578
1444.00925
753.0722079
759.206343
1291.622983
1241.031493
741.6917272
747.3020423
806.1369054
812.5107877
1390.200791
1359.738542
792.7480499
799.4409903
2794.45594
1737.640584
1744.739283
1722.762051
1728.917627
2796.227049
2705.217196
1903.8818
2187.30409
1762.372621
1802.375026
2713.542202
945.0014812
1570.573837
1557.292973
1589.341001
1580.528801
948.0032529
926.9285344
1513.962967
1493.376154
1545.071062
1530.530329
934.2798534
978.964943
1648.455087
1635.575488
1667.780728
1655.301603
982.4470186
958.6303906
1606.723604
1598.830097
1627.573923
1615.659675
962.458852
1541.247001
1546.851845
604.8190743
908.5741092
904.63589
917.9650245
914.6965004
610.4745918
1526.00888
1532.498201
1628.321918
1534.893132
687.5652913
985.2878458
995.3369018
1453.453448
1394.168813
771.307599
624.8589464
927.8530851
925.9089616
938.225586
941.7682769
636.4509492
1588.801442
1580.841084
3870.384606
3730.057944
4095.144627
2645.869776
3156.211597
2092.145227
3594.048952
3647.289217
3566.168648
3584.213389
2143.924718
1541.438741
3006.177765
2521.150249
3544.88612
3683.333306
1772.959843
1066.207063
725.6156516
727.9241528
709.5099091
712.6703578
1051.641749
1758.031743
1774.840931
1721.088051
1741.182248
1714.287351
2197.722418
1560.450261
874.2984202
972.3269768
757.3910059
782.5682249
1113.184718
1481.244457
2089.149693
1629.04934
1547.027884
1007.009654
1686.215806
1669.273777
1729.031919
1677.722318
1003.107369
1675.365014
1689.745514
1627.525998
1641.853678
4365.060731
2651.509413
2831.787001
1913.529126
2316.831596
4472.018303
4468.847971
4294.178605
3141.467494
3670.212851
4810.107153
5017.68992
3521.72317
3763.693204
2614.338482
3074.783826
5217.871586
1855.99405
1857.153346
1836.615137
1840.314087
1208.151763
1221.12268
827.2196392
1925.938846
1819.440422
1877.523129
1867.098263
1800.077446
1092.354708
1102.020915
1082.875539
1089.876785
1795.448638
1843.505588
1118.823563
1183.133726
1104.271794
1121.729723
1847.108064
4734.592644
868.4362816
875.2351409
1283.556229
5200.091177
8314.873994
8692.500085
7986.358216
8075.392682
5842.603593
1974.71684
5804.556724
3922.785396
4335.837103
1185.317448
1897.400033
1879.045044
5870.819975
6445.364497
6183.015881
4940.917124
5435.943404
6837.949714
6477.820933
3905.100403
6139.973384
5195.369807
2353.761131
1889.665455
1257.316506
31.76706325
31.77636721
31.86304609
31.78024567
31.79672401
31.87330861
31.80302049
31.82761793
31.88931852
31.83604906
31.86456223
31.90922487
31.8728582
31.89474048
31.92657409
31.89885807
31.9042086
31.93298962
31.90312576
31.89077931
31.92517547
31.88456202
31.85965338
31.90822714
31.85161166
31.82539822
31.88971809
31.81808547
31.79746193
31.87469722
31.65257279
31.67199637
31.74878268
31.68063167
31.71495301
31.77350593
31.728975
31.77716241
31.81086134
31.79577081
31.85259133
31.85484082
31.86931963
31.91022771
31.8900821
31.92015622
31.92779981
31.90211568
31.92235775
31.89582822
31.88350755
31.88261456
31.83571489
31.8483241
31.81871512
31.76905512
31.80762594
31.7540369
31.71339418
31.77395329
31.55055991
31.58940353
31.64896356
31.60677592
31.67278792
31.70024297
31.70133692
31.80276853
31.77554466
31.84333396
31.98002894
31.86377798
32.01208254
32.11117251
31.93766439
32.14721265
32.1533738
31.9512639
32.12270958
32.05335192
31.91211767
32.01670001
31.90432249
31.8406632
31.86728385
31.7666102
31.7615651
31.73787747
31.66354435
31.69671632
31.45606611
31.52469054
31.57204446
31.55440911
31.68169652
31.67014505
31.74128166
31.98496914
31.829783
32.09138406
32.51847426
32.04163863
32.62333626
33.01786384
32.25596333
33.15820137
33.10012105
32.25584129
32.93429927
32.62649943
32.12737389
32.50303609
32.18619608
31.94778358
32.09460674
31.86649813
31.77943556
31.80455977
31.6579177
31.65742054
31.37637979
31.48484912
31.51151039
31.53743415
31.77745361
31.69591146
31.89708839
32.46497324
32.06887081
32.76280984
34.40957276
32.73287115
35.09422104
39.77596138
33.65984911
39.75878396
37.94223886
33.54307758
36.4921093
34.47471582
32.89065061
33.969416
32.92410993
32.31472997
32.67976193
32.14255139
31.91496562
32.01130764
31.71854785
31.66463578
31.32068106
31.48239792
31.48084161
31.56604705
31.97017571
31.81800499
32.18345875
33.32855939
32.65233958
34.03885716
41.03742774
35.13294749
39.10810198
44.43941346
38.12123908
54.36966093
53.01488385
41.81706372
44.0679433
39.65808057
37.68483049
37.76333805
34.4927386
33.22542218
33.87634104
32.68494083
32.25085245
32.42519728
31.8839151
31.74910729
31.27589023
31.49967994
31.48574877
31.61792865
32.1873631
32.02635681
32.48987307
34.14209105
33.56366638
34.69426426
36.07374215
35.61485004
47.26305139
53.01553941
51.07344553
77.98008744
57.95226741
49.54210727
44.43933038
36.97449495
35.04056571
35.73004053
33.49889957
32.86673038
33.04684787
32.14760135
31.94212793
31.23522401
31.5185547
31.50455999
31.66722212
32.36264568
32.23570879
32.72339203
34.63514234
34.28761326
35.54112789
37.26695124
37.04451596
53.32650263
62.46164331
61.51245965
121.1023336
78.09514773
70.84465816
51.10414142
39.70982923
37.66894712
37.80759379
34.43766473
33.72893697
33.76941735
32.46676027
32.22400865
31.19789546
31.53510202
31.52288201
31.70979609
32.50414938
32.39986823
32.90740199
35.02172413
34.7298621
36.09226269
38.08629355
37.85974218
59.91864165
77.88439426
75.41442759
136.3669996
89.15818681
86.25662647
55.38251692
41.9205983
40.3338998
39.56349654
35.30493131
34.66789004
34.45111025
32.78449009
32.54776836
31.16347326
31.55025989
31.53891675
31.74928765
32.63974177
32.53736385
33.08753063
35.4957661
35.11593351
36.74128813
39.30748397
38.88177701
67.96199459
93.83931255
90.39030179
131.6564021