/*--------------------------------*- C++ -*----------------------------------*\
| =========                 |                                                 |
| \\      /  F ield         | OpenFOAM: The Open Source CFD Toolbox           |
|  \\    /   O peration     | Version:  v1912                                 |
|   \\  /    A nd           | Website:  www.openfoam.com                      |
|    \\/     M anipulation  |                                                 |
\*---------------------------------------------------------------------------*/
FoamFile
{
    version     2.0;
    format      ascii;
    class       volScalarField;
    location    "0.04";
    object      omega;
}
// * * * * * * * * * * * * * * * * * * * * * * * * * * * * * * * * * * * * * //

dimensions      [0 0 -1 0 0 0 0];


internalField   nonuniform List<scalar> 
12556
(
31.93103604
31.93189019
31.93279512
31.93358731
31.96675744
31.9673099
31.96780998
31.96882828
31.97083784
31.97423871
31.97912006
31.98451593
31.9879018
31.98782538
31.98440556
31.97932306
31.97469642
31.97088617
31.96918269
31.96774278
31.93408819
31.93294463
31.93188255
31.93086529
31.79466176
31.79726621
31.79986315
31.80205676
31.83590944
31.83785608
31.84059305
31.86070374
31.86976791
31.88534339
31.90791691
31.93319158
31.95071855
31.95204732
31.93752841
31.91410253
31.89174827
31.87502343
31.84847117
31.84120712
31.80426461
31.80072458
31.79754623
31.79471342
31.66019669
31.6646865
31.66910517
31.67256124
31.7068688
31.71081533
31.71713868
31.74284052
31.76428065
31.80036065
31.8510315
31.90553134
31.94239798
31.94474672
31.91385489
31.86407197
31.81468079
31.77675916
31.73485145
31.7192116
31.6777916
31.67170455
31.66614637
31.66127897
31.52787487
31.53389379
31.53972865
31.5443173
31.57929863
31.58651262
31.59953159
31.63668176
31.68093643
31.75381266
31.85649046
31.96868008
32.04236287
32.03959435
31.96642617
31.86878408
31.77325429
31.701162
31.63458341
31.60531664
31.55595808
31.54617097
31.53794711
31.53111141
31.39659805
31.40419375
31.41156879
31.41793303
31.45458604
31.46648476
31.49015708
31.54569989
31.63155084
31.77750163
32.00703224
32.30171744
32.49982508
32.45950199
32.23576067
31.99813094
31.7998288
31.66196761
31.55507963
31.50205785
31.43783707
31.42287886
31.41126787
31.40193609
31.26625911
31.27507098
31.28377978
31.29212561
31.33296311
31.35254616
31.39397837
31.47764579
31.62446396
31.91968281
32.49142595
33.53522345
34.41872205
34.04051603
33.08106687
32.39881115
31.94960675
31.67689486
31.49939897
31.41180272
31.32537212
31.30132517
31.28543244
31.27354035
31.13818224
31.14859432
31.15926324
31.17051408
31.21478581
31.24462351
31.31015363
31.43103314
31.67651445
32.24304956
33.67842623
38.5095325
44.62260468
41.61486668
35.47161309
33.31706077
32.29243209
31.76831638
31.46928578
31.33655688
31.21877597
31.18309022
31.16147085
31.14657296
31.01422354
31.02600779
31.03861529
31.05292765
31.10125794
31.14365207
31.23875557
31.4009639
31.77868433
32.71764043
35.61278953
50.91231864
66.42501644
41.09666811
35.00974884
32.87816175
31.95125666
31.4722775
31.27407748
31.11950284
31.06925694
31.04068512
31.02237938
30.89252384
30.90631965
30.92169033
30.940024
30.99342784
31.05020867
31.17680936
31.38513455
31.90262544
33.1825693
37.12582526
59.50486622
121.9544642
49.45209506
37.37289802
33.67390794
32.20862284
31.49684913
31.22214095
31.02619225
30.95917237
30.92212287
30.89993672
30.77250514
30.78780033
30.80575366
30.82891884
30.89128676
30.96364742
31.12091613
31.37704302
32.01820096
33.53279833
37.93178525
65.27685791
151.8260377
56.73582142
39.7834255
34.5294061
32.50005737
31.54019451
31.17853001
30.93793719
30.85178752
30.80537131
30.77904235
30.65487867
30.67229724
30.69364255
30.72393937
30.79324234
30.88255928
31.06874603
31.37189206
32.11613614
33.79542056
38.53756833
73.59583563
151.8424269
60.87078334
41.63798559
35.2720731
32.77422052
31.5856785
31.14007616
30.85395692
30.74865529
30.6922146
30.66137739
30.5421198
30.56115594
30.58545409
30.62220851
30.69902189
30.80559465
31.01851567
31.36583056
32.19842887
34.01785319
39.22352479
83.68362862
140.4549456
62.22196617
42.72348612
35.79331882
32.98865038
31.61930493
31.10281741
30.77555601
30.65164508
30.58586552
30.55055752
30.4370581
30.4582824
30.48649257
30.52942685
30.60884651
30.73144929
30.96787337
31.35745272
32.26653933
34.2267361
40.17505375
93.34570938
609.8008745
121.0967453
61.82450981
43.12118756
36.06165707
33.11913881
31.63186336
31.06264867
30.70220862
30.56339431
30.48855258
30.44870949
30.33818364
30.36139543
30.39290267
30.4395934
30.5255228
30.66767624
30.93287244
31.35877333
32.35356744
34.51102086
41.80851598
139.9232741
383.4660157
112.6630587
60.63455975
42.99138472
36.11748946
33.16639087
31.62203556
31.01616578
30.63113159
30.48164511
30.39902015
30.35516928
30.24279479
30.26790588
30.30237475
30.35241882
30.44091706
30.59478902
30.87952962
31.34136497
32.40338753
34.71964633
43.57003361
449.3342734
274.8571389
104.4109631
58.61105731
42.50178458
36.00890574
33.1419081
31.58237017
30.96097652
30.55994276
30.40184416
30.31182752
30.2641493
30.14533727
30.1721512
30.20934456
30.26356656
30.35683523
30.51964238
30.82011311
31.31816249
32.45405888
34.98961629
46.60020419
706.5095644
237.974295
96.70009268
56.38927547
41.79995391
35.79185578
33.05469714
31.51864111
30.89556133
30.48187047
30.31714831
30.22181464
30.17101163
30.04524372
30.0737207
30.11333517
30.17150402
30.27107952
30.44119691
30.7532832
31.27999735
32.50651395
35.43263931
52.67032535
856.9833667
202.5987247
88.86178858
54.01120087
41.0582502
35.556058
32.93545764
31.43569046
30.82014909
30.39536251
30.22559616
30.12525103
30.07182353
29.93828196
29.96818809
30.01014142
30.07289313
30.18075666
30.35661
30.67722672
31.22074222
32.52511096
36.05441823
64.80553306
794.9524903
173.2426162
81.91974266
51.95313505
40.43747714
35.31604379
32.7949401
31.33580251
30.73007341
30.29665541
30.1233814
30.02053648
29.96511682
29.83027754
29.86161244
29.90560623
29.97130903
30.08407653
30.26385718
30.59038922
31.14666203
32.48573872
36.63540433
80.69151036
686.0914728
154.8891386
77.47331146
50.67755992
39.97589353
35.07263706
32.64021023
31.22176473
30.62675487
30.18990253
30.01501711
29.91049645
29.85410418
29.71662637
29.74903512
29.79506477
29.86442597
29.98184098
30.16393242
30.49418591
31.05929903
32.43258572
37.13117437
89.70205255
603.760182
146.7268845
75.5692103
49.82284929
39.56041605
34.83340978
32.47645606
31.09687495
30.51269345
30.07569691
29.89988742
29.79445887
29.73764186
29.60643447
29.63979758
29.68742158
29.7584421
29.87614759
30.05971425
30.39251986
30.96380357
32.37755174
37.71023587
95.66834327
538.5632734
140.7670013
74.07276742
49.14994995
39.18952776
34.60354358
32.30997066
30.96630073
30.39221907
29.95962317
29.78454868
29.67887288
29.62195068
29.49199054
29.5258589
29.57499943
29.64884201
29.76905285
29.95360528
30.28846124
30.8652491
32.32777554
38.42984609
99.53951211
484.84191
135.7549038
72.80715194
48.6516755
38.87011933
34.39006847
32.1474883
30.83444007
30.26909217
29.83934489
29.66437984
29.55867033
29.50202518
29.38342769
29.41761402
29.46768577
29.54216138
29.66129658
29.84661276
30.18290741
30.76513991
32.28645129
39.35760485
101.9034777
440.0354344
131.4476859
71.71109467
48.27965095
38.60488754
34.19536849
31.99188705
30.70355138
30.14531269
29.72083933
29.54741866
29.44207139
29.38583
29.26960224
29.30370561
29.35464274
29.43125087
29.55316727
29.7388442
30.07592534
30.66380332
32.26076512
40.40835966
103.119261
402.4256627
127.711446
70.75466023
47.98541191
38.38881512
34.01906458
31.84348819
30.57452362
30.02168868
29.59857695
29.42514816
29.32001203
29.26438056
29.16373526
29.19762916
29.24878589
29.32477892
29.44430551
29.63017776
29.96787716
30.56312594
32.26661085
41.41707575
103.4467081
370.5024127
124.4169754
69.9167638
47.74590251
38.21672716
33.86244983
31.7031264
30.44796439
29.898517
29.47993798
29.30817963
29.20357061
29.14856356
29.04920406
29.08260467
29.13413115
29.21191374
29.33492805
29.520676
29.85937568
30.46569811
32.31779954
42.30140224
103.1544466
343.3872132
121.5581032
69.21141316
47.56539234
38.0880922
33.7275952
31.57200619
30.32423903
29.77604935
29.35652627
29.18432635
29.07995461
29.02566717
28.94637831
28.97924743
29.03043697
29.10639857
29.22485951
29.41060413
29.75094791
30.37316668
32.41162071
43.04545574
102.4015406
319.6490751
119.1583052
68.72369164
47.47505064
38.00600928
33.61469093
31.45013291
30.20320779
29.65433152
29.2394979
29.06937992
28.96566483
28.9120417
28.8304266
28.86257773
28.91376903
28.99141737
29.11476865
29.30024067
29.64302012
30.28671728
32.5350316
43.6597298
101.3570803
300.8896555
117.6269609
68.48317491
47.46357699
37.95884405
33.51833729
31.33542871
30.0842985
29.53349974
29.11481992
28.94363106
28.84015203
28.78723575
28.73136049
28.76283831
28.81339003
28.8883939
29.00436602
29.18991558
29.53618742
30.20819358
32.67701262
44.16723728
100.103116
285.453363
116.5299326
68.27731698
47.45021161
37.91737227
33.42911443
31.22491485
29.96696473
29.41347882
29.00126591
28.83276831
28.73010025
28.67782721
28.61292033
28.64358332
28.69391511
28.77087447
28.89471594
29.08007523
29.43124136
30.1394918
32.8290427
44.58537279
98.62546164
271.7514578
114.9971941
67.92917332
47.38656602
37.86632486
33.34197282
31.11704547
29.85108548
29.29457307
28.87460668
28.70427972
28.60187126
28.55027798
28.51993667
28.54989999
28.59947447
28.67326318
28.78531634
28.97126599
29.32911956
30.0812958
32.98247554
44.92535794
97.10454692
260.2206578
113.3158663
67.56802564
47.32031271
37.8182805
33.25982432
31.0126396
29.7370944
29.17676896
28.76667506
28.59928831
28.49762409
28.44660412
28.39721793
28.42637459
28.47565746
28.55182472
28.67770326
28.86411128
29.23092348
30.03293833
33.1225586
45.13714495
95.05548659
252.131089
112.2143998
67.36842426
47.30619591
37.79085613
33.18815012
30.91360315
29.62572614
29.0607127
28.63557755
28.46544474
28.36393723
28.31351741
28.31283682
28.34140747
28.39014491
28.4635323
28.57077009
28.75933936
29.13836808
29.99639032
33.25248937
45.22845245
92.34719172
246.6511228
111.5667921
67.2993557
47.33797289
37.7860418
33.12929178
30.8212723
29.51768393
28.94634521
28.53750708
28.36997842
28.26889928
28.21890296
28.1831493
28.21098363
28.25942777
28.33482899
28.46701594
28.65793938
29.05419376
29.98045359
33.4251311
45.44881771
90.73592273
241.2548652
110.7930256
67.24173825
47.39002033
37.7967439
33.08165519
30.73577494
29.41350037
28.83475673
28.39711736
28.22671343
28.12561229
28.07607742
28.1113478
28.13883159
28.18717158
28.26211658
28.36483485
28.56115912
28.98126072
29.99352759
33.69077004
46.05062595
90.85664737
234.7300628
109.6904107
67.11157992
47.4227316
37.80930054
33.0409768
30.65598763
29.31376878
28.7259878
28.31622713
28.1459994
28.04478982
27.9954321
27.94613226
27.97291679
28.0212504
28.09846519
28.26926762
28.47091472
28.92189952
30.03725744
34.03308196
46.91733276
92.46091805
226.9676327
108.3095352
66.86742517
47.41642818
37.81180619
33.0024199
30.58025699
29.22005215
28.62325719
28.1360925
27.96245016
27.86073845
27.81167699
59.01552719
142.422323
74.27861855
64.38194292
181.2900719
147.7753246
72.53318117
179.2752934
182.6700028
82.44065692
162.2326536
177.213894
92.31125538
746.2333068
637.6368095
145.9244941
159.7445376
120.2103028
472.2806385
731.4290312
399.7557156
141.7246071
144.3387054
48.97343781
43.86784296
68.43376278
41.46584165
395.3994701
144.4745864
115.6811062
53.5344696
44.38849467
37.77165071
55.50276771
52.47741678
1288.822622
910.8814885
150.1132398
64.46715604
56.62287825
38.40849427
61.04279106
56.0574247
68.26945869
198.809811
175.3370828
757.1001492
1021.745182
152.8869304
70.39860614
66.46754454
39.08803772
68.12236818
61.86316915
77.00724871
302.3691246
234.6184097
441.3883666
575.6162168
39.97950244
77.7077798
69.02950957
85.71263641
489.096035
380.5525158
1651.044462
287.7788236
335.9218775
41.55080703
97.76960783
79.19688092
101.5885506
1135.51308
725.8646796
143.2774178
362.7739203
465.2029016
137.9788413
165.7712475
89.23990311
133.1660752
885.6449272
415.3808795
112.4125378
338.9683407
629.3260963
172.4535878
153.5539113
61.7547232
203.4598021
219.7353304
171.2788994
200.2459917
1032.432369
1290.553705
166.9520494
915.8835645
808.5441851
650.0702099
912.6504852
164.7071837
231.2027522
202.6926842
69.36179519
264.282112
310.1837529
221.9230879
260.9561141
600.0790233
741.4680052
182.9550111
574.4904106
457.554879
800.7233044
593.9434053
183.6236611
375.9295844
305.8949571
78.23138229
380.6242038
488.6446928
313.2286738
376.3064632
345.9707675
426.0821084
714.0281222
499.4760954
86.09450753
2457.571316
695.5576097
1091.327821
494.2908901
677.8224692
2867.683633
264.7895811
282.9942323
1457.957075
8600.083777
1146.711129
102.9653226
539.3789141
1810.432147
7709.626947
1101.27059
1777.682987
553.9121777
36.84028246
52.05936364
45.83361622
55.70331557
109.989285
78.42916901
2216.064311
386.0090678
61.29347444
151.2770443
131.6174881
4778.842884
142.2950201
72.00344481
71.15993073
5171.382578
627.6105205
697.4461009
485.1556696
235.3924545
255.8923593
128.5090819
112.6982196
56.75803964
1251.691663
190.7674963
451.5259869
122.0394968
301.3977776
104.0279509
713.110984
906.3872628
168.6480967
352.0890999
299.3263284
443.029973
361.8495142
171.0963154
1024.666613
3975.310184
646.0041895
67.13100242
55.47321083
82.52891807
127.2336831
65.13251597
68.87565358
2979.046224
279.5814327
2122.489989
297.0794828
1569.525268
252.4096142
1052.702352
1038.726578
864.7977164
883.1463083
1699.942786
3936.502968
492.1368933
2034.143839
1128.681074
4454.824941
2410.606907
511.7078474
419.9074679
151.5957607
159.3226268
527.3726044
598.387868
4564.45214
790.8494696
204.6891523
218.7804113
188.0103039
199.4356093
787.2638173
1069.729354
1251.412854
148.6290814
764.4893627
593.323616
1240.857977
767.1266622
151.868885
110.9996833
318.5576329
156.1664969
515.1105475
345.7157186
118.20953
475.9735451
756.436851
627.4448947
596.008568
205.8366215
1436.022867
206.4283162
184.1777263
1352.035827
1264.554438
1425.742279
1363.127835
188.06582
1088.587664
1098.758825
852.5022961
304.04302
296.4069112
305.8480108
305.1818505
846.9395336
771.9909953
271.2089669
249.3179192
292.7306219
277.5534313
786.9404628
285.1434512
288.1062932
238.4823869
240.8837976
635.63728
4631.701428
647.0830085
413.3452269
420.5716362
343.6343415
347.9832033
1067.362662
787.7141207
387.2122223
958.6063184
1577.896559
557.3885401
174.0179767
184.1449987
162.1261415
170.8999024
547.7962867
1120.584375
747.0219048
761.2202
535.45408
540.6147908
5413.178869
870.248238
455.1481285
506.7011195
224.8934769
237.3105782
1430.012789
2903.660687
1223.964892
2125.344139
1144.34953
6192.047022
2403.24307
5257.258254
1140.401954
616.4882997
3561.757642
1539.814668
2698.100754
1599.084932
2171.089059
43.08438308
106.0461933
100.6989896
157.4154604
4219.269986
7846.26752
287.2362074
129.423539
138.7409913
916.8294038
2537.187311
3701.96288
402.4837073
439.0973719
818.4490964
216.9359076
228.8187291
472.6409478
125.9306479
91.40804097
175.5641408
313.9443048
114.127487
131.7532254
1213.14419
2876.444977
3013.246327
974.9794613
804.3353733
2202.726931
1626.625798
3698.646361
3667.887915
978.3248588
275.0061658
121.3411124
126.0531707
115.5718727
119.8451283
269.199336
142.6335091
149.3174295
414.8547904
1041.534688
391.7281663
412.4574628
6448.504926
3086.684119
433.8838608
769.134749
2592.945906
2862.4162
446.451911
202.3119345
171.1321081
240.5141734
212.8470034
465.7863718
1058.61733
3627.498067
3702.117426
1231.165596
218.175563
110.3187712
114.227352
670.9114876
655.2064527
300.3723952
1540.585825
1420.86747
701.2643859
521.171743
276.5164059
286.3995821
721.9264795
300.4860249
305.1302992
289.8766417
297.9728195
709.6304509
336.5623659
134.7252945
140.585974
127.6952333
132.884733
331.9290679
393.6256477
1013.180542
1000.987787
1656.400546
1603.767949
465.8497791
324.950895
711.9660054
673.5839321
995.6776297
986.4622692
363.9866634
375.2498018
759.7392455
613.9383167
5665.816368
1652.725599
721.6650568
912.2204606
511.3393307
1694.356893
1664.762179
1706.484318
587.7906822
4443.891294
8886.707051
306.8976029
358.2271826
420.3048007
439.302201
1158.418189
1401.659158
909.7148637
500.3317624
1831.986403
7881.97308
1328.433293
1158.047352
16187.85301
1114.322525
1689.060138
1333.011612
1606.67362
1198.738113
4731.765232
4809.891896
1095.859653
1424.709222
5388.147774
1322.670963
1257.00869
292.9902121
1066.49572
431.2381281
1069.008548
318.5210841
3631.038391
2407.284493
802.8524183
4371.788069
5142.855387
4151.181466
2745.103972
870.9863832
4330.370625
5521.696665
2706.892858
4089.612981
5891.949003
1538.403854
2339.150178
1087.653964
1371.956963
5277.016684
3036.989485
899.0845926
563.2258511
1445.067129
987.0439151
509.873808
326.2082982
890.962635
3170.080961
4013.160833
1155.593236
990.3137259
3048.776454
3176.299539
2409.00687
2286.508691
822.6619031
4046.290336
3961.504255
2874.693999
3938.192267
3922.264534
953.6732177
3808.13811
2477.794472
2535.293299
2885.74596
1535.47602
727.1928032
784.3007639
3256.413976
912.2744701
1030.294956
807.6626467
878.2905614
3035.598026
3168.29167
858.160507
1011.284646
362.369006
384.5976064
942.385633
755.9592193
340.8911744
356.7916053
1185.096047
1201.985963
745.5963318
254.5975631
276.9323874
229.237981
248.2420723
736.9076185
824.6202709
318.2425489
350.9127658
285.1178979
309.8316575
829.8545647
451.6954942
206.5248777
223.7859234
665.8451872
698.7541848
1873.157251
1955.084137
729.8119587
2747.476428
2769.566694
3490.551358
1915.007898
1602.475907
2679.519339
1894.378992
507.2161377
1354.429542
1791.634874
1489.27709
464.9342703
530.3598013
438.2883388
453.6740134
1446.845901
584.0649842
597.2613757
552.2751531
579.3703139
1320.313553
382.1273325
396.4836307
359.3829341
377.1131546
1307.495305
1399.535529
419.6580553
433.1258046
401.1903837
415.0497873
1393.55148
3499.399526
3578.771433
1066.601644
1183.724857
3633.855769
3474.828786
934.9899144
942.4344187
904.570307
932.5879005
959.3268012
975.1331123
945.0626273
955.9297227
618.1289283
630.8893023
601.4117971
613.7544182
676.4384203
858.3197328
636.9440935
651.9304603
1340.15383
1562.077958
1072.042863
1248.16974
4878.218301
2458.697651
2680.338162
1666.408319
2353.757779
1030.006445
1020.341772
398.3325537
1681.57476
1688.011404
1642.604746
1670.033203
1738.973965
454.1367318
1564.110555
1088.797798
950.8334396
734.2648164
329.259365
1030.462868
1529.843517
976.3712943
1041.016305
1599.91076
1628.38172
1552.134589
1587.930417
359.9816286
983.4902419
971.063964
5215.08892
1135.865897
5059.468594
4305.218716
5039.693126
1214.84342
5906.996828
1468.319916
5587.990287
4719.815859
729.4802134
820.0728386
1733.3423
1700.325143
516.6741098
570.4017823
1806.463867
1736.771858
5360.912023
1204.100671
452.6787476
500.7367251
5729.078998
6550.158252
1914.79699
7125.636241
5002.170038
1607.518823
1116.469109
6174.492023
3321.307373
6879.926464
3799.410425
1625.494347
62.04500607
41.79562941
36.36356513
5246.552376
5221.752764
132.5510027
71.16020472
71.95438918
5473.628087
835.1565846
2407.408575
1599.330038
291.8237277
246.0414577
153.679983
269.9718485
195.758972
388.9888665
1411.900644
267.0455616
290.1981548
52.05233016
60.65306348
111.9388019
346.1396577
649.950346
943.6054078
187.9596953
100.9886142
104.3324993
96.76558733
99.92306058
184.6551576
737.4852668
819.4380054
2691.148164
586.3194506
516.5766395
313.2030682
321.8680512
336.1572964
750.1652082
1023.679595
1302.755287
479.6322411
105.482461
109.0776659
214.2809653
273.3582368
615.3430896
587.2646622
564.3214089
496.2583341
251.4108346
628.5672858
302.5834619
317.1777551
4112.204229
3819.721183
2146.061737
1722.195176
1698.283739
1066.332965
3383.536384
5365.279399
4734.456937
1107.849829
651.0705144
718.6759465
1813.46773
1107.526984
1759.17191
1744.871339
1777.802688
2355.005767
4605.849372
3109.575801
3539.846454
5100.073376
1313.980088
1062.357667
635.8303932
1281.071707
160.0339129
127.8495817
217.8887974
775.997526
2043.335036
1450.755814
5696.641714
6058.187014
6176.559033
5024.493203
5862.686626
88.03517842
109.6051772
255.157354
2437.664703
1602.670767
1242.872626
3131.200086
2486.429113
1860.474007
3493.919703
3169.120097
5115.601469
4820.692817
3382.649139
660.6159101
710.2979477
1414.754645
4612.802517
2333.694387
2614.593426
3918.264295
2203.447952
2617.498892
1116.982291
1500.652695
1233.233599
756.8947089
508.5220395
516.6835761
1201.090568
724.718856
766.4327811
521.8147496
533.2616049
782.8856349
181.7488345
201.5326709
425.1272218
542.4493255
980.5949986
698.6491199
1165.292986
1213.559819
758.7848335
1807.650047
1291.932327
1346.828285
868.8316473
871.728395
1441.634733
1464.85068
1480.372297
1381.107793
1405.062085
1339.471426
812.305805
817.4061264
784.4706022
791.2539327
1280.795362
1417.857045
856.1014494
860.8820671
822.8674066
828.3744749
1373.569666
633.224744
620.1896797
276.3058886
297.3684134
650.8861317
637.4341954
463.8420564
450.9364948
231.1799779
1525.538152
1528.502046
1486.938121
1492.902022
1907.009126
1537.676852
1539.045483
248.6670196
484.6021812
469.0278326
4499.90403
4446.026421
2744.302398
2910.086266
4600.506588
4493.263471
4688.129462
687.9878192
1371.017548
1147.672838
285.6589101
298.0227652
598.8054984
528.520434
272.2014912
282.185018
1094.5571
1094.251327
743.439984
764.028283
1103.54898
1107.997799
5360.745109
1511.094977
975.7412491
961.9739754
12836.75505
2385.406495
1452.519863
4423.687203
3520.1809
1833.458124
1810.255657
1128.189593
5963.695733
6511.512235
6209.92017
4799.7239
1202.94766
1882.026702
1821.922422
2439.645392
881.8338639
1020.558716
5147.566103
5060.843983
3832.599215
3533.146357
1947.988954
1110.96834
1081.083492
1280.457112
2971.015641
5147.33055
4338.091284
5202.71273
4966.458381
3422.740273
176.2341014
242.7685984
742.2553579
3078.488797
3003.13396
3162.516854
3139.614315
2943.476619
1924.072317
1906.27757
1942.760409
1927.182596
2952.363501
3739.901596
2111.329302
2126.578883
2028.742156
2087.781217
3805.166965
2707.31809
1747.839882
1581.410078
1892.337518
1842.104274
2780.753089
3615.412467
2159.632973
2173.764224
2141.824152
2149.416769
3657.782089
3249.638291
3185.595887
3324.319948
3183.820818
1010.968045
688.6876947
692.722948
1640.42371
1025.848377
1030.530428
996.5668234
1018.675894
1627.966311
5298.044994
5532.889066
4763.258434
5381.925596
1717.269094
1731.891451
1686.442828
1702.232271
2191.79838
1008.794712
1650.422886
1583.84467
1683.03476
1037.91703
1042.165278
1032.730079
1035.873856
1675.7007
1619.404505
1663.658297
1122.942808
1554.058985
2162.083764
5724.272144
5303.77313
3897.657701
5588.105417
847.958905
1205.421928
13044.74262
1159.956416
785.6773995
789.4972823
1835.28432
7478.775498
7722.689764
9268.040868
5789.793498
5311.795138
1776.001193
1763.517997
1108.731355
1739.361761
2037.55591
2864.169046
2005.000963
2686.165216
2012.999166
790.2138127
2806.769844
2015.351428
4783.751428
4992.969129
5329.742648
3867.536479
4513.709173
1280.71835
1615.893504
904.1965356
459.9642376
634.1577971
1003.652024
1112.649595
662.8474208
978.154782
1292.514916
4989.046921
5280.06007
4903.478899
4980.928177
5828.195557
5767.008399
5581.708776
3187.872966
4879.994626
4390.099365
5556.441015
5767.773628
3630.125528
3995.244791
4467.613924
5818.471455
4645.083755
3135.687153
3500.208062
2291.497973
1657.881281
2329.407613
1232.957911
1779.428435
2364.417399
2601.421346
2406.224182
3300.635022
2086.516017
1975.926283
2836.62908
2060.398737
3094.813661
3091.53314
1962.143802
1946.209762
1986.649205
1961.368014
3111.768995
2369.51827
1431.109345
1454.128147
3997.304002
3987.6655
3375.529047
4420.426836
4252.481122
4077.164486
3986.016628
4177.727391
3123.956521
1701.935893
1895.853303
1490.987851
1563.246876
2658.707777
4860.542702
4047.89834
2124.805049
5209.075962
4967.928749
4950.088564
3054.197718
4839.265071
4677.657755
1774.600514
1995.341357
3856.98281
1157.82111
1224.666412
581.1080569
653.8131258
1153.923182
782.5007827
537.9530511
561.4882729
1094.007228
1056.34053
625.1969702
1067.210911
1400.039678
703.7838729
1153.207912
1134.896858
1874.191962
1298.32247
1277.063773
1425.685767
1380.237093
1977.740494
2904.126986
2728.442194
1794.356776
2625.822672
2743.995481
2475.827491
2599.468072
1762.707208
2622.504701
2581.988541
3293.004577
2460.762366
933.454993
925.9837305
1409.595709
1454.205061
884.6584281
881.7105664
1442.820067
1456.204069
1418.922586
1432.48418
803.8845242
808.4297752
1333.369184
1294.17022
795.5246773
799.6071693
844.4641934
849.450334
1407.083519
1384.998169
834.1980187
839.3756911
3546.717142
2207.000456
2219.301855
2181.114291
2192.312673
3540.047085
3480.817694
2434.607658
2806.873002
2245.27339
2299.481186
3482.369713
937.6178558
1525.792716
1514.453941
1541.914502
1534.334231
939.8901653
922.9822329
1476.663038
1457.87362
1503.867971
1491.306365
929.2945222
965.0872492
1592.123643
1581.04994
1608.524601
1597.720225
967.9833234
948.1898278
1556.732561
1549.991734
1574.385413
1564.24771
951.3261749
1512.931152
1517.498566
622.2336575
915.0835652
911.9383068
922.6553763
920.0545829
627.0825991
1500.623973
1505.920762
1586.674079
1500.292748
697.8963742
982.5371517
992.1943558
1421.141333
1366.025342
777.269661
639.606552
930.7275423
929.302203
939.2649845
942.8539636
650.0806675
1551.468851
1544.094071
4465.814707
4322.82262
4689.056465
3123.897736
3704.836276
2528.547148
4247.318896
4305.038721
4238.213188
4246.851207
2589.39796
1854.184536
3568.195535
3003.598138
4169.140863
4312.178092
2137.131459
1034.26224
714.2128069
716.2038995
699.6893153
702.4801007
1021.188843
1682.151141
1697.383846
1648.91576
1666.978665
1639.939915
2093.362637
1496.617647
853.0721449
944.5170663
743.5221502
766.9864863
1077.51499
1431.325651
1998.741748
1569.8049
1491.940489
989.1532115
1624.091885
1609.482557
1662.680228
1616.183551
985.3085849
1608.145934
1620.931465
1565.521485
1578.285557
4855.729957
3041.077129
3262.664342
2227.266569
2699.767722
4951.337122
4960.439742
4791.117799
3580.982787
4159.56454
5309.446021
5380.274868
3874.624561
4126.784715
2953.732633
3437.159194
5575.319793
1765.576763
1766.689659
1747.632247
1751.160296
1151.836107
1164.150448
794.7948744
1830.865467
1729.907963
1785.505285
1775.70984
1717.593737
1052.56727
1061.088399
1044.443909
1050.490587
1713.51926
1756.697909
1075.742728
1135.389816
1062.933642
1078.648306
1760.156213
5143.214871
819.1910371
824.9393897
1207.810856
5548.034699
8652.736853
9039.882817
8397.295188
8450.648038
6192.58554
1862.461179
6126.483965
4239.418223
4644.592954
1125.586164
1801.17551
1784.184912
6136.118807
6761.312128
6493.277416
5240.381148
5740.216908
7175.284154
6782.418676
4217.207763
6430.354587
5486.601964
2234.202977
1792.080686
1191.31136
31.77145638
31.78383515
31.8666695
31.7889514
31.81053173
31.88023342
31.81868634
31.85027029
31.90101259
31.86074054
31.89568624
31.92630063
31.9052681
31.93378058
31.94693978
31.93885295
31.94337316
31.95353166
31.94132633
31.92223655
31.9430101
31.91365337
31.88312021
31.92086373
31.8728928
31.84040386
31.89753718
31.83132828
31.80590773
31.87897496
31.66197919
31.68765634
31.75792975
31.69899257
31.74359154
31.79027098
31.76132145
31.82465148
31.83805845
31.84717833
31.91694347
31.8927367
31.93617011
31.98496225
31.93658546
31.99540323
32.00551999
31.94733969
31.99544212
31.95987632
31.92344346
31.94180715
31.88070485
31.87558133
31.86053742
31.79770746
31.82581196
31.78014818
31.73096041
31.78427258
31.56714372
31.61849709
31.66732345
31.64064541
31.7272359
31.73363404
31.76261421
31.896246
31.82988939
31.94805788
32.12102041
31.93905402
32.15679265
32.27631856
32.0314935
32.29760387
32.32485141
32.04104031
32.27992189
32.18717039
31.98714897
32.13897474
31.9947922
31.89363549
31.94778295
31.82074464
31.7970154
31.78416169
31.69287268
31.71712825
31.49238158
31.5803693
31.60574421
31.62112979
31.7912565
31.73388117
31.86972802
32.18624285
31.94241876
32.32355897
32.8666649
32.20786709
32.99129228
33.48372968
32.46885679
33.55463727
33.56011145
32.460536
33.33904458
32.94436424
32.28966248
32.78281644
32.37735268
32.05647085
32.26033291
31.97379309
31.84381038
31.89676977
31.71581639
31.69316284
31.44103261
31.58599609
31.57753284
31.65808224
31.98429006
31.82635138
32.14451962
32.89818918
32.31328125
33.28793903
35.44447249
33.15765853
36.30869108
41.84156871
34.28766972
41.89031257
39.7013045
34.12082018
37.8209764
35.28783389
33.27956615
34.64400191
33.32725683
32.54678321
33.01875273
32.34758999
32.042632
32.18485863
31.82491811
31.73321791
31.40697787
31.63420972
31.59450025
31.75003794
32.30136785
32.05355216
32.59212765
34.14919184
33.16803963
35.11507623
44.45295311
36.41259035
41.70971332
47.88646701
40.23448488
59.17772749
57.19778302
44.5664469
46.94262264
41.70226618
39.28576233
39.32110186
35.27004793
33.70704815
34.50377855
33.02766373
32.48757445
32.70726477
32.04573708
31.86891783
31.3879344
31.70834197
31.65080886
31.87174596
32.65706021
32.39157059
33.07648095
35.38197052
34.4972997
36.08309145
37.96430729
37.30810125
52.74130128
59.58538984
56.95865711
87.37550271
63.44093643
53.53549902
47.31865807
38.26584425
35.93996179
36.74466659
34.01498561
33.25138277
33.46269492
32.37245665
32.1187678
31.37917924
31.78682399
31.72840953
31.99097961
32.9525529
32.73749226
33.45575994
36.13243949
35.60738397
37.3745118
39.73119268
39.40751414
60.12375433
70.87899044
69.89616127
137.5686346
86.82353427
78.44286052
55.18342355
41.51001381
39.09694918
39.20751122
35.1284723
34.29128772
34.32071451
32.75560863
32.46510159
31.37361696
31.85680376
31.80521277
32.09357157
33.18035283
33.01464533
33.73593881
36.62710986
36.26501211
38.10086351
40.69104779
40.46023981
66.21979959
87.38438659
84.86645236
154.3188741
99.37986096
96.1184359
60.12783462
44.06420451
42.24188893
41.23334292
36.12599148
35.39804135
35.10561205
33.12623868
32.85063798
31.36830538
31.91617388
31.87232726
32.1799891
33.36767392
33.2290813
33.96638467
37.08178835
36.72984016
38.72862873
41.69451929
41.36712846
74.68992504
102.0068287
98.88493078
148.3497765
101.2303129
101.4419979
62.06215723
45.58339452