/*--------------------------------*- C++ -*----------------------------------*\
| =========                 |                                                 |
| \\      /  F ield         | OpenFOAM: The Open Source CFD Toolbox           |
|  \\    /   O peration     | Version:  v1912                                 |
|   \\  /    A nd           | Website:  www.openfoam.com                      |
|    \\/     M anipulation  |                                                 |
\*---------------------------------------------------------------------------*/
FoamFile
{
    version     2.0;
    format      ascii;
    class       surfaceScalarField;
    location    "0.04";
    object      phi;
}
// * * * * * * * * * * * * * * * * * * * * * * * * * * * * * * * * * * * * * //

dimensions      [0 3 -1 0 0 0 0];
oriented        oriented;


internalField   nonuniform List<scalar> 
25162
(
0.0004462031467
0.9162037969
0.0005626719595
0.9165835312
0.0006744780368
0.9165381939
0.0003292077181
0.9165583229
0.0004369474278
0.4583379977
0.00034121002
0.4583011295
0.0004250578922
-0.0004261874347
-0.0005362392428
0.4582744269
0.0006118123497
-0.0006848408137
0.4582213201
0.0007985206986
-0.0009219253415
0.4581971712
0.001054754143
-0.001204753003
0.4581762215
0.001363531496
-0.001520863488
0.458182269
0.001673594466
-0.001818213531
0.4582204583
0.001929255261
-0.002010653105
0.4582933244
0.002050828682
-0.002043592884
0.4583842778
0.00199431509
-0.001909697528
0.4584476271
0.001792070474
-0.001660585922
0.4584772316
0.001518354285
-0.001362771238
0.4584771434
0.001220627802
-0.001080830298
0.4584781436
0.0009176866949
-0.0008538092218
0.4584488993
0.0007549099778
-0.0006215264606
0.4584595067
0.0005120198147
-0.001740793047
0.9186282306
0.0002228804183
-0.0004603179878
-0.001086091769
0.9186952987
-4.208516719e-06
0.9157681168
0.9137957915
0.001227524273
0.9149762726
0.001963566368
0.9158474891
0.002275066187
0.9162266941
0.0007063357546
0.9169886383
0.00113841504
0.4580330938
0.0008484535639
-0.4581752117
-0.4581526245
-0.001042377822
0.4579103444
0.001284657992
-0.4579957333
-0.001583145511
0.4576381844
0.0009112888751
0.00102940555
-0.22893261
-0.001102847412
0.2288391398
0.001196317557
-0.001591810661
-0.2288688193
0.2287460482
0.00171458179
-0.00220320786
-0.2288217034
0.2286657877
0.0023591236
-0.002899197992
-0.2288279479
0.2286599694
0.003067176406
-0.003552318118
-0.2289065533
0.2287748814
0.003683907477
-0.003820005751
-0.2290691017
0.2289630198
0.00392622134
-0.004071217259
-0.2292440758
0.2292546122
0.004060680856
-0.003791575095
-0.2293569784
0.2294661434
0.003682410098
-0.00324800966
-0.2294163031
0.2295790677
0.003085245015
-0.002603853551
-0.2294156929
0.2295878384
0.002431708084
-0.001993393474
-0.2293779637
0.2295294992
0.001841857978
-0.4588481087
-0.002768610578
0.4602422175
0.001374501758
-0.0001004539561
0.4608933265
-0.001557046361
-0.4592358262
-0.001788879582
0.9180681736
0.0005836481608
0.001765288501
-0.001091092353
0.9179975115
0.000307534051
0.9143694904
0.9141033255
0.001560480482
0.9134157921
0.004159268813
0.9132487008
0.007041706172
0.9133442567
0.00294833729
0.9146616842
0.006420322957
-0.457964122
0.4577496755
0.003162783792
-0.457682192
-0.003192625163
0.4582752175
0.002599599674
-0.4571506668
-0.002748389989
0.4568416276
0.001479029396
0.001578399701
-0.2283853065
-0.001828450447
0.2281879242
0.002025832765
-0.2281362735
-0.002730291869
0.2278646228
0.003001942564
-0.227946524
-0.003710603696
0.2287168427
0.002937799287
-0.2299361352
-0.0002545338288
0.2306068701
-0.0004248221974
-0.2297912206
0.001715669682
0.2299818283
-0.001912198902
-0.2284534222
0.001855710221
0.2282542279
-0.001654677843
-0.2274931468
0.0005316497355
0.2269638737
6.246229723e-06
-0.2282818925
-0.002165552438
0.2274032078
0.003052847579
-0.2303090285
-0.00583985218
0.2304106978
0.005738882751
-0.2303191881
-0.004757607556
0.2306456517
0.004431143976
-0.00324280616
-0.2302147221
0.2308703219
0.002587206357
-0.4628159662
0.0004552684079
0.4615802873
0.0007804104662
-0.4599504637
-0.0009776304638
0.4598916399
0.001036454259
-6.385335508e-05
0.9197062647
-0.0009400302744
-0.0006342074568
0.001481162749
0.9164524954
0.000689874626
0.9151607785
0.9147932002
0.0005644553693
0.9128513367
0.001238786382
0.9125743697
0.002542079886
0.9120409632
0.00332311181
0.9115857392
0.002294913123
-0.4569500093
0.4564722773
0.00380084379
-0.4597568892
-0.005064879655
0.4566437863
0.008177982561
-0.4582243748
-0.009514097099
0.4596877193
0.002343698498
0.005707054059
-0.2274625665
-0.002382608254
0.2272283008
0.002616873859
-0.2274065492
-0.003238504542
0.2282898543
0.002350320142
-0.2312275392
-0.000118273609
0.2317209039
-0.0003967542037
-0.2316496485
0.001071687447
0.2315635169
-0.001008131926
-0.2297599357
0.0001777234955
0.2293517672
0.0002185946697
-0.2275459915
-0.001362833606
0.2272671367
0.001644998322
-0.225983902
-0.002109367222
0.2259382962
0.00217266715
-0.2256801006
-0.002428561979
0.2255167685
0.002617480408
-0.2278156323
-0.00370652787
0.2273037232
0.004238369518
-0.2341819665
-0.00153354996
0.23774332
-0.002027368157
-0.003307521103
-0.2316742256
0.2316651695
0.003316577258
-0.4614915592
-0.005009434036
0.4626097149
0.003891278347
-0.4605596386
-0.002759098549
0.4614833285
0.001835408666
0.002697459267
0.9195295832
-0.001346418997
-0.00117435884
0.001915579078
0.9172343756
0.0008854310331
0.9161909265
0.9156786312
0.0001691074459
0.9126822293
0.0004065069951
0.9123369702
0.0008352747195
0.9116121955
0.001438847172
0.9103858475
0.0005963191926
-0.4561532047
0.4553179445
0.002274107334
-0.4551470256
-0.002754858074
0.4544459337
0.003455949932
-0.4534923868
-0.004409270561
0.4526095079
0.002787823253
0.00250432626
-0.2277609888
-0.004697400308
0.2259678861
0.006490620036
-0.2308483153
-0.007487491582
0.2333042233
0.005005007321
-0.2318377116
-0.001377999271
0.2314706859
0.001706389413
-0.2297236894
-0.004065012426
0.2285500181
0.005208072894
-0.2268033146
-0.009235475077
0.2254326509
0.01059276432
-0.2262219344
-0.01365329819
0.2257636869
0.0141147339
-0.2268933795
-0.01352221219
0.2278002717
0.01263555947
-0.2266607815
-0.008569706928
0.2277994339
0.007467309696
-0.2353501015
0.003169140962
0.2314190378
0.0007890778814
-0.2301496286
-0.004464796214
0.2299600484
0.004672550421
-0.004914163439
-0.2329610595
0.2334680579
0.004407165008
-0.4641652712
-0.005808047238
0.4656433776
0.004329940791
-0.4623442166
-0.00328889672
0.463224342
0.002408771315
0.003440094427
0.9212384533
-0.002936205243
-0.00221275922
0.001884883531
0.9187895865
0.0008550196885
0.9172207904
0.9165336509
-0.0001327714903
0.9128150008
-0.0001530657405
0.9123572644
9.65625824e-05
0.9113625672
0.0003341938263
0.9098472559
0.0003009604066
-0.4543975684
0.4540382173
0.0006935449229
-0.4538656748
-0.001710522477
0.4530329652
0.002543232129
-0.4516738716
-0.003179896171
0.4505417788
0.002137646054
0.002174342884
-0.2263951354
-0.002266414721
0.2265306674
0.002118623111
-0.2294645311
-0.002473900243
0.2289901423
0.00291039502
-0.2302408312
-0.007351267603
0.2274088068
0.01014244438
-0.2246862408
-0.01657021749
0.2247760584
0.01645545958
-0.2197867593
-0.02308920138
0.2185525757
0.02431693369
-0.2237488891
-0.03085109039
0.2228687043
0.03173185961
-0.2337278886
-0.02683183463
0.235162042
0.02540876941
-0.2391805166
-0.01284895268
0.2380894532
0.01397150523
-0.2306260226
-0.01144171825
0.232171615
0.00993795621
-0.2309378997
-0.006556369419
0.2317795443
0.005749195478
-0.004087927858
-0.2348083993
0.2349998271
0.003902468378
-0.4669140084
-0.005972587035
0.4681870179
0.004699577575
-0.4637088328
-0.003767385419
0.4641436023
0.003332615852
0.002808658862
0.9233254339
-0.002351127653
-0.002544511844
0.001528025616
0.9200702197
0.0006249329684
0.918123883
0.9171585839
-0.0005815617136
0.9133965625
-0.001021551539
0.9127972543
-0.001286523011
0.9116275387
-8.338692583e-05
0.9095071734
-0.0008630535727
-0.4538820089
0.453545797
0.0002528249351
-0.4519271117
-0.0005228635695
0.4515121354
0.0009378398673
-0.4500609398
-0.001970130005
0.4495837432
0.00119603112
0.001251871654
-0.2260911392
-0.001341860719
0.2258507835
0.001562627688
-0.2274375278
-0.003059947206
0.226080704
0.00436958606
-0.2226434344
-0.007253229151
0.2213624801
0.008492064798
-0.2148150388
-0.01419200331
0.2115469517
0.01744536899
-0.2105987032
-0.03298168587
0.1070147549
0.1013322705
0.01546802319
0.01976534049
-0.02448779275
-0.1088057375
0.1082093598
0.02508417042
-0.0199197398
-0.2471302246
0.03802967456
-0.02035820293
0.1242344683
0.1251440245
-0.02804405885
-0.2436128125
0.2473181645
0.02435925384
-0.2384628223
-0.01514914778
0.2408658384
0.01279153466
-0.2351565245
-0.007942779071
0.2363736764
0.006758688596
-0.004256295031
-0.2355579673
0.2360679639
0.003759175041
-0.4694436537
-0.005009110283
0.4701612634
0.004291500576
-0.4650267983
-0.003218532668
0.4658992982
0.002346032824
0.001523115153
0.9247724674
-0.001371820096
-0.001598328547
0.0006795570763
0.9209137778
0.0002362128141
0.9185672273
0.9173947967
-0.001057688916
0.9144542514
-0.002055313465
0.9137948788
-0.002845807314
0.9124180325
-0.001467049516
0.9102081601
-0.00207974449
-0.4535167136
0.453516078
-0.001466413914
-0.4513192238
0.00151714921
0.4512142498
-0.001412175142
-0.448270065
0.001231490511
0.4479843189
-0.000389051419
-0.000555374995
-0.2247500916
-0.0004799568168
0.2243232367
0.0008815987108
-0.2235907319
-0.002502154153
0.2230335198
0.00301521681
-0.2180318294
-0.005162719651
0.2171763136
0.005983237732
-0.2066353372
-0.008318070047
0.2059968329
0.00895243636
-0.09480758446
-0.005932297486
0.09480927042
0.005930611522
-0.02772510521
-0.1362316931
0.1388941166
0.02506268165
-0.02785165519
-0.2592534551
0.2630133826
0.02410029956
-0.2476238105
-0.01573224183
0.2498212264
0.01356908163
-0.240776208
-0.008345582388
0.2422308505
0.006929886874
-0.003456517751
-0.2380667136
0.2387219651
0.002811342396
-0.4712467933
-0.002886492684
0.4721222029
0.002011083174
-0.46658497
-0.001406667584
0.4671503941
0.0008412435013
-0.0005185094336
0.9253884817
0.0002166710592
-0.0003141759443
-0.0005653143876
0.9209605828
-0.0003322747589
0.9183341877
0.9170625219
-0.001530743832
0.9159849952
-0.002989524482
0.9152536595
-0.00452013383
0.9139486419
-0.002646674865
0.9115897638
-0.00325506266
-0.4537493833
0.4539738736
-0.002871165084
-0.4513092403
0.00313546738
0.4515601075
-0.003386334553
-0.4478625191
0.003619731899
0.4480394245
-0.0017711267
-0.002025214901
-0.2235311443
0.001682187724
0.2232232162
-0.001383652497
-0.2210630979
4.518160114e-05
0.2205276704
0.0004733834168
-0.215549895
-0.001810678595
0.2152743718
0.002072411921
-0.2064592822
-0.001828132095
0.2070303075
0.001256378655
-0.09841717598
0.001020654754
0.09893806423
-0.001541543007
-0.01247625532
-0.151845158
0.1525033675
0.01181804578
-0.01486539615
-0.2714695852
0.2729836594
0.0133535102
-0.2553388258
-0.009236295641
0.2565972341
0.007990949208
-0.2458200953
-0.004551531611
0.2467476286
0.00363773047
-0.001380034757
-0.2405853267
0.241108635
0.0008629882355
-0.4732397069
8.693770751e-05
0.4741277415
-0.0009749722871
-0.4674088374
0.001346502139
0.4675268689
-0.001464533636
-0.002960360506
0.9247166124
0.002046306639
0.001585923126
-0.002076462458
0.9200766847
-0.001074521115
0.9173322463
0.9159880008
-0.001964401043
0.9179493963
-0.004045724706
0.9173349832
-0.006077641903
0.9159805591
-0.003818981987
0.9137649651
-0.004433861294
-0.4544363172
0.4548958885
-0.004278553264
-0.4519177873
0.004811145369
0.4525265827
-0.00541994078
-0.4484058171
0.006015231574
0.4490427095
-0.003125793901
-0.003521726939
-0.2224868039
0.003211573318
0.2222896692
-0.0030055184
-0.219260331
0.002060366823
0.2189370723
-0.001724487389
-0.214945583
0.001072717538
0.2149650033
-0.001084004359
-0.2090813178
0.00213609945
0.2098003032
-0.002854789888
-0.1013651514
0.002677426547
0.101609722
-0.001447343417
-0.001474653783
0.004668961506
-0.1507988113
0.1499121606
-0.003782310806
0.001613862409
-0.2734562342
0.2724765071
-0.0006344859254
-0.2584435328
-0.0004271131566
0.2585178312
0.0003505604447
-0.2488296161
0.0005119455204
0.249200788
-0.0008859383834
0.001802658559
-0.2421775229
0.2423653818
-0.001992067988
-0.4740431761
0.004289951651
0.4734935276
-0.003740303107
-0.4672892913
0.003549519671
0.4675657584
-0.003825986827
-0.005644053145
0.9227088991
0.004126991691
0.003524774815
-0.00370198087
0.9181346124
-0.001870392036
0.9155006575
0.9141176088
-0.002474253136
0.9204236494
-0.004949386178
0.9198101162
-0.007589005074
0.918620178
-0.004938783321
0.9166456394
-0.005530895959
-0.4555749456
0.4562528561
-0.00561669377
-0.4532292793
0.006442679754
0.4540153745
-0.007228774967
-0.4500272389
0.008143636368
0.4512313951
-0.004557657553
-0.004777496884
-0.2218420642
0.004514803632
0.2217283442
-0.004371806651
-0.2181864908
0.003675361291
0.2179985111
-0.003444648435
-0.215284797
0.003200283982
0.2154686698
-0.003355309328
-0.2119812848
0.004772613696
0.2127197866
-0.005510721324
-0.1030731639
0.003786402594
0.1032415697
-0.001964513575
-0.001990294817
0.01416516315
-0.1418486939
0.1405548904
-0.01287135964
0.01386297535
-0.2673204598
0.2650976808
-0.0116454694
-0.2574356007
0.00771162467
0.2565313671
-0.006823445585
-0.2495413826
0.005785023367
0.2493209943
-0.005586257243
0.005179451793
-0.2422453843
0.2420755328
-0.005020083085
-0.4726004122
0.008270696476
0.4714060249
-0.007076309147
-0.4677084203
0.006011501058
0.4667460774
-0.005049158208
-0.008112327317
0.9195916223
0.005818531342
0.005411072727
-0.005269048685
0.9152913338
-0.002590767694
0.9128223765
0.9115268411
-0.002928998495
0.923352648
-0.005890773144
0.9227718909
-0.009008554523
0.9217379594
-0.005933063068
0.9198483713
-0.006278223339
-0.4571045914
0.4579467199
-0.006775191584
-0.4550194928
0.007755326449
0.4560803942
-0.008816227859
-0.4523660552
0.009983860399
0.4537294623
-0.005504711631
-0.005819496098
-0.2214583103
0.005478205457
0.2213844519
-0.005351994295
-0.2175926295
0.00475671389
0.2175062278
-0.004596428941
-0.2162378929
0.004634497751
0.2165696335
-0.004917984188
-0.2150585527
0.006795192235
0.2159024727
-0.007639032031
-0.1043860709
0.004979926116
0.1045644697
-0.002560995011
-0.002597329878
0.0174882018
-0.1317284001
0.130448905
-0.0162087067
0.01992981038
-0.2581875453
0.2559990861
-0.01775944831
-0.2537615349
0.01279743529
0.2531747873
-0.01225250754
-0.2479721166
0.01046181322
0.2472971394
-0.009817131086
0.007983483429
-0.2405883064
0.2399045993
-0.007313621613
-0.4699608523
0.0115497908
0.4682768316
-0.009865770119
-0.4657200282
0.008396825873
0.4644614555
-0.007138253236
-0.01030012884
0.9171287965
0.006632974201
0.006129980484
-0.006625773101
0.9116169781
-0.003215813186
0.9094124166
0.9083110279
-0.007009017858
0.9303616658
-0.01420692387
0.9299697969
-0.02153021727
0.9290612528
-0.006966080623
0.9276460709
-0.0223618363
-0.4589832953
0.460020965
-0.008003750287
-0.4571830828
0.009147065282
0.4584734619
-0.01043744436
-0.4545940787
0.01173644772
0.4549503296
-0.005936219677
-0.006095972698
-0.2212616714
0.005624948533
0.2210571112
-0.00533460743
-0.2173397873
0.005082660571
0.2174160274
-0.005053009172
-0.2177798752
0.00562621138
0.217970961
-0.005752257106
-0.2187149412
0.008163718455
0.2197485872
-0.004580814679
-0.004616549841
-0.0531529737
0.003133171434
0.05322154164
-0.003201739365
-0.05766202012
0.00646865077
0.05716652877
-0.01258818286
0.006615023436
0.01584516426
-0.122791962
0.2420186747
-0.02778953268
0.01545098061
-0.1227333249
-0.2500619506
0.02113781944
0.2483815791
-0.01949447332
-0.2497822131
0.01584227449
0.2486630382
-0.01478936804
-0.2452762251
0.01243298421
0.2444996641
-0.01171443058
0.009447514759
-0.2372114235
0.2363435062
-0.008592798171
-0.4662741055
0.01369748114
0.464277771
-0.01170114655
-0.4631613501
0.01017679401
0.4617574216
-0.008772865502
-0.01199855397
0.9135209704
0.008019963859
0.007586416204
-0.007718131242
0.9073365554
-0.003795093875
0.9054893792
0.904515934
-0.003451106115
0.9338127719
-0.007009597664
0.9335282885
-0.01078838649
0.9328400416
-0.007380093397
0.9317773362
-0.007539558334
-0.4630806569
0.4641732262
-0.008472662704
-0.4615578835
0.0096940932
0.4628770477
-0.01101325742
-0.456350259
0.01245658746
0.4581985092
-0.006996107625
-0.007244170586
-0.2207683916
0.007318447622
0.220879562
-0.007341919802
-0.2173684496
0.007075550328
0.2173727722
-0.006966070783
-0.2200321938
0.00698440031
0.2203083275
-0.007192958237
-0.2234781476
0.008801373577
0.224626259
-0.00497748094
-0.00497200396
-0.05520069101
0.007210539188
0.110844317
-0.05515571219
-0.003843739155
-0.003854713841
-0.1107005906
0.008618565781
0.1105987593
-0.01687651303
0.008359778555
0.0268564769
-0.2351156933
0.2334553191
-0.02519840155
-0.2437972441
0.01793439837
0.2430036991
-0.01720832605
-0.2460902802
0.01546751127
0.2468104228
-0.0162769449
-0.242177261
0.01412689403
0.2407998683
-0.01280506047
0.009738308437
-0.233179126
0.2323316876
-0.008892559426
-0.462534973
0.0144632887
0.4609874076
-0.01291572327
-0.4603445595
0.01141790968
0.4586976253
-0.009770975496
-0.0114240745
0.9090925341
0.007851131638
0.008001379194
-0.008393271447
0.9043057523
-0.004103889947
0.9011999977
0.9004120441
-0.00359138092
0.9374041529
-0.007287851799
0.9372247593
-0.01119664822
0.9367488381
-0.007664208807
0.9360117451
-0.007766848386
-0.4653441406
0.4665041431
-0.008824211355
-0.4642117739
0.01007929768
0.4655505333
-0.01141805703
-0.4607551674
0.01286880214
0.4636454724
-0.007850500119
-0.007892880765
-0.2219771137
0.009413455553
0.2226505383
-0.01001497605
-0.2176700527
0.0111281216
0.2179309675
-0.01128558878
-0.2204875138
0.01125012467
0.2204213161
-0.01111076025
-0.2266518072
0.01046952499
0.2264339503
-0.01023741174
-0.1140686531
0.01272635858
0.2277030832
-0.0125774323
-0.1137833564
-0.2237340028
0.01821737864
0.2243264021
-0.01880977789
-0.2322085791
0.0202389409
0.2325893154
-0.02065296699
-0.24146369
0.0206086922
0.2410487568
-0.02029054804
-0.2437128858
0.01868946189
0.2428755434
-0.01796487778
-0.2371256962
0.01525573463
0.236697383
-0.01488102067
0.01093565827
-0.2315616521
0.2292549114
-0.008628917553
-0.4596332192
0.01605452928
0.4566263582
-0.01304766828
-0.4570291893
0.01168805397
0.4551119041
-0.009770768783
-0.01175250291
0.9047873251
0.008098200455
0.007959511492
-0.00841245503
0.9009657044
-0.004292361326
0.897079904
0.8961196828
-0.003634635735
0.9410387886
-0.007364171282
0.9409542949
-0.01128226877
0.9406669355
-0.007733631373
0.940220419
-0.007757311287
-0.4676589421
0.468819591
-0.008894280277
-0.4668739003
0.01012778774
0.4681742088
-0.01142809627
-0.4660650796
0.01282159157
0.467584915
-0.0071989622
-0.007142606763
-0.2257842425
0.01014904681
0.2272255805
-0.01154809371
-0.2195548703
0.01494995322
0.2204609951
-0.01577435143
-0.2204615647
0.01724380586
0.2207074793
-0.01741758183
-0.2256902909
0.01727316441
0.2255610119
-0.01711003793
-0.2254403504
0.01670520254
0.2242543628
-0.01551771893
-0.2274902969
0.01909443713
0.2283796223
-0.02000749703
-0.2341981277
0.02232173533
0.2346175743
-0.02280536123
-0.2399962349
0.02300131517
0.23952487
-0.02262949394
-0.2398814173
0.02026749209
0.2386376937
-0.01911583275
-0.2325400232
0.01484670974
0.2308887147
-0.01322739937
0.01032384239
-0.2274162435
0.226849773
-0.009757371902
-0.4560169801
0.01631527842
0.4534612548
-0.01375955306
-0.4523721921
0.01048629755
0.4509069066
-0.00902101199
-0.0108778515
0.8990471076
0.008564774529
0.008053294483
-0.005959263217
0.8960471162
-0.004327008177
0.895447649
0.8917926746
-0.003591400408
0.944630189
-0.007263725928
0.9446266204
-0.0110930112
0.9444962208
-0.007613603433
0.9442902418
-0.007549230499
-0.4699332634
0.4710477102
-0.008728050271
-0.4694355916
0.009898445594
0.4706542601
-0.01111711402
-0.4690190697
0.01240477696
0.4703813936
-0.006923309434
-0.006843791418
-0.2326791743
0.007681382454
0.2344588568
-0.009456105625
-0.2244997489
0.01543372179
0.226292682
-0.01717916254
-0.2226194395
0.02137483396
0.2237011824
-0.02240218304
-0.2259821497
0.02447977704
0.2264593766
-0.02492545146
-0.220526171
0.02489807248
0.2194255162
-0.02379982629
-0.2300000136
0.02653095293
0.2302146558
-0.02678282752
-0.2348654413
0.02692863779
0.2345403114
-0.02667178212
-0.2371568231
0.02468400532
0.2359840373
-0.0235906562
-0.2339657129
0.01911639365
0.2320918873
-0.01729503406
-0.2259047072
0.01144858344
0.2253412917
-0.01088535288
0.009475993838
-0.2253421141
0.2248852693
-0.009019149038
-0.4499149691
0.01531414597
0.4483277116
-0.01372688848
-0.4494568679
0.01221051001
0.4479893492
-0.01074299132
-0.009994232325
0.8924479829
0.009181321137
0.007412035833
-0.005520171624
0.8915730555
-0.003940704613
0.893868182
0.88785197
-0.003477927168
0.9481081162
-0.00702075526
0.9481694485
-0.01068432463
0.9481597902
-0.007333097778
0.948137349
-0.007198334097
-0.472100104
0.4731405007
-0.008373494469
-0.4718192112
0.009454874087
0.4729308735
-0.01056653636
-0.4716655001
0.01172313925
0.4728681498
-0.006517066207
-0.006408722728
-0.2358120519
0.007150903715
0.2361342111
-0.007473062951
-0.2327659553
0.009476396246
0.2351656659
-0.01186786872
-0.2282485806
0.01837300282
0.2301260027
-0.02022491466
-0.2289269741
0.02465376978
0.2300489944
-0.02575802577
-0.2173752438
0.02638200201
0.2172001949
-0.02621202757
-0.2300323127
0.02800535357
0.2297454922
-0.02774879701
-0.2323565199
0.02585355011
0.231282229
-0.02482468162
-0.2313500638
0.0205304692
0.2295097392
-0.01872795455
-0.225741833
0.01249398995
0.2242819225
-0.01103813322
-0.2240908254
0.009987185834
0.2237307799
-0.009627140337
0.008537771722
-0.2236769698
0.2233119868
-0.008172788715
-0.4468610378
0.01405663068
0.4455113604
-0.01270695322
-0.4466388205
0.01138829128
0.4453384123
-0.01008788305
-0.01277785273
0.887815444
0.00858454895
0.00882584268
-0.008387059739
0.8871822625
-0.001327041558
0.8868081638
0.8865249284
-0.003310276967
0.9514183932
-0.006668729714
0.9515279013
-0.01011120721
0.9516022677
-0.006931829104
0.95170653
-0.006748559076
-0.4741137843
0.4750666292
-0.007884674045
-0.4739819743
0.008864424513
0.474975926
-0.009858376155
-0.4739893353
0.01087719283
0.4750322752
-0.00602251986
-0.005897612874
-0.2370179732
0.006560338142
0.2372867774
-0.006829142367
-0.2368787485
0.007635231531
0.2371459382
-0.007902421266
-0.2362485795
0.008687285537
0.2366852935
-0.009123320281
-0.2339616722
0.01360417979
0.2353435085
-0.01498270134
-0.2179464706
0.01677904678
0.2184637194
-0.017298905
-0.2284666313
0.01801625356
0.2279699419
-0.01752978772
-0.2274439698
0.01472493344
0.226085307
-0.01337467854
-0.2243897916
0.01046638671
0.2242301533
-0.01030674838
-0.2234588637
0.00971013015
0.2232272912
-0.009478557651
-0.2227910719
0.008713274467
0.2225186399
-0.008440842499
0.007593843101
-0.2223492905
0.2220556443
-0.007300196889
-0.4442733299
0.01269623529
0.4431400507
-0.01156295606
-0.4441539839
0.01043232453
0.4430195572
-0.00929789785
-0.01188360321
0.8836262623
0.007893303005
0.00817948198
-0.007840041395
0.8831387007
-0.003891338005
0.8828594605
0.8826335904
-0.003104456135
0.9545228493
-0.006241312612
0.9546647578
-0.009428623492
0.9547895786
-0.00645205144
0.9549696988
-0.006239740863
-0.4759511615
0.4768109484
-0.007311838313
-0.4759082138
0.008186565142
0.4767840977
-0.009062448962
-0.4759969867
0.009946501178
0.4768868057
-0.005475849173
-0.005360471019
-0.2380200552
0.005935346082
0.2382424445
-0.006157735386
-0.2378580954
0.006808933617
0.2380685869
-0.007019425138
-0.2373418231
0.007622552465
0.2375313484
-0.007812077763
-0.2365694926
0.008324440166
0.2366869475
-0.008441895126
-0.2196842267
0.008392510599
0.2199445464
-0.008652830341
-0.2274031368
0.009141940018
0.2274310619
-0.009169865167
-0.2254495565
0.009153048477
0.2254053646
-0.009108856611
-0.22382535
0.008866986811
0.2237107765
-0.008752413288
-0.2226310135
0.00831881404
0.2224600073
-0.008147807854
-0.2218025589
0.007571509006
0.221593266
-0.007362216113
0.006697143872
-0.2212870945
0.221049538
-0.006459587417
-0.4421029076
0.01134249653
0.4411544647
-0.01039405358
-0.4419928011
0.009431225856
0.4410109729
-0.008449397565
-0.01089149756
0.8798871335
0.00716575004
0.007464876292
-0.007219871151
0.8794670743
-0.003593367897
0.8792329572
0.8790402225
-0.002875468509
0.9573983178
-0.005769562294
0.9575588516
-0.008685295082
0.9577053114
-0.005928047451
0.9579169935
-0.005704542348
-0.4776037178
0.478372993
-0.006697322621
-0.4776010797
0.007470482994
0.4783655064
-0.008234909606
-0.4777061886
0.00899590702
0.4784595509
-0.004924105146
-0.00482516417
-0.2388473053
0.005315988866
0.239030494
-0.005499177624
-0.23862998
0.006024461606
0.2387961169
-0.006190598474
-0.2380264722
0.006657062973
0.2381701185
-0.006800709302
-0.2369656358
0.007172496917
0.2370385171
-0.007245378212
-0.2206924716
0.007216083612
0.2209292916
-0.007452903639
-0.2274919098
0.007774229195
0.2275058622
-0.007788181577
-0.2252890658
0.007765920168
0.2252547746
-0.007731628937
-0.2234144814
0.007550096729
0.2233290229
-0.007464638239
-0.2220138431
0.00713928864
0.2218842463
-0.007009691817
-0.2210389555
0.006566819575
0.2208757086
-0.006403572763
0.005876139233
-0.2204327711
0.2202406624
-0.005684030508
-0.4402859681
0.01005902719
0.4394904715
-0.009263530635
-0.4401264347
0.008445322029
0.4392803095
-0.007599196876
-0.009870619538
0.876577737
0.006441911222
0.006738104805
-0.006570468342
0.8761669231
-0.003278104691
0.8759405936
0.8757621178
-0.002635546724
0.9600338646
-0.005278256418
0.9602015613
-0.007919695201
0.9603467501
-0.005389825018
0.9605547423
-0.005167618942
-0.4790759651
0.4797584859
-0.006072345816
-0.4790757154
0.006750410779
0.479738279
-0.007412974283
-0.4791512676
0.008064328314
0.4797855203
-0.004390718496
-0.004307862548
-0.2395280263
0.004724256252
0.2396786486
-0.004874878613
-0.2392399869
0.005298760871
0.2393715447
-0.005430318629
-0.2385474222
0.005793622671
0.2386574284
-0.005903628928
-0.2372105026
0.006176217864
0.2372547917
-0.006220506985
-0.2215990175
0.00621613046
0.2218082999
-0.006425412817
-0.2275332725
0.006639839394
0.227538429
-0.006644995853
-0.2251626192
0.006618979316
0.2251350064
-0.006591366481
-0.2231046312
0.006450605269
0.2230390284
-0.006385002446
-0.221542467
0.006134855393
0.2214422193
-0.006034607675
-0.2204403485
0.005688504957
0.2203112996
-0.005559456101
0.005136937576
-0.2197428506
0.2195865086
-0.004980595573
-0.4387615972
0.008869985698
0.4380939448
-0.00820233332
-0.4385203316
0.007507256292
0.4377926688
-0.006779593481
-0.008866965272
0.8736661961
0.005748632435
0.006029873761
-0.00592386524
0.8732238231
-0.002961919037
0.8729786474
0.8728001988
-0.002395428052
0.9624292926
-0.004788879535
0.9625950128
-0.007163823445
0.9627216941
-0.00486134062
0.9628995614
-0.004647301979
-0.4803773629
0.4809791631
-0.005463140877
-0.4803524078
0.006054847606
0.4809244049
-0.006626844742
-0.4803669826
0.007183246533
0.4809010161
-0.003896088837
-0.003821191275
-0.2400873802
0.004176080759
0.2402110403
-0.004299740845
-0.239723693
0.004642161368
0.2398282295
-0.004746697841
-0.2389477068
0.005031406046
0.2390326627
-0.005116362012
-0.237357016
0.005316632945
0.2373824748
-0.005342091719
-0.2223945963
0.005363481476
0.2225764174
-0.005545302616
-0.2275447279
0.005688631462
0.2275442925
-0.005688195985
-0.225060016
0.005660615087
0.2250373908
-0.005637989898
-0.2228649091
0.005526661945
0.2228135493
-0.005475302126
-0.2211756234
0.005279524725
0.2210968543
-0.005200755592
-0.2199650421
0.004926588142
0.2198618412
-0.004823387216
0.00448165189
-0.2191811658
0.2190529312
-0.004353417204
-0.4374815794
0.007792817901
0.4369199381
-0.007231176581
-0.437140367
0.006639975934
0.4365148394
-0.006014448267
-0.007914185401
0.8711144945
0.005102664925
0.005363222035
-0.005304032118
0.8706136698
-0.002657157282
0.8703317725
0.8701430415
-0.002162665291
0.9645919579
-0.004316368047
0.9647487155
-0.006439282149
0.9648446082
-0.004357132501
0.9649737263
-0.004156314489
-0.481521377
0.4820496462
-0.004885401706
-0.4814537818
0.005400106945
0.481946362
-0.005892687129
-0.4813912285
0.006366902544
0.481841135
-0.003443363102
-0.003373445974
-0.2405464773
0.003677429806
0.2406480767
-0.003779029138
-0.2401084525
0.004056150617
0.240191786
-0.004139484046
-0.2392573621
0.00436368995
0.2393232221
-0.004429549905
-0.2374384012
0.004575665262
0.2374512276
-0.004588491663
-0.2230831885
0.004631742007
0.2232397907
-0.004788344268
-0.2275372085
0.004883713494
0.2275333007
-0.00487980569
-0.2249758405
0.004852591513
0.2249573067
-0.004834057694
-0.2226764631
0.004745429351
0.2226358674
-0.004704833612
-0.2208862267
0.004549992152
0.2208236901
-0.004487455521
-0.2195836882
0.004268152125
0.2195004176
-0.004184881615
0.003906253046
-0.2187204127
0.2186144978
-0.003800338143
-0.4364039838
0.006830948291
0.435929939
-0.006356903552
-0.4359548382
0.005853021485
0.4354167457
-0.005314928993
-0.007031637186
0.8688828264
0.004513480053
0.004749825276
-0.004725358873
0.8683073915
-0.002371348313
0.867977762
0.8677716932
-0.001942845553
0.9665348035
-0.00387163445
0.9666775044
-0.005761451387
0.9667344251
-0.003887229119
0.9668026865
-0.003703182507
-0.482523288
0.4829857147
-0.004349655898
-0.4824018613
0.004796586213
0.4828256133
-0.005220338221
-0.4822541723
0.0056242129
0.4826333602
-0.00303304703
-0.00297035375
-0.2409237438
0.0032289249
0.2410073469
-0.003312528076
-0.2404154414
0.003537255802
0.2404820542
-0.003603868557
-0.2394972494
0.00378086645
0.2395481456
-0.003831762704
-0.2374755348
0.003936205983
0.2374795098
-0.003940180971
-0.2236753817
0.003999470469
0.2238099984
-0.004134087184
-0.2275183922
0.004197589198
0.2275126719
-0.004191868892
-0.224907287
0.004166924035
0.2248923958
-0.004152032878
-0.222527432
0.00408191321
0.2224953245
-0.004049805669
-0.2206559532
0.003926805829
0.2206059945
-0.003876847068
-0.2192752338
0.00370021538
0.2192075686
-0.003632550165
0.003403814026
-0.2183399098
0.2182518959
-0.003315800069
-0.4354935747
0.005982619432
0.4350918002
-0.005580844971
-0.4349353221
0.00515012178
0.4344716157
-0.004686415388
-0.006230516349
0.8669319101
0.003985540464
0.004195892183
-0.004196685792
0.8662735609
-0.002109247702
0.8658903239
0.8656624455