/*--------------------------------*- C++ -*----------------------------------*\
| =========                 |                                                 |
| \\      /  F ield         | OpenFOAM: The Open Source CFD Toolbox           |
|  \\    /   O peration     | Version:  v1912                                 |
|   \\  /    A nd           | Website:  www.openfoam.com                      |
|    \\/     M anipulation  |                                                 |
\*---------------------------------------------------------------------------*/
FoamFile
{
    version     2.0;
    format      ascii;
    class       volScalarField;
    location    "1.46";
    object      nut;
}
// * * * * * * * * * * * * * * * * * * * * * * * * * * * * * * * * * * * * * //

dimensions      [0 2 -1 0 0 0 0];


internalField   nonuniform List<scalar> 
12556
(
1.155876173
1.155844873
1.155815429
1.155794173
1.156030312
1.156034933
1.156065686
1.156128479
1.156242243
1.156409245
1.156659913
1.041214338
1.002940363
1.063470399
1.156583767
1.15638995
1.156231963
1.156136204
1.156069287
1.156046375
1.155826514
1.155845936
1.155871618
1.155897579
1.155099437
1.155012859
1.154938039
1.154903196
1.155134862
1.155203399
1.155380232
1.155733348
1.156276324
1.157136118
1.11007989
0.9663457371
0.9220338825
0.9574542314
1.084733907
1.157237606
1.156396931
1.155831177
1.155405795
1.155237077
1.154973328
1.155021277
1.15509698
1.155175797
1.15429267
1.15414801
1.154035455
1.153994388
1.154286756
1.154490136
1.154940268
1.155680892
1.156996976
1.033788087
0.8512616698
0.753105769
0.7252606944
0.7555958573
0.8600524006
1.044670361
1.157193087
1.155888618
1.15495009
1.154533961
1.154155445
1.154192021
1.154305706
1.154438428
1.153464377
1.153281204
1.153158042
1.153175908
1.153530516
1.153979712
1.154961367
1.156417582
0.9908155641
0.751122752
0.6073796742
0.5237097961
0.4939368456
0.5212129764
0.6082854119
0.7639304573
1.008711025
1.156671257
1.154893843
1.154035522
1.15339802
1.153393415
1.153521523
1.153697671
1.152617198
1.152395607
1.152282426
1.152368899
1.152925477
1.153776137
1.155637241
1.064670351
0.7459340234
0.5491675257
0.4175237674
0.3306670764
0.2944114192
0.3192796466
0.4000373727
0.5397685842
0.7530733527
1.072994851
1.155431502
1.153823241
1.152752644
1.15261324
1.152726144
1.152935201
1.151765797
1.151530399
1.151460774
1.151720369
1.152551251
1.153996816
1.157165281
0.8560634809
0.5952519957
0.4189712386
0.2850138348
0.1878115036
0.1479559585
0.1741410775
0.2522522456
0.3784461244
0.5727277454
0.8573543625
1.15666642
1.153969485
1.152275005
1.151882143
1.151937577
1.152157891
1.150901373
1.150670606
1.1506887
1.151216089
1.152319336
1.154695173
1.031345096
0.7318862453
0.5048920093
0.3413579261
0.205193187
0.09528504849
0.05429709516
0.08622971921
0.162171941
0.2773172866
0.4515149857
0.7013527396
1.086624214
1.154548552
1.151918844
1.151199248
1.151143574
1.151356539
1.150098863
1.149890303
1.150032535
1.150883945
1.152370724
1.155872393
0.9315373101
0.6684670381
0.4682276437
0.3174584714
0.1877900217
0.07765852385
0.04980859756
0.1227013908
0.2238842773
0.3809628475
0.6115575743
0.9673586465
1.155519122
1.15175442
1.150605289
1.15038097
1.150562436
1.149373545
1.149207284
1.149525759
1.150788189
1.152791158
1.157430843
0.877392992
0.6407167299
0.4723203552
0.3441640378
0.2397563693
0.1691914326
0.06177494731
0.1206299598
0.208014734
0.3497312532
0.5595135041
0.8912245182
1.156790399
1.151794044
1.150126977
1.149690739
1.149819419
1.14880374
1.148700583
1.14922141
1.150944014
1.153563091
1.159167484
0.8556769543
0.6502389473
0.5005257803
0.3931724665
0.3202801841
0.313752383
0.08743512762
0.1379408017
0.2176957827
0.3501247887
0.546008109
0.8500853439
1.158269782
1.152074372
1.149837949
1.149146423
1.149207106
1.148405714
1.14838912
1.149170229
1.151452948
1.154669196
1.131870213
0.8539319319
0.6700564217
0.5384006609
0.4453977388
0.3907084463
0.4338250653
0.1190804889
0.167575423
0.2460682048
0.3727555849
0.5572353487
0.839194555
1.156044437
1.152576847
1.149756159
1.148808588
1.148782283
1.148244026
1.148315975
1.149340691
1.152153066
1.156038546
1.110310989
0.8652279274
0.6998279345
0.5789020836
0.4893931271
0.4270622004
0.4431757267
0.1558002766
0.2096224955
0.2919553503
0.4198014753
0.5934494423
0.8546658673
1.142307762
1.153331452
1.149923792
1.148702329
1.148599229
1.148258324
1.148442575
1.149804071
1.153233792
1.157608643
1.103442812
0.8899361286
0.7446255222
0.6254567696
0.5332843836
0.4502440114
0.386735893
0.05055942945
0.203780644
0.2728031779
0.3634892846
0.4885498408
0.6577591409
0.8924336453
1.145200452
1.154196319
1.150311541
1.148852327
1.148661878
1.148492525
1.148784832
1.150442325
1.154374825
1.159345366
1.125725502
0.9533907905
0.7984380308
0.6913673116
0.5954708036
0.4999926047
0.2884719487
0.1030244736
0.3020750714
0.3826678383
0.4701698194
0.5886412098
0.7405811155
0.9482008436
1.164299286
1.155152089
1.150879791
1.149207742
1.148962689
1.148812707
1.149204352
1.151141096
1.155568107
1.161030344
1.168997844
1.025787942
0.886361949
0.7828494167
0.6961048218
0.6068133048
0.1093986042
0.1477067848
0.4087924043
0.5763079018
0.6272785838
0.7194817245
0.8553367052
1.038875373
1.165622386
1.156115389
1.151551981
1.149715819
1.149406166
1.149265032
1.14975038
1.151934723
1.156792847
1.16266583
1.170925735
1.133862667
1.016154913
0.9263201344
0.861147513
0.7749402685
0.0482958393
0.1784102015
0.4610795154
0.7755539221
0.8421189098
0.8932202403
1.00086876
1.169733427
1.166725008
1.157017468
1.152258045
1.150317657
1.149991655
1.149684873
1.150243143
1.152641402
1.15790369
1.164144285
1.172576798
1.17311061
1.155231861
1.099121081
0.961757496
0.4490305086
0.02913998397
0.2633425703
0.5517979625
0.8424320798
1.033199305
1.115519128
1.158583636
1.171149458
1.167587247
1.15779872
1.152931592
1.150919295
1.150571228
1.150154239
1.150774636
1.153348126
1.158929115
1.165434558
1.17401105
1.174315245
1.155259364
1.078045568
0.792358177
0.107463089
0.07433549918
0.3601372819
0.6500549258
0.895518048
1.047181163
1.124830155
1.160272484
1.171940227
1.168135618
1.158423766
1.153534393
1.151515612
1.151153871
1.150510601
1.151170604
1.15388197
1.159749305
1.166507492
1.175094235
1.175195109
1.154696804
1.066577339
0.6201595487
0.05049047964
0.1806942167
0.4365059115
0.7062987598
0.9139532219
1.050487955
1.126369706
1.16108406
1.172261459
1.168405767
1.158854641
1.153992311
1.151990631
1.151620485
1.150885368
1.151580751
1.154396821
1.160459315
1.167350518
1.175891208
1.175653252
1.153660172
1.05349786
0.5492280597
0.04932093168
0.2032820541
0.4530504453
0.7119217521
0.9180180887
1.052317512
1.126983852
1.161246721
1.172204495
1.168433555
1.159163628
1.154383092
1.152411827
1.152034113
1.151111607
1.151830004
1.154723658
1.160954911
1.167983419
1.176442295
1.17582023
1.152212769
1.037784232
0.5002839297
0.04949081568
0.2113867649
0.4592641785
0.7137945282
0.920008734
1.053079792
1.126932299
1.160936068
1.171854023
1.16826467
1.159295514
1.154609044
1.152673998
1.152291912
1.151362344
1.152112125
1.155069419
1.161391334
1.1684351
1.176790945
1.175771536
1.150384383
1.018545902
0.4681711688
0.05016789645
0.2175678903
0.4635750098
0.713955704
0.9200340622
1.052924464
1.126371359
1.160281016
1.171280623
1.167943548
1.159352728
1.154790375
1.152890569
1.152499023
1.151451257
1.152229638
1.155241427
1.161653185
1.168747228
1.176981495
1.175551985
1.148109685
0.994796652
0.4459457511
0.05112979303
0.2222744782
0.466411842
0.7130125242
0.9184693918
1.051897583
1.125378078
1.15936361
1.170539788
1.167507928
1.159260942
1.154809453
1.15294084
1.152540513
1.1515875
1.152407823
1.155475673
1.161923232
1.16895273
1.177051615
1.175172228
1.145173289
0.9685590721
0.4304598412
0.05228328907
0.2256749309
0.4680885327
0.7112895938
0.9158227249
1.050081161
1.123993274
1.158232307
1.16967371
1.166986033
1.159145244
1.154825477
1.152982513
1.152567553
1.151555569
1.152415767
1.155537251
1.162040206
1.169081909
1.177027099
1.174611594
1.141234025
0.9431163471
0.4195770044
0.05363682475
0.2280619786
0.4688359593
0.7089904917
0.9124816028
1.047618002
1.122258817
1.156919669
1.168713071
1.166398793
1.158896651
1.154682856
1.152859588
1.152431052
1.151599593
1.152511509
1.155692455
1.162208816
1.169146959
1.176922527
1.173833987
1.136059439
0.9204528785
0.4121084609
0.0551917506
0.2297364341
0.4688699231
0.7062568132
0.9086768723
1.044657423
1.120225564
1.155454074
1.167680649
1.165761376
1.15867014
1.154583026
1.152773437
1.152325185
1.151471922
1.152430283
1.155665739
1.162219859
1.169163116
1.176744806
1.172799369
1.129740305
0.9010908701
0.4074188152
0.05693735119
0.2308761982
0.4683360954
0.7031806736
0.9045376194
1.041320137
1.117946031
1.153862368
1.166594126
1.165085762
1.158312711
1.154321755
1.152521777
1.152055656
1.151446664
1.152461591
1.155759138
1.162316983
1.16913135
1.176497368
1.171470604
1.12256048
0.8845984053
0.4047646878
0.05888574543
0.2315796853
0.4673536944
0.6998263295
0.9001464435
1.037696583
1.115466302
1.152168051
1.165467005
1.16438098
1.158019865
1.154146587
1.152350431
1.151860247
1.151251975
1.152314465
1.155663649
1.162244221
1.169064755
1.176181674
1.169826263
1.114859663
0.870413395
0.403545346
0.06105403846
0.2319648869
0.4660254865
0.6962568484
0.8955673719
1.033854205
1.11282383
1.150390462
1.164309559
1.163654107
1.157588616
1.153804738
1.152012348
1.151501801
1.151172551
1.152293007
1.155704852
1.162287914
1.168960242
1.175797381
1.167867076
1.1069499
0.8581831219
0.4034889893
0.06345817984
0.2321183856
0.4644190495
0.6925274968
0.890849058
1.029842754
1.110048215
1.148544864
1.163129415
1.162911211
1.157256542
1.153578433
1.151783204
1.151246052
1.150943578
1.152108756
1.155566271
1.162154545
1.168830148
1.175341697
1.165617468
1.099076465
0.8476884872
0.4044752979
0.06612074676
0.2320950886
0.462579381
0.6886797103
0.8860300454
1.025701439
1.107163922
1.1466435
1.161932225
1.162155458
1.156783665
1.153195028
1.15140144
1.150843853
1.150809487
1.152032787
1.155552255
1.16214864
1.168666943
1.174811899
1.163119086
1.091423294
0.8387784702
0.4064357589
0.06905581572
0.2319351285
0.4605628795
0.684750038
0.8811463001
1.02146442
1.104192142
1.144696215
1.160722152
1.161392262
1.156415054
1.15291676
1.15111672
1.150531365
1.150588892
1.151851003
1.155408828
1.161990872
1.168482099
1.174205182
1.160416359
1.084069986
0.8311712169
0.4090436957
0.07227648127
0.2316699482
0.4584194054
0.6807772226
0.8762340111
1.017162728
1.1011514
1.142711176
1.159502608
1.160619502
1.155951071
1.152547689
1.150748419
1.150144781
1.150377226
1.151698281
1.155316957
1.161910381
1.16826812
1.173524123
1.157555301
1.077033227
0.8245523304
0.41203906
0.07579806627
0.2313285343
0.4562002102
0.6768034752
0.8713320162
1.012827073
1.098059618
1.140696709
1.158278855
1.1598483
1.155498557
1.152177657
1.15037236
1.149739822
1.150218392
1.151569885
1.1552188
1.161796073
1.168039423
1.172779074
1.154604204
1.070335023
0.8188104336
0.4153791099
0.07963977851
0.2309559238
0.4539647919
0.6728781311
0.8664817438
1.008488046
1.094933894
1.138659229
1.157067673
1.159079387
1.155155806
1.151910153
1.15010423
1.149457032
1.149912939
1.151334238
1.155053163
1.161629153
1.167819142
1.17200972
1.151715365
1.064005134
0.8138653252
0.4189864149
0.08380567608
0.2306185119
0.4518104883
0.6690867658
0.8617444651
1.004184228
1.091792579
1.136602886
1.155939311
1.158384868
1.154526031
1.151396326
1.149587132
1.148905895
0.151177774
0.05522660569
0.04286708358
0.2981310646
0.08039053852
0.05826301268
0.4209046395
0.1128076043
0.08423507875
0.4479089085
0.1429079737
0.1175602184
0.396031631
0.03827395795
0.04749502503
0.1796051016
0.1468119311
0.3317941529
0.07475084998
0.03928796813
0.09760542669
0.2449190103
0.1827363367
0.07553413279
0.05467867272
0.04421204723
0.08197540082
0.02793591182
0.01855461325
0.05919794711
0.1020362135
0.103399763
0.2998860545
0.2914706845
0.1742501484
0.02684286523
0.03986141019
0.08402565829
0.1181822912
0.104610645
0.3756192673
0.403575084
0.3059784929
0.3589372854
0.2033626413
0.2282703393
0.04790897978
0.03366764767
0.1150236416
0.1461389397
0.1242213726
0.4218337202
0.4408256266
0.4148313926
0.4553478714
0.1333378674
0.1724581793
0.09159044444
0.06636118506
0.4414415614
0.3970752309
0.4379868585
0.4260509529
0.07924626709
0.1042438622
0.01643672008
0.1341934803
0.1251107628
0.4847818779
0.3996518548
0.3910683969
0.3697467404
0.03115996566
0.0512290592
0.2930931306
0.1040520614
0.07653489923
0.06236514771
0.1422548299
0.02985558914
0.05677580726
0.04092826593
0.0292338821
0.04683194193
0.03095906598
0.04883624549
0.2316136258
0.2553595505
0.2474237852
0.199631877
0.1863285155
0.1598143532
0.2022977696
0.03331220483
0.0267066352
0.06978598381
0.03984265333
0.04551980952
0.0499922544
0.04003954992
0.06824003445
0.1751608737
0.1996217282
0.3747134111
0.1559102245
0.1319970683
0.1846360746
0.1578913495
0.06304487286
0.0491367276
0.1005454973
0.06829427754
0.08853602796
0.04600729635
0.06561700433
0.09627834803
0.1056479744
0.131703785
0.456211478
0.1058643767
0.08062381645
0.1306130279
0.1072056013
0.1212229478
0.09554549653
0.05221367015
0.0774740101
0.4143936277
0.01307110701
0.05441252395
0.03274975453
0.07956826164
0.0559904607
0.0123390855
0.1411571234
0.1361897189
0.01835011903
0.004751841579
0.03086320976
0.363873595
0.06035529457
0.01929029741
0.01136114705
0.03239661332
0.01961658559
0.05785955772
0.2221789719
0.1580990356
0.09045566228
0.09638928734
0.06135063725
0.03505334484
0.0145566222
0.008163961665
0.2282994085
0.2584690157
0.1556483273
0.01003584745
0.1489135642
0.1830238809
0.1544422945
0.0120927064
0.05255185837
0.04538223068
0.07238874502
0.1579110747
0.1451025473
0.1414267518
0.06836609321
0.1075072132
0.04152885004
0.01252167598
0.02195707338
0.02126866746
0.02925316897
0.04519357795
0.0439624916
0.03182983194
0.1317814161
0.1178259523
0.1308380585
0.09181112818
0.1144946329
0.1286859655
0.02638575711
0.01374175898
0.04586492003
0.0216121963
0.03670697198
0.02912436833
0.01870835226
0.02859698837
0.02066443812
0.01409188318
0.02216035019
0.01802879419
0.00969919133
0.01558204063
0.02102293324
0.03429763006
0.03487319076
0.04078997782
0.0397938167
0.01654926854
0.01042640147
0.08026349705
0.0139130378
0.02509132596
0.009895077147
0.01229034893
0.07655268434
0.09347878288
0.2591225297
0.2468886452
0.06748799625
0.0563593471
0.01174184512
0.04629712746
0.1928584296
0.1806106051
0.2097449924
0.1978200688
0.04663607873
0.04972017159
0.04189157934
0.0905634839
0.06525854251
0.0551371601
0.04017490365
0.06480932201
0.101993448
0.03616850929
0.0227572923
0.01431860005
0.05088400123
0.02533656905
0.03993498679
0.0244533356
0.056115009
0.04002006243
0.03913769576
0.1974727511
0.0315226769
0.1968792677
0.2163126697
0.03513196008
0.0391709555
0.03192670827
0.03464786172
0.2127151698
0.03180471225
0.03154372356
0.04308012515
0.06784744249
0.06323495322
0.07422299659
0.06953470558
0.04335805443
0.04788575347
0.05535292945
0.05017485377
0.06158484644
0.0568040734
0.04700935165
0.144251685
0.1427049683
0.1725036319
0.1708408334
0.0593144664
0.009752927037
0.05807862191
0.09657947755
0.09477101213
0.1184069073
0.1168254154
0.02663987263
0.03864396352
0.106929645
0.0298126385
0.0177670879
0.06848227284
0.2264098926
0.2140718651
0.2427268723
0.2304801159
0.0697958606
0.02383667152
0.04992209651
0.04890369583
0.07254114955
0.0716912274
0.007973212079
0.03193665395
0.08322723039
0.07145632658
0.175843327
0.1670723171
0.02481237166
0.01237586633
0.01822271112
0.01406487659
0.0309666347
0.01290499735
0.01393247858
0.01345718286
0.03100599003
0.04905649688
0.01399713333
0.0155862843
0.003687051303
0.01727533016
0.01356444547
0.5713425258
0.3911852525
0.3954204403
0.2647370962
0.008922015351
0.005351575825
0.1420825154
0.3346468149
0.2748920265
0.005828898248
0.01241739417
0.01120588447
0.09900049048
0.08751581923
0.0341415348
0.1952736845
0.1642550091
0.07547063354
0.009026835722
0.01528224204
0.01219086799
0.008269999569
0.01205517579
0.008568042143
0.02902948668
0.01219221159
0.01150607456
0.03733758337
0.04443959069
0.01263562994
0.01748516852
0.008766113676
0.008918835164
0.0352798776
0.1472173825
0.3204912723
0.3092657988
0.3351715085
0.324194809
0.1504195504
0.2748698839
0.2629664126
0.09476012805
0.03427466178
0.09883951654
0.09364237355
0.01233106321
0.01777067204
0.08273210219
0.04586494776
0.01380119866
0.0122956299
0.03787134196
0.04178203646
0.03733250779
0.0485081823
0.04337266345
0.03975760976
0.03254673564
0.0088152018
0.008757700515
0.02794057362
0.1856737463
0.3493921278
0.3387370543
0.06061571994
0.06253279228
0.1365795121
0.018566886
0.02027257078
0.05263290602
0.07635555461
0.1007297787
0.09326231804
0.05200483471
0.08163840163
0.0760952313
0.09055018059
0.08380721389
0.0531128247
0.1188765304
0.2903336336
0.2787241542
0.3055099663
0.2941705724
0.1206546632
0.1019751951
0.03757212962
0.03830148453
0.02170600822
0.02254151633
0.08497214616
0.1256091718
0.05646094153
0.06021162789
0.0386033
0.03928451471
0.1112264939
0.1108164542
0.04073743171
0.05607296652
0.008640398553
0.01631735514
0.05208034959
0.03997526109
0.07652680987
0.02109359066
0.02156422153
0.02070127575
0.06531954791
0.01210238236
0.004399935801
0.1289539914
0.1123840173
0.0918827895
0.08770068115
0.03054098986
0.01640212147
0.0266343553
0.0682776761
0.01906081442
0.01205606048
0.01774845354
0.02127950648
0.002823298874
0.03193822945
0.02068448288
0.01190791914
0.006324299244
0.01148605934
0.01003588758
0.009834977242
0.02535708759
0.01936698008
0.007806762493
0.03865966474
0.04025470519
0.01459562128
0.01085058588
0.006966552205
0.01140897811
0.01586235968
0.01097184953
0.01267781665
0.03701946537
0.01104245737
0.01097922722
0.01262640148
0.01309708827
0.03155512924
0.01285748858
0.01262989558
0.01337417029
0.01272580626
0.01302423827
0.01679578456
0.01400506614
0.02253421817
0.01831491498
0.01313422716
0.01361458185
0.02145493863
0.0177943125
0.02508831468
0.02232982888
0.01729025952
0.0153985084
0.01226363988
0.01058249896
0.008270466207
0.0307289035
0.03673368945
0.01128668058
0.01068678449
0.01184914546
0.01233961792
0.0432871193
0.009046326459
0.008956608988
0.01057438988
0.009161142489
0.008910463546
0.03634542874
0.008766597057
0.01167534802
0.0121233573
0.01119842899
0.01825568847
0.04645449688
0.04174597918
0.0105625293
0.03371711982
0.02883289897
0.04005078537
0.03559443632
0.01076660483
0.01192422357
0.03297930131
0.02764514113
0.1071923898
0.100666125
0.03821591895
0.0488126721
0.1143363293
0.1089630103
0.0449623389
0.04413465436
0.06715721245
0.07522553581
0.09062771745
0.05662489124
0.07059669327
0.06798981624
0.05994950751
0.1358960068
0.1253426419
0.09792298938
0.1273004405
0.05986965526
0.03771998206
0.04155534003
0.05178807792
0.03269440657
0.03652431397
0.01943320524
0.01843545279
0.04482959187
0.0133558065
0.01333234377
0.01038273079
0.01935646348
0.02295574905
0.01376893161
0.01954257461
0.03439238733
0.02679162668
0.02035736462
0.02971948535
0.09481176557
0.08332876784
0.1009219494
0.09718083729
0.03083928966
0.07518247281
0.07305258429
0.08005178044
0.0759483379
0.03659859663
0.1162299552
0.11211971
0.1228359309
0.1176791493
0.03717554309
0.03302245227
0.1057517267
0.1021973991
0.1107964139
0.1069804117
0.03335738493
0.009031347066
0.008878514429
0.03232965847
0.02916316921
0.008802868675
0.009085137891
0.04393949769
0.04317752315
0.04610160048
0.0442013449
0.04176496921
0.0407197852
0.04292339265
0.04203792992
0.06980115496
0.06789704847
0.07239004924
0.07046012613
0.06252463365
0.04880814496
0.06710440392
0.06505246037
0.02132839284
0.01815136144
0.02742004684
0.02303110625
0.006648531808
0.01169611119
0.01098019601
0.0169508559
0.01195563426
0.03661272061
0.03721722039
0.1006459272
0.02174261152
0.02152363832
0.02240638725
0.02192854917
0.02084732226
0.08730669544
0.02322699336
0.0344283401
0.04143646907
0.05458969071
0.123862414
0.03792072588
0.02457638689
0.04058058078
0.03760300043
0.02318755389
0.02264260559
0.02412939946
0.023410803
0.1125871572
0.03951339437
0.04040167879
0.007277863128
0.02484862777
0.01086391637
0.01083936196
0.01061643022
0.02316530903
0.00899151931
0.01804766115
0.01234262544
0.01275251188
0.05143127724
0.04493552525
0.02049852017
0.02098404899
0.07558817692
0.06750727612
0.01961441138
0.02043710436
0.01217151496
0.02943702341
0.08512514803
0.0767550623
0.0137797274
0.01304556137
0.01828632444
0.01248658056
0.01421494214
0.01529361732
0.03182855883
0.009376134075
0.01403754368
0.01234725894
0.01418522599
0.02153190835
0.05103764998
0.108277313
0.140061148
0.01167994533
0.01123150426
0.1861688528
0.2366178735
0.1942166204
0.007705171203
0.03337224492
0.0137012262
0.01650878406
0.1350996721
0.1409044888
0.1582113621
0.004664919603
0.00706258763
0.005228300004
0.004834879158
0.005572011754
0.004359535137
0.05431195105
0.03390163568
0.0215432915
0.02466871193
0.02290669808
0.02651152532
0.2143788911
0.3517647049
0.3664255997
0.3315420818
0.3444319275
0.2178992033
0.03973178139
0.03474625422
0.01240062804
0.05980116629
0.07108270741
0.1325678882
0.1214710847
0.1160439177
0.04930125319
0.0270644865
0.0277557695
0.03268863688
0.3630217707
0.352849017
0.1890363684
0.1506703496
0.06807551949
0.07180079952
0.0748167904
0.08537702581
0.163825232
0.05997239797
0.129602125
0.1233607105
0.01209309492
0.01203302685
0.01387719699
0.02038416553
0.02068418801
0.03361224035
0.01196194866
0.01240928448
0.0121714084
0.02445155529
0.04767525906
0.04115081251
0.01923583172
0.03219083493
0.01993223616
0.02011432495
0.01965026886
0.01405788938
0.01021311209
0.01165186384
0.01147193634
0.01202035039
0.02122422491
0.02638253682
0.0523622276
0.04046672639
0.03593762605
0.03277050775
0.02415191528
0.03879639467
0.01415168707
0.01922915459
0.01291111859
0.009340794958
0.009395477618
0.01318626638
0.01295130137
0.02209989381
0.01403405563
0.009760888956
0.01639740137
0.01863038349
0.01734878979
0.01273957948
0.01599018138
0.01518677644
0.01064458943
0.01105697966
0.006844976642
0.0102375203
0.01056205859
0.05295186194
0.04797660506
0.01986440247
0.009820257591
0.01236718113
0.01144800356
0.01178512858
0.01347556799
0.01239211296
0.04772278422
0.03707080757
0.04260616942
0.06593470008
0.09224162775
0.09100075053
0.04171213897
0.06688956938
0.06337609208
0.0899756183
0.08841016181
0.06355679604
0.03123643535
0.03780348366
0.03416554637
0.02632525329
0.02708321502
0.02234661042
0.04648341368
0.04520918641
0.04806026047
0.02394794647
0.03435409304
0.03272099109
0.05258285992
0.0522146642
0.03126702472
0.02905950621
0.02865169104
0.0316737015
0.03096913389
0.03564687697
0.05840735371
0.05782317339
0.06182628972
0.06110473836
0.03842926495
0.0322531837
0.05376601244
0.05326367936
0.05722063703
0.0566248366
0.03420225041
0.06552368845
0.06738899454
0.1490235772
0.1380443138
0.06311020092
0.0649299806
0.09202950617
0.09506510621
0.1777155694
0.0270624423
0.02691519438
0.02841620246
0.0281974249
0.02066497354
0.02664901055
0.02654089149
0.1656073991
0.08754591952
0.09089677966
0.009521741809
0.009492383043
0.01117517398
0.01080019465
0.009722080392
0.009335322201
0.006618088799
0.05383467943
0.02110013238
0.02582182719
0.1376543219
0.1316832535
0.06323146949
0.07273776107
0.1447740164
0.1394312631
0.03290212496
0.03295769326
0.05027580683
0.0485875594
0.03250435856
0.03244221911
0.01174722991
0.02346575649
0.03754704818
0.03684302498
0.008958940208
0.01491583801
0.0164084212
0.01438306084
0.01402515387
0.0190006803
0.01924396852
0.03142293468
0.01310787288
0.009526726455
0.0129168461
0.01349455406
0.02939859711
0.01849087265
0.01908823632
0.0137745466
0.03007010477
0.02488708861
0.01181684882
0.01178616973
0.01124931123
0.01139798763
0.01462847769
0.006313115716
0.004088164275
0.007321714364
0.01163350176
0.01140676047
0.01138082004
0.01110978189
0.01145948779
0.01116232946
0.009828416033
0.006456081334
0.005181211481
0.0105417028
0.0108484991
0.0101664586
0.0102823101
0.01190199181
0.0182272509
0.01844792048
0.01788204546
0.01805701907
0.01178022755
0.008763607597
0.01382718485
0.01381171055
0.0142974961
0.01393755599
0.008700893009
0.01309183079
0.02050057451
0.02277958238
0.01871873054
0.01929924856
0.01268237361
0.008813266396
0.01382772272
0.01383649216
0.01377855742
0.01381892615
0.008785210018
0.00984187363
0.01001315687
0.009527836529
0.009966201363
0.03773673947
0.0570770302
0.05661116771
0.02194118554
0.03661358927
0.03635598582
0.03795464514
0.03698583591
0.02215363918
0.01257789002
0.01208419289
0.01241407664
0.01265460755
0.02060112398
0.02040560951
0.02104485723
0.02081695252
0.01607108113
0.03574824716
0.02129256511
0.02222677214
0.0212667199
0.03584855614
0.03562471765
0.03619179504
0.03600458159
0.0213952921
0.02198214459
0.02136194661
0.03214616605
0.02299010196
0.01649338816
0.008445944746
0.01208628537
0.01188331027
0.008336633734
0.04399692602
0.03062591537
0.002976764424
0.03054197591
0.04680074386
0.04646381394
0.01902542311
0.01197828657
0.008813955604
0.003380531476
0.01373585457
0.0141811212
0.01968808899
0.01985841651
0.03212443695
0.02007340096
0.01061642804
0.01129249665
0.01442754171
0.004782629926
0.009075803371
0.006880097408
0.007223932766
0.007620904562
0.01008539031
0.006707567468
0.0115327107
0.01146832138
0.01152420868
0.04020875682
0.03126349192
0.008111453641
0.01015361443
0.01123465788
0.01835984959
0.02057746785
0.0120449445
0.01490204165
0.01436438063
0.01128504648
0.007409853076
0.01123135104
0.01277997388
0.008939163286
0.01262086467
0.01284531671
0.01291054627
0.01316267407
0.01296858311
0.01296486984
0.01285543675
0.01290833396
0.01337026788
0.01332872292
0.01299935889
0.01339859355
0.01375253802
0.01364663264
0.01695505637
0.01865335088
0.01651433761
0.02517375362
0.02094537906
0.01618498851
0.01517115414
0.01643416913
0.01012787665
0.0161427576
0.0170763482
0.01160310245
0.01608512245
0.01079685536
0.01110276373
0.01754224424
0.01769431275
0.01715404857
0.01738457561
0.01094346749
0.01204236433
0.02083444591
0.02045235975
0.009049085849
0.009001567763
0.009653053708
0.006810128679
0.009091104314
0.00902680213
0.008785013036
0.00749837115
0.009818723604
0.01719293899
0.01533481461
0.01989307572
0.01885573204
0.01099295795
0.01028845814
0.01062728533
0.01345929576
0.006977387322
0.01058220731
0.0104453125
0.0110710122
0.01029022003
0.01044502303
0.01578352367
0.0140608408
0.01006308909
0.04608341224
0.04318465387
0.08174179342
0.07352232386
0.04363036462
0.0633013959
0.08762553641
0.08435469011
0.03448104699
0.0318208263
0.02962480481
0.02253912488
0.02922147408
0.04187997943
0.04250404599
0.03745952298
0.01936891612
0.02793593327
0.02835054814
0.02539891784
0.02626104085
0.01827897141
0.01255973057
0.01347374857
0.02066554193
0.01452038132
0.01384056595
0.01553556836
0.01475958792
0.02095121269
0.01418828199
0.01477438941
0.01161096516
0.01512855714
0.04825078447
0.04843457898
0.03113102662
0.03082024201
0.05127334395
0.05126449234
0.02974254585
0.0293550033
0.0305105336
0.03009017602
0.05947417161
0.05891842778
0.03604040189
0.03778485689
0.06055437252
0.06002068475
0.05492217195
0.05439041062
0.03267827983
0.03373886892
0.05601878861
0.05546485645
0.008947209531
0.01390820682
0.01394095
0.01387240494
0.01390657197
0.008926585984
0.00910795551
0.0129645986
0.01129027448
0.01388065793
0.01365417321
0.009122916633
0.04367386579
0.02577401987
0.02604349644
0.02534767456
0.02555477893
0.04343120547
0.04498784423
0.02698973298
0.02748070852
0.02631066899
0.02662175898
0.04451588267
0.04138742705
0.02412534822
0.02436368571
0.02375709065
0.02398710424
0.0411536186
0.04264713464
0.02495154278
0.02514292187
0.02452972128
0.02476244479
0.04237425208
0.02749807832
0.02731272827
0.0691755161
0.04666045243
0.04697529309
0.04597712156
0.04625355405
0.06848242027
0.02794048554
0.02773490519
0.02539482335
0.02665619693
0.06047237997
0.04227730355
0.04197932115
0.02838857303
0.02980336835
0.05409645652
0.06663097927
0.04529110311
0.04548853963
0.04458694189
0.04453833017
0.06543118789
0.02621576524
0.02625944806
0.009548208775
0.009654397685
0.009533784675
0.01049778284
0.009899704076
0.01136745153
0.009351417585
0.009381993666
0.009197466345
0.009273808777
0.01130451872
0.01517302225
0.009748437029
0.0105157435
0.009462580629
0.009323430491
0.01315144141
0.03653201146
0.05453922192
0.05423783324
0.05593031923
0.05557287411
0.03711941604
0.02169653917
0.02145406388
0.02228011506
0.02200557228
0.02193543109
0.01712670655
0.02446359586
0.04488792075
0.04028476183
0.05205838272
0.05026914025
0.03472145135
0.02668020847
0.01853597433
0.02384881408
0.02536536071
0.03990688595
0.02340043085
0.0236907772
0.02270452728
0.02345380618
0.03997364971
0.02301908778
0.02279341939
0.02385613342
0.02360794555
0.01099331517
0.0112818193
0.01110554524
0.01321988837
0.01193025153
0.01102022943
0.01059719613
0.01072565775
0.01081063082
0.01080306322
0.007141066753
0.01274933776
0.01226943013
0.01241948773
0.01258848246
0.01241470968
0.01270731789
0.01994444832
0.01990117279
0.02019950354
0.02013401455
0.0307823731
0.03074246618
0.04655942145
0.01912825248
0.02018468317
0.01966394916
0.01973447857
0.02071208547
0.03502969425
0.03466461914
0.03546088154
0.03517859017
0.02079301664
0.0201684263
0.03396824542
0.03207546931
0.03454219807
0.0339446103
0.02015133766
0.01221842961
0.04485096537
0.04430044456
0.02921607959
0.01398961117
0.01131903754
0.0110183468
0.008405881992
0.01152299166
0.01325223502
0.01884843433
0.01322730216
0.01453462166
0.0142292133
0.03154046873
0.01935913033
0.019562964
0.01284859812
0.01265122164
0.01272829281
0.01365899043
0.01338746087
0.009006537264
0.009308776695
0.01398553943
0.01284572964
0.01344440908
0.01570636067
0.01937805328
0.02940988364
1.15563182
1.156397752
1.156119222
1.156716088
1.157926566
1.156895973
1.113189217
0.950054364
1.13311945
0.9180245301
0.8265164458
0.9784507691
0.8117461307
0.7811762649
0.9228270779
0.780385991
0.8000447978
0.947492255
0.8123061105
0.8922146977
1.063379893
0.9217871265
1.065364196
1.157486856
1.11411013
1.157244655
1.156573153
1.156899836
1.156025624
1.155947103
1.156134559
1.144075387
1.156608341
1.068100306
0.8658675376
1.092736427
0.8142246829
0.693968126