/*--------------------------------*- C++ -*----------------------------------*\
| =========                 |                                                 |
| \\      /  F ield         | OpenFOAM: The Open Source CFD Toolbox           |
|  \\    /   O peration     | Version:  v1912                                 |
|   \\  /    A nd           | Website:  www.openfoam.com                      |
|    \\/     M anipulation  |                                                 |
\*---------------------------------------------------------------------------*/
FoamFile
{
    version     2.0;
    format      ascii;
    class       surfaceScalarField;
    location    "0.25";
    object      meshPhi;
}
// * * * * * * * * * * * * * * * * * * * * * * * * * * * * * * * * * * * * * //

dimensions      [0 3 -1 0 0 0 0];
oriented        oriented;


internalField   nonuniform List<scalar> 
25162
(
0
0
0
0
0
0
0
0
0
0
0
0
0
0
0
0
0
0
0
0
0
0
0
0
0
0
0
0
0
0
0
0
0
0
0
0
0
0
0
0
0
0
0
0
0
0
0
0
0
0
0
0
0
0
0
0
0
0
0
0
0
0
0
0
0
0
0
0
0
0
0
0
0
0
0
0
0
0
0
0
0
0
0
0
0
0
0
0
0
0
0
0
0
0
0
0
0
0
0
0
0
0
0
0
9.195864378e-09
-6.079812193e-08
6.808761764e-07
0
-1.926444077e-08
-5.78806405e-07
0
0
0
0
0
0
0
0
0
0
0
0
0
0
0
0
0
0
0
0
0
0
0
0
0
0
0
0
0
0
0
0
0
0
0
0
0
0
0
0
0
0
0
0
0
0
0
0
0
0
0
0
0
0
0
0
0
0
0
0
0
0
0
0
0
0
-4.328422989e-08
8.197473135e-07
3.927449248e-06
-5.251260172e-06
-1.521169085e-05
4.836169552e-05
3.517412277e-05
-6.865632466e-05
-1.98846255e-05
0.0001264437399
3.456233811e-05
-0.0001406874114
2.511709169e-06
0.0001585122609
-4.362518032e-06
-0.0001553680455
1.99294642e-05
0.0001217584704
-3.571242017e-05
-0.0001044086774
9.560381946e-06
4.651492733e-05
-2.588859054e-05
-2.910556894e-05
0
8.806021534e-07
-6.025995204e-07
0
0
0
0
0
0
0
0
0
0
0
0
0
0
0
0
0
0
0
0
0
0
0
0
0
0
0
0
0
0
0
0
0
0
0
0
0
0
0
0
0
0
0
0
0
0
0
0
0
0
0
-2.091664712e-06
1.380872315e-06
1.060727865e-05
-1.024007848e-05
-7.431127208e-05
9.515664494e-05
0.0001153921306
-0.0001373388252
-0.0001362314169
0.0002755264538
0.0001795169559
-0.0003185421043
-9.439369105e-05
0.0004172336466
0.0001168471813
-0.000437204976
1.337823114e-05
0.0004543758599
-1.743870591e-05
-0.0004462165221
0.0001023151209
0.0003850259846
-0.0001284376071
-0.0003542956712
0.0001118329859
0.000242122493
-0.0001486847041
-0.0002013872305
4.553415102e-05
8.572172124e-05
-7.510688222e-05
-5.397261014e-05
0
1.352069595e-06
-1.610045864e-06
0
0
0
0
0
0
0
0
0
0
0
0
0
0
0
0
0
0
0
0
0
0
0
0
0
0
0
0
0
0
0
0
0
0
0
0
0
0
0
0
0
0
0
0
0
6.917827276e-07
-3.677784704e-07
-8.533462358e-05
4.97789095e-05
0.0001224254307
-8.867834015e-05
-0.0002713114217
0.0002488509811
0.0003282124094
-0.0003070348741
-0.0003161843829
0.0004640753761
0.0003586257372
-0.0005051535819
-0.0001796693498
0.0005859255616
0.0001966517656
-0.0005992740753
3.100512346e-05
0.0006042187459
-3.526443213e-05
-0.0005950302544
0.0002076681925
0.0005352844407
-0.0002321853575
-0.000504684657
0.0002670978847
0.0003857904709
-0.0003060431728
-0.0003405078741
0.0001937756017
0.0001949470933
-0.0002336966997
-0.0001594385073
4.706799006e-05
5.153966696e-05
-7.307216635e-05
-2.623733493e-05
0
0
0
0
0
0
0
0
0
0
0
0
0
0
0
0
0
0
0
0
0
0
0
0
0
0
0
0
0
0
0
0
0
0
0
0
0
0
0
0
0
0
-2.122909904e-05
3.708134319e-06
3.4534702e-05
-1.674763335e-05
-0.0002641627011
0.0001097111869
0.0003105718315
-0.0001545327117
-0.0004931507996
0.0003020334523
0.0005419921511
-0.000346797327
-0.0004605490876
0.0004436040247
0.0004883452907
-0.000468156021
-0.0002288643788
0.0004968611925
0.000233771427
-0.0005004133838
4.386181931e-05
0.0005003272273
-4.480380471e-05
-0.0004985438876
0.0002952330429
0.0004745777691
-0.0003085733629
-0.0004584940163
0.0004200353289
0.0003743963996
-0.000450000094
-0.0003418003019
0.0003583568528
0.0002318560466
-0.0003952233356
-0.0001947691787
0.0001627813436
9.144791153e-05
-0.0001924004326
-6.22761784e-05
4.631263593e-06
4.885628461e-06
-8.537574414e-06
-6.893758334e-08
0
0
0
0
0
0
0
0
0
0
0
0
0
0
0
0
0
0
0
0
0
0
0
0
0
0
0
0
0
0
0
0
0
0
0
6.081674231e-07
-1.18977303e-09
-3.262815448e-08
-7.885083681e-05
9.844917332e-06
9.526371908e-05
-2.306853015e-05
-0.0004296855417
9.163015587e-05
0.0004568378814
-0.0001165943138
-0.0006529016304
0.00020091438
0.0006767680094
-0.0002226821762
-0.0005218419739
0.000258422041
0.0005244269763
-0.0002600512333
-0.0002368657559
0.0002588132183
0.0001102076066
0.0001277016147
-0.0001380899533
-0.0001217667304
0.0001388911948
1.420643739e-05
-1.433270215e-05
-0.00013876493
0.0001366688575
0.0003297235823
-0.0002577369633
0.0001215015757
-0.0001737981043
-0.0001563589479
0.0002314536763
0.0005233736829
-0.0005395517866
-0.0002146534323
0.0004843530989
0.0001547857334
-0.000508768163
-0.0001298719396
0.0002713771133
6.576168602e-05
-0.0002966350227
-4.953378625e-05
1.111521376e-05
3.791452553e-05
-4.891992584e-05
-3.667474722e-06
0
0
0
0
0
0
0
0
0
0
0
0
0
0
0
0
0
0
0
0
0
0
0
0
0
0
0
0
0
0
0
0
0
-2.553233091e-06
0
5.485010073e-06
-1.199565553e-08
1.629463863e-07
-0.0001293231908
6.487832399e-07
0.0001334585509
-1.513198979e-06
-0.0005258970843
6.735618652e-06
0.0005346156865
-9.411912088e-06
-0.0007208156676
1.51020612e-05
0.0007265577182
-1.553182628e-05
-0.0005226060352
1.232355853e-05
0.0005212899023
-1.030757891e-05
-0.0001292473908
1.29301959e-05
0.0001294161028
-1.309890784e-05
1.327158083e-05
0.0001575558848
-0.0001575761155
-1.325135015e-05
8.676299018e-06
0.0005743045055
-0.0005799939586
-4.944106326e-06
0.0005664278804
-2.677275437e-06
-0.0005753048115
3.647571603e-06
0.0003483183015
-2.646045981e-06
-0.0003563934446
1.796729581e-06
-1.334098733e-06
7.41872138e-05
-8.526942925e-05
3.98911966e-07
0
0
0
0
0
0
0
0
0
0
0
0
0
0
0
0
0
0
0
0
0
0
0
0
0
0
0
0
0
0
0
0
0
-7.138688405e-06
0
9.017687062e-06
1.174250527e-06
1.656142249e-06
-0.0001545488109
-1.701874691e-05
0.0001590138242
3.115854713e-05
-0.0005646904303
-9.108586493e-05
0.0005707869203
0.0001143806008
-0.0007404470568
-0.000181885211
0.0007432030765
0.0002005180489
-0.0005189543351
-0.0002335423981
0.0005185213185
0.0002351522894
-0.0001292744233
-0.0001101596916
0.0001292536581
0.0001101804569
-0.0001107610016
0.0001576342052
-0.0001575659078
0.0001106927042
-0.0002360256084
0.0005906947612
-0.0005923573103
0.000234321497
0.0006028788238
-0.0002023296709
-0.0006083458605
0.00018360552
0.000387156744
-0.0001132377571
-0.0003934569946
8.832743408e-05
-2.599955761e-05
9.895948958e-05
-0.0001034441802
1.254248938e-05
0
0
0
0
0
0
0
0
0
0
0
0
0
0
0
0
0
0
0
0
0
0
0
0
0
0
0
0
0
0
0
0
0
-1.083797156e-05
0
1.333665905e-05
3.551829498e-06
4.428953051e-06
-0.0001701195201
-3.915288053e-05
0.0001745989712
6.973754207e-05
-0.0005857539698
-0.0001966336216
0.0005916504005
0.000244968485
-0.0007499296332
-0.0003813183816
0.0007524795895
0.000417564807
-0.0005174466472
-0.0004773200903
0.0005170969564
0.0004789143109
-0.0001290120975
-0.0002319053119
0.0001290529005
0.0001139775742
0.0001178869346
-0.0002337541249
0.0001569984105
-0.0001568411317
0.0002335968461
-0.0004802138741
0.0005905249549
-0.0005888148458
0.0004725762173
0.0006051372343
-0.000396054224
-0.0006027111878
0.0003561509333
0.0003893275608
-0.0002152706714
-0.000386956097
0.0001677647784
-4.97996264e-05
0.0001003721836
-9.897348631e-05
2.41208813e-05
0
0
0
0
0
0
0
0
0
0
0
0
0
0
0
0
0
0
0
0
0
0
0
0
0
0
0
0
0
0
0
0
0
-1.606111792e-05
0
1.918516253e-05
7.843538362e-06
9.281734563e-06
-0.0001885827839
-6.682533549e-05
0.0001934966851
0.0001153469151
-0.0006095971972
-0.0003117915902
0.0006157553389
0.0003853238095
-0.0007600170701
-0.0005887123672
0.0007625295089
0.0006413152439
-0.0005161281944
-0.0007227097021
0.0005158677513
0.0007236741009
-0.0001287263501
-0.0003543514967
0.0001287053818
0.0001752618492
0.0001791106157
-0.0003562074871
0.0001558812549
-0.0001556230089
0.0003559492411
-0.0007207126438
0.0005783823721
-0.0005726033432
0.0007007434801
0.0005780295335
-0.0005609649989
-0.0005713123137
0.0005039176383
0.0003574228847
-0.0002925215035
-0.0003486701353
0.0002236784755
-5.892888678e-05
7.901150532e-05
-7.438303725e-05
2.5406363e-05
0
0
0
0
0
0
0
0
0
0
0
0
0
0
0
0
0
0
0
0
0
0
0
0
0
0
0
0
0
0
0
0
0
-2.2950263e-05
0
2.434678747e-05
1.491853512e-05
1.63519104e-05
-0.0002095098543
-0.0001010589723
0.0002157545675
0.0001689754227
-0.0006352904186
-0.0004370313642
0.000642692013
0.0005355935754
-0.0007702272978
-0.0008033586444
0.000772994891
0.0008707722215
-0.0005153240406
-0.0009678872289
0.0005153257877
0.0009679884633
-0.0001284149465
-0.0004764755462
0.0001283565138
0.0002362704464
0.0002402635324
-0.0004771001438
0.0001542245554
-0.0001539892424
0.0004768648308
-0.0009447914945
0.0005543291861
-0.0005462423887
0.0009054050456
0.0005334073697
-0.0007037256571
-0.0005141736093
0.0006104467157
0.0003064043196
-0.0003258526054
-0.0002852236749
0.0002392438372
-5.080972971e-05
5.027831436e-05
-4.308561239e-05
1.662106997e-05
0
0
0
0
0
0
0
0
0
0
0
0
0
0
0
0
0
0
0
0
0
0
0
0
0
0
0
0
0
0
0
0
0
-3.398709876e-05
0
4.405496486e-05
2.832779054e-05
3.385329858e-05
-0.000234488614
-0.0001463676969
0.0002505830786
0.0002339367428
-0.0006674289445
-0.0005779808226
0.0006764163223
0.0007016493701
-0.0007816196057
-0.001031496053
0.0007870173904
0.001109330338
-0.0005153742468
-0.001212995618
0.0005158376667
0.0005986254867
0.0006139067114
-6.619899504e-05
-0.0002970540636
6.627936512e-05
0.0002969736936
3.955805761e-06
-0.0001481698828
-3.598477782e-06
0.0002969754168
-0.000149162862
-0.0005957119646
0.0001526593948
-0.0003218614447
0.001206103667
-0.0006106557871
0.0001694661347
0.0005223164378
-0.001135444666
-0.0005051893786
0.001063703126
0.0004637023234
-0.0007795892939
-0.000446564364
0.000664830101
0.0002343322002
-0.0003225418577
-0.0002202508834
0.0002235890976
-2.561045965e-05
1.766012e-05
-1.386945857e-05
2.523286073e-06
0
0
0
0
0
0
0
0
0
0
0
0
0
0
0
0
0
0
0
0
0
0
0
0
0
0
0
0
0
0
0
0
0
-5.029996757e-05
0
4.14726338e-05
4.517847243e-05
4.296953368e-05
-0.0002749559879
-0.0002039751892
0.0002666938334
0.0003190508408
-0.0007037522379
-0.0007468329181
0.000692767399
0.0008964649318
-0.0007866646194
-0.001278072322
0.0007823353676
0.001364782707
-0.0005086817324
-0.001458953652
0.0005086817324
0.0007220019404
0.0007369517114
-6.434717744e-05
-0.0007220019404
0.0001243622296
-6.00150522e-05
0.0003589213255
0.0003630806149
1.427026764e-05
-0.0003589213302
-1.427026062e-05
0.0007220019404
-0.0003630806172
-0.001458953652
0.0003227168749
-0.0003210950955
0.001454314913
0.0004707119142
-0.001272325816
-0.0004585081328
0.001173712416
0.0003903376779
-0.0007891494656
-0.0003666744795
0.0006491107595
0.0001635767941
-0.0002629796913
-0.0001456995951
0.0001691826711
-4.119620178e-06
2.709667195e-06
-1.22922532e-06
0
0
0
0
0
0
0
0
0
0
0
0
0
0
0
0
0
0
0
0
0
0
0
0
0
0
0
0
0
0
0
0
0
0
-2.590602195e-05
0
9.526743326e-06
2.381949238e-05
1.535889285e-05
-0.0002085685918
-0.0001685316256
0.0001807956831
0.0002846408612
-0.0006096552301
-0.0007474072141
0.000566400514
0.0009175946472
-0.0007404487708
-0.001377169505
0.0007136312081
0.001493589487
-0.0005158747784
-0.001688372057
0.0005181031433
0.001703594386
-0.0001243622297
-0.001704003603
0.0002314002509
0.001704003603
-0.0001070380212
4.586990314e-05
-0.001704003603
-4.586990317e-05
0.001704003603
0.0003084394807
-0.001671366386
-0.0002997268662
0.001622245007
0.0004086965659
-0.001330804325
-0.0003884259735
0.001193486512
0.0002961751606
-0.0007238867735
-0.0002748575717
0.0005668211953
9.04735741e-05
-0.0001741720052
-7.338457861e-05
9.090785003e-05
0
0
0
0
0
0
0
0
0
0
0
0
0
0
0
0
0
0
0
0
0
0
0
0
0
0
0
0
0
0
0
0
0
0
0
0
0
-2.328197596e-07
0
0
1.454635531e-07
0
-8.951966037e-05
-6.405516887e-05
6.148396766e-05
0.0001446103337
-0.0004018381159
-0.0005381757793
0.0003401635692
0.0007013446363
-0.0005864829148
-0.001195557228
0.0005295828018
0.001341922023
-0.0004821579276
-0.001671828266
0.0004542054866
0.001741846283
-0.0002274164933
-0.001850883374
0.0002189746855
0.001861568611
4.415587896e-05
-0.001834616971
-4.137093982e-05
0.001803332131
0.0002560728238
-0.00161633403
-0.0002357400966
0.001518847144
0.0003076033944
-0.00113146938
-0.0002752956665
0.0009800645692
0.0001942637532
-0.0005180363223
-0.0001639027949
0.0003779550353
3.076259216e-05
-6.957902983e-05
-1.841454904e-05
1.908271237e-05
0
0
0
0
0
0
0
0
0
0
0
0
0
0
0
0
0
0
0
0
0
0
0
0
0
0
0
0
0
0
0
0
0
0
0
0
0
0
0
0
0
0
-6.41766755e-06
-1.582392232e-07
1.055036144e-06
1.197911689e-05
-0.0001614720838
-0.0002098652181
0.0001110057456
0.0003203896121
-0.0003342367173
-0.000716430856
0.000267911467
0.0008520351252
-0.0003310773146
-0.001206106474
0.0002819264226
0.001296428972
-0.0001717920062
-0.001464112707
0.0001506873511
0.001484612899
2.801888733e-05
-0.001441994985
-2.293678698e-05
0.001393987264
0.0001628925757
-0.001156506954
-0.0001368696126
0.001050383556
0.000170876639
-0.0006829486592
-0.0001362935628
0.0005550001753
7.433767145e-05
-0.0002102867313
-4.867869538e-05
0.0001228803164
2.665602419e-07
-5.251040025e-07
0
0
0
0
0
0
0
0
0
0
0
0
0
0
0
0
0
0
0
0
0
0
0
0
0
0
0
0
0
0
0
0
0
0
0
0
0
0
0
0
0
0
0
0
0
0
0
0
-1.270531514e-05
-5.824552081e-06
1.975079847e-06
2.716626985e-05
-9.713705082e-05
-0.0001900086259
5.627403486e-05
0.000264623553
-0.0001365549207
-0.000494240014
9.507259755e-05
0.0005611463614
-8.2352261e-05
-0.0006977875908
6.093016258e-05
0.000717157006
9.792111336e-06
-0.000690338619
-6.637249162e-06
0.0006545015686
6.401872077e-05
-0.000483400328
-4.387513973e-05
0.0004117863433
4.684734045e-05
-0.0001906981718
-2.542460833e-05
0.0001257549774
2.459441412e-06
-7.201072755e-06
-6.894944665e-09
7.762564927e-08
0
0
0
0
0
0
0
0
0
0
0
0
0
0
0
0
0
0
0
0
0
0
0
0
0
0
0
0
0
0
0
0
0
0
0
0
0
0
0
0
0
0
0
0
0
0
0
0
0
0
0
0
0
0
-3.039344164e-07
0
0
1.041873208e-06
-1.245312539e-05
-2.857941305e-05
1.959069866e-06
4.43222024e-05
-1.271466939e-05
-8.641915026e-05
4.234594824e-06
9.381717381e-05
1.063711142e-06
-8.70529597e-05
-3.049209489e-07
7.587720479e-05
4.66947518e-06
-3.007059502e-05
-3.915350465e-07
1.654987815e-05
0
0
0
0
0
0
0
0
0
0
0
0
0
0
0
0
0
0
0
0
0
0
0
0
0
0
0
0
0
0
0
0
0
0
0
0
0
0
0
0
0
0
0
0
0
0
0
0
0
0
0
0
0
0
0
0
0
0
0
0
0
0
0
0
0
0
0
0
0
0
0
0
0
0
0
0
0
0
0
0
0
0
0
0
0
0
0
0
0
0
0
0
0
0
0
0
0
0
0
0
0
0
0
0
0
0
0
0
0
0
0
0
0
0
0
0
0
0
0
0
0
0
0
0
0
0
0
0
0
0
0
0
0
0
0
0
0
0
0
0
0
0
0
0
0
0
0
0
0
0
0
0
0
0
0
0
0
0
0
0
0
0
0
0
0
0
0
0
0
0
0
0
0
0
0
0
0
0
0
0
0
0
0
0
0
0
0
0
0
0
0
0
0
0
0
0
0
0
0
0
0
0
0
0
0
0
0
0
0
0
0
0
0
0
0
0
0
0
0
0
0
0
0
0
0
0
0
0
0
0
0
0
0
0
0
0
0
0
0
0
0
0
0
0
0
0
0
0
0
0
0
0
0
0
0
0
0
0
0
0
0
0
0
0
0
0
0
0
0
0
0
0
0
0
0
0
0
0
0
0
0
0
0
0
0
0
0
0
0
0
0
0
0
0
0
0
0
0
0
0
0
0
0
0
0
0
0
0
0
0
0
0
0
0
0
0
0
0
0
0
0
0
0
0
0
0
0
0
0
0
0
0
0
0
0
0
0
0
0
0
0
0
0
0
0
0
0
0
0
0
0
0
0
0
0
0
0
0
0
0
0
0
0
0
0
0
0
0
0
0
0
0
0
0
0
0
0
0
0
0
0
0
0
0
0
0
0
0
0
0
0
0
0
0
0
0
0
0
0
0
0
0
0
0
0
0
0
0
0
0
0
0
0
0
0
0
0
0
0
0
0
0
0
0
0
0
0
0
0
0
0
0
0
0
0
0
0
0
0
0
0
0
0
0
0
0
0
0
0
0
0
0
0
0
0
0
0
0
0
0
0
0
0
0
0
0
0
0
0
0
0
0
0
0
0
0
0
0
0
0
0
0
0
0
0
0
0
0
0
0
0
0
0
0
0
0
0
0
0
0
0
0
0
0
0
0
0
0
0
0
0
0
0
0
0
0
0
0
0
0
0
0
0
0
0
0
0
0
0
0
0
0
0
0
0
0
0
0
0
0
0
0
0
0
0
0
0
0
0
0
0
0
0
0
0
0
0
0
0
0
0
0
0
0
0
0
0
0
0
0
0
0
0
0
0
0
0
0
0
0
0
0
0
0
0
0
0
0
0
0
0
0
0
0
0
0
0
0
0
0
0
0
0
0
0
0
0
0
0
0
0
0
0
0
0
0
0
0
0
0
0
0
0
0
0
0
0
0
0
0
0
0
0
0
0
0
0
0
0
0
0
0
0
0
0
0
0
0
0
0
0
0
0
0
0
0
0
0
0
0
0
0
0
0
0
0
0
0
0
0
0
0
0
0
0
0
0
0
0
0
0
0
0
0
0
0
0
0
0
0
0
0
0
0
0
0
0
0
0
0
0
0
0
0
0
0
0
0
0
0
0
0
0
0
0
0
0
0
0
0
0
0
0
0
0
0
0
0
0
0
0
0
0
0
0
0
0
0
0
0
0
0
0
0
0
0
0
0
0
0
0
0
0
0
0
0
0
0
0
0
0
0
0
0
0
0
0
0
0
0
0
0
0
0
0
0
0
0
0
0
0
0
0
0
0
0
0
0
0
0
0
0
0
0
0
0
0
0
0
0
0
0
0
0
0
0
0
0
0
0
0
0
0
0
0
0
0
0
0
0
0
0
0
0
0
0
0
0
0
0
0
0
0
0
0
0
0
0
0
0
0
0
0
0
0
0
0
0
0
0
0
0
0
0
0
0
0
0
0
0
0
0
0
0
0
0
0
0
0
0
0
0
0
0
0
0
0
0
0
0
0
0
0
0
0
0
0
0
0
0
0
0
0
0
0
0
0
0
0
0
0
0
0
0
0
0
0
0
0
0
0
0
0
0
0
0
0
0
0
0
0
0
0
0
0
0
0
0
0
0
0
0
0
0
0
0
0
0
0
0
0
0
0
0
0
0
0
0
0
0
0
0
0
0
0
0
0
0
0
0
0
0
0
0
0
0
0
0
0
0
0
0
0
0
0
0
0
0
0
0
0
0
0
0
0
0
0
0
0
0
0
0
0
0
0
0
0
0
0
0
0
0
0
0
0
0
0
0
0
0
0
0
0
0
0
0
0
0
0
0
0
0
0
0
0
0
0
0
0
0
0
0
0
0
0
0
0
0
0
0
0
0
0
0
0
0
0
0
0
0
0
0
0
0
0
0
0
0
0
0
0
0
0
0
0
0
0
0
0
0
0
0
0
0
0
0
0
0
0
0
0
0
0
0
0
0
0
0
0
0
0
0
0
0
0
0
0
0
0
0
0
0
0
0
0
0
0
0
0
0
0
0
0
0
0
0
0
0
0
0
0
0
0
0
0
0
0
0
0
0
0
0
0
0
0
0
0
0
0
0
0
0
0
0
0
0
0
0
0
0
0
0
0
0
0
0
0
0
0
0
0
0
0
0
0
0
0
0
0
0
0
0
0
0
0
0
0
0
0
0
0
0
0
0
0
0
0
0
0
0
0
0
0
0
0
0
0
0
0
0
0
0
0
0
0
0
0
0
0
0
0
0
0
0
0
0
0
0
0
0
0
0
0
0
0
0
0
0
0
0
0
0
0
0
0
0
0
0
0
0
0
0
0
0
0
0
0
0
0
0
0
0
0
0
0
0
0
0
0
0
0
0
0
0
0
0
0
0
0
0
0
0
0
0
0
0
0
0
0
0
0
0
0
0
0
0
0
0
0
0
0
0
0
0
0
0
0
0
0
0
0
0
0
0
0
0
0
0
0
0
0
0
0
0
0
0
0
0
0
0
0
0
0
0
0
0
0
0
0
0
0
0
0
0
0
0
0
0
0
0
0
0
0
0
0
0
0
0
0
0
0
0
0
0
0
0
0
0
0
0
0
0
0
0
0
0
0
0
0
0
0
0
0
0
0
0
0
0
0
0
0
0
0
0
0
0
0
0
0
0
0
0
0
0
0
0
0
0
0
0
0
0
0
0
0
0
0
0
0
0
0
0
0
0
0
0
0
0
0
-9.494493007e-05
9.49659723e-05
-0.0001292954656
-0.000140661437
9.509059416e-05
0.0001406947709
-4.960144738e-05
-4.552248071e-05
0.0001405316023
1.325815697e-05
-0.0001405181784
-0.0002166561614
-0.0001290006893
0.0001064762223
0.0001101685309
-0.0001397766471
0.0002185912849
0.0001399586405
-0.0001112995296
-0.0001074737488
-0.0001404538061
-5.743758739e-05
-5.353104516e-05
-0.0003390454621
-0.0001287279733
0.0001676529298
0.0001713941555
-0.0001388071291
0.0003406613391
0.0001386951296
-0.0001721157334
-0.0001684336062
-0.0001396225397
-0.0001187370351
-0.0001151711972
-0.0004610765392
-0.0001283875469
0.0002286398694
0.0002324092702
-0.0001367845925
0.0004616100544
0.000137204936
-0.000462030398
-0.0003564980437
-0.0001385165725
-0.0002935081182
0.0002935116241
-6.620250095e-05
0.0001474821366
-5.13124308e-07
5.711435589e-07
-0.0001475401559
-0.0001465286799
0.0002935878159
4.37880633e-06
-0.0001348708471
0.0005814549926
0.0001350471765
-0.000581631322
-0.0004775050143
-0.000136379722
-0.0003554291762
0.0003554291762
-6.434717745e-05
0.0003554291892
-6.365168669e-07
6.364771392e-07
-0.0003554291495
-0.0001483483009
-3.347061882e-07
0.0007067061675
-0.0003232455226
-1.149555872e-05
-2.265629301e-06
-0.0002388998523
0.001376525032
-0.0007038948958
-0.0006842678862
0.0001173566796
0.0001331809231
-0.0005959294652
-0.0001346533465
2.864804174e-05
-2.880864343e-05
-0.0001290867892
-3.511536952e-06
0.0001389001763
3.502555418e-06
-2.874891627e-05
0.0001402611945
2.901932404e-05
0.0001385936735
0.0001369952514
-0.0001389200674
-1.983841066e-05
9.818111587e-06
1.978680274e-05
-9.766503667e-06
-8.875330467e-06
3.794639532e-05
8.973665447e-06
-3.80447303e-05
9.50238928e-05
0.0001577009066
-0.000538161249
0.0001740447882
0.0005383133449
-0.0001742939898
0.0005332949918
1.065594607e-05
-0.0005358018174
-0.0004162848267
0.0004178783122
-0.0005177727092
0.0001461557081
-0.0001461817114
-0.0002166301581
-0.0001464050502
-0.0001101302989
0.0001463756575
-2.196495681e-05
4.066147546e-05
2.194753122e-05
-4.064404986e-05
2.037906946e-05
2.652807059e-05
-2.673995759e-05
-2.016718247e-05
0.0002184737766
0.0001571159188
-0.000536913816
0.0004198210133
0.0005374111511
-0.0004203255964
-0.000236219245
-0.0005380153391
-0.0006614432948
0.0006625960657
-0.000516420908
0.0001458421652
-0.0001458692477
-0.0003390183796
-0.000231873933
0.0001461243292
0.0001289153042
-0.0002780457073
-0.0001289492253
0.0001370993464
0.000140980282
3.695485008e-05
7.093748747e-05
-3.684540331e-05
-0.0001409612068
6.991427251e-05
-3.68509288e-05
5.645442018e-05
-0.0001139792319
3.68702927e-05
5.75054478e-05
-1.945591628e-05
7.17062994e-05
1.95610517e-05
-7.181143481e-05
2.021678328e-05
5.685551777e-05
-5.654400545e-05
-2.05282956e-05
0.0003405476312
0.0001559949629
-0.00053193903
0.0006606598
0.0005340825537
-0.0006638594035
-0.0004808859241
-0.000536291948
-0.0009063915082
0.0009067091006
-0.0005153695429
0.0001455087738
-0.000145541478
-0.000461043835
-0.0003543007248
0.0001457913933
0.0001284337036
-0.0004001972195
-0.0001285640705
0.0001982825447
0.0002020450416
1.792443293e-05
0.000101620264
-1.795455677e-05
-0.0001015901402
-3.670610779e-05
8.720448241e-05
-0.0001753188559
3.6663802e-05
8.81566793e-05
-3.675998477e-05
0.0002028151436
3.689668242e-05
-0.0002029518412
3.743919397e-05
0.0001765116891
-3.703025469e-05
-8.904717054e-05
-8.787345779e-05
-0.001151772532
-0.0005154199161
0.0005682850723
0.0005835331295
0.0001453987235
0.0002899187344
-0.0001452754345
-0.0005835501417
-0.0004764495566
0.0001454827842
6.624223871e-05
-0.0002631942843
0.0002632337161
-6.628167045e-05
1.829316007e-05
0.0001320160072
-1.827423382e-05
-0.0001320349335
-1.819671564e-05
0.0001177337596
-0.0001176647977
1.812775367e-05
-0.0001334691505
-2.657842973e-06
0.0001331029063
3.024087181e-06
-3.553806484e-05
0.0002635425039
3.553678055e-05
-0.0002635412196
3.626116427e-05
0.000237066074
-0.0002371011031
-3.622613519e-05
-0.001340537487
-0.0005111762664
0.000636325854
0.0007067061675
0.0001416972918
0.0003512769913
-0.0001416972918
-0.0007067061675
0.0003014813262
-0.0005985302242
0.0001453935579
6.619363865e-05
-0.000324205628
0.0003241777158
-6.616572644e-05
1.786144523e-05
0.0001626168772
-1.77959505e-05
-0.0001626823719
-1.82248595e-05
0.0001479775048
-0.0001478938594
1.814121405e-05
-0.0008290581421
0.0008290581421
-0.0001243622296
0.0008290581421
3.059300036e-06
-3.059300026e-06
-0.0008290581421
-0.0003589213122
-6.365349098e-07
-3.262463943e-05
-2.247732709e-05
3.266736281e-05
1.071075815e-05
1.172384557e-05
3.275416044e-05
-4.934925367e-05
-3.268747197e-05
2.415399314e-05
2.512857207e-05
8.787292651e-06
-3.240636611e-05
3.252055911e-05
-8.901485659e-06
-1.867151853e-05
1.867610513e-05
-3.262922602e-05
2.545156392e-05
2.050727543e-05
-2.557976988e-05
1.074147198e-05
-1.076644832e-05
-1.981343432e-05
0.000140728895
4.892550869e-05
-0.000140694233
-2.649801228e-05
-2.246215842e-05
4.266926173e-05
-1.175621065e-05
-4.262370845e-05
2.245212934e-05
-2.118888146e-05
2.538679822e-05
2.125364716e-05
5.549975493e-05
-3.681820568e-05
-0.0001101730287
5.464055068e-05
8.36231124e-05
-3.67970581e-05
-8.362218806e-05
3.679613375e-05
-0.00012914064
-0.0001710697164
0.0001291200474
0.000171090309
-3.248699398e-05
3.250979611e-05
4.135614067e-05
4.224416959e-05
1.690004891e-05
5.550752618e-05
-1.690782017e-05
-5.315860922e-05
3.277413346e-05
2.603464412e-05
2.710399208e-05
-7.98990743e-05
-3.253781937e-05
3.953379376e-05
4.041610593e-05
5.578047761e-05
1.989312811e-05
-5.545682244e-05
4.193632236e-05
-4.189460762e-05
-2.200667155e-05
7.227854464e-05
8.442068323e-05
-8.445422482e-05
-7.224500305e-05
2.277427904e-05
-2.275069813e-05
4.191274145e-05
-2.104770846e-05
5.598275033e-05
2.084543574e-05
-2.105972032e-05
2.639890944e-05
4.071058785e-05
2.272516664e-05
8.044203125e-05
7.228886031e-05
-8.045234692e-05
8.619274701e-05
-3.669722104e-05
-0.0001714244551
8.522282131e-05
7.192588442e-05
-0.0001449401213
3.694104134e-05
7.302804558e-05
-0.0002934487927
0.0001288087368
0.0001448904834
0.0001486648767
-1.705166573e-05
1.706035241e-05
7.191719774e-05
1.669695208e-05
8.622153696e-05
-1.672574204e-05
1.688732318e-05
5.646714591e-05
7.08448001e-05
-1.695897836e-05
0.0001724553988
3.744425374e-05
-8.670882978e-05
-8.575162877e-05
7.255409725e-05
-7.256268529e-05
-1.944732824e-05
0.0001390417502
0.0002947562222
-0.0001389639996
-0.0001492170605
-0.0001456169122
4.201890147e-05
-7.327884484e-05
-4.187071514e-05
0.0001456847558
-4.160810649e-05
0.0001724007634
4.166274183e-05
-2.124482486e-05
5.705263418e-05
-7.060720472e-05
0.0001420015366
2.063064221e-05
2.170022675e-05
0.0002795844936
0.0001393245005
-0.0001418154484
-0.0001380517954
0.0001167471536
-1.82691293e-05
-0.0001166747399
0.0001025562969
-0.0001025011986
1.786933469e-05
-0.0004151531256
0.0001285117983
0.0002057323708
0.0002093426602
-1.69512964e-05
1.691601987e-05
0.0001025915734
1.731499626e-05
0.0001168315999
-1.739944261e-05
1.667573869e-05
8.722569581e-05
0.0001016934824
-1.702451481e-05
0.0002333786018
3.634201926e-05
-0.0002334594568
0.0002068266614
-0.0002068511686
-3.673547761e-05
0.0001472764594
-1.827624353e-05
-0.0001472250753
0.0001331371782
-0.0001331394879
1.82954697e-05
-0.0002669446974
6.623274086e-05
0.0002669541953
8.607974134e-07
0.0001335308647
-0.0001331250117
-1.266650449e-06
-1.73005786e-05
1.724592191e-05
0.0001331918349
1.694577142e-05
0.0001473596325
-1.702894449e-05
1.72359287e-05
0.0001178128272
0.0001319697813
-1.725435268e-05
1.544273603e-06
-0.0001341526267
-6.600288587e-05
0.0005819526471
6.613397215e-05
-0.0002927489882
-0.0002893347452
0.0002670956285
-0.0002670700588
-3.556363453e-05
-2.649371771e-06
0.0001335223935
0.0003583030261
3.495003125e-05
-0.0003568040409
-1.914310871e-05
-1.730590775e-05
0.000163626365
-0.0001635895292
1.782460942e-05
-0.0003279259213
6.626006242e-05
0.0003278594975
-3.324826269e-06
0.0003246826844
-0.0003250528921
3.695033927e-06
-1.513860194e-05
1.520935864e-05
0.0001635556083
2.963022314e-05
0.000358139951
-1.616654309e-05
-1.330060486e-05
1.689616828e-05
0.000148027108
-1.505705803e-05
0.0001625353333
0.0003211852742
-2.773324765e-06
-0.0003217367757
-0.0001722979706
0.0001740481782
-0.0005195616782
-0.000146434638
-9.491534231e-05
-0.0001464163569
1.28286882e-05
0.0001465178646
0.0001294021257
-3.360170824e-05
3.356713202e-05
-0.0001293675494
3.688539648e-05
-3.687649487e-05
-1.868042015e-05
-3.669485296e-05
8.706746545e-06
3.677539907e-05
-8.672839261e-06
2.535161219e-06
1.081065188e-05
-4.67297384e-06
-5.49623314e-06
1.116864393e-05
5.665869812e-06
-1.13382806e-05
-0.0001558611906
0.0001559084179
-0.0001291878673
-3.681778901e-05
-7.98783434e-05
-3.693523339e-05
-5.316001367e-05
3.693663784e-05
-3.659648224e-05
9.552915754e-05
1.845078101e-05
-7.73834563e-05
0.0004613636308
0.000154470979
-0.0005184796972
0.0008915668581
0.0005231397614
-0.0009065008744
-0.0007250495813
-0.0005297914906
-3.440683308e-05
0.000125332472
1.231046871e-05
-0.0001032361077
-1.892082294e-05
0.0002486493353
1.914019119e-05
-0.0001249007487
-0.0001239679548
1.021502632e-05
0.0001181732656
-0.0001181636009
-1.022469096e-05
-1.84080654e-06
0.0003208279418
2.198138967e-06
-6.803394196e-05
0.0006400310583
6.687635458e-05
-0.0006388734709
0.000596461891
-6.590463778e-05
-0.0003000416314
-0.0002965185077
-3.691012459e-05
-4.937436247e-05
-2.248252925e-05
3.689059864e-05
-4.87290155e-05
0.0001293576074
4.87735338e-05
-7.577334258e-06
-1.905074876e-05
7.532346038e-06
1.909573698e-05
5.18422697e-06
-8.027696246e-06
8.12147213e-06
-5.278002855e-06
-1.895950694e-06
8.300327511e-06
2.002741806e-06
-8.407118623e-06
4.231475771e-05
-4.232832672e-05
-8.861761461e-06
-8.754785906e-06
1.858376603e-05
4.26583932e-05
3.33407008e-05
0.0001405289719
-1.851124268e-05
-1.462953504e-05
0.0001174323064
1.032129998e-05
-0.0001175385801
1.16723184e-05
0.0001108599901
-0.0001112241589
-1.130814962e-05
0.0001379755782
0.0004162151223
-0.0004165077378
-0.0001376829627
4.116267955e-05
-4.103405891e-05
0.0002066980408
-4.058503978e-05
0.0002332644212
4.069922036e-05
-4.14659048e-05
0.0001763694874
0.0002027970229
4.118080017e-05
0.0004015298579
0.0001381644828
-0.0004017187625
2.054302597e-06
0.0001413193484
-0.0001417911563
-1.582494721e-06
-0.000154214698
4.944509413e-06
0.0001541037813
-4.833592697e-06
1.786146556e-06
0.0003076558388
-1.562738086e-06
-0.0001542384692
-0.0001536407781
-4.123852082e-05
7.788655043e-07
4.119649968e-05
-7.368443595e-07
7.76388117e-05
-5.782668931e-05
2.68292387e-05
3.153379408e-05
-4.09173961e-05
-3.725775907e-05
1.277050244e-05
-1.29045075e-05
-3.227236104e-05
-1.287637695e-05
3.786055159e-05
1.296222068e-05
-7.684498605e-05
6.958805563e-05
3.658559983e-05
4.076537147e-05
-3.721993341e-05
-3.287410745e-05
5.464180051e-06
-5.506556949e-06
-4.119614392e-05
6.441661537e-07
-9.317005415e-06
3.822629512e-05
6.875058247e-06
-3.834437808e-05
-3.878313638e-06
-2.878661653e-06
1.195207001e-05
-1.390932618e-05
2.601422323e-06
1.218763705e-05
-1.234187659e-05
-5.341993596e-06
2.074676662e-06
1.241255457e-05
2.874895704e-06
3.811604626e-05
-1.882368064e-06
-8.822787795e-07
1.883555325e-05
3.38258655e-05
-3.38245629e-05
-1.883685585e-05
3.313032823e-05
1.894194865e-05
-3.323672363e-05
1.929210389e-05
6.496625271e-05
-6.487162574e-05
-1.938673086e-05
6.432062207e-05
1.944458341e-05
-6.447310159e-05
0.0001017709726
-1.168165911e-05
1.083565696e-05
-0.0001009249704
9.828093351e-05
-0.0001260427927
-8.834623025e-06
3.711937524e-05
0.0001913281489
-0.0001913418822
-3.710564189e-05
1.371675406e-05
-1.212608537e-05
9.669026483e-05
-1.271764659e-05
0.0001020186638
1.246995533e-05
1.224713369e-05
-1.894567021e-05
8.651224806e-05
-7.981371154e-05
9.489916451e-05
1.434674708e-05
0.000187650467
3.71681102e-05
-9.430436297e-05
-9.3394839e-05
0.0001255428801
-1.769183341e-05
-0.0001254886211
1.763757435e-05
-4.922761122e-05
-0.0002515429611
4.922876725e-05
0.0002515418051
4.919515337e-05
-0.0002632280539
0.0002632668042
-4.923390368e-05
-1.823034643e-05
0.0002636489164
1.837899341e-05
-0.0002637975634
0.0002523677824
-1.868543891e-05
-0.0001268183991
-0.0001257847674
-0.0001616960561
-1.041505697e-06
0.0001283307287
-1.76567568e-05
0.0001558841276
-0.0001558070469
1.757967609e-05
-4.90726514e-05
-0.0003125457636
4.911905041e-05
0.0003124993646
4.912758538e-05
-0.0003241579019
-4.899620472e-05
0.0001614965562
0.000162529965
-4.916472043e-05
-0.0002969602311
4.920541064e-05
0.0002969195408
-0.00030870629
0.0003087100333
-4.907639474e-05
0.0001547817036
-1.768813132e-05
-0.0001547503291
-9.758235914e-06
-7.664481411e-06
7.15167342e-06
1.027104391e-05
-1.806052601e-05
-7.560357037e-06
1.804354879e-05
3.262345475e-05
-3.408316736e-05
-3.26323994e-05
1.653395592e-05
1.755815608e-05
9.318419829e-06
-9.396980883e-06
-1.798196495e-05
-9.279026688e-06
-1.014708507e-05
9.66787584e-06
8.504645672e-06
-7.85904575e-06
-2.482436992e-05
2.417876999e-05
-1.89594813e-05
9.227152371e-06
-3.797574888e-05
3.256504214e-05
1.856271246e-05
1.947144904e-05
3.26005916e-05
-3.212434642e-06
3.163479237e-06
-3.25516362e-05
9.479031003e-06
-9.462564098e-06
-1.9124176e-06
-9.102994698e-06
5.081766093e-06
9.205455574e-06
9.259911168e-06
-9.151131967e-06
-9.387805888e-06
2.696338813e-06
-2.804744582e-06
9.587436772e-06