/*--------------------------------*- C++ -*----------------------------------*\
| =========                 |                                                 |
| \\      /  F ield         | OpenFOAM: The Open Source CFD Toolbox           |
|  \\    /   O peration     | Version:  v1912                                 |
|   \\  /    A nd           | Website:  www.openfoam.com                      |
|    \\/     M anipulation  |                                                 |
\*---------------------------------------------------------------------------*/
FoamFile
{
    version     2.0;
    format      ascii;
    class       volVectorField;
    location    "0.48";
    object      U;
}
// * * * * * * * * * * * * * * * * * * * * * * * * * * * * * * * * * * * * * //

dimensions      [0 1 -1 0 0 0 0];


internalField   nonuniform List<vector> 
12556
(
(99.99859597 0.003372953937 -3.97236342e-21)
(99.99819244 0.0112177227 3.21640157e-25)
(99.9970546 0.02321666978 -3.963427792e-21)
(99.99516488 0.04204303807 -3.935485003e-21)
(99.99979398 0.03268817375 3.789956175e-21)
(99.99762271 0.05304527706 0)
(99.99639011 0.08437838696 0)
(99.99604473 0.1271115615 -6.591778118e-21)
(99.99499637 0.1829946206 7.650474416e-22)
(99.99434592 0.249909583 -4.92735747e-21)
(99.9946604 0.3193826912 6.669044584e-22)
(99.99633842 0.3766986875 0)
(99.99930688 0.4055287954 0)
(100.0026439 0.3954698375 1.202175184e-21)
(100.0046533 0.3523710625 -1.691014435e-21)
(100.0054404 0.2910866047 9.343778149e-22)
(100.0051511 0.2262195235 0)
(100.0045779 0.1678182623 1.477018636e-21)
(100.0042185 0.1185102251 6.055754969e-21)
(100.0022547 0.08291362744 -1.685688749e-21)
(100.0089209 0.0942260813 -1.461263547e-20)
(100.0060964 0.05805295415 0)
(100.0044507 0.03083187972 -1.830078285e-21)
(100.0042628 0.009702326644 -1.288073696e-20)
(99.98749681 0.008962651808 1.592020952e-20)
(99.98282058 0.03020311922 3.974692508e-21)
(99.97227663 0.06312935479 2.774875144e-20)
(99.9542214 0.1151302455 -1.188406773e-20)
(99.95753299 0.1541951533 3.819628146e-21)
(99.93011253 0.2528353887 -4.867171712e-23)
(99.89460495 0.4024421467 0)
(99.87577186 0.5361707111 -6.650726993e-21)
(99.8375635 0.7808852074 -6.126503101e-21)
(99.80973717 1.082916098 -1.055406451e-20)
(99.80925675 1.407712159 -4.294823797e-21)
(99.8514795 1.687945498 -5.289729753e-21)
(99.93428379 1.837747666 -1.02257493e-21)
(100.0276399 1.81075036 4.015695137e-22)
(100.1017953 1.624866588 -5.557431913e-22)
(100.1363507 1.343740294 4.800320996e-21)
(100.1378667 1.043322709 -9.187559665e-21)
(100.1175828 0.7756393745 0)
(100.1216723 0.5787783416 -2.559898896e-20)
(100.0859936 0.3928921784 4.921540832e-20)
(100.083647 0.268248718 1.414822818e-20)
(100.0581962 0.164739834 2.909314627e-20)
(100.0433192 0.08779424465 -2.917937268e-20)
(100.0377408 0.02768270378 1.471158665e-20)
(99.96663605 0.01146593989 -1.588477152e-20)
(99.95344196 0.03957104014 -3.190771783e-20)
(99.92478742 0.08502257477 -7.148079886e-20)
(99.87685635 0.1591445963 9.508670605e-20)
(99.85391817 0.2417847477 -7.848701051e-21)
(99.77178011 0.4083906703 -7.615936819e-21)
(99.66233946 0.6638501133 -1.320877247e-20)
(99.60218141 0.9410058386 0)
(99.47941255 1.406777566 2.541600154e-20)
(99.38668825 2.001033565 2.279576177e-20)
(99.3930014 2.657253897 -7.577555415e-20)
(99.55282832 3.249738198 1.504643378e-21)
(99.86201752 3.596249963 6.201469737e-20)
(100.2154132 3.549599581 -1.535280517e-21)
(100.4703039 3.142838978 4.661417412e-20)
(100.5745992 2.558983786 5.820746164e-21)
(100.5536073 1.950747725 -9.84876339e-21)
(100.4679062 1.415350877 -2.288682432e-20)
(100.4014584 0.9843196501 -1.536451818e-19)
(100.2914019 0.6593629317 -3.396823425e-20)
(100.2307043 0.404864865 -1.448780023e-20)
(100.1630548 0.2467704985 3.290801316e-20)
(100.1221475 0.1315517696 -3.695388656e-21)
(100.104411 0.04131127064 0)
(99.94268806 0.009043571406 -8.011780328e-21)
(99.91743913 0.0335924795 5.60762789e-20)
(99.86350843 0.07968905686 -1.604503066e-20)
(99.77529382 0.1584332644 0)
(99.70550901 0.273822253 0)
(99.5454567 0.486587242 -6.170547998e-20)
(99.32289074 0.8245995222 -1.233808615e-19)
(99.14757574 1.233727086 2.892250921e-20)
(98.85886889 1.912131227 0)
(98.62991475 2.79849232 1.06432746e-19)
(98.57752508 3.872427962 -3.635384016e-19)
(98.88028909 4.972194591 -2.581493261e-19)
(99.62856622 5.685950358 -2.264076696e-20)
(100.5373706 5.611996725 1.073247385e-19)
(101.1524182 4.827078991 6.32338239e-21)
(101.3372948 3.763718789 0)
(101.2463296 2.767781084 0)
(101.0364052 1.953234184 0)
(100.8290607 1.291848144 5.563552275e-20)
(100.5995864 0.8457661263 -4.288535613e-20)
(100.435576 0.4821586265 -3.704856688e-20)
(100.3094388 0.2903224105 1.874304195e-20)
(100.2310999 0.1529215751 -3.760349419e-21)
(100.1953996 0.04762748128 0)
(99.92746778 0.000553593545 0)
(99.88824545 0.008425193916 0)
(99.80521657 0.04052506898 8.111721793e-21)
(99.66873117 0.104873421 1.223874122e-20)
(99.54197708 0.236161989 2.022461691e-20)
(99.27958663 0.4617472619 0)
(98.91183993 0.824374644 0)
(98.55630488 1.332657879 6.148295442e-20)
(98.03130509 2.157685543 -2.834476481e-21)
(97.51617376 3.324884768 -3.710724395e-19)
(97.19089502 4.954092049 4.402654797e-19)
(97.54077843 6.950324844 3.477894238e-19)
(99.08551694 8.483077219 0)
(101.1613225 8.343231959 -1.267128833e-19)
(102.4022439 6.791796551 0)
(102.6081858 4.925424478 -1.182435333e-21)
(102.2721864 3.403851531 -1.01757187e-19)
(101.8152593 2.305587002 -4.372935359e-22)
(101.3790788 1.446298193 -9.148927277e-20)
(100.9843366 0.9207062659 7.609292627e-21)
(100.6720848 0.4792567124 0)
(100.4735973 0.2836312939 3.830442818e-21)
(100.3497227 0.1453981147 -2.876542571e-21)
(100.29216 0.04461476185 -9.540692449e-22)
(99.9340903 -0.01436772407 0)
(99.88064201 -0.0371526967 0)
(99.76887811 -0.03660724049 -1.62412818e-20)
(99.58192531 -0.004677142678 3.311698546e-20)
(99.39069438 0.1178915375 0)
(99.01751924 0.3122670222 0)
(98.48087856 0.6436922837 2.58871549e-20)
(97.91305636 1.171386651 6.792069173e-20)
(97.08258114 1.992937178 0)
(96.06172845 3.305097548 3.049046477e-19)
(94.99004903 5.523203329 -1.155013126e-18)
(94.76315431 9.159656971 -2.759745085e-19)
(97.81095625 12.92710163 0)
(102.6989069 12.35071702 -1.213099693e-19)
(104.77332 8.937009896 2.040449705e-19)
(104.5961712 5.856819233 0)
(103.6700055 3.727799795 -2.488970775e-19)
(102.7526661 2.369084724 -3.070575848e-20)
(102.0048496 1.394078829 2.350008356e-20)
(101.4004699 0.8501451226 -1.572380899e-20)
(100.9097328 0.3844409667 0)
(100.6285448 0.2186423386 0)
(100.4553009 0.1048170751 -9.670087181e-22)
(100.3742168 0.03115253136 -2.901035647e-21)
(99.97512613 -0.03532368578 3.975533236e-21)
(99.90896607 -0.1014566705 -4.005779732e-21)
(99.77262614 -0.1487610092 8.174856781e-21)
(99.54182283 -0.1697901484 -2.988645278e-20)
(99.28016843 -0.08146674805 6.357356061e-23)
(98.80871565 0.03841156704 2.558217363e-20)
(98.11712527 0.2765440407 -5.304194803e-20)
(97.35913095 0.7056367564 1.512713032e-19)
(96.18716807 1.369644042 -6.575987219e-19)
(94.52326589 2.498751311 -6.21936678e-19)
(92.05418835 4.646880613 7.787743157e-19)
(88.61055733 10.06793392 0)
(93.57382541 21.37376395 0)
(107.7863568 18.21727396 -6.228216053e-20)
(109.1046641 10.55128824 3.6869659e-19)
(107.3717733 6.003135141 0)
(105.3601604 3.461668453 -5.787490082e-19)
(103.7669431 2.037980882 -6.986900279e-20)
(102.6085413 1.078618576 0)
(101.792513 0.6045831335 8.549250381e-21)
(101.1075126 0.1974437382 2.535597843e-21)
(100.7441535 0.09083350539 -3.001020534e-21)
(100.5247114 0.03082028093 -3.418048685e-21)
(100.42088 0.007299904357 8.233307756e-21)
(100.0613202 -0.06106684306 -3.975958103e-21)
(99.98561295 -0.1804500182 4.007224303e-21)
(99.83168848 -0.2879966736 -5.087954595e-21)
(99.56969812 -0.377799504 -3.424429408e-21)
(99.24888706 -0.3479262978 1.460058074e-20)
(98.70343959 -0.3368651608 8.704869703e-21)
(97.90535328 -0.2549310761 4.84805393e-21)
(97.00957534 -0.01256420754 3.109738717e-19)
(95.59491106 0.3222506655 1.761736105e-19)
(93.48920806 0.8582861829 9.836316543e-20)
(89.9766065 1.629223479 8.949725315e-19)
(83.00502838 2.806262536 5.871531054e-19)
(121.5313082 21.76961407 -7.236378543e-19)
(115.3957052 9.163038547 5.269096776e-19)
(110.4961204 4.587681273 0)
(107.0090589 2.375462064 3.166386945e-19)
(104.6812487 1.240445948 -2.226015883e-19)
(103.0744124 0.4945012038 -4.528937314e-21)
(102.0873549 0.1984526737 1.930893472e-20)
(101.2201533 -0.07646927518 -3.089977905e-21)
(100.7907812 -0.09105498276 2.529961845e-21)
(100.5351982 -0.07194424441 -4.81477402e-22)
(100.4123182 -0.0258574421 -7.736307689e-21)
(100.2004528 -0.08972101823 -1.919316984e-21)
(100.1194899 -0.2683207815 -1.442656603e-21)
(99.95692012 -0.4432897329 -4.944631729e-22)
(99.67982253 -0.6110362334 1.499340969e-21)
(99.3165692 -0.6563765975 -2.798804923e-23)
(98.73504367 -0.7733124848 0)
(97.89989152 -0.8780939908 -1.615644733e-20)
(96.94517492 -0.8630699937 -3.946966829e-20)
(95.47000728 -0.9091095997 3.663879821e-19)
(93.37638221 -1.022721334 0)
(90.30880096 -1.557144913 0)
(86.56491024 -3.419657683 -4.856189099e-19)
(134.4002987 7.746073231 -5.756829724e-20)
(120.0401753 3.198566164 7.184228172e-19)
(112.6965672 1.382974431 4.604309278e-19)
(108.1116891 0.4808665487 1.101491556e-18)
(105.2483087 0.04223569098 -3.967440264e-19)
(103.3018611 -0.2941897792 -4.626657781e-21)
(102.2095091 -0.3361340493 1.08546499e-20)
(101.2138621 -0.4110053666 1.060729829e-21)
(100.7448057 -0.3106499269 0)
(100.4676458 -0.1947623625 3.901758806e-21)
(100.3324678 -0.06562582343 3.85726098e-21)
(100.3962626 -0.1190609748 3.782705623e-21)
(100.3147841 -0.3582243022 5.67581412e-23)
(100.1532709 -0.601833972 0)
(99.87835099 -0.8496068576 1.968536467e-22)
(99.49323257 -0.9779247246 -2.008345916e-21)
(98.91491907 -1.224561877 2.1420721e-21)
(98.10784184 -1.511871754 -4.63784459e-21)
(97.17339065 -1.712750641 -3.564732836e-19)
(95.78663297 -2.072875006 -1.790073095e-19)
(93.925666 -2.599019179 2.469460292e-20)
(91.49879553 -3.547589307 0)
(89.10456953 -4.99243903 -1.033946338e-19)
(132.5631714 -7.835119429 -1.104249486e-18)
(120.0837258 -4.151606035 7.080721781e-19)
(112.9046727 -2.590301238 -4.689954221e-19)
(108.2307683 -1.798730626 1.115236343e-18)
(105.2789579 -1.360051091 -1.518562103e-21)
(103.2187541 -1.177813264 3.922039176e-20)
(102.1147528 -0.9343714791 0)
(101.0684299 -0.7700565795 -1.039492546e-21)
(100.5921322 -0.5456593279 -4.318036575e-21)
(100.3107211 -0.3260051024 4.819154571e-22)
(100.1716509 -0.1082181748 0)
(100.6480903 -0.1469382915 -1.863225836e-21)
(100.5705466 -0.4434182949 1.880032801e-21)
(100.4189177 -0.7511595697 1.835294787e-21)
(100.1636163 -1.074546141 -1.717475645e-21)
(99.77464485 -1.284876671 -1.982982289e-21)
(99.23400778 -1.647535928 0)
(98.50266522 -2.093026717 3.222110965e-20)
(97.64195575 -2.473929409 -3.778807157e-19)
(96.40535413 -3.058620619 0)
(94.78556719 -3.822154716 2.894735595e-21)
(92.71933965 -4.903350319 3.802364636e-19)
(90.68620875 -6.086304675 -3.683930296e-19)
(124.4226664 -16.70308129 -8.273723383e-19)
(116.6206363 -9.694363624 0)
(111.2440976 -5.981161301 -9.997332315e-21)
(107.3528353 -3.883483957 6.84600453e-19)
(104.7455588 -2.695508678 3.101071692e-19)
(102.8161305 -2.022432403 0)
(101.8000111 -1.51537087 -2.573874779e-20)
(100.7815182 -1.114385454 -1.305629556e-20)
(100.3309809 -0.7718233204 9.835597696e-22)
(100.0625881 -0.4529946533 -3.124004775e-21)
(99.928042 -0.1495732834 4.57184347e-22)
(100.9511011 -0.1714689559 6.836737684e-21)
(100.8813795 -0.5179096836 0)
(100.7463523 -0.8788594137 -1.831708378e-21)
(100.5226944 -1.275059757 0)
(100.1420579 -1.554915629 0)
(99.67067189 -2.009124802 -5.904828454e-21)
(99.04598867 -2.578895369 4.357263947e-23)
(98.29219276 -3.098756923 5.720349126e-21)
(97.23061158 -3.842467529 0)
(95.82760804 -4.776835723 -3.31531599e-19)
(93.96288964 -6.014617293 3.427039879e-19)
(91.97155058 -7.261226965 -2.585822578e-19)
(115.5097376 -20.07377701 -5.635218482e-19)
(111.7580033 -12.5373548 0)
(108.5318081 -8.096205857 4.364623893e-20)
(105.7935564 -5.375859999 6.221351174e-19)
(103.7764581 -3.749732646 -3.589836877e-20)
(102.1496785 -2.71795794 2.063894384e-21)
(101.2977406 -2.01200807 -3.144276881e-20)
(100.3708233 -1.413976175 7.722149666e-21)
(99.97229638 -0.9671959824 0)
(99.73061134 -0.5644634694 3.597341987e-21)
(99.60765089 -0.1860739717 0)
(101.2973952 -0.1919507953 6.828003276e-21)
(101.2378811 -0.5805456686 1.0783051e-19)
(101.1227309 -0.9845322419 -2.173094124e-19)
(100.9341188 -1.436159822 -6.135600993e-22)
(100.5981214 -1.767396078 -1.722576973e-21)
(100.1998446 -2.287857963 0)
(99.6997315 -2.944457464 2.300265702e-20)
(99.0699655 -3.558109038 2.61929642e-19)
(98.20699323 -4.407792985 2.897071308e-19)
(97.04307647 -5.483263123 0)
(95.43314223 -6.968274993 -2.912548765e-19)
(93.56388106 -8.559062588 -2.457929811e-19)
(103.4283485 -29.33356296 -1.960524718e-19)
(107.1814768 -18.75841168 -2.892768749e-19)
(107.0192576 -12.96335405 7.366374034e-20)
(105.6076222 -8.880620671 0)
(103.9622553 -6.16015674 0)
(102.5697588 -4.420703641 0)
(101.3158269 -3.198301916 -6.305444536e-20)
(100.6614434 -2.378105934 0)
(99.87099091 -1.645382289 0)
(99.5365329 -1.117496543 1.129864968e-20)
(99.32947241 -0.6527268873 2.080789935e-21)
(99.22293601 -0.2151321221 -6.753254463e-21)
(101.6764882 -0.2064109234 0)
(101.628641 -0.6253832126 0)
(101.5365977 -1.05904674 0)
(101.3852777 -1.54160738 0)
(101.0953387 -1.922839881 0)
(100.7729133 -2.491743615 0)
(100.3924145 -3.201732881 -6.061317536e-20)
(99.90994741 -3.85834385 -2.042397409e-19)
(99.25582125 -4.758188204 -2.505275741e-19)
(98.37847305 -5.911309532 -2.192105387e-19)
(97.21257296 -7.61257148 4.770274441e-19)
(95.99014698 -10.10904009 -1.111414293e-19)
(96.39267255 -19.00768442 7.415890415e-20)
(102.1125795 -15.41153291 1.073252987e-19)
(103.3611065 -11.77702568 0)
(103.0484858 -8.652461078 8.38029997e-21)
(102.1900451 -6.329679182 -2.104043623e-19)
(101.3057332 -4.71473862 -2.670725761e-20)
(100.4163584 -3.458271894 -8.803942679e-20)
(99.95273516 -2.604760417 -3.311482162e-20)
(99.31668055 -1.791110028 -1.840694612e-20)
(99.04745909 -1.219616648 1.815991794e-20)
(98.87823358 -0.7141714202 0)
(98.79041508 -0.2353527341 1.812573072e-20)
(102.0776503 -0.2147906843 0)
(102.0422641 -0.6516257134 0)
(101.9754767 -1.102103623 0)
(101.8630571 -1.594941866 0)
(101.6188779 -2.003173247 0)
(101.3825231 -2.58931843 0)
(101.1167388 -3.295089081 -2.404144407e-22)
(100.7782676 -3.976631194 0)
(100.3262207 -4.863620094 1.33043602e-22)
(99.74875067 -5.959743055 4.133373787e-19)
(99.15643635 -7.475970678 -2.678747857e-19)
(98.87301938 -9.72620899 1.500037414e-19)
(97.83414089 -12.18324597 0)
(100.0531385 -11.78592153 3.050941651e-20)
(101.0467327 -9.954357301 1.35937932e-20)
(101.0905893 -7.866731081 2.881827594e-19)
(100.6626407 -6.080505781 3.869945829e-21)
(100.1283162 -4.721050506 -2.361079173e-20)
(99.52638909 -3.531786408 0)
(99.23158958 -2.706108773 0)
(98.73689913 -1.857331522 -3.433428004e-20)
(98.52892262 -1.273438375 1.694404057e-20)
(98.39714887 -0.7478246756 7.089575808e-22)
(98.32798105 -0.246464758 -1.249156576e-20)
(102.4895662 -0.2173727871 0)
(102.4659419 -0.6596440129 0)
(102.4230065 -1.114428439 0)
(102.3470269 -1.602424001 0)
(102.1460666 -2.020896107 0)
(101.9856648 -2.597223421 0)
(101.8186445 -3.267200339 6.805460433e-22)
(101.5918637 -3.946947095 -1.624953266e-19)
(101.3110552 -4.766691369 -1.783539058e-19)
(100.948132 -5.718673531 2.363644582e-21)
(100.6841682 -6.871092917 6.725861201e-20)
(97.74930418 -7.806125382 -2.204002008e-19)
(98.6949298 -9.242019038 3.605806428e-20)
(99.36693858 -9.188111045 0)
(99.71517175 -8.237729031 0)
(99.69380204 -6.900121473 -1.291268853e-20)
(99.43213095 -5.604820202 2.105659188e-19)
(99.10000008 -4.516466479 0)
(98.71184633 -3.46415945 -2.913308773e-20)
(98.53526308 -2.697610541 4.419030849e-20)
(98.15871125 -1.856765536 1.06947974e-20)
(98.00396828 -1.284311808 1.823895691e-20)
(97.90526996 -0.7561648589 -2.072093834e-20)
(97.85268463 -0.2492252012 0)
(102.9016164 -0.2149224127 0)
(102.8881628 -0.6517959237 0)
(102.865346 -1.099931202 0)
(102.8202337 -1.571036031 0)
(102.6580578 -1.985782902 0)
(102.5594408 -2.532424264 0)
(102.4686611 -3.144789387 0)
(102.3245139 -3.782602441 -3.567290981e-20)
(102.1500066 -4.518917716 -4.789951268e-19)
(101.9000073 -5.299721348 -4.952812964e-19)
(101.7514309 -6.120864253 8.046579903e-19)
(95.21115156 -6.163938478 -6.490779093e-19)
(99.16667685 -7.412197754 4.286957212e-19)
(99.03751117 -7.385808023 1.11881684e-19)
(98.9035442 -6.824892462 -2.60820613e-19)
(98.71364404 -5.965050352 -4.752658694e-20)
(98.47745019 -5.054055947 0)
(98.24638611 -4.199374073 0)
(97.98783421 -3.295702423 0)
(97.88788616 -2.606391372 0)
(97.60353173 -1.804298705 3.709347234e-20)
(97.4911642 -1.2597309 -3.470396363e-20)
(97.41876879 -0.743039692 -2.34212e-21)
(97.37947724 -0.2452367338 2.349890847e-21)
(103.304631 -0.2083876216 0)
(103.2994636 -0.631136328 0)
(103.2924156 -1.063791769 0)
(103.271468 -1.508785608 0)
(103.1416778 -1.908343766 0)
(103.0885178 -2.413173852 0)
(103.0488502 -2.959090653 0)
(102.9545326 -3.524011915 0)
(102.8295389 -4.153085665 8.322208568e-20)
(102.5948838 -4.779997331 0)
(102.4679593 -5.384083945 -3.205931409e-19)
(94.92315336 -5.371020021 -3.72188589e-19)
(99.31892623 -6.134286698 0)
(98.77966217 -6.081718629 -2.443830944e-21)
(98.35051647 -5.717171392 7.981268352e-20)
(98.01950135 -5.150312165 -1.832884626e-23)
(97.75118079 -4.496657738 0)
(97.55122824 -3.826707238 0)
(97.35813768 -3.062610415 0)
(97.3017824 -2.456526198 0)
(97.08378547 -1.712630399 0)
(97.00245405 -1.206263485 0)
(96.94995174 -0.7138360105 0)
(96.92058053 -0.2365406708 0)
(103.6914847 -0.1987213053 0)
(103.6926752 -0.6007366232 0)
(103.6970898 -1.011338013 0)
(103.6935293 -1.424390547 0)
(103.5885344 -1.800675533 0)
(103.5652044 -2.257945308 0)
(103.554299 -2.736983458 0)
(103.482581 -3.225142682 0)
(103.3662205 -3.735725117 0)
(103.107862 -4.228700958 0)
(102.7177125 -4.651078235 0)
(96.26697917 -4.800189532 6.767231459e-20)
(99.34157968 -5.147226288 1.409020016e-22)
(98.57717919 -5.092972365 -2.067663572e-20)
(97.97175051 -4.847916545 0)
(97.52284896 -4.453082291 0)
(97.19776854 -3.965487212 0)
(96.98936158 -3.437746565 0)
(96.82068713 -2.798230438 0)
(96.78282012 -2.273852642 0)
(96.60699207 -1.596908035 0)
(96.54587315 -1.133795897 0)
(96.50646335 -0.6727044167 0)
(96.48471924 -0.2234463585 0)
(104.0570372 -0.1868522486 0)
(104.062707 -0.5635677727 0)
(104.0745248 -0.9476856015 0)
(104.0820721 -1.326021905 0)
(103.9946851 -1.674197008 0)
(103.9878395 -2.082513198 0)
(103.988314 -2.500736236 0)
(103.920118 -2.914998972 0)
(103.788697 -3.327491497 0)
(103.497205 -3.708107133 0)
(102.8578044 -3.997199377 0)
(97.06443539 -4.160006814 0)
(99.37310182 -4.358752098 0)
(98.45254686 -4.318265624 0)
(97.7094372 -4.141626753 0)
(97.15754583 -3.851770762 0)
(96.77088479 -3.480390924 0)
(96.53427871 -3.060452347 0)
(96.36581115 -2.526027562 0)
(96.32855677 -2.076509376 0)
(96.17610147 -1.468843503 0)
(96.12618002 -1.050265296 0)
(96.09410639 -0.62455766 0)
(96.07707245 -0.2078753882 0)
(104.3979394 -0.1736376079 0)
(104.4063837 -0.5223532369 0)
(104.4220134 -0.8774145263 0)
(104.4352197 -1.220532581 0)
(104.3594702 -1.53834907 0)
(104.3585825 -1.899525229 0)
(104.3570843 -2.263448778 0)
(104.2814556 -2.61171054 0)
(104.1227608 -2.945648284 0)
(103.7914798 -3.242183252 0)
(102.9357825 -3.448698602 0)
(97.58586811 -3.60338637 0)
(99.39322332 -3.721646777 -2.715346142e-35)
(98.36166066 -3.68782668 0)
(97.51627575 -3.555169829 0)
(96.88145818 -3.335772783 0)
(96.43674131 -3.047311675 0)
(96.16389103 -2.709848413 0)
(95.9812631 -2.261840766 0)
(95.93331371 -1.877553737 0)
(95.79064766 -1.336981508 0)
(95.74483814 -0.96186441 0)
(95.71552108 -0.5731191247 0)
(95.7009816 -0.1911614692 0)
(104.7123793 -0.1598039399 0)
(104.7221664 -0.479403644 0)
(104.7386786 -0.804414064 0)
(104.7530787 -1.113167658 0)
(104.6845043 -1.400371782 0)
(104.6817313 -1.717987738 0)
(104.6692252 -2.033328897 0)
(104.5799225 -2.325499442 0)
(104.3889419 -2.597091687 0)
(104.0170625 -2.83090572 0)
(102.978017 -2.98105073 0)
(97.9781314 -3.127051469 0)
(99.39939782 -3.19713142 0)
(98.29087772 -3.166807241 0)
(97.36913158 -3.06366904 0)
(96.66789572 -2.893362447 0)
(96.17141172 -2.66536833 0)
(95.86115133 -2.391794008 0)
(95.6552728 -2.014656539 0)
(95.59034937 -1.685505497 0)
(95.44814338 -1.207334489 0)
(95.4012461 -0.8732279809 0)
(95.37130813 -0.5211913179 0)
(95.35753245 -0.1742301449 0)
(104.9998371 -0.1459234812 0)
(105.0098291 -0.4365186793 0)
(105.0250169 -0.7317277458 0)
(105.0372193 -1.007871089 0)
(104.9722822 -1.265477184 0)
(104.9623672 -1.543809978 0)
(104.933356 -1.81517495 0)
(104.8267997 -2.061757677 0)
(104.6028171 -2.283688421 0)
(104.1926335 -2.470166079 0)
(103.0003923 -2.580570506 0)
(98.27549837 -2.719110687 0)
(99.39646629 -2.758726082 -3.375526986e-35)
(98.2338742 -2.730944372 0)
(97.25400312 -2.648692271 0)
(96.49945239 -2.513761758 0)
(95.95788762 -2.330812507 0)
(95.61156865 -2.106715473 0)
(95.37840717 -1.788003403 0)
(95.29293734 -1.50540998 0)
(95.14505044 -1.083927355 0)
(95.09351384 -0.7875802656 0)
(95.06063419 -0.4707483652 0)
(95.04634436 -0.157726748 0)
(105.2607993 -0.1324257668 0)
(105.2701236 -0.3950157779 0)
(105.2824156 -0.6615616872 0)
(105.2900199 -0.907432665 0)
(105.2260831 -1.137199892 0)
(105.205646 -1.380456612 0)
(105.1577092 -1.613392815 0)
(105.0315478 -1.822241171 0)
(104.776083 -2.004669179 0)
(104.3308338 -2.154914612 0)
(103.0123898 -2.236786287 0)
(98.50189407 -2.368949498 0)
(99.38764891 -2.388806108 0)
(98.18694631 -2.363154717 0)
(97.16204404 -2.296359286 0)
(96.36443478 -2.187716965 0)
(95.78397953 -2.03904603 0)
(95.40404388 -1.853741035 0)
(95.14255498 -1.583274847 0)
(95.03488719 -1.340002765 0)
(94.87746688 -0.9692402347 0)
(94.81902968 -0.7070103027 0)
(94.78170785 -0.4230996822 0)
(94.76599905 -0.1420843968 0)
(105.4964507 -0.1196211512 0)
(105.5044591 -0.3558205289 0)
(105.5127878 -0.5954363366 0)
(105.5141954 -0.8137173426 0)
(105.4493358 -1.017810932 0)
(105.4163523 -1.230077592 0)
(105.348386 -1.43006141 0)
(105.2020392 -1.607345686 0)
(104.9175767 -1.758164474 0)
(104.4403994 -1.880217396 0)
(103.0195572 -1.941329398 0)
(98.6753735 -2.067920149 0)
(99.375053 -2.074867376 1.061075269e-35)
(98.14773137 -2.05111955 0)
(97.08745821 -1.996165007 0)
(96.25480065 -1.907587451 0)
(95.64090113 -1.785509535 0)
(95.23018417 -1.631025551 0)
(94.94082231 -1.400533801 0)
(94.81066637 -1.190469463 0)
(94.64148438 -0.8646178307 0)
(94.5748308 -0.6327716115 0)
(94.53217305 -0.3790586195 0)
(94.5144333 -0.1275778416 0)
(105.7084382 -0.1077229457 0)
(105.7146693 -0.3195520664 0)
(105.7183555 -0.5343436533 0)
(105.7125794 -0.7278625418 0)
(105.6454647 -0.9086253516 0)
(105.5988955 -1.093770685 0)
(105.5107431 -1.26568499 0)
(105.3445945 -1.416458288 0)
(105.03401 -1.541838768 0)
(104.527657 -1.641593345 0)
(103.0250983 -1.687465019 0)
(98.8096655 -1.809173073 0)
(99.36007536 -1.807639641 0)
(98.11460028 -1.785621752 0)
(97.02626828 -1.739975746 0)
(96.16484101 -1.667056118 0)
(95.52216973 -1.565951185 0)
(95.08354786 -1.436246513 0)
(94.76753516 -1.239021947 0)
(94.61541182 -1.057001958 0)
(94.43334751 -0.7706198023 0)
(94.35782868 -0.5655178598 0)
(94.3093808 -0.3390734766 0)
(94.28922283 -0.1143638837 0)
(105.8987138 -0.09686578647 0)
(105.9028558 -0.2865882684 0)
(105.9015153 -0.4788727152 0)
(105.8880207 -0.6504732384 0)
(105.8177188 -0.8103041664 0)
(105.7571911 -0.9718971831 0)
(105.6493002 -1.120003043 0)
(105.4642825 -1.248469767 0)
(105.130462 -1.353278294 0)
(104.5973454 -1.435186271 0)
(103.0307513 -1.469800674 0)
(98.91513475 -1.587199533 0)
(99.34364017 -1.580077789 0)
(98.08637436 -1.559641747 0)
(96.97564191 -1.521450864 0)
(96.09040455 -1.460958616 0)
(95.42292023 -1.376606868 0)
(94.95912548 -1.267003378 0)
(94.61803565 -1.097574428 0)
(94.44491516 -0.9392191942 0)
(94.24952701 -0.6872941885 0)
(94.16494457 -0.5054836182 0)
(94.11055663 -0.3033295427 0)
(94.08775841 -0.1025131242 0)
(106.0694202 -0.08712376764 0)
(106.0712754 -0.2571241865 0)
(106.064737 -0.4293127818 0)
(106.0433083 -0.5817741801 0)
(105.9691807 -0.7230221188 0)
(105.8947531 -0.8643161263 0)
(105.7679219 -0.9923032625 0)
(105.5652354 -1.102002901 0)
(105.210839 -1.190115019 0)
(104.6531203 -1.257633445 0)
(103.0373273 -1.283887315 0)
(98.99958684 -1.397355774 0)
(99.32638419 -1.38666953 0)
(98.06215825 -1.367681916 0)
(96.933471 -1.335534832 0)
(96.0283662 -1.285021613 0)
(95.33939157 -1.214169523 0)
(94.85291908 -1.120965834 0)
(94.48842336 -0.9748124046 0)
(94.29548342 -0.8363880049 0)
(94.08674948 -0.6143662938 0)
(93.99319207 -0.4526233485 0)
(93.93291017 -0.2718331692 0)
(93.9073642 -0.09203677235 0)
(106.2227632 -0.07852892319 0)
(106.2222169 -0.2312289423 0)
(106.2104554 -0.3857497876 0)
(106.1810918 -0.5217506536 0)
(106.1026977 -0.6466654761 0)
(106.0146884 -0.7706087311 0)
(105.8698873 -0.8816740405 0)
(105.6508401 -0.9756276435 0)
(105.2781919 -1.050178907 0)
(104.6978283 -1.106063907 0)
(103.0451152 -1.126102832 0)
(99.06897336 -1.235958092 0)
(99.3087556 -1.223100729 0)
(98.0412476 -1.205418793 0)
(96.89813657 -1.1781967 0)
(95.97631494 -1.135743789 0)
(95.26862075 -1.075811739 0)
(94.76169439 -0.9960036105 0)
(94.37542962 -0.8693351775 0)
(94.16390142 -0.7476286818 0)
(93.94202998 -0.5513943949 0)
(93.83975465 -0.4067268765 0)
(93.77374103 -0.2444831445 0)
(93.74541635 -0.08290989282 0)
(106.3610057 -0.07108342174 0)
(106.3579965 -0.2088851046 0)
(106.3410758 -0.3481330805 0)
(106.3039148 -0.4702270517 0)
(106.2208973 -0.5809471545 0)
(106.1197654 -0.6902166107 0)
(105.957942 -0.787056335 0)
(105.7239442 -0.8679558163 0)
(105.3349817 -0.9315248804 0)
(104.7337452 -0.978024897 0)
(103.0541481 -0.9934771149 0)
(99.12786696 -1.099995896 0)
(99.29102933 -1.085936112 0)
(98.02305403 -1.069387553 0)
(96.86834287 -1.046167861 0)
(95.93232545 -1.010225169 0)
(95.20820093 -0.9591196784 0)
(94.68273127 -0.8902003951 0)
(94.27627764 -0.7798128083 0)
(94.04733789 -0.6720253898 0)
(93.81260177 -0.4978502615 0)
(93.70195556 -0.3674920527 0)
(93.63042879 -0.2211151097 0)
(93.59933756 -0.07508523533 0)
(106.4862254 -0.06477580375 0)
(106.4807389 -0.1900314884 0)
(106.4587805 -0.3163306552 0)
(106.4140474 -0.4269919755 0)
(106.3261891 -0.5254863943 0)
(106.2124835 -0.6225360241 0)
(106.0344681 -0.7071333601 0)
(105.7868884 -0.7777925052 0)
(105.3832244 -0.8324553008 0)
(104.7627181 -0.8714338982 0)
(103.0643617 -0.883561239 0)
(99.17976399 -0.9869356208 0)
(99.27336167 -0.9724024146 -1.240400858e-36)
(98.00706634 -0.9568028101 0)
(96.84302052 -0.9367995761 0)
(95.89482475 -0.9060774542 0)
(95.15615857 -0.8620709476 0)
(94.61378119 -0.8021411754 0)
(94.18850315 -0.7051683615 0)
(93.9432698 -0.6086770911 0)
(93.69605382 -0.4532333311 0)
(93.57741942 -0.3345795402 0)
(93.50062245 -0.2015454944 0)
(93.4668131 -0.06850993178 0)
(106.6010154 -0.05957195581 0)
(106.593018 -0.1745588986 0)
(106.5661288 -0.2901559924 0)
(106.5140674 -0.3916772681 0)
(106.4208292 -0.4798777933 0)
(106.2951153 -0.566873275 0)
(106.101962 -0.6412300241 0)
(105.8415888 -0.7039157839 0)
(105.4246093 -0.7514881702 0)
(104.7862751 -0.7845393996 0)
(103.0756508 -0.7943392137 0)
(99.22734212 -0.8946739966 0)
(99.25585732 -0.8802549536 0)
(97.9928336 -0.8654270376 0)
(96.82125991 -0.8479525911 0)
(95.86249146 -0.8213400567 0)
(95.11085073 -0.7829456773 0)
(94.55310969 -0.730357856 0)
(94.10983668 -0.6443722605 0)
(93.84942346 -0.5567697681 0)
(93.58973637 -0.4169447554 0)
(93.46347837 -0.3076429079 0)
(93.38161248 -0.1855669453 0)
(93.3451016 -0.06311603726 0)
(106.7057771 -0.05548096901 0)
(106.6953665 -0.1624374512 0)
(106.6637363 -0.269455659 0)
(106.6046595 -0.3643637922 0)
(106.5069083 -0.4436357799 0)
(106.3697009 -0.5225510041 0)
(106.1627168 -0.5894033365 0)
(105.8897911 -0.645133477 0)
(105.4606342 -0.6873417957 0)
(104.8057229 -0.7158836054 0)
(103.0878671 -0.7241525966 0)
(99.27263587 -0.8214859376 0)
(99.23860068 -0.807677338 0)
(97.97995001 -0.793458161 0)
(96.80225844 -0.7778957904 0)
(95.83416401 -0.7544041293 0)
(95.07079662 -0.7202767466 0)
(94.49896262 -0.6731087029 0)
(94.03847057 -0.5961484671 0)
(93.76367944 -0.515400512 0)
(93.49291946 -0.3888811527 0)
(93.3594204 -0.2863956025 0)
(93.27273969 -0.1730717163 0)
(93.23367306 -0.05888740673 0)
(106.8088243 -0.05235857243 0)
(106.7956818 -0.1533680701 0)
(106.7591473 -0.2539305383 0)
(106.6926495 -0.3432144998 0)
(106.5867689 -0.416535643 0)
(106.4380129 -0.4893051071 0)
(106.2178667 -0.5511678376 0)
(105.9333045 -0.6006862224 0)
(105.4926614 -0.6390016936 0)
(104.8222024 -0.664300517 0)
(103.1008251 -0.6716998243 0)
(99.31713031 -0.7660624325 0)
(99.22166241 -0.753272705 0)
(97.96804283 -0.7394937615 0)
(96.78529327 -0.7252727121 0)
(95.80880308 -0.7040062124 0)
(95.03464055 -0.6729474384 0)
(94.44945736 -0.6296382937 0)
(93.9728848 -0.559651035 0)
(93.68430396 -0.4845618811 0)
(93.39880865 -0.3670295728 0)
(93.25764812 -0.2704536348 0)
(93.16605063 -0.1636963773 0)
(93.12411722 -0.05565185096 0)
(106.8877322 -0.05059908346 0)
(106.8727647 -0.1480421654 0)
(106.8323785 -0.2443112078 0)
(106.7608723 -0.3327134149 0)
(106.6601422 -0.3979405734 0)
(106.5016435 -0.4665160547 0)
(106.2688943 -0.52544922 0)
(105.9734658 -0.5699555313 0)
(105.5218932 -0.6056660591 0)
(104.836723 -0.6288610681 0)
(103.1144141 -0.6359929958 0)
(99.36192221 -0.7274663 0)
(99.20506855 -0.7159999005 0)
(97.95674856 -0.7024656667 0)
(96.76969392 -0.6890424114 0)
(95.7854669 -0.6691743771 0)
(95.00120337 -0.6401003476 0)
(94.40339197 -0.5993519639 0)
(93.91147957 -0.5344286983 0)
(93.60983061 -0.4633475571 0)
(93.32498163 -0.3555170227 0)
(93.17861386 -0.2605665852 0)
(93.08321972 -0.1581318354 0)
(93.03942821 -0.05382370301 0)
(107.0360855 -0.0488238314 0)
(107.0173294 -0.1437236231 0)
(106.9696886 -0.2368528458 0)
(106.8853711 -0.3206290521 0)
(106.7288986 -0.3881968409 0)
(106.5592848 -0.4543672782 0)
(106.3151967 -0.5121730313 0)
(106.0115139 -0.552379613 0)
(105.5493918 -0.5866633792 0)