/*--------------------------------*- C++ -*----------------------------------*\
| =========                 |                                                 |
| \\      /  F ield         | OpenFOAM: The Open Source CFD Toolbox           |
|  \\    /   O peration     | Version:  v1912                                 |
|   \\  /    A nd           | Website:  www.openfoam.com                      |
|    \\/     M anipulation  |                                                 |
\*---------------------------------------------------------------------------*/
FoamFile
{
    version     2.0;
    format      ascii;
    class       surfaceVectorField;
    location    "0.91";
    object      Uf;
}
// * * * * * * * * * * * * * * * * * * * * * * * * * * * * * * * * * * * * * //

dimensions      [0 1 -1 0 0 0 0];


internalField   nonuniform List<vector> 
25162
(
(99.99831963 0.007147570574 -2.003494309e-21)
(99.99330615 0.006491869257 5.941859575e-21)
(99.99754474 0.01682925222 -1.974289109e-21)
(99.99093693 0.02169554493 2.016104483e-21)
(99.99601685 0.03230045171 -3.934127026e-21)
(99.98552023 0.04488484147 1.190145135e-20)
(99.99822972 0.03614894981 1.208232993e-21)
(99.97592829 0.08112608515 -7.797118167e-21)
(99.98982862 0.07990609059 -1.306442019e-21)
(99.99742888 0.06520442353 1.88614783e-21)
(99.99911279 0.0388919822 9.285582982e-22)
(99.98819875 0.1068761099 1.871034949e-21)
(99.99729987 0.06052577901 9.109915946e-22)
(99.99800235 0.04790480302 -9.467254632e-22)
(99.99668005 0.07624596727 9.10954387e-22)
(99.9819792 0.170617189 1.810191912e-21)
(99.99640314 0.09551600236 0)
(99.9962338 0.116529474 -3.267606142e-21)
(99.97683688 0.2563256476 -3.267589135e-21)
(99.99574875 0.1413041451 -8.45889151e-22)
(99.99522833 0.1694779079 2.845832692e-21)
(99.97071736 0.3688263088 3.07849473e-21)
(99.99477687 0.2008269977 3.784748117e-22)
(99.99446214 0.2346642537 -2.423537137e-21)
(99.96700482 0.5036671221 3.500496192e-22)
(99.99435252 0.2699675755 -2.408105269e-21)
(99.99452916 0.3052078837 3.807466576e-22)
(99.96901833 0.6436103801 -1.566293558e-21)
(99.99504501 0.338348272 2.183076121e-21)
(99.99589807 0.3672577567 1.786981765e-21)
(99.9789594 0.7585101308 -7.686448405e-22)
(99.99706202 0.3898202866 0)
(99.99855263 0.4039877115 0)
(99.99576677 0.8140393114 1.197660724e-22)
(100.0003009 0.4085260592 0)
(100.0019769 0.4026242163 6.589231192e-22)
(100.0141433 0.791981777 -1.261353071e-23)
(100.0033048 0.3875034221 1.152679757e-21)
(100.0042944 0.3649580314 -4.271152295e-22)
(100.0261923 0.7031522078 -7.074069735e-22)
(100.0049815 0.3369220062 -1.297043341e-21)
(100.0053552 0.3054649419 7.973130588e-23)
(100.0308462 0.5782030595 1.84814399e-21)
(100.0054376 0.2724804154 4.809152615e-22)
(100.0052777 0.2395873502 0)
(100.0294429 0.4472641976 0)
(100.0049589 0.2081023543 0)
(100.004663 0.1787874538 7.498548299e-22)
(100.0246269 0.3308806231 1.554318776e-21)
(100.0046853 0.1524589172 -3.795240047e-21)
(100.0045002 0.1273326552 -1.419058404e-21)
(100.0201921 0.2319566108 3.072672354e-21)
(100.0038387 0.1057512376 3.072443067e-21)
(100.0028661 0.08772057634 -8.525325675e-22)
(100.0120641 0.158253073 -4.256105113e-23)
(100.0008592 0.0748321869 1.667224695e-21)
(100.0073706 0.07200716625 -7.390340767e-21)
(100.0422177 0.1769976155 3.449602022e-22)
(100.0153345 0.1602102464 -2.625475992e-21)
(100.0025715 0.07392866154 -1.522024583e-21)
(100.0051418 0.04151884421 -9.249607317e-22)
(100.0285124 0.1084655522 1.467087895e-20)
(100.004222 0.01942242521 -7.424589941e-21)
(100.020761 0.05758952865 -1.564263156e-20)
(100.0183035 0.01812375106 1.296914786e-21)
(99.98449739 0.0199095675 9.914811434e-21)
(99.97459284 0.01082539852 2.774371451e-22)
(99.9768295 0.04728189982 1.580323397e-20)
(99.96527521 0.03674053737 -1.388386554e-20)
(99.96239389 0.09058377836 8.243322107e-21)
(99.94499319 0.07726452776 -2.14720571e-20)
(99.95570004 0.1419857177 -1.408137399e-21)
(99.9103945 0.1419355954 4.131535819e-20)
(99.92491974 0.1793521182 -9.081711979e-21)
(99.93471744 0.1816540108 -1.950009519e-21)
(99.95023807 0.1789247086 3.823559092e-21)
(99.96928683 0.1276176021 1.90091295e-21)
(99.9522358 0.2089641131 1.846418357e-21)
(99.93640003 0.2294792212 1.883694343e-21)
(99.89345359 0.3020816695 -3.816864674e-21)
(99.92103786 0.2923152668 -2.558670776e-23)
(99.92745212 0.3325126934 1.810475999e-21)
(99.90319126 0.369192958 -2.044773402e-23)
(99.84180725 0.4812156456 0)
(99.89392636 0.4293124007 0)
(99.86572169 0.4922120619 -2.244281487e-21)
(99.90216823 0.4907715871 -4.399867433e-21)
(99.88889888 0.5185069346 -6.283652527e-23)
(99.85800786 0.5986720666 -9.894481379e-21)
(99.88055543 0.56565202 -3.401617879e-21)
(99.85408157 0.7555602274 2.799908867e-23)
(99.8748698 0.7113114477 -2.208758424e-21)
(99.81553778 0.8728457845 -1.205929867e-20)
(99.84771412 0.8189101985 -2.942699223e-21)
(99.82959219 1.051719033 -5.375296896e-21)
(99.85813109 0.9809993695 -5.088159583e-21)
(99.7875818 1.211269308 6.110139687e-22)
(99.828092 1.127028399 -6.437689828e-21)
(99.83092262 1.374394615 -2.552765776e-23)
(99.86624575 1.267635388 -4.075730811e-21)
(99.79343635 1.575725884 -2.105523289e-21)
(99.83841356 1.452085791 -3.042414191e-21)
(99.8730552 1.659731144 -3.305945395e-21)
(99.91000345 1.510467184 -5.045683718e-21)
(99.85137296 1.888063176 -1.243975051e-20)
(99.89151122 1.722181683 -2.436225409e-21)
(99.95578978 1.822511929 4.139543993e-23)
(99.98521701 1.63492458 -5.63670436e-22)
(99.95595626 2.052971749 -1.176309051e-21)
(99.97970911 1.853580649 2.117374325e-22)
(100.0495897 1.818129306 2.649963259e-23)
(100.052394 1.602772797 -1.050150556e-22)
(100.0683009 2.018788176 -1.846276327e-21)
(100.0711107 1.800831548 -9.018124148e-22)
(100.1247654 1.651425208 -2.91922915e-22)
(100.0970606 1.431315247 -2.323295698e-22)
(100.1518923 1.805706825 -7.375478545e-23)
(100.1363315 1.592526007 2.291145795e-21)
(100.1592399 1.378875096 2.469419841e-21)
(100.1142072 1.179339495 4.292095851e-21)
(100.186845 1.487360005 4.287067044e-21)
(100.1606961 1.30101462 5.400854225e-22)
(100.1586644 1.078059463 -6.730334494e-21)
(100.1091299 0.9128314469 -6.255191774e-21)
(100.181906 1.149557533 -2.269899049e-21)
(100.1534648 1.000104356 -2.225821355e-21)
(100.1356353 0.8042332799 -5.239673973e-21)
(100.0886229 0.67639673 4.772008971e-22)
(100.1503543 0.8479310425 -1.392731896e-21)
(100.127261 0.7381467077 5.664881655e-21)
(100.081292 0.4586964753 -1.296622864e-20)
(100.1304393 0.6266079567 -1.296522119e-20)
(100.1817731 0.67460771 1.310125285e-20)
(100.1116784 0.5190631836 -2.647306859e-20)
(100.0938307 0.4272408761 1.144584111e-20)
(100.1297033 0.4541390161 -1.60317586e-20)
(100.0762247 0.349835064 2.318423115e-20)
(100.057302 0.3104000508 2.574717434e-20)
(100.0696872 0.2091637924 2.183494379e-20)
(100.1589379 0.3290033112 -1.69747531e-22)
(100.1228189 0.3728189233 4.606488399e-20)
(100.0723603 0.2940387453 2.485993281e-21)
(100.0495729 0.1212798594 -7.055900897e-22)
(100.1109713 0.2004143529 3.130149239e-20)
(100.0393773 0.05554690392 -7.293578728e-21)
(100.0827299 0.1064888052 -1.659376488e-20)
(100.0706978 0.03343455267 7.423703549e-21)
(99.95819975 0.02640408575 -2.381814504e-20)
(99.94966119 0.01109597772 -1.190436733e-20)
(99.93712548 0.06409399213 -5.1513084e-20)
(99.92976462 0.03915886079 1.101176694e-20)
(99.89852909 0.1252879338 1.034659436e-20)
(99.88753492 0.08677062441 -4.359990974e-20)
(99.85921099 0.2139786328 2.630524426e-20)
(99.81831338 0.1654758665 4.736082878e-20)
(99.8113495 0.2335104325 -4.067031537e-20)
(99.88035414 0.2268644964 -7.802728884e-21)
(99.81583251 0.2582406673 -5.783368135e-20)
(99.83241547 0.2829892895 -3.908650094e-21)
(99.81364726 0.3817648033 -7.600402074e-21)
(99.79099974 0.3695965007 -3.787235233e-21)
(99.71470972 0.4438283948 2.658398961e-20)
(99.74312414 0.4755489191 7.460381421e-21)
(99.7246915 0.6145352511 -6.568266872e-21)
(99.68810547 0.6047748186 4.853908222e-21)
(99.57821955 0.725572214 -3.743642176e-20)
(99.65631333 0.7344798702 2.593935196e-21)
(99.60028755 0.7883376426 -1.624708217e-20)
(99.64300729 0.9082304063 -6.656759046e-21)
(99.61427222 0.9076235585 0)
(99.54910323 1.000035763 6.911209873e-21)
(99.58420801 1.007986867 -6.623417125e-21)
(99.53459556 1.349982072 3.217247385e-21)
(99.4920852 1.360949957 1.259432873e-20)
(99.40994742 1.497471718 6.234795112e-21)
(99.46352732 1.494193799 1.563348904e-20)
(99.45517339 1.909308601 -2.737758791e-23)
(99.39469586 1.944076452 -1.132752194e-20)
(99.30478922 2.134033131 -5.48215748e-21)
(99.3812702 2.104555745 5.351292965e-21)
(99.4642748 2.523165957 0)
(99.38844438 2.598946584 0)
(99.31377316 2.835007219 7.243269902e-20)
(99.40922706 2.758413452 -4.240618241e-21)
(99.61070115 3.065864788 9.597804323e-20)
(99.53175343 3.20299995 2.212621566e-21)
(99.49462728 3.474688823 5.082645639e-20)
(99.59300978 3.325188677 5.245349362e-20)
(99.88599404 3.374557339 3.844659502e-20)
(99.82833977 3.581980203 3.131975987e-20)
(99.85027952 3.847120221 2.245616338e-20)
(99.91762703 3.617888207 2.29234825e-22)
(100.1958906 3.321885113 -9.244170308e-22)
(100.1845 3.578025059 -9.867113869e-23)
(100.2559297 3.7874412 3.643867741e-20)
(100.2648977 3.511257105 -8.760795851e-22)
(100.4188047 2.939360039 2.222522805e-20)
(100.4548045 3.198872561 2.100376159e-20)
(100.5436162 3.333161447 2.103113285e-20)
(100.4985443 3.063468144 -2.6869698e-20)
(100.5099862 2.394403742 2.972533155e-21)
(100.5739216 2.621734103 5.479641756e-21)
(100.6549441 2.693741506 1.05228743e-20)
(100.5816695 2.466583297 6.336495536e-21)
(100.4895524 1.824796146 -6.206421524e-21)
(100.5629505 2.009231557 -1.450876659e-20)
(100.6269522 2.042465891 -5.023382029e-21)
(100.5462315 1.862313497 5.516121013e-21)
(100.4797371 1.46143954 -1.726115325e-20)
(100.4128172 1.322915116 -1.161851026e-20)
(100.5263251 1.471158098 -1.163417829e-20)
(100.4568546 1.339903895 6.171651875e-21)
(100.3203005 0.8745826281 -5.126210942e-20)
(100.4292315 1.069721131 -2.684383265e-20)
(100.4970203 1.053846452 -7.77455337e-20)
(100.3700858 0.8815049449 -3.685084601e-20)
(100.2315974 0.5852889689 -5.837956354e-20)
(100.3149527 0.7206953682 2.326611099e-20)
(100.3591091 0.6985143733 -2.770826614e-20)
(100.2641321 0.5849103639 -2.422799793e-20)
(100.1934605 0.3166051855 9.853229036e-21)
(100.3338283 0.4329910116 -2.494484497e-20)
(100.3156529 0.5269575614 -1.428507947e-22)
(100.2355304 0.4790505996 -1.427459099e-20)
(100.1393513 0.1827132819 1.466887325e-20)
(100.2369285 0.2612058655 2.606827553e-20)
(100.1101332 0.08320492088 -1.864645057e-21)
(100.1766083 0.1378361778 -3.761392641e-21)
(100.1491668 0.04300530861 0)
(99.92653284 0.02288031826 2.391747267e-20)
(99.9280984 0.005810463353 -3.993277933e-21)
(99.8866668 0.05968469541 2.013339047e-20)
(99.8950859 0.02411042147 2.794116513e-20)
(99.81508937 0.1258601175 -8.001919369e-21)
(99.82520594 0.06542203241 -3.944518089e-21)
(99.7239295 0.2404278523 0)
(99.71185836 0.1394725094 6.107458875e-21)
(99.66779284 0.2379821959 1.852980975e-20)
(99.73935031 0.2753849916 -5.405342236e-20)
(99.65700207 0.2754923252 1.393144151e-20)
(99.66389721 0.3280629732 0)
(99.59973306 0.4844721089 1.893890322e-22)
(99.58338054 0.437611903 -3.065676738e-20)
(99.4721711 0.5007033442 -3.063614372e-20)
(99.48779824 0.5739873956 6.20983542e-20)
(99.40575078 0.8080745582 -9.218682128e-20)
(99.37593374 0.7422184082 3.420411028e-20)
(99.21443397 0.8528885142 -6.169618275e-20)
(99.28718729 0.9408512818 -3.074171617e-20)
(99.2095 0.9568858402 -5.041313424e-20)
(99.20444756 1.224647149 7.243309189e-21)
(99.17359348 1.186111325 1.438158646e-20)
(99.07018832 1.278869738 3.642003178e-20)
(99.10441416 1.329644252 7.182208421e-21)
(98.94022126 1.884080647 3.923249228e-20)
(98.88670136 1.843274106 7.574704546e-20)
(98.75358428 1.987042119 6.880327429e-20)
(98.81637457 2.042289469 -1.455339982e-20)
(98.73394969 2.738619631 3.348329005e-20)
(98.64566805 2.708570239 2.776511347e-20)
(98.50044673 2.910983019 3.255587356e-19)
(98.6058534 2.955020657 1.334230359e-19)
(98.69907446 3.751887204 1.80718204e-19)
(98.56695358 3.760326153 -1.983742173e-21)
(98.43025691 4.046419438 5.824174233e-21)
(98.59139183 4.042226338 1.899168634e-19)
(98.98900975 4.769597743 0)
(98.82040505 4.866910571 1.75182427e-20)
(98.75268563 5.229031914 3.40754427e-20)
(98.95521868 5.111864085 0)
(99.67445797 5.415856866 -5.520714885e-20)
(99.52268406 5.646130674 -1.663502296e-20)
(99.58451397 6.007526682 0)
(99.75028396 5.732248505 3.872997678e-22)
(100.4962 5.335226158 -2.821520157e-20)
(100.4389631 5.669083843 -2.636345536e-21)
(100.6028283 5.918643098 1.195985105e-22)
(100.6434123 5.544139051 -4.585657644e-21)
(101.0545036 4.59575504 0)
(101.1056504 4.940777157 0)
(101.2820103 5.050096778 0)
(101.2025992 4.688226221 7.343517007e-21)
(101.2265799 3.5936563 -9.474526545e-20)
(101.3372551 3.879671949 -1.30874854e-19)
(101.4724164 3.895409725 -9.437980328e-20)
(101.3396285 3.611734684 -3.595119147e-20)
(101.1464772 2.652551209 4.462016643e-20)
(101.2667435 2.86281634 -2.749299965e-21)
(101.3573358 2.832434953 -1.373704584e-19)
(101.2241767 2.635249578 2.078521371e-19)
(101.0629271 2.023686737 0)
(100.952199 1.871074002 4.6420194e-20)
(101.1214676 1.985967373 0)
(101.0033426 1.843615207 0)
(100.7098025 1.2053474 2.818464611e-20)
(100.8905584 1.413350061 1.821526138e-20)
(100.9549527 1.321960607 -1.594908427e-20)
(100.7632855 1.151894954 3.535652074e-20)
(100.5126082 0.7898500859 -3.21961529e-20)
(100.6483393 0.9309414989 -1.437578763e-20)
(100.6867024 0.8563370963 -1.450590002e-20)
(100.5465277 0.745355093 -7.044995219e-21)
(100.3660947 0.3750868666 -9.015698189e-21)
(100.5518316 0.4679156691 -1.868952146e-20)
(100.5788135 0.6190628172 -2.486078911e-21)
(100.4756528 0.5947617007 5.522740888e-21)
(100.2641622 0.2138253185 7.49687747e-21)
(100.3889563 0.2781164523 1.138597094e-20)
(100.2072822 0.09640070726 -1.896411958e-21)
(100.2873511 0.1438130478 -3.346414019e-21)
(100.2400795 0.04434944097 -4.807573743e-22)
(99.90229486 0.006670336442 0)
(99.92182497 -0.005790591916 0)
(99.84071702 0.02837518591 4.046216044e-21)
(99.87467507 -0.01095618643 0)
(99.73014709 0.08109307905 1.028645669e-20)
(99.77559232 0.00783108453 -3.332097812e-21)
(99.576491 0.2077161205 1.695717511e-20)
(99.61026075 0.05858143414 2.261806331e-20)
(99.52358322 0.1706051405 -6.794912234e-21)
(99.57526081 0.2573796746 2.398598095e-20)
(99.49233221 0.2197399378 1.929562741e-21)
(99.47409359 0.2962200428 -9.809778328e-21)
(99.33728263 0.4892755542 0)
(99.34196832 0.4111813607 -2.014529326e-20)
(99.20024567 0.4472702417 -1.655223709e-20)
(99.18424242 0.5575392972 4.107977608e-21)
(99.00510789 0.8542027079 0)
(98.998945 0.7431425317 4.107537795e-21)
(98.78779806 0.810707803 -4.247815948e-21)
(98.82078014 0.9801080004 2.044108643e-20)
(98.7331776 0.9698009967 5.294296907e-21)
(98.62098877 1.356455866 1.128154093e-19)
(98.60358342 1.276352763 -1.209573753e-19)
(98.45936747 1.351823937 -4.056637021e-20)
(98.47719081 1.447990669 -2.142283512e-21)
(98.12731052 2.17467208 5.151245583e-22)
(98.0803763 2.071669538 -3.053865505e-19)
(97.90031659 2.185646498 -1.912045338e-19)
(97.94849924 2.315288513 -6.177191283e-20)
(97.65684298 3.306749424 0)
(97.55989856 3.188290396 0)
(97.32842671 3.385389667 0)
(97.44221507 3.533095509 0)
(97.38167364 4.855380236 7.275428719e-21)
(97.19387288 4.74922438 -8.741876087e-21)
(96.93792206 5.083253528 7.100548147e-21)
(97.17127286 5.213457944 5.59311805e-21)
(97.73966634 6.707972332 -2.443933654e-19)
(97.42682635 6.713698351 4.801204458e-20)
(97.26424865 7.23586568 0)
(97.65524517 7.207708606 0)
(99.16359836 8.102647549 3.827475001e-20)
(98.82068694 8.375762207 2.161195248e-20)
(98.9531096 8.949546352 0)
(99.33316545 8.581109322 -7.681363668e-21)
(101.0526011 7.969848083 0)
(100.9104454 8.46695373 0)
(101.2708523 8.786684606 7.44080004e-20)
(101.3640284 8.209570651 0)
(102.2084007 6.531832569 2.210087572e-21)
(102.302835 7.022649023 1.488894368e-19)
(102.6250292 7.06103871 1.428650298e-19)
(102.4697067 6.555563121 -8.717204281e-21)
(102.4206712 4.768724374 -1.561491826e-19)
(102.619934 5.135477707 -1.019942602e-19)
(102.8247887 5.04579065 -1.80364314e-19)
(102.5842385 4.695116003 -1.675118493e-20)
(102.1256713 3.308920253 1.017248777e-19)
(102.3256104 3.546262266 1.037784594e-19)
(102.4274297 3.437027474 1.034513394e-19)
(102.2127392 3.219962928 4.947396308e-20)
(101.8665486 2.39981252 -1.501119676e-20)
(101.7048914 2.247414812 -3.653653666e-21)
(101.9208046 2.30251448 1.774689724e-20)
(101.7530043 2.169514526 2.159574725e-20)
(101.2280421 1.397612325 -9.04554736e-20)
(101.4881001 1.598854439 -5.724325515e-20)
(101.5255167 1.425983962 -3.201601685e-20)
(101.2657301 1.281872952 -1.639627126e-20)
(100.877019 0.8926119059 1.112911601e-20)
(101.0679918 1.019938727 3.358501836e-20)
(101.0799069 0.8948951239 -3.760015718e-21)
(100.8960072 0.8037639553 -3.678102653e-21)
(100.5630271 0.3718783439 1.930704563e-21)
(100.7854191 0.417614735 0)
(100.8780741 0.6139103275 -8.169048594e-23)
(100.7651433 0.6258144643 -1.00088233e-20)
(100.4021328 0.205845672 4.295888451e-22)
(100.5455154 0.2411757436 1.930530502e-21)
(100.3115698 0.09085652853 -1.934483742e-21)
(100.3958048 0.1190566925 -1.936682821e-21)
(100.3257729 0.03589146548 -1.940869963e-21)
(99.89958877 -0.0232751581 0)
(99.94380015 -0.02369570758 1.984341121e-21)
(99.81635682 -0.03206579973 -8.098653633e-21)
(99.88304093 -0.06583792132 -1.999860135e-21)
(99.66584756 -0.01270115633 8.419398263e-21)
(99.75747788 -0.08673968008 -4.015887595e-21)
(99.44361137 0.08342005258 1.101333407e-20)
(99.54596498 -0.07862833727 3.194053738e-21)
(99.39984482 0.02840264027 -1.284190564e-23)
(99.42034912 0.1609166684 -8.151325617e-21)
(99.34000279 0.08270149064 -8.25905566e-21)
(99.29409096 0.1688346025 0)
(99.06720273 0.3728833793 -1.655182848e-20)
(99.10601245 0.2708092258 0)
(98.94402202 0.2664229694 -1.113124481e-22)
(98.87988476 0.4024206339 -7.956444619e-23)
(98.5687499 0.7206282509 8.560802216e-21)
(98.60942646 0.5733250339 1.282896585e-20)
(98.36007381 0.5837623349 1.731985049e-20)
(98.32913586 0.8245733026 -1.393037497e-20)
(98.24605805 0.7676886581 -8.528073621e-21)
(97.97095325 1.231953771 -3.590680474e-20)
(97.98528148 1.118167856 -6.921087371e-20)
(97.81461103 1.152585934 -3.445356181e-20)
(97.7950338 1.284835998 -1.378054407e-19)
(97.17739301 2.059418218 1.401437888e-19)
(97.17002427 1.898223689 -3.633147396e-21)
(96.93633317 1.962094595 1.55829651e-19)
(96.93626087 2.153118589 0)
(96.23293984 3.360269816 -8.576438273e-19)
(96.16791464 3.130494418 -9.92512478e-22)
(95.82407459 3.259660663 -2.966735807e-19)
(95.89690696 3.557693785 2.861969772e-19)
(95.27611571 5.502508034 -5.574599291e-19)
(95.08211704 5.187056624 5.71128886e-19)
(94.60774167 5.501986711 -8.156506754e-20)
(94.85294168 5.899906667 -3.437693296e-20)
(95.17908546 8.884876028 -2.01757916e-19)
(94.64720301 8.622451616 -2.327394107e-19)
(94.16742098 9.41135141 -2.337547765e-19)
(94.8917431 9.702066544 1.941835431e-19)
(97.97815943 12.26278555 6.143180231e-20)
(97.17654489 12.62196163 0)
(97.48086489 13.77210995 0)
(98.40303141 13.15267151 -2.623661171e-20)
(102.3773738 11.80319247 8.526511692e-21)
(102.1358505 12.69177064 1.336097054e-21)
(103.0027755 13.04835158 -2.61564468e-20)
(103.0684522 12.01226567 4.746870555e-20)
(104.3842436 8.692673171 -2.045303118e-19)
(104.632881 9.412499475 -4.01328931e-19)
(105.1978956 9.230230267 -4.407625936e-19)
(104.8142663 8.530372595 6.652267838e-20)
(104.3074691 5.758111767 2.226807571e-19)
(104.6733615 6.196594177 -3.038103048e-20)
(104.903022 5.926560903 -6.604579156e-20)
(104.4893237 5.53820981 -1.821768075e-19)
(103.4735709 3.683504946 1.296379938e-19)
(103.788373 3.923629488 3.719073592e-19)
(103.8647013 3.704332336 -2.136304189e-21)
(103.5408376 3.496337163 5.704991296e-20)
(102.8486298 2.479465539 4.574297754e-20)
(102.6194003 2.349326359 -7.635732484e-21)
(102.8704975 2.320069031 1.612890365e-20)
(102.6446028 2.212293083 -1.551795623e-20)
(101.8372649 1.398980029 2.627027284e-20)
(102.1703232 1.553504632 -2.095974085e-22)
(102.1501673 1.308987574 1.591453888e-20)
(101.8309861 1.219934618 1.185604634e-20)
(101.2847978 0.858719774 -1.557444836e-20)
(101.5283403 0.949034541 -7.930468832e-21)
(101.4899488 0.7807926076 -7.932005248e-21)
(101.2689017 0.7308659291 1.205126448e-20)
(100.7554983 0.2921482575 0)
(101.0034643 0.2758515517 1.276377162e-21)
(101.1695235 0.4894545404 -1.065801153e-20)
(101.0654575 0.5573136707 2.645136872e-20)
(100.5285636 0.1525824972 -4.869813327e-22)
(100.6770886 0.1440639489 -1.510382646e-21)
(100.40158 0.06408294946 -1.95079486e-21)
(100.4792487 0.06131002864 -2.206103551e-21)
(100.3862074 0.01709789941 2.505898995e-21)
(99.93200555 -0.06564806198 -1.488660903e-23)
(100.0057392 -0.04707695217 7.429059943e-23)
(99.82999718 -0.1195594975 2.079844846e-21)
(99.93395275 -0.1375937148 -8.941913613e-23)
(99.64504077 -0.1510292605 -1.087678364e-20)
(99.78730249 -0.2126663523 1.647965563e-21)
(99.35344864 -0.1018111578 -9.800966204e-21)
(99.53840583 -0.2657075188 -1.653468821e-20)
(99.33414377 -0.1836193131 -1.41109694e-20)
(99.29555813 -0.0170231944 -7.7236385e-21)
(99.24389898 -0.1334138416 -3.083182202e-21)
(99.15803744 -0.04691326149 3.043415863e-23)
(98.83786296 0.1292713915 1.253109454e-20)
(98.92045211 0.01703901928 1.276353323e-20)
(98.75458224 -0.03619074436 6.295095719e-21)
(98.63323321 0.1053978822 2.1748974e-20)
(98.17719139 0.3996530461 9.4635982e-21)
(98.28464519 0.2258983104 1.392735782e-20)
(98.02663932 0.1700846888 -3.062523983e-20)
(97.89771844 0.430883156 3.277659255e-21)
(97.8364004 0.3443396069 2.707289788e-20)
(97.39370224 0.7997214347 7.333106687e-20)
(97.45016661 0.6679094104 0)
(97.27533611 0.647157124 7.478513679e-20)
(97.20165347 0.7953205831 -1.557726497e-19)
(96.2573901 1.486837756 -4.092175618e-21)
(96.31981173 1.287495099 3.270134277e-19)
(96.06018794 1.269650101 -4.059830286e-22)
(95.97339777 1.497460964 -1.691829948e-19)
(94.66801393 2.642806212 -3.483499134e-19)
(94.72734684 2.326048352 0)
(94.3205664 2.323549262 0)
(94.22654158 2.693736757 -1.171271509e-20)
(92.38261591 4.834882527 4.904622514e-19)
(92.37443678 4.273310742 4.853131178e-19)
(91.65084254 4.336858997 3.830420377e-19)
(91.61536102 5.054085954 4.694319102e-19)
(89.56194716 10.1887199 4.750863778e-20)
(89.00002011 9.036896072 4.44959072e-19)
(87.25595512 10.09688864 3.18579871e-20)
(87.53543085 9.42232291 1.076518872e-19)
(88.62701586 11.4198301 -2.999576635e-19)
(87.75318269 11.42792429 3.036668242e-19)
(92.63272696 20.76914306 1.366583639e-20)
(93.88757392 20.55086861 7.719449946e-20)
(92.90021324 22.43080451 0)
(94.4830226 21.85633182 0)
(106.484388 19.08985074 2.971347636e-19)
(106.6933559 17.53044974 1.327516383e-19)
(108.234129 17.24537851 1.242120226e-19)
(107.2205116 19.94436139 -3.358292355e-19)
(109.1378431 18.83454851 1.847630767e-19)
(108.7446512 19.53201201 1.420026145e-20)
(109.1633789 11.41112324 0)
(108.433253 10.48975143 7.157110574e-20)
(109.8154311 10.65687382 0)
(108.9276095 9.910207515 0)
(106.9862069 6.062215598 3.120750088e-19)
(107.6214473 6.479498286 -7.512259879e-21)
(107.7636465 5.934539289 3.121715534e-19)
(107.1051791 5.625428245 1.593830845e-19)
(105.1340303 3.512136582 2.812957735e-19)
(105.5881337 3.699553773 7.953983805e-20)
(105.5694497 3.353321462 3.119666417e-19)
(105.125692 3.224512169 4.708100829e-21)
(103.9275342 2.149705325 -2.049446312e-19)
(103.6257701 2.07324563 7.527574456e-22)
(103.8790364 1.933380091 -1.056515272e-19)
(103.5907915 1.877628372 -3.327828012e-20)
(102.450377 1.151015014 4.163777825e-21)
(102.8424958 1.212283211 -2.71821414e-20)
(102.7226974 0.923905648 -2.383508547e-21)
(102.3740323 0.9229863722 -4.322977555e-21)
(101.6824068 0.6576888351 4.300910665e-21)
(101.9657198 0.6891854015 -1.886361285e-23)
(101.8609758 0.4934994858 -7.040166915e-21)
(101.6140274 0.4997078541 8.683468937e-21)
(100.9081999 0.1328404134 -1.896836394e-22)
(101.1505147 0.04513475355 -2.776339988e-22)
(101.4163543 0.2413617704 8.133852264e-22)
(101.3313686 0.3364141502 6.37725901e-21)
(100.6170179 0.05250853048 -3.234963241e-21)
(100.7527585 -0.01109571657 -2.384189675e-22)
(100.4555347 0.01500039134 2.421592643e-21)
(100.5145787 -0.0273122115 -2.146105845e-21)
(100.4003428 -0.01148541495 3.961323429e-22)
(100.0112483 -0.1180183969 1.56063238e-23)
(100.1170709 -0.07435394154 -2.942856883e-21)
(99.895586 -0.2283236962 -5.39511214e-22)
(100.0380268 -0.2212611987 1.279362464e-21)
(99.68608232 -0.3248513647 -4.232793004e-21)
(99.87842252 -0.3603535469 -2.786321763e-21)
(99.33912051 -0.3459558144 8.699848564e-21)
(99.60664186 -0.4869355273 -9.602646592e-22)
(99.35183659 -0.4482301115 9.176793024e-22)
(99.24102887 -0.2670173856 4.269806359e-21)
(99.23345126 -0.4104322867 8.844367018e-21)
(99.10719502 -0.3378142339 6.248160624e-21)
(98.70071474 -0.2245255889 -2.121709634e-21)
(98.8324176 -0.329737711 3.303575744e-21)
(98.6796816 -0.4310138944 2.179644295e-21)
(98.49999948 -0.3072791194 6.612735029e-21)
(97.91948009 -0.09743264693 -1.978322239e-20)
(98.09815659 -0.2657182553 1.840895737e-20)
(97.86261242 -0.3929312523 -1.063446665e-21)
(97.6373539 -0.1445495969 -6.263834767e-20)
(97.61418881 -0.2632158144 1.087576589e-19)
(97.01005943 0.102599256 3.959968608e-20)
(97.1173967 -0.02439074217 9.592690032e-20)
(96.95538397 -0.1001625778 -1.185870485e-19)
(96.82332871 0.03658908646 -8.294545304e-20)
(95.61426976 0.4730412943 -3.899983472e-21)
(95.76199594 0.2790253377 1.791497442e-19)
(95.5209168 0.1746127697 5.398063669e-19)
(95.33732333 0.3819806736 1.786355254e-19)
(93.54453372 1.074672037 1.257261354e-20)
(93.76662755 0.7680171044 -2.273065777e-19)
(93.39953139 0.6015636534 -5.829586712e-21)
(93.11059006 0.925624419 -1.58472367e-20)
(90.08531596 2.037665984 3.265249955e-19)
(90.49357047 1.488564702 -2.017288587e-21)
(89.89809682 1.136882364 2.187755264e-19)
(89.29779136 1.693218286 -1.730777441e-20)
(83.03915048 3.414938244 1.424674176e-19)
(83.64745165 2.720239126 2.840515605e-19)
(83.00412119 2.083554322 1.355270545e-19)
(82.12502 2.774678036 3.594592613e-19)
(121.9336788 23.30157673 -1.962510053e-19)
(120.2777266 22.18180265 -5.80304886e-21)
(122.6994298 21.50248325 -2.072310134e-19)
(121.0575551 20.76589314 3.622169399e-19)
(116.1389879 10.20322049 -4.249588828e-19)
(114.6032094 9.669517205 -5.243928852e-19)
(116.1698865 8.717822825 -5.581815434e-19)
(114.7152692 8.532414186 2.311250202e-19)
(110.124741 4.897383135 -2.61814635e-19)
(111.0419533 5.068813939 -9.106809048e-20)
(110.8481569 4.309437131 -2.628233804e-19)
(109.9997697 4.277031815 -2.204394527e-19)
(106.8104188 2.548241341 2.476210691e-19)
(107.3761074 2.58714259 5.841915759e-21)
(107.1739208 2.169978248 -2.458537905e-19)
(106.6573493 2.190600452 -7.88254063e-20)
(104.9083451 1.328614655 3.893092755e-20)
(104.5580082 1.33876961 -3.68593863e-20)
(104.760116 1.084809939 -1.138660266e-19)
(104.4401235 1.116209419 3.042389767e-21)
(102.9532064 0.6324974489 -4.657911721e-21)
(103.3759013 0.578126324 2.152834717e-21)
(103.1304259 0.2847102185 7.387741332e-21)
(102.789475 0.3897437894 1.104612168e-21)
(102.0033679 0.290721745 -1.932637681e-21)
(102.2957409 0.2439516031 1.310436176e-20)
(102.1117517 0.05343180604 4.846609211e-21)
(101.870989 0.1288551953 9.602401742e-21)
(100.9839503 -0.09491503686 -3.325972682e-22)
(101.1978908 -0.2588642128 -1.022064843e-21)
(101.5558145 -0.1136001491 -1.035736234e-21)
(101.516055 0.02462330924 -1.112267156e-21)
(100.6414746 -0.08906105991 1.039864287e-21)
(100.747137 -0.2119077423 1.272312572e-21)
(100.4522836 -0.05266296486 -4.130322221e-21)
(100.480195 -0.1402146362 1.612110139e-21)
(100.3506499 -0.04800097516 -2.038527942e-21)
(100.1457479 -0.1764331265 -1.679063442e-21)
(100.2835022 -0.1034612181 9.299925399e-22)
(100.0230896 -0.3499782723 -9.78666833e-22)
(100.2017586 -0.3104815069 -6.91825226e-22)
(99.80164996 -0.5197816677 5.02055221e-22)
(100.038639 -0.5178605859 -2.46903543e-22)
(99.41873732 -0.6262089854 5.627040812e-22)
(99.76078921 -0.7237086879 8.402145517e-22)
(99.46785678 -0.7400523825 4.993566692e-22)
(99.28100757 -0.5652290951 1.459467605e-21)
(99.32668 -0.722526041 -1.388831903e-23)
(99.16436751 -0.6745266491 -1.389029438e-23)
(98.69473564 -0.6501781816 -2.176761487e-21)
(98.87158365 -0.7327163876 0)
(98.74697061 -0.876082336 -1.070279614e-21)
(98.51872567 -0.7879462477 -1.13504189e-21)
(97.85963357 -0.7061148411 -1.730901404e-20)
(98.09864902 -0.8399627386 -1.161936978e-21)
(97.91142408 -1.026498856 -3.823305131e-23)
(97.6070426 -0.8276508641 -1.928330194e-19)
(97.62646302 -0.9603592541 1.122809973e-19)
(96.90824394 -0.7428507487 -1.19065453e-19)
(97.05986874 -0.8439281886 0)
(96.93012261 -0.9616588157 -1.198372557e-19)
(96.75078608 -0.8602078785 1.675663848e-19)
(95.43431697 -0.7569558794 -4.643693819e-19)
(95.64682293 -0.903645494 -4.580803248e-19)
(95.46406752 -1.064406376 -5.529551981e-19)
(95.21282423 -0.9209541098 -1.789538104e-19)
(93.32665633 -0.8187512502 -3.170270067e-23)
(93.65239673 -1.018794199 1.613766562e-19)
(93.40115275 -1.260633282 -9.809487877e-23)
(93.02566879 -1.081420229 2.229286909e-19)
(90.1781177 -1.262524982 -3.297001525e-19)
(90.73197584 -1.485691378 -3.993478744e-22)
(90.4331284 -1.894259296 -4.339108695e-19)
(89.82115341 -1.750543792 -3.596207458e-19)
(86.3008603 -3.323832736 2.432214965e-19)
(86.76709799 -3.269880398 -2.543030658e-19)
(86.76658495 -3.622705492 2.34933528e-19)
(86.36540756 -3.759150155 -4.878202343e-21)
(135.7981969 8.295335458 -5.692757991e-19)
(134.1024003 9.084723405 -1.152006711e-18)
(134.6621704 6.880872043 -1.919204549e-20)
(133.2464022 7.710963558 -5.48757727e-19)
(121.3515097 3.704664206 -4.981626814e-20)
(119.7031044 4.231979401 4.01254114e-20)
(120.3186852 2.404145412 1.108129197e-18)
(119.0027104 3.063982885 6.813558799e-19)
(112.5224878 1.911047956 3.430195829e-19)
(113.4857649 1.639362969 4.311379724e-20)
(112.8504215 0.9597076502 1.82604849e-20)
(112.0411715 1.301196925 6.024389541e-20)
(108.0095448 0.7542158151 1.83141436e-19)
(108.5873991 0.5816804986 1.912394921e-19)
(108.1754173 0.211666772 6.749178098e-22)
(107.6797656 0.4166186319 3.587618695e-19)