/*--------------------------------*- C++ -*----------------------------------*\
| =========                 |                                                 |
| \\      /  F ield         | OpenFOAM: The Open Source CFD Toolbox           |
|  \\    /   O peration     | Version:  v1912                                 |
|   \\  /    A nd           | Website:  www.openfoam.com                      |
|    \\/     M anipulation  |                                                 |
\*---------------------------------------------------------------------------*/
FoamFile
{
    version     2.0;
    format      ascii;
    class       surfaceScalarField;
    location    "1800";
    object      phi;
}
// * * * * * * * * * * * * * * * * * * * * * * * * * * * * * * * * * * * * * //

dimensions      [0 3 -1 0 0 0 0];
oriented        oriented;


internalField   nonuniform List<scalar> 
25162
(
0.000433017
0.916217
0.000532081
0.916601
0.000620628
0.916561
0.000298577
0.916595
0.000376864
0.458339
0.000309803
0.458311
0.00037616
-0.00038736
-0.000474799
0.458291
0.000534096
-0.000592994
0.458239
0.000688623
-0.000791817
0.458219
0.000902673
-0.00102963
0.4582
0.00116513
-0.0013
0.458202
0.00143266
-0.00156092
0.458232
0.00166039
-0.00173578
0.458292
0.00177716
-0.00177893
0.458369
0.00174527
-0.00168038
0.458426
0.00158483
-0.00147654
0.458454
0.00135763
-0.00122454
0.458456
0.00110323
-0.000982234
0.458464
0.000832927
-0.000786123
0.458435
0.000700683
-0.00057805
0.458451
0.000476719
-0.00179834
0.918586
0.000281802
-0.000419001
-0.00112455
0.918676
-2.50276e-05
0.91575
0.913775
0.00119524
0.915022
0.00188748
0.915909
0.00213023
0.916319
0.000594133
0.917138
0.00099364
0.458091
0.000707251
-0.458204
-0.458193
-0.000860763
0.458
0.00105393
-0.458062
-0.00129369
0.45777
0.000745022
0.000840453
-0.228982
-0.000897959
0.228895
0.000985001
-0.00130046
-0.22893
0.228816
0.00141457
-0.0018094
-0.228887
0.22874
0.00195598
-0.0024025
-0.228882
0.228724
0.00255995
-0.00297607
-0.22893
0.228794
0.00311164
-0.00338825
-0.229045
0.228976
0.00345724
-0.00350079
-0.229194
0.229208
0.00348676
-0.00328283
-0.229312
0.229398
0.00319734
-0.00283554
-0.229381
0.229506
0.00271042
-0.00229245
-0.22939
0.229523
0.00216013
-0.00176923
-0.22937
0.229483
0.00165708
-0.458794
-0.00245089
0.460126
0.00111879
0.000103534
0.460813
-0.00171623
-0.4592
-0.001959
0.9179
0.000745585
0.00189935
-0.00118933
0.917907
0.000264337
0.914297
0.914039
0.00151823
0.913504
0.00405766
0.913369
0.0068433
0.913533
0.00278928
0.914955
0.0062365
-0.458066
0.457911
0.00294333
-0.457837
-0.00290339
0.458512
0.00222848
-0.457377
-0.00227903
0.457187
0.00119783
0.00127064
-0.228525
-0.00148148
0.228364
0.00164227
-0.228311
-0.00222064
0.228085
0.00244627
-0.22812
-0.00321592
0.22784
0.00349589
-0.228056
-0.00441332
0.227741
0.00472815
-0.22824
-0.00563308
0.227978
0.00589528
-0.228721
-0.00651505
0.228596
0.00664033
-0.229343
-0.00675194
0.229406
0.00668905
-0.229863
-0.00627846
0.230068
0.00607399
-0.230125
-0.00532982
0.230405
0.00504925
-0.230149
-0.0042091
0.230429
0.00392948
-0.00286575
-0.23008
0.230697
0.00224935
-0.462618
0.000973789
0.461279
0.000365263
-0.459814
-0.000649879
0.459685
0.000779689
-0.000319024
0.919383
-0.000744985
-0.000419053
0.00134409
0.916243
0.000630504
0.91501
0.91467
0.000527262
0.912976
0.0011432
0.912753
0.00233844
0.912338
0.00313055
0.912057
0.00210629
-0.457177
0.456764
0.0035432
-0.460087
-0.00472257
0.457078
0.00773248
-0.458708
-0.00894429
0.460317
0.00198334
0.00535212
-0.227773
-0.00193189
0.227592
0.00211284
-0.227258
-0.00292747
0.226932
0.00325314
-0.226752
-0.00441335
0.226309
0.00485699
-0.226515
-0.00631686
0.225987
0.00684444
-0.226872
-0.00844756
0.226372
0.00894787
-0.228054
-0.0101546
0.227803
0.0104057
-0.229664
-0.0105926
0.229794
0.0104628
-0.230936
-0.00962313
0.231324
0.00923444
-0.231498
-0.00788987
0.231991
0.00739716
-0.233804
-0.00119434
0.237679
-0.00268079
-0.0028116
-0.231371
0.231308
0.00287468
-0.461066
-0.00436968
0.462047
0.00338856
-0.460268
-0.00236925
0.461099
0.00153845
0.00243762
0.919036
-0.00114912
-0.000942184
0.00177753
0.916904
0.000826229
0.915962
0.915496
0.000158127
0.912818
0.00036234
0.912549
0.000708414
0.911992
0.00127063
0.911031
0.000463364
-0.456512
0.455739
0.00204393
-0.455692
-0.00243644
0.455103
0.00302475
-0.454285
-0.00383341
0.453577
0.0024081
0.00213309
-0.228301
-0.00420585
0.226464
0.00604317
-0.22658
-0.00919923
0.228366
0.00741298
-0.224759
-0.00522627
0.224236
0.00574975
-0.223964
-0.00789944
0.223117
0.00874655
-0.224275
-0.011557
0.22331
0.0125223
-0.226725
-0.0149645
0.226213
0.0154773
-0.230411
-0.015699
0.230905
0.0152043
-0.23297
-0.0121303
0.233892
0.0112084
-0.241299
-0.00116986
0.238037
0.00443164
-0.233199
-0.00650667
0.233725
0.00598043
-0.00440329
-0.232451
0.232899
0.0039559
-0.463462
-0.0051614
0.464794
0.00382881
-0.461862
-0.00290991
0.462645
0.0021264
0.00322139
0.920573
-0.00275422
-0.00200407
0.00178587
0.918339
0.000815681
0.916932
0.916312
-9.44532e-05
0.912913
-9.73435e-05
0.912552
0.000129668
0.911765
0.000286016
0.91059
0.000284443
-0.454874
0.454589
0.000571244
-0.454633
-0.00150962
0.453901
0.00224181
-0.45283
-0.00274639
0.451876
0.00181898
0.00188127
-0.225289
-0.0022917
0.225042
0.00253896
-0.223674
-0.00359413
0.223216
0.00405239
-0.223881
-0.00782733
0.221578
0.0101302
-0.221595
-0.0141706
0.222232
0.0135337
-0.219652
-0.0169711
0.21934
0.0172831
-0.223882
-0.0223673
0.222841
0.0234091
-0.234657
-0.0205652
0.235104
0.0201175
-0.243572
-0.0103179
0.241371
0.0125187
-0.236954
-0.0117712
0.238108
0.0106172
-0.235856
-0.00760224
0.236762
0.00669638
-0.00400781
-0.23468
0.235159
0.0035287
-0.465924
-0.0054682
0.467073
0.00431865
-0.463044
-0.00348672
0.463404
0.00312654
0.0027249
0.922478
-0.00226571
-0.00236434
0.00151189
0.919552
0.000624834
0.917819
0.916937
-0.000475269
0.913388
-0.000824471
0.912901
-0.00102898
0.911969
2.24194e-05
0.910245
-0.000706372
-0.454459
0.454171
0.000310305
-0.452881
-0.000534725
0.45253
0.000884765
-0.451545
-0.00182808
0.451172
0.00105047
0.00115122
-0.22425
-0.00141641
0.224036
0.00163018
-0.222164
-0.0025135
0.221738
0.00293943
-0.218819
-0.00420806
0.218269
0.00475768
-0.215377
-0.00800606
0.213191
0.0101914
-0.213847
-0.0230173
0.108963
0.103501
0.0101671
0.0142326
-0.01798
-0.108768
0.108148
0.0186
-0.0149201
-0.24415
0.028657
-0.0151891
0.122363
0.123239
-0.0217775
-0.244036
0.246854
0.0189601
-0.242665
-0.0117934
0.244165
0.0102938
-0.239382
-0.00742052
0.240262
0.00654087
-0.004384
-0.236599
0.237173
0.00381089
-0.468229
-0.00481235
0.468872
0.00416915
-0.464219
-0.00314842
0.465037
0.00233032
0.00165933
0.923916
-0.00144522
-0.001652
0.000789543
0.920422
0.000298913
0.91831
0.917235
-0.000869163
0.914257
-0.00168584
0.913718
-0.00230805
0.912591
-0.00116453
0.910804
-0.00170204
-0.45413
0.454134
-0.00116877
-0.452376
0.00121583
0.452278
-0.00111733
-0.449894
0.000958003
0.449612
-0.00029157
-0.000383779
-0.223549
-0.000281065
0.223448
0.000381301
-0.220949
-0.000558447
0.22103
0.000476899
-0.217111
-0.000782855
0.216867
0.00102754
-0.210487
-0.00190789
0.210244
0.00215158
-0.09876
-0.0016853
0.0989779
0.00146748
-0.0233156
-0.132545
0.134986
0.020875
-0.0214123
-0.256486
0.259776
0.0181223
-0.248916
-0.0113366
0.250492
0.00976056
-0.243211
-0.00631661
0.244088
0.00543956
-0.00339246
-0.238831
0.2393
0.00292375
-0.469916
-0.00311795
0.470783
0.00225069
-0.465708
-0.00163085
0.46629
0.00104832
-0.000115323
0.924635
-5.95371e-05
-0.000544319
-0.000292349
0.920599
-0.000193349
0.918211
0.917042
-0.00125308
0.91551
-0.00243205
0.914897
-0.00367487
0.913834
-0.00212012
0.911886
-0.00263721
-0.454311
0.454487
-0.00229662
-0.452346
0.00249592
0.452531
-0.0026814
-0.449497
0.00284789
0.449647
-0.00139771
-0.00160034
-0.223632
0.00165788
0.223667
-0.00169355
-0.220926
0.00184222
0.220984
-0.00190012
-0.216809
0.00215527
0.216947
-0.00229382
-0.211005
0.00304159
0.211461
-0.00349748
-0.102498
0.00302321
0.102882
-0.0034079
-0.010566
-0.147846
0.148634
0.00977788
-0.0100671
-0.267592
0.269125
0.00853356
-0.254337
-0.00515045
0.255136
0.00435121
-0.245948
-0.00252333
0.246316
0.00215513
-0.00122556
-0.240374
0.240615
0.000984916
-0.471928
-0.000624319
0.472894
-0.000341434
-0.466592
0.000796638
0.466792
-0.000997103
-0.0022912
0.924215
0.00155536
0.0011564
-0.00164041
0.919948
-0.000858425
0.917429
0.916184
-0.00159971
0.91711
-0.00330502
0.916602
-0.00493211
0.915461
-0.00306598
0.913604
-0.00358396
-0.454845
0.455203
-0.00342356
-0.452788
0.00382934
0.453259
-0.00430002
-0.449958
0.00473858
0.450524
-0.00247895
-0.00282515
-0.223959
0.00294722
0.224102
-0.00308985
-0.221393
0.00360809
0.221597
-0.00381129
-0.217623
0.00452158
0.217912
-0.00481095
-0.212827
0.00586628
0.213249
-0.00628776
-0.104254
0.00378124
0.104361
-0.00193563
-0.00195258
0.00554658
-0.148024
0.147298
-0.00482067
0.00515367
-0.270034
0.269241
-0.0043602
-0.255799
0.00294574
0.255528
-0.00267481
-0.246787
0.00212255
0.246658
-0.00199332
0.00166342
-0.240833
0.240764
-0.00159428
-0.472926
0.00313427
0.472534
-0.00274159
-0.466664
0.00269588
0.467075
-0.00310691
-0.00471771
0.922602
0.00342798
0.00290283
-0.00311067
0.918341
-0.00158086
0.915899
0.914603
-0.00203322
0.919143
-0.00404892
0.918618
-0.00618915
0.917602
-0.00398106
0.91587
-0.00447429
-0.455736
0.456266
-0.00451177
-0.453793
0.00515925
0.454379
-0.00574555
-0.451433
0.00642837
0.452575
-0.00369597
-0.00387435
-0.224682
0.00409236
0.224915
-0.00432558
-0.222355
0.00512338
0.222651
-0.00541952
-0.218897
0.0064189
0.219262
-0.0067847
-0.21443
0.00794532
0.214812
-0.00832816
-0.104951
0.00459691
0.105005
-0.00231388
-0.0023362
0.0148792
-0.140235
0.139069
-0.0137134
0.0168691
-0.264512
0.262326
-0.0146821
-0.253355
0.00999655
0.252273
-0.00891414
-0.24558
0.00654737
0.244943
-0.00590985
0.00452129
-0.240068
0.239759
-0.00421195
-0.47183
0.00676057
0.470853
-0.00578299
-0.467366
0.00491033
0.466579
-0.00412291
-0.00697492
0.920003
0.00494824
0.00462556
-0.00454668
0.915913
-0.00223869
0.913591
0.912364
-0.00242964
0.921573
-0.00486776
0.921056
-0.00742416
0.920158
-0.00480237
0.918455
-0.00520633
-0.456953
0.457637
-0.005487
-0.455162
0.00624916
0.455979
-0.00706662
-0.453687
0.00795139
0.454958
-0.00453621
-0.00468551
-0.225719
0.00505712
0.226021
-0.00535876
-0.223661
0.00635945
0.224039
-0.00673718
-0.220485
0.00797434
0.220938
-0.00842774
-0.216056
0.00986073
0.216532
-0.0103367
-0.105355
0.00571062
0.105417
-0.00286882
-0.00290432
0.018424
-0.131016
0.129842
-0.0172504
0.0226925
-0.255251
0.252858
-0.0202987
-0.248435
0.0145925
0.24702
-0.013178
-0.242444
0.0097782
0.24141
-0.00874409
0.00674509
-0.238166
0.237546
-0.00612587
-0.469642
0.00982173
0.468206
-0.00838506
-0.465727
0.00713241
0.464667
-0.0060719
-0.00902466
0.918101
0.00571118
0.00521552
-0.00580927
0.912697
-0.00281769
0.910599
0.909546
-0.00646313
0.928036
-0.0130882
0.927681
-0.0197915
0.926861
-0.005728
0.925562
-0.0211701
-0.458398
0.459268
-0.00659748
-0.456825
0.00750187
0.457846
-0.00852374
-0.456162
0.00952059
0.457033
-0.00515138
-0.00524062
-0.226993
0.00579791
0.227333
-0.00613761
-0.225255
0.00729139
0.225688
-0.00772422
-0.22244
0.00918954
0.222986
-0.00973589
-0.21827
0.0115872
0.218967
-0.00610494
-0.00617854
-0.0531382
0.00355488
0.0531698
-0.00358652
-0.0579253
0.00664985
0.0574392
-0.0129716
0.00680787
0.0171052
-0.122739
0.242182
-0.0307183
0.0168413
-0.122672
-0.246147
0.0233489
0.243731
-0.020933
-0.24224
0.0161107
0.240765
-0.0146364
-0.238609
0.011255
0.237683
-0.0103289
0.00802383
-0.235539
0.234896
-0.00738082
-0.466451
0.0119024
0.464694
-0.0101448
-0.463562
0.00884455
0.462361
-0.00764385
-0.0106437
0.915014
0.0071336
0.00659646
-0.00684562
0.908899
-0.00336979
0.907123
0.906177
-0.0028984
0.930934
-0.00587639
0.930659
-0.00901331
0.929998
-0.00612797
0.928971
-0.00629516
-0.462059
0.46296
-0.00702837
-0.460668
0.0080112
0.461723
-0.00906581
-0.458877
0.0102113
0.460136
-0.00569798
-0.00577191
-0.228467
0.00637758
0.228841
-0.00675139
-0.227122
0.00800266
0.227595
-0.00847547
-0.22491
0.0101089
0.225542
-0.0107403
-0.221874
0.0130183
0.222819
-0.00695686
-0.00700669
-0.0546475
0.00887379
0.109687
-0.0545649
-0.00464656
-0.00470199
-0.111514
0.00933514
0.111463
-0.0183852
0.00910165
0.03061
-0.235901
0.234064
-0.0287735
-0.237719
0.0194922
0.236446
-0.0182188
-0.237396
0.0149762
0.236837
-0.0144178
-0.235168
0.0112136
0.234536
-0.0105823
0.00836016
-0.233052
0.232492
-0.00779993
-0.463192
0.012668
0.461891
-0.0113674
-0.461145
0.0100929
0.459687
-0.00863508
-0.0100237
0.911147
0.00688454
0.00700675
-0.00750216
0.906378
-0.00366904
0.90329
0.902508
-0.00304569
0.93398
-0.00617242
0.933786
-0.00945652
0.933282
-0.00645452
0.932519
-0.00654983
-0.463919
0.464873
-0.00740906
-0.462804
0.00843529
0.463897
-0.00952888
-0.461414
0.010709
0.4627
-0.00598205
-0.00601301
-0.229983
0.00668832
0.230365
-0.00706949
-0.229028
0.00833016
0.229497
-0.00879921
-0.227472
0.0104319
0.228101
-0.0110612
-0.225751
0.0133146
0.226664
-0.0142276
-0.112733
0.0175934
0.223803
-0.0168787
-0.111784
-0.22572
0.0228614
0.226299
-0.0234409
-0.230677
0.0229337
0.23004
-0.022297
-0.232696
0.0197333
0.231752
-0.0187887
-0.232691
0.015982
0.2318
-0.0150908
-0.231735
0.012621
0.230986
-0.0118711
0.00984088
-0.232117
0.22988
-0.00760338
-0.46078
0.0143628
0.458003
-0.0115857
-0.458185
0.0104113
0.456439
-0.00866522
-0.0103798
0.907379
0.00713865
0.00700926
-0.00753747
0.903536
-0.0038641
0.899617
0.898644
-0.00311734
0.937097
-0.00631086
0.936979
-0.00964869
0.93662
-0.00659826
0.936098
-0.00662895
-0.465847
0.466816
-0.00756707
-0.464992
0.00859456
0.466078
-0.00967997
-0.463976
0.010841
0.465227
-0.00604954
-0.00604236
-0.231488
0.00673618
0.231852
-0.00709947
-0.230848
0.00828154
0.231276
-0.00870964
-0.229864
0.0101344
0.230397
-0.0106676
-0.228953
0.0124244
0.229581
-0.0130523
-0.221708
0.0147155
0.221135
-0.0141427
-0.227594
0.017433
0.227911
-0.0177499
-0.228868
0.0177695
0.228627
-0.0175289
-0.229614
0.0162818
0.229082
-0.01575
-0.22957
0.0139856
0.228958
-0.0133734
-0.228998
0.0115631
0.228418
-0.0109831
0.00934448
-0.228208
0.2277
-0.00883578
-0.457592
0.0148087
0.455202
-0.0124187
-0.453841
0.00929449
0.452528
-0.00798158
-0.00958655
0.902129
0.0076763
0.00716005
-0.00512528
0.899074
-0.00392069
0.898412
0.894723
-0.00311962
0.940217
-0.00630639
0.940166
-0.00961691
0.939931
-0.00657814
0.93961
-0.00655135
-0.467771
0.468723
-0.0075302
-0.467143
0.00852474
0.468182
-0.00956372
-0.46644
0.0106618
0.467606
-0.00593059
-0.0058969
-0.232893
0.00656615
0.233222
-0.00689456
-0.232472
0.0079365
0.232839
-0.00830309
-0.231803
0.00946615
0.232211
-0.009874
-0.231156
0.0111363
0.231592
-0.0115729
-0.219869
0.0122847
0.219584
-0.0119991
-0.228611
0.0140833
0.22878
-0.0142527
-0.228136
0.0143096
0.228022
-0.014195
-0.227849
0.0135089
0.227531
-0.0131904
-0.227443
0.0120598
0.227027
-0.0116442
-0.226905
0.0103496
0.22647
-0.00991447
0.00863743
-0.226335
0.225921
-0.00822326
-0.451806
0.0139839
0.450355
-0.0125328
-0.451203
0.0111436
0.449866
-0.00980656
-0.00882067
0.895963
0.00839823
0.00658838
-0.00475592
0.89501
-0.00356795
0.897224
0.891155
-0.00306338
0.94328
-0.00618214
0.943285
-0.00939918
0.943148
-0.00642162
0.942983
-0.00635033
-0.469636
0.470548
-0.00733353
-0.469187
0.00827142
0.470155
-0.00923918
-0.468718
0.0102482
0.469771
-0.00567755
-0.00562404
-0.234145
0.00624573
0.234431
-0.0065322
-0.23384
0.00741652
0.234141
-0.00771812
-0.233276
0.00863699
0.233584
-0.00894505
-0.232693
0.00986442
0.233001
-0.0101721
-0.219058
0.0104025
0.218974
-0.0103191
-0.229157
0.0117271
0.229249
-0.0118191
-0.227759
0.0118459
0.227689
-0.0117764
-0.226766
0.0113479
0.22656
-0.0111421
-0.225986
0.0103816
0.225696
-0.0100913
-0.225338
0.00915222
0.225011
-0.00882526
0.00783273
-0.22482
0.224487
-0.00749921
-0.449011
0.0129195
0.447769
-0.0116775
-0.44862
0.010462
0.447426
-0.0092683
-0.0117583
0.891709
0.00791738
0.00809479
-0.00772182
0.890973
-0.000987714
0.89049
0.890167
-0.00296027
0.946241
-0.005963
0.946288
-0.00903728
0.946222
-0.00616169
0.946166
-0.00605857
-0.471401
0.472258
-0.00701811
-0.471081
0.00788566
0.471965
-0.00876959
-0.470764
0.00967844
0.471698
-0.00533946
-0.00527214
-0.235227
0.00583696
0.235472
-0.00608203
-0.234958
0.00681969
0.235202
-0.00706438
-0.234391
0.00778661
0.234626
-0.00802145
-0.233782
0.00870724
0.234002
-0.00892694
-0.218931
0.00892434
0.218972
-0.00896507
-0.229453
0.00994799
0.229502
-0.00999699
-0.227513
0.00999354
0.227462
-0.0099425
-0.226047
0.00964397
0.225904
-0.00950045
-0.224956
0.00896046
0.224745
-0.00874981
-0.224154
0.00805079
0.223905
-0.00780114
0.00702325
-0.223604
0.223335
-0.00675434
-0.446624
0.011763
0.445571
-0.0107095
-0.446326
0.00965831
0.445275
-0.00860728
-0.011023
0.887834
0.00734562
0.007552
-0.00727408
0.887224
-0.00361054
0.886827
0.886557
-0.00282258
0.949063
-0.005675
0.94914
-0.00857375
0.949121
-0.00583073
0.94913
-0.00570727
-0.473044
0.473837
-0.00662336
-0.472804
0.00741499
0.473601
-0.00821181
-0.472572
0.00902025
0.473389
-0.0049548
-0.00488271
-0.236149
0.00538558
0.236357
-0.00559339
-0.235864
0.00620532
0.236062
-0.00640361
-0.235246
0.00697534
0.235428
-0.00715764
-0.234561
0.00768162
0.234718
-0.00783887
-0.219212
0.0077324
0.219323
-0.00784305
-0.229607
0.00854193
0.229631
-0.00856572
-0.227324
0.00854024
0.227282
-0.00849809
-0.225534
0.00827164
0.225427
-0.00816488
-0.224197
0.00776192
0.224039
-0.00760312
-0.223244
0.00706773
0.22305
-0.00687317
0.00625487
-0.222624
0.222405
-0.00603636
-0.444601
0.0106084
0.443709
-0.00971624
-0.444314
0.00881127
0.443394
-0.00789218
-0.0101951
0.884342
0.00673508
0.00695239
-0.00675779
0.883787
-0.0033636
0.883433
0.883193
-0.00266214
0.951725
-0.00534269
0.951821
-0.00804744
0.951826
-0.00545787
0.951864
-0.00532297
-0.474553
0.475279
-0.00618394
-0.474354
0.00689984
0.475066
-0.00761236
-0.474152
0.00832651
0.474864
-0.00455493
-0.00448353
-0.23693
0.00492632
0.237106
-0.00510223
-0.236599
0.00561068
0.236761
-0.00577234
-0.235915
0.00623093
0.236059
-0.00637546
-0.235117
0.00678404
0.235229
-0.00689584
-0.219716
0.00675267
0.219862
-0.00689865
-0.229677
0.0074008
0.229685
-0.00740912
-0.227164
0.00736885
0.227127
-0.00733173
-0.225145
0.00714899
0.225061
-0.00706532
-0.223619
0.0067515
0.223495
-0.00662757
-0.22253
0.00620597
0.222375
-0.00605102
0.00555142
-0.221825
0.221646
-0.00537184
-0.442887
0.00951064
0.44213
-0.00875287
-0.442556
0.00797374
0.441755
-0.0071719
-0.00933566
0.881216
0.00612293
0.00633933
-0.00621211
0.880663
-0.00309946
0.88032
0.880094
-0.00248865
0.954214
-0.00498597
0.954318
-0.00748912
0.954329
-0.00506448
0.954366
-0.0049269
-0.475927
0.476587
-0.0057247
-0.475738
0.00636832
0.476372
-0.00700247
-0.475528
0.00763118
0.476147
-0.00415917
-0.00409116
-0.237591
0.00447918
0.237741
-0.00462838
-0.2372
0.00505304
0.237333
-0.00518606
-0.236449
0.00555953
0.236566
-0.0056765
-0.235511
0.00599993
0.235589
-0.00607835
-0.220326
0.0059328
0.220487
-0.00609298
-0.229694
0.00645527
0.229693
-0.00645374
-0.227021
0.00640395
0.226987
-0.00637015
-0.224835
0.00621622
0.224767
-0.00614793
-0.223162
0.00589488
0.223062
-0.00579525
-0.221956
0.00545501
0.22183
-0.00532909
0.00491882
-0.221167
0.221018
-0.00476946
-0.44143
0.00849417
0.440783
-0.00784733
-0.441025
0.00717493
0.440325
-0.00647531
-0.00848568
0.878428
0.00553386
0.00573974
-0.00566528
0.877843
-0.00283254
0.877487
0.877261
-0.00231094
0.956525
-0.00462259
0.95663
-0.00692562
0.956632
-0.00467038
0.956646
-0.004535
-0.477171
0.477769
-0.00526803
-0.476968
0.00584498
0.477532
-0.00640839
-0.476725
0.00696165
0.477264
-0.00378236
-0.00371838
-0.238153
0.00405873
0.23828
-0.00418587
-0.237697
0.00454327
0.237808
-0.004654
-0.236884
0.00496311
0.236981
-0.00505956
-0.235786
0.00531849
0.23584
-0.00537241
-0.220973
0.00524102
0.221135
-0.00540302
-0.229677
0.00566416
0.229669
-0.00565618
-0.226889
0.00560047
0.226858
-0.00556914
-0.224579
0.00543552
0.224521
-0.00537804
-0.222792
0.00516808
0.222709
-0.00508596
-0.221487
0.00480537
0.221382
-0.00470112
0.00435899
-0.220618
0.220493
-0.00423324
-0.440184
0.00757392
0.439628
-0.00701822
-0.439689
0.00643549
0.439078
-0.00582376
-0.0076753
0.875946
0.00498281
0.00517415
-0.00513856
0.875306
-0.0025738
0.874922
0.874687
-0.00213534
0.95866
-0.0042652
0.958759
-0.00637556
0.958742
-0.00428794
0.958717
-0.00415862
-0.478293
0.478833
-0.00482753
-0.478062
0.00534414
0.478562
-0.0058447
-0.477767
0.00633219
0.478238
-0.0034317
-0.00337112
-0.238633
0.00367127
0.238742
-0.00378026
-0.238113
0.00408369
0.238206
-0.00417701
-0.237245
0.00443685
0.237326
-0.00451759
-0.235973
0.00472667
0.236009
-0.00476262
-0.221615
0.0046524
0.221772
-0.00480929
-0.229639
0.00499621
0.229626
-0.00498392
-0.226767
0.00492472
0.226738
-0.00489538
-0.224362
0.00477693
0.224312
-0.00472739
-0.222484
0.00454921
0.222415
-0.00448008
-0.221096
0.00424437
0.221008
-0.00415666
0.00386737
-0.220155
0.220048
-0.00376031
-0.439112
0.006751
0.438631
-0.0062704
-0.438521
0.00576293
0.437984
-0.00522639
-0.00692137
0.873737
0.00447787
0.0046522
-0.00464454
0.873029
-0.00232988
0.872608
0.872357
-0.00196682
0.960627
-0.00392349
0.960716
-0.00585287
0.960671
-0.00392611
0.960596
-0.00380586
-0.479305
0.479791
-0.00441278
-0.479033
0.00487554
0.479479
-0.00532093
-0.478678
0.00575154
0.479091
-0.00310949
-0.00305447
-0.239045
0.00331802
0.239139
-0.00341205
-0.238464
0.00367196
0.238544
-0.00375155
-0.237549
0.00397297
0.237617
-0.00404134
-0.236095
0.00421128
0.236118
-0.00423411
-0.22223
0.00414707
0.222378
-0.00429519
-0.229585
0.00442698
0.229569
-0.00441176
-0.226652
0.00435071
0.226625
-0.00432309
-0.224173
0.00421651
0.22413
-0.00417308
-0.222223
0.00401916
0.222164
-0.00395998
-0.220765
0.00375891
0.220691
-0.00368412
0.00343659
-0.219759
0.219667
-0.00334455
-0.438183
0.00602247
0.437765
-0.00560403
-0.437496
0.00515975
0.437023
-0.00468737
-0.00623366
0.871769
0.00402295
0.00417888
-0.00419101
0.870987
-0.00210505
0.870522
0.870252
-0.00180846
0.962435
-0.00360339
0.962511
-0.00536574
0.962434
-0.0035907
0.962301
-0.00348024
-0.480215
0.480654
-0.00402977
-0.479899
0.00444498
0.480296
-0.00484229
-0.479477
0.00522401
0.47984
-0.00281756
-0.00276953
-0.239401
0.00299995
0.239483
-0.00308164
-0.238766
0.00330636
0.238834
-0.00337507
-0.237807
0.00356599
0.237865
-0.00362446
-0.236172
0.00376338
0.236185
-0.00377668
-0.222807
0.00371221
0.222945
-0.00384993
-0.229521
0.00394045
0.229503
-0.00392321
-0.226544
0.00386142
0.226518
-0.00383531
-0.224007
0.00373834
0.223968
-0.00369973
-0.221998
0.00356486
0.221947
-0.00351348
-0.220482
0.00333969
0.220418
-0.00327513
0.0030611
-0.219417
0.219337
-0.00298124
-0.437373
0.0053828
0.437007
-0.005016
-0.436592
0.00462487
0.436175
-0.00420714
-0.00561505
0.870011
0.00361715
0.00375561
-0.00378095
0.869153
-0.00190113
0.868642
0.868351
-0.00166292
0.964098
-0.00330993
0.964158
-0.00492097
0.964045
-0.00328517
0.963851
-0.00318582
-0.481037
0.481434
-0.00368192
-0.480671
0.00405552
0.481026
-0.00441122
-0.480182
0.00475111
0.480503
-0.00255751
-0.00251497
-0.239711
0.00271798
0.239783
-0.00278951
-0.239027
0.0029858
0.239087
-0.00304581
-0.238028
0.00321227
0.238079
-0.00326274
-0.236214
0.00337694
0.23622
-0.00338342
-0.223342
0.00333962
0.223469
-0.00346657
-0.229449
0.00352608
0.229431
-0.00350744
-0.226442
0.00344558
0.226417
-0.00342082
-0.223859
0.00333177
0.223824
-0.00329704
-0.221803
0.00317736
0.221757
-0.00313218
-0.220237
0.00298015
0.220181
-0.00292379
0.0027368
-0.21912
0.21905
-0.0026669
-0.436662
0.00482547
0.436339
-0.00450173
-0.435793
0.00415533
0.435422
-0.00378409
-0.005067
0.868436
0.00326061
0.00338171
-0.00341622
0.867502
-0.00171928
0.866945
0.866632
-0.00153149
0.96563
-0.00304547
0.965672
-0.00452151
0.965521
-0.00301129
0.965264
-0.00292346
-0.48178
0.482139
-0.00337078
-0.481363
0.00370826
0.481683
-0.0040282
-0.480806
0.00433246
0.481092
-0.00232848
-0.00229019
-0.239984
0.00247059
0.240047
-0.00253378
-0.239256
0.00270703
0.239309
-0.00276003
-0.23822
0.00290667
0.238264
-0.00295063
-0.236232
0.00304504
0.236234
-0.00304671
-0.223834
0.00302121
0.22395
-0.0031377
-0.229373
0.00317381
0.229353
-0.00315419
-0.226345
0.00309268
0.226321
-0.00306912
-0.223725
0.00298667
0.223693
-0.00295511
-0.22163
0.00284772
0.22159
-0.00280755
-0.220022
0.00267305
0.219972
-0.00262332
0.00245835
-0.218859
0.218797
-0.00239662
-0.436034
0.00434368
0.435746
-0.0040559
-0.435081
0.00374712
0.434749
-0.00341531
-0.00458733
0.867018
0.00295054
0.00305516
-0.00309601
0.86601
-0.00155932
0.865408
0.865073
-0.00141499
0.967045
-0.00281141
0.967068
-0.00416888
0.966878
-0.0027697
0.966559
-0.00269348
-0.482454
0.482781
-0.00309673
-0.481986
0.00340313
0.482276
-0.00369256
-0.481363
0.00396666
0.48162
-0.00212824
-0.00209515
-0.240226
0.00225497
0.240282
-0.0023113
-0.239459
0.00246579
0.239506
-0.00251309
-0.238387
0.00264351
0.238426
-0.00268213
-0.236233
0.00276063
0.236232
-0.00275898
-0.224285
0.00274931
0.224391
-0.00285596
-0.229294
0.0028744
0.229273
-0.00285413
-0.226252
0.00279321
0.22623
-0.00277071
-0.223603
0.00269384
0.223574
-0.0026649
-0.221475
0.00256759
0.221439
-0.00253148
-0.219831
0.00241126
0.219787
-0.00236695
0.00222004
-0.218628
0.218573
-0.00216507
-0.435474
0.00393097
0.435216
-0.00367316
-0.434444
0.00339594
0.434145
-0.00309744
-0.00417306
0.865733
0.00268425
0.00277335
-0.0028188
0.864656
-0.00142064
0.86401
0.863652
-0.00131382
0.968359
-0.00260841
0.968363
-0.00386366
0.968134
-0.00256059
0.967751
-0.00249557
-0.48307
0.483369
-0.00285971
-0.482551
0.0031397
0.482815
-0.00340337
-0.481864
0.00365218
0.482096
-0.00195606
-0.00192835
-0.240442
0.00206998
0.240492
-0.00212071
-0.239641
0.00225997
0.239684
-0.00230265
-0.238535
0.0024198
0.238569
-0.00245402
-0.236223
0.00251977
0.236219
-0.00251592
-0.224697
0.00251972
0.224795
-0.00261734
-0.229212
0.00262249
0.229191
-0.00260179
-0.226164
0.00254158
0.226142
-0.00252001
-0.22349
0.00244783
0.223463
-0.00242106
-0.221336
0.00233198
0.221303
-0.00229919
-0.219661
0.00219059
0.219621
-0.00215069
0.00201855
-0.218421
0.218372
-0.00196914
-0.434971
0.00358185
0.434738
-0.00334889
-0.433869
0.00309796
0.433599
-0.00282736
-0.00382088
0.864561
0.00245893
0.00253377
-0.00258274
0.863418
-0.0013024
0.86273
0.86235
-0.00122793
0.969587
-0.00243616
0.969571
-0.00360508
0.969303
-0.00238268
0.968858
-0.00232934
-0.483635
0.48391
-0.00265797
-0.483067
0.00291573
0.483309
-0.00315785
-0.482318
0.00338563
0.48253
-0.00181012
-0.0017875
-0.240637
0.00191346
0.240683
-0.00195963
-0.239806
0.00208657
0.239845
-0.0021255
-0.238666
0.00223182
0.238697
-0.00226242
-0.236205
0.00231799
0.2362
-0.00231277
-0.225075
0.00232788
0.225165
-0.00241735
-0.229129
0.00241256
0.229108
-0.00239161
-0.226079
0.00233213
0.226058
-0.00231137
-0.223386
0.0022431
0.223361
-0.00221811
-0.221209
0.00213577
0.221179
-0.00210568
-0.219507
0.00200651
0.219471
-0.00197019
0.00185008
-0.218234
0.218189
-0.00180523
-0.434516
0.00328987
0.434303
-0.00307741
-0.433347
0.00284823
0.4331
-0.00260085
-0.00352679
0.863483
0.0022721
0.00233294
-0.00238536
0.862277
-0.00120348
0.861548
0.861146
-0.00115721
0.970744
-0.00229457
0.970709
-0.00339261
0.970401
-0.00223592
0.969895
-0.00219366
-0.484158
0.484413
-0.00249159
-0.483541
0.00273108
0.483766
-0.00295556
-0.482733
0.00316619
0.482929
-0.00169001
-0.00167181
-0.240816
0.00178472
0.240859
-0.00182726
-0.239957
0.00194441
0.239993
-0.00198034
-0.238784
0.00207793
0.238812
-0.00210559
-0.236183
0.00215314
0.236177
-0.00214717
-0.225422
0.00217173
0.225504
-0.00225393
-0.229045
0.0022418
0.229023
-0.00222071
-0.225997
0.0021619
0.225976
-0.00214181
-0.223288
0.00207674
0.223265
-0.0020532
-0.221092
0.00197625
0.221064
-0.00194831
-0.219366
0.00185665
0.219333
-0.00182319
0.00171271
-0.218064
0.218023
-0.00167155
-0.4341
0.00305186
0.433904
-0.00285598
-0.432869
0.00264447
0.43264
-0.00241599
-0.00328771
0.862481
0.00212108
0.00216906
-0.00222482
0.861214
-0.0011229
0.860446
0.860023
-0.00110225
0.971846
-0.00218417
0.97179
-0.00322758
0.971444
-0.00212062
0.970878
-0.00208982
-0.484646
0.484885
-0.00235946
-0.483983
0.00258422
0.484193
-0.00279457
-0.483117
0.00299153
0.4833
-0.00159446
-0.00157975
-0.240981
0.00168227
0.241021
-0.00172197
-0.240097
0.00183149
0.24013
-0.00186507
-0.238891
0.00195575
0.238916
-0.00198107
-0.236159
0.00202242
0.236152
-0.00201618
-0.225741
0.00204851
0.225817
-0.00212429
-0.22896
0.0021069
0.228939
-0.00208577
-0.225917
0.00202752
0.225897
-0.00200796
-0.223196
0.00194542
0.223173
-0.001923
-0.220983
0.00185027
0.220957
-0.00182401
-0.219236
0.00173821
0.219205
-0.00170697
0.00160403
-0.217906
0.217868
-0.00156578
-0.433715
0.00286371
0.433532
-0.00268095
-0.432425
0.00248346
0.432212
-0.0022701
-0.00310252
0.861537
0.00200563
0.00204087
-0.00210011
0.860211
-0.00106047
0.859406
0.858963
-0.00106044
0.972906
-0.00210157
0.972832
-0.00310271
0.972445
-0.00203272
0.97182
-0.00201208
-0.485107
0.485335
-0.0022609
-0.484397
0.00247423
0.484596
-0.00267363
-0.483477
0.00286009
0.48365
-0.00152174
-0.00151115
-0.241137
0.0016041
0.241174
-0.00164165
-0.240228
0.00174536
0.24026
-0.00177715
-0.238989
0.00186249
0.239013
-0.00188598
-0.236134
0.0019227
0.236128
-0.00191656
-0.226035
0.00195536
0.226106
-0.00202548
-0.228876
0.00200442
0.228855
-0.00198331
-0.225839
0.00192549
0.22582
-0.00190632
-0.223107
0.00184569
0.223086
-0.00182413
-0.22088
0.00175457
0.220855
-0.00172958
-0.219114
0.0016482
0.219084
-0.00161865
0.00152144
-0.217759
0.217723
-0.00148543
-0.433355
0.00272248
0.433182
-0.00254972
-0.432009
0.00236302
0.431808
-0.00216132
-0.00296312
0.860637
0.00191961
0.00194361
-0.00200697
0.859255
-0.00101311
0.858412
0.85795
-0.00103883
0.973945
-0.00205546
0.973848
-0.00303736
0.973427
-0.00198577
0.97275
-0.00198184
-0.48555
0.48576
-0.00219541
-0.484792
0.00240007
0.484983
-0.00259165
-0.483819
0.0027707
0.483985
-0.00147119
-0.00146534
-0.241284
0.00154932
0.24132
-0.00158527
-0.240353
0.00168473
0.240384
-0.0017152
-0.239081
0.00179664
0.239103
-0.00181879
-0.23611
0.00185236
0.236104