/*--------------------------------*- C++ -*----------------------------------*\
| =========                 |                                                 |
| \\      /  F ield         | OpenFOAM: The Open Source CFD Toolbox           |
|  \\    /   O peration     | Version:  v1912                                 |
|   \\  /    A nd           | Website:  www.openfoam.com                      |
|    \\/     M anipulation  |                                                 |
\*---------------------------------------------------------------------------*/
FoamFile
{
    version     2.0;
    format      ascii;
    class       volScalarField;
    location    "2.08";
    object      p;
}
// * * * * * * * * * * * * * * * * * * * * * * * * * * * * * * * * * * * * * //

dimensions      [0 2 -2 0 0 0 0];


internalField   nonuniform List<scalar> 
12556
(
750.4338627
750.0896313
749.0307209
746.4129092
742.0218502
732.1537973
714.9462973
686.1672221
641.3726875
574.6106944
480.2716417
355.5461224
203.655493
34.80744021
-136.1666475
-293.7373314
-427.6391561
-534.2173116
-614.604848
-672.1038585
-721.1454724
-743.7319206
-756.9337503
-763.1260153
750.6549658
750.5779093
750.0607665
748.4516787
744.2066445
736.120575
721.2838306
698.2395912
658.8131261
598.1764919
509.5675736
387.9288053
234.4692474
59.53096454
-120.7651953
-287.2688255
-427.1220321
-536.9440103
-626.9738988
-681.4079782
-729.7562342
-749.805345
-761.5718098
-767.0418319
751.1144195
751.6405202
752.3969905
752.8406508
750.7015694
746.5133443
737.3412193
718.6004429
687.4297607
635.5617747
549.6353924
415.9803972
244.0390899
49.18085548
-143.7770921
-321.1228523
-466.3991433
-572.9523736
-661.3868472
-707.8287942
-749.6727598
-764.3784726
-772.8918466
-776.7287387
751.3314502
752.7104458
755.3278064
758.6741312
759.6739824
761.2525141
760.4439215
750.5997938
733.5203969
693.1959094
608.3801159
460.0343116
237.8249649
-7.915928132
-227.2833301
-402.4761207
-541.6792036
-641.0424966
-716.0778687
-748.3349253
-779.0526446
-785.8869941
-789.5039784
-790.9602159
750.4704402
752.8192265
757.5455819
764.4793879
768.8074868
778.0592709
787.6858972
791.0911859
793.4652471
776.941499
711.161302
539.4594316
230.7879949
-130.5183832
-399.9563661
-569.1646288
-674.0656082
-740.6476824
-789.781383
-801.4270406
-813.4440428
-810.8128712
-808.3980305
-806.955862
747.5714385
750.8851135
757.6335232
768.0634012
777.2015021
793.9135414
815.2799108
833.8080755
865.5848839
899.8332059
902.5573907
763.5548968
264.7246551
-374.0960382
-710.082648
-830.8975919
-866.9153189
-875.5669244
-878.4637574
-861.1440736
-849.2533622
-835.7729211
-826.4602029
-821.8595543
741.7137622
745.8649831
754.3697171
767.8423483
781.6063148
805.3367189
837.186711
872.3382023
939.1025368
1043.835424
1195.392868
1342.146971
554.4243324
-983.2905982
-1213.459043
-1175.071299
-1104.376554
-1031.803604
-972.4907242
-919.9290481
-881.9477633
-856.591796
-840.4828453
-832.859307
732.1087631
736.8651745
746.6370112
762.2829301
780.1965219
809.0595292
848.5523387
897.7185564
992.1868363
1150.368435
1416.242365
1929.114167
-2622.395648
-1900.7722
-1544.124557
-1334.074536
-1179.22495
-1052.803132
-967.9808167
-903.7490996
-868.6215324
-847.1971367
-837.0661223
718.1628248
723.2133881
733.586796
750.262785
771.3130497
802.7696526
845.8597804
902.7768232
1008.040583
1171.16543
1392.439648
1632.791682
-4027.56474
-2402.948431
-1798.329357
-1488.465697
-1276.24829
-1099.534325
-993.3059386
-909.0657271
-868.1345944
-843.5777986
-831.9279325
699.5532222
704.5534658
714.7959095
731.2313221
754.1653534
785.5021727
827.9924762
886.3357998
986.9064437
1127.730408
1281.005555
1402.56377
-3763.639166
-2406.691449
-1824.518475
-1508.536701
-1292.52829
-1099.63822
-988.4009799
-894.6821594
-852.9672366
-827.9456515
-816.0204827
676.2743804
680.9013229
690.3248905
705.2546822
728.9419208
757.647534
796.0394868
850.8154692
938.8331954
1052.717828
1165.816954
1257.710866
-2843.718272
-2043.042451
-1647.82604
-1409.514418
-1228.255739
-1051.279778
-952.1771044
-860.613818
-822.9313305
-800.0719986
-789.0925317
648.6171367
652.5926635
660.6901913
672.8710935
696.7490112
720.5108625
752.2283909
799.8658456
871.1060551
959.5472094
1050.086831
1148.374318
-1873.748522
-1537.141568
-1353.212514
-1219.395373
-1100.642925
-964.8983349
-889.7252635
-809.7298457
-779.8538491
-761.1691584
-752.0898097
617.152407
620.2815127
626.7747424
636.0216385
657.3986023
675.7833051
699.1208822
737.6779324
789.2368623
850.4745909
916.0936664
1016.542823
-778.0633906
-976.3775084
-1041.662275
-1028.346213
-994.537574
-942.4856843
-857.2865999
-809.8941955
-747.2895672
-727.082867
-713.5583871
-706.9283677
582.5909317
584.7856767
589.4966232
595.9409043
613.9358295
626.4738398
640.9268406
668.8700306
699.0523486
728.2422107
750.8010102
810.4726847
230.9262207
-417.0514898
-648.4824329
-741.2330996
-779.7950854
-781.0988094
-744.4069668
-721.9623299
-679.8789858
-668.4311699
-660.0967643
-656.0651333
545.7581092
546.9392874
549.5677731
552.938305
567.6164833
573.5696677
579.3132975
594.5015765
602.6615221
599.0183607
570.6641222
484.0205292
191.9256643
-179.64466
-400.0808848
-525.4879383
-601.0856948
-638.2051433
-636.3670064
-635.0153875
-610.8838954
-607.0738407
-603.6272914
-602.0269246
507.5068043
507.7273764
508.3060833
508.7262618
520.0632321
520.1753973
518.210081
521.7840413
512.6317432
487.9192437
431.243042
317.6868006
143.273747
-79.83676514
-253.7831932
-378.8210268
-466.0636067
-520.5971651
-540.5608959
-553.6343024
-543.5639552
-545.9410225
-546.6282971
-547.0728535
468.6913
468.0845453
466.8836056
464.7472955
472.9003239
468.0975616
459.9592449
455.0564211
434.4732805
398.2394775
336.3444771
244.7596441
118.4813162
-32.60802191
-167.9892556
-279.8995444
-367.0413333
-426.9625942
-458.1859071
-480.0072846
-480.3409497
-487.2330521
-491.1588178
-493.053074
430.0956489
428.8142985
426.1638381
421.9699151
427.2631409
418.6809585
405.9411276
395.3479301
368.5178073
328.6689828
270.6955572
195.0501121
99.90836562
-11.90924758
-120.2379057
-216.5841017
-294.5563982
-352.3993884
-388.5745623
-415.0598572
-422.4672637
-432.3357379
-438.457914
-441.335562
392.3598961
390.5565175
386.7838376
381.0410987
384.0002274
372.7492021
356.9850796
342.785027
313.1141454
272.9458008
220.5127419
156.2891327
82.32107165
-7.033534209
-95.0405984
-174.6082577
-241.2320417
-294.0851676
-330.9968543
-358.8173139
-370.3454571
-381.8887344
-389.3109462
-392.8345818
355.9791125
353.8052984
349.2335953
342.4283437
343.5936141
330.6749662
313.203442
297.1363723
266.8575324
228.0348301
180.4861495
124.881524
63.11421951
-8.414751418
-79.09599884
-144.2346309
-200.8263653
-247.7386493
-283.1798289
-310.3941712
-323.970342
-336.1637539
-344.1890444
-348.0079616
321.3143711
318.9121361
313.8431457
306.4048469
306.2842111
292.5180137
274.2829135
257.7059416
228.2211507
191.9393355
149.3892631
100.6187627
49.11549708
-9.45640785
-67.25447422
-121.2361609
-169.3129483
-210.4371611
-243.1145243
-268.7406911
-282.9641415
-295.0828228
-303.1973562
-307.0693355
288.604547
286.0952389
280.7904389
273.0753955
272.1081552
258.1281456
239.9366043
223.6386342
195.7792414
162.5558008
124.8269792
82.62652936
38.7261662
-9.95112572
-57.94113197
-103.1349294
-144.0701707
-179.8754666
-209.3293964
-232.8407309
-246.7936963
-258.3732764
-266.2315341
-269.9886127
257.9765578
255.4570811
250.1291583
242.4305124
240.9345888
227.2331944
209.657406
194.1287653
168.3402692
138.333631
105.0551133
68.61921944
30.93300077
-10.0194994
-50.29991735
-88.43161959
-123.3724799
-154.4270255
-180.5925853
-201.7837462
-214.9077008
-225.6739705
-233.0592149
-236.5942864
229.4636398
227.0083037
221.8186782
214.3601594
212.5975213
199.5143831
182.9444291
168.4559094
144.9422053
118.1192244
88.86827755
57.46550862
24.97124653
-9.769173439
-43.83088302
-76.17998919
-106.0596559
-132.9237767
-155.9333884
-174.7911793
-186.7788897
-196.5887752
-203.3760182
-206.6268356
203.0281625
200.6921069
195.7575521
188.6987304
186.8726112
174.6341984
159.3366788
146.0122588
124.8263055
101.0489436
75.42275872
48.39248083
20.32158975
-9.291520318
-38.22747308
-65.76205933
-91.33564718
-114.5211002
-134.5941661
-151.2111108
-161.9173188
-170.71625
-176.8454271
-179.7815719
178.5816999
176.4041439
171.805891
165.2546639
163.5174175
152.2629656
138.3454155
126.2898991
107.3899034
86.46700637
64.10711621
40.8508763
16.63099676
-8.658754492
-33.29135585
-56.75712662
-78.63569559
-98.59231628
-115.9777282
-130.498625
-139.8799037
-147.6699955
-153.1252656
-155.7380662
155.9978172
154.005071
149.7968526
143.8216036
142.2901414
132.0964048
119.6001259
108.8516382
92.15088673
73.87508567
54.46881792
34.47581322
13.65205268
-7.926074156
-28.88842997
-48.86949993
-67.5495597
-84.66535333
-99.61215473
-112.2018167
-120.2710622
-127.0878896
-131.8811379
-134.1756618
135.1231329
133.3314271
129.5460146
124.1859999
122.9475631
113.8470292
102.7741864
93.32343001
78.71578627
62.88523696
46.15932175
29.00717363
11.21138588
-7.133898776
-24.92195671
-41.88153657
-57.76762393
-72.37293904
-85.11322852
-95.93755377
-102.7391393
-108.6357754
-112.7946639
-114.7838437
115.7879377
114.206134
110.8608935
106.1341522
105.2561998
97.25160999
87.60340138
79.38994113
66.76429783
53.19159507
38.90623708
24.27358803
9.185098409
-6.31113447
-21.3190026
-35.62815054
-49.05071768
-61.4245985
-72.16644844
-81.381829
-86.97243395
-92.00928515
-95.56913197
-97.26970512
97.81412192
96.4457602
93.54716243
89.45695278
88.9918402
82.06625713
73.81615934
66.79087138
56.03241303
44.54810776
32.4965168
20.14053819
7.482026089
-5.478228174
-18.02132761
-29.97838246
-41.20633208
-51.58133564
-60.50917787
-68.25594308
-72.69417491
-76.93200468
-79.930489
-81.3605111
81.01285706
79.8590242
77.40728412
73.94444832
73.95008974
68.06802367
61.17116086
55.30360015
46.29981841
36.75389854
26.76273421
16.48588735
6.02964812
-4.65006121
-14.98104281
-24.82587199
-34.07639148
-42.63345076
-49.92057196
-56.31782581
-59.65208998
-63.14987069
-65.62324106
-66.79968275
65.21984725
64.27758779
62.26929397
59.42158343
59.92112234
55.0506073
49.39595555
44.74117864
37.37684093
29.63799325
21.5589996
13.19999441
4.766021667
-3.837873685
-12.15771063
-20.08267623
-27.53331661
-34.42452651
-40.19109955
-45.35013465
-47.63738254
-50.44481354
-52.42629183
-53.36610432
50.17027247
49.44541293
47.88346127
45.6282222
46.75781536
42.82483684
38.35021579
34.89591378
29.0905135
23.04990922
16.76064752
10.20149447
3.638947962
-3.049279418
-9.514920296
-15.67168821
-21.46738712
-26.85368248
-31.13010673
-35.15710135
-36.38912277
-38.5629129
-40.0770481
-40.78785836
35.98228906
35.45101459
34.32505982
32.70620957
34.04082812
31.20967294
27.89345304
25.60620606
21.29046067
16.85891687
12.26205902
7.414582087
2.606439276
-2.288258975
-7.018799644
-11.52223544
-15.77038462
-19.73693634
-22.62090251
-25.53960211
-25.95272448
-27.48528853
-28.55745417
-29.06605361
21.40047746
21.149588
20.48091106
19.50581417
21.88223402
20.05393676
17.85344892
16.72488643
13.8447488
10.94559063
7.963245142
4.766283512
1.633570474
-1.555469405
-4.636782861
-7.568736398
-10.34324823
-12.95691188
-14.5133625
-16.42334363
-15.46626611
-16.38577227
-17.01807289
-17.26443131
10.91636092
10.65633262
10.29463375
9.710261604
9.990984745
9.057808329
8.007649725
8.118495196
6.644360743
5.194131961
3.75022616
2.172266135
0.6981776056
-0.8470232168
-2.336352261
-3.750967376
-5.096085163
-6.385530521
-6.584237062
-7.453666298
-7.550034597
-7.999002226
-8.292495704
-8.505371417
1675.481067
-4303.906382
-2772.030631
1424.559661
-4097.040817
-4366.081864
1272.764827
-3090.839438
-3994.974414
1162.391515
-2038.123535
-2955.043615
1026.962001
-832.5787132
-870.9347014
-1089.264055
-1912.466978
837.9352296
319.012932
-785.865624
182.5336433
-428.5434216
-982.7128796
1903.210671
762.6234629
-2426.890848
-798.3257866
-5633.713196
-3486.850896
-3961.984405
-2560.230815
-2039.090482
1310.237512
1412.51078
1605.637054
-5805.826063
-6089.944535
-3849.322366
-2693.254722
-2656.503199
1194.248393
1262.635656
1391.037441
1341.520179
1370.201353
1449.142882
-4288.915296
-5086.145643
-2967.045761
-2319.724983
-2634.457505
1079.887696
1148.634552
1247.272353
1216.064054
1252.032135
1293.153895
-2843.423638
-3455.769573
952.5741528
1019.378529
1134.24954
1096.033526
1155.405878
1204.334751
-1613.787446
-1565.621091
-2109.728625
793.6486255
832.7281901
1000.286062
943.7816968
1013.750879
1083.674419
551.098426
300.7131983
330.6730552
2078.179496
1709.680863
2627.923955
2156.560884
-6096.984643
-5695.383512
-3891.592099
-5449.996277
-5938.328671
1459.279225
1531.751941
1499.006619
1533.231058
1462.567825
1678.977262
1545.492802
-5133.75029
-5774.403883
-4268.35798
-5646.312006
-5045.205786
-5934.091704
-5675.733389
-4297.414468
1300.264864
1359.687752
1322.947704
1365.333584
1301.649627
1457.257195
1371.152188
-3546.428973
-4231.774968
-3494.822818
-4130.005465
-3476.391746
-4998.48156
-4232.773464
-3626.68621
1207.828936
1249.800883
1202.787179
1252.944719
1211.905186
1297.898379
1254.917865
-2189.290089
-2759.116797
1088.311782
1151.942711
1087.373383
-1571.361775
1157.147241
1093.191156
1208.305039
1160.656208
-1611.697075
-1009.973192
-1489.575827
-1565.269575
1028.340746
1009.360407
931.0621477
-56.22112615
1015.494166
917.7791729
1088.594725
1018.667488
-131.9560552
1413.503726
1642.041823
1822.627561
1865.719421
2121.778484
2487.401627
-6929.156712
-4251.91213
1527.758572
1544.676658
1683.54202
-3393.287289
-1991.463489
-1745.628502
-2185.197149
-2006.314944
-1948.324509
-2233.893996
-186.5197682
-497.1044125
-870.9396708
1714.210553
2054.184648
1819.652867
1768.830647
3496.209124
2878.213919
-3330.345998
-5303.552742
-3668.861134
-2280.622473
-2588.652613
-2424.268563
-2716.69249
-2163.720973
-3389.195378
-2798.284486
-2555.51646
-1176.211372
-325.2017661
-474.9610782
1235.836974
1937.944874
2607.810731
-3032.476306
-843.0786745
963.9407191
-7054.049294
-5022.641694
-6835.928508
-4073.706928
-6666.139821
-4697.224669
-5947.225081
-5968.830324
-4667.288548
-4721.333185
-3005.390473
-3326.717831
-3100.460017
-3305.152029
-2978.545908
-3710.628207
-3353.957111
-3187.977747
1178.200169
1150.340326
1128.283335
-1598.289418
-1861.155357
-1931.187329
1047.529522
1012.661703
981.0278472
1050.998312
1022.543744
1051.631306
2064.899946
1799.572533
1882.57888
1812.85364
2091.805312
1647.228084
1784.346391
1830.987903
2498.026226
2828.669962
3340.643901
2151.861845
2728.098267
2414.385463
2757.986808
2135.387962
-6024.606322
-6005.274943
1499.0322
1535.977879
1494.197478
1607.751387
1574.541265
1638.713687
1537.85681
1568.492636
1589.568718
-5436.60891
-5476.169412
-5379.753909
-4801.747572
-4946.069878
-4552.727583
-4744.995659
-5340.648383
-5842.806387
-5082.290528
-5077.786321
-4984.38788
-5067.462819
-5822.416588
1332.295897
1327.723499
1418.11766
1411.760325
-3828.359074
-3749.137534
-3878.430207
1234.649697
1231.612684
1274.596278
1271.768277
-2929.744613
-2612.369388
-2511.277555
-2632.308999
-2951.667681
1115.082663
1086.655524
1060.009899
1120.45724
1095.459902
1120.577796
-1225.075444
1124.560336
1118.592056
1184.787387
1182.161622
-1939.3231
-1225.553888
-1251.104078
-1511.360267
969.2400193
932.5643367
932.4324232
950.3288614
466.8997933
166.3460414
1057.491206
-314.2265758
121.996781
-229.8486292
1054.103108
-383.7957339
-262.1091753
89.2295189
-5225.514049
-2148.970089
-2297.70094
613.3593417
576.0297361
798.6370876
689.4713738
706.6977767
961.3501387
204.8559862
-132.6192923
-316.6527775
4447.999219
-2331.815509
-2493.074625
-917.7277847
-1165.891081
-1178.053665
-148.6864161
-392.6531779
-114.60085
1979.495808
2669.268155
3477.288539
-3668.756322
-906.0450867
1216.214398
-5876.622473
-6588.094722
-6497.196922
-6049.530849
-4449.672113
-4640.102957
-4447.641723
-5347.3944
-5186.166368
-4936.192675
1269.683908
1252.616262
1234.190045
1279.821363
1259.101372
1272.829934
1177.887442
1157.336438
1181.107254
1027.661458
1012.165209
995.9544998
861.6693068
620.8444745
359.8173685
-6081.249973
-6575.446473
-6623.98639
-5832.940992
-4860.653677
-4560.029172
-5057.477496
-4928.943392
-5846.407542
-5270.311432
-5545.848519
-5402.041611
-5658.777941
1323.037248
1310.684682
1287.169519
1307.330335
1316.508757
1312.078528
-4387.540734
-4214.375724
-4077.158761
-3838.610021
-3598.314473
-3844.100163
-4650.63288
-4253.272642
-4481.673953
-3926.778174
-4173.186141
-4598.7866
1228.274326
1203.841418
1184.571969
1228.224104
1210.092872
1231.274533
1246.433716
1259.601621
1262.443679
1223.875533
1239.267918
1221.809788
1287.475502
1291.992593
1303.763522
1263.017763
1266.798323
1261.27775
-2430.200946
-2568.851074
-2273.74582
-1421.3063
-1422.90788
1145.500862
1096.560738
1197.151173
1204.607965
1220.857667
1188.387283
1169.863069
-1744.719338
818.4204069
921.0862214
884.4448151
990.1431627
969.7287354
989.1616466
132.9277016
373.8750665
137.5422264
998.1873032
433.5315169
683.1327877
502.7596075
598.3789986
1070.500539
1034.221302
-6272.206463
-5064.092846
-5919.690059
-3526.566226
-3586.308326
-1968.13934
-2103.430538
-2118.178807
1710.350651
1691.489365
3344.514559
3786.697063
4144.838623
3595.048574
3241.827225
-2661.742449
-2499.090334
-2453.812681
-2504.296985
-2680.343351
-1188.597552
-1016.90141
-1027.18163
-1020.710746
-1191.73352
-804.9603638
-972.8907939
-573.0256295
-595.3128384
-756.2003977
-386.732457
-542.6982814
-474.8547428
-7133.923724
-6232.633394
-5773.479462
-6587.365735
-6345.100317
-5588.259703
-4887.283425
-5856.739633
-6313.514362
-6229.784045
-5892.72913
-6031.610498
-6459.447138
-6349.024219
-4879.960614
-4701.464141
-4504.789985
-4757.839201
-4947.019235
-4505.4041
-4700.646581
-5002.435278
-4883.462959
-5132.982946
-4938.347894
-3142.610659
-3200.942997
-3169.974516
-3087.095338
-3221.679812
-3561.555603
-3456.397995
-3600.26346
-3266.781933
-3408.874747
-3508.631719
-1806.320985
-1781.930184
-1919.886216
1031.83075
1017.478636
1029.276361
1062.113563
1050.11504
1036.977595
1927.492898
1892.019232
1908.638141
1948.894416
1850.770199
2117.594007
1986.557784
1947.135815
1699.87786
1731.390839
1679.899127
1822.656923
1751.501138
1719.638488
2361.813535
2339.258569
2169.206139
2448.368864
2355.128332
-6604.540326
-6577.668729
-6070.901963
-6729.458248
-6797.107965
-6699.706478
-6727.90604
-6658.387489
-6826.826705
-6734.484363
-5907.315094
-6519.696489
-6612.972827
1514.397985
1516.320391
1505.097417
1536.271694
1521.256604
1521.041557
1490.429411
1480.550831
1502.804471
1493.413851
1597.11439
1618.813992
1591.83473
1665.908411
1629.307238
1605.299799
1552.519616
1558.189566
1541.208936
1584.129204
1564.368098
1558.850016
-5718.610289
-5591.149481
-5313.723862
-5610.985644
-5901.684722
-5753.186544
1349.699568
1337.027591
1370.612004
1353.13991
1317.553793
1309.501613
1331.977137
1320.031579
1450.957434
1430.355952
1476.208137
1457.735105
1395.48969
1375.581193
1423.437875
1402.652881
-3839.35909
-3993.759641
-3649.192352
-3792.6041
-3888.51233
-4263.092341
-4440.321777
-4044.478797
-4209.24315
1244.217222
1256.622176
1243.788548
1261.954166
1246.58337
1265.245549
1265.520263
1243.95204
1223.902057
1239.398655
1241.116316
1280.86419
1288.228071
1283.838032
1291.095715
1283.386459
1305.844
1294.057424
1267.52885
1264.973811
1277.497742
1269.205706
1263.668348
1268.692032
1277.229198
-2689.446641
-2770.752061
-2835.704341
-2677.472091
-2883.671688
-2813.876304
-1202.458889
-1377.125572
-1407.193192
-1202.148723
1141.533658
1102.962314
1193.689827
1200.615595
1193.658781
1173.385287
1192.427197
1192.929168
-1824.407615
978.3782933
961.8383518
941.4499704
628.6450939
533.1850353
989.727798
250.1075503
408.2814933
301.1968674
1064.216604
-467.4336707
-32.39228121
193.4639703
-78.05138045
1028.635523
-2338.581034
-1816.169197
-1201.789465
-2285.085528
-2337.543058
-1107.829472
-1166.453325
-1595.843794
-2346.974444
-979.6088545
-970.4180807
-809.6716625
-2086.4666
-1588.187404
-1544.201474
2431.176682
3402.287685
4287.716666
-4029.938624
-945.6592291
1559.5222
-1531.870224
-1143.262129
-2951.916368
-5355.962315
-6052.928479
-6313.219184
1404.198889
1386.265905
1355.870211
1428.363191
1396.710939
1415.804506
-1597.943124
-1735.380475
-1747.988739
-2187.194614
-1928.948261
-1872.675212
1068.64647
1055.24131
1067.533413
-6383.309721
-6495.686994
-5875.803582
1346.191643
1319.100174
1331.471007
1350.428968
1353.181273
1369.711272
1375.03411
1393.844468
1387.842372
1095.864366
1085.329624
1073.438192
-1584.700434
-1539.435175
-1528.044492
1097.832374
1103.561077
1096.889762
-1678.950204
-1691.081184
-1598.279711
-1420.848354
-1410.856016
-1550.926752
1011.264218
1084.106451
1090.429989
1093.622013
1020.074206
-6829.803829
-3429.306691
-1987.526982
-2052.973216
-2059.96207
-2279.569005
-2138.71963
-2103.0227
1742.939289
-4423.45893
-3900.460793
-4664.103157
-2410.592013
-2465.804363
-2322.181424
-807.2999575
-822.5400903
-647.8101168
-652.8973855
-750.3463292
-1841.857886
-1275.871833
-3587.811785
-6993.098362
-6635.420297
-6482.156559
-7056.475098
-7031.996919
-3050.9641
-3081.975872
-3034.382116
-3343.277063
-3334.508909
-3306.937578
-2906.245277
-3039.805665
-3117.325768
-3674.198092
-3623.834122
-3672.728606
-1923.018733
-1900.417772
-1933.0353
2009.253441
2066.812589
1829.939815
1842.725201
1858.071696
1827.935491
1657.393938
1673.537027
1659.876355
1799.868727
1774.444612
1759.027902
2599.924266
2405.575971
2447.123564
2646.80686
2640.918843
2787.177405
2122.680778
2181.186665
2200.088376
1505.560939
1505.190349
1508.661148
1535.520683
1531.403871
1532.342077
1494.789509
1493.220991
1508.02406
1504.10364
1582.957443
1588.455677
1580.684992
1647.909463
1636.077838
1628.146943
1540.083527
1542.541127
1538.824112
1574.064266
1569.197179
1565.659422
1335.931178
1348.88176
1345.318382
1316.042708
1319.573184
1331.365607
1427.318334
1446.993433
1435.427822
1443.278588
1435.812919
1490.402353
1483.976157
1381.68612
1428.418643
1421.093896
1394.18218
1400.596381
1420.659108
-4005.926559
-4066.556302
-3720.857986
-3776.721661
-3802.534714
-4124.736665
-4147.218843
-4024.03295
-4160.781238
-4002.393015
1103.213738
1090.027467
1100.186503
1136.003677
1121.328467
1108.277557
1128.2582
1135.755511
1130.813911
1113.131695
1116.403015
1121.730028
-1937.101758
935.2475578
941.1326352
933.0450145
695.5298461
945.0863096
343.4310834
476.7253983
601.0482686
1063.222956
1063.286051
1059.477732
-377.9198126
-222.5603439
-199.1239272
-214.0817269
1048.73001
1055.155039
1060.634859
-111.7244261
-188.6114905
-334.6266476
-2184.860483
-2226.944756
-2322.519587
-2276.484661
-2254.687807
4443.220939
4806.952442
4237.261064
-2384.67989
-2409.853498
-2334.391851
-2511.115012
-2459.064276
-2446.291715
-2199.807491
-1388.532361
-3895.492291
-6126.339691
-6129.52384
-6065.92677
-6101.830272
-6556.262572
-6400.723885
-6425.840011
-6350.055748
-6376.353452
-6527.992618
-5297.32275
-5216.698023
-5267.699095
-5107.030095
-5164.496596
-5245.077555
-6625.881565
-6446.426128
-6423.042612
-6448.513285
-6457.852355
-6644.160891
-5495.714807
-5412.196008
-5458.813508
-5318.175352
-5365.470765
-5450.505729
-6004.227828
-6034.779117
-5909.753971
-5960.215978
1261.094155
1256.587691
1254.620865
1227.336104
1224.086396
1220.219439
1232.096533
1228.644299
1232.949631
-1543.251848
-1594.403498
-1415.552183
-1491.676669
1157.76671
1156.841848
1163.986753
1159.440715
1098.471606
1097.052905
1103.859717
1094.37347
1209.977644
1207.555199
1202.937233
1216.674867
1212.453923
1216.073606
1172.624188
1170.663522
1181.397313
1166.45074
1173.051548
-1752.391344
-1743.490461
-1732.447586
-1599.75777
932.5886245
980.0711971
1117.2633
997.4297957
989.4195271
981.1054487
1006.06818
375.4496569
358.6658946
1092.269345
969.0617538
732.8258265
1071.799485
1083.000437
1078.116756
1026.936581
-6569.235677
-6880.625438
-6586.673672
-5845.990718
-5579.622394
-4771.964134
-6338.903015
-6027.476597
-3472.694531
-3614.255975
-2114.205035
-2101.677153
-2111.610259
1725.385816
1667.783882
3957.106737
3791.239478
3652.374535
3079.071025
2936.036844
3472.404319
3252.81766
3371.544266
-2577.82996
-2517.069806
-2626.828092
-1037.311854
-1034.023103
-1022.434684
-1135.451125
-843.3672058
-824.5632672
-810.1331439
-963.606858
-907.063107
-904.6181435
-578.1082101
-633.1126388
-631.2574282
-454.2989695
-459.4603037
-506.9103823
-6877.615605
-6761.05024
-7065.464935
-6510.272253
-6787.191846
-6849.990917
-7018.224044
-6986.661568
-6276.416409
-6169.909877
-6196.709367
-6138.214698
-6148.509431
-6244.727346
-6418.679046
-6287.393595
-6320.124815
-6226.036681
-6255.80232
-6383.010071
-4823.515584
-4749.882519
-4806.086431
-4818.60756
-4886.38817
-4560.276226
-4587.600409
-4549.962612
-4642.404103
-5063.310148
-5106.61438
-5066.282949
-4982.463717
-5045.775985
-4863.724762
-4923.328484
-5002.605157
-3179.713622
-3101.314871
-3088.615489
-3114.738624
-3049.253117
-3102.387464
-3260.548404
-3287.574882
-3229.681882
-3523.468547
-3568.392427
-3596.454405
1966.023159
1859.643064
1711.092215
1690.304381
1674.26687
1738.274736
1752.008277
1731.390517
2427.281979
2521.08638
2546.929201
2801.426867
2676.235962
2271.996564
2252.582447
2337.853264
-6593.368058
-6404.334023
-6401.501915
-6407.386189
-6405.763696
-6587.449323
-6759.524961
-6770.749758
-6722.288862
-6963.093248
-6925.559287
-6938.262299
-6968.288473
-6705.390142
-6823.039027
-6927.551165
-6941.742268
-6766.327702
1515.473699
1511.524511
1510.219487
1527.276424
1526.461523
1521.034347
1497.284049
1495.959993
1500.795676
1498.801787
1604.277324
1596.232999
1590.38526
1616.051113
1624.289978
1613.481627
1553.981236
1547.774093
1545.257338
1563.065879
1564.842633
1559.859117
-5680.516181
-5590.063599
-5628.367302
-5502.821143
-5546.828374
-5634.418787
-5848.70322
-5766.470725
-5845.985005
-5665.182609
-5708.052943
-5796.218566
1346.078535
1347.306329
1349.977128
1338.124004
1343.371684
1341.837446
1363.905101
1361.841258
1370.701994
1351.865946
1355.138315
1357.659912
1315.21898
1316.861625
1318.337482
1312.026692
1314.839852
1312.591058
1327.261299
1326.976025
1332.267077
1319.893698
1322.678089
1323.215284
1458.42055
1450.90248
1444.170285
1447.743335
1454.827751
1433.310806
1440.52534
1437.285152
1474.677998
1465.968908
1399.698753
1393.280976
1388.420131
1390.843756
1397.571026
1376.425575
1377.161169
1380.107098
1416.525795
1419.018608
1426.146247
1404.907755
1411.951009
1409.610678
1413.97267
1406.925088
-3923.926283
-3958.33433
-3862.836343
-3831.068459
-3865.068906
-4315.458345
-4348.004112
-4300.921301
-4479.652884
-4406.868952
-4373.76776
-4091.667552
-4126.741606
-4090.693959
-4251.266527
-4200.889143
-4150.932255
1247.751749
1244.582585
1241.079732
1251.876123
1248.356319
1252.234073
1255.890861
1250.284249
1265.757534
1265.970616
1242.808458
1234.518138
1230.193726
1230.679632
1231.842118
1237.685164
1234.956412
1239.60982
1280.320905
1283.923038
1293.600495
1285.244039
1301.823348
1303.645266
1308.085716
1296.343126
1299.795406
1297.977697
1266.096932
1265.205304
1273.193214
1270.897358
-2784.218022
-2766.023014
-2822.660741
-2666.4
-2714.247653
-2747.984106
-2950.469439
-2992.597349
-2866.458042
-2879.462802
-2890.851339
-1344.460743
-1346.632818
-1400.939234
-1215.167276
-1276.41693
-1285.444487
1140.449802
1131.059437
1154.859692
1149.451754
1107.481859
1111.17195
1107.700892
1113.675516
1110.126919
1123.79873
1118.508259
1195.356424
1193.575515
1191.481005
1199.158879
1196.110292
1197.647302
1193.374019
1187.329219
1184.779068
1189.869237
1188.637446
1193.106306
-1881.204643
970.7837484
959.594422
966.4462673
584.633746
603.8266076
668.6532693
541.3470593
549.1760846
530.271431
980.1950457
347.1032056
293.8792134
225.9511262
1061.037599
1062.465841
1064.045815
-444.9367906
59.95271982
0.06316046351
174.9106137
161.624643
175.1320742
-19.57398148
-153.2840169
-134.4738577
-32.42156929
1039.343238
1050.533356
1043.909788
712.2590165
688.7022082
671.0065448
678.4567005
640.029434
616.4472705
623.745163
563.3300618
535.5933819
537.8255175
445.5280798
422.3521597
408.6480274
285.3278456
275.4752656
241.0011102
104.4175127
103.1377961
55.98288788
-86.97564377
-77.68935852
-134.1532772
-268.1084425
-248.4156932
-310.0013106
-420.7760658
-394.9226649
-453.4643484
-536.8998246
-511.7203377
741.6527828
727.2628045
696.9046645
720.5683503
691.0770096
651.1087782
676.9521254
617.6132109
575.3499442
591.0731146
488.3920927
454.2145685
445.5945245
295.3406618
288.7275656
240.2997572
68.72389639
98.38519357
11.64995206
-149.5382627
-96.4185541
-199.130037
-334.2822388
-278.7803585
-375.1018649
-485.8958538
-433.7302361
-518.3765049
-599.3949299
-549.4430634
780.4172086
779.1086441
739.1859034
777.0912222
762.0475669
706.581047
752.6963478
704.2774321
634.992263
679.0004223
564.0789288
504.8783339
512.1821959
311.5960213
297.5529534
230.9695386
-14.82562451
52.7354342
-92.11094004
-291.8824787
-176.5664626
-346.6756568
-480.4262058
-362.5061883
-517.5675681
-610.2380599
-509.6706185
-635.3014334
-696.6811525
-620.5227259
823.2404915
840.8088922
793.8546453
846.7655527
862.8919983
784.1564274
866.1267193
856.3854573
734.8796734
843.8993582
746.834962
595.8988052
685.3512926
380.8431713
321.9171569
247.2983975
-173.7260996
-45.26628474
-294.6079907
-557.3672736
-343.8156947
-616.4168261
-734.2142027
-533.2139105
-757.6014054
-803.6222882
-652.4892845
-813.6089948
-834.3336526
-727.0659706
863.5329927
904.7871348
856.9914527
921.8582595
983.9318787
891.953411
1008.498868
1090.546575
908.3484294
1118.365517
1168.020083
823.6157321
1150.309424
680.7219448
426.5175259
510.9319057
-562.9279618
-236.5573672
-759.934093
-1037.510016
-651.6570846
-1067.190086
-1085.962921
-812.8245501
-1081.465201
-1054.925447
-861.8249652
-1043.355627
-1005.518473
-874.8564867
893.1877174
955.4013793
919.1667165
982.2090854
1086.399667
1013.519695
1130.910452
1306.537866
1153.334382
1383.866252
1800.110654
1319.454465
1596.762437
1694.88733
1234.20031
738.4265774
-554.9138349
-136.7264541
-1368.711514
-1372.386686
-1107.036161
-1724.892551
-1511.609712
-1189.789871
-1456.276828
-1319.386575
-1122.913994
-1280.524548
-1176.569934
-1049.7181
903.5727766
976.3927484
963.7146134
1007.45569
1125.226034