/*--------------------------------*- C++ -*----------------------------------*\
| =========                 |                                                 |
| \\      /  F ield         | OpenFOAM: The Open Source CFD Toolbox           |
|  \\    /   O peration     | Version:  v1912                                 |
|   \\  /    A nd           | Website:  www.openfoam.com                      |
|    \\/     M anipulation  |                                                 |
\*---------------------------------------------------------------------------*/
FoamFile
{
    version     2.0;
    format      ascii;
    class       volScalarField;
    location    "1.99";
    object      omega;
}
// * * * * * * * * * * * * * * * * * * * * * * * * * * * * * * * * * * * * * //

dimensions      [0 0 -1 0 0 0 0];


internalField   nonuniform List<scalar> 
12556
(
31.93107082
31.9319535
31.93292897
31.93374331
31.96671736
31.96742413
31.96812742
31.96956531
31.97241899
31.97714012
31.98363918
31.99040342
31.99501833
31.99386294
31.98842868
31.98176444
31.9760114
31.97146507
31.9694965
31.9678259
31.9340586
31.93285957
31.93180937
31.93084285
31.79493494
31.79754309
31.80007283
31.80230023
31.83612535
31.83871273
31.84276099
31.86461998
31.87787488
31.90013484
31.93114265
31.96298265
31.98468151
31.98208964
31.95854434
31.92775387
31.89917707
31.87863666
31.85022583
31.84180731
31.80457316
31.80080962
31.79751243
31.79458895
31.66064954
31.66519079
31.66974114
31.67334435
31.70772151
31.7133381
31.72306476
31.75358669
31.78573363
31.83794594
31.90779907
31.97802693
32.02036386
32.01509237
31.96460874
31.89741796
31.83380511
31.78637461
31.7393059
31.7209208
31.67816777
31.67166988
31.66598069
31.66115473
31.52776769
31.53380836
31.53967695
31.54496131
31.58150617
31.59238177
31.61294832
31.66129435
31.72794204
31.8340465
31.97817873
32.13014132
32.22358005
32.19715049
32.07605928
31.94090857
31.81360154
31.72158299
31.64419059
31.60922612
31.55662469
31.54576963
31.53704925
31.53001461
31.3972416
31.40492926
31.41280681
31.42043063
31.45936356
31.47834464
31.51780788
31.59488602
31.72235614
31.94076811
32.26465457
32.66631359
32.9282533
32.84124788
32.48834375
32.15489421
31.87683517
31.70064091
31.57336327
31.50957576
31.4399088
31.42295729
31.41060161
31.40116683
31.26757077
31.27669433
31.2862813
31.2972021
31.34217145
31.37419368
31.44354415
31.56155471
31.79275965
32.23458511
33.0478227
34.50011723
35.73392195
35.12602463
33.70957041
32.74015655
32.09907933
31.74068786
31.52916343
31.42474909
31.32994684
31.30273084
31.28543504
31.27310024
31.14087272
31.15176507
31.16410122
31.17956801
31.23090159
31.28090029
31.38983705
31.568845
31.96690234
32.81781758
34.91320101
41.82393429
48.9632546
45.55113895
37.06751082
34.02480053
32.56732558
31.87647389
31.5153047
31.35649115
31.22587729
31.18538387
31.16169635
31.14612693
31.01563123
31.02823754
31.04342533
31.06488558
31.12752453
31.20007712
31.35583766
31.61869161
32.23585606
33.67594895
38.06099434
60.31651445
78.53189786
44.77484765
36.33438985
33.3403843
32.11769136
31.53315519
31.30192674
31.12886121
31.07117748
31.03939446
31.01994812
30.89533246
30.91030866
30.92992366
30.96031062
31.03173491
31.13211402
31.34071685
31.70557547
32.56062445
34.5721997
40.8033165
74.35533533
152.4393231
55.97077323
39.49346753
34.36886243
32.44313753
31.58269876
31.25913511
31.03864785
30.96144221
30.92001431
30.89641235
30.7787955
30.79599646
30.81990502
30.85966378
30.94450684
31.0759891
31.343799
31.81575115
32.8878244
35.31881168
42.46418896
81.27038469
190.8815623
65.69584392
42.67481913
35.44145846
32.79459197
31.65058962
31.22598942
30.9558688
30.85744402
30.80526392
30.77675005
30.66979723
30.69004693
30.71990075
30.77178373
30.86658609
31.03049598
31.35895949
31.93836894
33.19483154
35.92821271
43.74432305
91.66397871
190.6589753
71.2562132
45.01159211
36.33148406
33.11960613
31.72007827
31.19984203
30.88013228
30.76082687
30.69731681
30.6637724
30.56616456
30.58885768
30.62378174
30.68711089
30.79703168
30.99379097
31.38603533
32.06526131
33.48081651
36.4640228
45.05312936
103.3980753
176.1312409
73.09480321
46.26861735
36.91977106
33.36754055
31.77611777
31.17626347
30.81141877
30.67136914
30.59704927
30.55794538
30.47085318
30.49686313
30.53897629
30.6154815
30.73432891
30.96274233
31.41414988
32.19173814
33.73763485
36.95596253
46.66258859
113.3069609
829.5152041
151.0659814
72.45544171
46.59473189
37.15327554
33.51364456
31.80796345
31.14960394
30.74669674
30.58901005
30.50380973
30.45973594
30.37982931
30.40879861
30.45750446
30.54536593
30.68413584
30.95298542
31.48070401
32.34749327
34.03647574
37.56838719
49.02819996
160.4024405
513.5788928
141.0819794
70.78257038
46.14702438
37.11641754
33.57207419
31.81261119
31.11673486
30.68207567
30.51109169
30.41626779
30.36717962
30.29508307
30.32708898
30.38192083
30.48000702
30.63179937
30.93250792
31.52446622
32.50766319
34.39066654
38.26562728
51.46048135
430.3679393
367.3320373
130.7063421
67.49395611
45.22058874
36.8902528
33.55630682
31.78925632
31.07413607
30.61743879
30.43552933
30.33193424
30.27889402
30.21133216
30.24622971
30.30682837
30.41538411
30.58099238
30.91063448
31.56476946
32.70361171
34.93982198
39.57395001
57.34565719
751.7654869
306.2833448
117.0334334
63.00409124
43.89687351
36.56385898
33.47218213
31.7372033
31.01984073
30.54775256
30.35793228
30.24797311
30.1911266
30.1312283
30.16907595
30.23470887
30.35193598
30.52945992
30.88528691
31.59611857
32.88869371
35.70292302
42.20051163
76.5871224
983.7281226
226.9544742
99.72582888
57.8425876
42.48128879
36.26323186
33.35223642
31.66264559
30.95443402
30.4738684
30.2788831
30.16316063
30.10363737
30.04838125
30.0889361
30.15931362
30.2854765
30.47557438
30.85502925
31.6188637
33.01000309
36.45146108
46.64248721
158.6948324
768.3034463
171.475034
84.66519227
53.66864409
41.48978194
35.99249738
33.20794957
31.56882477
30.87472832
30.39074543
30.19250027
30.0737928
30.01175778
29.96737466
30.01060894
30.08519639
30.21838245
30.41832153
30.81947614
31.63341746
33.11838783
36.90535987
51.80931156
284.4789849
497.4656073
142.0309523
76.33830448
51.67150498
40.92463001
35.71429848
33.04645686
31.46130759
30.78396747
30.30122436
30.10189215
29.98120632
29.9177826
29.88081495
29.92632823
30.00509623
30.14620856
30.35738655
30.7789328
31.64113127
33.22035487
37.37728847
56.67510684
326.9447514
384.3241554
131.5169237
73.78900201
50.58174692
40.40853179
35.43955126
32.87562658
31.34369877
30.68355704
30.20305017
30.00338067
29.88176698
29.81771324
29.79602534
29.84362386
29.92611083
30.07326293
30.29260878
30.73403096
31.64374688
33.31997952
37.90754273
62.65783001
352.8800362
320.2644791
124.3683218
71.70079314
49.67307209
39.93990758
35.1734008
32.70049191
31.21853789
30.5749514
30.09983589
29.90160651
29.78004885
29.71591711
29.70389083
29.75307137
29.83933365
29.99404724
30.22427427
30.68567206
31.64335901
33.42132197
38.54844765
68.55053732
367.2796966
276.0690439
118.3691485
69.86898664
48.9184906
39.51976935
34.9182876
32.52415906
31.08766198
30.45962288
29.98893306
29.79202062
29.6710634
29.60740076
29.61522769
29.66575315
29.75521028
29.91522229
30.15259134
30.63470938
31.64158098
33.52996383
39.40066037
73.8788948
372.070225
244.5756689
113.2363743
68.23999232
48.27273569
39.14671449
34.67557854
32.3485348
30.95264715
30.33895947
29.87579886
29.68183238
29.56210115
29.49918119
29.51773621
29.56919528
29.662018
29.82944836
30.07822454
30.58210802
31.64100047
33.65546011
40.5010471
78.74333656
368.322789
221.7025143
108.7712207
66.77674841
47.69789908
38.81293229
34.44522028
32.17472498
30.81488992
30.21433552
29.75608839
29.56399947
29.44556591
29.38367186
29.42682297
29.47906984
29.57459725
29.74655872
30.00152182
30.52852323
31.64234777
33.81001234
41.74928164
83.18570987
358.0098615
204.3336646
104.8330206
65.44822419
47.16851203
38.50669677
34.22563972
32.00346231
30.67567966
30.08697591
29.63750224
29.44906999
29.33235832
29.27156761
29.32488923
29.37766763
29.47624945
29.65566793
29.92323152
30.47419861
31.64730449
34.00242461
43.02710905
87.17302087
345.0721669
190.5187813
101.3029475
64.2190712
46.66587099
38.21752333
34.01504335
31.83550476
30.53624146
29.95808288
29.51237046
29.3254679
29.21019518
29.15062581
29.23393245
29.28718392
29.3880643
29.57113478
29.84333582
30.41903718
31.6558084
34.23382234
44.27324838
90.70457826
331.0641409
178.9824628
98.06715754
63.0528324
46.17697565
37.9395864
33.81302311
31.67204621
30.39783066
29.82862259
29.39226623
29.20920764
29.09572145
29.03732735
29.12811915
29.18167877
29.28530581
29.47585545
29.76241529
30.36271165
31.66822475
34.49796314
45.46380329
93.81668497
316.6993192
168.9718764
95.04050382
61.92560911
45.69667633
37.67197541
33.62079469
31.51468659
30.26168549
29.69960222
29.26377161
29.08119175
28.96893471
28.91172476
29.03926525
29.09310917
29.19861085
29.3916373
29.67990806
30.3049155
31.68562234
34.78645783
46.59514327
96.55686287
302.4147503
160.0998521
92.18604449
60.83164709
45.22768359
37.41740235
33.44066858
31.3651899
30.12892948
29.571665
29.14565061
28.96680651
28.8560925
28.79992512
28.92915305
28.98313594
29.09095697
29.29126049
29.59648717
30.24572292
31.70933234
35.09240492
47.67088953
98.93390697
288.7968039
152.1469509
89.49088652
59.77551113
44.77673967
37.17989081
33.2749106
31.2249167
30.00034838
29.44559875
29.01431442
28.83446277
28.72458601
28.66942462
28.84441848
28.89852509
29.00775702
29.20926896
29.51135391
30.18596588
31.7415339
35.41153576
48.69769892
101.0129808
276.1587448
144.9724711
86.94382404
58.76213765
44.34940768
36.96207239
33.12450829
31.0943328
29.87628361
29.32153395
28.9018776
28.72552353
28.61676344
28.56240943
28.72842698
28.78250756
28.89352788
29.10186965
29.42589826
30.1269094
31.78475303
35.74216865
49.67575962
102.7837866
264.0691013
138.4293469
84.51407517
57.7878708
43.94662549
36.76403476
32.98888996
30.97296461
29.75666884
29.20000887
28.76612653
28.58738107
28.47910672
28.42555548
28.65010429
28.70415445
28.81614419
29.02494548
29.33895144
30.0698966
31.84254188
36.0914837
50.64841244
104.5111487
252.3506064
132.2192004
82.152227
56.84840445
43.56999885
36.58595379
32.86701006
30.85982002
29.64123567
29.08063687
28.66423181
28.48840987
28.38075732
28.32776235
28.52557174
28.57945882
28.69274965
28.90723833
29.25281366
30.01568717
31.91651163
36.47289877
51.71176151
106.7447964
240.7917668
126.1649054
79.87117013
55.96917397
43.23286542
36.43156832
32.7584288
30.75387127
29.52981207
28.96428546
28.51913656
28.34075214
28.23341109
28.18106156
28.45658582
28.51033655
28.62417881
28.83994206
29.16568951
29.9635126
31.99887245
36.87368845
52.85048445
109.3199382
229.1946978
120.5778225
77.81687362
55.2150344
42.95814314
36.3059147
32.66265008
30.65401545
29.42276212
28.85082286
28.43565474
28.25780483
28.15057657
28.09852396
28.29563751
28.34908185
28.46415622
28.68572627
29.08190225
29.91182698
32.07085755
37.23359268
53.80631672
110.7469883
218.2329368
116.1494935
76.20020368
54.64722938
42.75929357
36.20938217
32.5781517
30.5593054
29.32192932
28.74364064
28.25008684
28.06939668
27.96218823
27.91069876
73.57013678
180.6915381
89.08398353
80.28215692
230.9569455
187.6687429
90.29773276
226.9359471
232.6423683
102.0244704
204.1942292
224.1115486
112.216452
1017.478203
865.9803844
183.5845777
201.040747
140.2570214
633.5771205
996.2832426
536.2273902
179.0564958
181.5942233
57.28576116
48.49870318
81.26365032
45.17404061
569.1114883
191.4201018
144.0444908
61.58480749
49.3340945
42.12615152
68.58419224
64.26903384
1957.041833
1384.014556
188.6937221
76.00660938
65.63807271
43.47239981
75.11226248
69.24327201
84.72890111
242.1476245
218.5909222
1079.318657
1507.423028
191.9876864
83.94905132
78.61570427
44.79865868
84.01517174
76.14255172
95.80870243
343.9325613
277.2521943
595.9058504
798.6675988
46.34838104
95.02682047
85.09745758
105.422879
516.2310541
417.0320655
2409.13782
384.5978848
446.7964477
48.68432663
116.0548684
96.64905261
121.772027
1091.350864
728.4992945
158.2751111
479.2610312
624.1870959
184.3579987
216.1771446
113.5014796
178.0569827
1347.203942
601.1643581
141.2203014
480.7593737
937.8853277
215.7028117
196.3305211
77.39314745
256.3943154
269.7542669
222.2818653
253.3516039
1526.136496
1958.313526
212.0700705
1351.422804
1162.255105
969.7160451
1347.896028
209.2699165
273.9896253
246.0301308
86.06306775
313.4055905
356.8778961
271.8978602
310.1235589
836.273657
1055.013847
232.1959723
794.3007666
620.8568965
1149.206765
824.4911506
233.3141967
412.8066161
347.265729
97.22890592
422.3180734
521.6609466
359.7298853
418.3771306
460.2210684
573.1929568
718.029365
525.6102457
105.7446841
3386.52423
707.6261012
1060.534154
526.6822286
691.8621835
3798.287564
353.0100417
378.1179933
2115.482915
8544.510239
1100.190366
123.1513096
726.8088867
1703.506484
7620.396374
1068.97566
1675.73767
746.6230256
40.25551868
63.53559656
53.32811287
68.08514563
145.6650634
98.37192982
3456.974366
611.5053269
76.82193263
194.105613
171.7378942
6135.538048
178.4084028
86.34743405
84.96221504
6033.622146
862.2719446
958.6569262
656.4850991
312.6770848
340.9156369
168.7744776
149.384435
69.82778084
1429.041774
265.8638642
617.3676824
159.4776802
424.8968182
130.2351369
978.8899187
1256.008186
212.5945198
473.2140694
403.2489762
599.8739858
486.3838393
215.8038512
1444.330817
4675.733255
879.5916548
81.30543742
64.34759281
103.0039197
166.8619939
76.81592519
82.86700168
4829.182121
397.6688937
3403.576876
450.7905207
2489.51476
357.8423047
1588.491222
1567.303261
1253.816543
1283.782379
2430.555874
5207.146247
672.1167901
2945.480424
1585.863242
5861.700094
3452.091814
701.7886035
452.7613288
180.7755617
188.5615693
724.9556087
822.0309372
5461.153086
783.8390351
232.9936758
246.3307848
216.9604769
227.9578623
780.8884637
1286.906118
1430.333688
198.2518237
918.2345624
752.4061111
1378.403237
918.7876466
202.2356587
146.5562625
453.9017838
215.3461444
668.2217657
486.0583287
157.0758766
646.4540877
948.5132792
944.0305866
893.5848825
257.0531834
1500.705477
257.4685562
237.3209383
1454.451895
1397.877021
1495.371613
1460.955712
241.3750658
1626.347223
1644.236362
1239.627747
414.7022059
404.2677159
416.5387966
416.3245787
1229.899081
1144.709339
368.3015393
337.1046272
398.964357
377.4881958
1165.469754
333.3040161
336.1244841
288.0888495
290.4423808
889.3606665
6064.344526
906.2502453
452.1711096
458.8754941
388.4833007
392.4976911
1496.456851
1088.83564
516.892807
1332.856238
2247.298953
576.8742678
203.2346373
213.1901583
191.3613948
200.1418915
568.3707178
1595.696598
751.8350412
764.1535682
562.9864505
567.5163847
6196.222321
1200.026213
620.7214627
695.4509437
252.0844371
262.9353972
1345.618902
2711.098619
2024.704537
3072.43323
1103.469428
6771.442704
3329.660203
5849.410345
1099.580628
836.2489714
4291.243291
2497.172809
4228.339633
2275.198333
3077.318378
50.69887096
120.9718088
118.7937292
174.6211021
4224.744575
7902.016698
384.1932323
164.2892322
175.4787198
1261.025299
3493.839499
4717.147352
541.1885033
596.8223086
1125.259764
286.5867075
303.4805974
638.7688481
160.5066389
116.4688696
244.3502194
480.5354641
147.7497752
174.2564902
1841.582175
4630.233173
4794.554315
1477.013539
1156.000979
3287.180878
2376.972692
5554.942881
5448.556899
1435.777133
317.395536
149.6041865
154.5426008
143.5153804
148.0320903
311.5758471
171.6744526
178.4767045
448.1955633
1008.663982
414.8611504
433.2816542
6487.553092
3457.523063
579.2990122
1168.705608
4220.359182
4626.019768
646.9825085
270.1100336
226.1350307
324.4204655
285.1371347
677.6247425
1572.187759
5489.345005
5564.749333
1858.31081
261.2647556
137.9260035
142.0896
711.8063754
698.862714
347.6710217
2242.430972
2052.705224
990.9475328
714.4461971
371.0458872
386.0731904
1020.570807
407.6954724
415.211912
391.3278972
403.81917
1000.476142
376.01238
163.5544053
169.5844708
156.2582834
161.6508199
371.6554795
434.1715826
1015.115705
1005.8232
1588.859968
1543.63138
501.0349284
370.7880303
748.1100891
713.9628404
1001.801329
995.3821055
407.1218006
500.0290807
1048.062688
848.2939959
6243.830802
2431.84524
730.3285987
900.0126023
541.7333714
1620.680776
1595.957415
1625.845153
609.9614829
5310.583125
8676.302431
329.4744029
372.5149124
440.1328583
456.5782082
1107.489262
2290.997435
1395.734698
672.5276031
1720.038519
8326.327385
2089.32857
1904.693518
15878.73047
1078.831062
1596.283393
2111.359286
2565.132345
1912.763909
6095.506605
6181.932978
1524.989978
2013.509079
6236.676947
1478.492963
1414.785237
416.144747
1551.102699
613.8632721
1534.216015
454.8899127
4713.349126
3370.81065
1106.621047
5409.045837
6228.61371
4892.078362
3625.493359
1210.27427
5033.884564
6122.084321
3584.638473
4804.212909
6495.329918
2407.435682
3240.790858
1682.207839
2162.303064
5842.24004
4956.993332
1407.418203
858.1774817
2306.661554
1551.532117
771.3934295
482.230955
1411.131192
4966.233371
6320.793869
1750.117507
1498.249622
4846.77017
4976.868697
3621.860432
3401.703068
1184.667549
5775.935772
5675.138734
4233.539242
5614.384633
5634.551951
1396.130647
5581.74343
3724.074906
3561.651375
3999.355299
2189.768168
1015.156462
1098.287299
4522.878037
1286.596453
1459.976825
1132.054008
1235.26839
4251.124646
4119.032979
1177.353421
1399.00792
388.237712
408.5100244
919.7879865
754.117545
368.7056797
383.1884975
1391.327809
1403.001307
908.8832017
338.0779935
359.75295
311.3990801
331.6779822
901.9539256
966.021203
404.1933935
438.7616567
367.5515411
394.2515571
973.0042171
603.5904311
284.6056902
305.3974585
865.7297687
898.4483951
3002.85461
3128.319854
1107.760534
4481.198525
4549.446978
5757.485439
3081.078654
2562.492838
4407.488557
3042.594942
748.590473
2141.321738
2866.904069
1537.868258
542.7917183
607.0680987
518.1933877
531.9920775
1503.687471
655.9648867
666.2227781
628.0560191
652.2306978
1435.832824
468.3864686
481.2885086
447.2051254
463.8329481
1427.718017
1480.816402
501.8225816
513.6465116
485.4920045
497.7888933
1478.359268
5348.186887
5433.533115
1586.742787
1781.98943
5627.591517
5322.429812
968.4270447
972.74313
943.6138052
967.0629726
984.4056258
996.386083
974.3894738
981.9436497
682.3870822
692.4196566
669.4309932
678.9758667
732.254047
901.3835475
697.3220305
709.6940716
1920.222005
2258.535766
1522.693586
1783.78081
6306.409442
3607.476566
3975.311207
2419.853241
3485.783025
1027.958658
1020.768044
438.4627635
1619.402316
1623.768725
1588.175139
1610.366102
1667.893713
490.1958964
1508.422902
1080.282413
966.4587443
768.5230148
374.8951999
1043.711704
1495.723066
997.0453465
1053.583529
1553.92357
1576.733546
1514.946283
1544.358953
403.4646794
993.4462286
984.3104051
6295.734084
1590.812433
6214.845095
5378.819304
6193.593015
1708.109782
6455.081187
2158.087329
6188.358034
5412.641962
736.9381336
816.5266917
1653.258277
1625.721272
546.4485149
594.2251513
1716.361756
1655.850078
6135.610748
1147.157484
468.257839
510.3186422
6267.420209
7079.211449
1792.528305
7675.085418
5654.187942
2569.253137
1080.362967
6756.955067
4098.72887
7463.267058
4518.816866
1539.834072
72.46487345
45.82101179
38.31029766
6203.616503
6177.974548
166.2452805
85.47772353
86.32682644
6438.497544
1150.630376
3307.670836
2451.194367
393.1943968
327.7311527
193.2883374
396.7133581
265.9905717
634.2373287
2295.651532
382.9183215
428.1456183
58.98679817
70.40201599
144.3676038
496.0721616
998.0768181
1478.92107
231.2524052
127.7923222
131.496088
122.6793802
126.5473822
227.9385089
1005.815866
1122.650535
3639.582034
809.816504
711.8655509
418.1150288
351.282012
364.3804808
749.1588008
1609.292634
2059.159455
703.6259526
132.7305431
136.6010105
257.4728465
322.1113495
666.5132484
641.469058
620.0430711
555.2380442
300.7411922
641.1358889
333.3883183
346.9411427
4940.444671
4657.460688
3058.537404
1632.964985
1611.670084
1038.654788
4288.984747
6088.067791
5518.07541
1561.429678
886.8377082
980.7333046
1706.485818
1073.869552
1665.797183
1653.162727
1675.392541
3714.34017
5944.960001
4101.197035
4504.779433
5971.914496
1842.763066
1473.708745
873.7266221
1447.497065
210.6505317
165.8743433
303.2463594
1068.936424
2919.328033
2045.353708
6272.255725
6601.860523
6740.790661
5625.355295
6437.463537
107.8324419
140.1887875
374.9766273
3919.710526
2559.978997
1971.816803
5197.795489
3993.219658
2676.104433
4671.805407
4279.861078
6458.706311
6132.655197
4600.636121
920.8346869
992.1767016
2007.671702
6015.510065
3404.413585
3764.22936
4830.396925
3123.707099
3576.261823
1334.567239
1748.480258
1422.087653
914.3938773
633.8519553
641.4914862
1343.311427
850.5073718
891.7994822
646.5692844
656.329963
930.2865151
252.4636717
278.4048722
576.7984607
725.1392143
1272.154106
938.8470489
1416.305997
1467.227086
954.7770275
1828.154644
1348.548607
1398.104102
958.4123611
959.9505957
1504.030528
1490.318362
1501.920532
1428.177741
1447.562639
1446.672822
923.2809355
926.2581848
908.2356015
912.9102276
1409.609574
1490.828789
949.9827966
952.9995514
929.5466415
932.9189745
1466.960476
681.0002974
670.4479739
324.9507718
344.8409496
695.324033
684.4044932
525.8380758
514.5843044
280.947877
1530.721717
1532.479139
1505.885211
1509.644707
1868.596956
1538.551006
1539.270107
298.0392399
544.3145489
530.4088617
6010.687405
5948.024633
3947.011738
4166.210994
6022.890076
5998.673496
6206.390549
970.9577768
1975.649285
1644.620851
317.5811962
329.1162085
614.0499707
551.4030911
305.0992182
314.3447884
1066.886419
1066.920443
748.8126977
766.469367
1074.056182
1078.290279
6154.514963
1421.206678
938.6816317
926.4177059
12010.87813
2220.047741
2388.901748
5129.488878
4338.659432
1730.723917
1710.488716
1089.798783
6546.772075
7113.389236
6807.235015
5415.199551
1155.305191
1773.947416
1720.414569
3349.658744
1275.622094
1530.166273
6086.518526
6006.144428
4805.419313
4499.469686
2779.535459
1474.615407
2141.381852
1709.613465
3979.069004
6150.128988
5339.905726
6228.497263
5977.880874
4430.917693
242.3968135
349.3442195
1211.31964
4774.405855
4678.473301
4864.536457
4852.684901
4720.300173
3048.484872
3027.090406
3065.825798
3051.038177
4716.285973
5592.618677
3123.953746
3148.72273
2993.141029
3082.734916
5684.208154
4397.527692
2772.068727
2494.482267
3006.422769
2928.482595
4504.370129
5470.422321
3210.85354
3234.302417
3177.15701
3190.407612
5518.715264
4969.172098
4883.54725
5069.814603
4840.117108
1013.553443
716.6090105
719.9627541
1575.482426
1018.618805
1022.119767
993.4382903
1012.752641
1564.747135
5982.165109
6181.646214
5497.079368
6053.07471
1633.633892
1646.586537
1606.594273
1620.697487
2063.416212
987.0324929
1568.925257
1509.586448
1611.293118
1027.03449
1030.16692
1023.536426
1025.673402
1605.060432
1546.721195
1586.359671
1098.649097
1488.69682
2039.411202
6406.174105
6038.113408
4774.990671
6220.055148
837.6947993
1164.66241
12966.75401
1109.557047
772.808434
775.6714197
1724.255956
7996.40082
8280.912358
9517.546754
6198.180496
5906.998541
1680.67598
1669.62992
1074.502675
1641.627964
3083.374495
4507.930826
3147.977881
4114.85688
3116.893442
1285.76167
4207.552663
3161.370718
6154.196786
6378.989497
6189.939331
4833.510916
5452.800673
1445.334294
1759.697575
1425.415849
707.5316725
917.3030856
1373.748627
1461.329525
945.2473327
1347.672866
1756.114067
6057.529444
6306.072942
5970.28683
5615.194759
6372.092726
6323.517363
6188.786912
3995.17559
5501.489821
5056.077612
6140.096675
6344.199462
4395.350279
4679.466271
5107.241951
6398.314673
5283.620672
3933.489931
4238.983188
3708.003202
2646.981104
3700.897471
1953.40654
2853.411769
3860.341124
4230.755984
3881.505438
5134.196191
3246.375038
3084.064809
4425.090536
3200.690482
4735.66185
4882.641066
3082.017607
3069.727578
3105.624853
3077.90122
4910.375999
3542.203479
2083.951765
2121.779795
5712.494775
5703.95812
4928.449652
6059.344827
5860.556656
5744.927455
5715.151327
5951.418435
4680.248331
2498.407791
2790.171531
2179.219947
2289.910083
4009.531351
6158.819467
5228.601053
3076.702604
6474.171497
6200.577295
6181.134641
4197.866234
6154.698563
5954.293001
2571.663864
2912.913517
5217.954522
1371.157376
1417.775562
703.443502
778.262248
1298.138101
928.1942857
660.2133907
683.5146426
1380.304059
1348.749899
819.7616781
1413.573874
1751.181281
900.6431331
1421.339329
1410.515419
3001.161731
2033.812366
2002.598393
2237.165726
2163.758129
3171.55383
4766.631962
4457.531053
2880.511375
4313.27907
4532.108317
4035.956833
4263.673675
2831.49618
4305.526285
4216.941416
5506.119723
4029.886434
1012.99911
1005.06961
1465.524062
1510.726282
969.6084586
965.9619984
1474.997189
1484.556552
1458.064052
1467.79861
919.1716069
921.5239491
1444.076679
1418.983236
915.1049239
917.0331072
942.5754295
945.6408413
1484.727322
1473.75681
936.5599649
939.6520163
5401.012997
3295.205301
3315.47343
3249.575768
3268.804861
5386.773866
5355.602925
3650.860973
4226.909759
3358.335379
3442.212334
5343.52882
969.9788992
1511.596698
1502.824807
1524.022045
1518.21202
971.2431416
959.9853721
1472.443871
1456.141908
1494.446454
1484.512143
964.8994818
988.7556962
1561.980938
1553.532932
1574.277198
1566.090899
990.8361775
976.4208593
1535.235424
1530.211522
1548.564448
1540.908125
978.5957838
1522.526482
1525.481101
685.6013197
967.7436299
965.8438272
972.5921661
971.0637812
689.4362112
1514.755217
1518.134189
1577.330057
1499.647086
752.1733771
1022.047339
1031.363418
1423.60947
1373.8746
826.3614506
699.3890445
978.0054931
977.3807371
983.8449998
987.6016615
708.4054496
1547.967421
1541.26183
5938.786721
5806.350318
6109.117517
4450.15409
5143.058312
3743.441991
5862.686165
5932.093434
5847.647528
5860.3962
3813.32715
2707.583357
5078.741797
4360.186778
5752.515779
5894.395196
3145.030998
1032.045799
738.2188162
739.7666743
725.7765757
728.0633647
1021.158504
1619.742134
1632.013046
1593.187844
1607.957141
1578.825811
1987.752159
1448.857609
864.1386244
946.7160851
764.3378531
785.5698953
1069.921405
1408.078149
1922.694376
1535.79951
1461.996238
1007.56785
1586.118426
1574.706187
1619.003793
1579.079413
1003.763073
1560.534057
1570.75992
1526.179635
1536.524538
5982.291679
4113.533103
4345.232686
3183.960997
3700.296816
6084.56326
6185.315978
5989.906787
4709.810808
5271.195125
6493.390123
6014.423255
4676.190084
4916.520381
3841.785776
4272.314845
6190.333432
1675.754458
1676.787945
1660.195526
1663.394976
1116.933422
1128.165634
793.8888542
1733.590943
1641.626571
1693.134565
1684.40676
1640.090006
1038.093531
1045.063843
1031.819032
1036.563578
1636.749964
1672.616718
1056.919072
1109.970163
1046.398382
1059.745861
1675.748574
5953.002878
801.0989788
805.5668286
1149.450579
6124.909995
8840.889084
9154.281534
8823.508992
8753.082986
6729.479291
1742.741307
6717.422832
4942.354986
5317.765957
1087.857716
1702.53381
1687.888932
6712.599558
7331.13704
7095.822514
5852.538432
6357.66387
7772.057325
7401.849184
4884.074407
7006.742866
6097.488945
2095.849427
1691.516295
1144.588275
31.78000383
31.79851881
31.87337872
31.80610182
31.83758519
31.89290791
31.84914941
31.89156545
31.92193235
31.90647594
31.95342379
31.95452811
31.96593309
31.99799636
31.98059458
32.00092558
32.00334155
31.98527073
31.99792121
31.96918393
31.9663741
31.95775858
31.91338931
31.93658953
31.89970569
31.85841362
31.90644075
31.84689444
31.81510261
31.88342905
31.6823026
31.72146397
31.77627945
31.73838064
31.80224109
31.82363006
31.82798968
31.91513633
31.89009078
31.94633502
32.04274034
31.96153862
32.06329275
32.13131395
32.01489634
32.13606584
32.14202792
32.01839406
32.12243778
32.06262883
31.97845093
32.03675059
31.94479315
31.91442833
31.9167854
31.83727785
31.84778047
31.81236523
31.75136186
31.79567798
31.60922569
31.68395908
31.70817777
31.71836499
31.84568351
31.80430401
31.89885123
32.09017895
31.94009441
32.16124213
32.39742706
32.0865198
32.43750626
32.60568401
32.20132599
32.62159771
32.64787708
32.20095283
32.57676309
32.42613832
32.11045863
32.35755029
32.1343455
31.97557584
32.06700296
31.8955433
31.84210914
31.84777697
31.73208895
31.74088987
31.56660106
31.70252486
31.68318018
31.76530323
32.02290876
31.87572573
32.13700848
32.58961508
32.1746999
32.78030391
33.53796381
32.53301774
33.69815881
34.41498174
32.86712876
34.46065393
34.45209939
32.84816518
34.12621406
33.54437589
32.57676603
33.30933895
32.69138268
32.23740286
32.51982508
32.12416988
31.93669078
32.0212901
31.78527569
31.73678083
31.5631431
31.80078978
31.71950095
31.91343048
32.40618367
32.09736878
32.6416248
33.73647414
32.79699439
34.29985291
37.38029663
33.96991448
38.61617744
45.82654535
35.48682058
45.84310298
42.95983297
35.24433938
40.43265964
36.86715812
34.00417103
35.94350397
34.02370298
32.95130872
33.57696441
32.63986413
32.22917272
32.41829524
31.9439806
31.81300106
31.60207327
31.978504
31.83835694
32.16067339
33.00502215
32.53809735
33.44381268
35.78322792
34.17123122
37.22883859
51.14660432
38.81715152
46.72787612
54.05445522
43.97559258
68.82628629
66.2084312
48.92807266
52.42785242
45.63155601
42.45206626
42.38683895
36.68697562
34.57635707
35.60157639
33.54946331
32.84006123
33.11302022
32.23655917
32.00446117
31.68066244
32.21697187
32.03386334
32.47803264
33.70884566
33.18014493
34.36087223
37.96300119
36.37591429
38.87644957
41.75056784
40.65734976
63.2401391
72.76955774
68.66680722
106.9638627
74.11942944
61.15818864
53.13027268
40.71520716
37.6328418
38.59520384
34.83777273
33.85686163
34.09061858
32.65231457
32.33145702
31.78727269
32.47700585
32.28131719
32.80820111
34.34530246
33.87485379
35.14879135
39.46935008
38.39537236
41.30283277
44.97715228
44.33600427
75.2689137
89.89574163
88.48267751
172.6689272
104.4318882
93.5680105
63.63597733
45.01745955
41.87114929
41.83875343
36.2566506
35.21375994
35.17457153
33.12602312
32.76900043
31.90904117
32.73417134
32.54130709
33.12249602
34.88461199
34.48722023
35.78784905
40.55384905
39.75684641
42.82511958
46.94969577
46.47184686
82.33593771
109.9365223
106.5185234
193.9275449
120.7555575
116.4835588
70.26876876
48.35356475
46.04132708
44.4560648
37.47933617
36.62258152
36.12282389
33.56093989
33.23467684
32.03846434
32.97876553
32.79433378
33.41353662
35.3547035
35.00422953
36.33948317
41.53112157
40.78554422
44.11924523
48.7923298
48.22287949
93.03109876
126.8326023