/*--------------------------------*- C++ -*----------------------------------*\
| =========                 |                                                 |
| \\      /  F ield         | OpenFOAM: The Open Source CFD Toolbox           |
|  \\    /   O peration     | Version:  v1912                                 |
|   \\  /    A nd           | Website:  www.openfoam.com                      |
|    \\/     M anipulation  |                                                 |
\*---------------------------------------------------------------------------*/
FoamFile
{
    version     2.0;
    format      ascii;
    class       surfaceScalarField;
    location    "1.99";
    object      phi;
}
// * * * * * * * * * * * * * * * * * * * * * * * * * * * * * * * * * * * * * //

dimensions      [0 3 -1 0 0 0 0];
oriented        oriented;


internalField   nonuniform List<scalar> 
25162
(
0.0004539791383
0.9161960209
0.0005826624436
0.9165713167
0.0007162036742
0.9165164588
0.0003542421619
0.9165188749
0.0004930866605
0.4583357448
0.0003684973127
0.458291183
0.0004694456427
-0.0004606286589
-0.0005930114673
0.4582593176
0.0006836939158
-0.0007730575027
0.4582023815
0.000905676039
-0.001050071588
0.4581745409
0.00120553067
-0.001378869003
0.4581533244
0.001560544589
-0.001738621323
0.4581657143
0.001907907049
-0.002065102391
0.4582140298
0.002182572617
-0.002261208539
0.4583036317
0.002291076823
-0.002268720979
0.4584030646
0.00220065638
-0.002092829915
0.458472337
0.001950492894
-0.001796383205
0.4584988895
0.001632493723
-0.001457107417
0.4584945423
0.001297565094
-0.001142849108
0.458490545
0.0009673041416
-0.0008924036559
0.458457598
0.000784805682
-0.000644680025
0.4584643107
0.0005303693101
-0.001713481602
0.9186546374
0.0001866614553
-0.0004778172733
-0.001071959865
0.9187084783
1.830538983e-06
0.9157762096
0.9138018305
0.00125045888
0.914945562
0.002022741374
0.9157990342
0.002398834901
0.9161403652
0.0008099661218
0.9168394928
0.001268250827
0.4579779487
0.0009815481782
-0.4581495308
-0.4581116169
-0.00121712749
0.4578172496
0.001511494788
-0.4579336832
-0.001873874634
0.4575000374
0.001081580318
0.001225940158
-0.2288918358
-0.001308729907
0.2287795569
0.001421008852
-0.001890571492
-0.2288196156
0.2286725968
0.002037590255
-0.002610605144
-0.2287716713
0.2285893839
0.002792892489
-0.003409688104
-0.2287907314
0.2286010494
0.003599370093
-0.004119082367
-0.2288972838
0.2287670321
0.004249209837
-0.004236375355
-0.229091447
0.2289631341
0.00436489604
-0.004585036938
-0.2292815161
0.2293101373
0.004556415788
-0.004204075607
-0.2294023261
0.2295361483
0.0040702534
-0.003560198067
-0.2294576281
0.2296479768
0.003369849357
-0.002818557565
-0.2294492981
0.2296442453
0.002623610405
-0.002133283427
-0.2294016509
0.2295692935
0.001965640781
-0.4588834183
-0.002957009411
0.4603213292
0.001519098531
-0.0002102789692
0.4609413089
-0.001473642153
-0.4592573878
-0.001714662809
0.9181648369
0.0005044404707
0.00170002283
-0.001054170595
0.9180479861
0.0003219137598
0.9144001252
0.9141237443
0.001590965263
0.9133545967
0.004241375842
0.9131486236
0.00722128099
0.9131604601
0.003111209859
0.914343216
0.006606347907
-0.4578578853
0.4575840985
0.00338499673
-0.4575162875
-0.003489777801
0.4580161916
0.002989873684
-0.4569058952
-0.003252505206
0.4564588804
0.00178716531
0.001912354715
-0.2282307264
-0.002210231155
0.2279905649
0.002450392595
-0.2279447307
-0.003301974502
0.227619003
0.003627702233
-0.2277612371
-0.004330697818
0.2293873465
0.002692609231
-0.2315053516
0.00286052301
0.2328843751
-0.004292585912
-0.2310668446
0.007184540605
0.2315478331
-0.00770339907
-0.228311399
0.008041449551
0.2280675594
-0.007789619853
-0.2260521375
0.005957886687
0.2251462228
-0.005003854876
-0.2270430662
0.001004110016
0.2253926307
0.0006950360747
-0.2304874744
-0.006228574666
0.2304616047
0.006256800351
-0.2304696436
-0.005146430351
0.230835164
0.004780909931
-0.003488457118
-0.2303217988
0.2310066595
0.002803596413
-0.4629539047
0.0001500065452
0.4617922549
0.001011643258
-0.4600356387
-0.001150303639
0.4600227335
0.001163208784
3.415174491e-05
0.9198828972
-0.001024005604
-0.0007282064514
0.001524787931
0.9165573499
0.0007058283547
0.9152190848
0.9148295727
0.0005870183504
0.9127675784
0.00131164825
0.9124239937
0.002723152493
0.9117489559
0.003518633933
0.9110595825
0.002488152114
-0.456715418
0.4561603909
0.004073660986
-0.4593869695
-0.00543872043
0.4561473914
0.008678298523
-0.4576734472
-0.01017146651
0.4589437418
0.002763363051
0.006137808901
-0.2271021592
-0.002915639578
0.226801931
0.003215867827
-0.227355779
-0.003794691944
0.2290386279
0.002082351118
-0.2342815947
0.002204678402
0.2351632111
-0.003216710253
-0.2350689363
0.004796826557
0.2349914976
-0.004853939334
-0.2315879854
0.00400002502
0.231043993
-0.003524506135
-0.2272876483
0.002132344687
0.2270016973
-0.001823839038
-0.2237317424
0.001364498775
0.2237936079
-0.001319923063
-0.2224139538
0.0009642187009
0.2222376249
-0.0006375127618
-0.2254426474
-0.001371234905
0.2245254664
0.002404352302
-0.2345146017
-0.001779452347
0.2378863277
-0.001587292034
-0.003618176868
-0.2319131177
0.2319413547
0.003589939848
-0.461790316
-0.005369922547
0.4630033517
0.004156886869
-0.4607448931
-0.002950902793
0.4617250055
0.001970790364
0.002773747417
0.9198133545
-0.001439523988
-0.001264680688
0.001941029788
0.9173900675
0.0008914407543
0.9162686739
0.9157210134
0.0001620006074
0.9126055778
0.0004238935066
0.9121621008
0.0009422336794
0.9112306157
0.001601330605
0.9096597827
0.0007407028424
-0.4557595251
0.4548311426
0.002529713042
-0.4545099366
-0.00312681043
0.4536602382
0.003976508784
-0.4525299018
-0.005119489961
0.4514089806
0.003262146958
0.002978264227
-0.2271088702
-0.005320843973
0.225288303
0.007139538715
-0.2328315456
-0.007329663207
0.2352799695
0.004722184219
-0.235142254
-0.001288759302
0.2343251867
0.001877275009
-0.2320724586
-0.005490757203
0.230221148
0.007165379652
-0.2274509322
-0.01282982469
0.2255549958
0.01465382304
-0.2258898396
-0.01850718798
0.2254260323
0.01899814096
-0.2257800345
-0.01768382012
0.2272240521
0.01636732599
-0.2245336884
-0.01074940325
0.2263899425
0.009111720242
-0.2331318995
0.003237987168
0.2294847194
0.0006377303208
-0.2288809071
-0.003984149049
0.2286744082
0.004317399377
-0.005214810529
-0.2333523353
0.2339038939
0.004663251963
-0.4646559047
-0.006129789375
0.466226682
0.00455901212
-0.4626414549
-0.003443113911
0.4635778955
0.002506673369
0.003444626723
0.9216001939
-0.002966480362
-0.00226498576
0.00186300805
0.9189716862
0.0008372367262
0.9172944452
0.9165582501
-0.000194527449
0.9128001052
-0.0002444011561
0.9122119745
3.97362765e-05
0.9109464783
0.000406418976
0.9089689524
0.0003241476204
-0.4538328544
0.4533843119
0.0008549614173
-0.4529293775
-0.00198204676
0.45195083
0.00296059425
-0.4502232494
-0.003789123845
0.4488466246
0.002574938076
0.002590810641
-0.2260277244
-0.002754311959
0.2260189687
0.002679894262
-0.2301955275
-0.003929378413
0.2290213145
0.004846791742
-0.2307141612
-0.01121958741
0.2269042179
0.01475196698
-0.2235961601
-0.02359234518
0.2229018507
0.0241290924
-0.2180194361
-0.03318003122
0.2160957602
0.03506848656
-0.2235119492
-0.04263621113
0.2227009872
0.04345243919
-0.2351013567
-0.03733097231
0.2372114965
0.03529286984
-0.240464412
-0.0206721317
0.2403971503
0.02095771672
-0.2312475095
-0.01585597794
0.2338746485
0.01352257651
-0.2308133662
-0.00803715436
0.2323694514
0.006716595212
-0.004285145875
-0.2352171563
0.2354569737
0.004077337171
-0.4675761066
-0.006132066932
0.4689098712
0.004798302328
-0.4641116891
-0.003816099597
0.4645877962
0.00333999248
0.002690159836
0.9237144537
-0.002286134803
-0.002518284816
0.001428773856
0.9202330721
0.0005693738721
0.9181538452
0.917127624
-0.0007223717767
0.913522477
-0.001274184423
0.9127637872
-0.001593956647
0.9112662505
-0.0001772117487
0.9085841909
-0.00103198344
-0.4531690972
0.4527653456
0.0002265398669
-0.4507116884
-0.0005801468823
0.4501807777
0.001111057593
-0.4481483156
-0.002295858446
0.4474842058
0.001467546532
0.001491541684
-0.2244242571
-0.002073696478
0.2236203615
0.002722488073
-0.2247507105
-0.006087117908
0.2223915648
0.008124029982
-0.2190523912
-0.0134028564
0.2167698262
0.01540769215
-0.2102752457
-0.02325248235
0.2062254509
0.02720884752
-0.2058598851
-0.04528955872
0.1043085715
0.09845948142
0.02202098663
0.02636040425
-0.03237145927
-0.1087045737
0.1081364025
0.03293963047
-0.02617512895
-0.2512664248
0.0494488366
-0.02655578775
0.12687903
0.127669475
-0.03748430537
-0.2487315772
0.2531667068
0.03319197006
-0.2435781517
-0.02164746766
0.2470110421
0.01852311727
-0.238526684
-0.01118714947
0.2408191447
0.009192815079
-0.004854289303
-0.2367825394
0.2377512628
0.003999887684
-0.4702138665
-0.004922484863
0.4709599517
0.004176399679
-0.4654963446
-0.003095854921
0.4663760188
0.002216180733
0.001238601426
0.9251101808
-0.0011789524
-0.00145537614
0.0004766404608
0.9209950331
0.0001296288938
0.9185008567
0.9172572529
-0.001298626241
0.9148211032
-0.002514826748
0.9139799877
-0.003481573227
0.912232997
-0.001785343822
0.909385719
-0.00249775751
-0.452714639
0.4526886094
-0.001759314237
-0.4498995391
0.001776398725
0.4497393817
-0.0016162413
-0.4459815471
0.001366871853
0.445474771
-0.000363699493
-0.00051285218
-0.2205884193
-0.001045885214
0.2195314684
0.001909681297
-0.2167234715
-0.005456110006
0.2151266152
0.006714745894
-0.2106686907
-0.0110093413
0.2089667101
0.01244334176
-0.1997562114
-0.01610707989
0.1988309749
0.0170006507
-0.08977552004
-0.01092922703
0.08954038038
0.01116436669
-0.03296152458
-0.1408404262
0.143774189
0.03002776175
-0.03567792265
-0.2665928277
0.2706532429
0.03169218049
-0.256951648
-0.02182708433
0.2601007451
0.0189728078
-0.2485073228
-0.01145883259
0.250997234
0.009301158332
-0.004400149424
-0.2413571559
0.2426546301
0.003267779264
-0.4720527847
-0.002500447404
0.4729080863
0.001645145815
-0.4670480444
-0.001071884877
0.4675792064
0.0005407228991
-0.0009911575748
0.9255872263
0.0005512995207
-3.718748006e-05
-0.0008856169102
0.9208894924
-0.0004944819223
0.9181097217
0.916762771
-0.001886291799
0.916707395
-0.003686859118
0.915780555
-0.005535248888
0.9140813867
-0.003235113791
0.9110428974
-0.003957313482
-0.4529503011
0.4532029751
-0.003487787825
-0.4498177856
0.003783195246
0.4500944085
-0.00405981818
-0.4451857235
0.004331941705
0.445198659
-0.002029888342
-0.002351480195
-0.2167028837
0.001347515088
0.2157402584
-0.0005985845518
-0.2101798969
-0.002475650074
0.2086927138
0.00361412667
-0.205219333
-0.006563630254
0.2043222085
0.007199787636
-0.1991657293
-0.007302491744
0.1998802141
0.006574013137
-0.09330316927
-0.001239596686
0.09398364777
0.0005591181826
-0.01461238791
-0.1569143007
0.1574303085
0.01409638016
-0.02007272506
-0.2792730904
0.280676007
0.01871179269
-0.2679466271
-0.01410919753
0.2698827271
0.01245780311
-0.2575982797
-0.007367234867
0.2594618678
0.005850567795
-0.001965686505
-0.2462417772
0.2473514533
0.001044095686
-0.4739796987
0.0007796195148
0.4747991035
-0.001599024272
-0.4677793566
0.001902378674
0.4678296026
-0.001952624694
-0.003638082338
0.9246742913
0.002533101794
0.002017915617
-0.002524282601
0.9197756927
-0.00129823641
0.9168836756
0.9154645346
-0.002440325651
0.9191477207
-0.004992756045
0.9183329854
-0.007489950848
0.9165785815
-0.004695631384
0.9136768442
-0.005428266266
-0.4537506845
0.454296952
-0.005241898837
-0.4505213566
0.005875124778
0.4512414525
-0.006595220728
-0.4454131381
0.007329163573
0.4458434472
-0.00368669756
-0.004127895205
-0.2130672232
0.003175057561
0.2122057732
-0.002540575369
-0.2046661958
3.297464739e-05
0.2034465826
0.0008301069328
-0.2023428261
-0.002710568733
0.2018832009
0.002911896329
-0.2026613723
-0.001653560194
0.203686268
0.0006207297699
-0.09753119838
0.001518171842
0.0979193631
-0.0009345688779
-0.0009717676776
0.003828785621
-0.1545790273
0.1535411941
-0.002790952442
-0.001667425434
-0.2810602886
0.2801222022
0.002650371434
-0.2737909087
-0.003138962843
0.2744967537
0.002719703151
-0.2640713382
-0.0006435726367
0.2652022134
-0.0001391038372
0.002018564876
-0.2496629909
0.2502304495
-0.002398115164
-0.4746204099
0.005245418217
0.4739626597
-0.004587668027
-0.4675079748
0.004300035921
0.4676908414
-0.004482902478
-0.006513837365
0.9223414672
0.004749204367
0.004097457096
-0.004272826465
0.9175346818
-0.002153901077
0.9147647502
0.9133106335
-0.003067833678
0.9222155544
-0.006139314458
0.9214044662
-0.009383526702
0.9198227938
-0.006096533911
0.9171824125
-0.006792561058
-0.4551159169
0.4559345601
-0.0069151771
-0.4520953119
0.007906081818
0.4530684725
-0.008879242361
-0.4465831564
0.01001077434
0.4474710382
-0.005359145882
-0.005621265768
-0.2097239899
0.004690856903
0.20891437
-0.004123544218
-0.2000525919
0.001968393618
0.1989935073
-0.001274388143
-0.2008998492
5.571573749e-05
0.2006849793
-9.540038068e-05
-0.2068160931
0.001986197191
0.2078661376
-0.003039236111
-0.1002048315
0.00304455729
0.1004731014
-0.001641000195
-0.001671826996
0.01367260435
-0.1445852676
0.1431870118
-0.01227434853
0.01195428541
-0.2757577797
0.2741264786
-0.01024600529
-0.2756870284
0.008278169724
0.2746405442
-0.006937417431
-0.267521183
0.006606745116
0.2678152019
-0.006556529768
0.006258247972
-0.2504208815
0.2503313664
-0.006002306128
-0.472949434
0.009430942676
0.471626799
-0.008108307611
-0.4677286444
0.006928139669
0.4666523311
-0.005851826406
-0.009153672866
0.9188222587
0.006562757536
0.006110123773
-0.00595235797
0.9143333669
-0.0029294488
0.911741841
0.9103811847
-0.003630094684
0.9258456491
-0.00730285461
0.9250772262
-0.01114939822
0.9236693374
-0.00734234108
0.921137629
-0.007762273666
-0.4569774042
0.458003848
-0.008368784928
-0.4542899912
0.009565521076
0.4555938848
-0.01086941465
-0.4481666464
0.01230803683
0.4493499966
-0.006425764969
-0.007179855102
-0.2064769464
0.005664210041
0.2056371367
-0.005083216575
-0.1959855658
0.003054082157
0.1950323283
-0.002473926329
-0.2003481858
0.001745979459
0.2003499537
-0.001996644374
-0.2110726336
0.004579350458
0.212177271
-0.005684257593
-0.1022263626
0.004416160296
0.1024837649
-0.002316274078
-0.002357288495
0.01700680616
-0.1337755932
0.1324318207
-0.01566303368
0.01940857819
-0.2692718887
0.2680592792
-0.01806769444
-0.2739487558
0.01370393408
0.2755900222
-0.01502773836
-0.2677732702
0.01462330597
0.2674698974
-0.01399167655
0.009978386732
-0.2481656271
0.2470920836
-0.008776136553
-0.4700488362
0.01286283365
0.4682284964
-0.01104249377
-0.4655058998
0.00944541781
0.464120038
-0.008059556
-0.01149175565
0.9159211413
0.007454579771
0.00693829335
-0.007408825821
0.9102504371
-0.003603633523
0.9079366487
0.9067775512
-0.007815038047
0.9336606871
-0.01582819437
0.9330903825
-0.0239853983
0.9318265414
-0.008593420165
0.9298089677
-0.02406331673
-0.4592791294
0.4605398067
-0.009854097503
-0.4569594029
0.01125307863
0.4585309032
-0.01282457892
-0.4488042882
0.01442631001
0.4474916076
-0.006432998726
-0.006870366872
-0.2033760658
0.004597854021
0.2019631001
-0.003462736432
-0.1922679562
0.002729927991
0.1917504328
-0.002590649537
-0.2006975302
0.003404834471
0.1999254664
-0.002877826801
-0.2156334318
0.006197338001
0.2168358838
-0.003691586872
-0.003708203166
-0.05237926654
0.002863367693
0.05246518227
-0.002949283424
-0.05830253224
0.006333362203
0.05780841947
-0.012309534
0.006470284567
0.01529166908
-0.1245046574
0.2453572395
-0.02654534734
0.01486009934
-0.1244590032
-0.2649412622
0.02300381884
0.2653595516
-0.02323580553
-0.2746839034
0.02051104587
0.2740175009
-0.01949870854
-0.2658888154
0.0164455184
0.2650242818
-0.01527461371
0.01123761878
-0.2420329191
0.2405727391
-0.009707204047
-0.4660867281
0.01513364871
0.4639490834
-0.01299600394
-0.4626846246
0.01133202144
0.461141264
-0.00978866072
-0.01332318366
0.9118254406
0.008938512972
0.008480371426
-0.008587843736
0.9055150972
-0.004225679643
0.9035744847
0.9025518716
-0.004320895808
0.937981583
-0.008762825262
0.937532312
-0.01345370925
0.9365174254
-0.009161696487
0.9348984136
-0.009381458683
-0.46384988
0.4651914326
-0.01050324898
-0.4618917205
0.01200009479
0.4635064696
-0.01361484387
-0.447538322
0.01537030456
0.4506988983
-0.009024964381
-0.00972678268
-0.1988249839
0.00968371258
0.1985889051
-0.009740439925
-0.188889936
0.009053025757
0.1881050299
-0.008649810942
-0.2022296535
0.007413621848
0.2016727947
-0.007085224679
-0.2209440278
0.006892760039
0.222166674
-0.004051716632
-0.004063689548
-0.05459694338
0.006290646326
0.1096014011
-0.05456169322
-0.003359470969
-0.003373939827
-0.1122360648
0.008372097764
0.1121052102
-0.01636905007
0.008127806834
0.02577427767
-0.2385138452
0.23764763
-0.02489990498
-0.2642997678
0.02210338571
0.2645425039
-0.02210317842
-0.2720750371
0.02109430249
0.2755723957
-0.02424346994
-0.2619014304
0.02143256821
0.2582638292
-0.01754519575
0.01121441506
-0.234178003
0.2327488201
-0.009774857147
-0.4620631596
0.01601313157
0.4603658856
-0.01431585749
-0.4595818598
0.01266491571
0.457783882
-0.01086693786
-0.012860689
0.9068790988
0.00883991366
0.008967117132
-0.009335436789
0.901989845
-0.004571123775
0.8988101717
0.8979807478
-0.004517118578
0.9424987016
-0.009151847353
0.9421670407
-0.01402459785
0.9413901759
-0.009562525
0.9401406434
-0.009704302686
-0.4666283917
0.4680514639
-0.01098559716
-0.4651389934
0.01252614937
0.4667763428
-0.01416349869
-0.4561141773
0.01591725464
0.4624652279
-0.01117611952
-0.01117446637
-0.2004625164
0.01559549142
0.2020898949
-0.01747047042
-0.1868462965
0.02123337899
0.1870130427
-0.02176356261
-0.1981435309
0.02087589385
0.1967263598
-0.01972567711
-0.2213353468
0.01367615365
0.2184868537
-0.01088436559
-0.1127501587
0.01101159107
0.2253405114
-0.01097431282
-0.112627631
-0.2265648289
0.01737254534
0.227137227
-0.01794494338
-0.2420330435
0.02402637516
0.2447894735
-0.02668832297
-0.2675368736
0.03073756194
0.2679978483
-0.03090557511
-0.2734700406
0.02858002079
0.2722765548
-0.02703357645
-0.251708926
0.02079923528
0.2518184977
-0.02072385256
0.01192195177
-0.2313852724
0.2290331131
-0.009569792498
-0.4588547875
0.01770873075
0.4556778537
-0.01453179691
-0.4559642649
0.01300100109
0.4538987814
-0.01093551759
-0.01328499912
0.9020217522
0.009150420755
0.008991925021
-0.009417045307
0.8981218912
-0.004790416232
0.8941835426
0.8931903316
-0.004598124174
0.9470968258
-0.009301371063
0.9468702877
-0.01421304486
0.9463018497
-0.009704572812
0.9453797006
-0.009747529226
-0.469479563
0.4709086038
-0.01113361357
-0.468396483
0.01265396713
0.4699910823
-0.01424856643
-0.4671835922
0.015936401
0.4690460371
-0.008958115551
-0.008840956233
-0.2104256001
0.01711489098
0.2143907516
-0.02123012491
-0.1903522003
0.0317452954
0.1926605565
-0.03435307068
-0.1938598514
0.03871880332
0.1938309791
-0.03897226755
-0.2111075293
0.03663256464
0.2094908982
-0.03517185623
-0.219854516
0.03076240425
0.2167824349
-0.02773031638
-0.2344277937
0.03373876605
0.236517022
-0.03578604567
-0.252293504
0.04198838325
0.2539422429
-0.04347062892
-0.268192264
0.04425122779
0.2674036913
-0.04317591595
-0.2661711191
0.03623718554
0.2631206053
-0.03290766244
-0.2423000499
0.0211442951
0.2382095506
-0.01695419356
0.01136376366
-0.227061061
0.2264480163
-0.010750719
-0.4548901078
0.01803078828
0.4521552657
-0.01529594613
-0.4510156605
0.01186181298
0.4494021418
-0.01024829422
-0.01249025216
0.8957062826
0.00966840912
0.009137312605
-0.007023434718
0.8926550738
-0.004850402874
0.8920105108
0.8883399287
-0.004576845692
0.9516736715
-0.009242391942
0.9515358339
-0.01407937142
0.9511388292
-0.009624103368
0.9504869615
-0.009562528961
-0.472299064
0.4736796086
-0.01100464795
-0.4715417734
0.01245623419
0.473044171
-0.01395863182
-0.4707623474
0.01552567988
0.472396579
-0.008625450979
-0.008534460487
-0.2295081376
0.009573100443
0.2343183587
-0.01440329755
-0.2036990961
0.0317023985
0.2087111116
-0.03689476829
-0.1977912518
0.04943259592
0.2005747947
-0.05244117601
-0.2083176931
0.05815790761
0.2092113946
-0.0592156808
-0.2085967826
0.05646378903
0.2075078965
-0.05543157982
-0.2397891615
0.06127646068
0.2399497038
-0.06137797131
-0.2549117337
0.06012322116
0.2538199259
-0.05886313278
-0.2612778791
0.05167232633
0.2579091894
-0.04808196071
-0.2506727288
0.03429326539
0.2455017519
-0.02896726168
-0.2257802049
0.01290949996
0.2249872202
-0.01211562688
0.01054689381
-0.2247927787
0.2242845974
-0.01003871257
-0.4484321009
0.0170748845
0.4466714068
-0.01531419039
-0.4478033467
0.0136362091
0.4461810181
-0.01201388055
-0.01166890929
0.8885193636
0.01031869336
0.008537134934
-0.006627519262
0.8876136838
-0.004485008393
0.8898679999
0.8838549203
-0.004472805025
0.9561464765
-0.009015720481
0.9560787494
-0.01368787147
0.9558109802
-0.00935366902
0.9553638723
-0.009211113209
-0.475005143
0.4763064929
-0.01065501891
-0.474485551
0.01200812541
0.475866921
-0.01338949537
-0.4739414718
0.01480779993
0.4753945895
-0.008191293151
-0.008069624497
-0.2364964577
0.008943922238
0.2368779201
-0.009325384556
-0.226822898
0.01356983516
0.2334833462
-0.02026257566
-0.212967343
0.03876648717
0.2181744851
-0.04408405462
-0.2147640652
0.0567246022
0.2171742394
-0.05923703029
-0.2114278504
0.0606720816
0.2142639678
-0.06354401853
-0.2381510444
0.06526380689
0.2369504924
-0.06401462491
-0.246754629
0.05696372718
0.2433899111
-0.05348918081
-0.2443738045
0.03985057485
0.2390236355
-0.03439724323
-0.2278887137
0.01637406205
0.2240581252
-0.01253215521
-0.2235701126
0.01128330197
0.2231559203
-0.01086910963
0.00962522316
-0.2229268856
0.2225125015
-0.009210839091
-0.4450306941
0.01585731109
0.443507384
-0.01433400104
-0.4446750454
0.01285102012
0.4432156597
-0.01139163448
-0.0144825036
0.8832819123
0.009745409145
0.009974545787
-0.009511015871
0.8826421961
-0.001897338865
0.8822543229
0.8819575815
-0.004304870857
0.9604513474
-0.008660602766
0.9604344813
-0.01310331799
0.9602536954
-0.008941410728
0.9599463304
-0.008744365389
-0.4775458051
0.4787529224
-0.01014852799
-0.4771800268
0.01138927703
0.4784293363
-0.01263858654
-0.4767581096
0.01390165076
0.4780321958
-0.007654587461
-0.007521149413
-0.237928853
0.008303416909
0.2382505699
-0.008625133775
-0.2369680793
0.009578921942
0.23727991
-0.009890752561
-0.235075716
0.01080518756
0.2359216359
-0.01165264172
-0.2253342626
0.02340214584
0.2284116552
-0.02650071327
-0.222559041
0.03344920075
0.2247144729
-0.03561391605
-0.2323415782
0.0349740071
0.2306800961
-0.03329581074
-0.2316812033
0.02449063451
0.2276654417
-0.02045511903
-0.2244569872
0.01220793021
0.2242365415
-0.01198748453
-0.2230528865
0.01121566049
0.2227654323
-0.01092820624
-0.222058361
0.01000274327
0.221734894
-0.009679276351
0.008685447153
-0.2214060893
0.2210659349
-0.008345292728
-0.4420958693
0.01451355633
0.4407909669
-0.01320865392
-0.4418735219
0.01191413437
0.4405792531
-0.0106198656
-0.01361273615
0.8784835952
0.009065855017
0.009345198234
-0.008981174898
0.8780106348
-0.004458340031
0.8777314881
0.8774992414
-0.004091609058
0.9645429564
-0.008216209084
0.9645590813
-0.01238954115
0.9644270275
-0.008435655867
0.9642005788
-0.008208133619
-0.4798946637
0.4810025336
-0.009543525757
-0.4796098021
0.0106688364
0.4807281191
-0.01178715335
-0.47921941
0.01290120153
0.4803245616
-0.007062629419
-0.006943723649
-0.2391352551
0.007627475482
0.2394061598
-0.007898380162
-0.2381210832
0.008684586081
0.2383733366
-0.008936839485
-0.236709296
0.009664610298
0.2369369353
-0.009892249656
-0.2300957262
0.01021985216
0.2299297042
-0.01005383011
-0.2278243819
0.01076488399
0.2282044501
-0.01114495225
-0.2286373876
0.01124133314
0.2286260659
-0.01123001142
-0.2259022023
0.01105633745
0.2258028373
-0.01095697247
-0.2236596945
0.01055056036
0.2234910434
-0.01038190929
-0.2220088015
0.009790104387
0.2217866373
-0.009567940216
-0.2208704496
0.008843104169
0.220613232
-0.008585886589
0.00778155229
-0.2201592221
0.2198771023
-0.007499432519
-0.4395844463
0.01315679015
0.4384691248
-0.01204146871
-0.4393951537
0.01091737235
0.4382549697
-0.009777188427
-0.01263034894
0.8741360147
0.008340228924
0.008637700536
-0.008368774256
0.8737490601
-0.004164554188
0.873527268
0.8733346872
-0.003850298522
0.968393255
-0.007718176221
0.968426959
-0.01160278442
0.9683116357
-0.007878802155
0.9681157797
-0.007639183187
-0.4820433943
0.4830540453
-0.008889453238
-0.4817813039
0.00990358163
0.4827770979
-0.01089937558
-0.4813527004
0.01187871273
0.4823090308
-0.006467241727
-0.006367801387
-0.2401514207
0.006959783962
0.2403801453
-0.007188508574
-0.239057538
0.007841330358
0.239264067
-0.008047859321
-0.2375331221
0.008632541407
0.2377067173
-0.008806136606
-0.2294281282
0.008968289391
0.2292616768
-0.008801838024
-0.2290831386
0.009512363276
0.2293078535
-0.009737078241
-0.2285791281
0.009763789702
0.2285593458
-0.009744007432
-0.2255322066
0.009585691534
0.2254495469
-0.009503031888
-0.223041207
0.009175411205
0.222907143
-0.009041347221
-0.2211933462
0.008572071799
0.221016653
-0.008395378606
-0.2199195112
0.007814234097
0.219711168
-0.007605890847
0.006945917316
-0.219127808
0.2188920012
-0.006710110516
-0.43743685
0.01185705113
0.4364803695
-0.0109005706
-0.4372151563
0.009924751558
0.4362132016
-0.008922796804
-0.01160698853
0.8702238712
0.007610976627
0.007908155404
-0.007719115231
0.8698611868
-0.003849475783
0.8696576286
0.8694852115
-0.003594733513
0.9719879885
-0.007194372871
0.9720265984
-0.01078577809
0.9719030409
-0.007303391598
0.9716983075
-0.007064914272
-0.483996681
0.4849137752
-0.008220485821
-0.4837133604
0.009130902936
0.4845980015
-0.01001554413
-0.4831981084
0.0108762549
0.4840261068
-0.005894719631
-0.005809533658
-0.2410108192
0.006323287812
0.2412049332
-0.006517401774
-0.2398282461
0.007064858337
0.239999756
-0.007236368247
-0.2381640512
0.007713360295
0.2382976902
-0.007846999236
-0.2287782376
0.007898106571
0.2286250938
-0.007744962836
-0.2298295353
0.008422821229
0.2299623135
-0.008555599369
-0.2284904181
0.008540838081
0.2284647786
-0.008515198616
-0.2252195501
0.00836668806
0.2251480574
-0.008295195355
-0.2225434812
0.008021373783
0.2224333796
-0.007911272174
-0.2205387834
0.00752838561
0.2203947504
-0.007384352666
-0.2191444062
0.006908671211
0.2189727766
-0.00673704165
0.006188622735
-0.2182675791
0.2180696572
-0.00599070084
-0.4355925347
0.01064530629
0.4347681725
-0.009820944037
-0.4353008992
0.008972085834
0.434420489
-0.008091675624
-0.01059110009
0.8667178358
0.006906577017
0.007190558453
-0.007065593689
0.8663356804
-0.00353012689
0.8661221618
0.8659550846
-0.003336974217
0.9753249627
-0.00666883988
0.9753584641
-0.009973910706
0.9752081117
-0.006735406123
0.9749649997
-0.006505196828
-0.4857646578
0.4865947348
-0.00756548315
-0.4854297154
0.008381974744
0.4862158399
-0.009168099243
-0.4847990962
0.009926163783
0.4855211108
-0.005363971093
-0.005284207242
-0.2417417526
0.005734058367
0.2419076163
-0.005899922065
-0.2404717936
0.006364227693
0.2406163635
-0.006508797589
-0.2386504759
0.00690312146
0.2387536413
-0.007006286872
-0.2281983004
0.006983265434
0.2280683169
-0.006853281897
-0.2302687538
0.007480124698
0.2303460509
-0.007557421802
-0.2283818498
0.007517077633
0.2283526039
-0.007487831735
-0.2249464004
0.007347180392
0.2248829966
-0.007283776528
-0.2221305322
0.007048556858
0.2220376634
-0.006955688102
-0.2200008558
0.006635591369
0.2198808774
-0.006515612927
-0.2185020218
0.006118851392
0.2183583287
-0.00597515825
0.005513171263
-0.21754328
0.2173751956
-0.005345086871
-0.4340014168
0.009539410493
0.4332877373
-0.008825730924
-0.4336190399
0.008084701139
0.4328440804
-0.00730974163
-0.009618458529
0.8635817303
0.006244841792
0.006509722172
-0.006433569817
0.8631507917
-0.003219548389
0.8629081403
0.8627355362
-0.003085264579
0.9784102273
-0.006157800864
0.9784310004
-0.009190408185
0.978240719
-0.006190136201
0.9779382908
-0.005973563095
-0.487361772
0.4881122987
-0.006940662885
-0.4869552735
0.007673101262
0.4876548319
-0.00837265964
-0.4861963521
0.009041673744
0.4868285615
-0.004874636518
-0.004799246545
-0.2423683014
0.005196617871
0.2425113606
-0.005339677087
-0.2410170451
0.005738331982
0.2411406302
-0.005861917053
-0.2390259426
0.006191248207
0.2391055445
-0.006270850161
-0.2277181786
0.006200351462
0.2276151291
-0.006097301972
-0.2305225041
0.006664951707
0.2305662894
-0.006708736921
-0.2282613591
0.006651762356
0.2282300268
-0.00662043004
-0.2247025733
0.006486742207
0.2246453944
-0.006429563246
-0.2217794501
0.006223348577
0.2216994549
-0.00614335339
-0.2195497088
0.005870346676
0.2194479124
-0.005768550226
-0.2179613488
0.005432131253
0.2178392902
-0.005310072713
0.004915985362
-0.2169264452
0.2167821882
-0.004771728332
-0.4326220524
0.008543945067
0.4320006052
-0.007922497825
-0.4321383573
0.007272797809
0.4314543904
-0.006588830986
-0.008709576929
0.8607774809
0.005635966385
0.005877859972
-0.00583828749
0.8602795023
-0.002925707304
0.8599955601
0.8598098289
-0.002845815521
0.9812560428
-0.00567333977
0.9812585246
-0.008452189009
0.9810195683
-0.00567828217
0.9806438106
-0.005479426588
-0.4888038454
0.4894826816
-0.006357118354
-0.4883135651
0.007015095236
0.4889376991
-0.007639229182
-0.4874213105
0.008231862766
0.4879777709
-0.004428212057
-0.004360111076
-0.2429104216
0.004710211844
0.2430349841
-0.004834774321
-0.2414851329
0.005181113252
0.2415920212
-0.005288001484
-0.2393154242
0.005565425974
0.2393767161
-0.005626717872
-0.2273479061
0.005527636553
0.2272727983
-0.005452528767
-0.230663567
0.00595847638
0.2306866195
-0.005981528801
-0.2281341254
0.005913335331
0.2281016705
-0.005880880511
-0.22448172
0.00575356495
0.2244295551
-0.005701400026
-0.2214752122
0.00551788095
0.2214051864
-0.005447855175
-0.2191648135
0.005211284222
0.2190771339
-0.005123604673
-0.217500032
0.004834402982
0.2173950634
-0.004729434345
0.004389580945
-0.2163956645
0.2162707114
-0.004264627786
-0.4314191474
0.007657736644
0.4308746187
-0.007113207925
-0.430830922
0.006540823892
0.4302251616
-0.005935063594
-0.007877030146
0.858267221
0.005085357339
0.005301932726
-0.005289556707
0.8576920288
-0.002653856261
0.8573598597
0.8571559726
-0.002622254209
0.983878297
-0.005222331706
0.9838586021
-0.007768365635
0.9835656022
-0.00520635676
0.9831078087