/*--------------------------------*- C++ -*----------------------------------*\
| =========                 |                                                 |
| \\      /  F ield         | OpenFOAM: The Open Source CFD Toolbox           |
|  \\    /   O peration     | Version:  v1912                                 |
|   \\  /    A nd           | Website:  www.openfoam.com                      |
|    \\/     M anipulation  |                                                 |
\*---------------------------------------------------------------------------*/
FoamFile
{
    version     2.0;
    format      ascii;
    class       surfaceVectorField;
    location    "1.99";
    object      Uf;
}
// * * * * * * * * * * * * * * * * * * * * * * * * * * * * * * * * * * * * * //

dimensions      [0 1 -1 0 0 0 0];


internalField   nonuniform List<vector> 
25162
(
(99.99849519 0.006291976408 -2.230157258e-21)
(99.99410746 0.005625825406 6.60737081e-21)
(99.99762821 0.01546757407 -2.200736423e-21)
(99.99141092 0.01941098247 2.234805847e-21)
(99.99593844 0.03104629168 -4.388628739e-21)
(99.98542012 0.0421080209 1.325788488e-20)
(99.99809306 0.03598832845 1.36016215e-21)
(99.97476692 0.07964938646 -8.707284992e-21)
(99.98902606 0.08004272051 -1.458580238e-21)
(99.99687557 0.06568031874 2.114215377e-21)
(99.99898118 0.03932306893 1.044429461e-21)
(99.98715559 0.1107743456 2.100331444e-21)
(99.99706745 0.06290451915 1.026066381e-21)
(99.99782664 0.04916762192 -1.060472204e-21)
(99.99637408 0.0800981978 1.026024473e-21)
(99.98017603 0.1807147807 2.040980687e-21)
(99.99604932 0.1012971605 0)
(99.99583678 0.1245339316 -3.726901318e-21)
(99.97427686 0.2757424057 -3.726881921e-21)
(99.99527156 0.1520476917 -9.667731582e-22)
(99.99466099 0.183495556 3.2474148e-21)
(99.96712815 0.4016378389 3.531066083e-21)
(99.99411659 0.2186878343 4.353728238e-22)
(99.99371482 0.2569292965 -2.859021242e-21)
(99.96242188 0.5543330518 4.079859668e-22)
(99.99353361 0.2971382932 -2.889860941e-21)
(99.99367795 0.3376540694 3.539539515e-22)
(99.96399947 0.7155091411 -1.923504322e-21)
(99.99417567 0.3761666912 2.594985827e-21)
(99.99476215 0.4106501235 2.194190544e-21)
(99.9741519 0.8502410688 -9.662794732e-22)
(99.99560758 0.4383683176 0)
(99.99741251 0.456520136 0)
(99.9933634 0.9219853565 2.021098966e-22)
(99.99989741 0.4636352693 0)
(100.0023258 0.4594557522 4.24327436e-22)
(100.0138581 0.9055929882 -1.01013174e-23)
(100.0041638 0.444647067 9.873238704e-22)
(100.0051515 0.4204922743 -1.972008733e-22)
(100.0289616 0.8116074296 -6.226911116e-22)
(100.0056438 0.3894941087 -1.083220475e-21)
(100.0059959 0.354539728 8.76550625e-23)
(100.034813 0.6723109552 1.740632761e-21)
(100.0061705 0.3173157442 4.517322942e-22)
(100.0060473 0.2797923791 0)
(100.0338319 0.5228300712 0)
(100.0057196 0.2436150273 0)
(100.0054044 0.2097502318 7.497877708e-22)
(100.0285656 0.3883406171 1.563770917e-21)
(100.005445 0.1792113165 -3.800063037e-21)
(100.0052394 0.1500036328 -1.408623181e-21)
(100.0235347 0.273318312 3.080882843e-21)
(100.0044791 0.1248498855 3.080652943e-21)
(100.0033417 0.1037986325 -8.647832867e-22)
(100.0140702 0.1872482643 -5.042639953e-23)
(100.0009297 0.08876730816 1.684870132e-21)
(100.0087128 0.08582117331 -7.512695986e-21)
(100.0497772 0.2101650283 4.580865861e-22)
(100.0178327 0.1897415445 -2.673435706e-21)
(100.0029488 0.08816108378 -1.553898217e-21)
(100.0061238 0.04985235121 -9.435641014e-22)
(100.0336378 0.1289981338 1.495846488e-20)
(100.005099 0.02347531251 -7.582451561e-21)
(100.0247828 0.06890366673 -1.594969652e-20)
(100.0221226 0.02167505662 1.380768976e-21)
(99.98586546 0.01751533439 1.103110561e-20)
(99.97764588 0.009045181512 3.084483685e-22)
(99.97729088 0.04346898982 1.761351438e-20)
(99.96708414 0.03202025845 -1.542965513e-20)
(99.96130902 0.08734102112 9.178346298e-21)
(99.94436346 0.07151870506 -2.391095765e-20)
(99.95286696 0.1423030727 -1.55623681e-21)
(99.90611192 0.1379671665 4.604317272e-20)
(99.91958495 0.1792379303 -1.014282485e-20)
(99.92963905 0.1835479103 -2.177418482e-21)
(99.94625197 0.1823614013 4.284493844e-21)
(99.9671258 0.1288567551 2.129389982e-21)
(99.94791996 0.2172131407 2.076680569e-21)
(99.93081675 0.2373517478 2.116405624e-21)
(99.8835927 0.3147018216 -4.276834298e-21)
(99.91358298 0.3061175121 -2.244411551e-23)
(99.91995493 0.3531899845 2.041300994e-21)
(99.89342097 0.3907631134 -2.021194831e-23)
(99.82513698 0.512371013 0)
(99.88308486 0.4584692274 0)
(99.85152209 0.5258165092 -2.545653715e-21)
(99.89112083 0.5286200808 -5.001204268e-21)
(99.87681631 0.5576624088 -7.079282042e-23)
(99.84200744 0.6453150244 -1.1249472e-20)
(99.86729237 0.6100992413 -3.866845291e-21)
(99.83669216 0.8228538414 3.145497967e-23)
(99.85933346 0.7755618353 -2.537994738e-21)
(99.79280188 0.9523808037 -1.385173385e-20)
(99.82908882 0.8938962518 -3.376450093e-21)
(99.80679404 1.157514655 -6.276684065e-21)
(99.8380769 1.08075021 -5.923774014e-21)
(99.75824643 1.33522132 6.600447384e-22)
(99.80429403 1.242739051 -7.526918512e-21)
(99.80478482 1.527364707 -3.766399557e-23)
(99.84385687 1.410219558 -4.880377758e-21)
(99.76081995 1.7525586 -9.888274842e-21)
(99.81289927 1.615979694 -3.662328257e-21)
(99.84898884 1.857334184 -9.529896144e-22)
(99.89004876 1.692617567 -1.90648813e-21)
(99.82064094 2.116338312 2.356096609e-20)
(99.86935668 1.931295445 -9.417693515e-22)
(99.94063534 2.061651573 2.124956841e-21)
(99.97357808 1.851739464 -7.556164677e-22)
(99.93680143 2.326649245 -8.995594083e-22)
(99.96808725 2.100793732 -9.969851272e-22)
(100.0460127 2.072886444 2.02855411e-22)
(100.0540111 1.831315613 -2.983125069e-22)
(100.0646605 2.307514647 -1.882976397e-21)
(100.0705279 2.061190502 -6.946951992e-22)
(100.1341243 1.898802923 -2.469752953e-22)
(100.1072099 1.64927359 -2.324362996e-22)
(100.1638245 2.079854561 -9.081622106e-23)
(100.147953 1.837973233 2.007975973e-21)
(100.1785379 1.601232867 2.331448335e-21)
(100.1295786 1.371345872 4.058336014e-21)
(100.2106796 1.729538518 4.058309561e-21)
(100.1815431 1.514297965 5.137147315e-22)
(100.181707 1.258653845 -6.540633569e-21)
(100.1260101 1.066812553 -6.110291662e-21)
(100.2091267 1.34349955 -2.205816046e-21)
(100.1763019 1.16962125 -2.163275684e-21)
(100.1569094 0.9426863702 -5.194234056e-21)
(100.1030935 0.7935258981 4.74362338e-22)
(100.174278 0.9946212685 -1.391502717e-21)
(100.1475035 0.8664791851 5.665157946e-21)
(100.0947756 0.5401453898 -1.307263352e-20)
(100.1519136 0.737027029 -1.30716178e-20)
(100.2120104 0.7939301066 1.323707497e-20)
(100.1303515 0.61155235 -2.673611675e-20)
(100.1097086 0.5042482712 1.160023377e-20)
(100.1516534 0.5362249725 -1.635816405e-20)
(100.0891036 0.4138906251 2.344120381e-20)
(100.0671362 0.3668870347 2.604464018e-20)
(100.0822637 0.2484639466 2.224139082e-20)
(100.187409 0.390132466 -1.90531755e-22)
(100.1438783 0.4407544551 4.676540446e-20)
(100.0848132 0.3492194268 2.531746779e-21)
(100.0588458 0.144820871 -6.821846224e-22)
(100.1308838 0.2379021022 3.191841758e-20)
(100.0472225 0.06640413911 -7.428758166e-21)
(100.0987101 0.1273469989 -1.692133992e-20)
(100.0847578 0.0399384444 7.576973069e-21)
(99.96202992 0.02217836143 -2.648237348e-20)
(99.95670971 0.008107175907 -1.323571726e-20)
(99.93823754 0.0571875956 -5.734422817e-20)
(99.93411954 0.03101507711 1.224629954e-20)
(99.8949993 0.1192194679 1.213989627e-20)
(99.88614873 0.0764609379 -4.854517464e-20)
(99.84887908 0.2129796272 2.93050664e-20)
(99.80814266 0.1564078404 5.278280907e-20)
(99.7973045 0.2350479486 -4.785192027e-20)
(99.87068694 0.2289041539 -8.716008361e-21)
(99.79998483 0.2595647665 -6.463854977e-20)
(99.81802924 0.2886117204 -4.36486158e-21)
(99.79602438 0.3982223212 -8.528703483e-21)
(99.7717772 0.3831319224 -4.250692079e-21)
(99.68722898 0.4630286777 2.982419419e-20)
(99.71776289 0.4996496133 8.380588473e-21)
(99.69527311 0.6556121342 -7.381652204e-21)
(99.65537252 0.6425954465 5.450996536e-21)
(99.53228122 0.7754892007 -4.203056459e-20)
(99.61875797 0.7877265333 2.96603793e-21)
(99.55635841 0.8460740954 -1.832043136e-20)
(99.60202206 0.9825921427 -7.563575049e-21)
(99.57030679 0.9808123158 0)
(99.49702278 1.08312725 7.829093652e-21)
(99.53582499 1.093037232 -7.534863123e-21)
(99.47656098 1.478163169 3.677515115e-21)
(99.42929148 1.489060035 1.441686022e-20)
(99.33619768 1.641442656 7.143334185e-21)
(99.39575347 1.639107351 1.790888123e-20)
(99.38116196 2.109483389 3.265715805e-20)
(99.31401622 2.14613559 2.603792589e-20)
(99.21360357 2.357461796 -9.780472021e-20)
(99.29870936 2.326092897 3.26710301e-20)
(99.38720712 2.809006021 -9.519679341e-20)
(99.3029049 2.892242497 -1.378908745e-19)
(99.2175767 3.167232881 1.805349328e-19)
(99.32355016 3.080204395 3.038228621e-19)
(99.53725456 3.458074005 -3.413626776e-19)
(99.4501496 3.613008571 -2.126423198e-19)
(99.40848112 3.933894296 -1.717035048e-20)
(99.51675753 3.762115857 2.202485139e-19)
(99.86249627 3.841352874 6.937623767e-21)
(99.7789615 4.07874074 -1.58377303e-19)
(99.82914952 4.390859096 1.045922619e-19)
(99.88127657 4.127323004 6.656498462e-21)
(100.2013078 3.812188814 -7.542501823e-21)
(100.1898409 4.104740637 2.73335564e-20)
(100.2754242 4.351976318 -1.289056562e-20)
(100.2832849 4.035477873 -4.678712616e-20)
(100.4624992 3.396310619 0)
(100.5042538 3.695401246 0)
(100.6081968 3.85461248 0)
(100.5545499 3.543922882 5.310600205e-21)
(100.5720777 2.779453658 2.853037825e-21)
(100.6439141 3.042220927 1.878856298e-21)
(100.7376839 3.128565846 -3.072625884e-20)
(100.6557405 2.865145069 6.098883667e-21)
(100.5640244 2.133993147 -6.104756155e-21)
(100.6469829 2.347723342 -1.422227831e-20)
(100.7218893 2.387772782 -4.948470602e-21)
(100.6302776 2.178923945 5.500266172e-21)
(100.5568076 1.713459584 -1.730096523e-20)
(100.4793612 1.551510916 -1.165946307e-20)
(100.6115928 1.725370587 -1.167518633e-20)
(100.5309352 1.571877974 6.250830911e-21)
(100.3735921 1.028735932 -5.171523074e-20)
(100.5004209 1.257271505 -2.706522692e-20)
(100.5802566 1.23906195 -7.84312478e-20)
(100.432233 1.037175991 -3.697653672e-20)
(100.2710802 0.6903480032 -5.9266982e-20)
(100.3684165 0.8491539935 2.351457202e-20)
(100.420438 0.8232228066 -2.813219661e-20)
(100.3092764 0.6901080356 -2.459897222e-20)
(100.2280652 0.3764597062 9.699567676e-21)
(100.3917512 0.512873353 -2.538120286e-20)
(100.3703232 0.6227758655 -1.510160856e-22)
(100.2762761 0.5657124923 -1.452893048e-20)
(100.1653692 0.2176697896 1.496402708e-20)
(100.2802653 0.3098107662 2.660669624e-20)
(100.1316753 0.09939342441 -1.903533282e-21)
(100.2102952 0.1648120591 -3.84339419e-21)
(100.1784939 0.05131668731 0)
(99.93461642 0.01593323004 2.658884398e-20)
(99.941702 0.001074907277 -4.435675417e-21)
(99.8893446 0.04784917972 2.238210792e-20)
(99.90406722 0.01078579984 3.105319293e-20)
(99.80809658 0.1131871483 -8.892216124e-21)
(99.82463768 0.04718681871 -4.400838004e-21)
(99.70422897 0.2375257738 0)
(99.6945355 0.1215712387 6.781920432e-21)
(99.64422149 0.2308184544 2.065542504e-20)
(99.71933449 0.27492129 -6.03509581e-20)
(99.63088575 0.2717875579 1.552956289e-20)
(99.63576562 0.3316779741 0)
(99.5605572 0.5046318803 3.098950788e-22)
(99.54409511 0.451510002 -3.429702791e-20)
(99.41956813 0.5193447463 -3.427395534e-20)
(99.43538173 0.6022914334 6.955432069e-20)
(99.34103707 0.8641358279 -1.033446774e-19)
(99.30852444 0.7898628331 3.769960893e-20)
(99.12676053 0.9112372778 -6.911842313e-20)
(99.20601746 1.01125324 -3.438389732e-20)
(99.11920793 1.031488659 -5.65337382e-20)
(99.11078763 1.330290533 8.173012657e-21)
(99.07664451 1.286598823 1.624044048e-20)
(98.96008223 1.390540168 4.107149861e-20)
(98.99785067 1.447715638 8.105235812e-21)
(98.80961759 2.070422684 -2.062210002e-21)
(98.75059167 2.023555506 -2.295587694e-20)
(98.60383089 2.184345909 -1.60732426e-19)
(98.67345962 2.245861698 -1.525038632e-19)
(98.57908683 3.052367677 -2.341113936e-19)
(98.48152842 3.018383137 1.20307116e-19)
(98.31850022 3.265756817 1.154297387e-19)
(98.43562839 3.312587483 -7.308023222e-21)
(98.54081323 4.267870414 -2.045648819e-19)
(98.39488459 4.284298779 -6.280507922e-20)
(98.24914016 4.641799322 1.46070175e-22)
(98.42639699 4.625109449 -3.558608118e-20)
(98.88457256 5.487248276 -2.174058557e-19)
(98.70454986 5.613761435 6.566474466e-20)
(98.65040162 6.05773729 -1.371219886e-19)
(98.86591493 5.90249966 -2.785636435e-19)
(99.71966765 6.243864658 2.417373354e-19)
(99.52963844 6.525502324 9.492104155e-20)
(99.67580892 6.950516965 6.602135044e-20)
(99.79552862 6.614645181 -2.63461073e-20)
(100.6217167 6.142884028 7.529333772e-20)
(100.5804418 6.527645703 0)
(100.7934209 6.81406181 0)
(100.8087461 6.382279465 0)
(101.2359382 5.307481694 0)
(101.3119137 5.697589846 -5.105143984e-21)
(101.5266287 5.820627627 1.463007443e-20)
(101.4134214 5.413920027 -3.012577048e-20)
(101.4109592 4.177783514 -3.459119713e-20)
(101.5459572 4.504919472 7.249000366e-20)
(101.7067127 4.523259618 1.543186725e-19)
(101.5445453 4.201163265 -9.868903834e-23)
(101.3163675 3.092773474 8.604283781e-20)
(101.4561048 3.339112676 -2.780798407e-21)
(101.5630267 3.303786977 -6.175792042e-21)
(101.4077536 3.073548571 2.508679557e-19)
(101.235 2.371034277 0)
(101.1081997 2.194396737 4.662784269e-20)
(101.3044161 2.327291804 0)
(101.1684824 2.162309511 0)
(100.8291264 1.416599204 2.863646819e-20)
(101.0397536 1.659988892 1.852702426e-20)
(101.116123 1.552700415 -1.640326355e-20)
(100.8921822 1.353909526 3.590640863e-20)
(100.6000325 0.9302066676 -3.278877783e-20)
(100.7585068 1.095466709 -1.463650137e-20)
(100.8037344 1.007725655 -1.479418919e-20)
(100.6401032 0.8783206515 -7.155172044e-21)
(100.4310456 0.4442698614 -9.137571691e-21)
(100.6476159 0.5539326057 -1.908146561e-20)
(100.6783992 0.7308408284 -2.514166799e-21)
(100.557765 0.7018650026 5.241028643e-21)
(100.3132054 0.2544595525 7.658785494e-21)
(100.4592095 0.3301309505 1.164329354e-20)
(100.2473627 0.1151498891 -1.939517689e-21)
(100.3416782 0.172173995 -3.425468206e-21)
(100.2870885 0.05298595078 -4.927469781e-22)
(99.91747225 -0.004391758076 0)
(99.94586558 -0.01299555392 0)
(99.84730742 0.008637386849 4.478959397e-21)
(99.89185434 -0.03164773691 0)
(99.72111814 0.05726254906 1.134842125e-20)
(99.77890949 -0.02247157109 -3.70221778e-21)
(99.5455969 0.1870751888 1.93988964e-20)
(99.59046674 0.0253894318 2.504959949e-20)
(99.48667954 0.1489191702 -7.558844512e-21)
(99.54331722 0.2484212728 2.674799293e-20)
(99.44907821 0.2034971563 2.164716526e-21)
(99.42830273 0.2876513029 -1.075925353e-20)
(99.26990678 0.5034739672 0)
(99.27715953 0.4153700235 -2.242061899e-20)
(99.11711499 0.4539289472 -1.841874581e-20)
(99.09725621 0.5785700871 4.576904907e-21)
(98.89174525 0.9111057158 0)
(98.88610889 0.7868729376 4.576414888e-21)
(98.6466059 0.86204432 -4.725947436e-21)
(98.68348597 1.055559879 2.292477214e-20)
(98.58491196 1.041193037 5.921479405e-21)
(98.4565684 1.477408852 2.634145099e-19)
(98.43686847 1.387223158 0)
(98.27403758 1.47220525 -5.396639102e-20)
(98.29561994 1.581188593 0)
(97.90592321 2.414767396 2.674468389e-19)
(97.85489466 2.296286101 -5.44267047e-19)
(97.64808234 2.443657553 6.267988986e-19)
(97.70290528 2.591929853 -4.865784772e-19)
(97.37163248 3.813687382 -6.518744366e-19)
(97.26055875 3.680431328 2.656965326e-19)
(96.99809255 3.950609457 4.767206621e-19)
(97.13141596 4.115870166 -1.040070985e-20)
(97.10851167 5.750001447 -1.487116467e-19)
(96.8907818 5.645979575 7.650982895e-20)
(96.61828531 6.096535919 -1.788782421e-19)
(96.89170814 6.221240417 -1.783260993e-19)
(97.65527405 7.968911201 -5.055148855e-20)
(97.30565827 8.022068575 3.751779143e-19)
(97.179732 8.679491221 -4.83560144e-20)
(97.61749923 8.589215845 3.174036319e-19)
(99.44034594 9.473013277 5.440505777e-20)
(99.08700382 9.836085228 1.415497196e-19)
(99.32133908 10.50331094 -4.395167397e-20)
(99.69668691 10.02553578 1.073304296e-19)
(101.5640462 9.147750565 -2.392301018e-20)
(101.4752849 9.731089656 1.025706088e-19)
(101.937876 10.06303658 6.311356489e-20)
(101.9595903 9.394348988 6.014927224e-20)
(102.7372669 7.446845561 6.419237298e-20)
(102.9004341 7.98752597 -7.531096266e-20)
(103.2832874 8.00570934 -7.541952667e-20)
(103.0476422 7.459380078 -1.273949135e-19)
(102.8626372 5.484194488 -5.417279257e-19)
(103.1178485 5.883777112 3.18030157e-20)
(103.3580934 5.771553361 -2.752243818e-19)
(103.0547538 5.396588816 -2.742814032e-19)
(102.4737251 3.852786423 -2.064446353e-19)
(102.715001 4.119937862 -9.438641618e-20)
(102.8335659 3.992504443 -1.156716803e-19)
(102.5765224 3.750453791 0)
(102.1627219 2.797886933 -7.843578468e-22)
(101.9738337 2.620449855 -3.767716153e-21)
(102.2261899 2.682485265 1.824001016e-20)
(102.0313429 2.528720699 2.227591616e-20)
(101.4351888 1.639932291 -9.255393828e-20)
(101.7354347 1.871209867 -5.861846215e-20)
(101.7801912 1.66906551 -3.285510338e-20)
(101.4792894 1.503579511 -1.681901065e-20)
(101.0260511 1.049413497 1.137646505e-20)
(101.2489612 1.197793427 3.433149663e-20)
(101.2629727 1.050932327 -3.839720668e-21)
(101.0486131 0.9453565454 -3.756671974e-21)
(100.6621568 0.4406929406 1.978605799e-21)
(100.9205407 0.494714633 0)
(101.0281205 0.72401025 -9.362958015e-23)
(100.8963726 0.7368654397 -1.024280505e-20)
(100.4761948 0.2453933338 4.364849316e-22)
(100.6433674 0.287243574 1.97842742e-21)
(100.3715004 0.1088514424 -1.98354729e-21)
(100.4704607 0.143481195 -1.985596004e-21)
(100.3897546 0.04321575662 -1.993153558e-21)
(99.92627132 -0.03997294135 0)
(99.9835968 -0.03415387697 2.191218857e-21)
(99.83104052 -0.06307848973 -8.977471538e-21)
(99.91374475 -0.09626327735 -2.208111838e-21)
(99.65870817 -0.05316051245 9.298451948e-21)
(99.76974527 -0.133433924 -4.467888545e-21)
(99.40174379 0.04821147571 1.218538985e-20)
(99.52609365 -0.1349478526 3.660274968e-21)
(99.35487076 -0.01697502871 -2.679668646e-23)
(99.37200032 0.1346221509 -9.061665058e-21)
(99.28479112 0.04381557023 -9.147426476e-21)
(99.22950281 0.1409367317 0)
(98.96829878 0.3685062565 -1.841829113e-20)
(99.01430633 0.2534808022 0)
(98.83007132 0.2469790826 -1.161060483e-22)
(98.75540275 0.4011833907 -7.92148837e-23)
(98.39820002 0.7617436555 9.497935573e-21)
(98.44596629 0.5945897135 1.427131992e-20)
(98.16232538 0.6082572773 1.923380588e-20)
(98.12816049 0.8773220661 -1.527910786e-20)
(98.03459457 0.8155529408 -3.289043445e-21)
(97.7334038 1.338341725 1.454765394e-19)
(97.74886997 1.209014341 3.207733755e-20)
(97.55769387 1.251624919 -4.799972746e-21)
(97.5357093 1.403915353 3.001579384e-19)
(96.81233919 2.370900376 1.923036767e-20)
(96.80466187 2.180117679 -6.056914346e-19)
(96.52748312 2.287593013 -5.17022778e-19)
(96.53013153 2.515105588 -1.235644914e-18)
(95.70954851 4.098343893 3.121803456e-19)
(95.63391364 3.833347757 3.100467733e-19)
(95.23211346 4.04721681 3.084483391e-19)
(95.32349047 4.389514544 -3.014662831e-19)
(94.72047533 6.898254734 3.04458683e-19)
(94.46270356 6.55137723 -3.123048463e-22)
(93.92918394 7.02124175 9.523765967e-19)
(94.25747366 7.459486094 3.0529974e-19)
(94.99027474 11.0080664 -3.423176548e-19)
(94.33457656 10.78589718 -1.252679801e-18)
(93.87236834 11.80205986 -6.812878405e-19)
(94.76740718 12.03066496 -1.474798935e-18)
(98.71399382 14.54553921 -8.693474483e-20)
(97.84528232 15.09178005 1.781414675e-19)
(98.3564138 16.38230243 1.781492994e-19)
(99.34006805 15.51673623 9.640018241e-20)
(103.6899135 13.37551438 0)
(103.5558427 14.42648044 -2.198877558e-19)
(104.5985996 14.71319261 -1.972729315e-19)
(104.5164739 13.52101252 0)
(105.541731 9.641709051 -1.070676538e-19)
(105.9279529 10.40970258 0)
(106.5566262 10.14045619 1.325408486e-19)
(106.0243928 9.415545591 0)
(105.1592275 6.439517257 -4.894175813e-19)
(105.6235604 6.882091648 -2.810241252e-19)
(105.8785808 6.565712898 -5.287420774e-19)
(105.36217 6.176977413 -2.765494539e-19)
(104.0807348 4.22244978 3.34918789e-20)
(104.4598077 4.470855712 3.345792662e-20)
(104.5409213 4.218401335 3.357015008e-20)
(104.1552299 4.013303758 5.44655457e-19)
(103.3200049 2.881152501 -2.339875185e-19)
(103.0473655 2.731339906 6.599002789e-20)
(103.343109 2.693526183 -6.51255027e-20)
(103.0767323 2.570609313 1.821176201e-20)
(102.1385525 1.630636866 2.685575514e-20)
(102.5193248 1.802666326 -2.455799547e-22)
(102.4949899 1.518605465 1.634922098e-20)
(102.1319138 1.422670044 1.217895217e-20)
(101.5013917 1.007133999 -1.599117494e-20)
(101.7842821 1.110967941 -8.153323407e-21)
(101.7396486 0.9143775568 -8.154902998e-21)
(101.4829935 0.8575898062 1.243056115e-20)
(100.8872905 0.3472696237 0)
(101.1737578 0.3285023157 1.314736855e-21)
(101.3672132 0.5767078492 -1.096992889e-20)
(101.2464359 0.6549063306 2.720199281e-20)
(100.6254196 0.1833889001 -4.999529529e-22)
(100.797865 0.1742144842 -1.554691084e-21)
(100.4790067 0.07777998279 -2.004485565e-21)
(100.570038 0.07640352423 -2.268957167e-21)
(100.4631072 0.02145125023 2.555868863e-21)
(99.97630819 -0.08967370451 -1.619473426e-23)
(100.0682021 -0.06153076267 8.044866675e-23)
(99.85887566 -0.1652715791 2.298083488e-21)
(99.98512639 -0.1800779388 -9.834641586e-23)
(99.64571217 -0.21376769 -1.204651351e-20)
(99.81566147 -0.2801331569 1.825742455e-21)
(99.30764428 -0.167223488 -1.085941283e-20)
(99.52731791 -0.352311797 -1.828924302e-20)
(99.28752179 -0.262165642 -1.558443705e-20)
(99.23785832 -0.0715155785 -8.524190201e-21)
(99.18196584 -0.205932274 -3.39963901e-21)
(99.08119376 -0.1077959133 4.171708871e-23)
(98.71029151 0.09042943909 1.387801464e-20)
(98.80677483 -0.03710699975 1.413098978e-20)
(98.61579635 -0.09885769157 6.982435796e-21)
(98.47545416 0.06316139382 2.406409685e-20)
(97.9553753 0.3989715904 -2.424725669e-20)
(98.07753947 0.2016650796 -1.952888191e-20)
(97.7865488 0.1357798086 -2.930443083e-20)
(97.64577658 0.4323371192 1.616587158e-19)
(97.57694698 0.3337311325 -2.262286339e-19)
(97.06924334 0.8691118588 0)
(97.13674644 0.7140249651 1.95176344e-20)
(96.92729348 0.7027605032 4.077054231e-20)
(96.84060566 0.8810364471 5.758446999e-19)
(95.69951342 1.820668288 -1.360856338e-18)
(95.77336062 1.572394955 -6.958002401e-19)
(95.45044757 1.593029414 3.748723257e-22)
(95.35013662 1.880565828 -5.209819954e-19)
(93.77690186 3.51023827 5.486150779e-19)
(93.83043708 3.112210734 3.763482061e-19)
(93.3197037 3.183157189 1.904106668e-19)
(93.22647088 3.655027364 3.755695028e-19)
(91.14042217 6.594515632 4.193601234e-19)
(91.06458748 5.915620724 1.214066063e-18)
(90.17067484 6.108818303 -5.00453213e-19)
(90.22537888 6.991654068 2.099339828e-18)
(88.44971898 13.45972246 1.960754916e-19)
(87.62931831 12.21766457 -2.066596702e-19)
(85.71411691 13.75803245 1.314828371e-19)
(85.95029417 12.87816773 1.306657715e-19)
(87.56572016 15.07153467 -6.459493758e-19)
(86.5118293 15.14513971 1.300352903e-19)
(93.79862413 25.30666609 4.855580491e-19)
(95.21894076 24.83532927 2.511895662e-19)
(94.38441092 27.16568208 8.735824626e-21)
(96.09757411 26.24151089 4.971253451e-19)
(109.4083167 21.19215252 4.718477087e-19)
(109.471164 19.33948689 -5.785806233e-19)
(111.1402412 18.74439355 -1.490676222e-18)
(110.3655733 21.89503133 -5.373432292e-19)
(112.4213069 20.47428213 -5.27766433e-19)
(112.0665362 21.34890498 4.3161877e-19)
(111.3906774 12.04617015 -8.684986018e-19)
(110.4429736 11.12213074 -6.849347879e-19)
(112.0291366 11.12562926 -4.712003387e-19)
(110.9294382 10.42235058 -2.066363489e-21)
(108.306722 6.471390859 -1.946078194e-20)
(109.0719255 6.845122252 -2.766588717e-19)
(109.1908267 6.23298219 -3.975343832e-19)
(108.4124283 5.983157414 -5.260478107e-19)
(106.0223597 3.896709801 6.174095253e-19)
(106.5571575 4.056676481 4.786589766e-19)
(106.5219924 3.672782485 -8.382423292e-20)
(106.0049405 3.577348036 0)
(104.5843145 2.457438784 3.068140343e-19)
(104.228219 2.383807949 3.115500614e-19)
(104.521877 2.210913111 -2.963750678e-19)
(104.1855133 2.158991263 4.565547408e-19)
(102.836386 1.327380805 4.297352313e-21)
(103.292494 1.3916191 -1.435886786e-20)
(103.1467106 1.055101138 -2.485271241e-21)
(102.749029 1.061907007 -4.475496461e-21)
(101.9612717 0.7687396695 4.451031778e-21)
(102.2843036 0.8000254758 -2.114865637e-23)
(102.1640664 0.5745287403 -7.250373504e-21)
(101.8813814 0.5848252306 9.012366188e-21)
(101.0649969 0.1613863918 -1.864621999e-22)
(101.3430912 0.05927509087 -2.888665953e-22)
(101.6513362 0.2855732474 8.267606154e-22)
(101.5541842 0.39659284 6.581120596e-21)
(100.7300867 0.06704249234 -3.330736221e-21)
(100.8867358 -0.005782265266 -2.431321318e-22)
(100.5445402 0.0208910096 2.487332834e-21)
(100.6135133 -0.0262807154 -2.231507093e-21)
(100.482797 -0.01158152001 4.196681685e-22)
(100.0809088 -0.1508023351 1.698900109e-23)
(100.2104596 -0.09341520105 -3.245993228e-21)
(99.94675305 -0.2920178643 -5.946418918e-22)
(100.1183623 -0.2777415369 1.415652724e-21)
(99.70342854 -0.4158033537 -4.670278745e-21)
(99.93250574 -0.4521306686 -3.07460685e-21)
(99.29829706 -0.4490973013 9.654161935e-21)
(99.61515558 -0.6095380427 -1.063180775e-21)
(99.31479244 -0.5685171237 1.002568267e-21)
(99.18171592 -0.3602562156 4.712104656e-21)
(99.17605923 -0.5261075552 9.760733466e-21)
(99.02761928 -0.44297325 6.882227668e-21)
(98.55423713 -0.3149046769 -2.354342239e-21)
(98.70780665 -0.435356037 3.643730944e-21)
(98.52996744 -0.5525119392 2.407253769e-21)
(98.32279724 -0.4094415328 7.295179471e-21)
(97.66672535 -0.1717312154 -3.788286494e-21)
(97.86721187 -0.3624506019 -1.317032673e-21)
(97.6039413 -0.5119873534 -4.444600028e-20)
(97.34831317 -0.2257210306 2.166793098e-19)
(97.3194239 -0.3616423826 -2.516085566e-21)
(96.5965705 0.09617066294 7.441629669e-19)
(96.72756157 -0.06015072667 -5.816726703e-19)
(96.52381503 -0.1339792061 -6.215452694e-19)
(96.3649715 0.03828881546 -5.841297771e-19)
(94.8563964 0.7182391176 1.825990142e-19)
(95.03649261 0.4640947402 1.787973178e-19)
(94.72196848 0.3770714848 -2.025294304e-19)
(94.49778826 0.6535638437 -5.739398204e-19)
(92.22670125 1.791030473 4.028273601e-21)
(92.48809232 1.379323236 1.055992234e-19)
(91.99573783 1.232368111 -5.404781305e-20)
(91.64768848 1.677893775 3.228868909e-19)
(87.88249377 3.505803968 -1.923532147e-18)
(88.32531938 2.763527884 -4.877835396e-19)
(87.51069163 2.396750149 -1.96935047e-18)
(86.82952551 3.186945016 -9.743780908e-19)
(79.28765215 6.407338775 1.125126981e-18)
(79.90299526 5.424524719 -1.324894888e-18)
(78.95297712 4.768365093 -1.35930737e-18)
(78.02451721 5.803284822 -1.285536362e-18)
(127.3698029 23.64026492 3.421229337e-18)
(125.3537793 22.62460415 1.853649424e-18)
(127.9409275 21.51153296 -9.863975609e-19)
(126.0099325 20.9393264 4.145598848e-18)
(119.0600064 9.79262076 1.45607236e-18)
(117.285678 9.39313813 1.15275573e-18)
(118.9112818 8.143246934 -4.635101893e-20)
(117.27183 8.124640868 -1.641564724e-18)
(111.7866688 4.768670068 -4.762000309e-19)
(112.825058 4.827612495 -6.895637589e-19)
(112.5489648 4.022830864 -4.654124852e-19)
(111.5995167 4.107842468 -2.46407503e-19)
(107.9136555 2.631097877 1.852184332e-19)
(108.5567009 2.604232703 -1.396691952e-18)
(108.3100947 2.16360507 -1.987497389e-19)
(107.7281074 2.250813238 7.358563574e-19)
(105.7055223 1.448319672 -6.740035693e-19)
(105.3002813 1.485180108 0)
(105.5272816 1.177966009 4.115113155e-20)
(105.1596345 1.234870357 0)
(103.408031 0.7089988437 -4.850831115e-21)
(103.9016494 0.6401759537 -7.55901103e-21)
(103.6058358 0.2999453616 7.718689857e-21)
(103.2144893 0.4298734027 1.158224313e-21)
(102.3220158 0.3348603591 -1.974767747e-21)
(102.6493477 0.2727334785 1.35873861e-20)
(102.4382316 0.05558657744 5.019232929e-21)
(102.1695612 0.1493023096 9.94552118e-21)
(101.1521311 -0.1033058474 -3.506484388e-22)
(101.3951936 -0.2930931202 -1.053449698e-21)
(101.8069708 -0.1279411096 -1.068789756e-21)
(101.7641164 0.03226947768 -1.169621462e-21)
(100.7600361 -0.0969650752 1.071036545e-21)
(100.88064 -0.2376630951 1.311919025e-21)
(100.5436512 -0.05741488336 -4.253405143e-21)
(100.5761491 -0.1565462329 1.64983294e-21)
(100.4286195 -0.05361749988 -2.104488531e-21)
(100.2498822 -0.2190497082 -1.847288432e-21)
(100.4170911 -0.1274875228 1.024187062e-21)
(100.1064581 -0.4339519758 -1.077369866e-21)
(100.321111 -0.3820914003 -7.560879884e-22)
(99.84707997 -0.6427703361 5.508738019e-22)
(100.1295322 -0.6359752204 -2.718075155e-22)
(99.39666677 -0.7742970991 6.318700819e-22)
(99.80215856 -0.8855971443 9.166918618e-22)
(99.45505426 -0.9075800614 5.485100546e-22)
(99.23342563 -0.7054722072 1.603927003e-21)
(99.28877136 -0.8882431845 -1.601657433e-23)
(99.09736299 -0.8328519622 -1.601885238e-23)
(98.5471686 -0.8057593855 -2.400043695e-21)
(98.75398436 -0.9013221027 0)
(98.60779121 -1.068042149 -1.17507965e-21)
(98.34612599 -0.9654208879 -1.248130853e-21)
(97.60116459 -0.874378709 -5.167736911e-23)
(97.87045047 -1.028347414 3.945172643e-20)
(97.66094589 -1.247134001 4.064232767e-20)
(97.3021714 -1.012448628 3.383301971e-20)
(97.32120281 -1.166825927 2.69419714e-20)
(96.43499788 -0.8724299828 -7.381224668e-19)
(96.62160437 -1.001289442 -1.101760784e-19)
(96.45008756 -1.127006255 -9.927686123e-22)
(96.22854964 -0.9926603976 6.764256301e-20)
(94.54349278 -0.7108371188 -3.874138546e-19)
(94.80308806 -0.9118899931 5.664970083e-19)
(94.5561527 -1.078044999 -4.160954216e-19)
(94.23390364 -0.8748423435 7.779185882e-19)
(91.75817879 -0.506796051 -8.752647979e-19)
(92.16607544 -0.7927854316 -2.673136355e-20)
(91.81220128 -1.062852098 4.311155039e-19)
(91.3284689 -0.7973185692 -4.424371475e-22)
(87.55067576 -0.7366411233 9.770170025e-19)
(88.24957869 -1.084885693 -4.993137335e-19)
(87.81884909 -1.598760096 -5.267220071e-20)
(87.01820685 -1.344971668 5.27125669e-19)
(81.96456042 -2.979141762 -1.13921569e-18)
(82.61883311 -2.998141466 2.731042323e-20)
(82.5388914 -3.502228994 1.170108985e-18)
(81.93843403 -3.59433109 -2.682804661e-19)
(140.3619568 5.272484135 2.781086495e-19)
(138.6482468 6.350642304 8.063641871e-20)
(138.947994 3.906150197 1.857622688e-19)
(137.5220939 4.975615418 2.394734347e-18)
(124.0250025 2.029993182 4.68314075e-19)
(122.2760475 2.792816477 -4.595514852e-18)
(122.7395091 0.7293492 -4.575221336e-18)
(121.3690528 1.593020478 -1.678941057e-18)
(114.194055 1.140771762 2.492695691e-19)
(115.2153308 0.7110533796 -1.791957584e-20)
(114.4676639 0.04470222101 8.28344471e-19)
(113.6179359 0.5289581756 1.495074989e-18)