/*--------------------------------*- C++ -*----------------------------------*\
| =========                 |                                                 |
| \\      /  F ield         | OpenFOAM: The Open Source CFD Toolbox           |
|  \\    /   O peration     | Version:  v1912                                 |
|   \\  /    A nd           | Website:  www.openfoam.com                      |
|    \\/     M anipulation  |                                                 |
\*---------------------------------------------------------------------------*/
FoamFile
{
    version     2.0;
    format      ascii;
    class       surfaceScalarField;
    location    "1.33";
    object      meshPhi;
}
// * * * * * * * * * * * * * * * * * * * * * * * * * * * * * * * * * * * * * //

dimensions      [0 3 -1 0 0 0 0];
oriented        oriented;


internalField   nonuniform List<scalar> 
25162
(
0
0
0
0
0
0
0
0
0
0
0
0
0
0
0
0
0
0
0
0
0
0
0
0
0
0
0
0
0
0
0
0
0
0
0
0
0
0
0
0
0
0
0
0
0
0
0
0
0
0
0
0
0
0
0
0
0
0
0
0
0
0
0
0
0
0
0
0
0
0
0
0
0
0
0
0
0
0
0
0
0
0
0
0
0
0
0
0
0
0
0
0
0
0
0
0
0
0
0
0
0
0
0
0
-4.232791984e-09
-1.018471046e-07
1.140483209e-06
0
6.889526545e-09
-9.695185515e-07
0
0
0
0
0
0
0
0
0
0
0
0
0
0
0
0
0
0
0
0
0
0
0
0
0
0
0
0
0
0
0
0
0
0
0
0
0
0
0
0
0
0
0
0
0
0
0
0
0
0
0
0
0
0
0
0
0
0
0
0
0
0
0
0
0
0
1.958880935e-08
1.722253214e-06
-1.775158203e-06
-1.092760655e-05
6.861044135e-06
9.715289108e-05
-1.578206376e-05
-0.0001374376281
8.894416968e-06
0.0002540014991
-1.524826451e-05
-0.0002838791174
-1.290892905e-06
0.0003258653849
2.543199652e-06
-0.0003215905672
-9.106710417e-06
0.0002566324966
1.658210348e-05
-0.0002210012352
-4.322699546e-06
9.893129077e-05
1.180138097e-05
-6.185043019e-05
0
1.855403969e-06
2.715787393e-07
0
0
0
0
0
0
0
0
0
0
0
0
0
0
0
0
0
0
0
0
0
0
0
0
0
0
0
0
0
0
0
0
0
0
0
0
0
0
0
0
0
0
0
0
0
0
0
0
0
0
0
9.457017043e-07
3.777067861e-06
-4.784069822e-06
-2.709207014e-05
3.321207091e-05
0.0002386182138
-5.1339238e-05
-0.0003416347283
5.990810679e-05
0.0006827671868
-7.83822267e-05
-0.0007927772147
3.941867343e-05
0.0010640695
-4.774848586e-05
-0.001126991218
-1.05718088e-05
0.001213729748
1.484341224e-05
-0.001206608799
-5.052244777e-05
0.001077938023
6.484167632e-05
-0.001001813842
-5.273712306e-05
0.0006984299327
7.109756058e-05
-0.0005821190957
-2.089455404e-05
0.0002451153128
3.474851724e-05
-0.0001529672683
0
3.848302479e-06
7.88612021e-07
0
0
0
0
0
0
0
0
0
0
0
0
0
0
0
0
0
0
0
0
0
0
0
0
0
0
0
0
0
0
0
0
0
0
0
0
0
0
0
0
0
0
0
0
0
-3.161508137e-07
-1.46437796e-06
3.823127632e-05
0.000179972381
-5.638734037e-05
-0.0003087663189
0.0001191386788
0.0008202123187
-0.0001435857902
-0.001010559825
0.0001352387396
0.001553468789
-0.0001525764087
-0.00170863944
6.900691493e-05
0.002056331308
-7.419327818e-05
-0.002129834161
-3.069543968e-05
0.002227040026
3.600357893e-05
-0.002220008299
-0.0001113758439
0.002077562361
0.0001263900919
-0.001987166469
-0.0001330928354
0.001586245729
0.0001543473877
-0.001414911862
-0.0001053374302
0.0008716098934
0.0001312633885
-0.000689493806
-2.154074937e-05
0.0002092820042
3.349026998e-05
-0.0001044962586
0
0
0
0
0
0
0
0
0
0
0
0
0
0
0
0
0
0
0
0
0
0
0
0
0
0
0
0
0
0
0
0
0
0
0
0
0
0
0
0
0
0
9.480288714e-06
2.129576194e-05
-1.541947196e-05
-9.214509193e-05
0.0001154893477
0.0005613617286
-0.0001350976376
-0.0007805965671
0.000233993226
0.001535474247
-0.0002428640793
-0.001789726854
0.0002007253021
0.002380771155
-0.0002303695278
-0.002505457361
8.476477463e-05
0.002751340389
-9.112254267e-05
-0.002782365251
-4.705699452e-05
0.002810968855
4.80470017e-05
-0.002809368359
-0.000170596555
0.002765670191
0.0001798363794
-0.00271442089
-0.000276321489
0.002448702177
0.00028631239
-0.002266020942
-0.0001741236182
0.001573603053
0.0001932373954
-0.00132682763
-7.589662142e-05
0.0006079010228
9.06975682e-05
-0.0004064777135
2.812038097e-05
-2.235789337e-06
3.915532602e-06
-4.307021601e-07
0
0
0
0
0
0
0
0
0
0
0
0
0
0
0
0
0
0
0
0
0
0
0
0
0
0
0
0
0
0
0
0
0
0
0
-2.78967502e-07
-1.603877083e-08
-6.114864383e-07
3.492046343e-05
0.000108835777
-4.210442461e-05
-0.0002453547957
0.0001871780741
0.0009080857602
-0.0001975836885
-0.001197032896
0.0002753735799
0.002050842309
-0.0002864370287
-0.002300587095
0.0002477565768
0.00285015809
-0.0002266532355
-0.002960430417
0.0001371148579
0.003058881685
-0.0001351048956
-7.192246236e-05
-0.001472037078
-0.001516932108
0.001463164314
-1.902221319e-05
1.901073849e-05
-0.00146315284
0.001505832373
-0.0002525315339
-0.003031197498
0.001536988886
0.0001091578019
0.0001317499712
0.002856315723
-0.0002680446831
0.000279552981
-0.002739482642
-0.0002484149438
0.002140097003
0.0002606114173
-0.001871159442
-0.0001290262159
0.0009978597371
0.0001405169805
-0.0007344364777
0.0001480688657
-1.720417972e-05
2.225001618e-05
-4.713844149e-05
0
0
0
0
0
0
0
0
0
0
0
0
0
0
0
0
0
0
0
0
0
0
0
0
0
0
0
0
0
0
0
0
0
1.164885889e-06
0
-2.477183663e-06
-5.670943303e-06
-8.703386521e-06
5.686385629e-05
0.0001849274699
-5.86396146e-05
-0.0003618859547
0.0002250876682
0.001147546519
-0.000228359088
-0.001457851617
0.0003023532743
0.002356900838
-0.0003020755832
-0.00260665766
0.0002140994365
0.00306621625
-0.0002099681954
-0.003099979563
5.134503209e-05
0.001568034013
-5.389860416e-05
-0.001565480441
0.001552766731
-9.27042663e-05
9.03919453e-05
-0.00155045441
0.003071650674
-0.0002935204501
0.0002967304507
-0.003006290067
-0.0002791846202
0.002469114255
0.0002833989652
-0.002201315314
-0.0001665016833
0.001281270308
0.0001719294874
-0.0009793314886
0.0002657516439
-3.390902549e-05
3.896231099e-05
-0.0001166431415
0
0
0
0
0
0
0
0
0
0
0
0
0
0
0
0
0
0
0
0
0
0
0
0
0
0
0
0
0
0
0
0
0
3.199589089e-06
0
-4.031921044e-06
-1.576684651e-05
-1.783470608e-05
6.767802866e-05
0.0002352895876
-6.960570453e-05
-0.0004335840035
0.000240434783
0.00127700174
-0.0002428397499
-0.001601618711
0.0003061808798
0.002519134051
-0.0003070208621
-0.002763464526
0.0002059688863
0.003171798035
-0.0002056511525
-0.003185305625
4.507223741e-05
0.001590397186
-4.506471522e-05
-0.001590404708
0.001599726459
-8.566919735e-05
8.485102292e-05
-0.001598908285
0.003198205248
-0.000294337917
0.0002934817941
-0.003158139902
-0.0002955549103
0.002670015426
0.0002977392689
-0.002406081898
-0.0001844778893
0.00146157959
0.0001874492325
-0.001139825401
0.0003394567922
-4.530980887e-05
4.736556202e-05
-0.0001651250188
0
0
0
0
0
0
0
0
0
0
0
0
0
0
0
0
0
0
0
0
0
0
0
0
0
0
0
0
0
0
0
0
0
4.847481408e-06
0
-5.965100687e-06
-2.429435157e-05
-2.715612201e-05
7.43838665e-05
0.0002712645612
-7.631300177e-05
-0.0004845243925
0.0002488880942
0.001370511593
-0.0002512639926
-0.001706486567
0.0003092879685
0.002642980696
-0.0003101662869
-0.002887652357
0.0002051446512
0.003278683868
-0.000205150479
-0.003286261092
4.482977685e-05
0.001638887782
-4.535010161e-05
-0.0008179877978
-0.000820379659
0.001648871458
-8.25132956e-05
8.194143962e-05
-0.001648299602
0.003295646024
-0.0002904775055
0.000289298981
-0.003251866478
-0.0002947199025
0.002742238356
0.0002930182864
-0.002469118703
-0.000184896537
0.001494636925
0.0001836498421
-0.001164423943
0.0003447223258
-4.588814251e-05
4.523478171e-05
-0.0001667269615
0
0
0
0
0
0
0
0
0
0
0
0
0
0
0
0
0
0
0
0
0
0
0
0
0
0
0
0
0
0
0
0
0
7.176415707e-06
0
-8.563600916e-06
-3.683641478e-05
-4.052358219e-05
8.232792708e-05
0.0003157494464
-8.44390163e-05
-0.0005460239092
0.0002584450413
0.001478905556
-0.0002609163661
-0.001826925197
0.0003127604801
0.002781887846
-0.0003136271723
-0.003025827683
0.0002046989699
0.003394569854
-0.0002045969763
-0.00339758342
4.500928491e-05
0.001695116074
-4.514621498e-05
-0.0008465567567
-0.000848422387
0.001701489384
-8.028830707e-05
7.974147629e-05
-0.001700942554
0.003391542348
-0.0002828433348
0.0002804468419
-0.003314877044
-0.0002803235987
0.002708635131
0.0002759669704
-0.002422108115
-0.0001690393631
0.001408934497
0.0001645954235
-0.001076246339
0.0002811472059
-3.598957839e-05
3.387277339e-05
-0.0001207184759
0
0
0
0
0
0
0
0
0
0
0
0
0
0
0
0
0
0
0
0
0
0
0
0
0
0
0
0
0
0
0
0
0
1.024449118e-05
0
-1.086984173e-05
-5.40817103e-05
-5.604504552e-05
9.131013022e-05
0.0003681786431
-9.398685261e-05
-0.000616570123
0.0002687113275
0.001597009741
-0.0002716802415
-0.001956388216
0.0003163000688
0.002925324912
-0.0003172752924
-0.003166525843
0.0002043076669
0.003506141505
-0.0002045229041
-0.003506201996
4.539560181e-05
0.00174963325
-4.537240396e-05
-0.0008736489587
-0.0008760074894
0.001750481478
-7.783014026e-05
7.772071119e-05
-0.001750372048
0.003440873571
-0.0002721764022
0.0002683808775
-0.003311796841
-0.0002566437305
0.002589054913
0.0002483763641
-0.002273166529
-0.0001439348337
0.001228587879
0.0001336039923
-0.0009032809353
0.0001875879773
-2.278852201e-05
1.947871226e-05
-6.107947371e-05
0
0
0
0
0
0
0
0
0
0
0
0
0
0
0
0
0
0
0
0
0
0
0
0
0
0
0
0
0
0
0
0
0
1.52412775e-05
0
-2.041361317e-05
-8.476724478e-05
-9.698031119e-05
0.0001020186605
0.0004419374188
-0.0001088917992
-0.0007087613379
0.0002815995269
0.001741321354
-0.0002852683328
-0.002109464319
0.0003202836683
0.003079566839
-0.000322108466
-0.003318368188
0.0002043072777
0.003615518786
-0.0002054344171
-0.001803849917
-0.00181054173
2.366065958e-05
0.0009001384194
-2.391019377e-05
-0.0008998888852
1.061555877e-07
0.0004488623539
-8.472360856e-07
-0.0008975206208
0.0004493993474
0.001797035816
-7.708432643e-05
0.0001628037024
-0.003601735
0.00180328933
-8.430952256e-05
-0.0002586807264
0.003418764333
0.0002494964801
-0.003225096613
-0.0002226884458
0.002381582133
0.0002140902896
-0.002034634558
-0.0001092109974
0.0009859160242
0.0001025053918
-0.0006818741055
7.728880699e-05
-7.944350574e-06
6.235631198e-06
-7.612673222e-06
0
0
0
0
0
0
0
0
0
0
0
0
0
0
0
0
0
0
0
0
0
0
0
0
0
0
0
0
0
0
0
0
0
2.236668796e-05
0
-1.845885545e-05
-0.0001150598008
-0.0001056631508
0.000119241478
0.000517754571
-0.000115711378
-0.0008088243214
0.00029592707
0.001889598172
-0.0002914069451
-0.002268329536
0.0003213349061
0.003241810155
-0.0003195230662
-0.003466994599
0.0002005862172
0.003726052824
-0.0002005862172
-0.001860038442
-0.001866014382
2.203435409e-05
0.001860038442
-4.213014501e-05
2.009579091e-05
-0.0009287316772
-0.0009313067647
-1.990631806e-05
0.0009287316906
1.990629795e-05
-0.001860038442
0.0009313067714
0.003726052824
-0.0001714259702
0.0001705883513
-0.003716876152
-0.0002314498925
0.003293929426
0.0002268771266
-0.003046999849
-0.0001867064289
0.002059208537
0.0001773441431
-0.001706468198
-7.581531569e-05
0.0006938857817
6.728664729e-05
-0.000441859591
1.066704379e-05
-1.212902882e-06
5.504263744e-07
0
0
0
0
0
0
0
0
0
0
0
0
0
0
0
0
0
0
0
0
0
0
0
0
0
0
0
0
0
0
0
0
0
0
1.155218185e-05
0
-4.257394651e-06
-5.341014072e-05
-3.354788659e-05
9.08427742e-05
0.0003734539751
-7.890926858e-05
-0.0006279202095
0.0002575119969
0.001635391666
-0.0002398368661
-0.002006302432
0.0003029429735
0.003023328502
-0.0002924968926
-0.003289590126
0.0002027432052
0.003768873175
-0.0002032464658
-0.003821275905
4.213014501e-05
0.003836422986
-7.650736817e-05
-0.003836422986
3.437722318e-05
-4.756717894e-05
0.003836422986
4.756717895e-05
-0.003836422986
-0.0001636239199
0.003770370014
0.000158584475
-0.003667663175
-0.0002012169381
0.003034786906
0.0001906434009
-0.002729022306
-0.0001408167059
0.001662890344
0.000130258721
-0.001301941768
-4.138727602e-05
0.0003978106784
3.356059306e-05
-0.0002082063504
0
0
0
0
0
0
0
0
0
0
0
0
0
0
0
0
0
0
0
0
0
0
0
0
0
0
0
0
0
0
0
0
0
0
0
0
0
1.041799564e-07
0
0
-2.980705165e-07
0
3.938875073e-05
0.000128248359
-2.713846337e-05
-0.0002874323289
0.0001719877606
0.001053924519
-0.0001462507639
-0.001369777898
0.0002429889355
0.002332267182
-0.000220623268
-0.002622254631
0.0001903126555
0.003297598197
-0.0001804211373
-0.003448742439
7.598889251e-05
0.003702028062
-7.428593581e-05
-0.003732830243
-4.362801383e-05
0.003700299523
3.991489564e-05
-0.003644550874
-0.0001331835573
0.003293892257
0.0001215374134
-0.003106014338
-0.0001489489266
0.002337908649
0.0001325163553
-0.002030415217
-9.090220803e-05
0.001075869507
7.63060314e-05
-0.0007838517649
-1.394110309e-05
0.000142877101
8.317162179e-06
-3.905653202e-05
0
0
0
0
0
0
0
0
0
0
0
0
0
0
0
0
0
0
0
0
0
0
0
0
0
0
0
0
0
0
0
0
0
0
0
0
0
0
0
0
0
0
2.861350296e-06
2.955918402e-07
-4.718108856e-07
-2.217875462e-05
7.048574913e-05
0.0003794624097
-4.870775684e-05
-0.0005765887435
0.000142189792
0.001279651052
-0.0001148695498
-0.001521128982
0.0001354733212
0.002160717742
-0.0001167786912
-0.002328094415
6.270126413e-05
0.002653547147
-5.663479494e-05
-0.002700006675
-2.471735988e-05
0.00265143839
1.94523996e-05
-0.002573029145
-8.116174766e-05
0.002159691115
6.728377987e-05
-0.00196862981
-8.050966575e-05
0.001290245665
6.3705929e-05
-0.001049716491
-3.403765098e-05
0.0003966685286
2.216557412e-05
-0.0002311445265
-1.193061744e-07
9.813099239e-07
0
0
0
0
0
0
0
0
0
0
0
0
0
0
0
0
0
0
0
0
0
0
0
0
0
0
0
0
0
0
0
0
0
0
0
0
0
0
0
0
0
0
0
0
0
0
0
0
5.653366258e-06
1.001363451e-05
-8.82370442e-07
-4.631948892e-05
4.259859958e-05
0.000319328627
-2.48364323e-05
-0.0004436919466
5.870014413e-05
0.0008272343274
-4.131816772e-05
-0.000940046424
3.371067853e-05
0.001175816125
-2.555504961e-05
-0.001211767045
-7.008949446e-06
0.001177434851
4.391764175e-06
-0.001119900749
-3.014995466e-05
0.0008341505267
2.038296741e-05
-0.0007120239744
-2.138630827e-05
0.000330514237
1.152744455e-05
-0.000217825945
-1.103653889e-06
1.244356305e-05
3.08543999e-09
-1.338195554e-07
0
0
0
0
0
0
0
0
0
0
0
0
0
0
0
0
0
0
0
0
0
0
0
0
0
0
0
0
0
0
0
0
0
0
0
0
0
0
0
0
0
0
0
0
0
0
0
0
0
0
0
0
0
0
1.35953015e-07
0
0
-1.672928613e-06
5.540610535e-06
4.562752071e-05
-8.75105488e-07
-7.064160002e-05
5.613279578e-06
0.0001376366943
-1.885888182e-06
-0.0001495245774
-5.345880188e-07
0.00013921296
1.425317943e-07
-0.00012149201
-2.103400575e-06
4.831117555e-05
1.754943905e-07
-2.661531692e-05
0
0
0
0
0
0
0
0
0
0
0
0
0
0
0
0
0
0
0
0
0
0
0
0
0
0
0
0
0
0
0
0
0
0
0
0
0
0
0
0
0
0
0
0
0
0
0
0
0
0
0
0
0
0
0
0
0
0
0
0
0
0
0
0
0
0
0
0
0
0
0
0
0
0
0
0
0
0
0
0
0
0
0
0
0
0
0
0
0
0
0
0
0
0
0
0
0
0
0
0
0
0
0
0
0
0
0
0
0
0
0
0
0
0
0
0
0
0
0
0
0
0
0
0
0
0
0
0
0
0
0
0
0
0
0
0
0
0
0
0
0
0
0
0
0
0
0
0
0
0
0
0
0
0
0
0
0
0
0
0
0
0
0
0
0
0
0
0
0
0
0
0
0
0
0
0
0
0
0
0
0
0
0
0
0
0
0
0
0
0
0
0
0
0
0
0
0
0
0
0
0
0
0
0
0
0
0
0
0
0
0
0
0
0
0
0
0
0
0
0
0
0
0
0
0
0
0
0
0
0
0
0
0
0
0
0
0
0
0
0
0
0
0
0
0
0
0
0
0
0
0
0
0
0
0
0
0
0
0
0
0
0
0
0
0
0
0
0
0
0
0
0
0
0
0
0
0
0
0
0
0
0
0
0
0
0
0
0
0
0
0
0
0
0
0
0
0
0
0
0
0
0
0
0
0
0
0
0
0
0
0
0
0
0
0
0
0
0
0
0
0
0
0
0
0
0
0
0
0
0
0
0
0
0
0
0
0
0
0
0
0
0
0
0
0
0
0
0
0
0
0
0
0
0
0
0
0
0
0
0
0
0
0
0
0
0
0
0
0
0
0
0
0
0
0
0
0
0
0
0
0
0
0
0
0
0
0
0
0
0
0
0
0
0
0
0
0
0
0
0
0
0
0
0
0
0
0
0
0
0
0
0
0
0
0
0
0
0
0
0
0
0
0
0
0
0
0
0
0
0
0
0
0
0
0
0
0
0
0
0
0
0
0
0
0
0
0
0
0
0
0
0
0
0
0
0
0
0
0
0
0
0
0
0
0
0
0
0
0
0
0
0
0
0
0
0
0
0
0
0
0
0
0
0
0
0
0
0
0
0
0
0
0
0
0
0
0
0
0
0
0
0
0
0
0
0
0
0
0
0
0
0
0
0
0
0
0
0
0
0
0
0
0
0
0
0
0
0
0
0
0
0
0
0
0
0
0
0
0
0
0
0
0
0
0
0
0
0
0
0
0
0
0
0
0
0
0
0
0
0
0
0
0
0
0
0
0
0
0
0
0
0
0
0
0
0
0
0
0
0
0
0
0
0
0
0
0
0
0
0
0
0
0
0
0
0
0
0
0
0
0
0
0
0
0
0
0
0
0
0
0
0
0
0
0
0
0
0
0
0
0
0
0
0
0
0
0
0
0
0
0
0
0
0
0
0
0
0
0
0
0
0
0
0
0
0
0
0
0
0
0
0
0
0
0
0
0
0
0
0
0
0
0
0
0
0
0
0
0
0
0
0
0
0
0
0
0
0
0
0
0
0
0
0
0
0
0
0
0
0
0
0
0
0
0
0
0
0
0
0
0
0
0
0
0
0
0
0
0
0
0
0
0
0
0
0
0
0
0
0
0
0
0
0
0
0
0
0
0
0
0
0
0
0
0
0
0
0
0
0
0
0
0
0
0
0
0
0
0
0
0
0
0
0
0
0
0
0
0
0
0
0
0
0
0
0
0
0
0
0
0
0
0
0
0
0
0
0
0
0
0
0
0
0
0
0
0
0
0
0
0
0
0
0
0
0
0
0
0
0
0
0
0
0
0
0
0
0
0
0
0
0
0
0
0
0
0
0
0
0
0
0
0
0
0
0
0
0
0
0
0
0
0
0
0
0
0
0
0
0
0
0
0
0
0
0
0
0
0
0
0
0
0
0
0
0
0
0
0
0
0
0
0
0
0
0
0
0
0
0
0
0
0
0
0
0
0
0
0
0
0
0
0
0
0
0
0
0
0
0
0
0
0
0
0
0
0
0
0
0
0
0
0
0
0
0
0
0
0
0
0
0
0
0
0
0
0
0
0
0
0
0
0
0
0
0
0
0
0
0
0
0
0
0
0
0
0
0
0
0
0
0
0
0
0
0
0
0
0
0
0
0
0
0
0
0
0
0
0
0
0
0
0
0
0
0
0
0
0
0
0
0
0
0
0
0
0
0
0
0
0
0
0
0
0
0
0
0
0
0
0
0
0
0
0
0
0
0
0
0
0
0
0
0
0
0
0
0
0
0
0
0
0
0
0
0
0
0
0
0
0
0
0
0
0
0
0
0
0
0
0
0
0
0
0
0
0
0
0
0
0
0
0
0
0
0
0
0
0
0
0
0
0
0
0
0
0
0
0
0
0
0
0
0
0
0
0
0
0
0
0
0
0
0
0
0
0
0
0
0
0
0
0
0
0
0
0
0
0
0
0
0
0
0
0
0
0
0
0
0
0
0
0
0
0
0
0
0
0
0
0
0
0
0
0
0
0
0
0
0
0
0
0
0
0
0
0
0
0
0
0
0
0
0
0
0
0
0
0
0
0
0
0
0
0
0
0
0
0
0
0
0
0
0
0
0
0
0
0
0
0
0
0
0
0
0
0
0
0
0
0
0
0
0
0
0
0
0
0
0
0
0
0
0
0
0
0
0
0
0
0
0
0
0
0
0
0
0
0
0
0
0
0
0
0
0
0
0
0
0
0
0
0
0
0
0
0
0
0
0
0
0
0
0
0
0
0
0
0
0
0
0
0
0
0
0
0
0
0
0
0
0
0
0
0
0
0
0
0
0
0
0
0
0
0
0
0
0
0
0
0
0
0
0
0
0
0
0
0
0
0
0
0
0
0
0
0
0
0
0
0
0
0
0
0
0
0
0
0
0
0
0
0
0
0
0
0
0
0
0
0
0
0
0
0
0
0
0
0
0
0
0
0
0
0
0
0
0
0
0
0
0
0
0
0
0
0
0
0
0
0
0
0
0
0
0
0
0
0
0
0
0
0
0
0
0
0
0
0
0
0
0
0
0
0
0
0
0
0
0
0
0
0
0
0
0
0
0
0
0
0
0
0
0
0
0
0
0
0
0
0
0
0
0
0
0
0
0
0
0
0
0
0
0
0
0
0
0
0
0
0
0
0
0
0
0
0
0
0
0
0
0
0
0
0
0
0
0
0
0.001585941608
-0.001586020641
4.515127012e-05
8.006882418e-05
-0.001590289396
-8.094332952e-05
0.0007978170114
0.0007933468896
-9.423611952e-05
0.001559236404
8.776644632e-05
0.001632135395
4.446537902e-05
-0.0008154876906
-0.0008162833062
7.408350083e-05
-0.001643944719
-7.488116599e-05
0.0008231192177
0.000821623166
7.740068562e-05
0.0008021778493
0.0008002167486
0.001688122892
4.479290157e-05
-0.0008432946488
-0.0008446118601
7.257000708e-05
-0.001693119727
-7.145086022e-05
0.000846537118
0.000845463462
7.351365397e-05
0.0008245193659
0.0008249219394
0.001742312919
4.509484463e-05
-0.0008702337962
-0.0008717783652
6.859650837e-05
-0.001742907408
-6.977634829e-05
0.001744087248
0.001702263653
7.179573808e-05
0.0008992661161
-0.0008992682749
2.366281841e-05
-0.0004492149946
-5.571314261e-07
4.531565183e-07
0.0004493189695
0.0004487858822
-0.0008970184083
-8.763128289e-07
6.808821818e-05
-0.001792256622
-6.801903997e-05
0.001792187444
0.001750752917
6.832506854e-05
0.0009278828569
-0.0009278828569
2.203435409e-05
-0.0009278828941
7.045181662e-06
-7.045250451e-06
0.0009278829629
0.0004493133214
-1.008098935e-06
-0.001853193805
0.000851170008
3.522229262e-05
1.901229267e-05
0.000108552709
-0.003657896332
0.001848864404
0.001831783057
-6.268687777e-05
-6.861696015e-05
0.001796917215
6.820681953e-05
0.001560876433
-0.001560189243
5.065784226e-05
-1.091080081e-05
0.001463764825
1.031029046e-05
-0.001553205478
-9.171010212e-05
0.00155067946
-0.0001033506696
0.001494286291
0.0001148967512
1.224357392e-05
-0.0003960162249
-1.247540667e-05
0.0003962480576
-0.0007869161735
-3.528631732e-05
0.0007890487884
3.315370245e-05
-0.001589683735
-8.627485778e-05
0.0002702114591
-0.003165083322
-0.0002745133453
0.003170231735
-0.0002839095974
0.003092662539
0.0002746734812
0.00325029482
-0.003259232144
0.0002052043954
-5.256324059e-05
5.250172016e-05
0.001632196915
5.273263446e-05
0.00159024244
-5.257788845e-05
1.342586237e-05
-0.0004052382902
-1.313363933e-05
0.0004049460672
-1.105630735e-05
-0.000399693387
0.0003992636018
1.148609263e-05
-0.001643534022
-8.292399175e-05
0.0002652086711
-0.003275150574
-0.000266500635
0.003276622874
0.003200216729
0.0002684924134
0.003366454882
-0.003370463095
0.0002048137521
-5.25828175e-05
5.252178e-05
0.00168818393
0.001638947487
-5.262294553e-05
-4.515401595e-05
0.001661464147
4.509426864e-05
-0.0008296913903
-0.0008317130089
-1.032547811e-05
-0.0004161009336
1.029868579e-05
0.0008317097829
-0.000415582057
1.015260333e-05
-0.0004081801449
0.0008176976833
-1.045153461e-05
-0.0004092186072
1.120456378e-05
-0.0004183729344
-1.127043095e-05
0.0004184388016
-1.31313e-05
-0.0004120864212
0.0004114720954
1.374562571e-05
-0.001693278284
-8.012974987e-05
0.0002588487719
-0.003366637867
-0.0002612729336
0.003375624885
0.003297573467
0.0002638668205
0.003477735871
-0.003478352641
0.0002041074288
-5.273510568e-05
5.267658378e-05
0.00174237144
0.001695095714
-5.256245777e-05
-4.460576325e-05
0.001715706886
4.494669691e-05
-0.0008572888633
-0.0008587589563
-4.808557235e-06
-0.0004295896137
4.740797852e-06
0.0004296573731
1.056390648e-05
-0.0004230052503
0.0008465757765
-1.047889856e-05
-0.0004236555341
2.003351811e-05
-0.0008599024449
-2.031580991e-05
0.0008601847367
-2.150288514e-05
-0.0008501470796
1.967782243e-05
0.0004266096552
0.0004253624871
0.00358841733
0.0002046940867
-0.001790989247
-0.001797814892
-5.311063932e-05
-0.0008983035781
5.284838937e-05
0.001797831944
0.001749694187
-5.279604226e-05
-2.36092139e-05
0.0008864149811
-0.0008865034229
2.369765563e-05
-3.361041686e-06
-0.0004440619502
3.740243695e-06
0.0004436827482
4.113994221e-06
-0.0004359914943
0.0004361260635
-4.248563408e-06
0.0004463471107
2.514167959e-06
-0.0004451515079
-3.709770839e-06
1.834218146e-05
-0.0008860464349
-1.806125232e-05
0.0008857655058
-1.944735241e-05
-0.0008746501227
0.0008746629068
1.943456834e-05
0.003635115198
0.0001976735691
-0.001779008745
-0.001853193805
-4.988674375e-05
-0.0009253109486
4.988674377e-05
0.001853193805
-0.0009036163134
0.001803750061
-5.31059678e-05
-2.365413276e-05
0.000913062983
-0.0009129791062
2.357025587e-05
-4.678423237e-06
-0.0004541278291
3.648757326e-06
0.000455157495
2.775490312e-06
-0.0004478107896
0.0004482537158
-3.218416538e-06
0.001907944539
-0.001907944539
4.213014502e-05
-0.001907944539
1.215156861e-05
-1.215156863e-05
0.001907944539
0.0009287317303
7.045142038e-06
8.339276048e-06
0.0007841613046
-8.97568146e-06
-0.0003910737128
-0.0003924511864
-7.846495431e-06
0.0007932073938
7.90467753e-06
-0.0003969589822
-0.0003963065938
0.0007882834667
2.318052262e-05
-2.482937198e-05
-0.0007866346174
0.0007846517163
-0.00078525318
8.940739753e-06
-0.0003996183329
-1.071379557e-05
0.0003992758211
-0.0003953379084
0.0003956666078
1.19148745e-05
-8.361164393e-05
-0.001576281234
8.195253071e-05
0.0007912773878
0.0007866629593
-2.967997431e-05
0.0003946389488
2.829669601e-05
-0.0007885935789
1.213945323e-05
-0.0003997899412
-1.196784491e-05
-0.0004076072229
9.777487392e-06
0.0008159944627
-0.0004080121238
-0.0008053969489
1.006655019e-05
0.0008054696918
-1.01392931e-05
4.480706137e-05
0.001613589223
-4.487100302e-05
-0.001613525281
8.007888611e-06
-8.525173133e-06
-0.0004023435906
-0.0004025360737
-4.269451874e-06
-0.0004076088715
4.271100438e-06
0.0007939067132
-8.213427942e-06
-0.0003964340534
-0.0003971057273
0.0008045127983
8.164850581e-06
-0.0004023848148
-0.0004022849455
-0.0004109605761
-1.243944598e-05
0.0004102687221
-0.0004067009219
0.0004061160594
1.401072485e-05
-3.911606166e-05
-0.0008128122718
0.0008129712343
3.895709916e-05
-1.383840348e-05
1.403345628e-05
-0.0004068959747
1.310831688e-05
-0.0004113649559
-1.270393707e-05
1.234141936e-05
-0.0003998953532
-0.0004054795599
-1.359713376e-05
-0.000809962854
-3.912126776e-05
0.0008099680601
-0.0004223401236
1.026317371e-05
0.0008444012292
-0.0004217603728
-0.0004169070037
0.0008341274588
-1.002549276e-05
-0.0004175204404
0.001668928486
-4.475175561e-05
-0.0008339636534
-0.0008353670933
4.080954373e-06
-4.007555087e-06
-0.000416980403
-4.595798588e-06
-0.0004222719443
4.527619305e-06
-4.339981772e-06
-0.000408109615
-0.0004162276
4.207620733e-06
-0.0008473352504
-2.129594546e-05
0.0004237780862
0.0004233502246
-0.0004187326061
0.0004185991629
1.133800703e-05
-7.146791463e-05
-0.001673156616
7.171571876e-05
0.0008366525369
0.0008362562746
-2.40628586e-05
0.0004179801036
2.34226228e-05
-0.0008360724739
2.329083154e-05
-0.0008472375273
-2.33885546e-05
1.350926834e-05
-0.0004124873726
0.0004173743786
-0.0008351434624
-1.181684483e-05
-1.284986439e-05
-0.001667089023
-7.294547641e-05
0.0008349805443
0.0008335860404
-0.0004355567873
4.056191107e-06
0.0004356145904
-0.0004299371473
0.0004299234654
-4.794875339e-06
0.001721259021
-4.514336546e-05
-0.0008599092765
-0.0008608121428
4.127840698e-06
-4.346274265e-06
-0.0004297187137
-3.059905868e-06
-0.0004353477307
2.850849352e-06
-4.591261791e-06
-0.0004230097871
-0.0004295310497
4.06927672e-06
-0.0008735654022
-1.948860773e-05
0.0008736066575
-0.0008621365982
0.0008621452638
2.002485246e-05
-0.0004491378542
2.48160928e-06
0.0004494317352
-0.0004438460734
0.0004439982579
-3.513226188e-06
0.0008878790768
-2.360496375e-05
-0.000887883327
4.209220387e-07
-0.0004438779117
0.0004425180235
9.389660938e-07
2.263775019e-06
-2.479849112e-06
-0.0004436299993
-2.677455437e-06
-0.0004485382557
2.077856968e-06
-3.346826805e-06
-0.0004357045734
-0.0004442863989
2.48822366e-06
-1.868716859e-06
0.0004486367496
3.516006203e-05
-0.00179143825
-3.484243676e-05
0.0008958572027
0.000895263422
-0.0008869866116
0.0008866898592
1.863893384e-05
2.509102843e-06
-0.0004438728465
-0.0009356061039
-1.103501987e-05
0.0009313399824
8.764523109e-06
6.536618286e-06
-0.0004545672885
0.0004551091558
-5.220290533e-06
0.000914439854
-2.382603961e-05
-0.0009142679472
8.09354319e-06
-0.0009038102082
0.0009043418423
-8.625177243e-06
5.198884999e-06
-5.539634403e-06
-0.0004542265391
-6.51536351e-06
-0.0009355750782
6.044055759e-06
4.402820597e-07
-3.290306008e-06
-0.000447197939
4.46805619e-06
-0.0004533970003
-0.0009028104846
7.043766883e-06
0.0009038602609
0.003145511823
-0.0031619524
0.0002069245874
5.288687775e-05
0.001585787365
5.847775246e-05
0.001565859502
-5.630324202e-05
-4.698968094e-05
0.001568693905
-0.001568563034
4.685881008e-05
-1.054826357e-05
1.06514191e-05
0.0007845485607
1.479487689e-05
0.0007905910072
-1.710241734e-05
5.540291436e-05
-0.0003869838118
1.444021724e-05
0.0003171406802
-0.0004044859017
-1.744097626e-05
0.0004102209425
1.170593545e-05
0.001607639678
-0.001607801224
4.496860812e-05
1.007169706e-05
0.0008045076514
1.017203881e-05
0.0007939073416
-1.017266728e-05
0.0001149467398
-0.0004305787518
-4.092605754e-05
0.0003565580695
-0.001742374128
-7.836342084e-05
0.0002549690049
-0.003435671229
-0.0002567354952
0.003480139132
0.003403137575
0.0002592999279
0.0001132102047
-0.0004415850881
-3.672159605e-05
0.0003650964794
1.060266593e-05
-0.0008795430209
-1.107440057e-05
0.000440148768
0.0004398659876
-5.965679647e-06
-0.0004371997327
0.0004371237853
6.041627007e-06
-3.07223192e-06
-0.0009022947362
2.55648352e-06
4.309986392e-05
-0.00181228064
-3.958067222e-05
0.001808761448
-0.001796483725
3.56339751e-05
0.0008984704647
0.0008975393471
1.016552288e-05
0.0007932139098
0.0007841999158
-1.058687474e-05
0.001565869272
-4.595961015e-05
-0.001566899343
1.674617359e-06
0.0003947169999
-8.271102002e-07
-0.0003955645071
0.0004070634785
1.648126457e-05
-1.089604867e-05
-0.0004126486944
0.0003951491726
-5.68103508e-06
-0.0003958404999
6.372362428e-06
-4.186562531e-05
3.550848558e-05
-0.0007805590338
0.0003942766825
-0.0007886073249
-3.136555675e-05
-0.001568535635
-8.07060101e-05
0.0007840996408
0.00078153036
-0.0004375166023
-6.301436827e-06
0.0004378523595
-1.030842705e-05
-0.0004348149383
0.0004359387864
9.184578984e-06
-7.098255835e-05
-0.001723473483
0.001724035104
7.042093773e-05
-2.251439895e-05
2.223719645e-05
-0.0008618593957
2.167496811e-05
-0.000873368703
-2.187166736e-05
2.272772829e-05
-0.0008495839764
-0.0008598978171
-2.251902674e-05
-0.001719189361
-7.114083694e-05
0.00171934764
-3.78909977e-06
-0.0004477731691
0.0004492279161
2.334352694e-06
0.0004491424882
2.810513968e-06
-0.0004490487254
-2.904276757e-06
-5.513048659e-06
-0.0009003307577
5.260173375e-06
0.0004499986745
0.0004505849585
-0.0007448634923
-2.665461035e-07
0.0007448059859
3.240524893e-07
0.00160532262
5.324915498e-05
-5.012210698e-05
-3.007377639e-05
-0.0007820944256
-0.0007962814663
0.0007796107232
-0.000795846023
3.941582247e-05
-0.0007834881316
-3.635375863e-05
0.0007845555729
-0.001564016859
-9.627832273e-05
0.0007839830737
0.0007539683708
4.905958261e-05
7.328415462e-05
-1.579037983e-05
1.660182608e-05
-0.0007456749386
-0.0004984607726
0.000553863687
-2.910880542e-05
-0.0007885876236
2.741285201e-05
0.0003950372521
0.0003952463249
-1.742648522e-05
-8.187455354e-05
-0.0003991597339
-1.377972123e-05
1.08257456e-05
-0.0004015319261
-0.0003972254978
-7.184799241e-06
-0.0007842128837
-2.678731229e-05
0.00039171294
0.0003901784506
-1.27517383e-05
-0.0004028772131
0.0004029455389
1.268341257e-05
-0.0004028231991
-1.274867067e-05
0.0004028201315
-1.088636204e-05
-0.0004164699013
0.0004164095625
1.094670084e-05
-0.0004171379258
-1.139754557e-05
0.0004176491094
-0.0004296311532
1.019538017e-05
-7.581460132e-06
0.0004270172331
-0.000436698996
0.0005502590775
1.386658347e-06
-2.077699651e-05
-0.0008545608245
0.00085456343
2.077439097e-05
-1.398659513e-05
8.754249232e-06
-0.0004314666501
1.056469145e-05
-0.0004303415804
-9.854264184e-06
-1.271284329e-05
4.033140457e-05
-0.0004213001385
0.0003936815773
-0.0004285117007
-1.605364622e-05
-0.0008535569454
-2.086989629e-05
0.0004268875368
0.0004267623084
-0.0004401333975
5.434151656e-06
0.0004402725401
-5.573294223e-06
1.624497399e-05
0.0008804118008
-1.631923783e-05
-0.000880337537
-1.630655605e-05
0.000886355756
-0.0008864433028
1.639410286e-05
9.265956207e-06
-0.000885591869
-9.483801551e-06
0.0008858097143
-0.0008809185348
1.005703877e-05
0.0004410717264
0.0004403924355
0.000564766873
-2.830831523e-06
-0.0004487258368
7.133507004e-06
-0.0004526711342
0.0004531923965
-7.654769348e-06
1.6711327e-05
0.0009074960999
-1.680052652e-05
-0.0009074069004
-1.680316582e-05
0.0009128976732
1.638449205e-05
-0.0004559761286
-0.0004565028708
1.651535731e-05
0.0008997377278
-1.675303521e-05
-0.0008995000499
0.0009057060146
-0.0009056321732
1.66374856e-05
-0.0004510533279
6.444298749e-06
0.0004517425362
0.0004010320499
5.293384492e-06
9.546458839e-05
-0.0005017900227
0.0003926841513
1.425190159e-06
-0.0003924347241
-8.683820639e-06
0.0007885040694
8.395846058e-06
-0.0003933085349
-0.0003949075599
-1.572478949e-06
9.74769581e-07
0.0003932818607
1.472195191e-06
0.0003976383714
1.92148328e-06
3.54383565e-06
-2.646924724e-05
0.0003970157827
-0.0003740903711
0.0003950937427
-1.949221673e-06
0.0007908907823
-7.805703789e-06
-0.0003961432217
-0.0003956256775
-1.079424273e-05
0.0007930489576
-0.0007935771404
1.132242555e-05
-3.255619224e-06
2.796332309e-06
0.0003956084595
2.55830521e-05
0.0003944929317
-1.301250527e-05
-0.0003969026117
2.750190252e-06
0.0003956246167
-0.0003947627923
0.0003949520684
-3.444895307e-06
0.0007883011764
-1.027945217e-05
-0.000788815967
-3.230201427e-06
-0.000397213626
-0.000396425015
4.815787791e-06
-1.283213766e-05
-0.0003980018032
0.0003969833318
1.385060906e-05
-0.0003966558423
-1.286387554e-05
0.0003966875802