/*--------------------------------*- C++ -*----------------------------------*\
| =========                 |                                                 |
| \\      /  F ield         | OpenFOAM: The Open Source CFD Toolbox           |
|  \\    /   O peration     | Version:  v1912                                 |
|   \\  /    A nd           | Website:  www.openfoam.com                      |
|    \\/     M anipulation  |                                                 |
\*---------------------------------------------------------------------------*/
FoamFile
{
    version     2.0;
    format      ascii;
    class       pointVectorField;
    location    "2.94";
    object      pointDisplacement;
}
// * * * * * * * * * * * * * * * * * * * * * * * * * * * * * * * * * * * * * //

dimensions      [0 1 0 0 0 0 0];


internalField   nonuniform List<vector> 
26316
(
(0 0 0)
(0 0 0)
(0 0 0)
(0 0 0)
(0 0 0)
(0 0 0)
(0 0 0)
(0 0 0)
(0 0 0)
(0 0 0)
(0 0 0)
(0 0 0)
(0 0 0)
(0 0 0)
(0 0 0)
(0 0 0)
(0 0 0)
(0 0 0)
(0 0 0)
(0 0 0)
(0 0 0)
(0 0 0)
(0 0 0)
(0 0 0)
(0 0 0)
(0 0 0)
(0 0 0)
(0 0 0)
(0 0 0)
(0 0 0)
(0 0 0)
(0 0 0)
(0 0 0)
(0 0 0)
(0 0 0)
(0 0 0)
(0 0 0)
(0 0 0)
(0 0 0)
(0 0 0)
(0 0 0)
(0 0 0)
(0 0 0)
(0 0 0)
(0 0 0)
(0 0 0)
(0 0 0)
(0 0 0)
(0 0 0)
(0 0 0)
(0 0 0)
(0 0 0)
(0 0 0)
(0 0 0)
(0 0 0)
(0 0 0)
(0 0 0)
(0 0 0)
(0 0 0)
(0 0 0)
(0 0 0)
(0 0 0)
(0 0 0)
(0 0 0)
(0 0 0)
(0 0 0)
(0 0 0)
(0 0 0)
(0 0 0)
(0 0 0)
(0 0 0)
(0 0 0)
(0 0 0)
(0 0 0)
(0 0 0)
(0 0 0)
(0 0 0)
(0 0 0)
(0 0 0)
(0 0 0)
(0 0 0)
(0 0 0)
(0 0 0)
(0 0 0)
(0 0 0)
(0 0 0)
(0 0 0)
(0 0 0)
(0 0 0)
(0 0 0)
(0 0 0)
(0 0 0)
(0 0 0)
(0 0 0)
(0 0 0)
(0 0 0)
(0 0 0)
(0 0 0)
(0 0 0)
(0 0 0)
(0 0 0)
(0 0 0)
(0 0 0)
(0 0 0)
(0 0 0)
(0 0 0)
(0 0 0)
(0 0 0)
(0 0 0)
(0 0 0)
(0 0 0)
(0 0 0)
(0 0 0)
(0 0 0)
(0 0 0)
(0 0 0)
(0 0 0)
(0 0 0)
(0 0 0)
(-6.084374391e-07 7.834132849e-06 2.775557562e-17)
(0 0 0)
(0 0 0)
(-3.357393059e-07 8.775409249e-05 3.330669074e-16)
(1.549989183e-06 7.459702687e-05 2.91433544e-16)
(0 0 0)
(0 0 0)
(0 0 0)
(0 0 0)
(0 0 0)
(0 0 0)
(0 0 0)
(0 0 0)
(0 0 0)
(0 0 0)
(0 0 0)
(0 0 0)
(0 0 0)
(0 0 0)
(0 0 0)
(0 0 0)
(0 0 0)
(0 0 0)
(0 0 0)
(0 0 0)
(0 0 0)
(0 0 0)
(0 0 0)
(0 0 0)
(0 0 0)
(0 0 0)
(0 0 0)
(0 0 0)
(0 0 0)
(0 0 0)
(0 0 0)
(0 0 0)
(0 0 0)
(0 0 0)
(0 0 0)
(0 0 0)
(0 0 0)
(0 0 0)
(0 0 0)
(0 0 0)
(0 0 0)
(0 0 0)
(0 0 0)
(0 0 0)
(0 0 0)
(0 0 0)
(0 0 0)
(0 0 0)
(0 0 0)
(0 0 0)
(0 0 0)
(0 0 0)
(0 0 0)
(0 0 0)
(0 0 0)
(0 0 0)
(0 0 0)
(0 0 0)
(0 0 0)
(0 0 0)
(0 0 0)
(-3.790488571e-05 0.0001150490478 4.996003611e-16)
(-0.0002181192074 0.0007216985665 3.080868893e-15)
(-2.852543563e-06 9.672708499e-06 4.163336342e-17)
(-0.000413998859 0.001923533748 8.007483565e-15)
(-0.00102732573 0.004666684161 1.990074772e-14)
(-0.001218319262 0.006321405673 2.696454171e-14)
(-0.0005687467052 0.003015792976 1.254552018e-14)
(-0.0006907810041 0.006355146561 2.645106356e-14)
(-0.001208037845 0.01092150153 4.658773367e-14)
(-0.001005434264 0.01206760235 5.148659277e-14)
(-0.000593873466 0.007232242428 3.008704397e-14)
(-2.216950689e-05 0.00845762446 3.519406988e-14)
(-2.405991105e-05 0.01363883648 5.818956428e-14)
(0.000340585781 0.01346203152 5.745404152e-14)
(0.0001978286063 0.008318803464 3.462508058e-14)
(0.0006550186469 0.006376206075 2.653433029e-14)
(0.001162049049 0.01094653283 4.672651155e-14)
(0.00127213589 0.009564157065 4.082845173e-14)
(0.0006883945375 0.005337538871 2.221833828e-14)
(0.0004044213361 0.001947621739 8.10462808e-15)
(0.001004087527 0.00470455691 2.008115896e-14)
(0.0007551311071 0.003143343578 1.341982081e-14)
(0.0002362133134 0.00100988296 4.204969706e-15)
(0 0 0)
(3.976509306e-05 0.0001238976372 5.273559367e-16)
(0 0 0)
(0 0 0)
(0 0 0)
(0 0 0)
(0 0 0)
(0 0 0)
(0 0 0)
(0 0 0)
(0 0 0)
(0 0 0)
(0 0 0)
(0 0 0)
(0 0 0)
(0 0 0)
(0 0 0)
(0 0 0)
(0 0 0)
(0 0 0)
(0 0 0)
(0 0 0)
(0 0 0)
(0 0 0)
(0 0 0)
(0 0 0)
(0 0 0)
(0 0 0)
(0 0 0)
(0 0 0)
(0 0 0)
(0 0 0)
(0 0 0)
(0 0 0)
(0 0 0)
(0 0 0)
(0 0 0)
(0 0 0)
(0 0 0)
(0 0 0)
(0 0 0)
(0 0 0)
(0 0 0)
(0 0 0)
(0 0 0)
(0 0 0)
(0 0 0)
(0 0 0)
(-0.0001058619494 0.0002172427847 1.026956298e-15)
(-0.0005781987323 0.001265628942 6.009082121e-15)
(-0.0001369821621 0.0003081329919 1.415534356e-15)
(-0.001952404296 0.005494569269 2.535471832e-14)
(-0.003120712532 0.008558400906 4.059252934e-14)
(-0.003977787898 0.01191815051 5.651035195e-14)
(-0.002682286462 0.008242774961 3.802513859e-14)
(-0.00415574181 0.01764047154 8.135159213e-14)
(-0.005489412557 0.02276004947 1.078581668e-13)
(-0.005509722646 0.02618377687 1.24067423e-13)
(-0.004262464904 0.02072230665 9.556244684e-14)
(-0.003300806304 0.02835152427 1.307565167e-13)
(-0.004086991947 0.03445842152 1.633415625e-13)
(-0.003202842936 0.0363258279 1.722511023e-13)
(-0.002613952315 0.03010767057 1.388889004e-13)
(4.870871173e-05 0.03243012077 1.497135749e-13)
(0.0001019327004 0.0387669845 1.840055885e-13)
(0.001259513243 0.03848443047 1.827288321e-13)
(0.0009899417264 0.03216508 1.485478407e-13)
(0.003348740429 0.02834970084 1.310340725e-13)
(0.004218763586 0.03442960121 1.636607516e-13)
(0.004886697517 0.03208535076 1.525446436e-13)
(0.003848457887 0.02616549428 1.209587985e-13)
(0.004130609352 0.01768423545 8.176792576e-14)
(0.005494557624 0.02278316115 1.083577672e-13)
(0.0051967653 0.01920006567 9.131584378e-14)
(0.003805034384 0.01450575379 6.705747069e-14)
(0.001937266626 0.005558506405 2.568778523e-14)
(0.003099454074 0.008632639266 4.103661855e-14)
(0.002189995182 0.005636312217 2.678413047e-14)
(0.001215563863 0.003221309308 1.487698853e-14)
(0 0 0)
(0.0001051000888 0.0002196052997 1.040834086e-15)
(0 0 0)
(0 0 0)
(0 0 0)
(0 0 0)
(0 0 0)
(0 0 0)
(0 0 0)
(0 0 0)
(0 0 0)
(0 0 0)
(0 0 0)
(0 0 0)
(0 0 0)
(0 0 0)
(0 0 0)
(0 0 0)
(0 0 0)
(0 0 0)
(0 0 0)
(0 0 0)
(0 0 0)
(0 0 0)
(0 0 0)
(0 0 0)
(0 0 0)
(0 0 0)
(0 0 0)
(0 0 0)
(0 0 0)
(0 0 0)
(0 0 0)
(0 0 0)
(0 0 0)
(0 0 0)
(0 0 0)
(0 0 0)
(0 0 0)
(0 0 0)
(0 0 0)
(-4.554658174e-05 6.955872513e-05 3.747002708e-16)
(0 0 0)
(-0.001937699826 0.003645427357 1.890154699e-14)
(-0.002879385736 0.005244702681 2.806088695e-14)
(-0.004503404089 0.008770724045 4.687916721e-14)
(-0.003307621183 0.006646713869 3.444466934e-14)
(-0.007539897415 0.01905346527 9.856004901e-14)
(-0.009145300815 0.02244403061 1.196959198e-13)
(-0.01021244845 0.02742080599 1.46174739e-13)
(-0.008596901245 0.02376224167 1.228600555e-13)
(-0.009728402711 0.0373499059 1.929845173e-13)
(-0.01108081906 0.04134844478 2.202821259e-13)
(-0.01055890682 0.04523620347 2.410294186e-13)
(-0.009363061144 0.04126470629 2.132183319e-13)
(-0.006349848822 0.05005377862 2.588762538e-13)
(-0.007000996525 0.05368830649 2.863820292e-13)
(-0.00533184273 0.05539539592 2.956523915e-13)
(-0.004863071533 0.05189786007 2.685351941e-13)
(0.0002885837716 0.05419234543 2.809141808e-13)
(0.0003351945726 0.05745864698 3.072819776e-13)
(0.002274384385 0.05719125673 3.060746101e-13)
(0.002059741329 0.05390641776 2.796235465e-13)
(0.006809375243 0.04989166018 2.59250954e-13)
(0.007554689556 0.0534708421 2.867567295e-13)
(0.008958608769 0.05118664384 2.746691763e-13)
(0.008028761463 0.04748172719 2.468580895e-13)
(0.009914701812 0.03722001614 1.936784066e-13)
(0.0113389084 0.0411160427 2.20864993e-13)
(0.01138062895 0.03681902631 1.978139874e-13)
(0.009842546204 0.0329622221 1.715294573e-13)
(0.007502709296 0.01895331112 9.85739268e-14)
(0.009352725692 0.02275317313 1.222771884e-13)
(0.00805794815 0.01811179369 9.736655926e-14)
(0.006385576521 0.01487592841 7.738254482e-14)
(0.002211257992 0.004199414956 2.184363801e-14)
(0.003305132125 0.006074445957 3.261280135e-14)
(0.001864673831 0.00323012111 1.733335697e-14)
(0.001065503384 0.001906489076 9.908740495e-15)
(0 0 0)
(0 0 0)
(0 0 0)
(0 0 0)
(0 0 0)
(0 0 0)
(0 0 0)
(0 0 0)
(0 0 0)
(0 0 0)
(0 0 0)
(0 0 0)
(0 0 0)
(0 0 0)
(0 0 0)
(0 0 0)
(0 0 0)
(0 0 0)
(0 0 0)
(0 0 0)
(0 0 0)
(0 0 0)
(0 0 0)
(0 0 0)
(0 0 0)
(0 0 0)
(0 0 0)
(0 0 0)
(0 0 0)
(0 0 0)
(0 0 0)
(0 0 0)
(0 0 0)
(0 0 0)
(0 0 0)
(-0.0002105093191 0.0002761385782 1.637578961e-15)
(-0.0004787172075 0.0006057789215 3.73312492e-15)
(-0.001700104045 0.002265223124 1.391942117e-14)
(-0.001143031631 0.001578382118 9.353628982e-15)
(-0.006711556837 0.01103659305 6.529499164e-14)
(-0.007938980254 0.01260330513 7.724376694e-14)
(-0.01022865279 0.01734983529 1.062205879e-13)
(-0.008869056262 0.0155815524 9.209299989e-14)
(-0.01397155232 0.0309035954 1.821043316e-13)
(-0.01542776889 0.03290007149 2.009226119e-13)
(-0.01624540213 0.03787889627 2.311761893e-13)
(-0.01485120408 0.0359562265 2.116778974e-13)
(-0.01461888662 0.04935792324 2.901567875e-13)
(-0.01552424039 0.05038563726 3.069350329e-13)
(-0.01430669257 0.0533312387 3.248928904e-13)
(-0.01351948649 0.05239098815 3.080591338e-13)
(-0.008429933892 0.0584367321 3.441552598e-13)
(-0.008720757353 0.05796080318 3.536754223e-13)
(-0.006508919819 0.05846762115 3.570477247e-13)
(-0.006330450028 0.0593364666 3.497202528e-13)
(0.0003460469736 0.06012199574 3.552713679e-13)
(0.0003028669242 0.05861861765 3.589489816e-13)
(0.002583313792 0.05855320932 3.588934705e-13)
(0.002597121729 0.05998396739 3.547856453e-13)
(0.009134747454 0.05814139022 3.448769048e-13)
(0.009376214244 0.05759697186 3.541611449e-13)
(0.01143784806 0.05658760086 3.48332474e-13)
(0.01106236251 0.0567180055 3.367583989e-13)
(0.015074136 0.04885587197 2.907812879e-13)
(0.01602548527 0.04985073813 3.080036226e-13)
(0.01678665827 0.04650095523 2.876587857e-13)
(0.01562684414 0.04502052249 2.682853939e-13)
(0.01440389439 0.03140454521 1.872668687e-13)
(0.01587384023 0.0333408155 2.062655602e-13)
(0.01453249545 0.02827216106 1.748323708e-13)
(0.01303452592 0.02632353157 1.568883912e-13)
(0.007090489799 0.01173642264 6.980527267e-14)
(0.008358023202 0.01332948374 8.222589276e-14)
(0.006024020149 0.009063047032 5.585809593e-14)
(0.004935352956 0.007705652485 4.578282198e-14)
(0.0003256661026 0.0004337260911 2.567390744e-15)
(0.0005594776008 0.0007181516266 4.413136523e-15)
(1.420246765e-05 1.736491446e-05 1.110223025e-16)
(0 0 0)
(0 0 0)
(0 0 0)
(0 0 0)
(0 0 0)
(0 0 0)
(0 0 0)
(0 0 0)
(0 0 0)
(0 0 0)
(0 0 0)
(0 0 0)
(0 0 0)
(0 0 0)
(0 0 0)
(0 0 0)
(0 0 0)
(0 0 0)
(0 0 0)
(0 0 0)
(0 0 0)
(0 0 0)
(0 0 0)
(0 0 0)
(0 0 0)
(0 0 0)
(0 0 0)
(0 0 0)
(0 0 0)
(-2.003684472e-05 1.882094359e-05 1.387778781e-16)
(-5.467508206e-07 5.368218319e-07 0)
(0 0 0)
(-0.001502806846 0.00169282628 1.169897512e-14)
(-0.001896759693 0.002048855919 1.476596623e-14)
(-0.003934502202 0.004477314014 3.22103455e-14)
(-0.003356839849 0.003983058399 2.747801986e-14)
(-0.01089184676 0.01541049677 1.059291543e-13)
(-0.01185537207 0.01608852995 1.152689055e-13)
(-0.01439447686 0.02087092918 1.493388746e-13)
(-0.01363763883 0.02062304099 1.415534356e-13)
(-0.0188177249 0.03573657708 2.446376435e-13)
(-0.01959621558 0.03566773702 2.544631172e-13)
(-0.02009905721 0.03993694705 2.84827717e-13)
(-0.01939472833 0.04022020734 2.752242878e-13)
(-0.01744778925 0.04979388689 3.408523463e-13)
(-0.01781771688 0.04861533727 3.469863286e-13)
(-0.01601284973 0.04984581602 3.559930128e-13)
(-0.0157833075 0.05148103284 3.524680547e-13)
(-0.009141388456 0.05239332408 0)
(-0.009287221571 0.05018398698 0)
(-0.008137904519 0.05017519927 0)
(-0.00692560088 0.05021483774 0)
(-0.006843239248 0.05130825306 0)
(-0.006806180446 0.05237623182 0)
(0.0001420792352 0.05224674155 0)
(0.0001155811578 0.05118451915 0)
(0.001279309291 0.05115642052 0)
(0.001299502391 0.05221870024 0)
(0.009497586923 0.05192625277 0)
(0.009505102742 0.05083443231 0)
(0.00952045057 0.04972550407 0)
(0.01067724262 0.04966325454 0)
(0.01181775459 0.04962245167 0)
(0.0118220342 0.05181451647 0)
(0.01784241353 0.04931505609 3.432115703e-13)
(0.01811203935 0.04806792213 3.490541189e-13)
(0.0194899177 0.04610168609 3.350653088e-13)
(0.01907402779 0.04701695597 3.274464033e-13)
(0.01927309332 0.0359409733 2.504524366e-13)
(0.01996408978 0.03566005086 2.59514632e-13)
(0.01895122724 0.03132335224 2.279010314e-13)
(0.01809345814 0.0312301661 2.175620795e-13)
(0.01167252953 0.01649753565 1.146721607e-13)
(0.01276556128 0.01728210743 1.253996906e-13)
(0.01005755451 0.01284901179 9.311995619e-14)
(0.009058379718 0.01208039895 8.387734951e-14)
(0.002016646788 0.002299369048 1.590394483e-14)
(0.00252074499 0.002754360507 1.988686993e-14)
(0.000903057169 0.0009408460813 6.786238238e-15)
(0.0006144267565 0.0006678691388 4.62130334e-15)
(0 0 0)
(0 0 0)
(0 0 0)
(0 0 0)
(0 0 0)
(0 0 0)
(0 0 0)
(0 0 0)
(0 0 0)
(0 0 0)
(0 0 0)
(0 0 0)
(0 0 0)
(0 0 0)
(0 0 0)
(0 0 0)
(0 0 0)
(0 0 0)
(0 0 0)
(0 0 0)
(0 0 0)
(0 0 0)
(0 0 0)
(0 0 0)
(0 0 0)
(0 0 0)
(0 0 0)
(0 0 0)
(-0.0001805421028 0.0001389392983 1.276756478e-15)
(-0.0001028858744 8.354154688e-05 7.21644966e-16)
(-8.4169615e-05 7.190381502e-05 5.828670879e-16)
(-0.002725355699 0.002562528596 2.119138198e-14)
(-0.002826490811 0.002525980313 2.19685381e-14)
(-0.005232952627 0.004927667025 4.27990976e-14)
(-0.005094663527 0.005047376852 4.167499679e-14)
(-0.01369751284 0.01618257661 1.329492072e-13)
(-0.01391710253 0.0156269458 1.350169976e-13)
(-0.01656638971 0.01986726135 1.713629239e-13)
(-0.01633181469 0.02060846657 1.690592111e-13)
(-0.02117918168 0.0334734228 2.738087534e-13)
(-0.02140178522 0.03212977337 2.76320633e-13)
(-0.02167692307 0.03547604747 3.050476538e-13)
(-0.02147530593 0.03701419073 3.027023077e-13)
(-0.01840584213 0.04336301168 3.551187122e-13)
(-0.01850491807 0.04132907311 3.559930128e-13)
(-0.01638843938 0.04162383953 0)
(-0.01633159408 0.04378531238 3.589489816e-13)
(-0.009526587722 0.04364207936 0)
(-0.009560212124 0.04254618337 0)
(-0.008426684567 0.0425245664 0)
(-0.008393202534 0.04361873832 0)
(0.009433687188 0.04320311297 0)
(0.009413153252 0.04211752966 0)
(0.01054610766 0.04208486884 0)
(0.01056779475 0.04316881574 0)
(0.01841857576 0.04271831898 3.571865026e-13)
(0.01841177332 0.04067612884 3.580469254e-13)
(0.020250116 0.0397986938 3.507888424e-13)
(0.02018336479 0.04166406106 3.487765632e-13)
(0.02188506954 0.03404302818 2.853273173e-13)
(0.02213808137 0.03275129342 2.890604422e-13)
(0.02137339218 0.02923882597 2.57946442e-13)
(0.02107829472 0.0303269111 2.540745392e-13)
(0.01498171428 0.01764034549 1.47284962e-13)
(0.01531754396 0.01714024368 1.506711422e-13)
(0.01243785846 0.01313035175 1.1524115e-13)
(0.01211925725 0.01346435407 1.122435478e-13)
(0.003657326228 0.00347632107 2.883804306e-14)
(0.004129952571 0.00372852895 3.257116798e-14)
(0.001969645886 0.001696184832 1.47937218e-14)
(0.001621446042 0.001469938506 1.21846977e-14)
(0 0 0)
(0 0 0)
(0 0 0)
(0 0 0)
(0 0 0)
(0 0 0)
(0 0 0)
(0 0 0)
(0 0 0)
(0 0 0)
(0 0 0)
(0 0 0)
(0 0 0)
(0 0 0)
(0 0 0)
(0 0 0)
(0 0 0)
(0 0 0)
(0 0 0)
(0 0 0)
(0 0 0)
(0 0 0)
(0 0 0)
(0 0 0)
(0 0 0)
(0 0 0)
(0 0 0)
(0 0 0)
(-0.0002963714614 0.0001779716521 2.095545959e-15)
(-0.000267682396 0.0001720457233 1.887379142e-15)
(-0.000234833294 0.000160855489 1.665334537e-15)
(-0.00335848773 0.002532727258 2.610411887e-14)
(-0.003472859883 0.002457841404 2.69784195e-14)
(-0.006056158477 0.004517452632 4.950206911e-14)
(-0.005912959104 0.00469948393 4.835021272e-14)
(-0.01478951056 0.01401679402 1.432604035e-13)
(-0.01496950267 0.01331597589 1.449396159e-13)
(-0.01759978452 0.01671486651 1.815769757e-13)
(-0.0174224503 0.0176305075 1.7985613e-13)
(-0.02204485442 0.0278746751 2.834399382e-13)
(-0.02218391892 0.02631164739 2.84827717e-13)
(-0.02233694397 0.02884501174 3.122224701e-13)
(-0.02221673116 0.03059472784 3.110567359e-13)
(-0.01873086757 0.03506541395 3.573669138e-13)
(-0.01879235322 0.03295046791 3.575889584e-13)
(-0.0165966002 0.03302256724 0)
(-0.01654603536 0.03516756706 0)
(-0.009752369664 0.03500033582 0)
(-0.009778316904 0.03392710629 0)
(-0.008647775338 0.03389943512 0)
(-0.008621678958 0.03497266094 0)
(0.009244007265 0.03454288001 0)
(0.00921740586 0.03346334925 0)
(0.01034772137 0.03343458933 0)
(0.01037450803 0.0345135683 0)
(0.01829508111 0.03430520316 3.589073483e-13)
(0.01824110281 0.03215545518 3.589489816e-13)
(0.02027160359 0.03173547491 3.548272787e-13)
(0.0202956488 0.03381247657 3.542860449e-13)
(0.02277714967 0.02846676108 2.988304049e-13)
(0.02287685597 0.02683610242 3.006622729e-13)
(0.02234768973 0.02421329954 2.711719738e-13)
(0.02220440859 0.02563869196 2.690347944e-13)
(0.01652213607 0.01558129316 1.628419621e-13)
(0.01675888582 0.01482291873 1.652983306e-13)
(0.01391055786 0.01160637478 1.291466933e-13)
(0.01366311005 0.01215528328 1.267597138e-13)
(0.004735496369 0.003605894288 3.737288257e-14)
(0.004927884559 0.003519595946 3.888556144e-14)
(0.002541287668 0.001731795942 1.909583602e-14)
(0.00239579195 0.001740487323 1.801336857e-14)
(0 0 0)
(0 0 0)
(0 0 0)
(0 0 0)
(0 0 0)
(0 0 0)
(0 0 0)
(0 0 0)
(0 0 0)
(0 0 0)
(0 0 0)
(0 0 0)
(0 0 0)
(0 0 0)
(0 0 0)
(0 0 0)
(0 0 0)
(0 0 0)
(0 0 0)
(0 0 0)
(0 0 0)
(0 0 0)
(0 0 0)
(0 0 0)
(0 0 0)
(0 0 0)
(0 0 0)
(0 0 0)
(-0.0004371923926 0.000188778227 3.080868893e-15)
(-0.0003941568865 0.0001868161445 2.789435349e-15)
(-0.0003558403584 0.0001836620863 2.525757381e-15)
(-0.003757668374 0.002137068996 2.919886555e-14)
(-0.003873038708 0.00202337346 3.008704397e-14)
(-0.006552434266 0.003609653274 5.354050536e-14)
(-0.006410313573 0.003843661903 5.237477119e-14)
(-0.01541400616 0.01102755408 1.490196855e-13)
(-0.01558923538 0.01025055172 1.506295089e-13)
(-0.01821196643 0.01278448511 1.873501354e-13)
(-0.01803974067 0.01377803553 1.857125564e-13)
(-0.02253914922 0.0214692323 2.881722638e-13)
(-0.02267339893 0.01984286247 2.894906537e-13)
(-0.02276468743 0.02166709801 3.160527395e-13)
(-0.02264899376 0.02346929708 3.149841499e-13)
(-0.01896502176 0.0265876429 3.580469254e-13)
(-0.0190224675 0.02446456584 3.582134589e-13)
(-0.01679512964 0.02446053229 0)
(-0.01674584917 0.02659989323 0)
(-0.009956603008 0.02643297089 0)
(-0.009981800112 0.0253639012 0)
(-0.008852793476 0.02533651693 0)
(-0.008840094262 0.02587109901 0)
(-0.008827406175 0.02640523368 0)
(0.009019002627 0.02591638856 0)
(0.008989221534 0.0248410159 0)
(0.01011828901 0.02481407781 0)
(0.01014821059 0.02588909877 0)
(0.01806299394 0.02569671525 3.589212261e-13)
(0.01799910191 0.0235471799 3.588518371e-13)
(0.01999234755 0.02318014146 3.539946114e-13)
(0.02007793044 0.02532886762 3.544664562e-13)
(0.02265797034 0.02134492395 2.994271497e-13)
(0.02253347033 0.01948621847 2.983446823e-13)
(0.02199858205 0.01755448517 2.68604583e-13)
(0.02212718334 0.01923957304 2.697564394e-13)
(0.01655081443 0.01173591835 1.636468738e-13)
(0.01643307228 0.01069237097 1.626060397e-13)
(0.01360539314 0.008351234341 1.266348137e-13)
(0.01371313294 0.009172674417 1.275507477e-13)
(0.004794146449 0.0027465649 3.785860514e-14)
(0.00473132764 0.002488241837 3.738676035e-14)
(0.002397001418 0.001203173738 1.804112415e-14)
(0.002441304652 0.001334760402 1.834643548e-14)
(0 0 0)
(0 0 0)
(0 0 0)
(0 0 0)
(0 0 0)
(0 0 0)
(0 0 0)
(0 0 0)
(0 0 0)
(0 0 0)
(0 0 0)
(0 0 0)
(0 0 0)
(0 0 0)
(0 0 0)
(0 0 0)
(0 0 0)
(0 0 0)
(0 0 0)
(0 0 0)
(0 0 0)
(0 0 0)
(0 0 0)
(0 0 0)
(0 0 0)
(0 0 0)
(0 0 0)
(0 0 0)
(-0.0006261064467 0.0001647366496 4.427014311e-15)
(-0.0005749303974 0.0001755136751 4.066191828e-15)
(-0.0005254335116 0.0001825616347 3.719247132e-15)
(-0.004233859203 0.001623673176 3.28903571e-14)
(-0.004361013335 0.001470530231 3.387568004e-14)
(-0.007147273231 0.002544751991 5.835609773e-14)
(-0.006993245386 0.002830414601 5.712097462e-14)
(-0.01612614256 0.007807526757 1.555422457e-13)
(-0.01631146822 0.006956529057 1.572353359e-13)
(-0.01891935643 0.008619660415 1.940392291e-13)
(-0.01873826674 0.009688874439 1.923322612e-13)
(-0.02308014549 0.01486840131 2.934041898e-13)
(-0.02321848172 0.01317995138 2.947364575e-13)
(-0.0232313643 0.01432585694 3.203548538e-13)
(-0.02311348984 0.01618004628 3.192723863e-13)
(-0.0191897913 0.01807621209 3.58602037e-13)
(-0.01924378599 0.01594233496 3.586991815e-13)
(-0.01699008838 0.01589806032 0)
(-0.01694172154 0.01803868759 0)
(-0.01015664389 0.01787216739 0)
(-0.01018121945 0.01680208736 0)
(-0.009054152867 0.01677470159 0)
(-0.009041740804 0.01730973852 0)
(-0.009029281501 0.01784467478 0)
(0.008772658978 0.01732594513 0)
(0.008739832754 0.01625214053 0)
(0.009867834977 0.01622637305 0)
(0.009900902349 0.01729987319 0)
(0.01776853086 0.01707364001 3.580191699e-13)
(0.01766898292 0.01490517647 3.572975249e-13)
(0.01945550665 0.01450570076 3.486932965e-13)
(0.01962855507 0.01668299409 3.507194535e-13)
(0.021716215 0.01371535813 2.891298312e-13)
(0.02125538135 0.01176246517 2.834954493e-13)
(0.0206612955 0.01054300563 2.53824739e-13)
(0.0210404605 0.01225612833 2.580990976e-13)
(0.01521913831 0.007231789843 1.509625758e-13)
(0.01483349494 0.006178834277 1.472433286e-13)
(0.01203238458 0.004732661356 1.122574256e-13)
(0.01239143418 0.00555777572 1.155325835e-13)
(0.003866964214 0.001488915736 3.057276654e-14)
(0.003659314908 0.001237120357 2.893518758e-14)
(0.001627103527 0.0005253453956 1.224020885e-14)
(0.001766363421 0.0006493792851 1.329492072e-14)
(0 0 0)
(0 0 0)
(0 0 0)
(0 0 0)
(0 0 0)
(0 0 0)
(0 0 0)
(0 0 0)
(0 0 0)
(0 0 0)
(0 0 0)
(0 0 0)
(0 0 0)
(0 0 0)
(0 0 0)
(0 0 0)
(0 0 0)
(0 0 0)
(0 0 0)
(0 0 0)
(0 0 0)
(0 0 0)
(0 0 0)
(0 0 0)
(0 0 0)
(0 0 0)
(0 0 0)
(0 0 0)
(-0.0007913432989 7.473897227e-05 5.592748487e-15)
(-0.0008183763519 0.0001118226545 5.787037516e-15)
(-0.0007470521365 0.0001335724111 5.287437155e-15)
(-0.004776771958 0.0009477305545 3.708144902e-14)
(-0.004939368281 0.0007515815958 3.834432771e-14)
(-0.007839839608 0.001266384011 6.394884622e-14)
(-0.007646406155 0.001606724949 6.239453398e-14)
(-0.01690300574 0.004292047464 1.626199175e-13)
(-0.01712803749 0.003366512771 1.646738301e-13)
(-0.01971273922 0.004154997859 2.014916012e-13)
(-0.01949505715 0.005299375485 1.994515664e-13)
(-0.02365094604 0.0080262966 2.988720382e-13)
(-0.02380985518 0.006278923779 3.004124727e-13)
(-0.02372853986 0.00678892767 3.249067682e-13)
(-0.02359647918 0.008691235928 3.236855228e-13)
(-0.01940025281 0.009532927022 3.589073483e-13)
(-0.01945067588 0.00739367498 3.589489816e-13)
(-0.01718185212 0.007338045831 0)
(-0.01713394507 0.009478187092 0)
(-0.01034999103 0.009312490748 0)
(-0.01037361957 0.00824248665 0)
(-0.009248684478 0.00821540262 0)
(-0.009236765839 0.008750601049 0)
(-0.009224807378 0.009285400535 0)
(0.008502314856 0.008756543447 0)
(0.008466444483 0.007686346388 0)
(0.009594071255 0.007661483638 0)
(0.009630289622 0.008731672041 0)
(0.01729412552 0.008429129548 3.536199111e-13)
(0.01712828931 0.0062870164 3.51538243e-13)
(0.01861449592 0.006007430524 3.377298441e-13)
(0.01886868152 0.008100768695 3.413103133e-13)
(0.01995718191 0.006336239159 2.675221156e-13)
(0.01961297135 0.004672340192 2.633587792e-13)
(0.01860602562 0.004093628199 2.297745327e-13)
(0.01920073479 0.005623158953 2.368383267e-13)
(0.01310274372 0.003150497856 1.302985497e-13)
(0.01228051859 0.002231760894 1.221800439e-13)
(0.009524210949 0.001643216862 8.9012131e-14)
(0.0103487788 0.00235637313 9.668654766e-14)
(0.002596168224 0.0005118535534 2.053912596e-14)
(0.002267336954 0.0003404603711 1.794397964e-14)
(0.0007364614421 0.0001058628209 5.537237335e-15)
(0.0009269567909 0.0001747693824 6.980527267e-15)
(0 0 0)
(0 0 0)
(0 0 0)
(0 0 0)
(0 0 0)
(0 0 0)
(0 0 0)
(0 0 0)
(0 0 0)
(0 0 0)
(0 0 0)
(0 0 0)
(0 0 0)
(0 0 0)
(0 0 0)
(0 0 0)
(0 0 0)
(0 0 0)
(0 0 0)
(0 0 0)
(0 0 0)
(0 0 0)
(0 0 0)
(0 0 0)
(0 0 0)
(0 0 0)
(0 0 0)
(0 0 0)
(-0.001407011933 -0.000104395188 9.950373858e-15)
(-0.001282737362 -4.088878573e-05 9.076073226e-15)
(-0.001097789477 1.121833716e-05 7.771561172e-15)
(-0.005462051566 7.405996031e-05 4.238276397e-14)
(-0.005868813406 -0.0001906542721 4.551914401e-14)
(-0.008902789558 -0.0002885523302 7.253919687e-14)
(-0.008404904188 0.0001336655287 6.850076062e-14)
(-0.01788841299 0.0004470931695 1.71612724e-13)
(-0.01822290771 -0.0005825599457 1.746658373e-13)
(-0.02072077251 -0.0006675519656 2.10984008e-13)
(-0.02044336293 0.0005794374015 2.083611061e-13)
(-0.02432863723 0.000930006559 3.054778652e-13)
(-0.02442045057 -0.0008920449352 3.06143999e-13)
(-0.02430241509 -0.0009656927465 3.302913498e-13)
(-0.02415316469 0.0009968539467 3.28903571e-13)
(-0.01959920172 0.0009745697621 0)
(-0.01965003691 -0.001165299694 0)
(-0.01737781305 -0.001220720153 0)
(-0.01735260358 -0.0001511533286 0)
(-0.01732768992 0.0009185203411 0)
(-0.0105366207 0.0007528957479 0)
(-0.01054826852 0.000218585976 0)
(-0.009985646887 0.0002052391047 0)
(-0.009974052493 0.0007394009732 0)
(-0.000778838223 0.0003832529984 0)
(-0.0007916659529 0.0001169438566 0)
(-0.0008027032514 -0.0001494595609 0)
(-0.0002517115263 -0.0001568960933 0)
(-0.0002270062921 0.0003753976158 0)
(0.008190714795 0.0002084137187 0)
(0.008146703295 -0.000857103888 0)
(0.008102251793 -0.001922312086 0)
(0.01036414837 -0.001972948975 0)
(0.01045020139 0.0001588813971 0)
(0.009320878184 0.0001835376213 0)
(0.01651949048 1.856153884e-05 3.428923812e-13)
(0.01622592046 -0.001988155379 3.380212776e-13)
(0.01731200577 -0.00189147265 3.17787463e-13)
(0.0177767345 -9.798438113e-06 3.254063685e-13)
(0.01793483406 -6.127891181e-06 2.418620859e-13)
(0.0172868566 -0.001385551305 2.334105131e-13)
(0.01603967696 -0.0011625865 1.98951966e-13)
(0.01671743269 1.353210096e-05 2.071537386e-13)
(0.01017680301 5.347288537e-05 1.013911177e-13)
(0.00956402306 -0.0005134847461 9.532652445e-14)
(0.006997708312 -0.0003408869298 6.548928067e-14)
(0.007537369231 5.034687669e-05 7.051303985e-14)
(0.001072183554 9.888768003e-06 8.493206138e-15)
(0.0008715925166 -3.298737469e-05 6.89726054e-15)
(6.910817262e-05 -2.459590908e-06 5.273559367e-16)
(0.0001320349118 1.226867455e-06 9.992007222e-16)
(0 0 0)
(0 0 0)
(0 0 0)
(0 0 0)
(0 0 0)
(0 0 0)
(0 0 0)
(0 0 0)
(0 0 0)
(0 0 0)
(0 0 0)
(0 0 0)
(0 0 0)
(0 0 0)
(0 0 0)
(0 0 0)
(0 0 0)
(0 0 0)
(0 0 0)
(0 0 0)
(0 0 0)
(0 0 0)
(0 0 0)
(0 0 0)
(0 0 0)
(0 0 0)
(0 0 0)
(0 0 0)
(-0.001334339945 -0.0003258877865 9.478529073e-15)
(-0.001507933391 -0.0003042281019 1.071365219e-14)
(-0.001611322052 -0.0002567243407 1.144917494e-14)
(-0.006500780541 -0.00111869693 5.06539255e-14)
(-0.006291935145 -0.001375759815 4.901634654e-14)
(-0.009387779186 -0.002139194554 7.679967773e-14)
(-0.009637814563 -0.001724746471 7.885359032e-14)
(-0.01905243906 -0.003890088467 1.832700658e-13)
(-0.01874760095 -0.00490495188 1.802585858e-13)
(-0.02121566617 -0.005857863738 2.166183899e-13)
(-0.02151218704 -0.004628167669 2.197964033e-13)
(-0.0249222417 -0.006527839934 3.134020821e-13)
(-0.02472989263 -0.008325467539 3.105710134e-13)
(-0.02442615627 -0.008922489954 3.325395515e-13)
(-0.02456110545 -0.006985328552 3.34926531e-13)
(-0.01955166405 -0.007612139916 0)
(-0.01960489413 -0.009752298014 0)
(-0.01732633417 -0.009808970434 0)
(-0.01729972531 -0.008739139951 0)
(-0.01727310409 -0.007668812335 0)
(-0.01043752363 -0.007838827122 0)
(-0.01046414486 -0.008909154738 0)
(-0.009324914591 -0.008937489711 0)
(-0.009311597797 -0.008402077337 0)
(-0.009298293367 -0.007867162095 0)
(-0.0098679085 -0.007852994609 0)
(-0.001323434566 -0.008065513051 0)
(-0.001336738043 -0.008600428316 0)
(-0.001350054361 -0.009135840703 0)
(-0.0002107890894 -0.009164176547 0)
(-0.0001841678651 -0.008093848931 0)
(0.007790657771 -0.008292199061 0)
(0.007737427687 -0.01043235716 0)
(0.009981636444 -0.01044800116 3.575889584e-13)
(0.01006203289 -0.008342077989 3.586714259e-13)
(0.01536746461 -0.007660208055 3.237549118e-13)
(0.01498248096 -0.009365821435 3.168437734e-13)
(0.01573804702 -0.008656265069 2.92349478e-13)
(0.01620046243 -0.007115178776 3.000794058e-13)
(0.01504635817 -0.004817299053 2.038091917e-13)
(0.01443744487 -0.005783670762 1.958017082e-13)
(0.01287457766 -0.004713520247 1.601357935e-13)
(0.01375576755 -0.004026540523 1.710298569e-13)
(0.007218451823 -0.001662599651 7.199796315e-14)
(0.006291015945 -0.00181850186 6.275535647e-14)
(0.004275286212 -0.001154580017 4.003741783e-14)
(0.004871634532 -0.001045792022 4.561628852e-14)
(0.0001794520231 -3.214087605e-05 1.415534356e-15)
(8.105734913e-05 -1.834332494e-05 6.383782392e-16)
(0 0 0)
(0 0 0)
(0 0 0)
(0 0 0)
(0 0 0)
(0 0 0)
(0 0 0)
(0 0 0)
(0 0 0)
(0 0 0)
(0 0 0)
(0 0 0)
(0 0 0)
(0 0 0)
(0 0 0)
(0 0 0)
(0 0 0)
(0 0 0)
(0 0 0)
(0 0 0)
(0 0 0)
(0 0 0)
(0 0 0)
(0 0 0)
(0 0 0)
(0 0 0)
(0 0 0)
(0 0 0)
(0 0 0)
(0 0 0)
(-0.0003116487159 -0.0001291557249 2.220446049e-15)
(-0.0005654954744 -0.0002102882461 4.024558464e-15)
(-0.0008401562497 -0.0002766583185 5.967448757e-15)
(-0.004821183717 -0.001730760209 3.75671716e-14)
(-0.004119025618 -0.001672237953 3.211320099e-14)
(-0.006710544178 -0.002851241614 5.492828414e-14)
(-0.007591203292 -0.002849875214 6.211697823e-14)
(-0.01642968365 -0.007149594393 1.57943103e-13)
(-0.01523140994 -0.007516972743 1.464939281e-13)
(-0.01768471694 -0.009234313677 1.805500194e-13)
(-0.01890267144 -0.008699464507 1.929012505e-13)
(-0.02298144628 -0.01290773564 2.87964097e-13)
(-0.02197131057 -0.0140020834 2.753075545e-13)
(-0.02216443614 -0.01529254541 3.007316618e-13)
(-0.02302740613 -0.01400870907 3.125277814e-13)
(-0.01953858175 -0.01600441141 3.550909566e-13)
(-0.01924775741 -0.01783074851 3.492206524e-13)
(-0.01738040574 -0.01821922179 3.559097461e-13)
(-0.01747494818 -0.01622104763 3.587408148e-13)
(-0.0106504687 -0.01640045378 0)
(-0.01070371115 -0.01854110902 0)
(-0.008425200901 -0.0185977802 0)
(-0.008371958452 -0.01645712497 0)
(-0.009511238432 -0.01642878876 0)
(-0.001536377997 -0.01662713975 0)
(-0.001589620446 -0.01876779499 0)
(0.0006889047155 -0.01882446654 0)
(0.0007421471643 -0.01668381131 0)
(0.007520711403 -0.01670198065 3.557570905e-13)
(0.007371016782 -0.01852809241 3.502198531e-13)
(0.009335486883 -0.01800589688 3.394784454e-13)
(0.009581454337 -0.01636893667 3.476247068e-13)
(0.01371833261 -0.0137864597 2.910449659e-13)
(0.01312601139 -0.01484032211 2.784716902e-13)
(0.01342479695 -0.0133111536 2.496891582e-13)
(0.01411872003 -0.01244949589 2.626926454e-13)
(0.01194502221 -0.007651956856 1.620092949e-13)
(0.01109811091 -0.007993573502 1.504352198e-13)
(0.009420463599 -0.006208558437 1.171007735e-13)
(0.01025142483 -0.006006981782 1.274952366e-13)
(0.004026498463 -0.001874596475 4.016231792e-14)
(0.003459662534 -0.001814511249 3.450018049e-14)