/*--------------------------------*- C++ -*----------------------------------*\
| =========                 |                                                 |
| \\      /  F ield         | OpenFOAM: The Open Source CFD Toolbox           |
|  \\    /   O peration     | Version:  v1912                                 |
|   \\  /    A nd           | Website:  www.openfoam.com                      |
|    \\/     M anipulation  |                                                 |
\*---------------------------------------------------------------------------*/
FoamFile
{
    version     2.0;
    format      ascii;
    class       surfaceScalarField;
    location    "2.02";
    object      meshPhi;
}
// * * * * * * * * * * * * * * * * * * * * * * * * * * * * * * * * * * * * * //

dimensions      [0 3 -1 0 0 0 0];
oriented        oriented;


internalField   nonuniform List<scalar> 
25162
(
0
0
0
0
0
0
0
0
0
0
0
0
0
0
0
0
0
0
0
0
0
0
0
0
0
0
0
0
0
0
0
0
0
0
0
0
0
0
0
0
0
0
0
0
0
0
0
0
0
0
0
0
0
0
0
0
0
0
0
0
0
0
0
0
0
0
0
0
0
0
0
0
0
0
0
0
0
0
0
0
0
0
0
0
0
0
0
0
0
0
0
0
0
0
0
0
0
0
0
0
0
0
0
0
4.914271728e-09
1.122599571e-07
-1.257097214e-06
0
-8.22566549e-09
1.068723149e-06
0
0
0
0
0
0
0
0
0
0
0
0
0
0
0
0
0
0
0
0
0
0
0
0
0
0
0
0
0
0
0
0
0
0
0
0
0
0
0
0
0
0
0
0
0
0
0
0
0
0
0
0
0
0
0
0
0
0
0
0
0
0
0
0
0
0
-2.276229706e-08
-1.900311797e-06
2.14456005e-06
1.198365059e-05
-8.39385306e-06
-0.0001050576247
1.956485314e-05
0.0001484329698
-9.730645833e-06
-0.0002756384463
1.546740912e-05
0.0003092181178
3.307721437e-06
-0.0003600486544
-7.910847059e-06
0.0003570848242
1.069030358e-05
-0.0002884600858
-2.018149427e-05
0.000249036802
4.746855999e-06
-0.0001115299156
-1.257445772e-05
6.953893264e-05
0
-2.052678558e-06
-3.127272362e-07
0
0
0
0
0
0
0
0
0
0
0
0
0
0
0
0
0
0
0
0
0
0
0
0
0
0
0
0
0
0
0
0
0
0
0
0
0
0
0
0
0
0
0
0
0
0
0
0
0
0
0
-1.12337724e-06
-4.167343747e-06
5.987392055e-06
2.955786771e-05
-4.471645179e-05
-0.000253983484
7.074882997e-05
0.0003620610622
-7.302824137e-05
-0.0007228971892
9.332526046e-05
0.0008420236733
-2.421961357e-05
-0.001148652783
2.07620618e-05
0.001224834957
4.523335302e-05
-0.001347667655
-6.706689881e-05
0.001349203441
7.215896573e-05
-0.001228417438
-9.818533687e-05
0.001147579437
5.38479734e-05
-0.0008078468738
-7.282393352e-05
0.0006737938068
2.038084975e-05
-0.0002816192584
-3.210019772e-05
0.0001747119166
0
-4.276119827e-06
-8.988484368e-07
0
0
0
0
0
0
0
0
0
0
0
0
0
0
0
0
0
0
0
0
0
0
0
0
0
0
0
0
0
0
0
0
0
0
0
0
0
0
0
0
0
0
0
0
0
3.691891676e-07
1.622541563e-06
-5.399309165e-05
-0.0001938251
8.141864487e-05
0.0003296956051
-0.0001702852252
-0.000863814985
0.0002057729299
0.001064056007
-0.0001428153965
-0.001650836462
0.0001524478458
0.001825365918
1.213323106e-05
-0.002236560091
-2.823112923e-05
0.002330144522
0.0001521801393
-0.002476561302
-0.0001814501864
0.002481720036
0.000197909639
-0.002360632835
-0.0002350245961
0.002270488302
0.0001442889894
-0.001838866991
-0.0001725538123
0.00164554769
9.444266427e-05
-0.001021266839
-0.0001119043117
0.0008036501613
2.023781799e-05
-0.0002400164419
-2.941365931e-05
0.0001187889269
0
0
0
0
0
0
0
0
0
0
0
0
0
0
0
0
0
0
0
0
0
0
0
0
0
0
0
0
0
0
0
0
0
0
0
0
0
0
0
0
0
0
-1.234871646e-05
-2.347471992e-05
2.07238402e-05
0.0001006796401
-0.0001791921521
-0.000600750003
0.0002127706151
0.0008319472995
-0.0003206434456
-0.001633391135
0.0003334026803
0.001908403802
-0.0001591825
-0.002575680146
0.0001798809111
0.002719682065
7.316755449e-05
-0.00303058107
-7.957704933e-05
0.003074592773
0.0002424914369
-0.003118212937
-0.0002482790028
0.00311925722
0.0003485896598
-0.003094969173
-0.0003759796113
0.003050125297
0.0003426607886
-0.002796768574
-0.0003719200705
0.002603985826
0.000134635136
-0.001825488961
-0.0001503031131
0.001540332375
5.500864016e-05
-0.0007009853509
-6.233384595e-05
0.000466302738
-3.146516324e-05
2.486488182e-06
-4.22418089e-06
4.789019441e-07
0
0
0
0
0
0
0
0
0
0
0
0
0
0
0
0
0
0
0
0
0
0
0
0
0
0
0
0
0
0
0
0
0
0
0
3.241473952e-07
1.78549132e-08
6.806331127e-07
-5.008286005e-05
-0.0001197652497
6.14637466e-05
0.0002685439298
-0.0003079586487
-0.0009826832378
0.0003194860759
0.001303359447
-0.0003679477385
-0.002231473413
0.0003778943848
0.002508579764
-0.0001536538106
-0.003138152193
0.00011606037
0.003272702764
4.066181875e-05
-0.003390112039
4.983781251e-05
-1.482992544e-05
0.001633962698
0.001680479635
-0.0016249577
0.0001198693435
-0.0001203951309
0.001625483487
-0.001675434244
0.00048594706
0.003371321986
-0.001711135996
-0.0002222580185
-0.0002484407874
-0.003202828049
0.0003988507089
-0.0004268033824
0.003084813204
0.0002052713173
-0.002428346925
-0.0002264013325
0.002133085654
8.017967336e-05
-0.0011453367
-8.369173754e-05
0.0008408191938
-0.0001671909777
1.621763114e-05
-2.019286711e-05
5.290330976e-05
0
0
0
0
0
0
0
0
0
0
0
0
0
0
0
0
0
0
0
0
0
0
0
0
0
0
0
0
0
0
0
0
0
-1.358802639e-06
0
2.906869111e-06
6.318546137e-06
9.685710169e-06
-8.563654372e-05
-0.0002055763135
8.861720962e-05
0.00040187828
-0.000368593686
-0.00127142298
0.000374696995
0.00161448474
-0.0003855999621
-0.002610587183
0.0003844446533
0.002888763638
-7.560597584e-05
-0.003407310743
6.694131913e-05
0.003448760755
3.636902343e-05
-0.001743876929
-3.353248869e-05
0.001741040394
-0.001727972352
0.0002030358718
-0.0002003620418
0.001725298522
-0.00342194454
0.0004822833026
-0.000493445687
0.003356050588
0.0002542683047
-0.002770924026
-0.0002612364492
0.002473367698
9.329033227e-05
-0.001441401037
-9.643893701e-05
0.001101226503
-0.0003000782553
2.842196945e-05
-3.181422592e-05
0.0001312695298
0
0
0
0
0
0
0
0
0
0
0
0
0
0
0
0
0
0
0
0
0
0
0
0
0
0
0
0
0
0
0
0
0
-3.76779141e-06
0
4.765405902e-06
1.758650174e-05
1.99022049e-05
-0.0001036679505
-0.0002618687107
0.0001068992543
0.0004821880616
-0.0003945434441
-0.001418663719
0.0003985814865
0.001779346665
-0.0003830902271
-0.002801083538
0.0003830322474
0.003074134316
-5.588415183e-05
-0.003533526616
5.447197295e-05
0.003549593943
4.312821003e-05
-0.001772069272
-4.312435761e-05
0.00177206542
-0.001782420614
0.0001948929314
-0.0001939641689
0.001781491852
-0.003563714287
0.0005072209261
-0.0005092704241
0.003521908228
0.0002872690947
-0.002987702797
-0.0002928292061
0.002695620079
0.0001026045329
-0.001641752275
-0.0001046197349
0.001280738516
-0.0003808886943
3.559597605e-05
-3.6815789e-05
0.0001850509003
0
0
0
0
0
0
0
0
0
0
0
0
0
0
0
0
0
0
0
0
0
0
0
0
0
0
0
0
0
0
0
0
0
-5.748804207e-06
0
7.107099749e-06
2.713174849e-05
3.033401991e-05
-0.0001149601252
-0.0003023384783
0.0001182256315
0.0005396497
-0.000408785915
-0.001525018878
0.0004127360035
0.001898935798
-0.0003834323042
-0.00294344896
0.0003833848998
0.003217307793
-5.162430731e-05
-0.003658151599
5.08277413e-05
0.003667378383
4.32769687e-05
-0.00182875383
-4.268021835e-05
0.0009127049067
0.0009154521732
-0.001839526857
0.0001912533795
-0.0001906009583
0.001838874436
-0.003676597654
0.0005045231166
-0.0005011188075
0.003625780826
0.0002902646741
-0.003054844266
-0.0002884856225
0.00275044192
0.0001035651992
-0.001665622764
-0.0001033288077
0.00129800811
-0.000384729602
3.590722329e-05
-3.553613323e-05
0.0001861657968
0
0
0
0
0
0
0
0
0
0
0
0
0
0
0
0
0
0
0
0
0
0
0
0
0
0
0
0
0
0
0
0
0
-8.593693126e-06
0
1.031371306e-05
4.118024005e-05
4.531450332e-05
-0.0001284584025
-0.000352296473
0.0001320673837
0.0006088090597
-0.0004246482882
-0.001647532662
0.0004287180207
0.002035356017
-0.0003829416379
-0.00310207329
0.0003826802749
0.003375648478
-4.82733814e-05
-0.003792798155
4.760086462e-05
0.003796702727
4.29271478e-05
-0.001894063276
-4.27498939e-05
0.000945860691
0.0009480253314
-0.001900502358
0.0001886686294
-0.0001880333816
0.00189986711
-0.003785368103
0.0004809127661
-0.0004710397423
0.003693193577
0.0002666015175
-0.002996574544
-0.0002686848759
0.002685139294
9.540108309e-05
-0.001561806355
-9.390618617e-05
0.001193835293
-0.000313054252
2.969774782e-05
-2.834920292e-05
0.0001346487897
0
0
0
0
0
0
0
0
0
0
0
0
0
0
0
0
0
0
0
0
0
0
0
0
0
0
0
0
0
0
0
0
0
-1.242150994e-05
0
1.32121136e-05
6.050140559e-05
6.286346624e-05
-0.0001438710726
-0.0004109704629
0.0001484897164
0.0006877083377
-0.0004414597354
-0.001779735152
0.0004462280491
0.002180512769
-0.0003814230792
-0.003264565694
0.0003807203058
0.003535878916
-4.60303346e-05
-0.003922662832
4.60273579e-05
0.00392296664
4.231819797e-05
-0.001957487095
-4.232416289e-05
0.0009773884066
0.0009801046534
-0.001957404982
0.0001858717376
-0.0001857152246
0.001957248469
-0.003839438789
0.0004409553803
-0.0004280562841
0.003687767617
0.000239916214
-0.002877007894
-0.0002159933221
0.002510826557
8.384038666e-05
-0.001349510006
-7.771346689e-05
0.0009921067714
-0.0002085448837
2.043945688e-05
-1.790691684e-05
6.813059701e-05
0
0
0
0
0
0
0
0
0
0
0
0
0
0
0
0
0
0
0
0
0
0
0
0
0
0
0
0
0
0
0
0
0
-1.882801965e-05
0
2.552925959e-05
9.468841879e-05
0.0001085177495
-0.0001618197814
-0.0004910778989
0.0001740713228
0.0007858527976
-0.0004618827056
-0.001937980258
0.0004655140683
0.002350751507
-0.0003774636159
-0.00344641051
0.0003847938396
0.003708381456
-4.555116854e-05
-0.004049735282
4.67563196e-05
0.002020386938
0.002028143193
2.004187479e-05
-0.001008223622
-1.976668579e-05
0.001007948433
4.686800399e-05
-0.0005021643128
-4.596330655e-05
0.001004195558
-0.0005029359426
-0.002011109773
0.0001851934468
-0.000380493644
0.004031238003
-0.002018358253
0.0001935302198
0.0003946668777
-0.003808723118
-0.000368542533
0.003578937791
0.0001814963563
-0.002631553981
-0.0001730206343
0.002246578976
6.665667292e-05
-0.001090237175
-6.434246975e-05
0.0007553205297
-8.629865362e-05
8.058748944e-06
-6.461878801e-06
8.527320747e-06
0
0
0
0
0
0
0
0
0
0
0
0
0
0
0
0
0
0
0
0
0
0
0
0
0
0
0
0
0
0
0
0
0
-2.842760688e-05
0
2.312254551e-05
0.0001295183095
0.0001191546643
-0.0001925836211
-0.0005842024608
0.00018625439
0.0009134727502
-0.0004828203639
-0.002136661825
0.0004758618323
0.00256438305
-0.0003641846822
-0.003655955887
0.0003671193621
0.003904657667
-4.066366251e-05
-0.004177925701
4.066366253e-05
0.002085473952
0.00209245175
2.249222671e-05
-0.002085473952
-4.723664072e-05
2.474441402e-05
0.001041258661
0.001044215291
0.0001193125469
-0.001041258757
-0.0001193124029
0.002085473952
-0.001044215339
-0.004177925701
0.0003908590987
-0.000387357889
0.004165341156
0.0003249925035
-0.003667135259
-0.0003127196378
0.00338634541
0.0001499064247
-0.002280875751
-0.0001300700385
0.001878422301
5.154474011e-05
-0.000762863359
-5.072059405e-05
0.0004895073212
-1.195192139e-05
1.375602975e-06
-6.326169164e-07
0
0
0
0
0
0
0
0
0
0
0
0
0
0
0
0
0
0
0
0
0
0
0
0
0
0
0
0
0
0
0
0
0
0
-1.40871819e-05
0
5.037965155e-06
6.040016125e-05
3.792828964e-05
-0.0001422304629
-0.0004262616979
0.0001216201119
0.0007194776444
-0.0004201072912
-0.001886869316
0.0003901005305
0.002315936529
-0.0003753646348
-0.003474960233
0.0003729615774
0.003769058979
-6.520870927e-05
-0.004263840523
8.659241797e-05
0.004303822607
4.723664072e-05
-0.004306116681
-0.0001034846816
0.004306116681
5.624804095e-05
0.0002476334843
-0.004306116681
-0.0002476334843
0.004306116681
0.0003612200439
-0.004224613706
-0.0003445233008
0.004101550088
0.0002548219834
-0.003368692213
-0.0002351481591
0.003022405929
9.753745031e-05
-0.001835031365
-9.097749408e-05
0.001437123484
3.463986936e-05
-0.0004416459587
-2.759786164e-05
0.000230796469
0
0
0
0
0
0
0
0
0
0
0
0
0
0
0
0
0
0
0
0
0
0
0
0
0
0
0
0
0
0
0
0
0
0
0
0
0
-1.210897613e-07
0
0
3.35403694e-07
0
-5.659773197e-05
-0.0001463879056
3.776590977e-05
0.0003302685977
-0.0002731206141
-0.001228455438
0.0002289205323
0.001600686005
-0.0003323371369
-0.002726921079
0.0003062366568
0.003059929345
-0.0001366169022
-0.003808921196
0.0001448791187
0.00396740809
8.200628038e-05
-0.004213309952
-6.61456377e-05
0.004237123353
0.0002291625177
-0.004174914433
-0.0002088232428
0.004103555789
0.0002681361654
-0.003677789065
-0.0002357201059
0.003455991415
0.0001667639197
-0.002574989428
-0.0001433737257
0.002230687329
6.723256743e-05
-0.001179777087
-5.832967623e-05
0.0008610193526
1.327301873e-05
-0.0001588199936
-8.360933603e-06
4.366233706e-05
0
0
0
0
0
0
0
0
0
0
0
0
0
0
0
0
0
0
0
0
0
0
0
0
0
0
0
0
0
0
0
0
0
0
0
0
0
0
0
0
0
0
-3.505999523e-06
-3.32900693e-07
5.533544617e-07
2.515012705e-05
-0.0001031394842
-0.0004394719579
6.90738912e-05
0.0006710815212
-0.0002000823258
-0.001500994133
0.0001607302425
0.001784810326
-0.0001372477173
-0.002523663958
0.0001246202343
0.002711231234
1.312449212e-05
-0.003056573273
1.294632268e-06
0.003097543875
0.0001232746885
-0.003003484595
-9.393097685e-05
0.00290190319
0.0001350094229
-0.002403899231
-0.0001050406865
0.002182403165
8.014869257e-05
-0.001418016359
-6.254900138e-05
0.00115242313
2.994838606e-05
-0.0004372986443
-2.065602137e-05
0.0002558271335
1.382018027e-07
-1.104616365e-06
0
0
0
0
0
0
0
0
0
0
0
0
0
0
0
0
0
0
0
0
0
0
0
0
0
0
0
0
0
0
0
0
0
0
0
0
0
0
0
0
0
0
0
0
0
0
0
0
-7.081778926e-06
-1.132550268e-05
1.048170758e-06
5.273799061e-05
-5.689816818e-05
-0.0003686454019
3.233989161e-05
0.0005134728448
-6.923527775e-05
-0.0009586106571
4.956544213e-05
0.001087910767
-2.12507412e-05
-0.001350162447
2.015498963e-05
0.001386515765
2.807623991e-05
-0.001331221859
-1.572656142e-05
0.001261068228
3.857945499e-05
-0.0009295541415
-2.466656026e-05
0.0007915519222
2.150107311e-05
-0.0003667152888
-1.19422475e-05
0.0002420384899
1.235880159e-06
-1.397869607e-05
-3.584200452e-09
1.508094666e-07
0
0
0
0
0
0
0
0
0
0
0
0
0
0
0
0
0
0
0
0
0
0
0
0
0
0
0
0
0
0
0
0
0
0
0
0
0
0
0
0
0
0
0
0
0
0
0
0
0
0
0
0
0
0
-1.587032256e-07
0
0
1.887626117e-06
-6.660918624e-06
-5.178260146e-05
1.034186511e-06
8.024643621e-05
-6.17880544e-06
-0.0001562045384
2.163255909e-06
0.0001694908856
1.023393556e-06
-0.0001570791546
-2.038952188e-07
0.0001368916479
2.372379111e-06
-5.432728069e-05
-2.013305215e-07
2.994360384e-05
0
0
0
0
0
0
0
0
0
0
0
0
0
0
0
0
0
0
0
0
0
0
0
0
0
0
0
0
0
0
0
0
0
0
0
0
0
0
0
0
0
0
0
0
0
0
0
0
0
0
0
0
0
0
0
0
0
0
0
0
0
0
0
0
0
0
0
0
0
0
0
0
0
0
0
0
0
0
0
0
0
0
0
0
0
0
0
0
0
0
0
0
0
0
0
0
0
0
0
0
0
0
0
0
0
0
0
0
0
0
0
0
0
0
0
0
0
0
0
0
0
0
0
0
0
0
0
0
0
0
0
0
0
0
0
0
0
0
0
0
0
0
0
0
0
0
0
0
0
0
0
0
0
0
0
0
0
0
0
0
0
0
0
0
0
0
0
0
0
0
0
0
0
0
0
0
0
0
0
0
0
0
0
0
0
0
0
0
0
0
0
0
0
0
0
0
0
0
0
0
0
0
0
0
0
0
0
0
0
0
0
0
0
0
0
0
0
0
0
0
0
0
0
0
0
0
0
0
0
0
0
0
0
0
0
0
0
0
0
0
0
0
0
0
0
0
0
0
0
0
0
0
0
0
0
0
0
0
0
0
0
0
0
0
0
0
0
0
0
0
0
0
0
0
0
0
0
0
0
0
0
0
0
0
0
0
0
0
0
0
0
0
0
0
0
0
0
0
0
0
0
0
0
0
0
0
0
0
0
0
0
0
0
0
0
0
0
0
0
0
0
0
0
0
0
0
0
0
0
0
0
0
0
0
0
0
0
0
0
0
0
0
0
0
0
0
0
0
0
0
0
0
0
0
0
0
0
0
0
0
0
0
0
0
0
0
0
0
0
0
0
0
0
0
0
0
0
0
0
0
0
0
0
0
0
0
0
0
0
0
0
0
0
0
0
0
0
0
0
0
0
0
0
0
0
0
0
0
0
0
0
0
0
0
0
0
0
0
0
0
0
0
0
0
0
0
0
0
0
0
0
0
0
0
0
0
0
0
0
0
0
0
0
0
0
0
0
0
0
0
0
0
0
0
0
0
0
0
0
0
0
0
0
0
0
0
0
0
0
0
0
0
0
0
0
0
0
0
0
0
0
0
0
0
0
0
0
0
0
0
0
0
0
0
0
0
0
0
0
0
0
0
0
0
0
0
0
0
0
0
0
0
0
0
0
0
0
0
0
0
0
0
0
0
0
0
0
0
0
0
0
0
0
0
0
0
0
0
0
0
0
0
0
0
0
0
0
0
0
0
0
0
0
0
0
0
0
0
0
0
0
0
0
0
0
0
0
0
0
0
0
0
0
0
0
0
0
0
0
0
0
0
0
0
0
0
0
0
0
0
0
0
0
0
0
0
0
0
0
0
0
0
0
0
0
0
0
0
0
0
0
0
0
0
0
0
0
0
0
0
0
0
0
0
0
0
0
0
0
0
0
0
0
0
0
0
0
0
0
0
0
0
0
0
0
0
0
0
0
0
0
0
0
0
0
0
0
0
0
0
0
0
0
0
0
0
0
0
0
0
0
0
0
0
0
0
0
0
0
0
0
0
0
0
0
0
0
0
0
0
0
0
0
0
0
0
0
0
0
0
0
0
0
0
0
0
0
0
0
0
0
0
0
0
0
0
0
0
0
0
0
0
0
0
0
0
0
0
0
0
0
0
0
0
0
0
0
0
0
0
0
0
0
0
0
0
0
0
0
0
0
0
0
0
0
0
0
0
0
0
0
0
0
0
0
0
0
0
0
0
0
0
0
0
0
0
0
0
0
0
0
0
0
0
0
0
0
0
0
0
0
0
0
0
0
0
0
0
0
0
0
0
0
0
0
0
0
0
0
0
0
0
0
0
0
0
0
0
0
0
0
0
0
0
0
0
0
0
0
0
0
0
0
0
0
0
0
0
0
0
0
0
0
0
0
0
0
0
0
0
0
0
0
0
0
0
0
0
0
0
0
0
0
0
0
0
0
0
0
0
0
0
0
0
0
0
0
0
0
0
0
0
0
0
0
0
0
0
0
0
0
0
0
0
0
0
0
0
0
0
0
0
0
0
0
0
0
0
0
0
0
0
0
0
0
0
0
0
0
0
0
0
0
0
0
0
0
0
0
0
0
0
0
0
0
0
0
0
0
0
0
0
0
0
0
0
0
0
0
0
0
0
0
0
0
0
0
0
0
0
0
0
0
0
0
0
0
0
0
0
0
0
0
0
0
0
0
0
0
0
0
0
0
0
0
0
0
0
0
0
0
0
0
0
0
0
0
0
0
0
0
0
0
0
0
0
0
0
0
0
0
0
0
0
0
0
0
0
0
0
0
0
0
0
0
0
0
0
0
0
0
0
0
0
0
0
0
0
0
0
0
0
0
0
0
0
0
0
0
0
0
0
0
0
0
0
0
0
0
0
0
0
0
0
0
0
0
0
0
0
0
0
0
0
0
0
0
0
0
0
0
0
0
0
0
0
0
0
0
0
0
0
0
0
0
0
0
0
0
0
0
0
0
0
0
0
0
0
0
0
0
0
0
0
0
0
0
0
0
0
0
0
0
0
0
0
0
0
0
0
0
0
0
0
0
0
0
0
0
0
0
0
0
0
0
0
0
0
0
0
0
0
0
0
0
0
0
0
0
0
0
0
0
0
0
0
0
0
0
0
0
0
0
0
0
0
0
0
0
0
0
0
0
0
0
0
0
0
0
0
0
0
0
0
0
0
0
0
0
0
0
0
0
0
0
0
0
0
0
0
0
0
0
0
0
0
0
0
0
0
0
0
0
0
0
0
0
0
0
0
0
0
0
0
0
0
0
0
0
0
0
0
0
0
0
0
0
0
0
0
0
0
0
0
0
0
0
0
0
0
0
0
0
0
0
0
0
0
0
0
0
0
0
0
0
0
0
0
0
0
0
0
0
0
0
0
0
0
0
0
0
0
0
0
0
0
0
0
0
0
0
0
0
0
0
0
0
0
0
0
0
0
0
0
0
0
0
0
0
0
0
0
0
0
0
0
0
0
0
0
0
0
0
0
0
0
0
0
0
0
0
0
0
0
0
0
0
0
0
0
0
0
0
0
0
0
0
0
0
0
0
0
0
0
0
0
0
0
0
0
0
0
0
0
0
0
0
0
0
0
0
0
0
0
0
0
0
0
0
0
0
0
0
0
0
0
0
0
0
0
0
0
0
0
0
0
0
0
0
0
0
0
0
0
0
0
0
0
0
-0.001766756178
0.0017668319
4.305248885e-05
-0.0001882589711
0.0017715928
0.000189253869
-0.0008888382317
-0.0008837494658
0.0002045732479
-0.001735403688
-0.0001971419125
-0.001820905524
4.369957806e-05
0.0009097582555
0.0009107246595
-0.0001814277031
0.001833728693
0.0001823361444
-0.000918186573
-0.0009164505609
-0.0001852476187
-0.0008938457126
-0.000891586254
-0.001885937343
4.318900586e-05
0.0009420638216
0.0009436116638
-0.0001796589864
0.001890953693
0.0001784239639
-0.0009454865432
-0.0009442321271
-0.0001807818133
-0.000919903705
-0.0009202690417
-0.001948995109
4.267457398e-05
0.000973416536
0.0009752221973
-0.0001752018016
0.001948637121
0.0001764688703
-0.00194990419
-0.001901382927
-0.0001787784175
-0.001007179333
0.001007186038
2.003516952e-05
0.0005026699186
-2.29028574e-05
2.30672819e-05
-0.0005028343431
-0.0005021539233
0.001003664584
4.802726173e-05
-0.0001745307915
0.002005694316
0.0001744196589
-0.002005583184
-0.00195785114
-0.0001747556439
-0.001040237457
0.001040237457
2.249222671e-05
0.001040237724
-5.627826103e-05
5.627895681e-05
-0.00104023842
-0.0005027716928
-2.229547746e-05
0.002077521978
-0.0009475935912
5.891827543e-06
2.373005619e-05
-0.0003168151526
0.004095139537
-0.00207109623
-0.002051020851
0.000168710731
0.0001750819658
-0.00201096991
-0.0001746706538
-0.001735343491
0.00173454999
3.716252449e-05
0.0001091446683
-0.001625353832
-0.0001087485361
0.001728399306
0.000201756685
-0.001725582743
0.0002167260439
-0.001662225112
-0.0002299351759
-3.837594143e-05
0.0004409752273
3.856683211e-05
-0.0004411661179
0.0008761446019
8.850702951e-05
-0.0008785821075
-8.606952395e-05
0.001770883625
0.0001956021059
-0.0005048096589
0.003525723334
0.0005092644577
-0.00353114187
0.0005114784143
-0.003441212085
-0.0005055394831
-0.003625303509
0.00363595003
-5.239511581e-05
-3.436303269e-05
3.444359154e-05
-0.001820986083
3.426627525e-05
-0.001771904897
-3.443064993e-05
-4.272015142e-05
0.0004516809037
4.240265079e-05
-0.0004513634031
3.787440888e-05
0.0004456714425
-0.0004455309121
-3.801493924e-05
0.001833260689
0.000191721383
-0.0004991999723
0.003652679857
0.0005007966324
-0.003654470665
-0.003565794344
-0.0005030663829
-0.003760106962
0.003765163325
-4.900398662e-05
-3.422558232e-05
3.43055801e-05
-0.001886017341
-0.001828836477
-3.428038589e-05
-4.284225445e-05
-0.001854900568
4.293334487e-05
0.0009262395094
0.0009285699678
-3.577072149e-05
0.0004646280634
3.56440342e-05
-0.0009286039946
0.0004641026185
3.584787048e-05
0.0004554099139
-0.0009123441065
-3.548102421e-05
0.0004565673463
-3.69266181e-05
0.0004671767472
3.713703155e-05
-0.0004673871607
3.971136263e-05
0.0004593589855
-0.0004583347318
-4.073561642e-05
0.001891093806
0.0001885285161
-0.0004877627892
0.003757556484
0.000492585587
-0.003769598985
-0.003679040847
-0.000497394402
-0.00388948472
0.003890637002
-4.628536238e-05
-3.394935683e-05
3.402643202e-05
-0.001949072184
-0.001894056411
-3.423244714e-05
-4.328958975e-05
-0.00191801118
4.292850928e-05
0.0009583248091
0.0009600474516
-1.828906537e-05
0.0004801155738
1.843437393e-05
-0.0004802608824
3.505109023e-05
0.0004725388885
-0.0009458366188
-3.51085702e-05
0.0004733552104
-7.075907994e-05
0.0009609229591
7.112605009e-05
-0.0009612899293
7.257543635e-05
0.0009496066076
-7.053449127e-05
-0.0004765594655
-0.0004750880873
-0.004018302436
-4.605018108e-05
0.002005427375
0.002013374073
-3.355928796e-05
0.001006037914
3.380308088e-05
-0.002013461039
-0.001957562778
-3.387367349e-05
-2.009394023e-05
-0.0009922140584
0.0009923091052
1.999889346e-05
-2.121520008e-05
0.0004974984561
2.057350694e-05
-0.000496856763
1.979040636e-05
0.0004874250999
-0.0004877355997
-1.947990651e-05
-0.0005000229386
-2.66635848e-05
0.0004984531976
2.823332586e-05
-6.883342358e-05
0.0009911236227
6.855800457e-05
-0.0009908482037
7.005280218e-05
0.0009780275085
-0.0009780217946
-7.005851609e-05
-0.004088157958
-3.776505311e-05
0.00200773737
0.002077521978
-3.822936311e-05
0.001037284521
3.82293631e-05
-0.002077521978
0.00101217376
-0.002020375166
-3.358150398e-05
-2.007883782e-05
-0.001023125028
0.001023031088
2.017277843e-05
-1.865416079e-05
0.0005074197537
2.031940429e-05
-0.0005090849972
2.226421696e-05
0.0005007217658
-0.0005015855048
-2.140047786e-05
-0.00214113038
0.00214113038
4.723664074e-05
0.00214113038
-0.0001103030826
0.0001103030826
-0.00214113038
-0.001041259143
-5.627787568e-05
3.806530761e-05
-0.0008729633144
-3.738330783e-05
0.0004353771354
0.0004369041792
-3.882291579e-05
-0.0008837079391
3.864046632e-05
0.0004423608233
0.0004415295653
-0.0008763442474
2.189016121e-05
-2.005218357e-05
0.0008745062698
-0.0008733877252
0.0008740553652
3.739766755e-05
0.0004454091731
3.769982538e-05
-0.0004452345896
0.0004401947138
-0.000440585508
-3.798514729e-05
0.0001923588055
0.001755173493
-0.0001904486083
-0.0008811639239
-0.000875919766
8.21784215e-05
-0.0004395149531
-8.059137978e-05
0.0008781226253
-3.863546946e-05
0.0004455014912
3.854315136e-05
0.0004547303298
3.629132631e-05
-0.0009103653358
0.0004551915502
0.0008979776377
3.587718447e-05
-0.0008980712346
-3.578358756e-05
4.336281087e-05
-0.001799246778
-4.32794391e-05
0.001799163407
3.817080896e-05
-3.754191463e-05
0.0004485243531
0.0004488243903
-1.897819762e-05
0.0004547192338
1.898929362e-05
-0.0008845275081
-3.84065955e-05
0.0004417453936
0.0004423657942
-0.0008968908955
3.805632464e-05
0.000448530594
0.0004484747859
0.0004580661846
3.859550726e-05
-0.0004569503292
0.0004535907607
-0.0004529741629
-4.333674914e-05
9.311243879e-05
0.0009061825701
-0.0009063686322
-9.292637674e-05
4.253514305e-05
-4.269037459e-05
0.0004537459922
-3.943273216e-05
0.0004587234264
3.877549034e-05
-3.867266897e-05
0.000445708642
0.0004519872039
4.222884288e-05
0.0009029373505
9.312268433e-05
-0.0009029475961
0.000471789266
3.546619847e-05
-0.0009433061226
0.0004711017483
0.0004655956981
-0.0009313434773
-3.616397547e-05
0.0004661410332
-0.00186354865
-4.32752743e-05
0.0009311685776
0.0009328130926
1.948677117e-05
-1.961051094e-05
0.0004657194378
-1.818763187e-05
0.0004716447288
1.833216911e-05
-1.886534639e-05
0.0004552970627
0.0004649486889
1.916614564e-05
0.0009464082672
7.238079205e-05
-0.0004733536735
-0.0004728599495
0.0004674544212
-0.0004673454352
-3.703560417e-05
0.000178484367
0.00186778743
-0.0001787372512
-0.000934023062
-0.0009335114836
7.56026725e-05
-0.0004665899566
-7.486675997e-05
0.0009333084653
-7.461207544e-05
0.0009462848094
7.473553327e-05
-4.007801633e-05
0.0004600042697
-0.000465991239
0.0009322318712
3.774273638e-05
3.879605111e-05
0.001860757715
0.0001800965821
-0.0009319873413
-0.0009303825883
0.0004869683328
1.998794511e-05
-0.0004871658715
0.0004805232577
-0.0004805854299
-1.822689312e-05
-0.001924530238
-4.266856958e-05
0.0009614084148
0.000962500803
1.929058295e-05
-1.890462463e-05
0.0004801372994
-2.161613666e-05
0.0004865034488
2.208102063e-05
-1.815764629e-05
0.0004725089029
0.0004799091764
1.949698031e-05
0.0009766985391
7.013682765e-05
-0.0009767825645
0.0009635739102
-0.0009635676088
-7.076538137e-05
0.0005026862772
2.281448895e-05
-0.0005032365492
0.000496744907
-0.0004969743002
-2.098580694e-05
-0.0009939255361
-2.009887798e-05
0.0009939304739
2.292330942e-05
0.0004967778276
-0.0004949972891
-2.470384796e-05
2.304534486e-05
-2.261721787e-05
0.00049631678
-2.207176787e-05
0.0005015501565
2.320788854e-05
-2.103533668e-05
0.0004868442999
0.0004979690505
2.257475043e-05
2.588962241e-05
-0.0005029892516
-0.0001360887891
0.00200449631
0.0001355996403
-0.001002349886
-0.001001657275
0.0009921954119
-0.0009918663534
-6.916248211e-05
-2.664863432e-05
0.0004967628772
0.001048983203
-3.527759935e-05
-0.001044017106
1.397470969e-05
1.633679306e-05
0.0005078430082
-0.0005088651976
-1.763197134e-05
-0.001024721887
-1.989032882e-05
0.001024533378
3.718113474e-05
0.001010996579
-0.001011660993
-3.651672127e-05
1.488329274e-05
-1.433397276e-05
0.0005072936882
-4.040564463e-05
0.001049245577
1.678606571e-05
2.335720419e-05
-2.093284271e-05
0.0004995828406
1.606973457e-05
0.0005062333119
0.00100976598
3.848834676e-05
-0.001011073192
-0.003502431571
0.003522211692
-5.847912924e-05
3.410668182e-05
-0.001766596585
2.806379216e-05
-0.001741501912
-3.043880895e-05
-4.106376916e-05
-0.001746073345
0.001745918517
4.121859726e-05
-3.549562365e-05
3.538061877e-05
-0.0008732727203
3.089645187e-05
-0.0008788826942
-2.835800507e-05
-8.020933961e-05
0.0004323629963
8.43491595e-06
-0.0003605885726
0.0004501188073
4.495054749e-05
-0.0004563424462
-3.872690866e-05
-0.001792288435
0.001792452317
4.319892959e-05
3.590058522e-05
-0.0008969142963
3.595540341e-05
-0.0008845282382
-3.595467327e-05
-0.0001587676648
0.0004821244607
7.132791418e-05
-0.0003946847101
0.001948076376
0.0001864324824
-0.0004642495784
0.003834471275
0.0004726552933
-0.003890196598
-0.00380147177
-0.0004849376367
-0.0001564805347
0.0004941861275
6.579550134e-05
-0.0004035010942
-5.972780573e-05
0.0009836911757
6.037668889e-05
-0.0004923667606
-0.0004919732983
3.065856569e-05
0.0004888661868
-0.0004887797797
-3.074497279e-05
-4.337212078e-05
0.001009192046
4.394605489e-05
-0.0001462415587
0.00202840174
0.0001417679279
-0.002023928109
0.002010289664
-0.0001367441037
-0.001005363336
-0.001004271013
3.592939602e-05
-0.0008836819317
-0.0008730106163
-3.544832173e-05
-0.001743368578
-4.218551792e-05
0.001744490327
1.946738566e-05
-0.0004380069892
-2.020175135e-05
0.0004387413549
-0.0004520499513
5.973029044e-06
-1.2020219e-05
0.0004580971412
-0.0004398435609
-1.765743023e-05
0.0004402647774
1.723621377e-05
9.603688488e-05
-8.875037287e-05
0.0008688580899
-0.0004389639196
0.000878074034
8.404353434e-05
0.001746259182
0.0001890960475
-0.0008729596804
-0.0008700367432
0.0004892451574
3.105350547e-05
-0.0004896400972
3.639153009e-05
0.0004862751152
-0.0004877689862
-3.48976591e-05
0.0001778617283
0.00192618076
-0.001926828993
-0.0001772134952
7.369526716e-05
-7.334470263e-05
0.0009632233457
-7.267798697e-05
0.000976456883
7.2919643e-05
-7.398409342e-05
0.0009489786256
0.000960942346
7.367588025e-05
0.001921112338
0.0001780588962
-0.001921309506
2.839760773e-05
0.0005011520757
-0.0005029963345
-2.6553349e-05
-0.0005021140603
-2.774999339e-05
0.0005022025443
2.766150935e-05
-4.034339011e-05
0.00100725791
4.070222961e-05
-0.0005034991478
-0.0005041176014
0.0008278419844
5.295816392e-05
-0.000827845924
-5.29542244e-05
-0.001777231824
3.953100321e-05
5.604009288e-06
-1.508212821e-05
0.0008657089226
0.0008814700167
-0.0008666778176
0.0008842525255
4.315453286e-06
0.0008722626804
8.978033272e-05
-0.0008735359836
0.001743256869
0.0002096359482
-0.0008749125377
-0.0008388919473
-0.00010501933
-0.0001340690021
7.232404734e-05
-7.358645598e-05
0.0008291043931
0.00054820185
-0.0006284111896
8.147061169e-05
0.0008779583377
-7.968971385e-05
-0.0004397655562
-0.0004399736793
4.363138897e-05
6.078146659e-05
0.0004437889944
4.04638847e-05
-3.736516208e-05
0.0004470200847
0.0004426002295
3.339415567e-05
0.0008729989855
7.881920832e-05
-0.0004360452316
-0.0004343023505
3.738775913e-05
0.000448788204
-0.0004488464494
-3.732951373e-05
0.0004490213279
3.753502241e-05
-0.0004491685912
3.634878191e-05
0.0004647024007
-0.000464504286
-3.654689655e-05
0.0004656385831
3.702571962e-05
-0.0004663155208
0.0004799795772
-3.644894442e-05
3.285038806e-05
-0.0004763810208
0.0004902651245
-0.0006247732588
-2.425953042e-05
7.167705617e-05
0.000954818759
-0.000954796603
-7.169921219e-05
4.140301333e-05
-3.435736908e-05
0.0004832194802
-3.67186588e-05
0.0004809796144
3.571862158e-05
3.707416816e-05
-7.045611078e-05
0.0004693243707
-0.0004359424281
0.000479295926
4.423154795e-05
0.0009536162995
7.177938081e-05
-0.0004769524991
-0.000476766125
0.0004922407895
1.697347161e-05
-0.0004925423322
-1.667192891e-05
2.840826672e-05
-0.0009852488591
-2.830870565e-05
0.000985149298
-2.830665036e-05
-0.0009921277718
0.0009922175817
2.821684048e-05
-5.802246031e-05
0.0009906024303
5.832939618e-05
-0.0009909093662
0.0009852826805
-5.902973938e-05
-0.000493388942
-0.0004925918048
-0.000640030537
-1.979005916e-05
0.0005033400615
1.404801403e-05
0.0005065705789
-0.0005075503623
-1.306823064e-05
2.763498027e-05
-0.001016729619
-2.755584183e-05
0.00101665048
-2.756116991e-05
-0.001022931592
2.805103324e-05
0.0005109418207
0.0005114999079
2.801582638e-05
-0.001007763044
-2.771243995e-05
0.001007459658
-0.001014649239
0.001014537577
2.774664212e-05
0.0005043616877
1.524947934e-05
-0.000505563153
-0.0004498470408
1.582440803e-05
-0.0001360901344
0.0005701127671
-0.0004355855672
1.994349549e-05
0.0004351094573
-3.761350593e-05
-0.0008780419866
3.797979475e-05
0.0004379422846
0.0004397334132
-2.176445974e-05
2.287026455e-05
-0.000436691372
2.211103737e-05
-0.000444506148
-2.74519301e-05
-2.725492356e-05
5.487282583e-05
-0.0004432535604
0.0004156356581
-0.0004388586225
-2.091282652e-05
-0.0008808000606
-3.855845598e-05
0.000441136712
0.0004406082987
-3.536470038e-05
-0.0008821026729
0.0008826922477
3.47751256e-05
-2.061885589e-05
2.109475213e-05
-0.0004403194572
-3.95262121e-06
-0.0004384317598
-9.665570326e-06
0.0004435424766
2.012724829e-05
-0.0004415586875
0.0004399785261
-0.0004398703219
-2.072706006e-05
-0.000877054347
-3.594228639e-05
0.000877631933
-2.053378884e-05
0.0004428548847
0.0004427217105
1.664517412e-05
3.910723016e-05
0.0004434274204
-0.0004424566821
-4.007796852e-05
0.0004418428222
3.921335619e-05
-0.0004419489482
-1.911188811e-05
-0.0004521573694
0.0004523017738
1.896748369e-05
1.960339355e-05
-0.0004472555445