/*--------------------------------*- C++ -*----------------------------------*\
| =========                 |                                                 |
| \\      /  F ield         | OpenFOAM: The Open Source CFD Toolbox           |
|  \\    /   O peration     | Version:  v1912                                 |
|   \\  /    A nd           | Website:  www.openfoam.com                      |
|    \\/     M anipulation  |                                                 |
\*---------------------------------------------------------------------------*/
FoamFile
{
    version     2.0;
    format      ascii;
    class       surfaceVectorField;
    location    "2.02";
    object      Uf;
}
// * * * * * * * * * * * * * * * * * * * * * * * * * * * * * * * * * * * * * //

dimensions      [0 1 -1 0 0 0 0];


internalField   nonuniform List<vector> 
25162
(
(99.99894051 0.004263904608 -2.131684685e-21)
(99.99600682 0.003713214003 6.312102602e-21)
(99.99819342 0.01104946439 -2.10615048e-21)
(99.99364839 0.01339231846 2.127220406e-21)
(99.99669104 0.02322803601 -4.202581776e-21)
(99.98860273 0.03046675192 1.26774127e-20)
(99.99835858 0.02811625211 1.308547267e-21)
(99.97908155 0.06108814765 -8.367236598e-21)
(99.99085687 0.06305691485 -1.397679257e-21)
(99.99713169 0.05182461193 2.029822102e-21)
(99.99909901 0.03117849511 1.007294622e-21)
(99.98910723 0.08956743968 2.019303444e-21)
(99.99750365 0.05116450003 9.892315538e-22)
(99.99815412 0.03951459587 -1.017490429e-21)
(99.9968849 0.06584956654 9.891911506e-22)
(99.98292289 0.1493051829 1.969986054e-21)
(99.99655674 0.08411192439 0)
(99.99633732 0.1043762921 -3.634183519e-21)
(99.97744208 0.2320372691 -3.634164605e-21)
(99.99581007 0.1285056727 -9.441125154e-22)
(99.99520145 0.1564672054 3.167961334e-21)
(99.9703469 0.343965253 3.464228668e-21)
(99.99462575 0.1882146642 4.277529548e-22)
(99.99414896 0.2233337074 -2.865848624e-21)
(99.96474773 0.4842949602 4.070283613e-22)
(99.99383231 0.2610583356 -2.943947054e-21)
(99.99377313 0.3001666276 2.732184318e-22)
(99.96397835 0.6398517792 -1.981299423e-21)
(99.99409183 0.3387109485 2.62394181e-21)
(99.99485158 0.3743882407 2.258891167e-21)
(99.97166197 0.7816899605 -1.006477745e-21)
(99.99587563 0.4047764426 0)
(99.99704222 0.4271767306 0)
(99.98811091 0.8688638126 2.404270274e-22)
(99.99866876 0.4399251423 0)
(100.0008769 0.4423670496 2.598196226e-22)
(100.0078439 0.8783145582 -6.982990323e-24)
(100.0027648 0.4340059847 8.277125212e-22)
(100.0038887 0.4160962369 -4.106271607e-23)
(100.0240249 0.8086260753 -5.35497908e-22)
(100.0047666 0.3903895574 -9.057722937e-22)
(100.0054479 0.3593403068 9.129654598e-23)
(100.0321831 0.6851959949 1.633331864e-21)
(100.0057927 0.3249357661 4.186443772e-22)
(100.0058226 0.2891991426 0)
(100.0329787 0.5429227636 0)
(100.0056186 0.2539380323 0)
(100.0054048 0.2203074424 7.370740149e-22)
(100.0287992 0.4094277052 1.536785738e-21)
(100.0055244 0.1895208373 -3.738053706e-21)
(100.0053746 0.1597376574 -1.382186346e-21)
(100.0242891 0.2921013643 3.037267303e-21)
(100.0046431 0.1337787727 3.037040658e-21)
(100.0034739 0.111866234 -8.63744205e-22)
(100.0146762 0.202425265 -5.494592598e-23)
(100.0008909 0.09618834701 1.677754858e-21)
(100.0094018 0.09448304241 -7.536225676e-21)
(100.0531451 0.2307685576 5.30250964e-22)
(100.0187782 0.2063343902 -2.69069435e-21)
(100.0030761 0.09607048738 -1.576068515e-21)
(100.006733 0.05524770808 -9.509502338e-22)
(100.0366934 0.142735867 1.506653873e-20)
(100.0056584 0.02602756055 -7.643066425e-21)
(100.0274546 0.07677444354 -1.606548161e-20)
(100.0245283 0.02434252619 1.455806845e-21)
(99.99001029 0.01170520524 1.054224689e-20)
(99.98500721 0.005549815291 2.675468104e-22)
(99.98269407 0.03067388345 1.685572833e-20)
(99.97587301 0.02101202258 -1.473350568e-20)
(99.96909612 0.0648919078 8.830025601e-21)
(99.95658411 0.05021293634 -2.288541818e-20)
(99.96151511 0.1110437358 -1.482456857e-21)
(99.92456829 0.1034642811 4.40467567e-20)
(99.93344598 0.1353587227 -9.714308142e-21)
(99.94220293 0.1438078468 -2.083373686e-21)
(99.95534018 0.1440792703 4.114922196e-21)
(99.9731163 0.1014533177 2.043463535e-21)
(99.95588787 0.1753329654 1.999959366e-21)
(99.94165533 0.1902821723 2.033407272e-21)
(99.90147671 0.2532408338 -4.104349698e-21)
(99.92652713 0.2484501013 -1.834881527e-23)
(99.93107258 0.2914143864 1.970295219e-21)
(99.90863253 0.3206019989 -1.701319577e-23)
(99.84960655 0.4216104374 0)
(99.89942534 0.3800333991 0)
(99.87176802 0.4353857085 -2.461962201e-21)
(99.90451668 0.4433187763 -4.845968529e-21)
(99.89267465 0.4661662452 -5.795193197e-23)
(99.86159785 0.5401923389 -1.090158744e-20)
(99.88365275 0.5119956187 -3.747122451e-21)
(99.85406974 0.700636044 3.148068352e-23)
(99.87313412 0.662215985 -2.477577957e-21)
(99.81407198 0.8116971941 -1.355186004e-20)
(99.84614385 0.7637120561 -3.300341393e-21)
(99.82105627 1.004563814 -6.230842564e-21)
(99.847711 0.9408866949 -5.86173236e-21)
(99.77470211 1.159995367 5.650757668e-22)
(99.81661146 1.082523 -7.479443803e-21)
(99.80838357 1.35607666 -6.658791022e-23)
(99.84272354 1.256390678 -4.942399041e-21)
(99.76298976 1.558780482 4.938531948e-21)
(99.81219754 1.441199156 -3.720679208e-21)
(99.83779546 1.696480132 -4.489298096e-21)
(99.87497413 1.550955764 -6.287412294e-21)
(99.80567812 1.935410183 -6.832803014e-20)
(99.85455549 1.770369445 -4.295920005e-21)
(99.91623114 1.932185396 -3.076019326e-21)
(99.94967975 1.74169117 -3.054872001e-21)
(99.90609571 2.186428375 -4.146353404e-22)
(99.94086433 1.978658747 -1.889976557e-21)
(100.0149182 1.995441888 5.053745083e-22)
(100.0336197 1.773079584 -4.109941093e-22)
(100.02705 2.232474962 -6.58294648e-21)
(100.0386866 2.002217017 -5.170660737e-22)
(100.1061134 1.880827189 -2.056215329e-22)
(100.0898149 1.641742067 -2.190168475e-22)
(100.1324399 2.070323085 -9.458133166e-23)
(100.1228586 1.834991789 1.737865213e-21)
(100.1620752 1.624949365 2.157640684e-21)
(100.1201694 1.397200811 3.754630994e-21)
(100.1928366 1.762697774 3.761092149e-21)
(100.1679803 1.547046713 4.957642702e-22)
(100.1754344 1.302974235 -6.235941037e-21)
(100.1230294 1.107857797 -5.840042213e-21)
(100.2029205 1.39593334 -2.100007915e-21)
(100.1720954 1.217393279 -2.070849495e-21)
(100.1572426 0.9918306643 -5.03969124e-21)
(100.1037893 0.8368644248 4.634668451e-22)
(100.1749285 1.049594815 -1.359830081e-21)
(100.1489583 0.9156704238 5.546014586e-21)
(100.0978998 0.5780252923 -1.296398972e-20)
(100.156046 0.7865923058 -1.296298245e-20)
(100.2193799 0.8514107875 1.313711359e-20)
(100.1353399 0.6565823842 -2.659049979e-20)
(100.1148885 0.5444057186 1.154717596e-20)
(100.1595106 0.5814525259 -1.644413698e-20)
(100.0939845 0.4494417584 2.332353029e-20)
(100.0706703 0.3970878138 2.592623465e-20)
(100.0887804 0.2742325407 2.237304956e-20)
(100.2007384 0.4302709121 -2.150703078e-22)
(100.1529674 0.4811161636 4.676391461e-20)
(100.0901379 0.3815736888 2.548989404e-21)
(100.0646651 0.1608890723 -7.034553855e-22)
(100.143049 0.2647740222 3.214813592e-20)
(100.0524221 0.07418942366 -7.47278885e-21)
(100.1091933 0.1425063148 -1.704653489e-20)
(100.0945072 0.0450165872 7.641332215e-21)
(99.97357704 0.01358002315 -2.529639556e-20)
(99.97219351 0.003668608084 -1.264259847e-20)
(99.95321043 0.03817247662 -5.482089659e-20)
(99.95273562 0.01697959821 1.182701621e-20)
(99.91645757 0.08609974717 1.191196312e-20)
(99.91163268 0.0492403622 -4.64143102e-20)
(99.87489902 0.1638610304 2.803529644e-20)
(99.84504095 0.1112442332 5.049754175e-20)
(99.83257146 0.1785742871 -4.58737232e-20)
(99.89112381 0.1778684943 -8.382798526e-21)
(99.83342376 0.1993022682 -6.182083372e-20)
(99.84746108 0.2255993824 -4.176621725e-21)
(99.82754328 0.3190372683 -8.1937681e-21)
(99.80774234 0.3041605584 -4.084670962e-21)
(99.73611595 0.3686607829 2.863606385e-20)
(99.76063222 0.4020882398 8.067102746e-21)
(99.73846616 0.5373688416 -7.10161564e-21)
(99.7055087 0.523075635 5.227537568e-21)
(99.5994144 0.6326508608 -4.039355443e-20)
(99.67170623 0.648364112 2.866385873e-21)
(99.61820028 0.6952119647 -1.762706036e-20)
(99.65292349 0.8187557754 -7.325132768e-21)
(99.62639674 0.8148297991 0)
(99.5620179 0.900610503 7.560605449e-21)
(99.59437851 0.9119990048 -7.30641056e-21)
(99.53253016 1.253057268 3.584525134e-21)
(99.49238566 1.258472327 1.406659339e-20)
(99.40830738 1.388330967 6.975722669e-21)
(99.45870532 1.391280406 1.748589685e-20)
(99.4261727 1.822998756 -2.420178406e-20)
(99.36788561 1.848383738 -1.93528359e-20)
(99.26998578 2.03665282 6.175651596e-21)
(99.34437277 2.016630136 -2.225452861e-19)
(99.39415648 2.494945602 -1.603345256e-19)
(99.31653455 2.559681398 1.826603422e-19)
(99.2293551 2.812661977 0)
(99.32527397 2.744674597 1.000920002e-20)
(99.50116778 3.162548594 -2.036338762e-19)
(99.41305317 3.292632342 -2.23175189e-19)
(99.36204058 3.602761507 7.740806511e-19)
(99.46737491 3.456283094 2.364072315e-19)
(99.78629135 3.607529323 -1.588099904e-20)
(99.68816243 3.815294363 3.192641885e-19)
(99.72916741 4.12690549 2.99628108e-19)
(99.77824133 3.892921469 -2.161684972e-20)
(100.0986049 3.694975136 -1.915409667e-20)
(100.0740638 3.96316671 -2.021401339e-20)
(100.1459901 4.220587051 -3.231768431e-20)
(100.1681763 3.926789843 4.120963231e-20)
(100.3791807 3.391913597 7.400206278e-20)
(100.4055581 3.678456109 -9.786569325e-22)
(100.5032306 3.853334134 4.130157649e-20)
(100.4659226 3.553199231 1.95604144e-19)
(100.5268517 2.846107375 1.74618326e-21)
(100.5884135 3.109317281 4.55512287e-20)
(100.6815453 3.210669961 -2.901904757e-20)
(100.6103472 2.944061009 4.780853653e-21)
(100.5500318 2.227569029 -5.847557074e-21)
(100.6277974 2.446924735 -1.356357578e-20)
(100.7050518 2.496972196 -4.746975433e-21)
(100.6183466 2.281178633 5.342041778e-21)
(100.5607478 1.814575582 -1.693212564e-20)
(100.4841422 1.644562081 -1.142968438e-20)
(100.6188684 1.832369168 -1.144509777e-20)
(100.5385507 1.67033678 6.156632715e-21)
(100.387383 1.106436023 -5.127012309e-20)
(100.5166641 1.3497313 -2.687859331e-20)
(100.6033354 1.337629029 -7.773756722e-20)
(100.4505591 1.119849267 -3.639018245e-20)
(100.2859081 0.7506143632 -5.920868652e-20)
(100.3872482 0.9218534751 2.340094895e-20)
(100.444334 0.8984789939 -2.809973014e-20)
(100.3277977 0.7531795232 -2.458142567e-20)
(100.2471655 0.416806858 1.01562198e-20)
(100.423836 0.570892866 -2.540343616e-20)
(100.3956193 0.6888299886 -1.691472964e-22)
(100.295329 0.6202676911 -1.458105016e-20)
(100.1818283 0.2432495541 1.505322798e-20)
(100.3063374 0.3480384788 2.682576864e-20)
(100.146487 0.1117466974 -1.920243918e-21)
(100.2332595 0.1862641679 -3.881524331e-21)
(100.199894 0.05843683599 0)
(99.95622381 0.006142053325 2.53931956e-20)
(99.96641855 -0.003410445433 -4.233871788e-21)
(99.9174235 0.02598053632 2.135413002e-20)
(99.9340773 -0.0035197168 2.96522892e-20)
(99.84784187 0.074275535 -8.489619733e-21)
(99.86619515 0.01875164745 -4.213579514e-21)
(99.75746144 0.1767198099 0)
(99.75384259 0.0742765809 6.467600446e-21)
(99.70944603 0.1661298375 1.972744e-20)
(99.76774812 0.2076421259 -5.774193794e-20)
(99.69651826 0.2002961258 1.483186716e-20)
(99.69779048 0.2525718533 0)
(99.63023168 0.3981256431 3.368285736e-22)
(99.6182887 0.3512687464 -3.285739725e-20)
(99.51289351 0.4042482215 -3.283529316e-20)
(99.52354167 0.4768397892 6.667423938e-20)
(99.43794192 0.7001682036 -9.916541479e-20)
(99.41246375 0.6343499044 3.541971581e-20)
(99.25691078 0.7313262848 -6.62784959e-20)
(99.31935553 0.8220280886 -3.295883924e-20)
(99.24586985 0.8381326262 -5.422306033e-20)
(99.22960309 1.09714018 7.861589645e-21)
(99.20222191 1.057159333 1.56336004e-20)
(99.10075966 1.143118427 3.947991576e-20)
(99.13047467 1.194915965 7.79691542e-21)
(98.94429707 1.738656859 1.195011715e-19)
(98.89671466 1.693115149 1.281616001e-19)
(98.76070788 1.833426185 -3.632917388e-19)
(98.81650618 1.892362046 1.222513758e-19)
(98.68498144 2.63758286 -8.674655395e-19)
(98.60276322 2.599262229 -3.093760505e-19)
(98.44670594 2.823564347 -4.17700305e-19)
(98.54490172 2.873999074 -3.388519969e-19)
(98.57616699 3.805107037 -3.483791534e-19)
(98.4471223 3.808484605 2.664022482e-20)
(98.29633718 4.1492786 -1.163957559e-18)
(98.45377022 4.145076075 1.044949178e-20)
(98.80823036 5.048087244 -5.120496884e-19)
(98.64379422 5.146234101 -1.697460544e-21)
(98.57451374 5.580736683 -1.492133142e-18)
(98.76793175 5.445931154 -5.05735818e-19)
(99.55043116 5.896265999 9.470829664e-20)
(99.35806704 6.142080237 4.753513612e-19)
(99.48822795 6.574996665 7.553816954e-20)
(99.60415659 6.269433837 1.905582922e-19)
(100.4081003 5.965367341 -4.344882309e-20)
(100.3551067 6.315407794 -1.319167203e-20)
(100.5532256 6.617706899 -2.839960539e-20)
(100.5822844 6.21884762 -4.425522174e-20)
(101.0589055 5.31274942 -2.029925786e-19)
(101.1135822 5.679382574 -2.140984502e-19)
(101.3249755 5.825512315 -5.879621341e-19)
(101.233875 5.439672838 1.996795467e-20)
(101.3192799 4.310946778 -1.072342731e-19)
(101.4357398 4.633724525 2.208541502e-19)
(101.6033859 4.672962888 5.476270059e-19)
(101.4581156 4.352325817 2.321352214e-19)
(101.2969756 3.260409879 3.442401651e-21)
(101.4296655 3.518218501 1.732590533e-19)
(101.5460816 3.494620718 -7.237131414e-20)
(101.3957233 3.250943797 1.64119877e-19)
(101.2531251 2.533503079 0)
(101.1281643 2.346961493 4.560028925e-20)
(101.3297422 2.49490157 0)
(101.1945422 2.319160288 0)
(100.8650643 1.536307388 2.858397455e-20)
(101.0813836 1.799056451 1.844590387e-20)
(101.1689214 1.693199355 -1.660362691e-20)
(100.9357105 1.47505198 3.586563295e-20)
(100.635311 1.019766869 -3.286365173e-20)
(100.8012764 1.199850836 -1.467328244e-20)
(100.8536671 1.110193783 -1.483207094e-20)
(100.680278 0.9671166705 -7.131625808e-21)
(100.4689956 0.4983973984 -9.043725902e-21)
(100.7022959 0.6260971012 -1.92406066e-20)
(100.7278087 0.8111115336 -2.529709921e-21)
(100.5972635 0.7778121254 4.997237078e-21)
(100.345416 0.2881638519 7.731446778e-21)
(100.5045489 0.3768017916 1.176808849e-20)
(100.2763755 0.1312586299 -1.960933449e-21)
(100.3812416 0.1984467413 -3.467191971e-21)
(100.3236817 0.06160853048 -4.996801999e-22)
(99.94965843 -0.01338131955 0)
(99.97905905 -0.01649011167 0)
(99.88965985 -0.01185927776 4.264191304e-21)
(99.93271375 -0.04288850105 0)
(99.78158553 0.01962703402 1.074630734e-20)
(99.83662409 -0.0462554857 -3.647081382e-21)
(99.63020936 0.1182668386 1.895422948e-20)
(99.67587138 -0.01497097812 2.383902752e-20)
(99.58196723 0.08701166019 -7.194920942e-21)
(99.62681633 0.1756488534 2.555144409e-20)
(99.5473686 0.1328120768 2.077464819e-21)
(99.52865169 0.2030651352 -1.016252674e-20)
(99.38894675 0.3840903288 0)
(99.39800181 0.3080574313 -2.137811457e-20)
(99.26307182 0.3354710566 -1.75421124e-20)
(99.2423585 0.4425388028 4.363776009e-21)
(99.05988834 0.7222239779 0)
(99.05895321 0.6153233223 4.363308809e-21)
(98.8553353 0.6719381073 -4.495731888e-21)
(98.88037007 0.8425894898 2.191226047e-20)
(98.79800685 0.8245522647 5.642785914e-21)
(98.67361797 1.199388608 2.522893873e-19)
(98.66069409 1.119837152 0)
(98.51935206 1.189773293 0)
(98.53185026 1.283951242 -1.2463951e-19)
(98.14266645 2.023671115 2.470728136e-19)
(98.10581669 1.915444635 2.85115682e-19)
(97.91720043 2.045435037 -2.48187257e-19)
(97.9558574 2.179678472 -2.462677966e-19)
(97.57774844 3.313537668 2.295031811e-19)
(97.48909423 3.185455701 2.374134581e-19)
(97.23370016 3.440419924 2.379620932e-19)
(97.34096025 3.599344678 7.080680611e-19)
(97.2091547 5.191923808 0)
(97.01863664 5.085125478 -1.385354943e-20)
(96.74406282 5.524852594 3.547603778e-19)
(96.98679347 5.652191815 0)
(97.6115311 7.405549077 6.431560676e-19)
(97.29265908 7.445645592 6.977398989e-19)
(97.15800865 8.089683481 3.118838473e-19)
(97.56567798 8.016843405 -1.645241669e-19)
(99.29239344 9.004570329 1.614231346e-19)
(98.89215864 9.330306143 7.059886266e-20)
(99.17895265 9.985894632 -1.678679049e-19)
(99.45865167 9.549553425 5.037834657e-20)
(101.2546365 8.871556912 -3.063525164e-21)
(101.1627727 9.404342917 -5.330708488e-20)
(101.6079375 9.74957927 -5.300019132e-20)
(101.6356267 9.132359405 -1.878107103e-19)
(102.4632864 7.434961279 6.291365052e-20)
(102.6021063 7.935346982 4.666800561e-20)
(102.9851388 7.981085194 -2.657851253e-21)
(102.776357 7.474247945 -2.465491766e-20)
(102.7313802 5.676188628 7.426313657e-19)
(102.9612768 6.061097788 8.018452455e-19)
(103.2196294 5.973351462 3.240973003e-19)
(102.9391866 5.609850807 -3.950643816e-19)
(102.4736496 4.111171445 0)
(102.7047767 4.387191182 0)
(102.8427834 4.270272321 -2.37091614e-19)
(102.5919108 4.018504913 -1.126537871e-19)
(102.2214654 3.031368698 -4.983903503e-20)
(102.0292338 2.837262517 -3.794908981e-21)
(102.296633 2.915936057 3.450145045e-21)
(102.0951721 2.746214626 2.229346046e-20)
(101.508595 1.798854582 -9.308701381e-20)
(101.8183088 2.051217794 -5.902056123e-20)
(101.8771562 1.843223945 -3.315030367e-20)
(101.562768 1.658608508 -1.70740419e-20)
(101.093738 1.163521212 1.145525283e-20)
(101.3285869 1.328976054 3.452051739e-20)
(101.3507092 1.175231222 -3.880565308e-21)
(101.1226894 1.055232273 -3.783068038e-21)
(100.7240314 0.5044924729 2.005851059e-21)
(101.0044199 0.5743104541 0)
(101.1107503 0.8215604799 -1.12840128e-22)
(100.9664389 0.8288414181 -1.033357316e-20)
(100.5282926 0.284561498 4.434937821e-22)
(100.711949 0.3386226514 2.005670224e-21)
(100.41805 0.1274759961 -2.011991382e-21)
(100.5294076 0.1723679694 -2.014209e-21)
(100.4439159 0.05257793584 -2.027211173e-21)
(99.96723174 -0.04580468579 0)
(100.02229 -0.03559815879 2.084869917e-21)
(99.88594169 -0.07723161274 -8.553909335e-21)
(99.9624509 -0.1010553118 -2.100378568e-21)
(99.73890562 -0.08027365408 8.825359851e-21)
(99.83967598 -0.1460378347 -4.267217058e-21)
(99.51669494 -0.003405527561 1.158755271e-20)
(99.63192538 -0.1590217932 3.271824364e-21)
(99.48110988 -0.06299051991 -1.042137204e-23)
(99.48757849 0.0695254514 -8.631486022e-21)
(99.41898737 -0.01231347426 -8.687355637e-21)
(99.3682087 0.06954794345 0)
(99.14150398 0.2567648918 -1.754167935e-20)
(99.18408445 0.1590860442 0)
(99.02984417 0.1477359252 -1.00632966e-22)
(98.96186413 0.2784415614 -6.591175557e-23)
(98.64893413 0.5789116846 9.020035727e-21)
(98.69511736 0.4360753568 1.357145343e-20)
(98.45506425 0.4416866438 1.82591935e-20)
(98.41762121 0.6688323149 -3.752348968e-20)
(98.33798963 0.6174391764 -5.018828672e-20)
(98.05229203 1.068094313 -8.703342664e-20)
(98.07321379 0.9548391425 1.531433103e-19)
(97.90026239 0.9927694632 1.374415334e-19)
(97.87492617 1.124895944 1.385363622e-19)
(97.18278286 1.9781931 5.431296563e-19)
(97.18802974 1.806906415 8.147799842e-19)
(96.93025178 1.905577949 6.794819458e-19)
(96.91713316 2.111627923 8.248715831e-19)
(96.04331512 3.594685847 -2.833353476e-19)
(95.99176346 3.336372282 -6.116451341e-21)
(95.59917532 3.557072102 -1.403657812e-19)
(95.66156081 3.8706882 -1.898707676e-20)
(94.94888209 6.311349998 1.290724179e-19)
(94.72558509 5.978496864 1.736715899e-20)
(94.20076083 6.437636274 1.553006636e-19)
(94.49129018 6.862788596 2.943718494e-19)
(95.07275517 10.32232474 -4.521469683e-19)
(94.46288749 10.09872125 -2.909587967e-20)
(94.0030863 11.06948643 -1.47729955e-20)
(94.84430055 11.30972251 -2.871377491e-20)
(98.53097593 13.83547805 4.613859079e-20)
(97.70324372 14.33329469 5.683715831e-19)
(98.1572641 15.58019737 1.039165882e-19)
(99.11560776 14.78608296 -7.792138627e-20)
(103.2801015 12.9149688 4.318393785e-19)
(103.1451188 13.89462446 3.071173539e-19)
(104.1385344 14.19859823 -1.232411754e-19)
(104.0769969 13.08078909 2.069604807e-19)
(105.1605514 9.565199949 -1.464153352e-21)
(105.5122476 10.27336626 2.291754808e-19)
(106.1386224 10.04447315 2.261779403e-19)
(105.6505697 9.375542308 -1.173965911e-19)
(104.9999298 6.656224708 0)
(105.4273615 7.068733061 0)
(105.7048544 6.783005216 1.349814588e-20)
(105.2298962 6.424133197 0)
(104.1283255 4.547418863 2.529784141e-20)
(104.494001 4.798129261 1.174602132e-18)
(104.6071726 4.554929499 -2.537395241e-20)
(104.2303791 4.344750569 -2.683964313e-19)
(103.46151 3.179484509 -2.079208358e-19)
(103.1794769 3.010802662 -1.135171043e-21)
(103.5005735 2.984267528 1.713736994e-19)
(103.2219772 2.844633932 -3.381125457e-20)
(102.2625725 1.81680261 2.701874293e-20)
(102.6630362 2.012725086 -2.601584156e-22)
(102.6511225 1.711220193 1.653015912e-20)
(102.267152 1.598606555 1.23098344e-20)
(101.6112135 1.138964032 -1.619237053e-20)
(101.9109642 1.25874321 -8.271019744e-21)
(101.8731474 1.049957296 -8.272622137e-21)
(101.5983138 0.9802324449 1.265584049e-20)
(100.9769621 0.4147201952 0)
(101.2902618 0.4075283822 1.342228313e-21)
(101.4867832 0.6790274668 -1.115320186e-20)
(101.3523645 0.7566069502 2.762117199e-20)
(100.6999382 0.2244650358 -5.082614107e-22)
(100.891333 0.2253184081 -1.586045585e-21)
(100.5448815 0.0972571005 -2.039319185e-21)
(100.6493605 0.1050169451 -2.313306516e-21)
(100.5356404 0.03063568417 2.593299738e-21)
(100.0219329 -0.0902420927 -1.484450018e-23)
(100.1074301 -0.05998957148 6.830415421e-23)
(99.92166795 -0.1684282024 2.183089714e-21)
(100.036269 -0.1755907482 -8.30965326e-23)
(99.73999248 -0.2233865248 -1.145463302e-20)
(99.8916757 -0.2760486661 1.723845216e-21)
(99.44931738 -0.1957248496 -1.036801978e-20)
(99.64583074 -0.3513007348 -1.739847923e-20)
(99.43644888 -0.2798206788 -1.479549623e-20)
(99.38552259 -0.1149702958 -8.131151861e-21)
(99.3438517 -0.2337039795 -3.221455868e-21)
(99.25477142 -0.1513598505 4.266368463e-23)
(98.93438612 0.009372741761 1.318169135e-20)
(99.02029173 -0.09825686153 1.339546153e-20)
(98.86059802 -0.1563709122 6.622183554e-21)
(98.73688625 -0.01989682991 2.278014085e-20)
(98.28302913 0.259090192 -6.042928028e-20)
(98.39298109 0.09128789065 -5.589736311e-20)
(98.14094002 0.03304066681 -6.365783763e-20)
(98.00961961 0.2864439103 -4.37616269e-20)
(97.95112395 0.2014996152 -4.387785219e-20)
(97.48688057 0.6604853768 0)
(97.55172555 0.5268002042 -2.911843293e-19)
(97.36820538 0.5160065888 0)
(97.28662158 0.6681523312 7.217412012e-20)
(96.1973085 1.498810048 -3.597491902e-20)
(96.28215745 1.276788409 0)
(95.976761 1.299842251 1.199876431e-21)
(95.86403405 1.558799368 5.972922892e-19)
(94.2504838 3.088997304 8.162446276e-20)
(94.32602943 2.71978916 -3.086642132e-19)
(93.82782274 2.79470032 8.219231011e-20)
(93.71010533 3.239449536 2.817145395e-19)
(91.5699131 6.047680838 7.113292425e-19)
(91.52295964 5.404443605 -3.769280843e-19)
(90.66339825 5.582920384 5.72872558e-20)
(90.68513577 6.425010964 8.759682288e-19)
(88.83219955 12.50707415 7.460838162e-19)
(88.09303353 11.32100945 -3.951881203e-19)
(86.23285393 12.70388288 1.172191996e-18)
(86.48360124 11.88028014 -1.230708606e-18)
(87.94319309 14.00925876 1.043878167e-18)
(86.95151785 14.09980307 -5.2915591e-19)
(93.56078815 23.95116837 -4.969895943e-19)
(94.92759091 23.55696533 2.549205264e-19)
(94.05628583 25.75130526 2.988483862e-19)
(95.72403822 24.92306764 -1.314040505e-19)
(108.6069827 20.49618992 -4.113233754e-19)
(108.7033044 18.73542234 6.475634192e-19)
(110.3304617 18.22814006 -1.01110107e-18)
(109.502766 21.24327878 -6.451859959e-20)
(111.5002973 19.90678789 6.481489876e-19)
(111.1425724 20.72688485 -2.176382385e-19)
(110.7559015 11.86553714 2.891784192e-20)
(109.8726099 10.99513646 1.390211418e-19)
(111.4050851 11.01480127 4.141256049e-19)
(110.3808738 10.34814902 1.892357271e-19)
(108.1243797 6.698649514 0)
(108.8354779 7.040399947 1.552782827e-19)
(109.0068345 6.465727703 0)
(108.2780975 6.237120464 0)
(106.153005 4.247216002 9.433980601e-19)
(106.6686081 4.4014596 1.508056912e-18)
(106.6743738 4.019903877 1.803404675e-19)
(106.1716797 3.927849422 1.10499135e-18)
(104.8339698 2.774585957 -1.746825472e-19)
(104.4662501 2.689858025 -5.714492356e-20)
(104.7874218 2.514836217 5.840720975e-21)
(104.4379195 2.453910524 5.457031743e-19)
(103.028859 1.520242223 4.369860422e-21)
(103.5182017 1.606414763 0)
(103.3771946 1.241234354 -2.560325296e-21)
(102.9473987 1.236422631 -4.583771531e-21)
(102.1184701 0.9028221752 4.559592087e-21)
(102.4617036 0.9452763662 -2.078304868e-23)
(102.3449701 0.7017478472 -7.367548233e-21)
(102.0414575 0.7049712996 9.240834323e-21)
(101.1834044 0.2248961494 -1.792808402e-22)
(101.4899883 0.1288982544 -2.999843993e-22)
(101.8096219 0.380270299 8.293919319e-22)
(101.6987954 0.4933512042 6.718037592e-21)
(100.8272089 0.1058244802 -3.400130282e-21)
(101.0035278 0.03939420929 -2.440070871e-22)
(100.6297335 0.03934474751 2.530258467e-21)
(100.7120093 -0.000983275462 -2.297722685e-21)
(100.5727372 -0.003478327942 4.355589964e-22)
(100.1250619 -0.1444196415 1.560070909e-23)
(100.243666 -0.08823162271 -3.087857102e-21)
(100.0103896 -0.2805391544 -5.633287161e-22)
(100.1646951 -0.2620259323 1.346975676e-21)
(99.80282363 -0.4015104951 -4.437123784e-21)
(100.005857 -0.4277238872 -2.922013876e-21)
(99.45462112 -0.4434512778 9.155809832e-21)
(99.73499081 -0.5776247416 -1.008530283e-21)
(99.47333077 -0.5484050118 9.462228987e-22)
(99.35063104 -0.3692265872 4.456497356e-21)
(99.3523649 -0.5144424613 9.249904908e-21)
(99.22240179 -0.4451773705 6.515346129e-21)
(98.81466112 -0.3445623677 -2.233088199e-21)
(98.94925557 -0.4458359185 3.442695251e-21)
(98.80021039 -0.5510039992 2.275648531e-21)
(98.61846224 -0.4303536818 6.892350399e-21)
(98.03899831 -0.2299700919 3.746218308e-20)
(98.21870387 -0.3937969091 3.797607012e-20)
(97.98453675 -0.5216892631 7.411756925e-20)
(97.75916271 -0.2762918706 2.406462124e-20)
(97.73607738 -0.3926014673 2.405601852e-20)
(97.09499852 -0.00886711204 5.654433581e-19)
(97.21481259 -0.1414220597 0)
(97.03682744 -0.2068967329 0)
(96.89066115 -0.06068559944 0)
(95.4493247 0.5335899801 -6.176013133e-19)
(95.63354612 0.3089710115 -5.50120371e-19)
(95.33233614 0.2344012568 -6.263390347e-19)
(95.10375324 0.4803699855 -1.928043411e-18)
(92.82254334 1.532647672 -8.940135215e-20)
(93.0944545 1.15550571 -3.442689416e-19)
(92.61375054 1.025444924 0)
(92.2545154 1.435881451 -9.866768271e-20)
(88.56924752 3.118361514 -9.421232618e-19)
(89.00337204 2.43348758 -4.982576024e-19)
(88.24589807 2.082270771 -4.931626551e-19)
(87.58567571 2.80363873 1.059004921e-18)
(80.44896052 5.599112313 -5.203587988e-20)
(81.05633991 4.703242358 -1.208025066e-18)
(80.19817063 4.057463366 -1.180633095e-18)
(79.29161028 4.99160877 -1.830844544e-18)
(125.8107929 23.38805369 1.814970602e-18)
(123.8991324 22.35152276 1.675491353e-18)
(126.4286818 21.35760471 2.527967784e-18)
(124.5839028 20.7461869 1.670493422e-18)
(118.1924312 9.830212232 3.250909369e-18)
(116.5096473 9.430157652 1.702467573e-18)
(118.108835 8.253130509 1.938063276e-18)
(116.5443547 8.210740309 1.195252575e-18)
(111.5931063 5.018517139 5.023840115e-19)
(112.557088 5.060105077 4.73011409e-19)
(112.3638954 4.28217442 5.054322053e-19)
(111.4733893 4.374778544 -2.678259978e-19)
(108.1391881 2.95308156 0)
(108.7581509 2.919459548 0)
(108.5641121 2.470575968 0)
(107.9998088 2.565715851 -2.52242577e-20)
(106.0707249 1.724168456 0)
(105.6524905 1.758339313 0)
(105.9052468 1.433256078 3.69090374e-19)
(105.5239149 1.489680374 0)
(103.6747268 0.8797629184 -4.997363396e-21)
(104.2115104 0.8206287767 -1.759260976e-21)
(103.9049726 0.4473114841 8.00915161e-21)
(103.4763746 0.5759167113 1.190218792e-21)
(102.5236626 0.450593008 -1.993061306e-21)
(102.8751665 0.3927216896 1.395906471e-20)
(102.6585939 0.1564209357 5.139109316e-21)
(102.3702815 0.2494397333 1.018753676e-20)
(101.2957835 -0.05194919972 -3.493499672e-22)
(101.5659623 -0.2408155795 -1.076611204e-21)
(101.9969958 -0.05516485303 -1.094523683e-21)
(101.9440596 0.1128221371 -1.256667522e-21)
(100.8770957 -0.06522884268 1.09138609e-21)
(101.0159414 -0.2033014717 1.342407501e-21)
(100.6460403 -0.04232615939 -4.345861406e-21)
(100.69035 -0.1370784436 1.673579315e-21)
(100.5327938 -0.04734725552 -2.152778946e-21)
(100.2849964 -0.2047509263 -1.756443085e-21)
(100.436809 -0.118384201 9.73610957e-22)
(100.1621781 -0.405760511 -1.023167293e-21)
(100.3543352 -0.3543376769 -7.200658467e-22)
(99.94048926 -0.6011642008 5.224320041e-22)
(100.190224 -0.5898441218 -2.582619415e-22)
(99.55288437 -0.728238277 5.968322971e-22)
(99.91011374 -0.8205109039 8.734700772e-22)
(99.60753773 -0.8452549156 5.205156306e-22)
(99.40864162 -0.6712650376 1.52660087e-21)
(99.46269982 -0.8311393472 -1.484888543e-23)
(99.29559836 -0.7854427167 -1.48509974e-23)
(98.82054952 -0.7707765306 -2.268498095e-21)
(99.00097846 -0.850875664 0)
(98.87729606 -0.9983960276 -1.110013137e-21)
(98.64562112 -0.9108859029 -1.175602558e-21)
(97.98222526 -0.8333065496 1.519805958e-21)
(98.22320907 -0.9650870792 -3.808420534e-20)
(98.03366629 -1.154650035 -3.692820523e-20)
(97.72601066 -0.9521853809 -1.972921579e-20)
(97.74359516 -1.084497701 -8.074775013e-19)
(96.9673211 -0.8431367902 0)
(97.13578823 -0.9510554232 -3.033219316e-19)
(96.98183712 -1.062855581 1.859979977e-20)
(96.78213883 -0.9497735644 7.594015653e-20)
(95.16876378 -0.722182478 9.78343355e-19)
(95.42461765 -0.8969622606 7.938661894e-20)
(95.17762674 -1.046549322 1.615155089e-19)
(94.86288008 -0.8694480583 -5.148536079e-19)
(92.39324211 -0.5544523921 1.643183163e-20)
(92.79604142 -0.8115545661 3.484758207e-20)
(92.43968761 -1.059452465 -4.795913993e-20)
(91.96303621 -0.8221818725 3.954561622e-19)
(88.33664786 -0.8071978796 1.904000193e-18)
(88.99072377 -1.118957072 -4.638455567e-19)
(88.59334173 -1.59294754 -9.440305743e-19)
(87.85132677 -1.372142539 5.275630547e-19)
(83.26960461 -2.964355351 5.588083124e-19)
(83.86392869 -2.961131846 -2.150134407e-18)
(83.80813803 -3.415491625 5.093733856e-19)
(83.27228614 -3.521464039 6.856875332e-19)
(138.9613405 5.995450462 -2.584093348e-18)
(137.2606671 6.993698637 1.244300811e-18)
(137.6266035 4.623640636 -1.156829676e-18)
(136.2102389 5.626336938 3.447224682e-18)
(123.1843352 2.432131275 7.543303228e-19)
(121.4882442 3.138154034 7.020396546e-19)
(121.9858138 1.143228097 7.512265124e-19)
(120.6487443 1.954444859 1.461021116e-18)
(114.0328303 1.423048058 5.946177771e-19)
(114.9727742 1.002883591 0)
(114.3172981 0.3327623734 6.077339074e-19)
(113.5311162 0.8055154442 -5.348606395e-19)
(109.4828 0.6959825533 1.179762673e-18)
(110.0730391 0.4178481561 -1.687322131e-18)
(109.647304 0.03101809307 -9.270884655e-19)
(109.1399327 0.3318812931 -8.16223263e-19)