/*--------------------------------*- C++ -*----------------------------------*\
| =========                 |                                                 |
| \\      /  F ield         | OpenFOAM: The Open Source CFD Toolbox           |
|  \\    /   O peration     | Version:  v1912                                 |
|   \\  /    A nd           | Website:  www.openfoam.com                      |
|    \\/     M anipulation  |                                                 |
\*---------------------------------------------------------------------------*/
FoamFile
{
    version     2.0;
    format      ascii;
    class       surfaceScalarField;
    location    "2.35";
    object      meshPhi;
}
// * * * * * * * * * * * * * * * * * * * * * * * * * * * * * * * * * * * * * //

dimensions      [0 3 -1 0 0 0 0];
oriented        oriented;


internalField   nonuniform List<scalar> 
25162
(
0
0
0
0
0
0
0
0
0
0
0
0
0
0
0
0
0
0
0
0
0
0
0
0
0
0
0
0
0
0
0
0
0
0
0
0
0
0
0
0
0
0
0
0
0
0
0
0
0
0
0
0
0
0
0
0
0
0
0
0
0
0
0
0
0
0
0
0
0
0
0
0
0
0
0
0
0
0
0
0
0
0
0
0
0
0
0
0
0
0
0
0
0
0
0
0
0
0
0
0
0
0
0
0
-3.814827033e-09
1.502376868e-08
-1.682632976e-07
0
7.851890954e-09
1.430668307e-07
0
0
0
0
0
0
0
0
0
0
0
0
0
0
0
0
0
0
0
0
0
0
0
0
0
0
0
0
0
0
0
0
0
0
0
0
0
0
0
0
0
0
0
0
0
0
0
0
0
0
0
0
0
0
0
0
0
0
0
0
0
0
0
0
0
0
1.792842198e-08
-1.74188261e-07
-1.592710701e-06
1.095587838e-06
6.060368253e-06
-9.801290559e-06
-1.369402102e-05
1.388395315e-05
7.90936942e-06
-2.600438873e-05
-1.349613482e-05
2.927589775e-05
-1.187803293e-06
-3.446526446e-05
2.221280923e-06
3.429707245e-05
-8.631206732e-06
-2.789447043e-05
1.579181489e-05
2.409788472e-05
-4.09409313e-06
-1.07200332e-05
1.137102317e-05
6.63717297e-06
0
-1.888219271e-07
2.506792645e-07
0
0
0
0
0
0
0
0
0
0
0
0
0
0
0
0
0
0
0
0
0
0
0
0
0
0
0
0
0
0
0
0
0
0
0
0
0
0
0
0
0
0
0
0
0
0
0
0
0
0
0
8.565101416e-07
-2.205632413e-07
-4.21717897e-06
1.580218879e-06
2.763861083e-05
-1.332065972e-05
-4.171284975e-05
1.887215069e-05
4.946839158e-05
-3.783657354e-05
-6.382380175e-05
4.444804692e-05
3.466188393e-05
-6.299529335e-05
-4.203153213e-05
6.817677394e-05
-8.344989913e-06
-7.836767406e-05
1.146648604e-05
7.951943883e-05
-4.837002598e-05
-7.490191897e-05
6.197863847e-05
7.057754736e-05
-5.32282808e-05
-5.039327899e-05
7.259891546e-05
4.203030333e-05
-2.069697523e-05
-1.722522719e-05
3.521416077e-05
1.052398455e-05
0
-2.153602795e-07
6.774876026e-07
0
0
0
0
0
0
0
0
0
0
0
0
0
0
0
0
0
0
0
0
0
0
0
0
0
0
0
0
0
0
0
0
0
0
0
0
0
0
0
0
0
0
0
0
0
-2.859963815e-07
2.334408537e-08
3.10592472e-05
-2.440133694e-06
-4.351249599e-05
4.332232428e-06
9.093846441e-05
-1.186999213e-05
-0.0001077966111
1.472319314e-05
0.0001070607835
-2.575519422e-05
-0.0001202612753
3.019233249e-05
6.13269288e-05
-4.387846724e-05
-6.63443517e-05
4.799752164e-05
-2.271756991e-05
-5.751570747e-05
2.639284033e-05
5.964314756e-05
-0.0001045870874
-6.23858199e-05
0.0001175439122
6.168922431e-05
-0.0001385985471
-5.269999593e-05
0.0001608390019
4.764005258e-05
-9.790804317e-05
-2.627437585e-05
0.0001228622362
2.127192958e-05
-2.156774315e-05
-6.154589046e-06
3.446297743e-05
2.851087585e-06
0
0
0
0
0
0
0
0
0
0
0
0
0
0
0
0
0
0
0
0
0
0
0
0
0
0
0
0
0
0
0
0
0
0
0
0
0
0
0
0
0
0
8.244594116e-06
3.433540445e-07
-1.313990353e-05
-1.567515042e-06
8.707655554e-05
1.15507878e-05
-0.0001003903441
-1.662596446e-05
0.0001580775211
3.414432511e-05
-0.0001711578842
-3.957941956e-05
0.0001561637638
4.338509373e-05
-0.0001662452809
-4.179451219e-05
7.699466564e-05
3.488314617e-05
-7.996986255e-05
-3.269379854e-05
-3.373395074e-05
3.04119982e-05
3.435714236e-05
-2.995221875e-05
-0.0001469153779
2.748398465e-05
0.0001509841258
-2.477598952e-05
-0.0002265264897
2.171684714e-05
0.0002383800889
-1.485144887e-05
-0.0001963878415
5.448268437e-06
0.0002190298773
-4.51276586e-06
-8.295464764e-05
3.14964092e-06
0.0001001944058
-2.6305985e-06
3.713159976e-07
-2.069574969e-06
3.669463385e-06
-7.658068991e-09
0
0
0
0
0
0
0
0
0
0
0
0
0
0
0
0
0
0
0
0
0
0
0
0
0
0
0
0
0
0
0
0
0
0
0
-2.521343867e-07
-8.099179491e-10
-3.584366926e-08
2.861579882e-05
5.362033921e-06
-3.408871652e-05
-1.232216848e-05
0.0001310845689
4.754808378e-05
-0.0001409003593
-6.103358767e-05
0.0002028049113
0.0001040392629
-0.000210267837
-0.0001153255267
0.0001853818878
0.0001363540582
-0.000188369426
-0.0001390684248
8.656711102e-05
0.0001413444614
-4.512809267e-05
-4.71678458e-05
-6.308824836e-05
-7.252738558e-05
6.215083396e-05
-1.377741566e-05
1.38619412e-05
-6.22353595e-05
6.654671659e-05
-0.0001585930789
-0.0001404218912
7.478579671e-05
8.120839352e-05
7.647406329e-05
0.0001251673445
-0.0002622837581
0.0002667233606
-0.0001180012461
-0.0002733514041
9.074070049e-05
0.0002840236726
-7.77026666e-05
-0.0001471368455
3.986461654e-05
0.000162933134
-2.978399931e-05
6.493858534e-06
-1.725753817e-05
2.261187508e-05
-2.145303705e-06
0
0
0
0
0
0
0
0
0
0
0
0
0
0
0
0
0
0
0
0
0
0
0
0
0
0
0
0
0
0
0
0
0
1.056052534e-06
0
-2.260335476e-06
-4.424060945e-07
-7.537497008e-07
4.508853362e-05
1.451163787e-05
-4.639303534e-05
-2.846340428e-05
0.0001588182235
9.052213096e-05
-0.0001610129436
-0.0001148535237
0.0002253503316
0.0001847421974
-0.0002269559987
-0.0002038183091
0.0001946901022
0.0002374650149
-0.0001953082872
-0.0002392435297
4.623218825e-05
0.0001180583107
-4.64958093e-05
-0.0001177946897
0.0001168079338
-7.372544952e-05
7.354462159e-05
-0.0001166271059
0.0002359777836
-0.0002708236898
0.0002709852259
-0.0002297050655
-0.0003142884052
0.0001862407766
0.0003186252051
-0.0001656352279
-0.0001960567381
9.633061056e-05
0.0002013466176
-7.381247563e-05
1.988845479e-05
-3.535054108e-05
4.101686332e-05
-8.832222525e-06
0
0
0
0
0
0
0
0
0
0
0
0
0
0
0
0
0
0
0
0
0
0
0
0
0
0
0
0
0
0
0
0
0
2.935233601e-06
0
-3.70041105e-06
-1.689898847e-06
-2.034817116e-06
5.307307967e-05
2.52504917e-05
-5.447331683e-05
-4.659613829e-05
0.0001692739151
0.0001373973185
-0.0001709179724
-0.000172220057
0.0002324219878
0.0002698152376
-0.0002334542059
-0.0002954950377
0.0001964219209
0.0003377101845
-0.000196601571
-0.0003389534061
4.576581744e-05
0.0001664862681
-4.575825024e-05
-0.0001664938353
0.0001674428806
-7.318105919e-05
7.308982266e-05
-0.0001673516441
0.0003401836091
-0.0002694808256
0.0002690104006
-0.0003353449717
-0.0003294894206
0.0002818529734
0.0003313639047
-0.0002535054297
-0.0002196439783
0.0001534775687
0.0002233262001
-0.0001196291663
3.576228092e-05
-4.825204787e-05
5.062259247e-05
-1.744787023e-05
0
0
0
0
0
0
0
0
0
0
0
0
0
0
0
0
0
0
0
0
0
0
0
0
0
0
0
0
0
0
0
0
0
4.439803281e-06
0
-5.450490851e-06
-3.265094366e-06
-3.824804588e-06
5.793341496e-05
3.650107613e-05
-5.93217579e-05
-6.526503797e-05
0.0001749160364
0.0001847446252
-0.0001765050012
-0.0002299134535
0.0002359019673
0.0003549815221
-0.0002368945433
-0.0003873443305
0.0001969519612
0.000438343641
-0.0001970984372
-0.0004392259407
4.565631498e-05
0.00021641582
-4.571377253e-05
-0.0001073448621
-0.0001090135003
0.0002178729429
-7.268464334e-05
7.257931454e-05
-0.0002177676141
0.0004405026216
-0.0002685343906
0.0002684913461
-0.0004350351584
-0.0003291193257
0.000367743325
0.0003275961176
-0.0003313220783
-0.0002205109307
0.0002006980761
0.0002188488587
-0.0001563276729
4.61925223e-05
-4.898832024e-05
4.823814139e-05
-2.232149543e-05
0
0
0
0
0
0
0
0
0
0
0
0
0
0
0
0
0
0
0
0
0
0
0
0
0
0
0
0
0
0
0
0
0
6.546587637e-06
0
-7.796529996e-06
-5.885752456e-06
-6.722831303e-06
6.362830799e-05
5.05634084e-05
-6.51320154e-05
-8.751310674e-05
0.0001813378188
0.0002371435241
-0.0001829993873
-0.0002928041117
0.0002399132065
0.0004445947898
-0.0002409531506
-0.0004830266348
0.0001973953845
0.0005402925387
-0.0001974741012
-0.0005406884486
4.557311386e-05
0.0002672177099
-4.557768995e-05
-0.0001328042157
-0.0001344089181
0.0002683721203
-7.208096395e-05
7.193875459e-05
-0.0002682299109
0.0005402805972
-0.0002681802074
0.0002679582585
-0.000529417796
-0.0003163738359
0.0004373633042
0.0003088441006
-0.0003900871766
-0.0002007670798
0.0002272147747
0.0001950214213
-0.0001734079447
4.505032772e-05
-3.782430826e-05
3.54286855e-05
-1.929362648e-05
0
0
0
0
0
0
0
0
0
0
0
0
0
0
0
0
0
0
0
0
0
0
0
0
0
0
0
0
0
0
0
0
0
9.294035771e-06
0
-9.847239973e-06
-9.94175911e-06
-1.058224582e-05
6.999966781e-05
6.784498484e-05
-7.188554423e-05
-0.0001137115404
0.0001882849884
0.0002946460972
-0.0001903058265
-0.0003607498239
0.0002442807299
0.0005378077132
-0.0002455561799
-0.0005814499506
0.0001976330818
0.0006417929573
-0.00019771374
-0.0006417671662
4.549849056e-05
0.0003177651231
-4.547601686e-05
-0.0001580447789
-0.0001597428178
0.0003179953368
-7.125874456e-05
7.115893939e-05
-0.0003178955317
0.0006312376425
-0.0002660030794
0.0002647470216
-0.0006093716739
-0.0002896141142
0.0004780922734
0.0002854091856
-0.0004232145959
-0.0001691360357
0.0002305102392
0.0001567720195
-0.0001694274105
3.463983894e-05
-2.331658025e-05
1.978323511e-05
-1.121893978e-05
0
0
0
0
0
0
0
0
0
0
0
0
0
0
0
0
0
0
0
0
0
0
0
0
0
0
0
0
0
0
0
0
0
1.363063499e-05
0
-1.756738862e-05
-1.755246219e-05
-2.056639356e-05
7.772794283e-05
9.20169322e-05
-8.240645843e-05
-0.0001479271484
0.0001971151259
0.0003615186766
-0.0002003247481
-0.0004371182474
0.0002498252049
0.0006341720293
-0.000249561573
-0.0006842649806
0.000197721763
0.0007431429455
-0.0001979815854
-0.0003682854299
-0.0003745976932
2.357938783e-05
0.0001831516462
-2.36291119e-05
-0.0001831019222
-4.780834966e-06
9.13039823e-05
4.582264805e-06
-0.0001828383826
9.173297047e-05
0.000366532725
-7.06203445e-05
0.0001481945257
-0.0007392396929
0.0003726818974
-7.754911066e-05
-0.0002590527607
0.000705930513
0.0002551231499
-0.0006689591672
-0.0002588742828
0.0004971760858
0.0002485529072
-0.0004251540347
-0.000126136009
0.0002057659129
0.0001174743233
-0.0001420246947
1.593382514e-05
-7.780363673e-06
6.053764187e-06
-1.558949318e-06
0
0
0
0
0
0
0
0
0
0
0
0
0
0
0
0
0
0
0
0
0
0
0
0
0
0
0
0
0
0
0
0
0
1.985646183e-05
0
-1.650552535e-05
-2.603625109e-05
-2.439834365e-05
8.9421014e-05
0.0001168660099
-8.705504301e-05
-0.0001823708209
0.0002072806506
0.000425296696
-0.0002043109484
-0.0005105252215
0.0002544836534
0.0007309555408
-0.0002519274298
-0.0007826897351
0.0001948523876
0.0008449776973
-0.0001948523877
-0.0004194226876
-0.0004255550096
2.270817385e-05
0.0004194226876
-4.362310527e-05
2.091493144e-05
-0.0002088224971
-0.0002106001905
-1.376276136e-05
0.0002088225056
1.376274859e-05
-0.0004194226876
0.0002106001948
0.0008449776973
-0.0001495022679
0.000149596421
-0.0008434576095
-0.0002425462752
0.0007502479197
0.0002372454396
-0.0006955422221
-0.0002136044004
0.0004724274918
0.0002050239153
-0.0003945192138
-8.463335288e-05
0.0001605376693
7.306496364e-05
-0.0001014282607
2.409201446e-06
-1.134849883e-06
5.115449536e-07
0
0
0
0
0
0
0
0
0
0
0
0
0
0
0
0
0
0
0
0
0
0
0
0
0
0
0
0
0
0
0
0
0
0
1.046121036e-05
0
-3.907406521e-06
-1.307777661e-05
-8.372210957e-06
7.005117119e-05
9.065024873e-05
-6.165116242e-05
-0.0001518108562
0.0001825601198
0.0003924499308
-0.0001712867307
-0.0004811690657
0.0002332217637
0.0007281560988
-0.0002234013422
-0.0007948389112
0.0001902256551
0.0009224538199
-0.000185184943
-0.0009395100601
4.362310527e-05
0.0009464698093
-8.007467502e-05
-0.0009464698093
3.645156973e-05
-3.469879438e-05
0.0009464698093
3.469879435e-05
-0.0009464698093
-0.0001484489104
0.000932167208
0.0001458432315
-0.0009088032431
-0.0002162672712
0.0007582608169
0.0002058285422
-0.000683577138
-0.000163924335
0.0004182000016
0.0001506114981
-0.0003273410906
-4.345041131e-05
9.941500392e-05
3.531574805e-05
-5.207603376e-05
0
0
0
0
0
0
0
0
0
0
0
0
0
0
0
0
0
0
0
0
0
0
0
0
0
0
0
0
0
0
0
0
0
0
0
0
0
9.635173144e-08
0
0
-7.85010544e-08
0
3.243514801e-05
3.351980075e-05
-2.282927571e-05
-7.466705338e-05
0.0001273975821
0.0002699317975
-0.00011021881
-0.0003499311124
0.0001838000457
0.0005955865865
-0.000167463147
-0.0006710400526
0.0001622021974
0.0008527510021
-0.0001518047532
-0.0008954724849
7.65103322e-05
0.0009714980467
-7.35902673e-05
-0.0009821366364
-3.140575401e-05
0.0009795116257
2.869167693e-05
-0.0009668098373
-0.0001269708792
0.0008813085165
0.0001170023988
-0.000833931844
-0.0001619665476
0.0006339478052
0.000143910798
-0.000551872014
-0.0001017738522
0.0002928690329
8.413846372e-05
-0.0002130044555
-1.394934406e-05
3.834693563e-05
8.153363626e-06
-1.040850026e-05
0
0
0
0
0
0
0
0
0
0
0
0
0
0
0
0
0
0
0
0
0
0
0
0
0
0
0
0
0
0
0
0
0
0
0
0
0
0
0
0
0
0
2.584599566e-06
8.314864325e-08
-4.346647737e-07
-6.211290476e-06
5.669455447e-05
0.0001045386846
-4.017251327e-05
-0.0001581197778
0.0001114171574
0.0003484277921
-9.152258762e-05
-0.0004141194697
0.0001127897167
0.0005912184627
-9.76473856e-05
-0.0006389395
5.975818315e-05
0.0007363020841
-5.346894024e-05
-0.0007521678191
-1.803540799e-05
0.0007476950195
1.437159787e-05
-0.0007285873994
-7.975910269e-05
0.0006189840774
6.63401467e-05
-0.0005662635308
-8.576094744e-05
0.0003739039124
6.705145244e-05
-0.0003044433138
-3.536281436e-05
0.0001145318229
2.248669324e-05
-6.647204999e-05
-1.104999485e-07
2.761730722e-07
0
0
0
0
0
0
0
0
0
0
0
0
0
0
0
0
0
0
0
0
0
0
0
0
0
0
0
0
0
0
0
0
0
0
0
0
0
0
0
0
0
0
0
0
0
0
0
0
5.047711862e-06
2.977243977e-06
-8.085099336e-07
-1.371887952e-05
3.607552771e-05
9.362590554e-05
-2.150455495e-05
-0.0001298320789
5.047003656e-05
0.0002419201846
-3.596305198e-05
-0.0002752963572
3.12296362e-05
0.0003469888848
-2.359115314e-05
-0.0003587968589
-5.51701055e-06
0.0003524658136
3.561705775e-06
-0.0003364489134
-2.960317861e-05
0.0002528625693
1.988127779e-05
-0.0002162671214
-2.138110099e-05
0.0001004924521
1.128403084e-05
-6.611771442e-05
-1.036219053e-06
3.723415628e-06
2.854223488e-09
-3.992144816e-08
0
0
0
0
0
0
0
0
0
0
0
0
0
0
0
0
0
0
0
0
0
0
0
0
0
0
0
0
0
0
0
0
0
0
0
0
0
0
0
0
0
0
0
0
0
0
0
0
0
0
0
0
0
0
1.255162124e-07
0
0
-5.258156474e-07
5.017142034e-06
1.428464062e-05
-8.029913066e-07
-2.21148136e-05
5.165589851e-06
4.31707158e-05
-1.737874661e-06
-4.695556146e-05
-4.786068573e-07
4.389121363e-05
1.305368815e-07
-3.834414481e-05
-1.983292748e-06
1.525118185e-05
1.631228619e-07
-8.390285309e-06
0
0
0
0
0
0
0
0
0
0
0
0
0
0
0
0
0
0
0
0
0
0
0
0
0
0
0
0
0
0
0
0
0
0
0
0
0
0
0
0
0
0
0
0
0
0
0
0
0
0
0
0
0
0
0
0
0
0
0
0
0
0
0
0
0
0
0
0
0
0
0
0
0
0
0
0
0
0
0
0
0
0
0
0
0
0
0
0
0
0
0
0
0
0
0
0
0
0
0
0
0
0
0
0
0
0
0
0
0
0
0
0
0
0
0
0
0
0
0
0
0
0
0
0
0
0
0
0
0
0
0
0
0
0
0
0
0
0
0
0
0
0
0
0
0
0
0
0
0
0
0
0
0
0
0
0
0
0
0
0
0
0
0
0
0
0
0
0
0
0
0
0
0
0
0
0
0
0
0
0
0
0
0
0
0
0
0
0
0
0
0
0
0
0
0
0
0
0
0
0
0
0
0
0
0
0
0
0
0
0
0
0
0
0
0
0
0
0
0
0
0
0
0
0
0
0
0
0
0
0
0
0
0
0
0
0
0
0
0
0
0
0
0
0
0
0
0
0
0
0
0
0
0
0
0
0
0
0
0
0
0
0
0
0
0
0
0
0
0
0
0
0
0
0
0
0
0
0
0
0
0
0
0
0
0
0
0
0
0
0
0
0
0
0
0
0
0
0
0
0
0
0
0
0
0
0
0
0
0
0
0
0
0
0
0
0
0
0
0
0
0
0
0
0
0
0
0
0
0
0
0
0
0
0
0
0
0
0
0
0
0
0
0
0
0
0
0
0
0
0
0
0
0
0
0
0
0
0
0
0
0
0
0
0
0
0
0
0
0
0
0
0
0
0
0
0
0
0
0
0
0
0
0
0
0
0
0
0
0
0
0
0
0
0
0
0
0
0
0
0
0
0
0
0
0
0
0
0
0
0
0
0
0
0
0
0
0
0
0
0
0
0
0
0
0
0
0
0
0
0
0
0
0
0
0
0
0
0
0
0
0
0
0
0
0
0
0
0
0
0
0
0
0
0
0
0
0
0
0
0
0
0
0
0
0
0
0
0
0
0
0
0
0
0
0
0
0
0
0
0
0
0
0
0
0
0
0
0
0
0
0
0
0
0
0
0
0
0
0
0
0
0
0
0
0
0
0
0
0
0
0
0
0
0
0
0
0
0
0
0
0
0
0
0
0
0
0
0
0
0
0
0
0
0
0
0
0
0
0
0
0
0
0
0
0
0
0
0
0
0
0
0
0
0
0
0
0
0
0
0
0
0
0
0
0
0
0
0
0
0
0
0
0
0
0
0
0
0
0
0
0
0
0
0
0
0
0
0
0
0
0
0
0
0
0
0
0
0
0
0
0
0
0
0
0
0
0
0
0
0
0
0
0
0
0
0
0
0
0
0
0
0
0
0
0
0
0
0
0
0
0
0
0
0
0
0
0
0
0
0
0
0
0
0
0
0
0
0
0
0
0
0
0
0
0
0
0
0
0
0
0
0
0
0
0
0
0
0
0
0
0
0
0
0
0
0
0
0
0
0
0
0
0
0
0
0
0
0
0
0
0
0
0
0
0
0
0
0
0
0
0
0
0
0
0
0
0
0
0
0
0
0
0
0
0
0
0
0
0
0
0
0
0
0
0
0
0
0
0
0
0
0
0
0
0
0
0
0
0
0
0
0
0
0
0
0
0
0
0
0
0
0
0
0
0
0
0
0
0
0
0
0
0
0
0
0
0
0
0
0
0
0
0
0
0
0
0
0
0
0
0
0
0
0
0
0
0
0
0
0
0
0
0
0
0
0
0
0
0
0
0
0
0
0
0
0
0
0
0
0
0
0
0
0
0
0
0
0
0
0
0
0
0
0
0
0
0
0
0
0
0
0
0
0
0
0
0
0
0
0
0
0
0
0
0
0
0
0
0
0
0
0
0
0
0
0
0
0
0
0
0
0
0
0
0
0
0
0
0
0
0
0
0
0
0
0
0
0
0
0
0
0
0
0
0
0
0
0
0
0
0
0
0
0
0
0
0
0
0
0
0
0
0
0
0
0
0
0
0
0
0
0
0
0
0
0
0
0
0
0
0
0
0
0
0
0
0
0
0
0
0
0
0
0
0
0
0
0
0
0
0
0
0
0
0
0
0
0
0
0
0
0
0
0
0
0
0
0
0
0
0
0
0
0
0
0
0
0
0
0
0
0
0
0
0
0
0
0
0
0
0
0
0
0
0
0
0
0
0
0
0
0
0
0
0
0
0
0
0
0
0
0
0
0
0
0
0
0
0
0
0
0
0
0
0
0
0
0
0
0
0
0
0
0
0
0
0
0
0
0
0
0
0
0
0
0
0
0
0
0
0
0
0
0
0
0
0
0
0
0
0
0
0
0
0
0
0
0
0
0
0
0
0
0
0
0
0
0
0
0
0
0
0
0
0
0
0
0
0
0
0
0
0
0
0
0
0
0
0
0
0
0
0
0
0
0
0
0
0
0
0
0
0
0
0
0
0
0
0
0
0
0
0
0
0
0
0
0
0
0
0
0
0
0
0
0
0
0
0
0
0
0
0
0
0
0
0
0
0
0
0
0
0
0
0
0
0
0
0
0
0
0
0
0
0
0
0
0
0
0
0
0
0
0
0
0
0
0
0
0
0
0
0
0
0
0
0
0
0
0
0
0
0
0
0
0
0
0
0
0
0
0
0
0
0
0
0
0
0
0
0
0
0
0
0
0
0
0
0
0
0
0
0
0
0
0
0
0
0
0
0
0
0
0
0
0
0
0
0
0
0
0
0
0
0
0
0
0
0
0
0
0
0
0
0
0
0
0
0
0
0
0
0
0
0
0
0
0
0
0
0
0
0
0
0
0
0
0
0
0
0
0
0
0
0
0
0
0
0
0
0
0
0
0
0
0
0
0
0
0
0
0
0
0
0
0
0
0
0
0
0
0
0
0
0
0
0
0
0
0
0
0
0
0
0
0
0
0
0
0
0
0
0
0
0
0
0
0
0
0
0
0
0
0
0
0
0
0
0
0
0
0
0
0
0
0
0
0
0
0
0
0
0
0
0
0
0
0
0
0
0
0
0
0
0
0
0
0
0
0
0
0
0
0
0
0
0
0
0
0
0
0
0
0
0
0
0
0
0
0
0
0
0
0
0
0
0
0
0
0
0
0
0
0
0
0
0
0
0
0
0
0
0
0
0
0
0
0
0
0.0001603713298
-0.0001603846112
4.577909877e-05
6.630972764e-05
-0.0001607672521
-6.639243363e-05
8.137382268e-05
7.947613538e-05
-6.741065062e-05
0.0001173368013
6.688178318e-05
0.0002101091774
4.562222411e-05
-0.000104306942
-0.0001057681446
6.549437724e-05
-0.0002117433859
-6.562707767e-05
0.0001067209527
0.0001051551336
6.601911438e-05
8.468334155e-05
8.305015237e-05
0.0002608700366
4.555527333e-05
-0.0001296657742
-0.0001311864219
6.500392028e-05
-0.0002618335191
-6.487459535e-05
0.0001315909331
0.000130113261
6.539070399e-05
0.0001096481092
0.0001083285069
0.0003113565668
4.546303686e-05
-0.0001548858307
-0.0001564352824
6.392661831e-05
-0.000311532965
-6.417455196e-05
0.0003117808987
0.0002685438171
6.483222347e-05
0.0001817401731
-0.0001817419672
2.358118186e-05
-9.108010223e-05
1.800305378e-06
-1.833770954e-06
9.111356781e-05
9.068400176e-05
-0.0001815228055
-5.022133487e-06
6.315729694e-05
-0.0003607718569
-6.321600271e-05
0.0003608305627
0.000318179498
6.37424571e-05
0.0002074329496
-0.0002074329496
2.270817384e-05
-0.0002074329733
4.191373967e-06
-4.191407819e-06
0.0002074330071
9.141408182e-05
1.690205857e-06
-0.0004130911466
0.0001887615107
3.936965389e-06
-8.030640771e-07
0.0001124052737
-0.0008080437323
0.0004115780055
0.0004027578878
-5.61388752e-05
-6.255855946e-05
0.0003666049305
6.308509145e-05
0.0001115266092
-0.0001114100853
4.611566439e-05
-6.336972717e-06
6.217546191e-05
6.312344763e-06
-0.0001109984797
-6.711007142e-05
0.0001106979005
-6.753552645e-05
6.5492497e-05
6.858974603e-05
1.01820857e-05
-3.479129105e-05
-1.017609357e-05
3.478529893e-05
-5.84159675e-05
-2.054006399e-05
5.8550679e-05
2.040535249e-05
-0.0001606921035
-7.325620778e-05
0.0002386761624
-0.0003140346287
-0.000239218904
0.0003146914314
-0.0002410155432
0.0002385716328
0.0002396574931
0.0004129590546
-0.000413982034
0.0001968357991
-5.275286576e-05
5.275700172e-05
0.0002101050414
5.285379382e-05
0.0001664635879
-5.283111359e-05
1.128966623e-05
-4.718300171e-05
-1.126070647e-05
4.715404194e-05
-1.03504455e-05
-4.142679404e-05
4.1496719e-05
1.028052054e-05
-0.0002116660614
-7.276196779e-05
0.0002377708999
-0.0004159553537
-0.0002380146164
0.0004162113005
0.0003404981628
0.0002384086695
0.0005148975379
-0.0005154208561
0.0001973113343
-5.264421763e-05
5.264880033e-05
0.0002608654539
0.0002164098017
-5.274684742e-05
-4.565041602e-05
0.0002356674161
4.565680109e-05
-0.0001170226347
-0.0001186511665
-1.143709497e-05
-5.951852835e-05
1.140467956e-05
0.0001186463556
-5.909541186e-05
1.139240845e-05
-5.340438231e-05
0.0001073200652
-1.142556422e-05
-5.388252715e-05
9.935697483e-06
-5.998826526e-05
-9.990152426e-06
6.00427202e-05
-1.041887094e-05
-5.383424278e-05
5.364461759e-05
1.060849614e-05
-0.0002618005068
-7.21139762e-05
0.0002368517837
-0.0005150851281
-0.000237143543
0.0005162106451
0.0004407922945
0.0002375352906
0.0006163514186
-0.0006163678975
0.0001974953184
-5.253786677e-05
5.25447765e-05
0.0003113496571
0.0002671980645
-5.262457227e-05
-4.543711914e-05
0.0002862031137
4.551176722e-05
-0.0001423683836
-0.0001439093781
-5.481448072e-06
-7.218673894e-05
5.482593412e-06
7.21855936e-05
1.139382435e-05
-6.621364495e-05
0.0001328240423
-1.137379793e-05
-6.663042381e-05
1.884153092e-05
-0.0001442617888
-1.891895903e-05
0.0001443392169
-1.922578092e-05
-0.000133539934
1.89276135e-05
6.719231991e-05
6.664578151e-05
0.000717828109
0.0001977741495
-0.0003557836674
-0.0003620968281
-5.25238526e-05
-0.0001803054625
5.246013335e-05
0.0003621093548
0.00031776065
-5.253339369e-05
-2.359203145e-05
0.0001692480421
-0.0001692696212
2.361361053e-05
-5.414726523e-06
-8.488000115e-05
5.452749147e-06
8.484197853e-05
5.478584541e-06
-7.878156537e-05
7.877738146e-05
-5.47440063e-06
8.560624205e-05
2.874506212e-06
-8.535747803e-05
-3.123270231e-06
1.824476584e-05
-0.0001693027806
-1.822485289e-05
0.0001692828677
-1.860355498e-05
-0.0001583901807
0.000158403001
1.859073471e-05
0.0007939673811
0.0001955891161
-0.0003816129629
-0.0004130911466
-5.079844805e-05
-0.000205658197
5.079844805e-05
0.0004130911466
-0.0001851004877
0.0003682486245
-5.252034313e-05
-2.357477103e-05
0.0001944462043
-0.0001944290509
2.355761756e-05
-5.432018697e-06
-9.712549931e-05
5.290087995e-06
9.726743001e-05
5.315137994e-06
-9.112979547e-05
9.115900253e-05
-5.344345056e-06
0.0004637375931
-0.0004637375931
4.362310528e-05
-0.0004637375931
6.589338902e-06
-6.589338904e-06
0.0004637375931
0.0002088225259
4.191353719e-06
9.641582439e-06
7.002104388e-05
-9.705788966e-06
-3.473347429e-05
-3.522336307e-05
-9.637111981e-06
8.091700507e-05
9.624773189e-06
-4.029776226e-05
-4.060690401e-05
5.846369981e-05
1.069962651e-05
-1.087228054e-05
-5.829104578e-05
6.86150784e-05
-6.866387549e-05
9.690379525e-06
-4.100220059e-05
-1.038644094e-05
4.103819604e-05
-3.508465884e-05
3.512162347e-05
1.014512106e-05
-6.662414917e-05
-0.000142192022
6.647643117e-05
7.211605856e-05
7.022368139e-05
-2.18758816e-05
3.541956485e-05
2.174683013e-05
-7.037517221e-05
1.070978643e-05
-4.098430561e-05
-1.07276814e-05
-5.29962947e-05
1.134880886e-05
0.0001057445233
-5.270462903e-05
-9.485419798e-05
1.13699944e-05
9.486044321e-05
-1.137623964e-05
4.569878255e-05
0.0001913829707
-4.569688629e-05
-0.0001913848669
9.582123661e-06
-9.63504367e-06
-4.722255167e-05
-4.75787263e-05
-5.046398338e-06
-5.299844887e-05
5.048552514e-06
8.241203124e-05
-9.673994052e-06
-4.096395384e-05
-4.141119532e-05
9.337254781e-05
9.6093908e-06
-4.653543638e-05
-4.686437857e-05
-5.333750783e-05
-1.02182085e-05
5.313684539e-05
-4.779854252e-05
4.773932445e-05
1.13488843e-05
-3.381807597e-05
-9.573355145e-05
9.575932022e-05
3.37923072e-05
-1.158219496e-05
1.158426179e-05
-4.780060935e-05
1.071281982e-05
-5.346008874e-05
-1.05902389e-05
1.066373921e-05
-4.138074682e-05
-4.722311207e-05
-1.15420846e-05
-9.400366216e-05
-3.382268883e-05
9.400827503e-05
-6.577907656e-05
1.136123475e-05
0.0001311763382
-6.536467203e-05
-5.995963976e-05
0.0001203406999
-1.140418194e-05
-6.041397321e-05
0.0002420885167
-4.55796772e-05
-0.0001203096394
-0.0001218496161
5.06785048e-06
-5.062418832e-06
-5.996507141e-05
-5.025359264e-06
-6.577977259e-05
5.026055295e-06
-5.049541034e-06
-5.340123961e-05
-5.950610039e-05
5.05542252e-06
-0.000131784055
-1.92139564e-05
6.60840903e-05
6.568814019e-05
-6.032775387e-05
6.032329783e-05
9.940153518e-06
-6.500961906e-05
-0.0002428807808
6.49981189e-05
0.0001221433258
0.0001207489551
-2.116704571e-05
6.054026761e-05
2.105926413e-05
-0.0001207602399
2.094226414e-05
-0.0001317547428
-2.097157635e-05
1.083261502e-05
-5.395403798e-05
5.949002977e-05
-0.000119294686
-1.043640777e-05
-1.091424697e-05
-0.0002366610379
-6.522996585e-05
0.000119207258
0.0001176741267
-7.837711122e-05
5.492024884e-06
7.836367088e-05
-7.256863572e-05
7.255220429e-05
-5.465016644e-06
0.0002923054067
-4.551035601e-05
-0.0001453965169
-0.000146835653
5.043763698e-06
-5.057614742e-06
-7.255478467e-05
-5.017424458e-06
-7.837627777e-05
5.016591003e-06
-5.019457647e-06
-6.621954657e-05
-7.219986109e-05
5.056885846e-06
-0.0001569052571
-1.863997217e-05
0.0001569416743
-0.0001459621545
0.0001459709621
1.883272331e-05
-9.100361962e-05
5.29580765e-06
9.102294996e-05
-8.525006634e-05
8.526708903e-05
-5.43174921e-06
0.0001707836919
-2.35880999e-05
-0.0001707876234
-1.932967452e-06
-8.540092521e-05
8.512236579e-05
2.211526873e-06
4.911412579e-06
-4.920909288e-06
-8.524056963e-05
-4.846006349e-06
-9.095506524e-05
4.797451971e-06
-5.028449169e-06
-7.877054065e-05
-8.48956615e-05
4.927072923e-06
-2.399815605e-06
8.60730902e-05
3.446411874e-05
-0.0003608752623
-3.447913962e-05
0.0001811136436
0.0001797766396
-0.0001707189171
0.000170686072
1.827761098e-05
2.870259201e-06
-8.53966782e-05
-0.0002091337388
-1.071554233e-05
0.0002082181568
6.245426993e-06
5.385697327e-06
-9.753623714e-05
9.759425938e-05
-5.490040941e-06
0.0001959624156
-2.36131227e-05
-0.0001959240639
-1.351244791e-06
-0.0001937718006
0.0001939582936
1.164751823e-06
4.669459715e-06
-4.734824183e-06
-9.747087268e-05
-8.346913265e-06
-0.000209090608
4.924111926e-06
3.379670558e-06
-4.907428303e-06
-9.106837351e-05
4.555178479e-06
-9.701121807e-05
-0.0001923655205
-1.651432299e-06
0.000192665708
0.0003126289894
-0.0003139690498
0.000196191673
5.287621197e-05
0.0001603489117
5.32953743e-05
0.000117929165
-5.316622863e-05
-4.595955748e-05
0.0001357690719
-0.0001357451146
4.593560022e-05
-1.143027448e-05
1.143502324e-05
6.861032964e-05
1.16826486e-05
5.867305012e-05
-1.189199891e-05
8.9204942e-06
-3.143583655e-05
-4.665284507e-06
2.718062685e-05
-2.965789468e-05
-7.374216815e-06
3.003268614e-05
6.999425356e-06
0.0001851543958
-0.0001851837729
4.572815964e-05
1.137617621e-05
9.336636601e-05
1.141667892e-05
8.241261259e-05
-1.141726028e-05
2.498998564e-05
-7.00298898e-05
-1.198117518e-05
5.702107935e-05
-0.0003114004486
-7.139126101e-05
0.0002379903244
-0.000609874748
-0.0002377637926
0.0006165391786
0.0005415440855
0.0002372274741
2.400271937e-05
-8.212499387e-05
-9.274717139e-06
6.739699164e-05
1.133336206e-05
-0.0001631597194
-1.146183167e-05
8.183392095e-05
8.14542681e-05
-6.007398098e-06
-7.904894897e-05
7.903921179e-05
6.01713528e-06
3.736468352e-06
-0.0001921902395
-3.911749396e-06
3.594572339e-05
-0.0003844731528
-3.519378031e-05
0.0003837212097
-0.0003667579252
3.447320428e-05
0.0001840775471
0.0001826712926
1.140902773e-05
8.092465627e-05
7.00263398e-05
-1.14355704e-05
0.000141285758
-4.58636737e-05
-0.0001413816418
1.493666465e-06
3.806600924e-05
-1.424852845e-06
-3.813482285e-05
2.991206525e-05
2.615882963e-06
-2.224905061e-06
-3.030304315e-05
3.172255045e-05
-1.894930074e-06
-3.179265296e-05
1.965032575e-06
-2.271899569e-05
2.221051555e-05
-5.790748736e-05
3.424833593e-05
-6.891224095e-05
-2.200326763e-05
-0.000135683574
-6.631871664e-05
6.852436887e-05
6.685377265e-05
-7.879609345e-05
-6.075329569e-06
7.886402492e-05
-6.961082834e-06
-7.610698082e-05
7.634961191e-05
6.71845174e-06
-6.456348813e-05
-0.0002928227235
0.000292978817
6.440739465e-05
-2.070959152e-05
2.06363638e-05
-0.0001458889268
2.041996249e-05
-0.0001568451488
-2.048007084e-05
2.084434186e-05
-0.0001334420117
-0.0001442563104
-2.07150699e-05
-0.0002869247941
-6.464865407e-05
0.00028700996
-2.768927945e-06
-8.864786146e-05
8.895581153e-05
2.460977875e-06
9.358125945e-05
8.248598764e-08
-9.354558412e-05
-1.181613128e-07
2.154615661e-06
-0.0001870839937
-2.264178226e-06
9.368772712e-05
9.350582916e-05
-4.28007465e-05
-4.0096173e-06
4.281685604e-05
3.993507764e-06
9.599796521e-05
1.906413194e-05
-1.053444765e-05
-1.085063445e-05
-4.559256786e-05
-4.808444719e-05
5.627940093e-05
-5.746795359e-05
1.188817917e-05
-5.66327414e-05
-2.059740965e-05
5.669008705e-05
-9.389836766e-05
-4.099973583e-05
4.787339405e-05
4.37579375e-05
2.142962778e-05
2.183714416e-05
-7.1418994e-06
7.246762944e-06
-4.290561004e-05
-3.889129703e-05
4.781179123e-05
-2.014968391e-05
-6.448643996e-05
2.006865455e-05
3.246497815e-05
3.210249117e-05
-7.577241926e-06
9.52979152e-07
-3.226703425e-05
-7.442526812e-06
7.28221035e-06
-2.949757822e-05
-3.198416881e-05
-7.028909666e-06
-6.262760072e-05
-1.992119635e-05
3.144964986e-05
3.09494633e-05
-9.734565246e-06
-4.440010193e-05
4.440372247e-05
9.7309447e-06
-4.415401323e-05
-9.785039208e-06
4.420448719e-05
-9.833230881e-06
-5.727094412e-05
5.722131896e-05
9.88285604e-06
-5.709328153e-05
-9.93844651e-06
5.719849716e-05
-7.223407467e-05
6.968593354e-06
-6.395944389e-06
7.16614257e-05
-7.164157104e-05
9.159565403e-05
5.035902648e-06
-1.904181181e-05
-0.0001394974958
0.0001395011238
1.903818379e-05
-8.085428234e-06
6.988989736e-06
-7.054513254e-05
7.378530718e-06
-7.239795692e-05
-7.214648468e-06
-7.226748747e-06
1.21065075e-05
-6.572629508e-05
6.084653633e-05
-6.959297031e-05
-8.522347725e-06
-0.0001380251723
-1.906741328e-05
6.92035293e-05
6.884724446e-05
-8.206735197e-05
5.486225956e-06
8.206808869e-05
-5.486962679e-06
1.658635287e-05
0.0001643610929
-1.659380206e-05
-0.0001643536437
-1.658125908e-05
0.0001692547073
-0.0001692756615
1.66022133e-05
1.0952699e-05
-0.000169306193
-1.103039949e-05
0.0001693838935
-0.000164674858
1.119537147e-05
8.262950869e-05
8.218333988e-05
0.0001061234464
1.780417314e-06
-8.390114433e-05
5.678879403e-06
-9.452512262e-05
9.456497757e-05
-5.718734355e-06
1.65823155e-05
0.0001895961723
-1.660540745e-05
-0.0001895730804
-1.660825483e-05
0.000194414564
1.652415967e-05
-9.695060653e-05
-9.737986231e-05
1.659025921e-05
0.0001830837793
-1.662698612e-05
-0.0001830470524
0.0001880009161
-0.0001879944666
1.657586599e-05
-9.395359817e-05
5.606163496e-06
9.402631408e-05
3.539302918e-05
1.783490893e-06
6.885534566e-06
-4.406205464e-05
3.752175223e-05
1.453763427e-06
-3.748184919e-05
-9.672962871e-06
7.475785267e-05
9.650531047e-06
-3.711136408e-05
-3.762405676e-05
-1.989369781e-06
1.941203022e-06
3.756991899e-05
1.95015294e-06
3.516375184e-05
-1.720875592e-06
-1.295210091e-06
-8.946242134e-07
4.06133517e-05
-3.842351739e-05
3.809146655e-05
-2.014827098e-06
7.642091658e-05
-9.584297838e-06
-3.810199187e-05
-3.840758974e-05
-9.822901938e-06
6.339697153e-05
-6.342006285e-05
9.845993256e-06
-2.130971685e-06
2.091198166e-06
3.176232397e-05
3.721378598e-06
2.899057059e-05
-2.799883941e-06
-3.476113592e-05
2.04156024e-06
3.466972862e-05