/*--------------------------------*- C++ -*----------------------------------*\
| =========                 |                                                 |
| \\      /  F ield         | OpenFOAM: The Open Source CFD Toolbox           |
|  \\    /   O peration     | Version:  v1912                                 |
|   \\  /    A nd           | Website:  www.openfoam.com                      |
|    \\/     M anipulation  |                                                 |
\*---------------------------------------------------------------------------*/
FoamFile
{
    version     2.0;
    format      ascii;
    class       surfaceVectorField;
    location    "2.35";
    object      Uf;
}
// * * * * * * * * * * * * * * * * * * * * * * * * * * * * * * * * * * * * * //

dimensions      [0 1 -1 0 0 0 0];


internalField   nonuniform List<vector> 
25162
(
(99.9973555 0.01146735087 -2.356952348e-21)
(99.98926054 0.01051481291 6.992783391e-21)
(99.99627758 0.02648722517 -2.318356946e-21)
(99.98593959 0.03463516442 2.386180634e-21)
(99.99412962 0.04968894241 -4.616331444e-21)
(99.9782846 0.07013946847 1.399665925e-20)
(99.99752656 0.05466495571 1.41131639e-21)
(99.96472164 0.1242863122 -9.122822077e-21)
(99.98555486 0.1201195712 -1.531757781e-21)
(99.9968921 0.097761146 2.207471366e-21)
(99.99883646 0.05797868571 1.079954222e-21)
(99.983351 0.1572341476 2.185470626e-21)
(99.99621771 0.08851516036 1.060217762e-21)
(99.99719416 0.07071009438 -1.109009324e-21)
(99.99540191 0.1104915946 1.06017446e-21)
(99.97513493 0.2464292024 2.103124374e-21)
(99.99506933 0.1370789945 0)
(99.99491533 0.1657427697 -3.744500105e-21)
(99.96895621 0.363393019 -3.744480617e-21)
(99.99437494 0.1989439315 -9.65801895e-22)
(99.99382104 0.2359504406 3.259409177e-21)
(99.96246596 0.5111691223 3.49779063e-21)
(99.99340649 0.2761308288 4.29268872e-22)
(99.99324418 0.3182176255 -2.6773815e-21)
(99.96055619 0.6787966779 3.868486625e-22)
(99.99344458 0.3604113488 -2.602472519e-21)
(99.99356012 0.4006746902 5.159285721e-22)
(99.96635379 0.8375452187 -1.668460853e-21)
(99.99371458 0.436649343 2.420444502e-21)
(99.99501766 0.4652962347 1.907062758e-21)
(99.98282875 0.9499101127 -8.072675324e-22)
(99.99729662 0.4837085662 0)
(99.9999034 0.4909058569 0)
(100.0045928 0.9783714111 9.492653569e-23)
(100.0025024 0.4859788001 0)
(100.0048232 0.4698717517 8.439065442e-22)
(100.024498 0.9144740004 -1.600046406e-23)
(100.0062484 0.4436544312 1.367959165e-21)
(100.0064704 0.4100315016 -5.992741527e-22)
(100.0354878 0.7836339915 -8.293439829e-22)
(100.0064802 0.3720363311 -1.529136304e-21)
(100.0066017 0.3322169722 7.997315941e-23)
(100.0374852 0.6243574565 2.031834014e-21)
(100.0064891 0.2921242492 5.36095218e-22)
(100.006128 0.2534324695 0)
(100.0337061 0.4700141571 0)
(100.0056311 0.2173838021 0)
(100.0051786 0.1845609069 7.961908409e-22)
(100.0270303 0.3395707503 1.655749278e-21)
(100.005098 0.1556601407 -4.028017499e-21)
(100.00482 0.1285082112 -1.506333664e-21)
(100.0214536 0.2326651714 3.253553009e-21)
(100.0040487 0.1055768239 3.253310224e-21)
(100.0030139 0.0866646126 -8.906489205e-22)
(100.0126543 0.1553967618 -4.12960689e-23)
(100.0009886 0.07314442273 1.74705396e-21)
(100.0072559 0.06833654299 -7.676884718e-21)
(100.0421806 0.1686949533 2.997501581e-22)
(100.0157753 0.1551276512 -2.715330355e-21)
(100.0026438 0.07160530905 -1.557394091e-21)
(100.0049212 0.03874293585 -9.556714086e-22)
(100.0276744 0.1014837366 1.516859268e-20)
(100.0039294 0.01789745015 -7.664945776e-21)
(100.0195846 0.05304148919 -1.617264252e-20)
(100.0168662 0.01653003441 1.286531125e-21)
(99.97549921 0.03223591773 1.16628943e-20)
(99.95896006 0.01804074208 3.847477694e-22)
(99.96465487 0.07506983193 1.855825056e-20)
(99.94577752 0.06013764705 -1.634856575e-20)
(99.94420146 0.1405810179 9.741821055e-21)
(99.91696712 0.123146759 -2.520121206e-20)
(99.93585554 0.2155782324 -1.661503327e-21)
(99.86784296 0.2211051749 4.854155583e-20)
(99.89117535 0.2727828102 -1.065853275e-20)
(99.90628515 0.2748900923 -2.292427659e-21)
(99.92876363 0.2683591789 4.481140439e-21)
(99.95568283 0.1920193996 2.225710897e-21)
(99.93240492 0.3085012517 2.151740956e-21)
(99.90955957 0.3408243487 2.201950723e-21)
(99.84877447 0.4482171048 -4.469256295e-21)
(99.88871211 0.430218261 -3.333437735e-23)
(99.89976278 0.4820453066 2.103454433e-21)
(99.86511647 0.5385495808 -2.740006693e-23)
(99.78022774 0.7013966083 0)
(99.85374736 0.6203673416 0)
(99.8150785 0.7123250236 -2.605013825e-21)
(99.86860622 0.6992324718 -5.093075033e-21)
(99.84964485 0.741342552 -8.041288509e-23)
(99.8083645 0.8555554951 -1.145253583e-20)
(99.83971898 0.8056445672 -3.937114327e-21)
(99.81028654 1.057198015 3.071855704e-23)
(99.83922491 0.9911842692 -2.53342114e-21)
(99.76118055 1.220333066 -1.377206107e-20)
(99.80455344 1.140506471 -3.36534733e-21)
(99.79205486 1.432834819 -6.015193575e-21)
(99.8305633 1.330051429 -5.718836751e-21)
(99.74243918 1.648063499 8.109222737e-22)
(99.79463263 1.526866515 -7.194898291e-21)
(99.81364894 1.807773021 1.889850654e-23)
(99.85815744 1.65811097 -4.444131642e-21)
(99.77520778 2.066220602 -2.296457558e-21)
(99.8285842 1.896215271 -3.305084944e-21)
(99.8852347 2.096772931 -3.396102492e-21)
(99.92841991 1.89847999 -5.67660169e-21)
(99.86825761 2.378922802 1.929531051e-20)
(99.91162191 2.160749934 -1.607533672e-21)
(99.99393558 2.210838404 -7.129774903e-22)
(100.020808 1.971097962 2.620994927e-22)
(100.0034666 2.479902225 1.857947775e-21)
(100.0216911 2.229068677 -2.823895002e-22)
(100.1031669 2.119081461 -1.861671505e-22)
(100.0901219 1.854168859 -5.808681283e-24)
(100.1308518 2.337667518 -1.449742819e-22)
(100.1247638 2.075132601 -1.123772883e-21)
(100.1748461 1.851476068 -3.47381749e-22)
(100.1307712 1.595347677 -2.599582578e-22)
(100.2079765 2.011345457 -7.734652634e-23)
(100.1827778 1.768583681 2.671392698e-21)
(100.1973214 1.498440871 2.764500945e-21)
(100.138903 1.274589145 4.806169583e-21)
(100.2297899 1.606953831 4.796516664e-21)
(100.1952375 1.401028996 5.807452648e-22)
(100.1837464 1.13850823 -7.359326867e-21)
(100.1251982 0.9595543005 -6.829657862e-21)
(100.2097752 1.207694766 -2.485365328e-21)
(100.1753716 1.04791678 -2.423648244e-21)
(100.1499285 0.8283690745 -5.646025751e-21)
(100.0978557 0.6941217902 5.096258181e-22)
(100.1661902 0.8694767247 -1.491289812e-21)
(100.1392643 0.7552156134 6.053238417e-21)
(100.0863125 0.4591339713 -1.364766366e-20)
(100.1396322 0.6303111852 -1.364660327e-20)
(100.1926387 0.6729033497 1.378668468e-20)
(100.1177002 0.5164987476 -2.775927865e-20)
(100.0976276 0.4206091559 1.20654253e-20)
(100.1339671 0.4434915399 -1.663505646e-20)
(100.0784082 0.3406928602 2.431906839e-20)
(100.0592381 0.3041657179 2.69956348e-20)
(100.0685634 0.1973938536 2.260929876e-20)
(100.157958 0.3103423827 -1.483637965e-22)
(100.124484 0.3582921383 4.805779489e-20)
(100.0732301 0.2830673332 2.569787197e-21)
(100.0473656 0.1124990765 -7.156347916e-22)
(100.1073186 0.1853731663 3.236595139e-20)
(100.0366032 0.05092086084 -7.552130069e-21)
(100.0776319 0.09685457216 -1.715338094e-20)
(100.0648963 0.0301005845 7.66444649e-21)
(99.93325345 0.04427998303 -2.803436132e-20)
(99.91714373 0.01985533971 -1.4012311e-20)
(99.90328953 0.1047155558 -6.057082186e-20)
(99.88881546 0.06796053283 1.268412972e-20)
(99.84838542 0.1989044426 1.169365514e-20)
(99.82849234 0.1442002734 -5.125955981e-20)
(99.7946773 0.3308669947 3.089800769e-20)
(99.72974669 0.2661081658 5.563962777e-20)
(99.7243543 0.3621277544 -4.703982961e-20)
(99.82644068 0.3459261131 -9.195136601e-21)
(99.73307333 0.3977858662 -6.79373584e-20)
(99.75810452 0.4307134873 -4.59598598e-21)
(99.73450731 0.5702170603 -8.8881866e-21)
(99.70062942 0.5563845245 -4.426425196e-21)
(99.59182656 0.6685012542 3.11044166e-20)
(99.63527285 0.709160198 8.683722589e-21)
(99.61578306 0.9017352858 -7.664528761e-21)
(99.56166396 0.8939626335 5.695761414e-21)
(99.4085441 1.073005605 -4.374562816e-20)
(99.5228663 1.07474824 3.024704994e-21)
(99.44429393 1.156371668 -1.898192889e-20)
(99.51444596 1.310622855 -7.710906183e-21)
(99.47267838 1.315020088 0)
(99.38491217 1.44884314 8.03399873e-21)
(99.4362854 1.453446296 -7.655991859e-21)
(99.39232305 1.907112628 3.685936357e-21)
(99.33206481 1.93147527 1.442254226e-20)
(99.22777752 2.123427131 7.13254777e-21)
(99.30399506 2.107332874 1.788628634e-20)
(99.3403418 2.61321184 -2.844014346e-20)
(99.25904142 2.674863164 -1.888289689e-20)
(99.15783199 2.927064943 8.806746371e-22)
(99.26020126 2.869192403 -3.939345054e-20)
(99.41353512 3.328252339 -9.340010291e-21)
(99.32073641 3.448092683 2.113100748e-20)
(99.24500512 3.751482193 2.138081774e-20)
(99.36336286 3.625690818 0)
(99.65235797 3.886876646 -2.901521601e-20)
(99.56532452 4.085658757 8.007323702e-20)
(99.54672904 4.414888191 2.105897769e-19)
(99.65606585 4.196478488 -3.902046824e-20)
(100.0150317 4.094633976 6.234575169e-22)
(99.97158697 4.374913351 1.447667906e-20)
(100.0201465 4.675109124 -6.905068278e-20)
(100.079441 4.367906452 4.362602568e-21)
(100.3738396 3.855290908 -6.700820356e-20)
(100.3863487 4.1799171 1.75052701e-20)
(100.4885106 4.40161077 -1.030824047e-19)
(100.470004 4.05478075 -3.39504741e-20)
(100.5755661 3.264148937 -4.169801598e-22)
(100.6410181 3.572073155 6.839590939e-21)
(100.7486397 3.700883782 -9.496985641e-20)
(100.6711428 3.38433542 1.199213087e-20)
(100.6187875 2.56521319 3.342727091e-21)
(100.7029668 2.815689623 2.239974718e-20)
(100.7929457 2.87663002 -3.348399788e-20)
(100.6988591 2.629185008 7.083977163e-21)
(100.5610681 1.904872409 -6.772387861e-21)
(100.6486272 2.101734756 -1.589451963e-20)
(100.7165158 2.125657733 -5.474651341e-21)
(100.6214233 1.935503931 5.946014359e-21)
(100.5282526 1.491378515 -1.846545695e-20)
(100.4527822 1.347700664 -1.240868212e-20)
(100.5760288 1.494415548 -1.242541573e-20)
(100.4981897 1.359397427 6.574515118e-21)
(100.338489 0.8681325396 -5.398469461e-20)
(100.4565436 1.065692879 -2.829905904e-20)
(100.5233068 1.03945721 -8.190565612e-20)
(100.3880899 0.8687110903 -3.911074718e-20)
(100.2384077 0.5686833716 -6.099796573e-20)
(100.3260126 0.7025983438 2.437678367e-20)
(100.368517 0.6740507739 -2.895899667e-20)
(100.2699358 0.5640082911 -2.530400236e-20)
(100.1892776 0.2945000891 1.021367802e-20)
(100.3289701 0.4001668981 -2.579237843e-20)
(100.3177882 0.4968035258 -1.219289319e-22)
(100.2370574 0.4568206021 -1.483025767e-20)
(100.1324608 0.1668465312 1.517625446e-20)
(100.2273853 0.2363859138 2.692517284e-20)
(100.1017978 0.07493207161 -1.924573608e-21)
(100.1643411 0.1222153459 -3.87714116e-21)
(100.1355622 0.03768404552 0)
(99.88038859 0.04219679864 2.81529198e-20)
(99.87736818 0.01375956442 -4.704546874e-21)
(99.82336794 0.104513432 2.373811137e-20)
(99.83007524 0.05095310521 3.290140624e-20)
(99.72094295 0.2094217725 -9.424796763e-21)
(99.72964671 0.1214395894 -4.630426496e-21)
(99.59346818 0.381571053 0)
(99.56677739 0.2407067727 7.205813662e-21)
(99.50927394 0.3841935391 2.183803088e-20)
(99.61874025 0.4299687143 -6.355013442e-20)
(99.49653033 0.4380747812 1.641869259e-20)
(99.50999812 0.5115894088 0)
(99.42448925 0.7375015172 1.666077252e-22)
(99.39745972 0.6735438829 -3.598213864e-20)
(99.23704198 0.7726958574 -3.595793245e-20)
(99.26529881 0.8737812757 7.281745358e-20)
(99.16076465 1.206939633 -1.079525038e-19)
(99.11281463 1.118939939 4.125279192e-20)
(98.8841121 1.290417415 -7.231429952e-20)
(98.99959842 1.403382446 -3.603216753e-20)
(98.88794368 1.431503592 -5.908977385e-20)
(98.90384504 1.799954457 8.462607357e-21)
(98.85564792 1.751667955 1.678734091e-20)
(98.71486156 1.88942335 4.260268765e-20)
(98.77002196 1.953675487 8.393262479e-21)
(98.61061406 2.695818081 -1.979513692e-19)
(98.52913147 2.651324353 -1.881643262e-19)
(98.36313076 2.853062236 -6.272317293e-20)
(98.46009726 2.914808652 -2.5666474e-19)
(98.4464942 3.799510586 6.072225003e-19)
(98.32010863 3.780518184 6.23944977e-19)
(98.15107466 4.057525357 4.88565741e-19)
(98.30294919 4.090036902 2.528761463e-19)
(98.54684719 5.012074972 -7.621892838e-19)
(98.37313724 5.056002557 -3.221429046e-19)
(98.23613589 5.423147907 -7.825361791e-19)
(98.44673924 5.378562618 6.633276993e-22)
(99.06036185 6.105277287 -2.456355405e-19)
(98.85752235 6.270884827 3.999577663e-19)
(98.82073102 6.712034419 -9.260022662e-21)
(99.06163479 6.515061487 5.945857162e-20)
(99.99154508 6.629200979 1.25937042e-19)
(99.8339893 6.959491389 -1.356243663e-20)
(99.95482417 7.373233333 3.100298044e-19)
(100.1202498 6.984793358 9.675718917e-20)
(100.947061 6.232860974 -8.574521742e-20)
(100.9245537 6.670438225 3.184208279e-20)
(101.1463238 6.928240081 1.815107215e-19)
(101.1417145 6.443557399 -2.088239093e-19)
(101.4584953 5.108639003 5.994018689e-21)
(101.5661095 5.529813381 4.091228869e-19)
(101.7734775 5.617330976 2.60876733e-19)
(101.630487 5.18172941 -6.223277731e-20)
(101.4869099 3.813708515 -1.536366001e-19)
(101.6441869 4.137555695 -1.389226863e-20)
(101.7863459 4.127210212 8.590736206e-20)
(101.6066356 3.810680226 -3.20396801e-19)
(101.292355 2.722556489 -4.537936102e-20)
(101.4355686 2.942210982 1.145370835e-20)
(101.5245863 2.893041453 -2.051232253e-19)
(101.369655 2.690804761 1.297070337e-19)
(101.1570932 2.033527501 0)
(101.033183 1.878714316 4.972765051e-20)
(101.2131484 1.984208067 0)
(101.0822796 1.841968631 0)
(100.7440272 1.179314566 2.949078667e-20)
(100.9382621 1.385363412 1.917214388e-20)
(100.9956906 1.280579454 -1.644623855e-20)
(100.7936933 1.116885687 3.69603983e-20)
(100.5241667 0.7556083689 -3.352606047e-20)
(100.6659732 0.8923202537 -1.498839556e-20)
(100.6989552 0.8106228112 -1.510860484e-20)
(100.5550843 0.705943953 -7.387058532e-21)
(100.3555898 0.3402050498 -9.492365029e-21)
(100.5398184 0.4172708719 -1.930469144e-20)
(100.57819 0.5739084464 -2.561061796e-21)
(100.4764148 0.5550773108 5.965175461e-21)
(100.2489682 0.1893063299 7.732292205e-21)
(100.3696208 0.2415118604 1.172717939e-20)
(100.1895776 0.08383090451 -1.952221996e-21)
(100.2638069 0.1211350067 -3.440384231e-21)
(100.2146186 0.03674174028 -4.930831045e-22)
(99.83520253 0.0219759719 0)
(99.85666479 -0.001412701356 0)
(99.74657804 0.06583914161 4.78118635e-21)
(99.78878172 0.00512357185 0)
(99.58732447 0.1553101998 1.216950339e-20)
(99.64539976 0.04647931405 -3.727295083e-21)
(99.36947257 0.3489523949 2.002318211e-20)
(99.40651396 0.1359092517 2.67568174e-20)
(99.28775011 0.3024781378 -8.052931086e-21)
(99.37260953 0.4202904272 2.828637849e-20)
(99.24592196 0.3742651334 2.255961636e-21)
(99.22482416 0.4841193183 -1.147113194e-20)
(99.0366361 0.7688704843 0)
(99.03763418 0.6582461635 -2.379590828e-20)
(98.83035318 0.7211044153 -1.959221269e-20)
(98.81597378 0.8784934054 4.854936444e-21)
(98.5771975 1.312983034 0)
(98.55872975 1.156162396 4.854416658e-21)
(98.25653225 1.268992106 -5.037690333e-21)
(98.32147061 1.500711614 2.410695631e-20)
(98.19488223 1.495517686 6.277071087e-21)
(98.08412532 2.032758966 4.201005485e-19)
(98.04821679 1.923641694 1.430569655e-19)
(97.85561304 2.036428954 6.513197787e-20)
(97.89407611 2.165973332 -1.438751014e-19)
(97.50890172 3.176253455 3.197056286e-19)
(97.42667151 3.044431989 3.339171504e-19)
(97.19215165 3.215296952 9.51463361e-19)
(97.28250391 3.382696809 6.069910647e-19)
(97.07355077 4.677993223 7.19860306e-19)
(96.9190163 4.543600073 3.09768576e-19)
(96.64893782 4.816354991 4.844641204e-19)
(96.8301369 4.984328547 7.443237364e-19)
(96.99362421 6.579505297 -1.986315678e-18)
(96.72990484 6.483485648 -1.072327874e-18)
(96.45517364 6.919266846 -5.588900687e-19)
(96.77923035 7.037675776 -7.848613105e-19)
(97.73419574 8.693443211 -1.560863624e-19)
(97.33574469 8.762875405 2.342278002e-19)
(97.20255961 9.413653049 7.647464832e-19)
(97.69510138 9.302389682 -8.677207927e-19)
(99.70008968 10.02763319 4.692869446e-20)
(99.30859984 10.44165899 4.66650078e-20)
(99.54660784 11.10834799 -2.749822173e-19)
(99.96634472 10.56841833 5.824101539e-20)
(101.9484484 9.385490946 -9.3287524e-19)
(101.8469137 10.04632289 -4.623653357e-19)
(102.3165581 10.36353435 -9.215435876e-19)
(102.3439904 9.612039157 -1.799184221e-19)
(103.0403082 7.277107013 5.755127181e-19)
(103.2318201 7.882928067 -5.139376009e-19)
(103.599947 7.866836254 5.345652879e-19)
(103.3332431 7.252456544 5.39233946e-19)
(102.9370508 5.023512737 -1.797102141e-19)
(103.222333 5.442198525 -3.165237235e-21)
(103.4254466 5.302982343 -5.560463968e-19)
(103.0987736 4.909965943 -5.467737692e-19)
(102.3731955 3.333502756 -4.267185691e-19)
(102.6188261 3.581858335 -1.692656756e-20)
(102.7068314 3.445716918 -4.476103293e-19)
(102.4506051 3.221478298 -2.172335384e-19)
(101.9975702 2.352135692 -1.488026954e-20)
(101.8209145 2.204167839 -3.801464575e-21)
(102.0430656 2.242228013 1.871148828e-20)
(101.8632032 2.115105838 2.27181949e-20)
(101.2736157 1.337386554 -9.395203156e-20)
(101.5487875 1.529943565 -5.93854024e-20)
(101.5722626 1.34347363 -3.313021533e-20)
(101.3020353 1.211533417 -1.688964978e-20)
(100.8878441 0.8332251071 1.153119758e-20)
(101.0856083 0.9512718211 3.487380262e-20)
(101.0870817 0.819520816 -3.878705541e-21)
(100.899756 0.7389024736 -3.807547539e-21)
(100.541401 0.320398468 1.981154591e-21)
(100.7599576 0.3472835774 0)
(100.8662659 0.5428730233 -6.04819913e-23)
(100.7579338 0.565448957 -1.034524709e-20)
(100.3739634 0.1711064323 4.424090714e-22)
(100.5103672 0.1908949997 1.980975982e-21)
(100.2800571 0.07331167665 -1.983612391e-21)
(100.3560314 0.08847491861 -1.985709513e-21)
(100.2837608 0.02576215933 -1.982781007e-21)
(99.81800591 -0.01822515237 0)
(99.87388197 -0.0257596267 2.345109734e-21)
(99.69749173 -0.01497215308 -9.562779902e-21)
(99.78580409 -0.0695735783 -2.364554787e-21)
(99.4793921 0.02993162947 9.997040478e-21)
(99.60323337 -0.0823339018 -4.728739832e-21)
(99.16080171 0.1850502816 1.304141406e-20)
(99.29575347 -0.05151700686 4.298777126e-21)
(99.09049107 0.1108650826 -5.393832633e-23)
(99.13296804 0.2974425434 -9.644280446e-21)
(99.00749722 0.1918869632 -9.80895481e-21)
(98.94661113 0.3183984763 0)
(98.62724106 0.6259772011 -1.959172904e-20)
(98.67629687 0.4777210265 0)
(98.43612986 0.4831128113 -1.490169475e-22)
(98.35364294 0.6818228031 -1.099005859e-22)
(97.93380815 1.153218497 1.018027048e-20)
(97.977448 0.9423885505 1.522808863e-20)
(97.62493895 0.9656451177 2.061461348e-20)
(97.60636717 1.313533562 -4.01233098e-21)
(97.4862689 1.230499547 -4.412937235e-20)
(97.15153939 1.898768334 -5.687773311e-21)
(97.15769767 1.738352471 -1.74079163e-19)
(96.91953361 1.796130145 -7.502577714e-20)
(96.90740497 1.987327989 -2.472272019e-19)
(96.18658951 3.107325621 4.612074384e-20)
(96.13919202 2.902850304 7.800347771e-19)
(95.83056227 2.996834655 7.723646313e-19)
(95.88087692 3.279770833 -1.086058132e-19)
(95.19623595 4.889114548 3.315149104e-19)
(95.07656362 4.615750955 -3.708662769e-19)
(94.67308091 4.786483087 -3.703030324e-19)
(94.80667945 5.159301801 -1.849026964e-18)
(94.38382039 7.634658528 3.964012774e-18)
(94.07608524 7.26930063 -1.476756544e-18)
(93.53007759 7.711320455 1.508767105e-19)
(93.90858357 8.167405729 1.394020067e-18)
(94.79257 11.75082552 2.696248026e-19)
(94.07874624 11.51579387 -1.03419465e-18)
(93.5939024 12.55957122 1.925825384e-19)
(94.55201274 12.79116658 -7.296893404e-22)
(98.76389461 15.35200129 0)
(97.82966466 15.93335716 6.700435724e-20)
(98.38105494 17.28040029 0)
(99.40776403 16.34863973 0)
(104.0406466 13.92749919 3.285419619e-19)
(103.8719207 15.07508268 1.375661201e-19)
(104.9640668 15.35984185 3.264863117e-19)
(104.8880961 14.05953098 -1.697231159e-19)
(105.8980006 9.639849647 9.301422558e-20)
(106.3130387 10.51262645 0)
(106.9355699 10.1967236 -2.728833998e-19)
(106.3570775 9.370165347 -1.100871563e-19)
(105.2205251 5.995385251 -4.445743893e-19)
(105.7196056 6.442328432 4.75593468e-19)
(105.9183422 6.137190688 0)
(105.3681503 5.671696221 0)
(103.8484303 3.622119541 -2.395364571e-19)
(104.2359671 3.872192251 -1.207317355e-18)
(104.2737344 3.612904256 -4.865561654e-19)
(103.8848137 3.40984389 7.627871753e-21)
(102.9978093 2.349914412 -1.237999519e-19)
(102.7495022 2.230631056 -1.590572922e-20)
(102.9999417 2.18003847 -6.569398683e-20)
(102.7601349 2.083171973 -4.935277603e-20)
(101.8799315 1.290957655 2.728581873e-20)
(102.2247417 1.42646214 -2.17320618e-22)
(102.1831013 1.173615524 1.642281423e-20)
(101.8582292 1.10309798 1.225428409e-20)
(101.2857926 0.7656247986 -1.603347934e-20)
(101.5345172 0.8421330872 -8.14939427e-21)
(101.4819187 0.6696577021 -8.1509731e-21)
(101.2591035 0.6334912305 1.236363049e-20)
(100.7157209 0.2225730987 0)
(100.954484 0.1848141186 1.299068632e-21)
(101.1401632 0.3915794571 -1.091961825e-20)
(101.0426107 0.4662877943 2.714154691e-20)
(100.4816826 0.1066468137 -4.978566169e-22)
(100.6196173 0.07946847892 -1.538077089e-21)
(100.3512028 0.04103794424 -1.991373608e-21)
(100.417875 0.02262961434 -2.246525778e-21)
(100.3224561 0.004332722328 2.560204463e-21)
(99.84859457 -0.07642284944 -1.869726594e-23)
(99.94598935 -0.05813977926 1.064385766e-22)
(99.70019356 -0.1355961292 2.465865549e-21)
(99.84169771 -0.1690226 -1.284037202e-22)
(99.43075765 -0.16134978 -1.288455025e-20)
(99.62770926 -0.2572383686 1.981320345e-21)
(99.00916327 -0.07019920582 -1.152500295e-20)
(99.26410749 -0.3126502339 -1.955455339e-20)
(98.97315172 -0.1846529712 -1.673727849e-20)
(98.93155379 0.05449928562 -9.071842982e-21)
(98.84548107 -0.1078944385 -3.669197057e-21)
(98.72629086 0.0211706259 3.398004114e-23)
(98.26844327 0.293778455 1.487084687e-20)
(98.38132419 0.1275001996 1.520848325e-20)
(98.13428373 0.06092134743 7.502252909e-21)
(97.9715391 0.2697079908 2.597776503e-20)
(97.35583638 0.705498765 -2.616967582e-20)
(97.4911532 0.4532072667 -2.101246593e-20)
(97.13268639 0.3747636064 -4.276165613e-20)
(96.9670252 0.7536798171 -2.088672394e-20)
(96.87178766 0.6319521874 -2.078803673e-20)
(96.27376491 1.320105444 1.794951389e-19)
(96.34177264 1.125011023 -3.807636798e-19)
(96.08740791 1.108543458 -3.793431383e-19)
(95.99939972 1.331743159 -3.72953338e-19)
(94.84337176 2.392193812 0)
(94.8862058 2.108978085 -4.307186825e-19)
(94.54941405 2.10299143 -1.40009142e-18)
(94.48116627 2.428460298 -9.242385778e-19)
(93.06635618 4.070753004 -2.003319131e-18)
(93.07725123 3.642978992 -1.019390581e-18)
(92.56891557 3.673404213 -9.459576611e-19)
(92.5197422 4.168235323 -1.117916057e-18)
(90.56715483 7.120986189 8.369460537e-19)
(90.46096991 6.397233119 -2.536380926e-19)
(89.53718708 6.576250873 4.967948898e-19)
(89.62266237 7.494140269 4.20793735e-19)
(87.86730313 14.36192604 -5.412807691e-20)
(86.95783859 13.01074212 -4.901478738e-19)
(84.95167139 14.7229591 -1.231566374e-18)
(85.18527379 13.7877319 3.562656149e-19)
(86.95160722 16.07024195 2.409121129e-19)
(85.82384429 16.11244263 1.731873954e-19)
(93.71413177 26.74528937 -1.179534685e-19)
(95.20302297 26.21228823 2.13625871e-19)
(94.36639482 28.68383501 -1.035586009e-20)
(96.1530137 27.68192684 2.171382108e-20)
(110.0378974 22.1431783 0)
(110.0927094 20.18681312 3.042390127e-19)
(111.819041 19.51940922 0)
(111.0540667 22.81097241 0)
(113.1979898 21.32881486 0)
(112.8327432 22.25849022 0)
(111.9743966 12.38791088 4.016595512e-19)
(110.9601314 11.34394889 -2.604595456e-19)
(112.6049081 11.3740104 8.282553646e-21)
(111.4239997 10.58864509 4.127229922e-19)
(108.3258418 6.096853141 1.506928056e-19)
(109.1569995 6.543534567 4.591147976e-19)
(109.2005585 5.882095723 3.006281097e-19)
(108.3602974 5.577119697 -1.150703095e-19)
(105.632148 3.30882681 8.188217734e-19)
(106.1830927 3.487975702 5.501205604e-19)
(106.0930584 3.106316883 1.681208858e-18)
(105.5663576 2.996640948 8.041928612e-19)
(104.076914 1.925954799 -2.825680269e-19)
(103.7487446 1.865213234 -9.858585698e-21)
(103.997958 1.702917346 -8.009906835e-21)
(103.6894408 1.661907595 -2.739824939e-19)
(102.4674477 0.9882182181 4.276258416e-21)
(102.8661292 1.024479296 9.00275027e-21)
(102.7186746 0.7352596482 -2.415516804e-21)
(102.3715949 0.7574179067 -4.398655666e-21)
(101.6614235 0.5291545984 4.370450495e-21)
(101.9451844 0.5431154262 -2.494675782e-23)
(101.8231704 0.3481603441 -7.201559191e-21)
(101.5795274 0.3713962786 8.80022966e-21)
(100.842567 0.04542605285 -2.14880269e-22)
(101.0723339 -0.06558478258 -2.759925528e-22)
(101.357185 0.11733437 8.476125648e-22)
(101.2838432 0.2237559538 6.502886124e-21)
(100.5452643 -0.004723721924 -3.291342539e-21)
(100.6668031 -0.08920385568 -2.480824047e-22)
(100.3808856 -0.01328729667 2.471240347e-21)
(100.4258978 -0.07357217249 -2.160044649e-21)
(100.3099061 -0.02679066838 4.052443642e-22)
(99.94419389 -0.1493656812 1.954603021e-23)
(100.0868931 -0.09619207547 -3.477238151e-21)
(99.77547631 -0.2873906567 -6.421316746e-22)
(99.97192835 -0.2858801414 1.513459394e-21)
(99.4691508 -0.4049138411 -5.012983405e-21)
(99.7386595 -0.4641624719 -3.29883492e-21)
(98.96492531 -0.4135867877 1.036460896e-20)
(99.34068793 -0.6241565238 -1.142867783e-21)
(98.97530985 -0.558343064 1.094895491e-21)
(98.82879669 -0.2959998529 5.103702488e-21)
(98.8061939 -0.4990588792 1.052883221e-20)
(98.62730703 -0.389472359 7.445645502e-21)
(98.04477859 -0.2078392104 -2.526803734e-21)
(98.22891748 -0.3645861345 3.954120056e-21)
(98.00532449 -0.5051341543 2.609345268e-21)
(97.76106395 -0.322535248 7.919062882e-21)
(96.97089028 -0.01394346579 3.081715709e-20)
(97.20883067 -0.2590692199 4.455005584e-20)
(96.88150023 -0.4445009027 3.122296245e-21)
(96.55564694 -0.07488702526 2.72075565e-20)
(96.51381868 -0.2472899494 -2.22879115e-19)
(95.65323782 0.3366285393 1.005602467e-19)
(95.79504956 0.1406298396 2.720288652e-21)
(95.5563101 0.04352797617 -2.127056245e-19)
(95.38410527 0.258542101 1.996933411e-18)
(93.8615501 1.010553871 -9.847351999e-19)
(94.01981152 0.7169874903 2.616927218e-19)
(93.70479695 0.5898844823 4.820184267e-19)
(93.5031013 0.9056796023 4.815743165e-19)
(91.39021823 2.042296188 0)
(91.62223404 1.595179111 -5.30801668e-19)
(91.14164187 1.39936307 0)
(90.82834925 1.876125541 -6.402131978e-20)
(87.07866789 3.745233669 -5.138587973e-19)
(87.53711321 2.945209795 1.087206161e-18)
(86.67158126 2.540416546 5.532159978e-19)
(85.96199164 3.397733422 2.932648014e-19)
(77.9279361 6.976590924 0)
(78.56830958 5.905325486 0)
(77.52537867 5.219007349 -4.065278476e-20)
(76.55063626 6.355547502 7.62667195e-19)
(128.8400924 24.37828283 -1.995919758e-18)
(126.7182947 23.35027819 -1.825502352e-18)
(129.3929821 22.14180184 -3.770821496e-20)
(127.3705924 21.58392381 -1.137688851e-19)
(119.9517517 10.04584279 -8.857016629e-19)
(118.0627085 9.598706215 1.269118295e-18)
(119.7407302 8.297567182 1.922209236e-18)
(118.0046939 8.266403413 1.286336801e-18)
(111.7976552 4.496149818 4.456270253e-20)
(112.9418372 4.617938982 -5.934809577e-20)
(112.5503899 3.770154439 1.620745556e-18)
(111.5181538 3.809531261 4.764033155e-19)
(107.3662431 2.154194968 1.855985346e-18)
(108.035269 2.155376019 6.300422495e-19)
(107.7205656 1.726269846 3.390294871e-19)
(107.1217647 1.786196183 9.429209669e-19)
(105.0187519 1.013663019 -2.30045239e-18)
(104.6419242 1.047459387 -5.666318894e-19)
(104.8300703 0.7748467331 -5.745132534e-19)
(104.4907781 0.8276310105 -1.129119329e-18)
(102.9251836 0.4213832054 -4.714581508e-21)
(103.3462615 0.342083773 -2.315861078e-21)
(103.0755263 0.05530648072 7.408485167e-21)
(102.7405895 0.1821385419 1.124988494e-21)
(101.9465406 0.1295456772 -2.00773343e-21)
(102.2336073 0.06235669605 1.327668161e-20)
(102.0323138 -0.1217641915 4.922173362e-21)
(101.7988874 -0.02878250025 9.744085861e-21)
(100.8858552 -0.197009472 -3.390688913e-22)
(101.0822979 -0.3863242106 -1.038667425e-21)
(101.4595307 -0.2580131737 -1.049764428e-21)
(101.433161 -0.1144148235 -1.147275441e-21)
(100.5392751 -0.1558663773 1.062548505e-21)
(100.6278758 -0.3017671042 1.290347784e-21)
(100.3482527 -0.08575611365 -4.191880188e-21)
(100.3597038 -0.1931091317 1.651228979e-21)
(100.2289926 -0.06555150933 -2.065901852e-21)
(100.1172043 -0.231065405 -1.983280701e-21)
(100.30486 -0.1368241668 1.099843039e-21)
(99.93814626 -0.4579935198 -1.15909258e-21)
(100.186027 -0.4106055195 -8.116235502e-22)
(99.61390514 -0.6795060597 5.950104722e-22)
(99.9476694 -0.6850760804 -2.921004112e-22)
(99.05675597 -0.8107571386 6.815050386e-22)
(99.54082165 -0.9576443219 9.813563145e-22)
(99.12059195 -0.9724040419 5.914674497e-22)
(98.86272628 -0.71898567 1.718547752e-21)
(98.91819336 -0.9425622426 -1.763551465e-23)
(98.68702601 -0.8694162976 -1.763802297e-23)
(98.02128892 -0.8219401721 -2.603165297e-21)
(98.26848546 -0.9436498773 0)
(98.09375937 -1.148375427 -1.278709729e-21)
(97.78133036 -1.020273313 -1.366424179e-21)
(96.87003204 -0.90149893 -3.754024544e-20)
(97.20096931 -1.096902653 2.21081341e-23)
(96.93982498 -1.368222156 4.218021604e-21)
(96.47789048 -1.069267065 8.872057294e-22)
(96.50157211 -1.266001379 5.109614084e-19)
(95.45094842 -0.8901033842 5.363669595e-19)
(95.65628315 -1.054271317 1.258905554e-18)
(95.47218068 -1.211502667 -1.289189422e-19)
(95.21894644 -1.043980554 -1.94084436e-19)
(93.53352577 -0.7358965354 -5.207765566e-19)
(93.78118545 -0.9715257906 0)
(93.56413543 -1.177515378 5.253016561e-19)
(93.24300841 -0.9418892298 -1.07264707e-18)
(90.92509277 -0.5856768782 6.811178305e-20)
(91.32515828 -0.8972605825 0)
(91.0094883 -1.212381847 1.128601718e-18)
(90.53713783 -0.9224489589 0)
(86.71021173 -0.8854213835 1.044029324e-18)
(87.46172941 -1.264992444 5.090167052e-19)
(87.007551 -1.835888713 -5.431208175e-19)
(86.13986693 -1.5552412 2.03900745e-18)
(80.59111204 -3.318602246 6.384361779e-19)
(81.31348982 -3.355345897 -1.193436391e-18)
(81.21442997 -3.918800254 -1.791065936e-18)
(80.53942069 -4.003286518 2.680788951e-18)
(141.9477313 5.075932535 0)
(140.2037757 6.219002382 0)
(140.4667222 3.692489624 0)
(139.012458 4.816168173 0)
(125.016537 1.936527913 1.636726793e-18)
(123.1813503 2.734447567 1.551636446e-18)
(123.6409388 0.5968437537 -1.408317939e-18)
(122.2077382 1.49705987 1.45620394e-18)
(114.1985762 0.9481140662 -4.713977332e-19)
(115.3535598 0.5438050472 -1.602582355e-19)
(114.4745088 -0.1323516416 4.355749971e-19)
(113.5222424 0.3358587694 -1.019637482e-18)
(108.5112831 0.1698750238 -1.552995678e-19)
(109.1870665 -0.06749342752 -6.564064721e-19)
(108.6503231 -0.4124983599 -4.928817995e-19)