/*--------------------------------*- C++ -*----------------------------------*\
| =========                 |                                                 |
| \\      /  F ield         | OpenFOAM: The Open Source CFD Toolbox           |
|  \\    /   O peration     | Version:  v1912                                 |
|   \\  /    A nd           | Website:  www.openfoam.com                      |
|    \\/     M anipulation  |                                                 |
\*---------------------------------------------------------------------------*/
FoamFile
{
    version     2.0;
    format      ascii;
    class       volVectorField;
    location    "1.83";
    object      U;
}
// * * * * * * * * * * * * * * * * * * * * * * * * * * * * * * * * * * * * * //

dimensions      [0 1 -1 0 0 0 0];


internalField   nonuniform List<vector> 
12556
(
(99.99812645 0.00446159825 -4.274031789e-21)
(99.99766277 0.01466798518 5.256817238e-25)
(99.99630881 0.02982922642 -4.261376967e-21)
(99.99406408 0.05312276603 -4.226873134e-21)
(99.99984481 0.04084150993 4.065510386e-21)
(99.99715498 0.06532710725 0)
(99.99572815 0.1026217009 0)
(99.99537896 0.1528860003 -6.979822628e-21)
(99.9942608 0.2175604771 8.048961418e-22)
(99.99367899 0.2933125822 -5.092595782e-21)
(99.99430039 0.3693593781 7.385704622e-22)
(99.99585543 0.4286404839 0)
(99.99985649 0.4538462547 0)
(100.0041473 0.4348246362 1.555092811e-21)
(100.0054958 0.3813902615 -2.027997776e-21)
(100.0061597 0.310346363 1.044714536e-21)
(100.0056755 0.237818187 0)
(100.0049311 0.1740564661 1.588994282e-21)
(100.0044681 0.1211999347 6.501470068e-21)
(100.0023869 0.08357873911 -1.791947161e-21)
(100.0090787 0.09339944314 -1.547359159e-20)
(100.0060629 0.05674171315 0)
(100.0043356 0.0298032309 -1.930055289e-21)
(100.0040838 0.009312227387 -1.357588782e-20)
(99.98338317 0.01196390346 1.713891283e-20)
(99.97784377 0.03980057308 4.276029057e-21)
(99.96528673 0.08157990285 2.983197919e-20)
(99.9437374 0.1461738051 -1.277560672e-20)
(99.94871156 0.1929499114 4.098422171e-21)
(99.91624058 0.311797922 -5.779168979e-23)
(99.87513914 0.4902535721 0)
(99.85429165 0.646603288 -7.085304781e-21)
(99.81263696 0.9310690691 -6.478442228e-21)
(99.78570161 1.275177116 -1.10117392e-20)
(99.79323627 1.633792713 -4.400118387e-21)
(99.84740422 1.922362793 -1.030498717e-20)
(99.94233156 2.058381354 -1.053270265e-21)
(100.0466027 1.99282626 7.120514433e-22)
(100.1234324 1.760196326 -6.565108514e-22)
(100.1568249 1.435809263 5.375437256e-21)
(100.1533831 1.099089272 -1.008541286e-20)
(100.127865 0.8061171642 0)
(100.129212 0.5922035732 -2.736339938e-20)
(100.0899224 0.3962794038 5.246365019e-20)
(100.0854496 0.2654981928 1.498040533e-20)
(100.0581115 0.1607554402 3.069928586e-20)
(100.0423438 0.08474280495 -3.079026894e-20)
(100.0362926 0.0265242825 1.550636212e-20)
(99.95541631 0.01573618287 -1.710073995e-20)
(99.93974034 0.05335399739 -3.436371439e-20)
(99.90561558 0.1116368991 -7.688782777e-20)
(99.84844669 0.2046694039 1.022526677e-19)
(99.82297825 0.3045951443 -8.442790851e-21)
(99.72588095 0.5060827904 -8.162208123e-21)
(99.59869951 0.8124620886 -1.414269263e-20)
(99.53267608 1.139581174 0)
(99.39848365 1.685005192 2.691789173e-20)
(99.31065563 2.363944707 0)
(99.34746592 3.086314776 -2.045342628e-19)
(99.54854559 3.717138566 1.065267067e-19)
(99.91197464 4.042645644 4.662788833e-20)
(100.3044515 3.91709551 7.069104696e-20)
(100.5622715 3.4035716 -3.13628668e-20)
(100.6492049 2.724263137 4.307174211e-21)
(100.6116647 2.051969609 -1.078415918e-20)
(100.506264 1.468494129 -2.470349739e-20)
(100.4259967 1.004452181 -1.643414273e-19)
(100.3044296 0.662915933 -3.614189071e-20)
(100.2349645 0.3986151207 -1.529720582e-20)
(100.1627644 0.2390464302 3.473122956e-20)
(100.1192689 0.1259904207 -3.894394066e-21)
(100.1002629 0.03924268675 0)
(99.92221113 0.01358671966 -8.632882671e-21)
(99.89215087 0.04849693042 6.040133394e-20)
(99.82784166 0.1090516684 -1.728474909e-20)
(99.72263755 0.2093495027 0)
(99.64125746 0.3498765431 0)
(99.45231208 0.6086946489 -6.629713319e-20)
(99.19183356 1.017333384 -1.324474362e-19)
(98.99395982 1.504512122 3.097433226e-20)
(98.67932607 2.301065937 -5.866119475e-20)
(98.45561828 3.318717254 1.095429333e-19)
(98.44802917 4.528795742 -3.548858712e-19)
(98.85217897 5.718107305 0)
(99.73825689 6.418117523 1.522719262e-19)
(100.7514615 6.211181111 1.944966974e-21)
(101.3792789 5.233046508 2.541591659e-19)
(101.5137934 3.999073564 8.758437192e-20)
(101.3650932 2.890828218 0)
(101.1172934 2.016282974 0)
(100.8774166 1.310234737 5.922599806e-20)
(100.6252828 0.8441817458 -4.545785499e-20)
(100.4425336 0.4677147159 -3.907221783e-20)
(100.3081653 0.2771863672 1.973467465e-20)
(100.2247348 0.1437887842 -3.955140249e-21)
(100.1866502 0.04432800699 0)
(99.89806444 0.004136908235 0)
(99.8512943 0.02056032515 0)
(99.75207242 0.06586571153 8.75841732e-21)
(99.5891031 0.1502853195 1.319593414e-20)
(99.43960704 0.3116124668 2.180405394e-20)
(99.12834183 0.5886004896 0)
(98.69497142 1.032033517 0)
(98.28735116 1.641915455 0)
(97.71325823 2.613520575 0)
(97.17033128 3.983292759 0)
(96.89490267 5.843861176 -4.732585922e-20)
(97.41996256 8.049830001 7.834685029e-19)
(99.26923686 9.619443067 2.641059407e-19)
(101.5905272 9.252765611 3.301992923e-19)
(102.8577915 7.359991854 1.982724926e-20)
(102.9475535 5.21561779 0)
(102.4831524 3.531498243 -2.160352812e-19)
(101.9419343 2.352307054 -3.991280573e-22)
(101.4539843 1.451462097 -9.672979564e-20)
(101.022259 0.9071832511 8.023071779e-21)
(100.680748 0.4532772127 0)
(100.4691938 0.2624728344 4.019192014e-21)
(100.337402 0.1311975012 -3.018851743e-21)
(100.2762125 0.03966172273 -1.000559179e-21)
(99.89879213 -0.01305648804 0)
(99.83495069 -0.03202137211 0)
(99.7011588 -0.02314722505 -1.752486708e-20)
(99.47753586 0.02368323366 3.57920601e-20)
(99.25100079 0.1761391056 0)
(98.80577112 0.4185522813 0)
(98.16982147 0.8274299015 2.798863539e-20)
(97.52954422 1.456025876 0)
(96.57693647 2.454742342 6.570039511e-19)
(95.46436629 4.018220991 1.309677519e-18)
(94.37644664 6.612414566 -1.170811728e-18)
(94.36383598 10.74559628 1.000258205e-18)
(98.09005513 14.73801851 0)
(103.5358567 13.66872023 -2.223215909e-19)
(105.5991741 9.633928809 -4.003783627e-19)
(105.1669477 6.155799935 7.485369858e-19)
(103.9966843 3.82280373 -5.004624766e-19)
(102.9272579 2.383303646 0)
(102.1009216 1.369520623 2.481782322e-20)
(101.4477933 0.8142105447 -1.652903249e-20)
(100.9161925 0.3430742076 0)
(100.6170472 0.1864139492 0)
(100.4334641 0.08410317032 -1.011557415e-21)
(100.3475477 0.02412398288 -3.029205181e-21)
(99.93954696 -0.03755789822 4.29570126e-21)
(99.86044117 -0.1072623628 -4.329146414e-21)
(99.69712085 -0.1545164756 8.838627863e-21)
(99.42069722 -0.1702926813 -3.229380503e-20)
(99.10928286 -0.05773293406 6.323348568e-23)
(98.54470902 0.09634771467 2.772585286e-20)
(97.72918105 0.3899176303 -6.737796852e-20)
(96.85160552 0.910025525 4.904962232e-19)
(95.48428252 1.741574517 7.377845328e-19)
(93.61511972 3.1325259 -8.106204099e-19)
(90.88721782 5.757910549 8.169433124e-19)
(87.32354457 12.28163148 0)
(94.01406493 24.62142266 9.716634364e-20)
(109.5985516 19.87411634 0)
(110.4785667 11.20036319 -7.536262159e-19)
(108.2096871 6.199087545 1.706523117e-19)
(105.8004933 3.477179488 0)
(103.9837499 1.991989527 -2.853219017e-19)
(102.7103004 1.010972284 0)
(101.8418778 0.5397849201 8.92108475e-21)
(101.1054569 0.1367329084 2.645378719e-21)
(100.7202762 0.04535952721 -3.131238396e-21)
(100.4887207 0.002557366797 -3.560348398e-21)
(100.3789941 -0.002170618936 8.589865596e-21)
(100.0332941 -0.06783283016 -4.296156829e-21)
(99.94281047 -0.2002309212 4.330702423e-21)
(99.75849599 -0.3186492068 -5.502152761e-21)
(99.44463882 -0.416206007 -3.708001569e-21)
(99.06217071 -0.3733003558 1.582927862e-20)
(98.40833114 -0.3502894276 9.454374781e-21)
(97.48090137 -0.2508428334 7.487591916e-20)
(96.40771406 0.05349581302 0)
(94.74029865 0.4996801576 -8.115259441e-19)
(92.3096581 1.212825486 1.102642601e-19)
(88.20052732 2.30627984 9.938871645e-19)
(79.97411934 4.357907731 0)
(124.9176721 22.69184759 8.368760951e-19)
(117.2826623 9.318850351 2.380804836e-18)
(111.5433865 4.532703406 8.765642048e-19)
(107.5242144 2.25775559 0)
(104.9174559 1.119326897 -6.220369556e-19)
(103.1696273 0.3754425666 -4.714131676e-21)
(102.1262169 0.09859693021 2.010263227e-20)
(101.2020144 -0.1584983498 -3.213342072e-21)
(100.7485687 -0.1512020864 2.631042489e-21)
(100.479699 -0.108416382 -4.897990438e-22)
(100.3501717 -0.03803671704 -8.050509585e-21)
(100.18941 -0.1015812259 -2.075359941e-21)
(100.0927961 -0.3038120994 -1.560142258e-21)
(99.8984284 -0.5020364526 -5.349072279e-22)
(99.5668822 -0.6923381131 1.623492135e-21)
(99.1340428 -0.7397813537 -3.083341206e-23)
(98.43939296 -0.8720744109 0)
(97.48015688 -1.001923761 -7.82562592e-20)
(96.31139543 -0.9733231913 9.085165681e-20)
(94.56290951 -0.9887223278 -8.367632876e-19)
(92.1152244 -1.06798431 -5.243129713e-19)
(88.40784188 -1.637232662 -9.810966373e-19)
(83.49412743 -3.790306641 0)
(137.7143152 6.665771454 0)
(121.9697487 2.623765223 -1.349866835e-18)
(113.7755904 0.9949323323 2.441810173e-19)
(108.6316166 0.2079009647 -7.314540238e-19)
(105.471621 -0.1604059549 8.087133006e-19)
(103.37625 -0.463434224 -4.790195266e-21)
(102.2224692 -0.472345289 1.125304431e-20)
(101.1712966 -0.5151857601 1.099051471e-21)
(100.6778842 -0.3855480013 0)
(100.3869908 -0.2395983941 4.054020066e-21)
(100.2448608 -0.08057805807 4.008749607e-21)
(100.4123248 -0.1360902322 4.090180533e-21)
(100.3153472 -0.4096323437 6.153237073e-23)
(100.122768 -0.6889224003 0)
(99.79475106 -0.9741082787 2.12648426e-22)
(99.33724315 -1.12119342 -2.178115479e-21)
(98.65282103 -1.411189559 2.32826694e-21)
(97.73692311 -1.762153653 7.600676789e-21)
(96.58413774 -1.997079871 -7.107859869e-19)
(94.94938221 -2.397709514 0)
(92.78698888 -3.001691198 -4.232444517e-19)
(89.88440069 -4.179262723 0)
(86.84060048 -6.114149821 -1.868369734e-18)
(134.7962451 -9.696912671 0)
(121.6477459 -5.234629805 0)
(113.8382981 -3.248021194 7.114727045e-19)
(108.6796952 -2.204803461 1.801684089e-19)
(105.4581612 -1.632058609 7.282178136e-19)
(103.2572316 -1.392001921 4.042512655e-20)
(102.0909525 -1.103730526 0)
(100.9936608 -0.8949352877 -1.072305868e-21)
(100.4941377 -0.6342558785 -4.461942892e-21)
(100.1993139 -0.3787535656 4.986383761e-22)
(100.0533869 -0.1257912822 0)
(100.7010898 -0.168751194 -2.01464309e-21)
(100.6091134 -0.5094897661 2.033145837e-21)
(100.4289812 -0.8640688985 1.984583541e-21)
(100.1256571 -1.238185562 -1.85947104e-21)
(99.66605234 -1.483095573 -2.150140522e-21)
(99.03554042 -1.912938978 0)
(98.21793578 -2.450585953 -2.34209241e-21)
(97.15515659 -2.902331177 6.833550801e-19)
(95.71672638 -3.570833259 -3.927526286e-19)
(93.87747245 -4.465995204 6.534633499e-21)
(91.49738445 -5.834133198 -1.246318546e-18)
(89.06112662 -7.473806117 6.068833584e-19)
(125.8127484 -18.63644419 0)
(117.7358951 -10.96907974 -1.260732504e-18)
(111.9496159 -6.775740476 -2.23089675e-19)
(107.6889713 -4.366930207 -7.144018545e-19)
(104.861396 -3.018104845 6.090650964e-19)
(102.8078159 -2.272834574 0)
(101.7321449 -1.711902744 -2.64842164e-20)
(100.6668835 -1.256980139 -1.343647182e-20)
(100.19634 -0.8722523193 1.020643373e-21)
(99.9153484 -0.512710606 -3.224053498e-21)
(99.77430757 -0.16946197 4.723476077e-22)
(101.0497071 -0.1973117397 7.386740241e-21)
(100.9673354 -0.596225889 0)
(100.8075661 -1.012642355 -1.980692333e-21)
(100.542948 -1.47165787 0)
(100.0965318 -1.79820964 0)
(99.5576979 -2.335640603 -6.39681525e-21)
(98.87306141 -3.015094098 -2.20389703e-21)
(97.94449701 -3.626943657 1.63616625e-19)
(96.73030176 -4.4707775 0)
(95.18549331 -5.548149284 2.305545181e-20)
(93.13683956 -7.074828966 -7.385444821e-19)
(90.86265793 -8.744106826 9.257957196e-20)
(116.3305101 -21.81379135 0)
(112.4983541 -13.79342719 -8.935235153e-19)
(109.0172948 -8.912958503 9.395935847e-20)
(106.0114065 -5.887682879 0)
(103.8224962 -4.103303732 2.991005471e-19)
(102.087022 -2.995238718 2.114825863e-21)
(101.1799201 -2.229579326 -3.229631369e-20)
(100.2129961 -1.574527033 7.960307518e-21)
(99.79684437 -1.076363448 0)
(99.54328222 -0.6300092106 3.712435726e-21)
(99.41434635 -0.2078876205 0)
(101.4485352 -0.2209454662 7.377277677e-21)
(101.3784836 -0.6685175973 1.164603035e-19)
(101.2427407 -1.134478407 -2.346896754e-19)
(101.0204458 -1.656209446 -5.799274823e-22)
(100.6307265 -2.042317578 -1.861464373e-21)
(100.1847593 -2.654710757 0)
(99.65217333 -3.428337194 1.345997495e-19)
(98.87603161 -4.139023882 1.202272234e-18)
(97.90259152 -5.084369555 -3.320080084e-19)
(96.65772045 -6.284920459 0)
(94.97015343 -8.029197594 -1.855743698e-18)
(92.95854307 -10.01474563 -2.617792209e-19)
(103.6053852 -30.95533121 3.909261897e-19)
(107.6866677 -20.18692248 -1.59454863e-19)
(107.5015526 -14.09540353 -3.047724138e-19)
(105.9206927 -9.656316139 0)
(104.0748663 -6.671533431 -1.24744099e-19)
(102.5461975 -4.791362769 -2.292277575e-19)
(101.1955938 -3.494112013 -6.453412657e-20)
(100.4862263 -2.609925897 0)
(99.66745094 -1.814632416 0)
(99.31656307 -1.234453184 1.161683412e-20)
(99.09866445 -0.7231468797 2.141765205e-21)
(98.98678971 -0.2384453656 -6.95219671e-21)
(101.8850011 -0.237423058 0)
(101.8288278 -0.7195811005 0)
(101.7206643 -1.21919956 0)
(101.5429183 -1.774876049 0)
(101.2087907 -2.217781343 0)
(100.8582585 -2.882389717 0)
(100.4670469 -3.705994543 -1.49278713e-20)
(99.8649331 -4.456559068 3.345709478e-20)
(99.12897763 -5.435341184 0)
(98.20551105 -6.678398584 3.118781607e-21)
(97.01184888 -8.530482494 -1.498346484e-18)
(95.81496546 -11.14912507 1.193620861e-19)
(96.61817132 -20.29933725 -4.613405773e-20)
(102.4798461 -16.61476679 3.48740015e-19)
(103.6903109 -12.77087425 1.083375788e-19)
(103.2332447 -9.366054187 2.848640755e-19)
(102.2123236 -6.828501236 8.343523038e-19)
(101.2144711 -5.098601948 -6.983437471e-20)
(100.2356447 -3.767773425 -9.019641444e-20)
(99.72137665 -2.848747531 -3.396117324e-20)
(99.06347198 -1.966336472 -1.891780097e-20)
(98.77982469 -1.342529099 1.864143495e-20)
(98.60144123 -0.7879933058 0)
(98.5089393 -0.259701358 1.864629138e-20)
(102.3463713 -0.2467701413 0)
(102.3047873 -0.7487779714 0)
(102.2262433 -1.26695115 0)
(102.0943196 -1.832793586 0)
(101.8146779 -2.305085799 0)
(101.5660203 -2.984088131 0)
(101.306787 -3.793447478 -2.538834254e-20)
(100.869772 -4.570995184 6.837119794e-19)
(100.3449265 -5.527996783 -4.75830001e-19)
(99.72625174 -6.68229658 0)
(99.08838605 -8.271801299 1.885010805e-19)
(98.87315755 -10.66185871 -7.33926923e-19)
(98.05279764 -13.25373538 -4.176438565e-19)
(100.3677438 -12.80384243 0)
(101.2743236 -10.82274817 0)
(101.1739127 -8.520673082 5.591060579e-19)
(100.6039883 -6.564855462 -5.459345969e-21)
(99.97135996 -5.113203781 -2.4242063e-20)
(99.28227493 -3.84661053 0)
(98.94528067 -2.955101167 0)
(98.43211317 -2.03647936 -3.523847205e-20)
(98.21217759 -1.399974964 1.738923544e-20)
(98.0727951 -0.8235321184 7.285427509e-22)
(97.99948225 -0.2714316061 -1.284504383e-20)
(102.819438 -0.2494168196 0)
(102.791442 -0.7568897632 0)
(102.7404311 -1.279123578 0)
(102.6508924 -1.838228732 0)
(102.4217655 -2.320315064 0)
(102.2606703 -2.983688088 0)
(102.1049361 -3.746879942 0)
(101.811025 -4.515497329 4.055110507e-21)
(101.4472407 -5.414926729 -7.811455869e-19)
(101.035464 -6.4146673 -7.656191743e-19)
(100.6959117 -7.605160122 1.570547608e-19)
(97.81742633 -8.652870696 -7.092254567e-19)
(98.98035619 -10.13165669 0)
(99.65967012 -10.05460169 8.921969599e-20)
(99.8648365 -8.986269007 -2.895729828e-19)
(99.68521525 -7.49606481 -1.09467333e-19)
(99.29732069 -6.07460303 -1.442933195e-19)
(98.8776977 -4.909059391 0)
(98.40127768 -3.775354504 -2.990299173e-20)
(98.1951233 -2.949965329 4.534190787e-20)
(97.80215091 -2.037800053 1.097154882e-20)
(97.63784083 -1.412427376 1.872482829e-20)
(97.53259287 -0.8326232904 -2.127198949e-20)
(97.47627887 -0.274475895 0)
(103.2919924 -0.2463245348 0)
(103.275619 -0.7469249646 0)
(103.2475285 -1.26072926 0)
(103.193495 -1.799579583 0)
(103.0095046 -2.275710713 0)
(102.9177688 -2.902264865 0)
(102.839875 -3.596814679 0)
(102.6413223 -4.317651906 1.416427629e-19)
(102.3859251 -5.132688553 0)
(102.06469 -5.964924171 -2.202883799e-18)
(101.8561293 -6.828744951 1.773050506e-18)
(94.45292023 -6.79882489 -1.570324119e-19)
(99.48804202 -8.174863167 4.732611973e-19)
(99.26997258 -8.124860794 -2.067850628e-19)
(98.96659587 -7.473347725 4.542904816e-20)
(98.6205928 -6.505129801 9.669399877e-20)
(98.27115404 -5.507561414 -5.486712609e-21)
(97.95712095 -4.582365583 0)
(97.61945513 -3.604098134 0)
(97.49468785 -2.857806818 0)
(97.19574536 -1.984877235 3.80552434e-20)
(97.07586303 -1.387733525 -3.560286386e-20)
(96.99765765 -0.8193461968 -2.403804773e-21)
(96.9549916 -0.270493289 2.411896659e-21)
(103.7536394 -0.2386276952 0)
(103.7466527 -0.7225465459 0)
(103.7363493 -1.218006664 0)
(103.7098728 -1.726446996 0)
(103.5630877 -2.183913709 0)
(103.5211179 -2.760875112 0)
(103.4933494 -3.378274581 0)
(103.3496936 -4.013883978 0)
(103.1389422 -4.716265814 -2.436354143e-19)
(102.8073008 -5.397192653 3.517225338e-19)
(102.5480503 -6.053998001 -2.465277712e-21)
(94.83092318 -6.136829603 -4.675674591e-19)
(99.59051531 -6.825389241 7.473396424e-21)
(98.92358032 -6.731916415 1.942997887e-19)
(98.32363247 -6.28838419 0)
(97.85356149 -5.648499162 1.030489713e-20)
(97.48062141 -4.929625126 0)
(97.20030389 -4.196837377 0)
(96.93470434 -3.364228293 0)
(96.85654376 -2.703420274 0)
(96.62569146 -1.890400573 0)
(96.53850009 -1.332506004 0)
(96.48086656 -0.7892046013 0)
(96.44843452 -0.2615809631 0)
(104.1964104 -0.2274402465 0)
(104.1965693 -0.6873430027 0)
(104.1990812 -1.157188692 0)
(104.1923123 -1.629006976 0)
(104.0737051 -2.059037529 0)
(104.0632271 -2.580775279 0)
(104.0614712 -3.122257091 0)
(103.9411645 -3.669745353 0)
(103.7342865 -4.239996 0)
(103.3663815 -4.785649455 -3.562589172e-21)
(102.4319338 -5.22891687 -1.616171368e-20)
(97.08883891 -5.53904184 -1.654941037e-19)
(99.54841865 -5.763960849 3.375846218e-22)
(98.64250013 -5.666916579 3.049768924e-20)
(97.8802067 -5.368274502 0)
(97.29980327 -4.918364706 0)
(96.87122074 -4.375219582 0)
(96.58357162 -3.792238529 0)
(96.34577943 -3.089743725 0)
(96.28773405 -2.513529066 0)
(96.10010447 -1.770076426 0)
(96.03431867 -1.257001892 0)
(95.9902936 -0.7463603726 0)
(95.96581012 -0.2479595 0)
(104.6146371 -0.2138327377 0)
(104.6197907 -0.6447333906 0)
(104.630496 -1.084147328 0)
(104.6362535 -1.516573307 0)
(104.537543 -1.914087218 0)
(104.5433191 -2.379829499 0)
(104.548865 -2.853151275 0)
(104.4314217 -3.317434404 0)
(104.2050774 -3.779756066 0)
(103.7996758 -4.205283041 0)
(102.499289 -4.499604406 0)
(97.95197924 -4.788565763 0)
(99.5539551 -4.910529065 0)
(98.47411781 -4.838440642 0)
(97.57176737 -4.620094334 0)
(96.88665291 -4.284671746 0)
(96.39557176 -3.865647246 0)
(96.07933952 -3.396853518 0)
(95.84334665 -2.805082563 0)
(95.78637664 -2.307130677 0)
(95.62244603 -1.636100129 0)
(95.56859402 -1.169502671 0)
(95.53222043 -0.6959367896 0)
(95.5126464 -0.2316514271 0)
(105.0046947 -0.198779441 0)
(105.0129192 -0.5978122745 0)
(105.0277912 -1.004097428 0)
(105.0399066 -1.396774282 0)
(104.9543986 -1.759623677 0)
(104.9646762 -2.172037945 0)
(104.9636755 -2.584805922 0)
(104.8375566 -2.975873963 0)
(104.5804079 -3.352654495 0)
(104.1295422 -3.68821862 0)
(102.5635885 -3.902611746 0)
(98.41166267 -4.156351044 0)
(99.55935302 -4.219133673 -2.848801645e-35)
(98.35120486 -4.161235002 0)
(97.34116243 -3.99512396 0)
(96.5701001 -3.737687061 0)
(96.0188251 -3.408105943 0)
(95.66485057 -3.027047104 0)
(95.41521489 -2.527048537 0)
(95.34702057 -2.097960622 0)
(95.19250428 -1.497473259 0)
(95.14309056 -1.0765016 0)
(95.10958938 -0.6418350048 0)
(95.09260952 -0.2140647133 0)
(105.3646905 -0.183094593 0)
(105.3743927 -0.5491595937 0)
(105.3902062 -0.9213852332 0)
(105.4037118 -1.275418794 0)
(105.3263247 -1.603596541 0)
(105.3326539 -1.967120714 0)
(105.315898 -2.325524351 0)
(105.1748969 -2.655527067 0)
(104.8829418 -2.964813431 0)
(104.3859689 -3.233709236 0)
(102.6145045 -3.396003579 0)
(98.72627771 -3.621564754 0)
(99.55430426 -3.649211907 0)
(98.25489635 -3.59968831 0)
(97.16302114 -3.468942563 0)
(96.32198052 -3.266369819 0)
(95.71607495 -3.002590428 0)
(95.32238445 -2.690223756 0)
(95.04931349 -2.265667783 0)
(94.9628987 -1.895155575 0)
(94.80789303 -1.360581588 0)
(94.75736225 -0.9828920089 0)
(94.72318347 -0.5870099746 0)
(94.70697886 -0.1961790348 0)
(105.6941688 -0.1674111967 0)
(105.7040978 -0.5007539417 0)
(105.7184586 -0.839347486 0)
(105.7296427 -1.15681304 0)
(105.6564177 -1.451654008 0)
(105.6532735 -1.771244349 0)
(105.6158944 -2.080844261 0)
(105.4560326 -2.361334998 0)
(105.1296426 -2.617222477 0)
(104.5893524 -2.835978186 0)
(102.6616777 -2.962285724 0)
(98.94428037 -3.166416222 0)
(99.54217871 -3.172165328 -3.764197194e-35)
(98.17684497 -3.128579886 0)
(97.02169318 -3.022994567 0)
(96.12365364 -2.860236591 0)
(95.46948893 -2.645828417 0)
(95.0371934 -2.387047253 0)
(94.73570581 -2.025071044 0)
(94.62712863 -1.704196393 0)
(94.46506757 -1.229750622 0)
(94.40957635 -0.892110496 0)
(94.37225992 -0.5335590103 0)
(94.3554791 -0.17868146 0)
(105.9937751 -0.1521990685 0)
(106.0029827 -0.4540275627 0)
(106.0142062 -0.760369963 0)
(106.0204737 -1.043961788 0)
(105.9484828 -1.307562972 0)
(105.932404 -1.588028018 0)
(105.8723827 -1.855314097 0)
(105.6916168 -2.094790225 0)
(105.3331357 -2.308306037 0)
(104.7531571 -2.488610552 0)
(102.7104348 -2.589749638 0)
(99.09483837 -2.777283825 0)
(99.52544957 -2.768879099 0)
(98.11214677 -2.729946437 0)
(96.90718218 -2.643063324 0)
(95.96244365 -2.510061612 0)
(95.26613212 -2.333436061 0)
(94.79753584 -2.116917597 0)
(94.46607338 -1.806883208 0)
(94.3333347 -1.528123014 0)
(94.16005078 -1.107691077 0)
(94.097111 -0.806408826 0)
(94.05504715 -0.4828879849 0)
(94.03672554 -0.1620378148 0)
(106.2649077 -0.1377935281 0)
(106.2726985 -0.4099754154 0)
(106.2796566 -0.6860760645 0)
(106.2793006 -0.9388347498 0)
(106.2064339 -1.173700634 0)
(106.1754567 -1.419670807 0)
(106.0921366 -1.650754347 0)
(105.8902207 -1.855925757 0)
(105.5028292 -2.035537641 0)
(104.886835 -2.185808489 0)
(102.7629689 -2.269175097 0)
(99.19778242 -2.443701241 0)
(99.5057578 -2.425877884 1.257038362e-35)
(98.05768864 -2.390770851 0)
(96.8128872 -2.318274308 0)
(95.82956526 -2.208100189 0)
(95.09660252 -2.060929004 0)
(94.59450656 -1.878158706 0)
(94.23320194 -1.611362937 0)
(94.07578546 -1.368332811 0)
(93.88882136 -0.9959154748 0)
(93.81694603 -0.7271603805 0)
(93.76915727 -0.4358837825 0)
(93.74863593 -0.1465479725 0)
(106.5094552 -0.1244212712 0)
(106.5153421 -0.3692518406 0)
(106.5173335 -0.6175052362 0)
(106.5093191 -0.8426001311 0)
(106.4341301 -1.051393239 0)
(106.3873458 -1.267195843 0)
(106.2810111 -1.46744652 0)
(106.0586579 -1.643779471 0)
(105.645749 -1.796031751 0)
(104.9972614 -1.922447044 0)
(102.8197342 -1.993130796 0)
(99.2670096 -2.15740139 0)
(99.48414077 -2.133213716 0)
(98.01132164 -2.101296544 0)
(96.73424984 -2.040150136 0)
(95.71875129 -1.947873222 0)
(94.95391651 -1.824038836 0)
(94.4212342 -1.668527577 0)
(94.03111696 -1.437868479 0)
(93.84940895 -1.225151537 0)
(93.64748968 -0.8950972021 0)
(93.5659035 -0.6551035478 0)
(93.51187344 -0.3930485153 0)
(93.48873003 -0.1323871408 0)
(106.7296249 -0.11222205 0)
(106.7332852 -0.3322456126 0)
(106.7299286 -0.5552562203 0)
(106.7137119 -0.7558501225 0)
(106.6351963 -0.9412645681 0)
(106.5723963 -1.130857415 0)
(106.443898 -1.304921031 0)
(106.202349 -1.456944276 0)
(105.7671536 -1.586965126 0)
(105.0895411 -1.694243539 0)
(102.8801639 -1.755665533 0)
(99.31242786 -1.911874824 0)
(99.46124068 -1.883351007 0)
(97.97147066 -1.854086876 0)
(96.66800682 -1.802051558 0)
(95.62542861 -1.724040676 0)
(94.83281009 -1.618934491 0)
(94.27235426 -1.48563728 0)
(93.85489563 -1.285296656 0)
(93.64979834 -1.098279002 0)
(93.43237983 -0.8053579797 0)
(93.34079305 -0.5905299476 0)
(93.28032736 -0.3546045722 0)
(93.2543147 -0.119638569 0)
(106.9278191 -0.1012699527 0)
(106.9290527 -0.2991478473 0)
(106.9201936 -0.4996053822 0)
(106.8955723 -0.6787723049 0)
(106.8130495 -0.8434236692 0)
(106.7344687 -1.010393039 0)
(106.5849686 -1.162281139 0)
(106.3257037 -1.293804945 0)
(105.8711148 -1.405677411 0)
(105.1675574 -1.497503818 0)
(102.9431902 -1.551925048 0)
(99.34106446 -1.701870514 0)
(99.43744259 -1.670372237 0)
(97.93691822 -1.643304843 0)
(96.61171718 -1.5986645 0)
(95.54614207 -1.532157499 0)
(94.72919975 -1.442217938 0)
(94.14356936 -1.327132429 0)
(93.70039864 -1.152289347 0)
(93.47306713 -0.9870232633 0)
(93.24006572 -0.7264661702 0)
(93.13850248 -0.5334299069 0)
(93.07161631 -0.3205824598 0)
(93.04260929 -0.1083217223 0)
(107.1064947 -0.09159445825 0)
(107.1051891 -0.2700166063 0)
(107.0908246 -0.4506157416 0)
(107.0578229 -0.6113078125 0)
(106.9708292 -0.7576862432 0)
(106.8769659 -0.9052720111 0)
(106.7077599 -1.038455566 0)
(106.4323323 -1.152734642 0)
(105.9608335 -1.249756281 0)
(105.234232 -1.329013707 0)
(103.007629 -1.378006722 0)
(99.35813773 -1.523056691 0)
(99.41301878 -1.489618167 0)
(97.90669692 -1.464359963 0)
(96.56349978 -1.425746702 0)
(95.47821999 -1.368572009 0)
(94.63986336 -1.290970417 0)
(94.03139433 -1.190839677 0)
(93.56414996 -1.037443415 0)
(93.31582073 -0.8905220938 0)
(93.06741356 -0.6580048991 0)
(92.95608623 -0.4836147679 0)
(92.88292068 -0.2908960055 0)
(92.85087622 -0.09841687761 0)
(107.2681653 -0.0831939598 0)
(107.2642626 -0.2448205425 0)
(107.2444798 -0.4082109052 0)
(107.2032652 -0.5532361611 0)
(107.1114258 -0.6837006937 0)
(107.0029184 -0.8148430028 0)
(106.815218 -0.9322124163 0)
(106.5252619 -1.032181314 0)
(106.0388834 -1.11704851 0)
(105.2918039 -1.186053058 0)
(103.0724427 -1.230790438 0)
(99.36778265 -1.371978245 0)
(99.38814668 -1.337395003 0)
(97.87999769 -1.313574575 0)
(96.52184284 -1.279855074 0)
(95.41952352 -1.230253739 0)
(94.56218043 -1.162693567 0)
(93.93287923 -1.074804106 0)
(93.44319062 -0.9394229218 0)
(93.1750595 -0.8078634699 0)
(92.91150421 -0.5994542147 0)
(92.79072976 -0.4407936403 0)
(92.71148841 -0.2653891549 0)
(92.67640949 -0.08987966857 0)
(107.4151227 -0.07605375699 0)
(107.4086135 -0.2234859015 0)
(107.3835546 -0.3722336751 0)
(107.3343819 -0.5043126475 0)
(107.2374884 -0.6210279869 0)
(107.1150618 -0.738416362 0)
(106.9099426 -0.8420882861 0)
(106.6069522 -0.9308063178 0)
(106.1073737 -1.005690796 0)
(105.3420879 -1.066369557 0)
(103.1368204 -1.107766739 0)
(99.3732077 -1.245871305 0)
(99.36289739 -1.21073628 -1.742654277e-36)
(97.8561156 -1.187989554 0)
(96.48549522 -1.158194181 0)
(95.36830215 -1.114699809 0)
(94.49400835 -1.055284425 0)
(93.84565157 -0.9776456246 0)
(93.33484913 -0.8571796528 0)
(93.04810164 -0.7381362257 0)
(92.76980628 -0.55032012 0)
(92.63994681 -0.4046321581 0)
(92.55486252 -0.2438834779 0)
(92.51679261 -0.08265944269 0)
(107.5502676 -0.07013501297 0)
(107.5411168 -0.2058902765 0)
(107.5109007 -0.3424775455 0)
(107.4540356 -0.4641125662 0)
(107.3514984 -0.5692121704 0)
(107.2158727 -0.6752097774 0)
(106.9946785 -0.7674115831 0)
(106.6794104 -0.847239157 0)
(106.1680757 -0.9140499682 0)
(105.3865585 -0.9680262967 0)
(103.200196 -1.006771007 0)
(99.37699353 -1.142357084 0)
(99.33730569 -1.107214406 0)
(97.83442709 -1.085219416 0)
(96.4533925 -1.058500332 0)
(95.32308194 -1.019848875 0)
(94.43355326 -0.9669323669 0)
(93.76785378 -0.897713162 0)
(93.2367053 -0.7895794524 0)
(92.93253253 -0.6805072979 0)
(92.63945375 -0.5099776159 0)
(92.50086303 -0.3747835397 0)
(92.4101232 -0.2261700085 0)
(92.3690664 -0.07668703869 0)
(107.6739198 -0.06545016163 0)
(107.6622394 -0.1920067106 0)
(107.6270675 -0.3187804343 0)
(107.5628397 -0.4327621991 0)
(107.4557362 -0.5277050614 0)
(107.3075629 -0.624477447 0)
(107.0717986 -0.7083380004 0)
(106.744525 -0.7801424437 0)
(106.2225606 -0.8407210465 0)
(105.4264415 -0.8894280735 0)
(103.2621665 -0.9261016033 0)
(99.38132594 -1.059535404 0)
(99.31141733 -1.024860469 0)
(97.81437665 -1.003335733 0)
(96.42459816 -0.9789386702 0)
(95.28256494 -0.9440105337 0)
(94.3791732 -0.8961066337 0)
(93.69739363 -0.833047742 0)
(93.14693311 -0.7351830105 0)
(92.82609597 -0.6340239509 0)
(92.51990817 -0.4784109376 0)
(92.37296048 -0.3509631425 0)
(92.27681413 -0.2121560342 0)
(92.23292989 -0.07195489472 0)
(107.7957418 -0.06183312287 0)
(107.781174 -0.1814980488 0)
(107.7408728 -0.3008183063 0)
(107.6686868 -0.4080702012 0)
(107.5528928 -0.4962525796 0)
(107.3920626 -0.5859963888 0)
(107.1424493 -0.6640890741 0)
(106.8041755 -0.7287569506 0)
(106.2722485 -0.7846161419 0)
(105.4628234 -0.8293469755 0)
(103.3224557 -0.8644854588 0)
(99.38793129 -0.9959721309 0)
(99.28526624 -0.9621643857 0)
(97.79546468 -0.9408381335 0)
(96.39827633 -0.9180749282 0)
(95.24559886 -0.8858629985 0)
(94.32940288 -0.8416664497 0)
(93.63242311 -0.7832307568 0)
(93.06378986 -0.693354017 0)
(92.72695204 -0.5988183444 0)
(92.40314192 -0.4531844465 0)
(92.24727176 -0.3327640706 0)
(92.14556468 -0.2014343974 0)
(92.09846594 -0.06826378803 0)
(107.889121 -0.05975088203 0)
(107.872669 -0.1751914413 0)
(107.8284037 -0.2895881316 0)
(107.7510264 -0.3951270587 0)
(107.6427154 -0.4741208676 0)
(107.4710517 -0.5590841871 0)
(107.2082669 -0.6335925641 0)
(106.8597506 -0.6923840295 0)
(106.3183959 -0.7448725846 0)
(105.4967056 -0.786806555 0)
(103.3809366 -0.8209505035 0)
(99.39822191 -0.9505419107 0)
(99.25885771 -0.9179831212 0)
(97.77722117 -0.8965886177 0)
(96.37365606 -0.8748112266 0)
(95.21114046 -0.8443849507 0)
(94.28296319 -0.8027049547 0)
(93.57159824 -0.7474751513 0)
(92.98560174 -0.6635556618 0)
(92.63361788 -0.5739268599 0)
(92.31118225 -0.4395919191 0)
(92.14923117 -0.3211957359 0)
(92.04323334 -0.194901315 0)
(91.9941042 -0.06613591575 0)
(108.0643422 -0.05754629908 0)
(108.0439194 -0.1696794542 0)
(107.9920861 -0.2802251399 0)
(107.9012674 -0.3799271099 0)
(107.7255568 -0.4619964605 0)
(107.5425554 -0.5439084647 0)
(107.2681293 -0.6169563538 0)
(106.9125213 -0.6704147156 0)
(106.3621009 -0.7207719942 0)
(105.5290157 -0.7610225121 0)
(103.437538 -0.7947982053 0)
(99.41329351 -0.9225941697 0)
(99.23224884 -0.8914780269 0)