/*--------------------------------*- C++ -*----------------------------------*\
| =========                 |                                                 |
| \\      /  F ield         | OpenFOAM: The Open Source CFD Toolbox           |
|  \\    /   O peration     | Version:  v1912                                 |
|   \\  /    A nd           | Website:  www.openfoam.com                      |
|    \\/     M anipulation  |                                                 |
\*---------------------------------------------------------------------------*/
FoamFile
{
    version     2.0;
    format      ascii;
    class       volScalarField;
    location    "1300";
    object      nut;
}
// * * * * * * * * * * * * * * * * * * * * * * * * * * * * * * * * * * * * * //

dimensions      [0 2 -1 0 0 0 0];


internalField   nonuniform List<scalar> 
12556
(
1.15562
1.15558
1.15553
1.15552
1.15589
1.15591
1.15593
1.15597
1.15603
1.15615
1.15633
1.15652
1.15666
1.15667
1.15656
1.15638
1.15621
1.15608
1.15599
1.15595
1.15555
1.15554
1.15558
1.15562
1.15486
1.15476
1.15466
1.15463
1.15492
1.15501
1.1551
1.15537
1.15557
1.15592
1.15642
1.15699
1.15741
1.15748
1.15719
1.15668
1.15616
1.15576
1.15533
1.15513
1.15473
1.1547
1.15478
1.15487
1.15407
1.15391
1.15377
1.15375
1.15399
1.15414
1.15435
1.1547
1.15521
1.15604
1.15721
1.12999
1.03491
1.03179
1.11091
1.15772
1.15656
1.15562
1.15488
1.15443
1.15396
1.15388
1.15397
1.15411
1.15326
1.15305
1.15288
1.15287
1.15309
1.15333
1.15372
1.15428
1.15536
1.15709
0.960789
0.780836
0.705482
0.716294
0.797515
0.9482
1.15788
1.15609
1.15477
1.15392
1.15327
1.1531
1.15317
1.15335
1.15244
1.15218
1.152
1.15201
1.15225
1.15262
1.15327
1.15423
1.15629
0.933957
0.656684
0.490231
0.420434
0.440931
0.528789
0.670314
0.882485
1.15748
1.15519
1.15368
1.15267
1.15235
1.15238
1.15257
1.15162
1.15132
1.15113
1.15118
1.15147
1.15202
1.15309
1.1547
1.09342
0.712874
0.449017
0.278425
0.208388
0.239874
0.333802
0.471243
0.66292
0.947055
1.15625
1.15377
1.1522
1.15164
1.15158
1.15177
1.1508
1.15047
1.15029
1.1504
1.15076
1.15156
1.15319
1.15569
0.947446
0.588653
0.330834
0.142312
0.0743523
0.11448
0.211726
0.342301
0.518162
0.77031
1.15316
1.15425
1.15187
1.15098
1.15078
1.15095
1.15
1.14966
1.14949
1.14968
1.15014
1.15125
1.15356
1.15701
0.887546
0.567353
0.329094
0.125513
0.0625482
0.154585
0.272077
0.432409
0.658997
1.02769
1.15507
1.15168
1.1504
1.15002
1.15014
1.14925
1.14889
1.14876
1.14905
1.14963
1.15111
1.15417
1.15846
0.895657
0.633296
0.476504
0.372047
0.0708175
0.14526
0.247089
0.392366
0.597969
0.946248
1.15616
1.15166
1.14991
1.14931
1.14937
1.14855
1.14819
1.1481
1.1485
1.14924
1.15112
1.15493
1.15992
0.932573
0.722709
0.658966
0.707095
0.0959897
0.160069
0.252302
0.38657
0.576731
0.90533
1.1574
1.1518
1.14955
1.14872
1.1487
1.14793
1.14756
1.14752
1.14805
1.14897
1.15128
1.1558
1.16138
0.965736
0.777625
0.738067
0.605706
0.129768
0.189512
0.278492
0.407166
0.587225
0.899258
1.1587
1.15211
1.14936
1.14828
1.14818
1.14737
1.14701
1.14703
1.1477
1.1488
1.15156
1.15674
1.16283
0.985102
0.784042
0.698126
0.49888
0.165246
0.232018
0.324213
0.452268
0.626615
0.923915
1.16
1.15256
1.14933
1.14802
1.14784
1.14689
1.14654
1.14663
1.14745
1.14874
1.15194
1.15773
1.16426
1.00372
0.77337
0.615277
0.419075
0.0423427
0.212279
0.296462
0.39702
0.526108
0.696713
0.978678
1.16122
1.15308
1.14944
1.14792
1.14767
1.14647
1.14613
1.14628
1.14725
1.1488
1.15248
1.15887
1.16574
1.04621
0.794053
0.577652
0.217142
0.0976994
0.314624
0.411414
0.513552
0.638163
0.802489
1.06652
1.1623
1.15362
1.14964
1.14795
1.14764
1.14611
1.14577
1.14598
1.14709
1.14885
1.15291
1.15978
1.16688
1.15511
0.897491
0.676695
0.0425717
0.147375
0.504019
0.626327
0.698762
0.801714
0.950834
1.16716
1.16317
1.15412
1.14988
1.14806
1.14771
1.14578
1.14544
1.1457
1.14693
1.1489
1.15329
1.16054
1.16774
1.16681
1.10645
0.756552
0.032457
0.16417
0.521054
0.81403
0.980044
1.03038
1.15531
1.16803
1.16379
1.15453
1.15012
1.1482
1.14782
1.14547
1.14513
1.14543
1.14676
1.14891
1.15359
1.16112
1.16825
1.16599
1.10828
0.629163
0.0293042
0.177807
0.532744
0.822755
1.0164
1.11503
1.15657
1.16842
1.16413
1.15482
1.15031
1.14833
1.14795
1.14518
1.14483
1.14515
1.14657
1.14888
1.15379
1.1615
1.1684
1.16414
1.08508
0.518721
0.0283406
0.189161
0.539407
0.82861
1.01879
1.11599
1.15701
1.16841
1.16419
1.15496
1.15043
1.14842
1.14804
1.14489
1.14453
1.14485
1.14633
1.14878
1.15387
1.16167
1.16821
1.1612
1.05615
0.436779
0.028423
0.198758
0.541965
0.832419
1.01993
1.11611
1.15687
1.16809
1.16404
1.15498
1.15047
1.14846
1.14808
1.14459
1.14422
1.14454
1.14606
1.14861
1.15385
1.16167
1.16772
1.15714
1.02277
0.38199
0.0291145
0.206974
0.542845
0.834206
1.0202
1.11568
1.15632
1.16753
1.16371
1.15489
1.15045
1.14845
1.14806
1.14429
1.14392
1.14423
1.14577
1.14839
1.15374
1.16152
1.16696
1.15194
0.985418
0.34538
0.0302016
0.214088
0.543228
0.833561
1.01975
1.11485
1.1555
1.1668
1.16325
1.15473
1.15036
1.14838
1.14799
1.14399
1.14361
1.14392
1.14547
1.14814
1.15354
1.16123
1.16595
1.14558
0.943327
0.31919
0.0315625
0.220309
0.543324
0.830866
1.0185
1.11371
1.15448
1.16597
1.16271
1.15451
1.15022
1.14825
1.14786
1.14367
1.1433
1.1436
1.14517
1.14786
1.1533
1.16084
1.16469
1.13793
0.898511
0.299713
0.0331207
0.2258
0.543158
0.827093
1.01631
1.11228
1.15331
1.16507
1.16213
1.15425
1.15004
1.14809
1.14768
1.14335
1.14299
1.14329
1.14487
1.14759
1.15304
1.16038
1.16319
1.12856
0.85656
0.284927
0.0348258
0.23069
0.542757
0.822919
1.01322
1.1105
1.15201
1.16412
1.16151
1.15396
1.14984
1.14789
1.14746
1.14301
1.14267
1.14299
1.14458
1.14732
1.15276
1.15985
1.16139
1.11697
0.820344
0.273566
0.0366429
0.235082
0.54216
0.818635
1.00947
1.10839
1.15058
1.16315
1.16088
1.15365
1.1496
1.14766
1.14721
1.14268
1.14236
1.14269
1.1443
1.14706
1.15248
1.15925
1.15919
1.10311
0.789603
0.264775
0.0385485
0.239062
0.541411
0.814346
1.00531
1.10597
1.14904
1.16215
1.16025
1.15333
1.14935
1.14741
1.14693
1.14233
1.14204
1.14239
1.14403
1.1468
1.15219
1.15857
1.1565
1.08762
0.763317
0.257949
0.040527
0.242701
0.540551
0.810093
1.00092
1.1033
1.1474
1.16115
1.15962
1.153
1.14909
1.14715
1.14664
1.14198
1.14172
1.14209
1.14376
1.14655
1.1519
1.1578
1.15321
1.07135
0.740587
0.252651
0.0425683
0.246058
0.539621
0.805901
0.996404
1.10044
1.14567
1.16013
1.15898
1.15266
1.14882
1.14687
1.14633
1.14164
1.1414
1.1418
1.1435
1.14631
1.1516
1.15689
1.14929
1.05498
0.720737
0.248552
0.0446666
0.249185
0.538654
0.801789
0.991846
1.09742
1.14388
1.15911
1.15836
1.15232
1.14854
1.14658
1.14601
1.14129
1.14108
1.14151
1.14324
1.14607
1.15128
1.15584
1.14475
1.03893
0.703253
0.245401
0.0468196
0.252126
0.537682
0.797774
0.987294
1.0943
1.14202
1.15808
1.15773
1.15198
1.14826
1.14628
1.14568
1.14094
1.14077
1.14122
1.14299
1.14584
1.15093
1.15461
1.13965
1.02343
0.687734
0.243004
0.0490277
0.254917
0.536732
0.793871
0.98278
1.09111
1.14013
1.15704
1.15711
1.15164
1.14797
1.14598
1.14535
1.14059
1.14045
1.14094
1.14275
1.1456
1.15056
1.15319
1.13408
1.00859
0.673862
0.241204
0.0512931
0.257595
0.535827
0.790095
0.978331
1.08787
1.13819
1.15601
1.15649
1.1513
1.14768
1.14568
1.14501
1.14025
1.14014
1.14067
1.14251
1.14537
1.15014
1.15156
1.12811
0.994421
0.661376
0.239875
0.0536202
0.26019
0.534991
0.78646
0.973966
1.08461
1.13623
1.15496
1.15588
1.15096
1.1474
1.14539
1.14468
1.1399
1.13983
1.14039
1.14227
1.14513
1.14969
1.14972
1.12185
0.980931
0.650061
0.238913
0.056014
0.262728
0.534242
0.78298
0.969703
1.08135
1.13424
1.15392
1.15527
1.15063
1.14711
1.14509
1.14435
1.13958
1.13954
1.14014
1.14205
1.14489
1.14919
1.14767
1.11536
0.968081
0.639735
0.238233
0.0584813
0.265238
0.533598
0.779668
0.965557
1.0781
1.13224
1.15287
1.15467
1.1503
1.14685
1.14481
1.14405
1.1393
1.13928
1.13992
1.14186
1.14466
1.14864
1.14544
1.10872
0.955832
0.630244
0.237759
0.06103
0.267743
0.533078
0.776537
0.961543
1.07488
1.13023
1.15184
1.15409
1.15003
1.14662
1.14457
1.14378
0.313558
0.0625491
0.0535922
0.718524
0.0870589
0.0654399
0.618838
0.121655
0.0910508
0.512387
0.153383
0.127167
0.42624
0.0325433
0.0397953
0.189663
0.157386
0.261906
0.0645453
0.0339943
0.0929189
0.254172
0.192312
0.120582
0.0763364
0.0556118
0.1075
0.0326932
0.023191
0.0684668
0.122971
0.130302
0.618863
0.798828
0.385906
0.0409804
0.0529735
0.0922796
0.136646
0.124511
0.732112
0.728728
0.804803
0.670445
0.204783
0.244718
0.0604119
0.0465468
0.125422
0.164801
0.142637
0.712365
0.629746
0.716975
0.565963
0.114282
0.161024
0.0973981
0.076884
0.632591
0.527253
0.616614
0.476968
0.0581378
0.0819818
0.0183034
0.138298
0.130608
0.575691
0.350265
0.513637
0.368495
0.0254669
0.0373849
0.0827958
0.0859305
0.0680351
0.0967347
0.28785
0.0437806
0.0857279
0.0515368
0.034223
0.0555835
0.0356443
0.0504324
0.250547
0.295794
0.724516
0.216999
0.189266
0.277565
0.223143
0.0461488
0.0409648
0.0766964
0.052989
0.0581547
0.0516466
0.0530101
0.0751949
0.165419
0.199152
0.657731
0.145162
0.116372
0.186591
0.147916
0.0743587
0.0618653
0.108657
0.0811081
0.0981173
0.0587038
0.079156
0.104009
0.0832921
0.112424
0.552633
0.0868143
0.0613873
0.11474
0.0880738
0.126524
0.10071
0.0378179
0.0568483
0.473002
0.0163968
0.0401812
0.0269158
0.0606232
0.0409634
0.0158677
0.143386
0.139918
0.0190764
0.00517866
0.0253621
0.361221
0.0490702
0.0186334
0.00912263
0.0267964
0.0190029
0.0467559
0.429462
0.332311
0.14792
0.169071
0.0964624
0.0522657
0.0126619
0.010524
0.619601
0.303313
0.365434
0.0139953
0.1585
0.201683
0.17331
0.0136341
0.0507745
0.0457486
0.0613984
0.158089
0.146204
0.294473
0.108637
0.194522
0.0410576
0.0162409
0.0287683
0.0265613
0.0339873
0.054192
0.0436805
0.0302759
0.141973
0.126626
0.13591
0.1009
0.123079
0.138748
0.0225422
0.014716
0.0377927
0.0294925
0.0526684
0.0423767
0.023458
0.0374142
0.0281387
0.0109041
0.0265642
0.0219395
0.0123512
0.0197184
0.0250256
0.0493485
0.0499719
0.0527097
0.0518574
0.0196783
0.0146087
0.0881381
0.0187887
0.0260579
0.0139614
0.0178462
0.0852423
0.0724997
0.241588
0.224565
0.0634854
0.0538051
0.01436
0.0345992
0.156712
0.142487
0.177285
0.161913
0.0352325
0.0524972
0.0420901
0.147271
0.0649114
0.076625
0.041141
0.0640742
0.169489
0.0537927
0.0303061
0.0189177
0.0689599
0.0336436
0.0597297
0.0318402
0.0629797
0.0428019
0.0420718
0.208461
0.0285041
0.20715
0.251161
0.0333841
0.0398564
0.0289379
0.0326743
0.243501
0.0442228
0.0439888
0.055147
0.0724491
0.0678682
0.0790351
0.0742546
0.055431
0.0604229
0.0605394
0.0555272
0.0661576
0.0618687
0.0596692
0.130203
0.128352
0.168916
0.16657
0.0731319
0.0138762
0.0716582
0.0778383
0.0757077
0.0994478
0.0977022
0.0272778
0.0383865
0.111168
0.028795
0.0205247
0.0507791
0.198225
0.182451
0.219113
0.203406
0.0516175
0.0215112
0.0379745
0.0375542
0.0557084
0.054958
0.00760561
0.0265741
0.077594
0.0668883
0.138307
0.112798
0.0118042
0.007312
0.0215158
0.0169869
0.02604
0.0115277
0.0164943
0.0135974
0.0257242
0.039986
0.0150978
0.0186403
0.00500094
0.01909
0.0170973
0.633689
0.238241
0.335722
0.146488
0.00835208
0.00557796
0.142398
0.415618
0.286648
0.00683822
0.0164745
0.0148672
0.0929613
0.0813256
0.0279742
0.198919
0.16465
0.0642538
0.011937
0.0209023
0.0163044
0.0105512
0.0156505
0.0111951
0.0426716
0.0275262
0.0254233
0.0516824
0.0563364
0.0224211
0.0258524
0.0166228
0.0163613
0.0482646
0.131717
0.336053
0.317484
0.36196
0.342423
0.136036
0.264484
0.247302
0.0736689
0.0265686
0.0698512
0.0652004
0.0096504
0.0146363
0.0717673
0.0482414
0.0301795
0.0282208
0.041695
0.0478353
0.0436097
0.0540082
0.0492784
0.0431776
0.0451744
0.0179881
0.0168546
0.0419501
0.179007
0.388766
0.368573
0.0505985
0.0518779
0.121317
0.0267328
0.0287457
0.0659696
0.0877797
0.107808
0.0998622
0.0645053
0.0870041
0.081045
0.0968007
0.0894381
0.0654762
0.0981479
0.287773
0.270255
0.311452
0.29367
0.100312
0.0831824
0.0317587
0.0323142
0.0210388
0.022049
0.0647143
0.108859
0.0463632
0.0501053
0.0324907
0.03292
0.0919907
0.114865
0.0402214
0.0571022
0.00745573
0.0181881
0.039085
0.0297253
0.058487
0.0200244
0.0207622
0.0181147
0.0484101
0.0144033
0.00425759
0.0778695
0.0541702
0.0638958
0.0599559
0.0249071
0.0193143
0.0254627
0.0559039
0.0177503
0.00999185
0.0213582
0.0219514
0.00298374
0.0266258
0.0199621
0.0149577
0.00737367
0.0137813
0.013547
0.0136068
0.0230458
0.0199607
0.00769094
0.0380402
0.0369345
0.0191298
0.0128508
0.00867963
0.0135155
0.0210115
0.014929
0.016764
0.0351282
0.0143716
0.0128177
0.0146545
0.0159856
0.0267644
0.0144558
0.0113181
0.0160615
0.0147665
0.0115477
0.01839
0.0165781
0.0214408
0.0190893
0.0137981
0.0177013
0.0251684
0.0216896
0.0323018
0.0267353
0.0209156
0.0186413
0.0152996
0.0226031
0.0205239
0.0444683
0.0512431
0.0248042
0.0231947
0.0208292
0.0217486
0.0553414
0.015141
0.0160581
0.0178899
0.0152299
0.0166314
0.0491003
0.0172113
0.0204584
0.0171148
0.0163874
0.0215328
0.0522543
0.0461775
0.0156429
0.0379478
0.0336688
0.0440331
0.0394259
0.0161175
0.0156538
0.0282421
0.0242399
0.0781646
0.0716583
0.0282049
0.0362865
0.0849157
0.0799409
0.0475265
0.0459389
0.0668718
0.111894
0.156644
0.08023
0.102149
0.0675716
0.0531579
0.139577
0.12191
0.158893
0.145843
0.0586684
0.0478303
0.0588051
0.0732082
0.0423323
0.0483979
0.0369391
0.0339885
0.0471357
0.0275099
0.0301866
0.0259098
0.0376155
0.0334301
0.0309219
0.0360774
0.0386232
0.0390747
0.0373416
0.0270476
0.0868854
0.0704235
0.0952905
0.0902449
0.0274468
0.064376
0.0629133
0.0676779
0.0648829
0.0356474
0.11137
0.106982
0.118798
0.112948
0.0366088
0.0304408
0.10032
0.0965511
0.105584
0.101591
0.0308843
0.0198853
0.018405
0.0449049
0.0426019
0.0214893
0.0205255
0.0373401
0.0368941
0.0382464
0.0374782
0.0358301
0.0350713
0.0367229
0.0360779
0.060558
0.0590177
0.0624543
0.061047
0.0532658
0.0394965
0.058463
0.0557209
0.0275051
0.0245469
0.0324247
0.0287572
0.0125952
0.0195676
0.0184852
0.0235826
0.0202218
0.0306068
0.0315854
0.0820014
0.0199136
0.0194087
0.020829
0.0200918
0.0192172
0.0668214
0.0223636
0.029443
0.0337364
0.0425063
0.10625
0.0295196
0.0239147
0.0347951
0.0324576
0.0220247
0.0211107
0.0234945
0.022357
0.0933409
0.0330289
0.0333707
0.0082623
0.0248608
0.0135069
0.0143636
0.0132641
0.0237063
0.00739392
0.0189086
0.0111729
0.0142401
0.0388183
0.0330904
0.0191506
0.0197958
0.0577932
0.0511402
0.0183301
0.0189306
0.0133665
0.0242817
0.0582466
0.0415834
0.0125908
0.0121649
0.017149
0.0103948
0.013467
0.0186041
0.0265191
0.00723495
0.0151705
0.00995439
0.0147637
0.0201566
0.0644556
0.138133
0.184026
0.0127134
0.0119957
0.19304
0.255525
0.212881
0.00782836
0.0283053
0.0164564
0.0182356
0.139994
0.14609
0.168321
0.00571967
0.00910395
0.00670973
0.00567973
0.00695879
0.00542808
0.07007
0.0447494
0.0269906
0.0296827
0.0271041
0.0306942
0.221962
0.445507
0.423727
0.475533
0.452897
0.227534
0.0358132
0.0302432
0.0162322
0.0601568
0.0699511
0.138066
0.0918774
0.0865851
0.0365674
0.0320164
0.0369267
0.0371067
0.416594
0.395623
0.183807
0.138145
0.0552916
0.0575384
0.0597895
0.073315
0.156725
0.0423291
0.100615
0.0938155
0.0146741
0.0150127
0.016936
0.0200483
0.0203941
0.0271897
0.0153519
0.0126729
0.0143149
0.0217141
0.0427224
0.0376771
0.0184105
0.0267468
0.019447
0.0196991
0.0192611
0.0120877
0.013571
0.0156994
0.0151879
0.0127919
0.0208673
0.0239131
0.0513978
0.0398368
0.0423811
0.0390976
0.0290365
0.0374003
0.0175069
0.0199452
0.0110155
0.00731357
0.00724957
0.0139715
0.0117526
0.0282213
0.0179746
0.0122226
0.01715
0.0221569
0.0210454
0.0303634
0.0315996
0.0188598
0.0150803
0.0155495
0.00980377
0.0136696
0.0153058
0.0598135
0.0542333
0.0225521
0.0143002
0.0185326
0.0177228
0.0147762
0.016925
0.0162945
0.0510366
0.0416275
0.0432109
0.0655985
0.0918302
0.0907397
0.0425413
0.0608526
0.0587046
0.0895041
0.0879295
0.0629362
0.0439318
0.0532588
0.0440346
0.0336706
0.0365353
0.029684
0.0457272
0.0476198
0.0685386
0.0247475
0.0321572
0.0315696
0.0485438
0.0479029
0.0280888
0.0269726
0.0264579
0.0308236
0.0300536
0.03418
0.0548239
0.0542041
0.057819
0.057321
0.0387041
0.0294082
0.0498103
0.049172
0.0535633
0.0529092
0.0319944
0.053821
0.0549002
0.13607
0.123016
0.0522904
0.0534588
0.081023
0.0838463
0.176231
0.0243022
0.0240556
0.026093
0.0257504
0.0214868
0.0238195
0.0235882
0.159358
0.076046
0.0800593
0.0140461
0.0141532
0.0171508
0.0167024
0.0138892
0.0143199
0.0142668
0.067375
0.0296379
0.0333066
0.109791
0.103055
0.0454139
0.053681
0.117657
0.111811
0.0274887
0.0276046
0.0382886
0.0368694
0.0269768
0.0273136
0.0116922
0.0183624
0.02675
0.0187965
0.00733213
0.0118878
0.0194344
0.0138357
0.0147282
0.0180176
0.0182053
0.0262277
0.0110389
0.00724301
0.01053
0.0139782
0.0249562
0.0176422
0.0178468
0.0164075
0.026028
0.0226695
0.013937
0.0134155
0.014732
0.0150606
0.0176971
0.00795506
0.005447
0.00988286
0.0158641
0.0139902
0.0143288
0.0123846
0.0135175
0.0153281
0.0120894
0.00809666
0.00623423
0.0238427
0.024397
0.0228099
0.0232703
0.0268092
0.0349226
0.0351083
0.0345008
0.0347356
0.0262097
0.0162281
0.0260251
0.0259248
0.0268162
0.0262729
0.0160539
0.0297517
0.0364759
0.038149
0.0353156
0.0356718
0.0289793
0.0177052
0.0259176
0.0259101
0.0258747
0.0258756
0.017205
0.0218218
0.0223452
0.0224571
0.0219128
0.0319263
0.0457701
0.0454393
0.0213664
0.0301563
0.0300778
0.0305923
0.0302796
0.0217075
0.0120855
0.011158
0.014302
0.0128829
0.0199575
0.0196421
0.0206009
0.0202792
0.0171579
0.0279348
0.020691
0.0209121
0.0202562
0.0298615
0.0297609
0.0300166
0.0299462
0.0205018
0.0211921
0.02091
0.0251502
0.0214058
0.0174292
0.00754916
0.0117288
0.0148704
0.00735863
0.01955
0.0146115
0.00356681
0.0251648
0.0339469
0.0334824
0.0181937
0.0096733
0.00681802
0.00528038
0.0117337
0.0126706
0.0189751
0.0192067
0.0267027
0.0195493
0.00863913
0.00724512
0.0164733
0.00571605
0.00989721
0.0080948
0.00586087
0.00725946
0.0134607
0.0109841
0.0118235
0.0147577
0.0143014
0.038918
0.033982
0.0105865
0.0126168
0.0141087
0.0207975
0.0236071
0.0153087
0.0187619
0.0165922
0.0139786
0.00800704
0.0137098
0.0141266
0.00726635
0.0108013
0.0121035
0.0155787
0.014079
0.0144708
0.0116074
0.0122365
0.0151395
0.0147072
0.0143392
0.0108923
0.0141
0.0154647
0.0150877
0.0275403
0.0237642
0.0186919
0.0302614
0.0323055
0.0342463
0.0277896
0.0246985
0.0221392
0.0316703
0.0328182
0.0249649
0.0291993
0.0215853
0.0242738
0.0340132
0.0342606
0.0333805
0.0337242
0.0236835
0.0210852
0.0315346
0.0311186
0.0153571
0.0156413
0.0168416
0.0151971
0.015113
0.0158555
0.0168011
0.0166208
0.0184463
0.0288498
0.0277323
0.0306131
0.0298768
0.0197503
0.0139537
0.0144782
0.0179797
0.00909634
0.0134592
0.0134561
0.0158343
0.0135996
0.013628
0.020465
0.0195051
0.0149374
0.049276
0.0444593
0.0749085
0.0657134
0.0436826
0.0614292
0.0856706
0.0818115
0.0415425
0.0380585
0.0377588
0.0267911
0.0334332
0.0572818
0.0493111
0.0468713
0.0365879
0.0438836
0.0446062
0.0410069
0.042846
0.0357891
0.0283687
0.0295443
0.0382963
0.0316766
0.0308861
0.0330506
0.0327103
0.0356782
0.0316488
0.0301071
0.028119
0.032324
0.0439333
0.0394469
0.0264411
0.0277673
0.0472021
0.0461409
0.028086
0.0275175
0.0293488
0.0286951
0.0558779
0.0553584
0.0348662
0.0376357
0.0568793
0.0563995
0.0510893
0.0504603
0.0299265
0.0313706
0.0522657
0.0516721
0.019348
0.0259476
0.025922
0.0259276
0.0259638
0.0189879
0.0213845
0.0249765
0.0237186
0.0258244
0.0255725
0.0209145
0.0371952
0.0242722
0.0246805
0.0236166
0.0239335
0.0370513
0.0378119
0.0261592
0.0266658
0.0251313
0.0256193
0.037618
0.0355746
0.0218957
0.0221626
0.0214607
0.0216572
0.0353206
0.0365346
0.0230382
0.023319
0.0224394
0.022731
0.0363147
0.0248354
0.0245613
0.0600564
0.0410117
0.0413171
0.0403827
0.0407004
0.0595439
0.0254271
0.0251228
0.0229201
0.0225831
0.0486445
0.0333314
0.0368364
0.0271516
0.0275302
0.0425945
0.0578383
0.0396886
0.0400515
0.038491
0.0392386
0.0570252
0.0233707
0.0231556
0.0146906
0.0141895
0.0139432
0.0161809
0.0153959
0.0191632
0.0143543
0.0141756
0.0148354
0.0145613
0.0188486
0.0224236
0.0157585
0.0167131
0.0143013
0.0148778
0.0212177
0.0311055
0.0441603
0.0432628
0.0450953
0.0446987
0.0313827
0.0197419
0.0195762
0.0205522
0.0202778
0.0189667
0.0181389
0.022631
0.0337991
0.0315112
0.0415319
0.0382157
0.0269145
0.0246133
0.0194873
0.0204039
0.0243085
0.0344374
0.0210701
0.0212634
0.0206753
0.0208771
0.0338287
0.0217076
0.0214022
0.0230897
0.0227113
0.0136118
0.0158134
0.015337
0.0172233
0.0164488
0.0139064
0.013857
0.0135292
0.0148963
0.01434
0.00853295
0.0119817
0.0149775
0.0146463
0.0158606
0.0153796
0.0126245
0.0189881
0.0187909
0.0194123
0.0191952
0.02427
0.0261491
0.0355703
0.0182343
0.0179988
0.0186029
0.0184215
0.019366
0.029363
0.0291931
0.029643
0.0295106
0.0195769
0.0184911
0.0282803
0.0273161
0.0289909
0.028724
0.0187111
0.0125804
0.0326648
0.0308579
0.0225178
0.0128427
0.00951363
0.00948184
0.00651949
0.00928875
0.0124769
0.0156023
0.0127188
0.0141899
0.0138111
0.0263873
0.0184681
0.0187236
0.0104659
0.0107448
0.010288
0.013438
0.0130573
0.00691521
0.00707124
0.0143618
0.0110266
0.0133566
0.0156809
0.0173811
0.0232226
1.15485
1.15514
1.1555
1.15526
1.15575
1.1558
1.15594
1.15666
1.15626
1.15691
1.15771
1.15683
1.15795
1.12625
1.15732
1.11311
1.0994
1.15751
1.1054
1.15843
1.1573
1.15827
1.15761
1.15683
1.15737
1.15662
1.1563
1.1564
1.15578
1.15586
1.15435
1.15498
1.15506
1.15525
1.1563
1.1558
1.15672
1.11293
1.15691
1.05102
0.900463
1.15813
0.865111
0.796819
1.04837
0.785977
0.784916
1.02474
0.79396
0.848123
1.08556
0.87457
0.983021
1.158
1.0289
1.15789
1.15684
1.15746
1.15624
1.15583
1.1542
1.15544
1.15503
1.15598
1.09571
1.1566
1.00698
0.782264
1.02403
0.723436
0.587992
0.815019
0.555475
0.493984
0.71557
0.485242
0.491611
0.706601
0.503292
0.562056
0.771167
0.588623
0.691038
0.903356
0.73212
0.888746
1.11566
0.95185
1.15764
1.1565
1.15453
1.15665
1.15567
1.14129
0.842709
1.02396
0.756241
0.548574
0.714401
0.49222
0.357749
0.522691
0.32423
0.261834
0.428903
0.254285
0.268049
0.428466
0.282612
0.34817
0.501848
0.375317
0.475236
0.628994
0.514287
0.654392
0.82214
0.710031
0.912234
1.10156
1.15541
1.08554
1.15705
0.976251
0.688851
0.795522
0.610293
0.409565
0.504962
0.351566
0.205589
0.312556
0.170462
0.091093
0.215817
0.0894607
0.122626
0.224405
0.140046
0.208316
0.306294
0.235924
0.331765
0.432636
0.36853
0.497528
0.608647
0.548311
0.729823
0.858921
1.15666
1.00285
1.05773
0.895037
0.635097
0.666016
0.562955
0.372255
0.389384
0.316606
0.144314
0.182406
0.128277
0.0752868
0.117942
0.0368266
0.0463566
0.0806005
0.0866952
0.116308
0.137095
0.163421
0.251051
0.306063
0.28489
0.403087
0.468709
0.449243
0.614055
0.69436
1.15809
0.987127
0.993342
0.889229
0.669857
0.636554
0.611657
0.46745
0.384204
0.351727
0.303686
0.281896
0.134488
0.113587
0.102587
0.0616359
0.0881418
0.0938625
0.14463
0.219969
0.239198
0.249979
0.356769
0.387369
0.398742
0.549401
0.592684
1.15956
1.01109
0.990896
0.922775
0.744448
0.687339
0.701955
0.622581
0.505199
0.52536
0.508606
0.445971
0.438286
0.447254
0.362456
0.0799239
0.0988459
0.0936478
0.154828
0.221714
0.217949
0.248822
0.346562
0.351288
0.385337
0.524699
0.539479
1.16102
1.0419
1.01915
0.958761
0.803202
0.762186
0.768783
0.720768
0.656183
0.692054
0.719595
0.679333
0.695197
0.526513
0.549614
0.108089
0.124436
0.114259
0.180981
0.244549
0.225687
0.270213
0.363006
0.348415
0.399777
0.531038
0.523741
1.16247
1.06294
1.04827
0.981182
0.82322
0.811822
0.785815
0.714739
0.72823
0.735508
0.763326
0.76984
0.592511
0.413031
0.43344
0.142196
0.160044
0.145826
0.219794
0.284969
0.252975
0.310685
0.402632
0.370715
0.438558
0.564434
0.537561
1.16391
1.07999
1.06685
0.997839
0.821669
0.823446
0.775045
0.660858
0.702248
0.669193
0.695604
0.698853
0.485365
0.31026
0.32902
0.173284
0.193594
0.182445
0.27719
0.348432
0.298248
0.375522
0.468901
0.416435
0.504489
0.626119
0.578099
1.1654
1.11341
1.08622
1.0301
0.836786
0.822455
0.781466
0.624915
0.647949
0.5977
0.552552
0.607949
0.397333
0.214683
0.232285
0.0503234
0.110854
0.0969328
0.278766
0.352327
0.27411
0.376107
0.451742
0.369587
0.479134
0.571506
0.49066
0.605923
0.721532
0.647831
1.16662
1.1683
1.12888
1.11817
0.917856
0.850625
0.861519
0.69428
0.630261
0.584128
0.518316
0.503343
0.202356
0.0662929
0.0895107
0.110093
0.244764
0.216154
0.49008
0.54368
0.388767
0.561102
0.621224
0.486888
0.64462
0.724776
0.604353
0.755543
0.858138
0.752931
1.16756
1.16887
1.16849
1.16686
1.09357
0.952349
1.04115
0.919259
0.732377
0.788964
0.111341
0.182843
0.0339307
0.0818482
0.0702794
0.160326
0.434193
0.420977
0.517366
0.744131
0.612755
0.811234
0.887687
0.677737
0.896988
0.944719
0.772726
0.966428
1.04793
0.902112
1.16816
1.16882
1.16892
1.16629
1.13836
1.14419
1.11305
0.858985
0.926768
0.659839
0.0794869
0.0999724
0.0298103
0.0953538
0.0854086
0.174636
0.446274
0.437796
0.530274
0.755279
0.747334
0.82089
0.977192
0.973107
1.01553
1.09666
1.01193
1.11461
1.14942
1.10724
1.16839
1.16807
1.1687
1.1647
1.12677
1.13587
1.09146
0.764225
0.835375
0.543842
0.0659975
0.0751595
0.0284576
0.107152
0.0984482
0.186506
0.452717
0.448337
0.538213
0.762933
0.757466
0.827359
0.980653
0.978239
1.01833
1.09817
1.09716
1.11584
1.15016
1.14969
1.16829
1.1666
1.16777
1.16204
1.11094
1.1232
1.06385
0.672524
0.740897
0.454515
0.058876
0.0638107
0.0283337
0.11756
0.109874
0.1965
0.456252
0.453753
0.541567
0.768026
0.764434
0.831641
0.982572
0.981254
1.01974
1.09864
1.09837
1.11614
1.1502
1.15023
1.16787
1.16441
1.16612
1.15826
1.09127
1.10636
1.03148
0.591527
0.650817
0.393565
0.0547571
0.0576358
0.0288983
0.126804
0.119973
0.205032
0.458913
0.456968
0.542691
0.770386
0.768898
0.833977
0.98342
0.982872
1.0202
1.09843
1.09864
1.11583
1.14977
1.15013
1.16717
1.16147
1.16374
1.15335
1.06826
1.08582
0.995166
0.52935
0.574078
0.353346
0.0522998
0.0540192
0.0299004
0.13506
0.128954
0.2124
0.461091
0.459501
0.543161
0.769787
0.770494
0.833948
0.983371
0.983493
1.01993
1.09774
1.0983
1.11509
1.149
1.1496
1.16622
1.15779
1.16062
1.14728
1.04182
1.062
0.954287
0.48503
0.516832
0.325004
0.0508666
0.0518621
0.0312014
0.142474
0.136987
0.218828
0.462815
0.461563
0.543325
0.76723
0.769277
0.831677
0.982274
0.983206
1.0189
1.09668
1.09751
1.11403
1.14801
1.14877
1.16503
1.15331
1.15675
1.13998
1.01097
1.03456
0.909655
0.452429
0.475992
0.304079
0.0501168
0.0506246
0.0327158
0.149167
0.14421
0.224488
0.464127
0.46318
0.543223
0.76388
0.766435
0.828091
0.979953
0.981809
1.01695
1.09524
1.09636
1.11267
1.14684
1.14773
1.16359
1.14786
1.15205
1.1311
0.976399
1.00256
0.866547
0.427392
0.445571
0.288262
0.0498514
0.0500108
0.0343879
0.155242
0.15074
0.229517
0.465085
0.464397
0.542877
0.760294
0.762995
0.82398
0.976563
0.979192
1.01407
1.09336
1.09481
1.11098
1.1455
1.14652
1.16187
1.14111
1.14631
1.12009
0.941737
0.96759
0.828849
0.407675
0.422027
0.276138
0.0499471
0.0498452
0.0361795
0.160786
0.156674
0.234025
0.465755
0.465277
0.542325
0.756648
0.759385
0.81971
0.972468
0.975591
1.01046
1.09105
1.09282
1.10895
1.144
1.14514
1.15978
1.13272
1.13918
1.10676
0.909839
0.933445
0.79683
0.391904
0.403404
0.266768
0.0503232
0.0500173
0.0380648
0.165874
0.162098
0.238101
0.466195
0.465884
0.54161
0.752997
0.755735
0.815416
0.967987
0.971375
1.00638
1.08834
1.0904
1.1066
1.14235
1.1436
1.15722
1.12263
1.13035
1.0916
0.881461
0.902417
0.769523
0.379154
0.388463
0.259497
0.0509251
0.0504542
0.0400262
0.170572
0.167083
0.24182
0.46646
0.466276
0.540774
0.749365
0.752086
0.811151
0.96332
0.966832
1.00203
1.08534
1.08762
1.10399
1.14056
1.14191
1.15409
1.11118
1.11988
1.07545
0.856358
0.874896
0.745976
0.368761
0.376357
0.253851
0.0517149
0.0511061
0.0420524
0.174936
0.171692
0.245242
0.466598
0.466505
0.539858
0.745773
0.748463
0.806942
0.958582
0.962139
0.997539
1.0821
1.08455
1.10117
1.13865
1.14009
1.15033
1.09885
1.10816
1.05905
0.834075
0.85054
0.725461
0.360231
0.36647
0.249479
0.0526656
0.0519384
0.0441368
0.179017
0.175981
0.248423
0.466648
0.466617
0.538897
0.742239
0.744883
0.802809
0.953842
0.957395
0.992987
1.07871
1.08127
1.09819
1.13664
1.13815
1.14594
1.08608
1.09568
1.0429
0.814181
0.828893
0.707426
0.353188
0.358343
0.246112
0.0537577
0.052926
0.0462762
0.182858
0.179998
0.251406
0.466647
0.466651
0.537924
0.738782
0.741367
0.798768
0.94914
0.952661
0.98843
1.0752
1.07784
1.09509
1.13455
1.13613
1.14097
1.07321
1.08286
1.02725
0.796312
0.809536
0.691448
0.347341
0.351624
0.243542
0.054977
0.0540511
0.0484704
0.186499
0.183785
0.254232
0.466625
0.466642
0.536966
0.735421
0.737932
0.794835
0.944507
0.947974
0.983904
1.07163
1.07432
1.09192
1.1324
1.13402
1.13551
1.06046
1.07
1.01223
0.780168
0.792125
0.677191
0.342456
0.346037
0.241605
0.0563132
0.0553004
0.0507212
0.189978
0.187383
0.256935
0.466609
0.466619
0.536048
0.732172
0.734598
0.791026
0.939964
0.943362
0.979436
1.06803
1.07073
1.08869
1.1302
1.13186
1.12964
1.04798
1.05731
0.997898
0.765498
0.776372
0.66438
0.338347
0.341362
0.240169
0.0577586
0.0566645
0.0530324
0.193326
0.190826
0.259547
0.466624
0.466609
0.535193
0.729052
0.731379
0.787355
0.935528
0.938844
0.975049
1.06441
1.06712
1.08543
1.12796
1.12965
1.12344
1.03582
1.0449
0.984242
0.752091
0.762035
0.652791
0.334861
0.337422
0.239124
0.0593075
0.0581363
0.0554089
0.196573
0.194146
0.262097
0.466691
0.466635
0.53442
0.726075
0.728293
0.783835
0.931216
0.934438
0.970759
1.06081
1.06351
1.08216
1.1257
1.1274
1.117
1.02404
1.03284
0.971236
0.739767
0.748915
0.642232
0.331871
0.334071
0.238381
0.0609561
0.0597105
0.0578573
0.19975
0.197373
0.264612
0.466831
0.466719
0.533748
0.723256
0.725355
0.780479
0.92704
0.930158
0.966582
1.05723
1.05991
1.07891
1.12341
1.12513
1.11039
1.01265
1.02116
0.95884
0.728373
0.736837
0.632545
0.329271
0.331188
0.237861
0.0627011
0.0613833
0.0603848
0.202882
0.200536
0.267116
0.467062
0.466879
0.533195
0.720608
0.722577
0.777301
0.923015
0.926019
0.962533
1.05371
1.05635
1.07568
1.12112
1.12284
1.10404
1.00217
1.00986
0.947555
0.718152
0.725654
0.623875
0.327018
0.328671
0.237512
0.0645348
0.0631522
0.0629918
0.205971
0.203661
0.26961
0.467416
0.467136
0.532814
0.718268
0.719975
0.774465
0.919371
0.922034
0.958856
1.05048
1.05284
1.07271
1.11901
1.12055
0.296454
0.242643
0.264862
0.0599339
0.0525164
0.0567512
0.0449747
0.0444487
0.0528628
0.557666
0.585007
0.729531
0.0836207
0.077977
0.0827406
0.0583989
0.0640487
0.0673152
0.440313
0.461207
0.631899
0.117533
0.113691
0.118664
0.0848445
0.0902716
0.0951636
0.335301
0.35426