/*--------------------------------*- C++ -*----------------------------------*\
| =========                 |                                                 |
| \\      /  F ield         | OpenFOAM: The Open Source CFD Toolbox           |
|  \\    /   O peration     | Version:  v1912                                 |
|   \\  /    A nd           | Website:  www.openfoam.com                      |
|    \\/     M anipulation  |                                                 |
\*---------------------------------------------------------------------------*/
FoamFile
{
    version     2.0;
    format      ascii;
    class       pointVectorField;
    location    "0.09";
    object      pointDisplacement;
}
// * * * * * * * * * * * * * * * * * * * * * * * * * * * * * * * * * * * * * //

dimensions      [0 1 0 0 0 0 0];


internalField   nonuniform List<vector> 
26316
(
(0 0 0)
(0 0 0)
(0 0 0)
(0 0 0)
(0 0 0)
(0 0 0)
(0 0 0)
(0 0 0)
(0 0 0)
(0 0 0)
(0 0 0)
(0 0 0)
(0 0 0)
(0 0 0)
(0 0 0)
(0 0 0)
(0 0 0)
(0 0 0)
(0 0 0)
(0 0 0)
(0 0 0)
(0 0 0)
(0 0 0)
(0 0 0)
(0 0 0)
(0 0 0)
(0 0 0)
(0 0 0)
(0 0 0)
(0 0 0)
(0 0 0)
(0 0 0)
(0 0 0)
(0 0 0)
(0 0 0)
(0 0 0)
(0 0 0)
(0 0 0)
(0 0 0)
(0 0 0)
(0 0 0)
(0 0 0)
(0 0 0)
(0 0 0)
(0 0 0)
(0 0 0)
(0 0 0)
(0 0 0)
(0 0 0)
(0 0 0)
(0 0 0)
(0 0 0)
(0 0 0)
(0 0 0)
(0 0 0)
(0 0 0)
(0 0 0)
(0 0 0)
(0 0 0)
(0 0 0)
(0 0 0)
(0 0 0)
(0 0 0)
(0 0 0)
(0 0 0)
(0 0 0)
(0 0 0)
(0 0 0)
(0 0 0)
(0 0 0)
(0 0 0)
(0 0 0)
(0 0 0)
(0 0 0)
(0 0 0)
(0 0 0)
(0 0 0)
(0 0 0)
(0 0 0)
(0 0 0)
(0 0 0)
(0 0 0)
(0 0 0)
(0 0 0)
(0 0 0)
(0 0 0)
(0 0 0)
(0 0 0)
(0 0 0)
(0 0 0)
(0 0 0)
(0 0 0)
(0 0 0)
(0 0 0)
(0 0 0)
(0 0 0)
(0 0 0)
(0 0 0)
(0 0 0)
(0 0 0)
(0 0 0)
(0 0 0)
(0 0 0)
(0 0 0)
(0 0 0)
(0 0 0)
(0 0 0)
(0 0 0)
(0 0 0)
(0 0 0)
(0 0 0)
(0 0 0)
(0 0 0)
(0 0 0)
(0 0 0)
(0 0 0)
(0 0 0)
(0 0 0)
(0 0 0)
(-8.15718177e-07 7.63474411e-06 2.775557562e-17)
(0 0 0)
(0 0 0)
(-4.494940116e-07 8.552033961e-05 3.330669074e-16)
(2.078500723e-06 7.269856249e-05 2.91433544e-16)
(0 0 0)
(0 0 0)
(0 0 0)
(0 0 0)
(0 0 0)
(0 0 0)
(0 0 0)
(0 0 0)
(0 0 0)
(0 0 0)
(0 0 0)
(0 0 0)
(0 0 0)
(0 0 0)
(0 0 0)
(0 0 0)
(0 0 0)
(0 0 0)
(0 0 0)
(0 0 0)
(0 0 0)
(0 0 0)
(0 0 0)
(0 0 0)
(0 0 0)
(0 0 0)
(0 0 0)
(0 0 0)
(0 0 0)
(0 0 0)
(0 0 0)
(0 0 0)
(0 0 0)
(0 0 0)
(0 0 0)
(0 0 0)
(0 0 0)
(0 0 0)
(0 0 0)
(0 0 0)
(0 0 0)
(0 0 0)
(0 0 0)
(0 0 0)
(0 0 0)
(0 0 0)
(0 0 0)
(0 0 0)
(0 0 0)
(0 0 0)
(0 0 0)
(0 0 0)
(0 0 0)
(0 0 0)
(0 0 0)
(0 0 0)
(0 0 0)
(0 0 0)
(0 0 0)
(0 0 0)
(0 0 0)
(-5.081740008e-05 0.0001078548631 4.996003611e-16)
(-0.0002923849385 0.0006766129151 3.094746681e-15)
(-3.824355544e-06 9.164138901e-06 4.163336342e-17)
(-0.0005547308894 0.001822634225 8.021361353e-15)
(-0.001375468487 0.004376238106 1.994238108e-14)
(-0.001629984379 0.005928355423 2.700617507e-14)
(-0.0007617451095 0.002857745716 1.257327575e-14)
(-0.0009227216508 0.006022373304 2.647881914e-14)
(-0.001609454742 0.01024259654 4.665712261e-14)
(-0.001335586835 0.0113169277 5.156985949e-14)
(-0.0007917964619 0.006853423806 3.014255512e-14)
(-2.370408734e-05 0.008013451007 3.524958103e-14)
(-1.64400067e-05 0.01278706279 5.828670879e-14)
(0.000472026889 0.01262008439 5.753730825e-14)
(0.0002710480397 0.007881496718 3.468059173e-14)
(0.000881594222 0.006040227293 2.658984144e-14)
(0.001568129219 0.0102594774 4.679590049e-14)
(0.001713310469 0.008963572593 4.089784067e-14)
(0.0009253172259 0.005056239643 2.225997164e-14)
(0.0005425209035 0.001845068475 8.118505868e-15)
(0.001348047185 0.004409325405 2.010891453e-14)
(0.001013233308 0.00294626333 1.34336986e-14)
(0.0003167735394 0.0009567440046 4.204969706e-15)
(0 0 0)
(5.331378375e-05 0.0001161477202 5.273559367e-16)
(0 0 0)
(0 0 0)
(0 0 0)
(0 0 0)
(0 0 0)
(0 0 0)
(0 0 0)
(0 0 0)
(0 0 0)
(0 0 0)
(0 0 0)
(0 0 0)
(0 0 0)
(0 0 0)
(0 0 0)
(0 0 0)
(0 0 0)
(0 0 0)
(0 0 0)
(0 0 0)
(0 0 0)
(0 0 0)
(0 0 0)
(0 0 0)
(0 0 0)
(0 0 0)
(0 0 0)
(0 0 0)
(0 0 0)
(0 0 0)
(0 0 0)
(0 0 0)
(0 0 0)
(0 0 0)
(0 0 0)
(0 0 0)
(0 0 0)
(0 0 0)
(0 0 0)
(0 0 0)
(0 0 0)
(0 0 0)
(0 0 0)
(0 0 0)
(0 0 0)
(0 0 0)
(-0.0001419233967 0.0001937778314 1.026956298e-15)
(-0.0007750410403 0.001129133011 6.022959909e-15)
(-0.0001836416648 0.0002786499477 1.429412144e-15)
(-0.002614914923 0.004971979497 2.539635169e-14)
(-0.004177418209 0.007642410879 4.066191828e-14)
(-0.005320402542 0.01064588942 5.660749647e-14)
(-0.003590149014 0.007460691526 3.809452753e-14)
(-0.005544269611 0.0159750029 8.147649222e-14)
(-0.007313758963 0.02034195525 1.080247003e-13)
(-0.007326168534 0.0234026169 1.242755898e-13)
(-0.005676989978 0.01876686419 9.570122472e-14)
(-0.00435491146 0.02566934921 1.309646835e-13)
(-0.005374390093 0.0307852262 1.636052405e-13)
(-0.004177361063 0.03244447094 1.725147802e-13)
(-0.003425072175 0.02725378412 1.39110945e-13)
(0.0001573948202 0.02933173469 1.499633751e-13)
(0.0002694117822 0.03458714233 1.842970221e-13)
(0.001819402442 0.03432181624 1.830202656e-13)
(0.001417776518 0.02908340682 1.487698853e-13)
(0.004559939171 0.02561386519 1.312283615e-13)
(0.005760652455 0.03067436352 1.639244296e-13)
(0.006642368054 0.02857906502 1.52780566e-13)
(0.005219477817 0.02363648501 1.211530876e-13)
(0.005565211824 0.01597277495 8.189282585e-14)
(0.007412273988 0.02028810981 1.085243007e-13)
(0.006999757426 0.01709878447 9.145462165e-14)
(0.005119766973 0.01310305442 6.718237078e-14)
(0.002599969847 0.005023659353 2.57294186e-14)
(0.004161972164 0.007692714254 4.110600749e-14)
(0.002938899822 0.005024045966 2.683964162e-14)
(0.001630597247 0.002911961908 1.490474411e-14)
(0 0 0)
(0.0001409104121 0.0001958650725 1.040834086e-15)
(0 0 0)
(0 0 0)
(0 0 0)
(0 0 0)
(0 0 0)
(0 0 0)
(0 0 0)
(0 0 0)
(0 0 0)
(0 0 0)
(0 0 0)
(0 0 0)
(0 0 0)
(0 0 0)
(0 0 0)
(0 0 0)
(0 0 0)
(0 0 0)
(0 0 0)
(0 0 0)
(0 0 0)
(0 0 0)
(0 0 0)
(0 0 0)
(0 0 0)
(0 0 0)
(0 0 0)
(0 0 0)
(0 0 0)
(0 0 0)
(0 0 0)
(0 0 0)
(0 0 0)
(0 0 0)
(0 0 0)
(0 0 0)
(0 0 0)
(0 0 0)
(0 0 0)
(-6.106319667e-05 5.801206107e-05 3.747002708e-16)
(0 0 0)
(-0.002596645544 0.003102768841 1.892930257e-14)
(-0.00385785259 0.004383387545 2.810252031e-14)
(-0.006030659277 0.007336584695 4.694855615e-14)
(-0.004430487573 0.0056606556 3.450018049e-14)
(-0.01007578871 0.01625610398 9.871270468e-14)
(-0.0122151388 0.01881509135 1.198902089e-13)
(-0.01362324583 0.02299864947 1.464106614e-13)
(-0.01147464502 0.02028288051 1.230543445e-13)
(-0.01291645772 0.03189880818 1.932898286e-13)
(-0.01470024841 0.03469747861 2.206429484e-13)
(-0.01396991942 0.03795322648 2.414179967e-13)
(-0.01239881246 0.03523846074 2.135652766e-13)
(-0.008286616903 0.04269670115 2.592787096e-13)
(-0.009124099218 0.04498172347 2.868399962e-13)
(-0.006869518679 0.04638050504 2.961242362e-13)
(-0.00627642726 0.04424465415 2.689792833e-13)
(0.0006519098074 0.04610731256 2.813721478e-13)
(0.0007487769801 0.04799387495 3.077677002e-13)
(0.003345646064 0.04773085248 3.065603327e-13)
(0.003023546291 0.0458315019 2.800676357e-13)
(0.009353409248 0.0423352333 2.596672877e-13)
(0.01038710241 0.04452210812 2.872146965e-13)
(0.0122475789 0.0425931394 2.751132655e-13)
(0.0109670153 0.04026952647 2.472466676e-13)
(0.01341715009 0.03153931592 1.93983718e-13)
(0.01535464474 0.03417408456 2.212396932e-13)
(0.01538032263 0.03060068385 1.981331765e-13)
(0.01329352759 0.02793117884 1.718070131e-13)
(0.01009112343 0.01607280912 9.874046025e-14)
(0.01258587634 0.01891483072 1.224853552e-13)
(0.01083285214 0.01505818052 9.750533714e-14)
(0.008580986963 0.01261624825 7.752132269e-14)
(0.002966192426 0.003565440457 2.187139359e-14)
(0.004434486348 0.005059568508 3.26683125e-14)
(0.002500886975 0.002692071636 1.736111255e-14)
(0.001428832868 0.001619373082 9.93649607e-15)
(0 0 0)
(0 0 0)
(0 0 0)
(0 0 0)
(0 0 0)
(0 0 0)
(0 0 0)
(0 0 0)
(0 0 0)
(0 0 0)
(0 0 0)
(0 0 0)
(0 0 0)
(0 0 0)
(0 0 0)
(0 0 0)
(0 0 0)
(0 0 0)
(0 0 0)
(0 0 0)
(0 0 0)
(0 0 0)
(0 0 0)
(0 0 0)
(0 0 0)
(0 0 0)
(0 0 0)
(0 0 0)
(0 0 0)
(0 0 0)
(0 0 0)
(0 0 0)
(0 0 0)
(0 0 0)
(0 0 0)
(-0.000282219817 0.0002154523692 1.637578961e-15)
(-0.0006417758399 0.0004602729064 3.73312492e-15)
(-0.002278838445 0.001722411428 1.394717675e-14)
(-0.001532218712 0.001232148075 9.381384558e-15)
(-0.008986953302 0.008641798705 6.539213615e-14)
(-0.01062919264 0.009618575624 7.736866703e-14)
(-0.01368592578 0.01325880468 1.063871213e-13)
(-0.01186840077 0.01221491178 9.223177777e-14)
(-0.01864385981 0.02430638424 1.823818874e-13)
(-0.02058468731 0.02522153988 2.012556788e-13)
(-0.02164855205 0.02905812752 2.315508896e-13)
(-0.01979216041 0.02830402472 2.120248421e-13)
(-0.01937580306 0.03888991222 2.906286323e-13)
(-0.02058063369 0.03869844768 3.074346333e-13)
(-0.01892046847 0.04094688796 3.254063685e-13)
(-0.01787366973 0.04126202042 3.085587341e-13)
(-0.01098949766 0.04591599929 3.447103714e-13)
(-0.01138524943 0.04438384123 3.542444116e-13)
(-0.008414862002 0.04472082897 3.57616714e-13)
(-0.008165382309 0.04657444679 3.502753643e-13)
(0.0007932016439 0.04702842489 3.55854235e-13)
(0.0007180282105 0.04466661145 3.595179709e-13)
(0.003774292125 0.04455769395 3.594763376e-13)
(0.003809310153 0.04686393849 3.553546346e-13)
(0.01255339845 0.04525977778 3.454320163e-13)
(0.01287018046 0.04364736462 3.547301342e-13)
(0.01562341905 0.04282495005 3.488875855e-13)
(0.01512260986 0.04410126182 3.372996327e-13)
(0.02042548006 0.03788456079 2.912531327e-13)
(0.02170864471 0.03757384923 3.084893452e-13)
(0.0226999922 0.03500922403 2.881167527e-13)
(0.02113386869 0.03487510477 2.687156053e-13)
(0.01940027756 0.02432321306 1.8757218e-13)
(0.02138179301 0.02510614848 2.065986271e-13)
(0.01955544432 0.02130550139 1.750960488e-13)
(0.01753790497 0.02040245744 1.571520691e-13)
(0.009518619157 0.009124976318 6.990241719e-14)
(0.01122152885 0.01008027923 8.235079285e-14)
(0.008083745334 0.006862809843 5.594136265e-14)
(0.006622151143 0.005997866397 4.58660887e-14)
(0.0004366329124 0.0003383704369 2.581268532e-15)
(0.0007501302264 0.0005452827444 4.427014311e-15)
(1.904106792e-05 1.318757463e-05 1.110223025e-16)
(0 0 0)
(0 0 0)
(0 0 0)
(0 0 0)
(0 0 0)
(0 0 0)
(0 0 0)
(0 0 0)
(0 0 0)
(0 0 0)
(0 0 0)
(0 0 0)
(0 0 0)
(0 0 0)
(0 0 0)
(0 0 0)
(0 0 0)
(0 0 0)
(0 0 0)
(0 0 0)
(0 0 0)
(0 0 0)
(0 0 0)
(0 0 0)
(0 0 0)
(0 0 0)
(0 0 0)
(0 0 0)
(0 0 0)
(-2.686307528e-05 1.183557498e-05 1.387778781e-16)
(-7.330208004e-07 3.540723779e-07 0)
(0 0 0)
(-0.002014539907 0.001165527501 1.171285291e-14)
(-0.002542598575 0.00135372124 1.477984402e-14)
(-0.005273209497 0.002963530743 3.225197887e-14)
(-0.004499072799 0.002746383127 2.753353101e-14)
(-0.01458154204 0.01068869666 1.060956878e-13)
(-0.01587192723 0.01072210711 1.154493168e-13)
(-0.01926067353 0.01393996769 1.495609192e-13)
(-0.01824608638 0.01433533899 1.417754802e-13)
(-0.02511494205 0.02494217552 2.450262215e-13)
(-0.0261613874 0.0239325992 2.548794509e-13)
(-0.02680730758 0.02681075118 2.85285684e-13)
(-0.0258581269 0.02808506547 2.756822548e-13)
(-0.02317144145 0.03473842998 3.413935801e-13)
(-0.0236821121 0.03258585784 3.475414401e-13)
(-0.02125216283 0.03336949496 3.565620021e-13)
(-0.02092497389 0.03588944267 3.530509218e-13)
(-0.01201295339 0.0364276466 0)
(-0.01223353794 0.03346762662 0)
(-0.01069294711 0.03344279373 0)
(-0.009067371087 0.03348216211 0)
(-0.008944545241 0.03494697958 0)
(-0.008882737947 0.03637821315 0)
(0.0004301216712 0.03612571699 0)
(0.0003825366883 0.03470208005 0)
(0.001942226645 0.03465119668 0)
(0.001981360286 0.03607498208 0)
(0.01296779326 0.0355898432 0)
(0.01296546868 0.03412614295 0)
(0.01297344884 0.03263942032 0)
(0.01452345293 0.03254283553 0)
(0.01605187672 0.03247518545 0)
(0.01608250878 0.03541365907 0)
(0.02413063084 0.03349144365 3.437666818e-13)
(0.02447622279 0.03126078983 3.496231082e-13)
(0.02630770303 0.02994080646 3.356065426e-13)
(0.02576252771 0.0318968497 3.279737593e-13)
(0.0259502815 0.02436765887 2.508548924e-13)
(0.02687183656 0.02312402959 2.599309656e-13)
(0.02548971075 0.02032470544 2.282618539e-13)
(0.02434162419 0.02118857264 2.179090242e-13)
(0.01567276048 0.0112408001 1.148664497e-13)
(0.0171397571 0.01127101025 1.255939797e-13)
(0.01349796385 0.008399548991 9.325873407e-14)
(0.01215710645 0.008247465379 8.40022496e-14)
(0.002704150815 0.001578299765 1.59317004e-14)
(0.003380172178 0.001812272592 1.99146255e-14)
(0.001210791069 0.0006198943921 6.800116026e-15)
(0.0008237919862 0.0004589175459 4.62130334e-15)
(0 0 0)
(0 0 0)
(0 0 0)
(0 0 0)
(0 0 0)
(0 0 0)
(0 0 0)
(0 0 0)
(0 0 0)
(0 0 0)
(0 0 0)
(0 0 0)
(0 0 0)
(0 0 0)
(0 0 0)
(0 0 0)
(0 0 0)
(0 0 0)
(0 0 0)
(0 0 0)
(0 0 0)
(0 0 0)
(0 0 0)
(0 0 0)
(0 0 0)
(0 0 0)
(0 0 0)
(0 0 0)
(-0.0002420490187 6.559971101e-05 1.276756478e-15)
(-0.0001379371167 4.322988251e-05 7.21644966e-16)
(-0.0001128445899 4.013659296e-05 5.967448757e-16)
(-0.003653357501 0.001435402239 2.121913756e-14)
(-0.003789002377 0.001312585385 2.201017146e-14)
(-0.007014086732 0.002569784843 4.286848654e-14)
(-0.006828442396 0.002835845783 4.174438573e-14)
(-0.01834420866 0.009190925291 1.331712518e-13)
(-0.01864142779 0.008253886348 1.352251644e-13)
(-0.02218261375 0.01053373212 1.716404796e-13)
(-0.02186347578 0.01174297701 1.693367668e-13)
(-0.02830849108 0.01918849325 2.742528427e-13)
(-0.02861975256 0.01715425929 2.767647223e-13)
(-0.02897249783 0.01894903126 3.055333764e-13)
(-0.02868624772 0.02122795511 3.031880302e-13)
(-0.02453256321 0.02478818484 3.556877015e-13)
(-0.02468877817 0.02198077921 3.565620021e-13)
(-0.02185012973 0.02207316527 0)
(-0.02174937697 0.02497042659 3.595318487e-13)
(-0.01262871077 0.02470074079 0)
(-0.01268623122 0.02323204442 0)
(-0.01116695234 0.02319019288 0)
(-0.01110964232 0.02465657971 0)
(0.01278306579 0.02389696381 0)
(0.01274321059 0.0224419432 0)
(0.01426159573 0.02238529359 0)
(0.01430297818 0.02383810746 0)
(0.02482315785 0.02331259181 3.577693697e-13)
(0.02479036044 0.02049280176 3.586297925e-13)
(0.02724989398 0.0199877404 3.513439539e-13)
(0.02718235395 0.02267937762 3.493455525e-13)
(0.02942264585 0.01848359851 2.857852843e-13)
(0.02974809484 0.01639477205 2.895184092e-13)
(0.02870922401 0.01465328235 2.583627756e-13)
(0.02832427416 0.01648280259 2.54476995e-13)
(0.02010802172 0.009664139556 1.475208844e-13)
(0.02055497102 0.008670287947 1.509070646e-13)
(0.01668647227 0.006670221453 1.154215612e-13)
(0.01626115641 0.00740355191 1.12423959e-13)
(0.004904208725 0.001932026526 2.889355422e-14)
(0.005537891714 0.001916962511 3.262667914e-14)
(0.002640867908 0.0008748891406 1.482147738e-14)
(0.002174007868 0.0008190415947 1.219857548e-14)
(0 0 0)
(0 0 0)
(0 0 0)
(0 0 0)
(0 0 0)
(0 0 0)
(0 0 0)
(0 0 0)
(0 0 0)
(0 0 0)
(0 0 0)
(0 0 0)
(0 0 0)
(0 0 0)
(0 0 0)
(0 0 0)
(0 0 0)
(0 0 0)
(0 0 0)
(0 0 0)
(0 0 0)
(0 0 0)
(0 0 0)
(0 0 0)
(0 0 0)
(0 0 0)
(0 0 0)
(0 0 0)
(-0.0003973411411 4.052814471e-05 2.109423747e-15)
(-0.0003588774062 5.175278933e-05 1.90125693e-15)
(-0.0003148366817 5.870105408e-05 1.665334537e-15)
(-0.004502450972 0.0009324299718 2.614575223e-14)
(-0.004655909927 0.0007483460955 2.703393065e-14)
(-0.008119036458 0.001388689638 4.958533584e-14)
(-0.007926627587 0.001742372897 4.841960166e-14)
(-0.01982051506 0.005322770304 1.434963259e-13)
(-0.02006560935 0.004226945619 1.451755383e-13)
(-0.02358953812 0.005354916086 1.818545314e-13)
(-0.02334580765 0.006741686817 1.801614413e-13)
(-0.02952359853 0.01078811825 2.838979052e-13)
(-0.02972503328 0.008563654442 2.85285684e-13)
(-0.02992678831 0.009393288934 3.127220705e-13)
(-0.02974750984 0.01184636545 3.115563363e-13)
(-0.02506336645 0.01345717519 3.579359031e-13)
(-0.02516990068 0.01060215961 3.581579477e-13)
(-0.02222685905 0.01054529095 0)
(-0.02213471489 0.01342014703 0)
(-0.01302952131 0.01311881379 0)
(-0.01307649289 0.01168041522 0)
(-0.01156128557 0.01163048178 0)
(-0.01151411411 0.01306887368 0)
(0.012430441 0.01228984123 0)
(0.01238252093 0.01084300313 0)
(0.01389741285 0.01079161276 0)
(0.01394557499 0.01223770906 0)
(0.02456099839 0.0118734057 3.594902154e-13)
(0.02446418682 0.008988183885 3.595179709e-13)
(0.02718537172 0.008794400826 3.553823902e-13)
(0.02724140686 0.01162999222 3.548550342e-13)
(0.03055850112 0.009714491731 2.993161274e-13)
(0.03067525584 0.007352993226 3.011479954e-13)
(0.02996508517 0.006649250645 2.716021852e-13)
(0.02978669785 0.008764472632 2.694650059e-13)
(0.02215793457 0.005418904832 1.630917623e-13)
(0.02247034896 0.004167546854 1.655620085e-13)
(0.01865103736 0.003301719693 1.293409824e-13)
(0.01832229966 0.004263634656 1.269817584e-13)
(0.00634923267 0.001298110733 3.742839372e-14)
(0.006606912091 0.001037767297 3.895495038e-14)
(0.00340711102 0.0005153616093 1.913746939e-14)
(0.003212103779 0.0006307432233 1.804112415e-14)
(0 0 0)
(0 0 0)
(0 0 0)
(0 0 0)
(0 0 0)
(0 0 0)
(0 0 0)
(0 0 0)
(0 0 0)
(0 0 0)
(0 0 0)
(0 0 0)
(0 0 0)
(0 0 0)
(0 0 0)
(0 0 0)
(0 0 0)
(0 0 0)
(0 0 0)
(0 0 0)
(0 0 0)
(0 0 0)
(0 0 0)
(0 0 0)
(0 0 0)
(0 0 0)
(0 0 0)
(0 0 0)
(-0.0005861452236 -3.907764913e-05 3.094746681e-15)
(-0.0005284452278 -1.294991974e-05 2.803313137e-15)
(-0.0004770727262 8.420324297e-06 2.525757381e-15)
(-0.005038212945 0.0001100606031 2.924049891e-14)
(-0.005193081261 -0.0001266861776 3.014255512e-14)
(-0.008786482862 -0.0002075040515 5.362377209e-14)
(-0.008595353644 0.0002147742055 5.245803791e-14)
(-0.02067387447 0.0007782104941 1.492417301e-13)
(-0.02091325448 -0.0004142080121 1.508515535e-13)
(-0.02443630738 -0.0004539381625 1.876554467e-13)
(-0.0241985751 0.001030754732 1.860178678e-13)
(-0.03024782767 0.001761341049 2.886441086e-13)
(-0.03044385895 -0.0005401054668 2.899486207e-13)
(-0.03057504502 -0.0005859044328 3.165800955e-13)
(-0.03040088242 0.00192976157 3.15497628e-13)
(-0.02547387144 0.002030696519 3.586297925e-13)
(-0.02557511602 -0.0008295420966 3.58796326e-13)
(-0.02259023163 -0.0009300940352 0)
(-0.02249987323 0.001937217555 0)
(-0.01340060066 0.001636348599 0)
(-0.01344651942 0.0002035178947 0)
(-0.01193336646 0.000153986477 0)
(-0.0119102716 0.000870464013 0)
(-0.01188719675 0.001586341897 0)
(0.01203084567 0.0007283512491 0)
(0.01197871037 -0.0007128766991 0)
(0.01349194996 -0.0007618106869 0)
(0.01354426959 0.000678944199 0)
(0.02415210691 0.0003344680507 3.594902154e-13)
(0.02404212627 -0.002540334593 3.594347042e-13)
(0.02671599856 -0.002592141635 3.545636007e-13)
(0.02685424425 0.0002425758463 3.550354455e-13)
(0.03033080398 0.000110976971 2.999128723e-13)
(0.03014742352 -0.002276214067 2.988304049e-13)
(0.02944235495 -0.002030430965 2.690486722e-13)
(0.02962806603 0.0001184688854 2.701866508e-13)
(0.02217613968 0.0001866054707 1.639105518e-13)
(0.02201346553 -0.001114016677 1.628835955e-13)
(0.01822972326 -0.0008226696587 1.268291028e-13)
(0.01837707817 0.0001907248133 1.277589146e-13)
(0.006426788028 9.882744079e-05 3.792799408e-14)
(0.006342320825 -0.0002013560195 3.744227151e-14)
(0.003213417712 -9.186244719e-05 1.805500194e-14)
(0.003272870395 5.331913265e-05 1.838806885e-14)
(0 0 0)
(0 0 0)
(0 0 0)
(0 0 0)
(0 0 0)
(0 0 0)
(0 0 0)
(0 0 0)
(0 0 0)
(0 0 0)
(0 0 0)
(0 0 0)
(0 0 0)
(0 0 0)
(0 0 0)
(0 0 0)
(0 0 0)
(0 0 0)
(0 0 0)
(0 0 0)
(0 0 0)
(0 0 0)
(0 0 0)
(0 0 0)
(0 0 0)
(0 0 0)
(0 0 0)
(0 0 0)
(-0.0008394425086 -0.0001975526045 4.440892099e-15)
(-0.0007708235863 -0.0001489074566 4.080069615e-15)
(-0.0007044574706 -0.0001063823853 3.719247132e-15)
(-0.005677547032 -0.0009260232041 3.294586826e-14)
(-0.005848314188 -0.001224099971 3.393119119e-14)
(-0.009586864526 -0.00208866062 5.845324225e-14)
(-0.009379552414 -0.001588389922 5.720424134e-14)
(-0.02164759678 -0.004149337016 1.557920459e-13)
(-0.02190131337 -0.005448404841 1.57485136e-13)
(-0.025414468 -0.006660575419 1.943445405e-13)
(-0.02516385676 -0.005068140767 1.926375726e-13)
(-0.03103906358 -0.007572708436 2.938760346e-13)
(-0.0312417545 -0.009959248864 2.952083022e-13)
(-0.03127953502 -0.01082439526 3.208544541e-13)
(-0.03110140342 -0.00823895798 3.197858645e-13)
(-0.02587235647 -0.009427929458 3.591710263e-13)
(-0.02596909454 -0.01229732672 3.592820486e-13)
(-0.02294882255 -0.01240610541 0)
(-0.02285967453 -0.009537085901 0)
(-0.01376598538 -0.009837368431 0)
(-0.01381108242 -0.01127156058 0)
(-0.01230053017 -0.01132107197 0)
(-0.01227781508 -0.01060398145 0)
(-0.01225503781 -0.009887026403 0)
(0.01160305422 -0.01078457306 0)
(0.01154685464 -0.01222366439 0)
(0.01305867952 -0.01227101705 0)
(0.0131151989 -0.01083233659 0)
(0.02366074993 -0.01113601148 3.58602037e-13)
(0.02350383115 -0.01397300963 3.57880392e-13)
(0.02590706469 -0.01371115098 3.492622858e-13)
(0.02616020863 -0.01098695299 3.51274565e-13)
(0.02900836394 -0.00912781248 2.89601676e-13)
(0.02837955689 -0.01120559303 2.839534163e-13)
(0.02760646899 -0.01001251404 2.542271949e-13)
(0.02812413882 -0.008124992606 2.585154313e-13)
(0.02037563323 -0.004639961003 1.511984982e-13)
(0.01985592341 -0.005697024201 1.47479251e-13)
(0.0161136729 -0.004303711592 1.124378368e-13)
(0.01659648356 -0.003510239033 1.157129947e-13)
(0.005183252341 -0.0008961032712 3.06143999e-14)
(0.004904820177 -0.001078802574 2.897682094e-14)
(0.002181225387 -0.0004534818777 1.226796442e-14)
(0.002367925217 -0.0003861436726 1.33226763e-14)
(0 0 0)
(0 0 0)
(0 0 0)
(0 0 0)
(0 0 0)
(0 0 0)
(0 0 0)
(0 0 0)
(0 0 0)
(0 0 0)
(0 0 0)
(0 0 0)
(0 0 0)
(0 0 0)
(0 0 0)
(0 0 0)
(0 0 0)
(0 0 0)
(0 0 0)
(0 0 0)
(0 0 0)
(0 0 0)
(0 0 0)
(0 0 0)
(0 0 0)
(0 0 0)
(0 0 0)
(0 0 0)
(-0.001061015151 -0.0004286029357 5.606626274e-15)
(-0.001097256698 -0.0003969396742 5.800915304e-15)
(-0.001001616184 -0.0003201377243 5.301314943e-15)
(-0.006406804255 -0.002228011096 3.715083796e-14)
(-0.006625254533 -0.002609371643 3.839983886e-14)
(-0.01051938493 -0.004328958448 6.405986852e-14)
(-0.01025890297 -0.003725763876 6.24916785e-14)
(-0.02271158249 -0.009523986001 1.628974733e-13)
(-0.02301964506 -0.01095635067 1.649513859e-13)
(-0.0265125638 -0.01334105506 2.018107903e-13)
(-0.02621154333 -0.0116159052 1.997568777e-13)
(-0.0318751925 -0.01725233556 2.993577608e-13)
(-0.03210694947 -0.01973784373 3.008981952e-13)
(-0.03202944278 -0.02135103235 3.254341241e-13)
(-0.03183102321 -0.01868695293 3.242128788e-13)
(-0.02625192819 -0.02090719387 3.594902154e-13)
(-0.02634387342 -0.02377758813 3.595179709e-13)
(-0.02330310258 -0.02387885875 0)
(-0.02321457643 -0.02101048552 0)
(-0.01412238417 -0.0213096509 0)
(-0.01416621083 -0.02274375201 0)
(-0.01265851248 -0.0227928347 0)
(-0.01263645701 -0.02207552208 0)
(-0.01261435268 -0.0213587447 0)
(0.01114332845 -0.02226901775 0)
(0.01108308908 -0.02370323851 0)
(0.01259442094 -0.02374937408 0)
(0.0126551267 -0.02231516888 0)
(0.02293437847 -0.02230010198 3.541889004e-13)
(0.02269173134 -0.0249730909 3.521072323e-13)
(0.02470466663 -0.02405111962 3.382710778e-13)
(0.02506197265 -0.02158776768 3.418515471e-13)
(0.02661171221 -0.01694915263 2.67952327e-13)
(0.02614168564 -0.01878097744 2.637889907e-13)
(0.02482844143 -0.01635619677 2.30149233e-13)
(0.02562898005 -0.01498090126 2.37213027e-13)
(0.01753275785 -0.008142064892 1.305067165e-13)
(0.0164317291 -0.008599858267 1.223882107e-13)
(0.01275175418 -0.006233952952 8.915090888e-14)
(0.01385588288 -0.006007690382 9.683920332e-14)
(0.003479817697 -0.00125629606 2.056688153e-14)
(0.00303909403 -0.001240152096 1.797173521e-14)
(0.0009872971572 -0.0003823163993 5.564992911e-15)
(0.001242662171 -0.000425466864 6.994405055e-15)
(0 0 0)
(0 0 0)
(0 0 0)
(0 0 0)
(0 0 0)
(0 0 0)
(0 0 0)
(0 0 0)
(0 0 0)
(0 0 0)
(0 0 0)
(0 0 0)
(0 0 0)
(0 0 0)
(0 0 0)
(0 0 0)
(0 0 0)
(0 0 0)
(0 0 0)
(0 0 0)
(0 0 0)
(0 0 0)
(0 0 0)
(0 0 0)
(0 0 0)
(0 0 0)
(0 0 0)
(0 0 0)
(-0.001886664863 -0.001079736337 9.964251646e-15)
(-0.001719984806 -0.0009116911904 9.089951014e-15)
(-0.001471952995 -0.0007183912042 7.771561172e-15)
(-0.007327712353 -0.003897752767 4.24521529e-14)
(-0.007874181643 -0.004548515354 4.560241074e-14)
(-0.01195088874 -0.007219871174 7.265021917e-14)
(-0.01128087881 -0.006275527571 6.861178292e-14)
(-0.02406049894 -0.01551657181 1.71876402e-13)
(-0.02451747174 -0.01718255065 1.749433931e-13)
(-0.02790555816 -0.02068997263 2.113309527e-13)
(-0.0275223991 -0.0187750546 2.087080508e-13)
(-0.03286144011 -0.02737806094 3.059774656e-13)
(-0.03300325382 -0.0298819426 3.066435994e-13)
(-0.03288822054 -0.03224527364 3.308325836e-13)
(-0.03266517362 -0.02948490101 3.29430927e-13)
(-0.02661589477 -0.03238181703 0)
(-0.02670834308 -0.03524979264 0)
(-0.02366299488 -0.03534989077 0)
(-0.0236170539 -0.03391639379 0)
(-0.02357150825 -0.03248275021 0)
(-0.01446977708 -0.03278190021 0)
(-0.01449145941 -0.03349802464 0)
(-0.01373740146 -0.03352230614 0)
(-0.01371579242 -0.03280637937 0)
(-0.001393403477 -0.03338823484 0)
(-0.001413623852 -0.03374508377 0)
(-0.001431445177 -0.03410207942 0)
(-0.000692910307 -0.03411830587 0)
(-0.0006537470456 -0.03340503231 0)
(0.01062853956 -0.03372447828 0)
(0.01055743994 -0.03515233364 0)
(0.01048575399 -0.03657976924 0)
(0.01351731252 -0.03667333757 0)
(0.01365687998 -0.03381653854 0)
(0.01214327167 -0.03377066055 0)
(0.0218224934 -0.03254828179 3.434474927e-13)
(0.02141666569 -0.03477219598 3.385625114e-13)
(0.0229115597 -0.03273219906 3.183009412e-13)
(0.02353990626 -0.03093877841 3.259337245e-13)
(0.02388305683 -0.02299537851 2.42250664e-13)
(0.02301528756 -0.02403726314 2.337852134e-13)
(0.02138740387 -0.02045621037 1.992711551e-13)
(0.02229422343 -0.01966289151 2.074868055e-13)
(0.01361571225 -0.009540619864 1.015576512e-13)
(0.0127957438 -0.009723913612 9.547918012e-14)
(0.009369209684 -0.006658674843 6.558642518e-14)
(0.01009165769 -0.006611473536 7.062406215e-14)
(0.001437265542 -0.0007890768264 8.507083926e-15)
(0.001168393299 -0.0006965440707 6.911138328e-15)
(9.265153029e-05 -5.251777894e-05 5.273559367e-16)
(0.0001770145946 -9.237482437e-05 9.992007222e-16)
(0 0 0)
(0 0 0)
(0 0 0)
(0 0 0)
(0 0 0)
(0 0 0)
(0 0 0)
(0 0 0)
(0 0 0)
(0 0 0)
(0 0 0)
(0 0 0)
(0 0 0)
(0 0 0)
(0 0 0)
(0 0 0)
(0 0 0)
(0 0 0)
(0 0 0)
(0 0 0)
(0 0 0)
(0 0 0)
(0 0 0)
(0 0 0)
(0 0 0)
(0 0 0)
(0 0 0)
(0 0 0)
(-0.001789274365 -0.001332214755 9.492406861e-15)
(-0.002022082208 -0.001419550496 1.074140776e-14)
(-0.002160728367 -0.001425180493 1.146305273e-14)
(-0.008724315386 -0.006274630053 5.072331444e-14)
(-0.008444216318 -0.006465910922 4.909961326e-14)
(-0.01260738145 -0.01010156908 7.692457782e-14)
(-0.01294257827 -0.00973895084 7.89923682e-14)
(-0.02565732095 -0.02242149982 1.835753771e-13)
(-0.02525106663 -0.02350007886 1.805500194e-13)
(-0.02861128018 -0.02817405361 2.169653346e-13)
(-0.02900460856 -0.02682127239 2.201572258e-13)
(-0.03374423818 -0.0381122597 3.139155602e-13)
(-0.03349865293 -0.04025820614 3.110706137e-13)
(-0.03314191676 -0.04312023515 3.330669074e-13)
(-0.03330728589 -0.04074516737 3.354677647e-13)
(-0.02664968795 -0.04389307372 0)
(-0.02674534996 -0.04676140907 0)
(-0.02369152227 -0.04686325745 0)
(-0.02364370237 -0.04542942291 0)
(-0.02359586026 -0.0439949221 0)
(-0.01443451043 -0.04430046278 0)
(-0.01448235254 -0.04573496359 0)
(-0.01295550532 -0.04578588556 0)
(-0.01293157316 -0.04506830201 0)
(-0.01290766321 -0.04435138474 0)
(-0.01367108682 -0.04432592376 0)
(-0.002219401722 -0.04470784954 0)
(-0.002243310392 -0.04542476685 0)
(-0.002267241922 -0.04614235041 0)
(-0.0007403477872 -0.04619327394 0)
(-0.0006925056721 -0.04475877313 0)
(0.009995711366 -0.04511523644 0)
(0.009900049356 -0.04798357179 0)
(0.01291145985 -0.04789996558 3.581579477e-13)
(0.01304062128 -0.0451810001 3.59254293e-13)
(0.02023475011 -0.04101266397 3.242822677e-13)
(0.01971547089 -0.04263907024 3.173433738e-13)
(0.02078342326 -0.03936978992 2.928213227e-13)
(0.02140319032 -0.03804173806 3.005651283e-13)
(0.02002655508 -0.02581198683 2.041422587e-13)
(0.01921430848 -0.02634282828 1.961208973e-13)
(0.01716607032 -0.02151437294 1.603994715e-13)
(0.01833957563 -0.02163118244 1.713074127e-13)
(0.009659605983 -0.009048564318 7.212286324e-14)
(0.008419819393 -0.008380009769 6.285250098e-14)
(0.005725942123 -0.005336131719 4.009292898e-14)
(0.0065240956 -0.005718789613 4.568567746e-14)
(0.0002405817042 -0.0001774497064 1.429412144e-15)
(0.0001086708958 -8.529671242e-05 6.383782392e-16)
(0 0 0)
(0 0 0)
(0 0 0)
(0 0 0)
(0 0 0)
(0 0 0)
(0 0 0)
(0 0 0)
(0 0 0)
(0 0 0)
(0 0 0)
(0 0 0)
(0 0 0)
(0 0 0)
(0 0 0)
(0 0 0)
(0 0 0)
(0 0 0)
(0 0 0)
(0 0 0)
(0 0 0)
(0 0 0)
(0 0 0)
(0 0 0)
(0 0 0)
(0 0 0)
(0 0 0)
(0 0 0)
(0 0 0)
(0 0 0)
(-0.0004178453931 -0.0003824209444 2.220446049e-15)
(-0.0007582225755 -0.0006615687021 4.024558464e-15)
(-0.00112653526 -0.0009348228189 5.967448757e-15)
(-0.00646961497 -0.005864560108 3.763656053e-14)
(-0.005526841441 -0.005271516398 3.216871214e-14)
(-0.009009944853 -0.00900147541 5.502542866e-14)
(-0.01019357607 -0.009675478761 6.222800053e-14)
(-0.02213074713 -0.02442577395 1.58206781e-13)
(-0.02051387676 -0.02384738452 1.467159727e-13)
(-0.02385116695 -0.02933664207 1.808275751e-13)
(-0.02549692159 -0.02977281619 1.932065619e-13)
(-0.03115377671 -0.04429943018 2.88422064e-13)
(-0.02978459975 -0.04458942385 2.757516437e-13)
(-0.03010686341 -0.04870193158 3.012173844e-13)
(-0.03127637401 -0.04807683249 3.130273818e-13)
(-0.02671796531 -0.05477954072 3.556460682e-13)
(-0.02633408207 -0.05668106049 3.497757639e-13)
(-0.02385184891 -0.05785135998 3.564926132e-13)
(-0.02396303796 -0.0554370857 3.593236819e-13)
(-0.01481720291 -0.05577513673 0)
(-0.01491288714 -0.05864413835 0)
(-0.01185912607 -0.0587459845 0)
(-0.01176344184 -0.05587698288 0)
(-0.01329035569 -0.05582605869 0)
(-0.00260209201 -0.05618252356 0)
(-0.00269777624 -0.05905152518 0)
(0.0003560048152 -0.059153372 0)
(0.0004516890455 -0.05628437038 0)
(0.009546321994 -0.05608273956 3.563260798e-13)
(0.009339099948 -0.05800516883 3.507888424e-13)
(0.01200484533 -0.05631016922 3.400335569e-13)
(0.01233256089 -0.05488815027 3.481659405e-13)
(0.01803104437 -0.04610507944 2.915168107e-13)
(0.017252971 -0.04631914121 2.789157794e-13)
(0.01772108055 -0.04154167441 2.501054919e-13)
(0.01863465797 -0.04162514841 2.63108979e-13)
(0.01590285583 -0.02562631892 1.622729728e-13)
(0.01477859964 -0.02498198257 1.506711422e-13)
(0.01256907425 -0.01942201689 1.172950626e-13)
(0.01367486804 -0.02014128468 1.277034034e-13)
(0.005391449953 -0.006312772345 4.021782907e-14)
(0.004633067269 -0.005695474669 3.455569164e-14)