/*--------------------------------*- C++ -*----------------------------------*\
| =========                 |                                                 |
| \\      /  F ield         | OpenFOAM: The Open Source CFD Toolbox           |
|  \\    /   O peration     | Version:  v1912                                 |
|   \\  /    A nd           | Website:  www.openfoam.com                      |
|    \\/     M anipulation  |                                                 |
\*---------------------------------------------------------------------------*/
FoamFile
{
    version     2.0;
    format      ascii;
    class       volVectorField;
    location    "0.09";
    object      U;
}
// * * * * * * * * * * * * * * * * * * * * * * * * * * * * * * * * * * * * * //

dimensions      [0 1 -1 0 0 0 0];


internalField   nonuniform List<vector> 
12556
(
(99.99865381 0.0032455113 -4.451059321e-21)
(99.99816119 0.01102886096 9.861072015e-26)
(99.99686131 0.02358364712 -4.444196973e-21)
(99.99469331 0.04410670966 -4.418221553e-21)
(99.99970283 0.03498775978 4.270231316e-21)
(99.99730478 0.05793366143 0)
(99.99587098 0.09363032467 0)
(99.9954113 0.1427341084 -7.525426e-21)
(99.99411671 0.2076548467 8.790768189e-22)
(99.99321858 0.2866723301 -5.768069553e-21)
(99.99343207 0.3708498763 7.180458946e-22)
(99.99403039 0.443674261 0)
(99.99830627 0.4840143833 0)
(100.0032564 0.4794922309 9.750325476e-22)
(100.0063709 0.4327631621 -1.579090192e-21)
(100.0064592 0.3610004519 9.674906771e-22)
(100.0063394 0.2825696652 0)
(100.0057056 0.2103987031 1.596984377e-21)
(100.0052819 0.1488464591 6.560121197e-21)
(100.0028253 0.1042611847 -1.840414318e-21)
(100.0112096 0.1183624627 -1.596468268e-20)
(100.0076334 0.07260870122 0)
(100.0056181 0.03865978845 -2.00325955e-21)
(100.0053704 0.01216925922 -1.410529031e-20)
(99.98799451 0.008460351632 1.782546271e-20)
(99.98253289 0.02926490329 4.453348232e-21)
(99.97041372 0.06351838811 3.111589583e-20)
(99.94986918 0.1200235564 -1.332725276e-20)
(99.95241081 0.1646024671 4.301143256e-21)
(99.92082577 0.2758321143 -4.888578377e-23)
(99.87948862 0.4462253669 0)
(99.85749718 0.6009056386 -7.58337542e-21)
(99.81155763 0.8841778484 -7.036558392e-21)
(99.7752546 1.238907966 -1.228531064e-20)
(99.76841558 1.629710067 -5.093961844e-21)
(99.80866434 1.976844444 -3.430197614e-21)
(99.90332366 2.186193105 -1.556531116e-22)
(100.0120677 2.18678678 6.940006781e-23)
(100.1079016 1.98838421 -5.357758534e-22)
(100.1595625 1.667104283 4.992076001e-21)
(100.168192 1.303644681 -9.78555128e-21)
(100.1458915 0.9726587468 0)
(100.1525117 0.7268270407 -2.78347515e-20)
(100.1080313 0.4934735377 5.362568083e-20)
(100.1052583 0.3368548441 1.545720676e-20)
(100.0729317 0.2059110121 3.183732408e-20)
(100.0545203 0.1100562172 -3.193156913e-20)
(100.0473934 0.03467637966 1.610865988e-20)
(99.96841063 0.01017588098 -1.778572375e-20)
(99.95306099 0.03657739533 -3.570686982e-20)
(99.9199145 0.08316962571 -8.011162086e-20)
(99.86496645 0.1621374445 1.066070322e-19)
(99.83597324 0.2555675524 -8.817276372e-21)
(99.74169063 0.4433196269 -8.587966096e-21)
(99.61450239 0.7333698707 -1.49096709e-20)
(99.54270211 1.051489887 0)
(99.39511322 1.587679142 2.914301737e-20)
(99.27757546 2.277242234 0)
(99.26840206 3.063915368 -3.049189505e-19)
(99.42487404 3.826119687 2.966107709e-20)
(99.77892432 4.288596227 4.182352808e-19)
(100.2119476 4.301659958 6.763396096e-20)
(100.5369042 3.861358133 1.649365385e-19)
(100.6787805 3.170955644 6.110182005e-21)
(100.6783145 2.440333423 -1.055350586e-20)
(100.5832708 1.777016795 -2.485251736e-20)
(100.5038617 1.236252731 -1.671780095e-19)
(100.3663902 0.8268906522 -3.710286978e-20)
(100.2895906 0.5080435095 -1.584930475e-20)
(100.2044902 0.3078919281 3.602284762e-20)
(100.1533884 0.1647275866 -4.047008642e-21)
(100.130867 0.05158147231 0)
(99.94760282 0.006256308608 -8.961270825e-21)
(99.91827102 0.02621234519 6.274376064e-20)
(99.85577696 0.07147776859 -1.795129003e-20)
(99.75367786 0.1539313702 0)
(99.67209801 0.2832288224 0)
(99.48644158 0.5221347276 -6.9411058e-20)
(99.22903025 0.9044226903 -1.389217996e-19)
(99.02280351 1.372020412 3.281056175e-20)
(98.68460954 2.145803013 2.187326851e-19)
(98.40466824 3.207386588 4.631743388e-19)
(98.32041093 4.571547347 -2.435519244e-20)
(98.67754332 5.971724141 -4.904292633e-19)
(99.58999769 6.871868513 0)
(100.6809308 6.801886275 5.879025613e-20)
(101.4067716 5.907288753 4.48475397e-19)
(101.6276049 4.674191212 3.367789677e-19)
(101.5275641 3.459171968 -9.680850438e-20)
(101.2926156 2.452354164 0)
(101.0431797 1.622698982 6.086617019e-20)
(100.7547866 1.059396143 -4.700718265e-20)
(100.5461615 0.6027549699 -4.059245951e-20)
(100.387979 0.3615976762 2.054634133e-20)
(100.2895694 0.1909488753 -4.122599488e-21)
(100.2445139 0.05922442544 0)
(99.93899069 -0.004633596481 0)
(99.89342806 -0.006202881079 0)
(99.79733672 0.02041773221 9.050149304e-21)
(99.63907924 0.08544404293 1.36847341e-20)
(99.49141175 0.2310103467 2.267238848e-20)
(99.18742423 0.4821039813 0)
(98.76232763 0.8914698331 0)
(98.35152256 1.469897298 0)
(97.74206382 2.438099749 0)
(97.10103262 3.954405592 1.629996473e-20)
(96.73468273 6.119341336 -4.479080226e-19)
(97.30831051 8.651320971 6.45834006e-19)
(99.33056365 10.3954373 -1.314258321e-19)
(101.7893971 10.02163359 -1.684559104e-20)
(103.1121387 8.149980462 7.094403986e-19)
(103.264247 6.022491929 -8.138358626e-19)
(102.833197 4.250357429 -2.404955737e-19)
(102.2591534 2.87870186 -5.244225681e-22)
(101.7350931 1.810743458 -1.007723893e-19)
(101.2387147 1.150247524 8.375814922e-21)
(100.8422991 0.5960984738 0)
(100.5930008 0.3517462258 4.204168641e-21)
(100.4372639 0.1805933655 -3.157469542e-21)
(100.3649345 0.05515070881 -1.046990324e-21)
(99.95761423 -0.02294039851 0)
(99.8955423 -0.06202472913 0)
(99.76631283 -0.07399286494 -1.813811907e-20)
(99.54970378 -0.04853849963 3.693467514e-20)
(99.324953 0.08577821473 0)
(98.89366172 0.2998939115 0)
(98.27443523 0.673521298 2.896790982e-20)
(97.63460232 1.270521144 -7.484971459e-20)
(96.61421054 2.330789291 1.195695135e-18)
(95.31874371 4.174715662 0)
(94.0951963 7.267744529 -2.99906172e-19)
(94.27938711 11.94127343 -9.137579223e-19)
(98.61081799 16.02303705 1.837148023e-19)
(104.3406637 14.53544774 0)
(106.2886892 10.32509532 -4.903676819e-19)
(105.8053299 6.905721101 0)
(104.6149343 4.563222101 2.838816758e-19)
(103.4570991 2.954200891 0)
(102.5053985 1.724468382 2.595026165e-20)
(101.7605077 1.054606582 -1.733935359e-20)
(101.1382254 0.4732307594 0)
(100.7852079 0.2682531583 0)
(100.5678615 0.1286715467 -1.061834536e-21)
(100.4663572 0.03801039738 -3.185745815e-21)
(100.0179494 -0.04817637454 4.427902097e-21)
(99.94114075 -0.1393220819 -4.461091775e-21)
(99.7834296 -0.2087895423 9.106371712e-21)
(99.51572324 -0.2467058902 -3.333568736e-20)
(99.20906342 -0.1536176198 8.167628137e-23)
(98.66225666 -0.02637711737 2.855625941e-20)
(97.86887766 0.2365638735 -5.919611486e-20)
(96.99071465 0.7405734858 1.920122023e-18)
(95.48916576 1.687342399 1.263886439e-19)
(93.2942395 3.439791798 3.57990131e-19)
(90.21385247 6.699290797 0)
(86.71210568 14.16418186 -4.494874262e-19)
(94.90222959 26.97536261 4.078806251e-19)
(111.3112002 20.71930819 1.745876371e-18)
(111.6673337 11.5055959 0)
(109.1958647 6.683506495 -4.088658399e-19)
(106.7169444 4.067814236 0)
(104.7475397 2.497615641 0)
(103.2476578 1.303354441 0)
(102.2430568 0.7348422359 9.47187055e-21)
(101.3812091 0.2341208669 2.792194653e-21)
(100.9264828 0.1062567458 -3.301699554e-21)
(100.6522823 0.03514681384 -3.754688577e-21)
(100.5228555 0.00797533753 9.041968795e-21)
(100.1323753 -0.07891327119 -4.428363797e-21)
(100.0445108 -0.2335463019 4.462688345e-21)
(99.86634071 -0.3748553356 -5.664786069e-21)
(99.56232279 -0.4949287932 -3.811876361e-21)
(99.18543712 -0.471079655 1.626829463e-20)
(98.55167852 -0.4718876749 9.695782588e-21)
(97.64560067 -0.3956620506 -5.043066485e-21)
(96.56221245 -0.09098624662 -1.395761123e-18)
(94.68536412 0.4779081616 1.768143835e-18)
(91.76903518 1.495158958 -8.035258713e-19)
(86.98586772 3.047310103 1.993697076e-18)
(77.92041751 5.949420506 5.242451032e-18)
(127.7609784 22.55574319 0)
(118.7585304 8.953944701 2.713691909e-18)
(112.7489537 4.543951263 0)
(108.67426 2.539305357 2.158322005e-18)
(105.8794231 1.430328852 -2.474407395e-20)
(103.8177693 0.5455933095 -5.045220569e-21)
(102.5864877 0.208629266 2.138846362e-20)
(101.5141775 -0.112058468 -3.404413813e-21)
(100.9796751 -0.122164239 2.784352634e-21)
(100.6621989 -0.09359801627 -5.278283952e-22)
(100.5098734 -0.03344778549 -8.494862511e-21)
(100.3097986 -0.1129502127 -2.132353562e-21)
(100.2159643 -0.3378943482 -1.602161331e-21)
(100.0279075 -0.5592539504 -5.495139385e-22)
(99.70654249 -0.7722089107 1.663818166e-21)
(99.27958245 -0.8377339233 -3.214112341e-23)
(98.60349083 -0.99085375 0)
(97.66068828 -1.138471257 -7.84131471e-20)
(96.46111574 -1.104464356 1.300224036e-18)
(94.44332332 -1.03998086 -1.492219334e-18)
(91.43268713 -0.9736852159 9.560591821e-19)
(86.9957293 -1.454943418 4.901939351e-20)
(81.17086764 -3.679148138 2.400215254e-18)
(139.972659 4.747684151 4.790450386e-18)
(123.2301668 1.568245478 -3.165919026e-18)
(114.9452211 0.4824049034 8.80345153e-20)
(109.8518364 0.07602612943 1.80156765e-18)
(106.5278518 -0.1287016979 1.704023718e-18)
(104.0753934 -0.4571572946 -5.150975469e-21)
(102.7020419 -0.4698253889 1.202702667e-20)
(101.4948584 -0.5294802461 1.169676943e-21)
(100.9158627 -0.3953828739 0)
(100.5743504 -0.245971083 4.285339713e-21)
(100.4079941 -0.08269293171 4.234700516e-21)
(100.5543719 -0.1476331442 4.200038222e-21)
(100.4602379 -0.4441924257 6.569202438e-23)
(100.2739188 -0.7467390071 0)
(99.9558933 -1.054788721 2.151015524e-22)
(99.50352227 -1.219410376 -2.230330015e-21)
(98.83472607 -1.529117081 2.378600668e-21)
(97.92872984 -1.897704896 -1.931469161e-21)
(96.7291898 -2.134715939 1.252649809e-18)
(94.8090887 -2.523899744 3.801309367e-19)
(92.11143462 -3.148211659 5.264675706e-20)
(88.62396277 -4.466532321 0)
(85.04090917 -6.691156049 -5.101643246e-18)
(135.7921793 -12.04055923 8.978707052e-18)
(122.3939745 -6.651011945 0)
(114.7478262 -4.162692354 1.096039505e-18)
(109.768686 -2.712052663 0)
(106.4742354 -1.881434969 2.845202682e-19)
(103.9304867 -1.558656991 4.353227215e-20)
(102.5461182 -1.213980897 0)
(101.299472 -0.9720928298 -1.143296359e-21)
(100.7189943 -0.6841502264 -4.734780146e-21)
(100.3757605 -0.4068561967 5.287090433e-22)
(100.2061678 -0.1348583354 0)
(100.8650117 -0.1803921048 -2.067502841e-21)
(100.7758998 -0.5443485155 2.085598805e-21)
(100.6019079 -0.922271556 2.032467869e-21)
(100.3081868 -1.319731094 -1.903880926e-21)
(99.85271917 -1.582138602 -2.19777159e-21)
(99.23585756 -2.032578227 0)
(98.42302296 -2.591439576 -6.598023931e-21)
(97.30358693 -3.061686569 -8.047577504e-20)
(95.59598025 -3.786367771 1.793772863e-18)
(93.30980061 -4.814388333 8.09512399e-19)
(90.51259063 -6.419030297 9.06013921e-19)
(87.72712075 -8.373373616 -1.555231408e-18)
(125.9410959 -20.78292398 -3.370411002e-18)
(117.985895 -12.42095444 -2.461333049e-18)
(112.5369589 -7.884165315 0)
(108.5760665 -5.144555192 -1.616335331e-18)
(105.7363249 -3.509894684 0)
(103.3855618 -2.587738123 0)
(102.1214825 -1.920946654 -2.842916405e-20)
(100.9277663 -1.390143743 -1.428498945e-20)
(100.3892443 -0.9573822104 1.081128093e-21)
(100.0657351 -0.5602319719 -3.415765772e-21)
(99.9034308 -0.1848087075 5.004889073e-22)
(101.2356184 -0.2089800765 7.568798939e-21)
(101.1561433 -0.6311867363 0)
(101.0024558 -1.071021069 -2.028480092e-21)
(100.7471563 -1.55355597 0)
(100.3046862 -1.898128613 0)
(99.77877522 -2.4575573 -6.526653096e-21)
(99.09690905 -3.163174826 -2.228698066e-21)
(98.11223392 -3.81027153 -2.586853269e-20)
(96.67004811 -4.7577126 7.227598915e-19)
(94.78511578 -6.027430704 1.156075232e-20)
(92.46695709 -7.825624882 0)
(89.94116226 -9.826896488 0)
(115.9270316 -23.55835534 -2.123978711e-18)
(112.3832075 -15.11992528 -3.77961533e-18)
(109.294211 -10.06687581 4.457584823e-19)
(106.622351 -6.804665026 -1.796137317e-19)
(104.4787758 -4.743226719 8.012241841e-20)
(102.5229069 -3.40959687 2.264413742e-21)
(101.47299 -2.50932705 -3.455852953e-20)
(100.4088117 -1.748105337 8.461573779e-21)
(99.94280099 -1.187944207 0)
(99.6551176 -0.6925026056 3.934294441e-21)
(99.50862275 -0.2281238652 0)
(101.6564562 -0.2326038579 7.559100511e-21)
(101.5893955 -0.7034833997 1.192220163e-19)
(101.4598457 -1.192914285 -2.401659689e-19)
(101.2468998 -1.738189602 -4.615765318e-22)
(100.8609131 -2.142516781 -1.903084158e-21)
(100.4287374 -2.777707746 0)
(99.89932376 -3.580101624 -5.01454968e-19)
(99.07296924 -4.339374357 1.137083926e-18)
(97.92058923 -5.410796454 -1.936750566e-20)
(96.44221106 -6.81738673 6.869124494e-19)
(94.62546709 -8.826692855 -9.888038897e-20)
(92.49058372 -11.18116162 1.096912043e-18)
(102.3577744 -32.31484652 0)
(107.0531607 -21.45780262 -9.160372152e-19)
(107.154241 -15.23162523 6.144733625e-19)
(105.9395407 -10.74674892 -5.765447348e-19)
(104.4152566 -7.605618158 1.253870675e-18)
(102.9658708 -5.482676258 -2.851146466e-19)
(101.4739246 -3.951446814 -6.883525619e-20)
(100.6690635 -2.926914706 0)
(99.78866536 -2.012499895 0)
(99.40627439 -1.361459921 1.229733839e-20)
(99.16341651 -0.7950099109 2.268123486e-21)
(99.03828113 -0.2617994729 -7.355582026e-21)
(102.1147527 -0.2489322913 0)
(102.0616842 -0.7541353867 0)
(101.9598902 -1.277022361 0)
(101.7916962 -1.855987447 0)
(101.4617727 -2.317891175 0)
(101.1262614 -3.005672795 0)
(100.7405776 -3.859792271 -2.519402609e-19)
(100.0942845 -4.664165753 -8.816903641e-19)
(99.22469584 -5.771693823 -1.348375009e-18)
(98.15351282 -7.201080976 -5.407412861e-19)
(96.9390996 -9.235203187 3.080519273e-18)
(95.85143013 -12.01489886 -2.43737752e-19)
(95.59963552 -21.24106537 0)
(101.7864283 -17.5560638 0)
(103.2096789 -13.70890383 1.781066446e-19)
(103.063664 -10.3308053 2.680630882e-19)
(102.3304037 -7.697413038 0)
(101.4118967 -5.762582044 1.48967694e-21)
(100.3630594 -4.222193396 -9.565349736e-20)
(99.79169117 -3.170520112 -3.605309577e-20)
(99.10928749 -2.171038715 -2.001462118e-20)
(98.80965389 -1.47493154 1.970437679e-20)
(98.61490449 -0.8637593294 0)
(98.51339994 -0.2843618788 1.971423415e-20)
(102.5975669 -0.2579982708 0)
(102.5592349 -0.7825157676 0)
(102.4873099 -1.323519438 0)
(102.3652738 -1.912100314 0)
(102.0902155 -2.403679729 0)
(101.8578084 -3.10647848 0)
(101.6104994 -3.943501745 1.315541724e-20)
(101.1488473 -4.766699252 1.101098033e-19)
(100.5436387 -5.82848142 8.970107683e-19)
(99.82798476 -7.137400556 -1.101269982e-19)
(99.16582333 -8.862177894 3.823105435e-19)
(99.12473528 -11.41046266 0)
(97.16451688 -13.95655108 6.307812836e-19)
(99.68602357 -13.51758566 -1.668271712e-19)
(100.7470069 -11.58007645 0)
(100.8927017 -9.327716572 0)
(100.549988 -7.31333088 0)
(99.99006551 -5.705737146 -2.557569535e-20)
(99.2783353 -4.266967654 0)
(98.91111064 -3.258069403 0)
(98.40678632 -2.233698734 -3.71937503e-20)
(98.18287088 -1.529328114 1.835361807e-20)
(98.03464964 -0.8983635812 7.694912914e-22)
(97.95611766 -0.2957817577 -1.35753639e-20)
(103.0914358 -0.2602315495 0)
(103.0668569 -0.7893920708 0)
(103.0227474 -1.333709198 0)
(102.9435751 -1.91480982 0)
(102.7195355 -2.416054481 0)
(102.5754084 -3.102544815 0)
(102.4365223 -3.889919685 -7.546622974e-22)
(102.1397251 -4.692033357 -1.920967364e-19)
(101.7367789 -5.667332371 0)
(101.2699776 -6.776879713 3.513407548e-19)
(100.899374 -8.079782998 3.11647295e-19)
(98.89801456 -9.411312759 4.721077949e-19)
(98.19558857 -10.6483702 5.182940274e-20)
(99.01926555 -10.61500594 0)
(99.35164812 -9.60267502 -6.530972293e-22)
(99.35330551 -8.153512347 -2.63491426e-19)
(99.12489294 -6.686852551 -5.335809451e-19)
(98.76593549 -5.407303017 0)
(98.28823752 -4.138738312 -3.138047034e-20)
(98.07823778 -3.221499638 4.772718725e-20)
(97.71327284 -2.217956853 1.156352713e-20)
(97.55356851 -1.532558964 1.974920556e-20)
(97.44557173 -0.9026652044 -2.243318153e-20)
(97.38709116 -0.2972358654 0)
(103.5838973 -0.2565911763 0)
(103.5711168 -0.7777746118 0)
(103.5502112 -1.312588747 0)
(103.5070608 -1.872383968 0)
(103.3289523 -2.367227626 0)
(103.2546823 -3.01596126 0)
(103.1947987 -3.73425062 0)
(103.0072539 -4.47931207 7.593127138e-20)
(102.7500298 -5.340684928 1.456242223e-20)
(102.409136 -6.24777578 -5.493173688e-19)
(102.1064052 -7.175332642 -8.094979177e-19)
(95.7883578 -7.278020401 3.132708215e-19)
(98.82831924 -8.556442814 4.497943221e-20)
(98.70914072 -8.577554251 -9.604282359e-20)
(98.49738563 -7.974924786 -3.030801561e-20)
(98.27012743 -7.029132502 0)
(98.01587039 -5.986322535 3.827365332e-21)
(97.75212731 -4.982174962 0)
(97.42507587 -3.904323801 0)
(97.31544478 -3.09344635 0)
(97.05238438 -2.142405179 4.004509151e-20)
(96.9430342 -1.494467388 -3.746089888e-20)
(96.86661361 -0.8818397818 -2.532554279e-21)
(96.82403462 -0.2908021499 2.541167782e-21)
(104.0642924 -0.2482115445 0)
(104.0610754 -0.751334148 0)
(104.0582318 -1.266416149 0)
(104.0431346 -1.794396529 0)
(103.9031408 -2.26982044 0)
(103.8794399 -2.867703723 0)
(103.8713995 -3.507697589 0)
(103.7420179 -4.16714685 0)
(103.552243 -4.899354957 -1.48230757e-19)
(103.2257276 -5.623425507 -1.011363083e-19)
(102.9733476 -6.322407676 -6.843144471e-19)
(93.92378019 -6.095671809 8.871558434e-19)
(99.03947365 -7.126111381 1.374333454e-19)
(98.43878741 -7.09292366 0)
(97.89053807 -6.683332152 -3.122851166e-20)
(97.48670716 -6.044022434 3.986338266e-20)
(97.17152199 -5.290455223 0)
(96.93239713 -4.507570663 0)
(96.68433312 -3.606532096 0)
(96.62909773 -2.898922363 0)
(96.43749008 -2.022236956 0)
(96.36462208 -1.423109045 0)
(96.31188851 -0.8424891325 0)
(96.28111215 -0.2789566727 0)
(104.5243963 -0.2362117857 0)
(104.5284874 -0.7136758769 0)
(104.5387062 -1.201464529 0)
(104.5437424 -1.691057556 0)
(104.432914 -2.137941262 0)
(104.441575 -2.67885554 0)
(104.4609096 -3.240414709 0)
(104.3578536 -3.810698131 0)
(104.176226 -4.406638003 0)
(103.8175619 -4.978445413 0)
(103.2654447 -5.477826778 -1.330921396e-19)
(95.23530632 -5.51782184 6.538750576e-21)
(99.06601241 -6.012835237 1.564200023e-21)
(98.19646859 -5.943788825 2.74333746e-20)
(97.45893174 -5.657926707 0)
(96.91683904 -5.203677341 0)
(96.52957872 -4.640202531 0)
(96.27483467 -4.025918839 0)
(96.05668843 -3.276828092 0)
(96.02469175 -2.668420729 0)
(95.87670012 -1.875428987 0)
(95.82724122 -1.3303104 0)
(95.78999522 -0.7896280019 0)
(95.76825744 -0.2620987777 0)
(104.9583055 -0.2216760894 0)
(104.9675218 -0.6682575664 0)
(104.9861236 -1.123686412 0)
(105.0040032 -1.571800964 0)
(104.9140128 -1.984741625 0)
(104.939681 -2.467365317 0)
(104.9676445 -2.957734616 0)
(104.869163 -3.442464022 0)
(104.6696519 -3.925791045 0)
(104.271983 -4.371322872 0)
(103.3995055 -4.711651245 0)
(96.27679254 -4.824790046 0)
(99.09699194 -5.099168182 0)
(98.04076812 -5.036548857 0)
(97.1530041 -4.822610016 0)
(96.49427306 -4.483979991 0)
(96.03433405 -4.052903709 0)
(95.74478589 -3.5648158 0)
(95.52905534 -2.942135584 0)
(95.49850796 -2.423529258 0)
(95.37284575 -1.715726251 0)
(95.3359828 -1.225537657 0)
(95.3073686 -0.7291131306 0)
(95.2912103 -0.242510795 0)
(105.362192 -0.2055997086 0)
(105.3745645 -0.6182339967 0)
(105.3974347 -1.03839626 0)
(105.4218518 -1.44446167 0)
(105.3458358 -1.821006124 0)
(105.3764705 -2.247583161 0)
(105.3986896 -2.674441416 0)
(105.2924649 -3.08253478 0)
(105.0620298 -3.475257223 0)
(104.619615 -3.825127498 0)
(103.4561587 -4.066209916 0)
(96.97045699 -4.198274721 0)
(99.10853615 -4.35341963 -3.214890882e-35)
(97.92095593 -4.295637116 0)
(96.92220054 -4.128944486 0)
(96.17192107 -3.868588963 0)
(95.6460436 -3.531962205 0)
(95.31470384 -3.140024066 0)
(95.08558586 -2.620299744 0)
(95.04307507 -2.179295206 0)
(94.92469364 -1.553020203 0)
(94.89205949 -1.116073404 0)
(94.86671364 -0.6653156063 0)
(94.85353724 -0.2217586234 0)
(105.734002 -0.1888220984 0)
(105.7478849 -0.5662639717 0)
(105.7716903 -0.9500733042 0)
(105.797506 -1.315058073 0)
(105.7302296 -1.654981255 0)
(105.7569807 -2.029734529 0)
(105.7637339 -2.39949554 0)
(105.6428692 -2.742365944 0)
(105.3762849 -3.062723732 0)
(104.8885989 -3.340609068 0)
(103.4701865 -3.513945219 0)
(97.4948501 -3.65210485 0)
(99.09969628 -3.73653956 0)
(97.82225153 -3.68142342 0)
(96.7420597 -3.547109553 0)
(95.92011614 -3.341786608 0)
(95.33704436 -3.074235189 0)
(94.96422494 -2.756649717 0)
(94.71162454 -2.320992063 0)
(94.6499321 -1.945217036 0)
(94.52874995 -1.394195469 0)
(94.49432803 -1.007251345 0)
(94.46836343 -0.6014651711 0)
(94.45615912 -0.200915208 0)
(106.0731689 -0.1720026359 0)
(106.0872583 -0.5144107147 0)
(106.1094956 -0.8622037527 0)
(106.1328179 -1.188112475 0)
(106.0701391 -1.492624314 0)
(106.0871128 -1.820514404 0)
(106.0727293 -2.138369752 0)
(105.9330842 -2.427994668 0)
(105.6299411 -2.69036567 0)
(105.0994062 -2.913422291 0)
(103.4634242 -3.039076912 0)
(97.88830584 -3.178412377 0)
(99.07848732 -3.21867566 -3.918891073e-35)
(97.73855082 -3.165999686 0)
(96.59770658 -3.055159261 0)
(95.71954035 -2.889926986 0)
(95.08784027 -2.674082561 0)
(94.67608757 -2.41414555 0)
(94.39577174 -2.047574634 0)
(94.31085678 -1.726760152 0)
(94.18047174 -1.243765468 0)
(94.14023616 -0.9027058883 0)
(94.11101723 -0.5397998971 0)
(94.09831594 -0.1807183767 0)
(106.380281 -0.1556363589 0)
(106.393578 -0.4641856426 0)
(106.4124656 -0.7773140077 0)
(106.4305366 -1.066827921 0)
(106.3693528 -1.337984036 0)
(106.3727997 -1.623868684 0)
(106.3349512 -1.896177684 0)
(106.1738745 -2.14145197 0)
(105.8362407 -2.357391374 0)
(105.2660247 -2.538007661 0)
(103.4489526 -2.629701282 0)
(98.18128845 -2.767554389 0)
(99.04967137 -2.779827216 0)
(97.66631416 -2.729630375 0)
(96.47971804 -2.636625453 0)
(95.55722371 -2.501584184 0)
(94.88453795 -2.325349103 0)
(94.43731838 -2.110751639 0)
(94.12829243 -1.8011776 0)
(94.01842053 -1.526745623 0)
(93.87501473 -1.104423449 0)
(93.8264649 -0.8047411804 0)
(93.79231074 -0.4817781312 0)
(93.77808593 -0.1616540317 0)
(106.6567272 -0.1400813088 0)
(106.6684914 -0.4166530278 0)
(106.6828183 -0.6971481264 0)
(106.6937956 -0.9533494319 0)
(106.631834 -1.193667006 0)
(106.619552 -1.442270563 0)
(106.5573224 -1.675300115 0)
(106.374199 -1.883234602 0)
(106.0052202 -2.061750258 0)
(105.3983705 -2.208933778 0)
(103.4342897 -2.276283274 0)
(98.3986499 -2.411368833 0)
(99.0161857 -2.405730362 1.194109945e-35)
(97.60325517 -2.358042567 0)
(96.38189139 -2.279079702 0)
(95.42426083 -2.167438478 0)
(94.71715839 -2.022196406 0)
(94.23815857 -1.843795501 0)
(93.90104043 -1.581475638 0)
(93.7660485 -1.346236029 0)
(93.60760353 -0.9775476714 0)
(93.54934199 -0.7146923351 0)
(93.50927351 -0.4282797102 0)
(93.49284289 -0.1440212584 0)
(106.904427 -0.125583684 0)
(106.9141326 -0.3725260415 0)
(106.9231291 -0.6228452342 0)
(106.9258694 -0.848988878 0)
(106.8615442 -1.061185636 0)
(106.8324512 -1.276983697 0)
(106.7459432 -1.476330708 0)
(106.5412722 -1.652680651 0)
(106.1444845 -1.800818361 0)
(105.5037954 -1.921226164 0)
(103.4234 -1.971003756 0)
(98.55981643 -2.102764633 0)
(98.97993563 -2.085693968 0)
(97.54776264 -2.040534751 0)
(96.29993467 -1.972930384 0)
(95.31433313 -1.879857868 0)
(94.5783571 -1.759315218 0)
(94.0711491 -1.610195547 0)
(93.7073659 -1.387275149 0)
(93.54800978 -1.185193614 0)
(93.37370398 -0.8636248212 0)
(93.30509876 -0.6332058005 0)
(93.25864004 -0.3797624088 0)
(93.23958195 -0.127981814 0)
(107.1256517 -0.1122990756 0)
(107.1329448 -0.3322412048 0)
(107.1361758 -0.5550834598 0)
(107.1300526 -0.7544490603 0)
(107.0622458 -0.9413070761 0)
(107.0160151 -1.128433508 0)
(106.9059714 -1.29899219 0)
(106.6808911 -1.448559493 0)
(106.2597592 -1.571867286 0)
(105.5878449 -1.670558264 0)
(103.4179884 -1.707557031 0)
(98.67964091 -1.835805312 0)
(98.94225782 -1.81158234 0)
(97.49865396 -1.768953289 0)
(96.230766 -1.710722701 0)
(95.22283797 -1.632654098 0)
(94.46262712 -1.532078934 0)
(93.93050129 -1.406888065 0)
(93.54184029 -1.216986945 0)
(93.35937523 -1.042971368 0)
(93.1690957 -0.7625718415 0)
(93.09002147 -0.5604549305 0)
(93.03703932 -0.3363845473 0)
(93.01512039 -0.1135988587 0)
(107.3228937 -0.1003136471 0)
(107.3275502 -0.2960260179 0)
(107.3248216 -0.4941987142 0)
(107.309573 -0.6699976323 0)
(107.2375135 -0.8342421906 0)
(107.1743069 -0.9964712374 0)
(107.0418352 -1.142493013 0)
(106.7977944 -1.269336943 0)
(106.3554477 -1.372235276 0)
(105.6548023 -1.453169824 0)
(103.4183323 -1.480795492 0)
(98.76940538 -1.605578066 0)
(98.90409154 -1.577053304 0)
(97.45500782 -1.536909496 0)
(96.17207048 -1.486522908 0)
(95.14629397 -1.420737221 0)
(94.36570589 -1.336468913 0)
(93.81160207 -1.230969961 0)
(93.3999397 -1.068835617 0)
(93.19584099 -0.9185602306 0)
(92.98989318 -0.6739543434 0)
(92.90053986 -0.4963037417 0)
(92.84111779 -0.2981049608 0)
(92.81623306 -0.1008691019 0)
(107.4987215 -0.08966564517 0)
(107.5006116 -0.2639648711 0)
(107.4918938 -0.4402968854 0)
(107.4675034 -0.5956306202 0)
(107.3906544 -0.7398753379 0)
(107.3109277 -0.8806354324 0)
(107.1573114 -1.005820821 0)
(106.8958783 -1.113420246 0)
(106.4350131 -1.199497455 0)
(105.7080285 -1.26586317 0)
(103.4240048 -1.286629936 0)
(98.83754907 -1.408112109 0)
(98.86605933 -1.377151849 0)
(97.41607657 -1.339382273 0)
(96.12205531 -1.295606545 0)
(95.08200014 -1.239954025 0)
(94.28422788 -1.169077723 0)
(93.71072231 -1.079827302 0)
(93.27788542 -0.9410664218 0)
(93.05367035 -0.8108186466 0)
(92.83256826 -0.5971668152 0)
(92.73330523 -0.4404412982 0)
(92.667652 -0.2647661102 0)
(92.6397804 -0.08974995722 0)
(107.6557666 -0.08035951834 0)
(107.6548209 -0.2360442343 0)
(107.6401859 -0.3933301697 0)
(107.6067966 -0.5311628986 0)
(107.5247284 -0.657896414 0)
(107.4290953 -0.7803084737 0)
(107.2555927 -0.8878145165 0)
(106.9784266 -0.9792544901 0)
(106.5012715 -1.051477749 0)
(105.7502166 -1.105881604 0)
(103.434351 -1.121640124 0)
(98.89029285 -1.239996901 0)
(98.82855256 -1.207907926 0)
(97.38120916 -1.172350124 0)
(96.07926759 -1.134144936 0)
(95.02778546 -1.086873767 0)
(94.21545219 -1.027015033 0)
(93.6247206 -0.9511348047 0)
(93.17247634 -0.8320425176 0)
(92.92957981 -0.7185918922 0)
(92.69387199 -0.5315239329 0)
(92.58515953 -0.3924640072 0)
(92.51354203 -0.2361454175 0)
(92.482709 -0.08017569999 0)
(107.7964736 -0.07238398025 0)
(107.7926743 -0.212200501 0)
(107.772259 -0.3531593647 0)
(107.7301126 -0.4763681904 0)
(107.6425504 -0.5878934086 0)
(107.5317217 -0.6948318948 0)
(107.3394059 -0.7870021275 0)
(107.0481681 -0.8655095071 0)
(106.5565473 -0.9262854838 0)
(105.7835284 -0.9708889567 0)
(103.4485461 -0.9829442438 0)
(98.93235295 -1.098355835 0)
(98.79183019 -1.066125018 -1.111645132e-36)
(97.34981446 -1.032576821 0)
(96.0424924 -0.9990349839 0)
(94.98186665 -0.9586769376 0)
(94.15713022 -0.9078709815 0)
(93.55102584 -0.843222303 0)
(93.08085603 -0.7404689702 0)
(92.82064699 -0.6407673591 0)
(92.57095359 -0.4763836788 0)
(92.45328157 -0.3519379441 0)
(92.37598763 -0.2120040869 0)
(92.34225481 -0.07207574306 0)
(107.9238057 -0.06570316512 0)
(107.9171168 -0.1923163915 0)
(107.8910471 -0.3195855883 0)
(107.8404306 -0.4308580258 0)
(107.7467587 -0.5294321936 0)
(107.6214692 -0.6234481607 0)
(107.4116508 -0.702539414 0)
(107.107317 -0.7708463234 0)
(106.6027991 -0.8222753983 0)
(105.809727 -0.8589295905 0)
(103.4656834 -0.8682571564 0)
(98.96737201 -0.980876339 0)
(98.75605392 -0.9492197962 0)
(97.32135141 -0.9174606572 0)
(96.01068669 -0.887776211 0)
(94.94273779 -0.8530585687 0)
(94.10738308 -0.8096009636 0)
(93.48766754 -0.754278473 0)
(93.00040478 -0.6650701248 0)
(92.72423853 -0.5763381555 0)
(92.46079417 -0.4310288054 0)
(92.33462681 -0.318431472 0)
(92.25189678 -0.1920854261 0)
(92.21529358 -0.06536636681 0)
(108.0385003 -0.06032802181 0)
(108.0290219 -0.1763615025 0)
(107.9975081 -0.292433298 0)
(107.9387641 -0.3947414785 0)
(107.8397964 -0.4819993398 0)
(107.7007289 -0.5653828965 0)
(107.4750779 -0.6345826004 0)
(107.1579009 -0.6939007425 0)
(106.6417709 -0.7380026934 0)
(105.8303124 -0.7683495802 0)
(103.48498 -0.7757661205 0)
(98.99809735 -0.8856886379 0)
(98.72131353 -0.8551070617 0)
(97.29532088 -0.8249179878 0)
(95.98292256 -0.7983606037 0)
(94.90906606 -0.7681437987 0)
(94.06449537 -0.7304833859 0)
(93.43250007 -0.6821607323 0)
(92.92911026 -0.604256834 0)
(92.63792412 -0.5242543132 0)
(92.36223971 -0.3952393897 0)
(92.22802524 -0.2915915049 0)
(92.1401426 -0.1762421603 0)
(92.10082284 -0.06001797685 0)
(108.1493429 -0.05609718798 0)
(108.1367317 -0.1639879888 0)
(108.0995831 -0.2713372811 0)
(108.0325604 -0.3660193563 0)
(107.9243034 -0.4453838339 0)
(107.7715876 -0.5203224023 0)
(107.5310024 -0.5826299969 0)
(107.2020482 -0.6338189802 0)
(106.6750485 -0.6723151038 0)
(105.846582 -0.6978092353 0)
(103.5058298 -0.7039837719 0)
(99.02661034 -0.8112694847 0)
(98.68766861 -0.7821741199 0)
(97.27126308 -0.7533382304 0)
(95.95835927 -0.7292306477 0)
(94.87965391 -0.702477447 0)
(94.02690766 -0.6692329709 0)
(93.38345295 -0.6261904312 0)
(92.86513966 -0.557157741 0)
(92.55967677 -0.4843819861 0)
(92.2684226 -0.3669468613 0)
(92.12584807 -0.2709543035 0)
(92.03273144 -0.1640569488 0)
(91.99039207 -0.055841523 0)
(108.233698 -0.05349771914 0)
(108.2189455 -0.1561579008 0)
(108.1772112 -0.2572241838 0)
(108.1041404 -0.3505373197 0)
(107.9996733 -0.4189814353 0)
(107.8359947 -0.487543088 0)
(107.5811855 -0.5454259435 0)
(107.2413364 -0.589915065 0)
(106.7040306 -0.6243246454 0)
(105.859674 -0.6462812614 0)
(103.5277165 -0.6517715682 0)
(99.05461216 -0.7564474182 0)
(98.65514843 -0.7291870714 0)
(97.24874142 -0.7014826463 0)
(95.93621707 -0.6791944341 0)
(94.8534099 -0.654947159 0)
(93.99325088 -0.6248540326 0)
(93.33909686 -0.5855636454 0)
(92.80660174 -0.5232088155 0)
(92.48771483 -0.4557189133 0)
(92.19571506 -0.3503739332 0)
(92.0470987 -0.2574554409 0)
(91.94990197 -0.1563472233 0)
(91.90557115 -0.05328963896 0)
(108.3877822 -0.05064093456 0)
(108.3686812 -0.1487897823 0)
(108.3187764 -0.2445775881 0)
(108.2310275 -0.331073812 0)
(108.0710141 -0.4026063517 0)
(107.8932358 -0.4674863966 0)
(107.6252923 -0.5228867525 0)
(107.2772634 -0.5615977389 0)
(106.7299832 -0.5933405896 0)
(105.870669 -0.6130537398 0)
(103.5501382 -0.6184489453 0)