/*--------------------------------*- C++ -*----------------------------------*\
| =========                 |                                                 |
| \\      /  F ield         | OpenFOAM: The Open Source CFD Toolbox           |
|  \\    /   O peration     | Version:  v1912                                 |
|   \\  /    A nd           | Website:  www.openfoam.com                      |
|    \\/     M anipulation  |                                                 |
\*---------------------------------------------------------------------------*/
FoamFile
{
    version     2.0;
    format      ascii;
    class       volScalarField;
    location    "2.17";
    object      omega;
}
// * * * * * * * * * * * * * * * * * * * * * * * * * * * * * * * * * * * * * //

dimensions      [0 0 -1 0 0 0 0];


internalField   nonuniform List<scalar> 
12556
(
31.93051542
31.93133795
31.93223987
31.93309768
31.96659852
31.96708756
31.9674198
31.96802633
31.96923446
31.97149936
31.97521261
31.98018951
31.98454594
31.98662075
31.98545174
31.98151006
31.9768213
31.97236724
31.9702224
31.96816848
31.93491192
31.93354813
31.93242658
31.93139523
31.79326641
31.79566707
31.79830273
31.80075708
31.83499289
31.83669635
31.83840722
31.85690307
31.86233728
31.87260633
31.88960088
31.9124026
31.93477107
31.94627292
31.94247288
31.92509668
31.90287368
31.88338304
31.85429089
31.84413564
31.80650086
31.80291455
31.79966552
31.79659875
31.65735368
31.66169002
31.66631398
31.67027671
31.70504459
31.70810888
31.71182886
31.73346049
31.74638158
31.7703897
31.81117752
31.8645517
31.90960583
31.93404478
31.92587204
31.88856406
31.84122656
31.79750799
31.74878471
31.72673866
31.68299884
31.67586278
31.67012922
31.66518256
31.5231502
31.5288858
31.53508592
31.54045979
31.57611526
31.58112585
31.58870355
31.61693456
31.64376023
31.69890806
31.79202355
31.91000733
31.99361287
32.02799609
31.98899213
31.917343
31.82877817
31.74370961
31.66329223
31.62135844
31.56466351
31.55273891
31.54395761
31.53683511
31.39091177
31.39831807
31.40628579
31.41313514
31.44943876
31.45683
31.46970202
31.50830448
31.56605378
31.68786565
31.90756163
32.20506672
32.43887991
32.44568153
32.27590982
32.08436796
31.90771848
31.74436316
31.60917787
31.53288265
31.45458059
31.43410417
31.42080432
31.41101188
31.25998096
31.26884917
31.27830294
31.28671472
31.32508693
31.33654877
31.35827455
31.41380957
31.52277385
31.78332871
32.35799201
33.40493567
34.24188223
33.95398497
33.13103971
32.54146141
32.15566918
31.83435551
31.59525502
31.4654122
31.35340094
31.31876382
31.2993524
31.2864398
31.13116879
31.1416929
31.15306834
31.16338427
31.20308918
31.21996694
31.25497247
31.33655717
31.5230442
32.05261452
33.49898494
38.13746085
44.19939607
41.16536955
35.44139244
33.55056707
32.66606815
32.05975667
31.62296063
31.4212233
31.26115556
31.20740544
31.17936996
31.16258697
31.00424251
31.01620799
31.02925131
31.04161096
31.08438455
31.10814356
31.1598895
31.27283972
31.55846741
32.45493996
35.34123182
49.7905738
65.20987236
40.86778685
35.38224814
33.52045806
32.45112141
31.71571901
31.39713692
31.17773375
31.099272
31.06013613
31.0387711
30.8800364
30.89385405
30.90933033
30.92457873
30.96988891
31.00198581
31.07291758
31.21972751
31.61692714
32.866447
36.79879748
58.21400468
119.0011134
49.01286555
37.96586836
34.67166348
32.98247782
31.86091359
31.39310643
31.10266734
30.99618746
30.94342988
30.91659996
30.75838982
30.77370628
30.79137341
30.80965397
30.85988042
30.90133856
30.99285571
31.17306604
31.67716126
33.19928262
37.67490777
65.04023513
148.4555056
56.23878037
40.71214249
35.99476985
33.59454363
32.03725652
31.40128517
31.03517132
30.89856401
30.83087243
30.79796834
30.64078885
30.65834072
30.67875123
30.70082968
30.75480547
30.80601875
30.91854139
31.13268228
31.74192321
33.49295193
38.4756218
73.69055859
149.1332048
60.62954398
43.19653843
37.28461532
34.19988867
32.2125792
31.4191214
30.97431163
30.80908335
30.72589598
30.68640886
30.52608353
30.54516399
30.56806156
30.59430795
30.65387248
30.71547025
30.8486293
31.09862677
31.81040661
33.78265904
39.4719882
84.66135398
138.6614452
62.65554276
45.11058131
38.36718204
34.70162531
32.35914444
31.437031
30.91931722
30.72649963
30.6288279
30.58266717
30.41629488
30.43747034
30.46361889
30.4944434
30.55617931
30.62882193
30.78204444
31.0676681
31.88326511
34.0872921
40.8259492
95.23249807
608.8607227
120.1701414
63.38170145
46.39096773
39.22660409
35.05636342
32.45888266
31.44549173
30.86740372
30.65182658
30.54068483
30.48822245
30.30874621
30.3318149
30.36106424
30.39614072
30.46394817
30.55161021
30.72934236
31.05079624
31.99295269
34.51715104
43.04280012
145.4995267
383.9271022
112.2590158
63.56496953
47.47899235
39.72607025
35.22196088
32.51018758
31.43784396
30.81323208
30.58063956
30.45808367
30.40007845
30.20524781
30.23027365
30.2624974
30.30132791
30.37251124
30.47160265
30.66477531
31.00560375
31.97640854
34.63283448
45.40296459
496.9651056
275.0601595
105.782765
63.85337212
48.07707599
39.99842844
35.23499675
32.502665
31.41125321
30.75739129
30.51208722
30.37972097
30.31680145
30.1022727
30.12912821
30.16430139
30.2074479
30.28298735
30.392181
30.59956578
30.94456448
31.87877131
34.43908682
45.87483209
620.2922521
254.6190746
106.8612238
65.69313223
48.78786465
39.9797572
35.13464222
32.45697317
31.36653176
30.69357868
30.43961106
30.30067266
30.23398566
30.00242552
30.0311418
30.06902816
30.11561577
30.19441257
30.31232911
30.53305147
30.88414585
31.74880709
34.035064
43.39734966
328.3650662
304.7781358
116.229174
69.0144148
49.47353527
39.75035099
34.98689934
32.38048879
31.30583667
30.62415499
30.3654821
30.22084776
30.15070899
29.90111668
29.9314533
29.97202242
30.02274759
30.10603973
30.23134809
30.46389338
30.83383392
31.66218667
33.67888604
40.9161075
171.2130464
436.907873
130.4350112
72.02008051
49.39766706
39.38609666
34.80779683
32.27888943
31.22609119
30.54332474
30.28243948
30.13541366
30.06267109
29.80239876
29.83426673
29.8772022
29.93097568
30.01713513
30.14881881
30.39195508
30.7812587
31.64706284
33.62156158
40.19954248
130.5745051
509.1248496
137.5028016
71.83149075
48.6227839
39.01964413
34.61521968
32.16283551
31.13368467
30.45546288
30.19474557
30.04615948
29.97194859
29.70048322
29.73351712
29.77874823
29.8365038
29.92727347
30.06458776
30.31741741
30.72612959
31.63801275
33.74644755
41.32398016
144.3671597
451.9256827
131.9249412
70.21721482
47.85854391
38.6731889
34.42014275
32.03780529
31.03164924
30.35861656
30.09847295
29.94912527
29.87412024
29.60155859
29.63556117
29.6825894
29.74283518
29.83598339
29.97859909
30.24064055
30.66852977
31.6300597
33.91445817
43.12601159
163.6715289
387.9377242
125.5759084
68.64366987
47.20133955
38.35376887
34.22841768
31.90759201
30.92246389
30.25719408
29.99900378
29.84956733
29.77418683
29.49795151
29.53252327
29.58126351
29.64514722
29.74312133
29.89080678
30.16195198
30.60903432
31.62233879
34.117821
45.69556246
180.3947212
334.6572181
119.8311472
67.2350609
46.66882306
38.06468377
34.04315687
31.77491611
30.80812066
30.1483311
29.89133516
29.74210774
29.66686682
29.39878666
29.43372891
29.48356098
29.54902818
29.64849306
29.80123209
30.08160923
30.54824541
31.61664348
34.36999382
48.70705094
192.6460532
293.0531543
114.8255817
65.96859581
46.23282412
37.80924089
33.86669555
31.64184402
30.69023555
30.03798007
29.78337063
29.63475573
29.55986896
29.29325765
29.32825142
29.37923554
29.44793835
29.5523927
29.71004009
29.99992237
30.48689301
31.61620071
34.71143782
51.66368231
202.1006422
260.5990906
110.4165374
64.81537986
45.85803178
37.58644838
33.7007592
31.50999534
30.5702243
29.92136313
29.66752883
29.51945194
29.44520636
29.19464488
29.22956566
29.28105613
29.35038103
29.45491229
29.61756712
29.91738088
30.42599367
31.6255633
35.18123312
54.40253424
209.9313309
235.4173911
106.4848679
63.75398525
45.52025932
37.39080415
33.54588128
31.38047843
30.44917088
29.80658928
29.55505128
29.40780129
29.33423397
29.08717283
29.1218138
29.17409245
29.24654546
29.35666626
29.52423975
29.83459525
30.3667384
31.65129804
35.77365392
56.93556408
215.4588084
215.671099
102.9420247
62.76881455
45.20645046
37.21548538
33.40133441
31.2538334
30.32795338
29.68546138
29.43375776
29.28698463
29.21421199
28.99034363
29.02466259
29.0770784
29.14933466
29.25770971
29.43050582
29.75219492
30.31036818
31.70008462
36.44812287
59.29675423
218.9470585
199.8823369
99.72123284
61.84756305
44.90937164
37.05465591
33.26571584
31.13019379
30.20708025
29.56988157
29.32031308
29.17433026
29.10228263
28.88067523
28.91454825
28.96757111
29.04320132
29.15877639
29.33675861
29.67073963
30.25812
31.7770996
37.16529516
61.50365275
220.6685924
186.8703582
96.76704504
60.97933055
44.624576
36.90403981
33.13746388
31.0094272
30.08700649
29.44584966
29.19496025
29.04923399
28.97794228
28.78716297
28.82061647
28.87359855
28.94835215
29.05962824
29.2433423
29.59073422
30.21134553
31.88459712
37.89991672
63.56448473
221.0182454
175.8793575
94.03776604
60.15574242
44.34933014
36.76071491
33.01517279
30.89130553
29.96781931
29.332368
29.08362353
28.93854229
28.86788567
28.6745005
28.70744914
28.76095548
28.83953887
28.9611683
29.15055877
29.51265293
30.1714085
32.02153152
38.63731647
65.48415385
219.9578262
166.3605945
91.50294673
59.37086248
44.0818771
36.62264925
32.89763523
30.77556508
29.84982418
29.20533894
28.95408047
28.80902043
28.73900606
28.58627386
28.61880428
28.67224778
28.74947601
28.86275413
29.05868188
29.43698189
30.13971425
32.18474396
39.36770499
67.25048467
217.5266929
157.9451932
89.1408899
58.62083952
43.8210524
36.48837748
32.78383656
30.6619577
29.73285078
29.09698074
28.84801292
28.7033907
28.63386795
28.46905964
28.50108388
28.55499044
28.63639826
28.76569259
28.96799627
29.36424986
30.11723211
32.37010873
40.08456837
68.85902558
214.2878345
150.4250482
86.93506607
57.90259811
43.56586094
36.35676154
32.67292638
30.55026774
29.61729131
28.96496549
28.71252706
28.56776701
28.49876123
28.38879313
28.4204621
28.47441905
28.55456209
28.66879732
28.8788092
29.29500967
30.10482577
32.57339454
40.78350385
70.31397752
210.459206
143.6666871
84.87026283
57.21295595
43.31524138
36.2268394
32.56414868
30.44035969
29.50278856
28.86607243
28.61575978
28.47116733
28.40250076
28.26441539
28.29560035
28.34995807
28.43379303
28.57430129
28.79158706
29.22990156
30.10288598
32.79081924
41.46199361
71.62563899
205.9181998
137.573453
82.93292322
56.54909105
43.06824849
36.09783
32.45691203
30.33232907
29.39025813
28.72421454
28.47058765
28.3258128
28.25755686
28.19573645
28.22668309
28.28126958
28.36555529
28.48055737
28.70708631
29.16982195
30.11114782
33.0191543
42.11882582
72.81828569
200.7511891
132.0630449
81.11326938
55.90896355
42.82406297
35.96905935
32.35069363
30.22681851
29.27968108
28.64223868
28.38876839
28.24387435
28.17580201
28.03739712
28.0678595
28.12310874
28.21141442
28.3922928
28.62685314
29.11647432
30.12946639
33.25392265
42.7468509
73.89085828
195.2888804
127.0868548
79.41595811
55.29576223
42.58338369
35.84047078
32.24531976
30.12577948
29.17435949
28.45952459
28.20256701
28.05724617
27.98952522
57.67200091
138.7174517
72.78051559
64.01314026
177.0578656
143.9441133
72.56330792
175.9652357
178.5859534
83.31451542
160.0717921
174.0654143
94.12789258
744.1589935
636.3019224
144.6932895
157.7377897
124.3335612
473.1975674
729.575909
400.0927746
141.0941093
143.1954406
47.95894097
43.34513543
67.18691333
41.05380802
378.9531488
139.9029172
112.920961
52.78773059
43.94161869
37.48595947
55.04890967
51.43112981
1236.367563
868.3079094
146.7688045
63.49404293
55.82309231
38.29156605
61.38476288
55.74213295
68.25236794
199.623227
174.7730284
735.1232935
986.6358855
150.0596572
69.48431763
65.51947904
39.25997919
68.84986369
62.22673976
77.3888682
307.0175813
237.3052369
433.7091187
562.5673767
40.53500049
79.07225148
69.84113775
86.99859979
497.8618218
387.33666
1637.204539
285.7304277
332.1652205
42.65546193
100.7381638
80.65849158
104.1001369
1152.538879
737.5226505
153.5355168
363.8212444
466.1121446
133.849736
162.5070992
86.82474751
129.0974994
843.8971469
397.8583138
109.5541274
325.6953428
601.6844388
171.7013062
151.59003
60.87356671
201.2331644
219.1926931
168.0147347
197.8416369
996.5670866
1238.469939
162.8571373
880.176
781.6456571
621.4645862
876.6258425
160.6165626
233.6971754
203.7124514
69.31646138
265.8715989
313.7107995
221.5013468
262.414441
586.0086421
720.2482935
179.2629261
558.8642162
447.3622694
774.3898879
577.386594
179.7879973
382.6029371
310.6714736
78.72928643
386.3865913
496.5320776
316.8810312
381.9413681
341.8618659
418.9948465
725.5424788
508.4170066
87.42549299
2436.170975
705.9424657
1104.848445
502.2854826
688.0151441
2843.068595
263.6611959
281.0130414
1446.132598
8545.156957
1164.32088
105.5980175
539.830186
1833.185292
7671.644957
1114.94838
1799.016701
554.2433461
36.51596499
50.99152051
44.99963513
54.34006712
106.7466726
76.5030287
2094.054833
364.6855775
60.27669694
149.1727803
129.2024079
4711.780062
140.3546652
71.47302931
70.34709896
5121.389442
622.2617643
690.1246287
485.2678187
234.8605709
254.966601
125.7483811
109.4456299
55.36663469
1236.845901
183.3908426
434.5407207
118.4428476
289.721666
101.4583285
705.475463
894.6269809
166.1040277
346.4980952
295.8565222
433.5010783
355.8504923
168.3840466
1018.839204
3940.30892
645.4364158
65.80298188
54.47588374
80.36996175
123.6043692
63.8408688
67.48795732
2795.513277
268.3161331
1989.179131
282.9161269
1470.840245
242.3779164
1007.292021
993.5636021
837.4671146
854.8953512
1672.769167
3874.674899
482.5032129
1997.578258
1110.591442
4385.053924
2366.658714
501.2968364
427.6103594
154.9869762
163.1751297
523.7909029
593.5063232
4521.447892
803.893914
210.9838719
225.8433571
193.4384695
205.4493054
800.1951639
1048.16659
1236.076441
144.5692811
752.0413874
579.3624432
1232.456351
755.0576403
147.9326961
107.5651528
305.1011688
149.8942804
501.4985493
331.7159263
114.4600418
458.5838719
738.2694231
598.0456568
568.2656349
204.3738241
1439.305931
205.0577749
180.9886852
1349.305347
1256.778728
1428.245308
1361.162734
185.0610619
1047.935265
1057.337522
821.7369718
294.9768559
287.3406587
297.18558
296.2343022
816.7129091
739.318811
262.5455037
241.3000992
283.6431483
268.7903312
753.941905
287.6362789
290.7285227
238.9183248
241.4453546
619.3402279
4559.343393
630.3200314
419.9853088
427.3560818
348.2913464
352.7719415
1050.602436
777.0830822
381.5570465
945.7790741
1553.259748
567.3203182
178.702672
189.3646535
166.1236754
175.4096812
557.5724322
1113.651916
758.1548017
772.5311212
544.2327287
549.4815971
5362.640005
866.0068143
452.4344117
503.2771767
232.3421658
245.7354861
1456.993569
2948.723014
1208.205958
2095.666132
1159.353963
6122.688844
2371.62807
5203.864591
1155.470649
616.1870668
3530.123337
1520.59143
2486.46422
1582.19705
2145.686487
44.83440932
112.0490824
104.087092
165.5272203
4185.282208
7760.566611
287.3754227
129.3164771
138.2911153
861.6067587
2506.613171
3658.585282
400.6107306
436.6274721
814.7765746
216.7135851
228.3775552
472.8599655
122.2972587
88.74247986
168.9959755
298.5324878
110.8664051
127.3099742
1162.600083
2733.899853
2867.167641
930.7448507
780.0582121
2142.834882
1582.819431
3588.9253
3567.292306
945.6999431
278.6870346
122.5948356
127.6874451
116.3318493
120.9744416
272.7213855
145.4580263
152.5690897
422.4451562
1057.066679
401.6448235
423.0586296
6400.26518
3023.291713
434.480634
732.431206
2461.785909
2718.739495
428.0981975
195.7916635
165.7875249
232.7167817
206.008054
446.451181
1020.699046
3510.206277
3591.146291
1182.890494
220.0188123
110.6006225
114.8670434
678.119219
661.9430898
303.5047337
1499.392801
1384.025703
681.9771288
508.0428428
270.2932815
279.5110767
699.920181
292.4919153
296.627626
282.7368916
290.2025382
688.2885222
342.3114139
137.0099989
143.2757316
129.4591963
135.0379211
337.5519547
399.7557664
1024.333429
1011.968437
1671.083842
1618.262666
473.3430745
329.0078604
719.873189
680.8728893
1006.545774
997.1130549
369.2549805
370.0592772
749.812478
606.8500006
5615.415791
1639.769073
732.3874732
924.5488768
519.6722004
1708.951916
1679.368226
1721.483483
597.2619279
4403.821965
8887.757621
317.3120896
372.6826526
431.2311755
451.0208702
1177.599242
1385.317399
903.3856799
501.1129848
1856.967266
7735.335012
1305.310976
1143.839747
16158.31113
1128.470933
1708.273447
1244.921253
1486.010737
1119.31454
4664.589957
4742.96936
1086.193502
1410.263699
5336.293516
1311.420621
1245.294088
280.2014278
1016.180728
410.6574163
1015.732306
304.7970246
3585.05853
2375.782426
793.2136092
4321.740906
5084.609902
4117.723813
2722.93701
867.1694375
4295.775963
5473.251656
2684.430459
4057.408506
5831.811873
1526.153427
2319.897462
1080.949669
1361.805326
5228.947155
2854.258598
847.747582
533.6998375
1362.202908
930.2867213
483.7921583
310.8510849
834.7383486
3024.891248
3841.748798
1107.033522
945.8169501
2902.765104
3030.544152
2340.948848
2223.88944
797.5050141
3954.434792
3865.89418
2805.200267
3850.79119
3824.810079
922.2445116
3706.131761
2407.442739
2492.028231
2839.321425
1509.183741
713.698412
768.9989044
3197.679706
892.9525615
1007.709764
791.5821572
860.0600267
2979.602228
3138.496951
851.9465244
1002.77953
371.4147738
394.2122347
956.9685712
768.2372473
349.2979521
365.6699798
1165.387888
1183.104137
731.3176694
247.8313189
270.8930576
221.9698429
241.2949262
722.5896959
814.5076388
312.1176208
345.1359177
279.144239
303.6862867
819.4935503
437.2884278
199.2087482
216.429565
645.4647488
678.3840529
1776.855061
1857.399862
694.9471848
2605.373143
2624.873237
3308.356888
1811.409082
1511.412699
2539.485311
1792.630762
484.6158131
1281.122531
1698.437715
1495.010691
463.3103472
529.7017649
435.7412915
451.7804132
1451.271279
584.9669578
598.9796153
551.999527
580.0082378
1315.507678
377.198979
392.1079018
353.7642721
372.0057418
1301.91113
1400.174896
416.2638636
430.3450106
397.0115007
411.4442529
1393.639264
3370.488152
3457.580798
1027.978521
1137.82407
3478.551056
3343.818781
943.1602535
951.0291237
911.8896282
940.6084634
968.5059688
984.7024721
953.7734446
965.020708
621.0461433
634.433597
603.3853521
616.4318075
681.2546264
865.0712239
640.7763984
656.3248003
1309.229197
1524.912559
1048.175381
1219.60609
4805.829332
2399.945174
2614.347778
1626.394074
2296.293756
1041.366037
1031.592185
404.5959817
1696.601515
1702.847569
1657.431451
1685.055168
1754.207709
461.4607189
1578.500105
1100.546691
960.7950175
742.3854996
333.4596994
1040.702607
1543.666373
985.9941123
1051.363571
1614.346905
1643.065006
1566.146343
1602.235548
365.1277226
994.0367179
981.2692219
5156.469687
1119.639174
4998.666652
4251.870453
4979.339169
1196.998268
5854.096064
1457.374556
5538.625163
4681.078878
740.3447531
831.8684602
1748.380148
1714.887539
525.1025701
579.6743874
1822.162809
1751.871015
5310.85125
1224.524011
464.9362472
514.7228489
5626.912237
6434.129379
1943.047798
7008.554115
4925.514183
1581.721626
1130.708643
6108.275356
3287.688233
6768.635263
3762.829697
1644.551822
61.00279369
41.43945659
36.22609563
5192.643847
5168.195283
131.3833738
71.44792889
71.62316046
5417.914951
831.8737651
2388.029772
1587.15023
288.6396212
243.8882421
151.9983853
257.0669853
188.1798305
365.1853861
1303.862391
254.7769184
277.8077126
51.32809538
59.59216184
108.6277366
331.8580972
615.5557366
891.062563
188.1701582
100.3490529
104.0248871
95.73006938
99.16760712
184.669256
733.1721975
813.8163224
2666.261611
579.8432206
511.5817367
310.2996226
329.7247925
344.430565
762.3387767
966.594854
1231.605618
458.5683016
105.2938515
109.2422732
215.9213244
275.3371497
620.6162857
591.8676423
568.571882
499.5041964
252.4734688
639.2660038
309.9124853
324.9085346
4075.748489
3786.324124
2128.003679
1738.528358
1714.532704
1079.615084
3353.947195
5316.253574
4692.381096
1100.47222
647.9425538
714.5344926
1836.220291
1121.377456
1776.119443
1761.890315
1798.914228
2217.317155
4539.783535
3078.281241
3503.77168
5050.839149
1299.596929
1051.947876
629.6206666
1268.092112
155.051452
124.1117041
209.7399214
766.9785142
2017.56523
1434.249406
5643.57415
6000.287954
6115.254475
4981.032373
5806.593437
85.8046002
106.5425901
243.98332
2291.083329
1503.93312
1166.276684
2958.729302
2344.654154
1830.10182
3442.246516
3120.632182
5049.168684
4755.998622
3328.466365
649.2352105
697.3571553
1391.017897
4543.71032
2287.064576
2561.756478
3881.153368
2181.767229
2590.8241
1095.380993
1474.547965
1216.439752
743.8364169
498.5466935
506.7533023
1192.022471
716.4296231
758.5043283
512.1586815
523.9541156
771.5975038
175.0464535
194.2685034
410.4952441
524.0147834
948.3952758
673.0505103
1138.849672
1187.026455
739.9349007
1817.044767
1296.394411
1352.223596
867.6578124
870.8067962
1445.304409
1473.635887
1489.663315
1387.146826
1411.69526
1335.961547
807.1257409
812.615762
776.8984992
784.136746
1273.768941
1419.822034
854.093862
859.2023666
818.4734308
824.361749
1372.310693
639.2048288
625.6667969
278.4181345
300.3772443
657.4955555
643.5750859
466.0302698
452.5398847
231.2409287
1536.566943
1539.626452
1496.517664
1502.653323
1922.022301
1549.136905
1550.56494
249.6046755
487.5891062
471.4426554
4423.057631
4369.544864
2690.07453
2851.491717
4528.974715
4416.142243
4609.736573
669.3311657
1335.829582
1118.683552
292.510272
305.2300154
609.2546021
537.9650348
278.6713404
288.9391768
1107.432755
1107.092654
754.5150082
775.3902947
1116.571911
1121.019847
5310.345404
1537.848
996.1317377
982.4697483
12621.28814
2424.488947
1430.767781
4356.569476
3462.535861
1852.424392
1828.713351
1142.812459
5899.251742
6432.254308
6134.119303
4753.558662
1218.708645
1901.959551
1840.643355
2414.221706
878.1783334
1015.062545
5095.505311
5009.248802
3790.664302
3494.674635
1925.958841
1056.954741
1027.239602
1216.124808
2935.947414
5092.263962
4291.60119
5146.888066
4912.820143
3382.28727
169.9326155
231.5558298
691.1015063
2949.944741
2875.214673
3035.3474
3010.287441
2798.141898
1832.311355
1814.361545
1851.982114
1835.822527
2808.767039
3633.076875
2045.116856
2059.174802
1966.35158
2023.076461
3696.85777
2570.035393
1662.047726
1503.316432
1800.490351
1752.03262
2641.094651
3500.073235
2088.981278
2101.883941
2073.128668
2079.748529
3543.189926
3122.42404
3059.069255
3193.681515
3062.998857
1022.101991
697.578832
701.6851506
1654.888358
1037.422747
1042.186886
1007.881739
1030.177648
1642.460239
5251.780322
5483.87071
4723.221411
5334.177944
1732.436292
1747.327015
1701.247023
1717.318637
2209.933733
1021.677309
1666.028629
1599.125432
1697.592517
1049.678005
1053.994912
1044.415402
1047.623114
1690.311969
1634.079173
1678.623988
1135.34102
1568.557906
2179.406154
5670.221158
5255.264782
3864.200492
5539.738744
865.1037076
1232.095516
12936.25097
1178.828984
801.216513
805.3594946
1859.577405
7340.326657
7581.568679
9201.09971
5693.409022
5212.616994
1793.123801
1780.686694
1122.681733
1759.621738
1906.49106
2704.316149
1877.41324
2493.327548
1873.082985
737.0520829
2648.269653
1867.212212
4715.958682
4926.705561
5277.954439
3828.275254
4468.322905
1267.979828
1607.189027
849.1376224
435.1018196
602.7341808
963.5988918
1075.36104
631.1710245
936.4520782
1245.985016
4932.695771
5223.704005
4847.470604
4939.916894
5775.410573
5715.614369
5531.731128
3163.093741
4839.282142
4355.210422
5506.949024
5715.046447
3602.032456
3962.82022
4430.490628
5761.333161
4604.01446
3108.932296
3472.008982
2154.370514
1556.477722
2190.000741
1161.616027
1675.442392
2230.938724
2452.09825
2261.573906
3153.326795
1995.145861
1888.180929
2715.288019
1970.950286
2956.298513
2945.394074
1872.438688
1855.580841
1897.818902
1872.271123
2965.769506
2303.414836
1388.7984
1410.635527
3905.78022
3893.762785
3296.752106
4330.48503
4165.897073
3989.320895
3882.997765
4069.009851
3037.322063
1650.015534
1837.896272
1445.950353
1515.719639
2583.371759
4797.597826
3989.27748
2089.288513
5146.044582
4905.046759
4887.681909
3003.411584
4773.960757
4614.089873
1739.854435
1955.859758
3790.327073
1136.941098
1207.047239
572.4614295
645.3182243
1144.410253
771.4948757
528.8826429
552.7188021
1063.054032
1024.092941
605.1828533
1030.375168
1361.214534
684.2049269
1125.156333
1104.839603
1778.698691
1231.987061
1211.300767
1354.433641
1310.671252
1878.186364
2752.472568
2586.890531
1695.179212
2484.763424
2599.274995
2337.997041
2458.555095
1664.372118
2484.88539
2448.412921
3118.724557
2331.086902
934.2715527
926.8647197
1414.426452
1458.733598
884.3939096
881.5879658
1450.774793
1464.654287
1425.999963
1440.05841
797.9241905
802.8650378
1329.310154
1287.739528
788.7952058
793.2613331
841.6487504
846.9900623
1408.292361
1384.49919
830.5962122
836.1441326
3422.794636
2132.138446
2143.498643
2108.273852
2118.603757
3418.023182
3343.832163
2350.037247
2708.031442
2167.947866
2220.219019
3348.781109
945.9451699
1538.47252
1526.889365
1554.776525
1547.134568
948.3476363
930.6121372
1488.484967
1469.568623
1516.139926
1503.337033
937.138736
974.4246608
1605.84211
1594.601714
1622.528671
1611.60267
977.3885877
957.0380045
1569.765084
1562.985825
1587.777062
1577.446673
960.2707136
1523.470212
1528.208136
625.3641793
920.617132
917.2759616
928.6161621
925.8583443
630.4632784
1510.680096
1516.175474
1599.114757
1511.815199
702.9909523
989.9377499
999.6642888
1432.454245
1376.758834
783.1628779
643.5690113
937.0998635
935.5511994
946.0352199
949.5905371
654.3606831
1563.347642
1555.884697
4392.152567
4248.899288
4617.291042
3062.57606
3635.285902
2466.679964
4165.204232
4222.523168
4153.850342
4163.581987
2526.545607
1809.412511
3495.158016
2939.566773
4090.584865
4233.992553
2085.366961
1045.64903
723.5400647
725.5716019
708.7937205
711.6374311
1032.456289
1697.121232
1712.376642
1663.791662
1682.047499
1654.504746
2110.408317
1510.412564
863.3919342
955.4763638
753.1568402
776.7896623
1089.148763
1444.279854
2015.380724
1583.569927
1505.470525
998.983556
1638.291012
1623.490775
1677.244665
1630.343141
995.1320099
1622.633462
1635.56103
1579.628526
1592.524903
4797.131166
2999.682927
3217.006957
2196.509469
2661.53367
4893.075411
4899.461513
4730.036797
3532.121687
4103.886392
5247.50424
5333.439435
3843.49149
4093.015948
2929.583721
3409.823234
5525.979065
1781.17863
1782.250636
1763.184985
1766.647453
1165.165309
1177.549054
806.4282429
1846.960806
1745.211937
1801.262401
1791.410498
1732.414994
1064.484289
1073.09562
1056.275598
1062.403434
1728.28541
1772.190274
1087.885945
1147.89125
1074.964761
1090.807655
1775.544833
5095.405014
835.9658604
842.1578796
1228.881614
5448.902384
8497.98567
8874.41472
8224.198408
8287.070613
6083.374466
1890.849346
6030.242733
4185.350953
4584.639329
1140.077222
1819.152106
1801.705751
6071.21629
6664.050705
6401.259567
5173.944117
5661.969521
7060.828822
6685.206911
4176.717714
6348.318906
5424.350491
2257.493921
1811.405167
1207.062374
31.76381561
31.77116068
31.86042923
31.77433365
31.78840618
31.86911136
31.79404692
31.81784998
31.88411743
31.82681996
31.86071125
31.9056467
31.87064775
31.90198682
31.92913358
31.90876967
31.92810441
31.94431051
31.93103098
31.92850942
31.9451999
31.92436723
31.90164282
31.93096063
31.89371808
31.8628107
31.90905391
31.85333313
31.82423198
31.88823083
31.6453444
31.66067643
31.74243774
31.66770745
31.69843599
31.76335619
31.71237167
31.76590929
31.79975067
31.78879816
31.86083261
31.85097073
31.88373135
31.94044271
31.90187551
31.9591825
31.98384278
31.93111138
31.98435603
31.97217996
31.93051237
31.96268546
31.9195799
31.8995644
31.90236738
31.8455792
31.85291429
31.82577874
31.76958556
31.80660561
31.53494811
31.56674284
31.63520571
31.58253608
31.65084621
31.6817199
31.683434
31.80613794
31.76606477
31.85817772
32.02888797
31.87918728
32.07110386
32.22836253
31.98177721
32.27269804
32.29376229
32.02740347
32.26215823
32.20557776
32.00279985
32.17404158
32.07254092
31.93712806
32.03312239
31.91401026
31.85187956
31.87532519
31.76884988
31.76167802
31.43580079
31.49814865
31.54665256
31.52940146
31.67312494
31.65014861
31.74483506
32.05980841
31.84182971
32.19767049
32.7444139
32.11592033
32.88056285
33.35583145
32.41335336
33.48542875
33.48496092
32.43315792
33.2791432
32.95643288
32.31751679
32.82291644
32.51923775
32.13036094
32.41844799
32.15306854
31.95122604
32.0731607
31.86878378
31.78137071
31.35430799
31.46231703
31.48663043
31.51977439
31.81409654
31.6950419
31.96924264
32.73289175
32.17408442
33.12884209
35.21074124
33.03423224
36.03111196
41.40396863
34.15862661
41.42873864
39.33149474
34.01514455
37.55054353
35.20349979
33.28858862
34.62656766
33.56007498
32.65765006
33.29640758
32.67980121
32.24134617
32.51367689
32.11027492
31.91051606
31.28849452
31.45542012
31.45807508
31.55094244
32.06714564
31.86490796
32.35689148
33.92885843
32.98629847
34.87211574
43.69692467
36.13000108
41.13459318
47.16141691
39.81249021
58.21038322
56.29095218
44.05649161
46.35286715
41.28995234
38.97173056
39.13038951
35.61438453
33.87782045
34.95835723
33.59721475
32.84928138
33.27454905
32.53796598
32.19398848
31.23234153
31.46471677
31.45503418
31.60195934
32.34836116
32.13033136
32.77090965
35.10161028
34.25303648
35.78866916
37.57242228
36.94630119
51.51763155
58.160774
55.69573946
85.46941425
62.30556114
52.70485413
46.87739312
38.78078697
36.19816223
37.47337203
34.95481172
33.87169203
34.39405744
33.15180726
32.67021947
31.18412427
31.48352272
31.46910263
31.66138937
32.6020296
32.41630199
33.12109843
35.87218625
35.32418996
37.05299708
39.30354721
38.97008027
58.90673041
69.48659351
68.4022289
134.3123391
85.09337078
76.90148866
54.60920295
42.29186137
39.50158711
40.31320365
36.52262482
35.26063089
35.69197069
33.88389805
33.32278795
31.14184874
31.50793816
31.48940624
31.72375774
32.82768229
32.66077705
33.4200473
36.47697854
36.02389914
37.88391206
40.44006694
40.14366043
66.10472831
86.55165032
83.96344794
151.1900981
97.5660558
94.28236132
59.67473837
45.25785907
42.91419533
42.80494771
38.07805392
36.83757196
36.99845239
34.64101611
34.07389072
31.10442658
31.53794147
31.51633669
31.79053509
33.04784656
32.8841135
33.70890333
37.1159219
36.6176752
38.74221513
41.84260137
41.3787098
74.86238534
102.7808993
99.34144525
145.9553945
99.70620746
99.78211229