/*--------------------------------*- C++ -*----------------------------------*\
| =========                 |                                                 |
| \\      /  F ield         | OpenFOAM: The Open Source CFD Toolbox           |
|  \\    /   O peration     | Version:  v1912                                 |
|   \\  /    A nd           | Website:  www.openfoam.com                      |
|    \\/     M anipulation  |                                                 |
\*---------------------------------------------------------------------------*/
FoamFile
{
    version     2.0;
    format      ascii;
    class       surfaceScalarField;
    location    "2.17";
    object      phi;
}
// * * * * * * * * * * * * * * * * * * * * * * * * * * * * * * * * * * * * * //

dimensions      [0 3 -1 0 0 0 0];
oriented        oriented;


internalField   nonuniform List<scalar> 
25162
(
0.0004202720143
0.916229728
0.0005063276293
0.9166139444
0.0005755482534
0.9165807794
0.000279410515
0.9166174474
0.000328690378
0.458339598
0.0002898125344
0.4583141309
0.0003513416491
-0.000365472565
-0.0004468846001
0.458292774
0.0005041106389
-0.0005584899126
0.4582426053
0.0006508845966
-0.0007522146529
0.4582191159
0.0008630987954
-0.0009931240877
0.4581920429
0.001136081189
-0.001284180357
0.4581822193
0.001436961063
-0.001592300999
0.458198655
0.001725146017
-0.001838828156
0.458250725
0.001921603132
-0.001965707506
0.4583287795
0.001971928024
-0.001937691905
0.4584053022
0.001862389679
-0.001762912789
0.4584559205
0.001641992323
-0.001497820504
0.4584739983
0.001358822216
-0.001215781209
0.4584857865
0.001044994688
-0.0009705768798
0.4584610814
0.0008594954668
-0.0007140620931
0.4584685311
0.000595531011
-0.001555425921
0.9187153727
3.871224617e-05
-0.0005486589811
-0.0009723413839
0.9187669155
4.978717149e-05
0.9158278715
0.9138497872
0.001153291574
0.9150764364
0.001801128365
0.9159661076
0.001991856932
0.9163900508
0.0005091268355
0.9172308488
0.0008693286856
0.4581142567
0.0006088388297
-0.4582139687
-0.45820555
-0.0007483501058
0.4580287952
0.0009251048154
-0.4580698178
-0.001146293923
0.4578004361
0.000667686211
0.0007479893962
-0.228977059
-0.0008181814172
0.2289046593
0.0008905811511
-0.001210323882
-0.2289149273
0.2288178204
0.001307430847
-0.001724004322
-0.2288537318
0.2287215694
0.001856166741
-0.002361301343
-0.22882053
0.2286670297
0.002514801674
-0.003040925846
-0.2288451184
0.2287519416
0.003134190835
-0.002970616373
-0.2289630471
0.2287553536
0.003178163344
-0.003916224808
-0.2291428145
0.2290918264
0.003967212953
-0.003867035221
-0.2292825539
0.2293275647
0.003822024441
-0.00349538499
-0.229379234
0.2295062457
0.00336837326
-0.002922766064
-0.2294113327
0.2295737718
0.002760326917
-0.00230948359
-0.2293922055
0.2295491437
0.002152545408
-0.4588985111
-0.003369549105
0.4603601823
0.001907878013
-0.0005664991754
0.461003489
-0.001151501516
-0.4592854883
-0.001229900722
0.9184135311
0.0001303354427
0.00140140687
-0.0007491221256
0.9182861369
0.0004701935052
0.9146085558
0.9143199807
0.001450294309
0.9136261421
0.003917529545
0.9134988724
0.006625635428
0.9136819449
0.002641382675
0.9151478461
0.006067255388
-0.4581012215
0.4579712177
0.002771386476
-0.4578904294
-0.002703701092
0.4585973648
0.001996765656
-0.457436436
-0.00201114619
0.4572845857
0.001049599621
0.001113396773
-0.2285552387
-0.001316197091
0.2284045976
0.001466838208
-0.2283254769
-0.002016419487
0.2281082637
0.002233632656
-0.2281614528
-0.002073886
0.2326423606
-0.00239969259
-0.2364471196
0.0178413563
0.2407432475
-0.02210536279
-0.2348315274
0.0315037544
0.2367845897
-0.03343338049
-0.2273303338
0.03555917021
0.2268368423
-0.03506969734
-0.2208626066
0.02988337816
0.217925172
-0.02697452225
-0.2222905637
0.01493763884
0.2172837765
-0.009960225285
-0.2301186813
-0.005644576531
0.2294044996
0.006357271612
-0.2302956884
-0.0054466609
0.2306206644
0.005121684862
-0.003887565442
-0.2302841079
0.230965545
0.003206128406
-0.4630315476
-0.0006719004292
0.4619365965
0.001766851536
-0.4601580159
-0.001826766967
0.4602265804
0.001758202416
0.0008220396274
0.9205138865
-0.001674638219
-0.001247756777
0.002025141077
0.9170830354
0.0009477646481
0.9156859323
0.9152677453
0.0004382943189
0.9131878478
0.0009592344607
0.9129779322
0.002050816455
0.9125903629
0.002943405805
0.9123634718
0.001891784958
-0.4572686729
0.4569019388
0.003310139965
-0.4602127995
-0.004445806431
0.4572507172
0.007407888695
-0.4588624675
-0.008565473247
0.460537933
0.001767540984
0.005122466772
-0.2278563037
-0.001683147239
0.2276934555
0.001845995394
-0.2299477774
-0.0007081932746
0.2361478934
-0.005474144727
-0.2500063942
0.02342874885
0.2553456178
-0.0286887791
-0.2522812153
0.04103829784
0.2552061575
-0.04387966138
-0.2412536847
0.04886377519
0.2419961782
-0.04956060199
-0.2253359709
0.04975312923
0.2249033478
-0.04932914329
-0.2104237856
0.04644841197
0.2087159253
-0.04480084297
-0.20322097
0.03684705148
0.1993344577
-0.03304944416
-0.2113462529
0.01832815993
0.2054987829
-0.01255041471
-0.2341820518
-0.001144913239
0.2361858122
-0.0008617657776
-0.004336630192
-0.2318824365
0.2319243667
0.004294700008
-0.4620424705
-0.006686619805
0.4634043007
0.005324789611
-0.4610539424
-0.00397088995
0.4621780212
0.00284681111
0.003862345932
0.9209205376
-0.002248781371
-0.002020215673
0.002620244303
0.9183251371
0.001216171871
0.9170900047
0.9164839172
5.128498415e-05
0.9131365628
0.0001413925074
0.9128878247
0.0003578024031
0.912373953
0.001015283311
0.9114966881
0.0002093028408
-0.456696398
0.4559568493
0.001754831952
-0.4559191553
-0.00210001496
0.455388398
0.002630772289
-0.4545840493
-0.003373850561
0.4539559332
0.002146876126
0.001855090626
-0.2284720752
-0.003888139947
0.2273362338
0.005025017987
-0.2547530777
0.007365993533
0.2622713883
-0.01478808652
-0.2682068997
0.03139961972
0.2712064193
-0.03425886989
-0.2595055014
0.03760778384
0.259137927
-0.03712821719
-0.2407569371
0.03255907388
0.2388911224
-0.03064303499
-0.2239601367
0.02663844561
0.2237830923
-0.02647086421
-0.2074103644
0.02890359386
0.2087208495
-0.03028452421
-0.1919437443
0.03318129731
0.1913522472
-0.03271713343
-0.2022582572
0.03883738512
0.1922061585
-0.02891880916
-0.211865563
0.01067125516
0.2063502982
-0.005231625965
-0.006355514556
-0.233442256
0.2340597316
0.005738038995
-0.4652517718
-0.007957409055
0.4670585593
0.006150621545
-0.4632789882
-0.004797417765
0.4644336154
0.003642790499
0.004777644655
0.9233589526
-0.003996181283
-0.003219878373
0.002679087124
0.9204236946
0.001224442633
0.9185446492
0.9177083598
-0.0002145156494
0.9133510784
-0.0003448058598
0.9130181149
-0.0002586616529
0.9122878088
1.174708506e-05
0.9112177176
8.561783906e-06
-0.4551433247
0.4549018408
0.0002532310653
-0.4549784089
-0.001137109338
0.4543085496
0.001806968682
-0.4532846032
-0.002237788755
0.4524163084
0.001520387651
0.00158569587
-0.2392818276
0.001717256678
0.2433579109
-0.005743519177
-0.2710117787
0.01682251284
0.2740679709
-0.01972395967
-0.2750236233
0.0223087144
0.27334102
-0.02045630569
-0.2512076253
0.009606345283
0.2513699168
-0.009669172412
-0.228020238
-0.00790378106
0.2236136715
0.01233432153
-0.223085275
-0.02409821233
0.2229373097
0.02424424969
-0.2207196039
-0.01110953792
0.2257491687
0.006039786188
-0.2025585659
0.01523434819
0.2045788316
-0.01738062363
-0.1815535003
0.01842970737
0.1808634423
-0.01791246035
-0.1929066138
0.01175377632
0.1896561423
-0.008643690062
-0.002926772278
-0.2316987032
0.2292082899
0.005397750253
-0.4687165608
-0.008424805948
0.4704356881
0.006705678689
-0.4652126885
-0.005419219257
0.4659590048
0.004672902937
0.004154639139
0.926242358
-0.003415827524
-0.003622217072
0.002315119485
0.9222632142
0.0009875207098
0.919872248
0.9186958805
-0.0006024693782
0.9139535478
-0.001085305046
0.9135009506
-0.001435601854
0.9126381056
-0.0002704294136
0.9110400705
-0.0009875254094
-0.4548282044
0.4545802434
-2.246842408e-05
-0.4533483014
-0.0001468347628
0.4530579155
0.0004372207318
-0.4521684707
-0.001314946753
0.4521139951
0.0007440134446
0.0006257839237
-0.2520740541
0.004059758911
0.2546095807
-0.00650304667
-0.28345698
0.01233704799
0.279954231
-0.008640398593
-0.2694487589
0.008865161285
0.2679398538
-0.007187261132
-0.2320622162
-0.003951380919
0.2249636891
0.01110766159
-0.2110467161
-0.03145374867
0.1073102831
0.1016366181
0.01466299853
0.01889056507
-0.02344082918
-0.1088546356
0.108251128
0.02404433684
-0.01916741747
-0.2469651116
0.03665558418
-0.01956316322
0.1240724368
0.1249676713
-0.01712543285
-0.2164686235
0.222743116
0.01076733132
-0.1830138546
-0.0003270969661
0.1870085931
-0.003850537019
-0.1847340071
0.008525323158
0.1830573463
-0.007023984616
0.000583035793
-0.2185161887
0.2160191798
0.00184640049
-0.4721874586
-0.007426540169
0.4734159334
0.006198065339
-0.4671509469
-0.00475432363
0.4683257614
0.003579509146
0.002671581109
0.9283964205
-0.002268833192
-0.002556810386
0.001345025445
0.9235897699
0.0005395799929
0.9206776934
0.9192354605
-0.0009986690597
0.9149522169
-0.001950288482
0.91445257
-0.002717668406
0.9134054856
-0.001453856289
0.9117603006
-0.001984042144
-0.4545929214
0.4546369612
-0.00149789612
-0.4529588593
0.001594373933
0.4529122836
-0.001547798289
-0.4516785187
0.001443269673
0.4526041207
-0.0007871371314
-0.001572686749
-0.2588737022
0.001065106183
0.2591913732
-0.001267790767
-0.2815032791
0.001385203354
0.2816748398
-0.001355096056
-0.2628558725
-0.0003402924549
0.2619485057
0.001407999029
-0.2126319133
-0.00592475157
0.2107696506
0.007806041727
-0.09546335108
-0.005206437636
0.09550852036
0.005161268348
-0.02698682208
-0.1357123821
0.1383296916
0.02436951257
-0.02520164862
-0.2435086793
0.2490986162
0.01956785427
-0.1925455894
-0.009159613609
0.1944190539
0.007112230179
-0.1814861917
-0.003600562406
0.1818471029
0.003043154927
0.001584396584
-0.2118979783
0.210560673
-0.0003428298052
-0.4749906827
-0.004743061445
0.4762933137
0.003440430424
-0.4692702332
-0.00252373038
0.4700608839
0.001733079638
0.0002263667199
0.9295010457
-0.0003325182381
-0.0009984736771
-0.0001458363518
0.923961973
-0.0001449112096
0.9206767683
0.9190905493
-0.001381446652
0.9163336635
-0.002693256847
0.9157643802
-0.004078126789
0.9147903555
-0.002399895017
0.912997862
-0.002915793184
-0.4548617938
0.4550770079
-0.002615109119
-0.4530270262
0.002860086072
0.4532580734
-0.003091133329
-0.453167511
0.003303106368
0.454065836
-0.002018896992
-0.002161905249
-0.2612680132
0.003078590645
0.26161071
-0.003298053372
-0.2810258549
0.003079898849
0.2808713824
-0.002723730955
-0.2592503765
0.001145955293
0.2588388546
-0.0005829129136
-0.2092224839
-0.0005397298683
0.209439065
0.0003312933553
-0.09910595455
0.001397102782
0.09960153372
-0.001892681959
-0.01213508215
-0.1512446292
0.1519265939
0.01145311745
-0.01389181486
-0.2621635858
0.2646124529
0.01141869874
-0.200833099
-0.005337410397
0.2022502019
0.003756271457
-0.1831024848
-0.0003515084826
0.1834941185
-0.0002395962281
0.0006965294323
-0.2093541289
0.2089831218
-0.0004334993979
-0.477749276
-0.0007560748452
0.4788644445
-0.0003590936322
-0.4704748112
0.0008868255475
0.4706928007
-0.001104815132
-0.002754356643
0.9289804498
0.001955283729
0.001319668738
-0.001973702128
0.9231813185
-0.001034739826
0.919737806
0.9180558095
-0.001724342898
0.9180580065
-0.003557585827
0.9175976231
-0.005321424371
0.9165541941
-0.003333990978
0.9148686644
-0.003858235767
-0.4554774174
0.4558724959
-0.003729069481
-0.4535565096
0.004178134487
0.4540695443
-0.004691169187
-0.4550881805
0.005172232768
0.4566104491
-0.003133299386
-0.003530936651
-0.2625641169
0.004328877277
0.2629950015
-0.004632940312
-0.2807159332
0.004824246241
0.2807647704
-0.004673292875
-0.2583002186
0.003876079189
0.2581827604
-0.003613353696
-0.2106150271
0.003274295991
0.2110117578
-0.003666555998
-0.1018132246
0.002928949404
0.1020253908
-0.0015573242
-0.00158379143
0.004863203381
-0.1504480569
0.1495964023
-0.004011548777
0.002286363223
-0.2644205224
0.2626684306
-0.0005597812541
-0.2028990817
-0.001576669857
0.2026877782
0.001625405409
-0.1847161056
-0.000731942692
0.1850028888
0.0002481035571
0.001202490464
-0.2101286863
0.2104330863
-0.001613124521
-0.4788557001
0.004700307102
0.4782412446
-0.004085851612
-0.4704711573
0.003847207648
0.4706986294
-0.004074679735
-0.006041051798
0.9267583331
0.004523977834
0.003739190693
-0.003955996462
0.9210962631
-0.001996361088
0.9177781706
0.9160594484
-0.002152509509
0.920210516
-0.004289062813
0.9197341765
-0.006553871697
0.918819003
-0.004238223035
0.9173032014
-0.004750185698
-0.4564412503
0.4570061553
-0.004803127961
-0.4546426283
0.005491190195
0.4552692086
-0.006117770459
-0.4585455752
0.006842960013
0.4608449126
-0.004450923999
-0.00464773439
-0.2644563539
0.005575832097
0.264994754
-0.005983086862
-0.2811247928
0.006528936158
0.281304848
-0.006510807385
-0.258034236
0.006156200481
0.258035122
-0.006018394826
-0.2122974891
0.005870279895
0.2127647488
-0.006335907246
-0.1032603698
0.004012173763
0.1033961122
-0.002060579676
-0.00208733655
0.01438536856
-0.1417752132
0.1405154221
-0.01312557743
0.01329305572
-0.2528762077
0.2481667595
-0.008626655102
-0.198876317
-0.00179320275
0.2006536757
-0.000148967563
-0.1857097925
0.0003218460171
0.1860976755
-0.0009007454126
0.003291759746
-0.2135847743
0.2143087983
-0.004107924888
-0.4771534494
0.009817305625
0.4756558541
-0.008319710321
-0.4707127027
0.007017835923
0.4695530116
-0.005858144809
-0.009069996714
0.923109566
0.006644221405
0.006074542458
-0.005859559699
0.9178858261
-0.002874424972
0.9147930359
0.9131850234
-0.002542379374
0.9227528954
-0.005093941739
0.9222857388
-0.007755227892
0.9214802891
-0.005059711728
0.9199741564
-0.005366471193
-0.4577122117
0.4584072431
-0.005754743092
-0.4560889414
0.006556076755
0.456944476
-0.007411611388
-0.4633315133
0.008336800991
0.4650907211
-0.005499684481
-0.00453651246
-0.2667714719
0.006915495852
0.2674504135
-0.007458880154
-0.2819912094
0.008321920464
0.2822605216
-0.008395140741
-0.2581262321
0.008195956407
0.2581457906
-0.008084155353
-0.2143941411
0.007934846216
0.2150459133
-0.008586477113
-0.1042823027
0.005222209401
0.1044187784
-0.002660462338
-0.002698222781
0.0178348512
-0.1319179892
0.130669916
-0.01658677791
0.01701258511
-0.2343694496
0.2293986458
-0.0121116513
-0.1960165588
0.006789215742
0.189851828
-0.0007969694299
-0.1867892092
-0.002784073709
0.1867987089
0.002594161539
0.004845332413
-0.2180370398
0.2193220082
-0.006200323333
-0.4738244078
0.01387023869
0.4717034313
-0.01174926219
-0.4682773621
0.009929577965
0.466728991
-0.008381206846
-0.01169852681
0.9199191487
0.007747301511
0.007141642533
-0.007488077024
0.9136753763
-0.00362874782
0.9109337067
0.9095562756
-0.006575515643
0.929328411
-0.01331510504
0.9290253282
-0.0201305587
0.9282957428
-0.005973634196
0.9271765074
-0.02135927549
-0.4592583217
0.4601244249
-0.006839737428
-0.4578258345
0.007778115577
0.4588821853
-0.008834466357
-0.4697249259
0.009862639954
0.4740001767
-0.007331003496
-0.006712324522
-0.2689100608
0.0105338
0.2705279099
-0.01201238303
-0.283102849
0.01071943598
0.2827318443
-0.01015613893
-0.2581373174
0.007994945091
0.2598702514
-0.00960240141
-0.217410635
0.00955147656
0.2183011284
-0.005187163737
-0.005254806172
-0.05290384193
0.00329124953
0.0529570346
-0.00334444219
-0.05787403331
0.006539823284
0.05738696437
-0.01274169816
0.006688943819
0.01639846368
-0.1232087315
0.24295495
-0.02901932727
0.01603288437
-0.1231582393
-0.2169062683
0.01328944973
0.2100341426
-0.006517048458
-0.1844370737
0.002007082683
0.183817736
-0.001571431073
-0.1886234127
0.003401467639
0.189645115
-0.00458483312
0.008403425991
-0.2252146465
0.2262437558
-0.009469522179
-0.4692460333
0.01635238151
0.4667945343
-0.01390088253
-0.4651171331
0.01199391248
0.4633869375
-0.0102637169
-0.01367628563
0.9155017043
0.009281595785
0.008812134286
-0.008763226035
0.9087623167
-0.004297249117
0.9064677297
0.9052590265
-0.00300159059
0.9323300016
-0.006083343949
0.9321070816
-0.009329832402
0.9315422313
-0.006344950646
0.9306845794
-0.006492953755
-0.4629965508
0.4639043363
-0.007252736172
-0.4617395299
0.008263893243
0.4628202572
-0.009344620554
-0.4781124724
0.01051188079
0.4762041269
-0.004603518012
-0.003888671226
-0.2731871441
0.003501783964
0.2727835265
-0.002951096183
-0.2841552495
0.00180329604
0.2843088345
-0.001765320527
-0.2578316001
0.003362878031
0.2592083345
-0.004625100003
-0.221646292
0.01068184973
0.222689154
-0.005852857146
-0.005871854624
-0.05469733666
0.007897324464
0.1098025987
-0.05463915177
-0.00416728008
-0.004196154641
-0.1113844631
0.008959451873
0.1113048992
-0.01759136438
0.008711476491
0.02857607654
-0.2357413755
0.2320579075
-0.0248969175
-0.1992283035
0.00674995819
0.1969524444
-0.00459960403
-0.1844115686
0.002638188637
0.1795788091
0.002014664776
-0.1933843181
-0.001094938077
0.1988302035
-0.004480959571
0.01011009595
-0.2319130947
0.2323904869
-0.01059300758
-0.4646067127
0.01710683992
0.4626530033
-0.01515313049
-0.4616498344
0.01329854064
0.4596864731
-0.01133517936
-0.01322561396
0.9102590363
0.009167485057
0.009300796875
-0.009527655657
0.9050643584
-0.004652366967
0.9015924411
0.9006066595
-0.00314710095
0.9354771026
-0.006374471659
0.9353344523
-0.009764492598
0.9349322522
-0.006646543403
0.9343209328
-0.006754302515
-0.464895977
0.4658714636
-0.007622030008
-0.4639222949
0.008676113823
0.4650373801
-0.009791199052
-0.4719618149
0.01098837296
0.4674186028
-0.003054045748
-0.003347840842
-0.2685911742
-0.001947815912
0.2662138406
0.004449835283
-0.2833370951
-0.01057998241
0.2823422699
0.01175700806
-0.265199831
-0.01118270772
0.267167375
0.009347933132
-0.2313692622
0.001792541028
0.2369281133
-0.007323561335
-0.11288359
0.01502748259
0.2248952394
-0.0146510206
-0.1123881113
-0.2252041176
0.02051777989
0.2257959814
-0.02110964373
-0.2179697623
0.01200500849
0.2133565467
-0.007440361849
-0.1880360836
-0.001180909443
0.1867706725
0.002297853261
-0.1784650042
-0.001222595856
0.1797754059
-0.0002650441488
-0.2043931244
0.006418528725
0.2032902601
-0.005409149718
0.01252300503
-0.2324891761
0.2300752274
-0.01010905638
-0.4609389355
0.01845320773
0.4576024731
-0.01511674526
-0.4577316599
0.01345542239
0.4555553208
-0.01127908332
-0.01355076552
0.9051977855
0.009369536757
0.009242479633
-0.009557839182
0.9010714321
-0.004850526521
0.8968851284
0.895756133
-0.003217763516
0.9386948661
-0.006509925834
0.9386266147
-0.009951056543
0.9383733829
-0.006782907033
0.9379898356
-0.006837052377
-0.466865143
0.4678584153
-0.00777617937
-0.4661503767
0.008830848472
0.4672554514
-0.009935923114
-0.465379039
0.01111231155
0.4665548957
-0.006104604207
-0.006183405327
-0.2563834838
-0.001353073336
0.2523183401
0.005494120969
-0.2765323472
-0.01709176402
0.2735675858
0.02020715463
-0.2705306715
-0.02560099555
0.2704222972
0.02584975323
-0.2493884057
-0.02208214924
0.2518532627
0.01969315459
-0.2292276615
-0.01222530107
0.2313338476
0.0101369357
-0.2204965715
-0.009194409024
0.2191661279
0.01050135789
-0.203710713
-0.01601546161
0.2021484142
0.01749161855
-0.1860573332
-0.01829116546
0.187086963
0.01711649346
-0.1867531234
-0.009647921228
0.1901003636
0.006161182054
-0.212288324
0.005444568735
0.2160101428
-0.009216000114
0.01159944809
-0.2280194533
0.2273989526
-0.01097894741
-0.456719498
0.01834930648
0.4539281572
-0.0155579657
-0.4525989754
0.01206576498
0.4509453907
-0.01041218021
-0.01258280801
0.8987889497
0.009727063961
0.009264579778
-0.007060812129
0.8955494362
-0.004867575354
0.8946918916
0.8908885577
-0.003219699599
0.9419145657
-0.006504747992
0.941911663
-0.009917361449
0.9417859964
-0.006769485393
0.9415969785
-0.006755018972
-0.4688303838
0.4698042594
-0.007743360999
-0.4683393637
0.008765427175
0.4693993185
-0.009825381993
-0.4677790973
0.01094148273
0.4689595349
-0.006082039268
-0.006039881062
-0.2386154781
0.006636874503
0.2348152706
-0.002826406622
-0.2617925893
-0.01226541835
0.2570963498
0.01705318624
-0.2659297147
-0.02896553616
0.2631616523
0.03184680089
-0.2543843732
-0.03693164383
0.2538118895
0.03758512349
-0.2361648236
-0.0376865783
0.237118785
0.0367587204
-0.2175740014
-0.03509538576
0.2174622805
0.03517518049
-0.2022999381
-0.032592661
0.2037594505
0.03104754356
-0.1941011918
-0.02340185561
0.1975883552
0.0198039371
-0.2027161239
-0.006544610473
0.2075456412
0.001638209304
-0.2261931801
0.01214088135
0.2259727758
-0.01192094101
0.01047119665
-0.2257711822
0.2252872552
-0.00998726966
-0.4501848201
0.01699070527
0.4484484283
-0.01525431345
-0.4493364363
0.01359340814
0.4477278858
-0.01198485767
-0.01155956417
0.8916198528
0.01021716482
0.008511496266
-0.006546293073
0.8905361651
-0.00444667127
0.8925922698
0.8864418864
-0.003163939808
0.9450785055
-0.006382231782
0.945129955
-0.009702702155
0.9451064667
-0.006625646251
0.9450721978
-0.006552275146
-0.4707414744
0.4716706436
-0.007554815478
-0.4704255157
0.008521498481
0.4714177475
-0.009513730298
-0.4700906261
0.01054587863
0.471167961
-0.005846629189
-0.005776584364
-0.2348950868
0.006415605949
0.2351874677
-0.006707986782
-0.2419760227
0.005039667579
0.2369778888
-2.49987888e-05
-0.2521989749
-0.01435558974
0.2480314373
0.01857978968
-0.2490180195
-0.02859856926
0.246713756
0.0309552757
-0.2377625033
-0.03510478756
0.2374098914
0.03547607583
-0.2176886552
-0.03224484144
0.2180754347
0.03183440366
-0.211143495
-0.02549704184
0.2142544921
0.02233211495
-0.2102528113
-0.01043145382
0.2148252643
0.005808361652
-0.22255989
0.008885675005
0.2253299085
-0.01166123858
-0.2247530531
0.01074613182
0.2244063625
-0.01039944129
0.009308708952
-0.2240256231
0.2236462625
-0.008929348369
-0.4468663601
0.01542785377
0.4454274374
-0.01398893102
-0.4462591906
0.01257337539
0.4448560324
-0.01117021721
-0.0141836885
0.8865088316
0.009494669891
0.009800039877
-0.009318463641
0.8856709403
-0.001794331048
0.8850681372
0.8846475554
-0.003061672485
0.948140178
-0.006165680979
0.9482339635
-0.009344878909
0.9482856647
-0.006376812633
0.9483641929
-0.006260061443
-0.4725571361
0.4734282657
-0.007247942257
-0.4723687678
0.008145991108
0.473280675
-0.009057898381
-0.4721889653
0.009994743464
0.4731528992
-0.005523215049
-0.005435462335
-0.2360057848
0.006025181694
0.2362597585
-0.006279155466
-0.2358439822
0.007048480923
0.2361012757
-0.007305774353
-0.2358169714
0.008073261167
0.2356580073
-0.007913573262
-0.2390387268
0.0001230019461
0.2365277515
0.002399239239
-0.2355846578
-0.007247391394
0.2348741776
0.007963573571
-0.2206297667
-0.006051967837
0.2218607743
0.0048135763
-0.2239887595
0.001864741859
0.2270373389
-0.004922725761
-0.2261518602
0.01076987241
0.2260449366
-0.01066294881
-0.2246432187
0.01019933826
0.2244461619
-0.01000228145
-0.2235080393
0.009308031577
0.2232487022
-0.009048694481
0.008212041301
-0.2226623056
0.2223610196
-0.007910755364
-0.4441183814
0.01383704438
0.4429269216
-0.01264558456
-0.4435851435
0.01144760022
0.4423734829
-0.01023593961
-0.01313527333
0.8819216834
0.008693194935
0.009029226529
-0.008677626058
0.881213293
-0.004310431933
0.8807009431
0.8803371234
-0.00292455309
0.9510647311
-0.005879557678
0.9511889681
-0.008884185533
0.9512902925
-0.006054214292
0.9514423064
-0.005908084703
-0.4742537416
0.4750593065
-0.006859779198
-0.4741484044
0.007683021145
0.4749755737
-0.00851019051
-0.4740604969
0.009350158687
0.4749142044
-0.005149184028
-0.005054682095
-0.2369658247
0.005586051034
0.2371839261
-0.005804152416
-0.2368025217
0.00645191446
0.2370145293
-0.006663922112
-0.2363279613
0.007280977245
0.2365255635
-0.007478579377
-0.2354514569
0.00803815833
0.235624601
-0.008211302474
-0.2339352642
0.008660746384
0.2339457741
-0.008671256265
-0.2240891517
0.008911093247
0.2243694415
-0.009191383011
-0.2281161812
0.00932008597
0.2281084285
-0.009312333313
-0.2257653318
0.009182197218
0.2256830077
-0.009099873173
-0.2239343058
0.0087492186
0.2237856213
-0.008600534104
-0.2225670755
0.008072290122
0.2223672981
-0.007872512691
0.007217489789
-0.2215848799
0.2213447229
-0.006977332752
-0.4418393855
0.01232096502
0.4408465505
-0.01132813
-0.4412806045
0.01031418206
0.4402376463
-0.009271223913
-0.01200983103
0.8778421318
0.007874898178
0.008214484441
-0.007972899247
0.8771763612
-0.003971488566
0.8766995324
0.8763656349
-0.002764002759
0.9538287338
-0.005547629873
0.9539725952
-0.008358086466
0.9541007491
-0.005685547973
0.9542919185
-0.005522150626
-0.4758189295
0.4765567521
-0.006423370506
-0.4757586706
0.00717103331
0.4765023337
-0.007914696332
-0.4757142117
0.008661036342
0.4764629283
-0.004748031344
-0.004661721597
-0.2377887559
0.005131260542
0.2379754212
-0.005317925916
-0.2375922312
0.005862302962
0.2377670134
-0.006037085156
-0.2370527163
0.006535456977
0.2372089726
-0.006691713297
-0.2360792366
0.007126369241
0.2362118094
-0.007258942053
-0.233943023
0.007571738796
0.2339329865
-0.007561702371
-0.2251088681
0.007768636941
0.2253209983
-0.007980767201
-0.2280708586
0.00803291665
0.2280546716
-0.008016729661
-0.2254602262
0.007897047387
0.225392701
-0.007829522174
-0.2233910936
0.007550524171
0.2232740954
-0.007433525978
-0.2218347867
0.007017464771
0.2216764955
-0.006859173552
0.006334698126
-0.2207222918
0.2205273486
-0.006139754986
-0.439938481
0.01092234886
0.4391068913
-0.01009075908
-0.4392985776
0.009229628092
0.4384004014
-0.008331451815
-0.01088018943
0.8742331211
0.007080556948
0.007408643254
-0.007252581897
0.8735487537
-0.003621309324
0.8730682599
0.8727443255
-0.002589561682
0.9564182955
-0.005189375497
0.956572409
-0.007796703677
0.9567080773
-0.005290479655
0.9569088694
-0.00512317493
-0.4772494649
0.4779218384
-0.005962853228
-0.4772040572
0.006637776328
0.4778689687
-0.007302687851
-0.4771630328
0.007963170817
0.4778173808
-0.004346275639
-0.004271243239
-0.238492598
0.004682286728
0.2386521965
-0.004841885159
-0.2382440509
0.005299910278
0.2383886298
-0.005444489169
-0.2376278626
0.005849529974
0.2377526484
-0.005974315805
-0.2365621713
0.006316784737
0.2366651171
-0.006419730513
-0.2338828712
0.006639376724
0.233860938
-0.006617443545
-0.2258660511
0.006812285091
0.2260203488
-0.006966582737
-0.2279979101
0.006969550714
0.2279767311
-0.00694837169
-0.2252062516
0.00683637035
0.2251487503
-0.006778869078
-0.2229581566
0.006548522939
0.222862944
-0.00645331036
-0.2212492051
0.006115996886
0.2211206717
-0.00598746353
0.00555893095
-0.2200192576
0.2198584403
-0.005398113636
-0.4383435105
0.009657987594
0.4376416538
-0.008956130845
-0.4375920209
0.008221038716
0.4368166922
-0.007445709974
-0.00979160444
0.8710495448
0.006335091796
0.00664008887
-0.00654924081
0.8703063901
-0.003276778413
0.8697957975
0.8694675471
-0.002410080881
0.9588283764
-0.004822634123
0.9589849623
-0.00722743107
0.9591128742
-0.004891664066
0.9592999462
-0.004726843763
-0.4785495675
0.4791596473
-0.005501743879
-0.4784953444
0.006108810895
0.4790882562
-0.006701722725
-0.4784289534
0.00728537955
0.4790005917
-0.00396087008
-0.003896147719
-0.2390945896
0.004255525725
0.2392312882
-0.004392224359
-0.2387843181
0.004779015767
0.238904591
-0.004899288646
-0.2380891501
0.005231246123
0.2381900245
-0.005332120505
-0.2369393879
0.005606544463
0.2370206038
-0.005687760356
-0.2337842773
0.005843393121
0.2337560437
-0.005815159578
-0.2264136821
0.0060011639
0.2265242436
-0.006111725405
-0.227907899
0.006083333675
0.2278834924
-0.006058927027
-0.22498775
0.005952902096
0.2249374887
-0.005902640796
-0.2226022225
0.005707151239
0.2225226431
-0.005627571785
-0.2207699104
0.005347445193
0.2206633153
-0.005240850099
0.004884328961
-0.2194369074
0.2193022554
-0.004749676998
-0.4369945362
0.008534738983
0.4363970465
-0.007937249337
-0.4361183641
0.007305866119
0.4354464925
-0.006633994567
-0.008774970701
0.8682430674
0.005651793101
0.005929655089
-0.005885628322
0.8674170477
-0.002949816832
0.866859986
0.8665177303
-0.002232066947
0.9610604434
-0.004460365954
0.9612132613
-0.006669372479
0.9613218807
-0.004502208805
0.961477608
-0.004344825445
-0.4797265169
0.4802786141
-0.005054306028
-0.4796464073
0.005599436038
0.4801747008
-0.006127729462
-0.4795351397
0.006643560518
0.4800352037
-0.003600442468
-0.003543182002
-0.2396106215
0.003858935853
0.2397281004
-0.00397641472
-0.2392348044
0.00430470527
0.2393355497
-0.004405450542
-0.2384638415
0.00468016813
0.2385465303
-0.004762856891
-0.2372383829
0.004986458614
0.2373032724
-0.005051348118
-0.2336664973
0.005161694798
0.2336356408
-0.005130838358
-0.2268044027
0.005308029128
0.2268827042
-0.00538633061
-0.2278068967
0.005338101344
0.2277804462
-0.005311650789
-0.2247953736
0.005210615697
0.2247506066
-0.005165848653
-0.2223023952
0.004996483588
0.2222344866
-0.004928575071
-0.2203698277
0.004691365138
0.2202798579
-0.00460139539
0.004300186768
-0.2189475498
0.2188333473
-0.004185984231
-0.4358438261
0.007545646418
0.4353309442
-0.007032764532
-0.4348406254
0.006487052178
0.4342558621
-0.005902288804
-0.007845299282
0.8657670957
0.005036199804
0.005285071139
-0.00527386044
0.8648456088
-0.002646995392
0.8642331209
0.8638707349
-0.002060691041
0.9631211344
-0.004112757579
0.9632653278
-0.006137184344
0.9633463075
-0.004131845611
0.9634579961
-0.003985726905
-0.480789735
0.4812888876
-0.004630998261
-0.4806721006
0.00512051366
0.4811432257
-0.005591638761
-0.4805032278
0.00604837186
0.4809418899
-0.003268699405
-0.003218334547
-0.2400545749
0.003495110467
0.2401559234
-0.003596458935
-0.2396130732
0.003876624233
0.2396980834
-0.003961634439
-0.238772527
0.004191358124
0.2388412905
-0.004260121698
-0.2374781066
0.004444902011
0.2375304698
-0.004497265245
-0.233541844
0.00457501324
0.233510457
-0.004543626298
-0.2270800296
0.004711455825
0.2271348969
-0.004766323067
-0.2276990719
0.004705674102
0.227671406
-0.004678008137
-0.2246231444
0.004581379967
0.2245827232
-0.004540958821
-0.2220450213
0.004391941996
0.2219861416
-0.004333062352
-0.2200303761
0.004129073886
0.2199533448
-0.004052042603
0.003794303545
-0.2185312074
0.2184332946
-0.003696390715
-0.4348541557
0.006681122129
0.4344104157
-0.00623738215
-0.4337276984
0.005762739054
0.4332163145
-0.005251355229
-0.00700950809
0.8635783577
0.004489477683
0.0047087684
-0.004720396969
0.8625564977
-0.002372024837
0.8618847488