/*--------------------------------*- C++ -*----------------------------------*\
| =========                 |                                                 |
| \\      /  F ield         | OpenFOAM: The Open Source CFD Toolbox           |
|  \\    /   O peration     | Version:  v1912                                 |
|   \\  /    A nd           | Website:  www.openfoam.com                      |
|    \\/     M anipulation  |                                                 |
\*---------------------------------------------------------------------------*/
FoamFile
{
    version     2.0;
    format      ascii;
    class       volScalarField;
    location    "2.14";
    object      nut;
}
// * * * * * * * * * * * * * * * * * * * * * * * * * * * * * * * * * * * * * //

dimensions      [0 2 -1 0 0 0 0];


internalField   nonuniform List<scalar> 
12556
(
1.155909546
1.155881581
1.155850624
1.15581987
1.156032389
1.156021646
1.156022794
1.156035566
1.15606553
1.156124767
1.156224749
1.156357557
1.156490984
1.156552874
1.15653063
1.156429739
1.156299857
1.156198629
1.15610405
1.156065398
1.155815759
1.155818749
1.155837347
1.155862953
1.155202459
1.155122173
1.155031917
1.15494986
1.155130994
1.155105568
1.155127867
1.155297541
1.155441076
1.155718786
1.156183682
1.156821654
1.157447486
1.157873423
1.157794302
1.157313974
1.156694278
1.156117807
1.155609434
1.155343662
1.154984643
1.154957618
1.154997703
1.155072822
1.154474518
1.154330798
1.154174566
1.154041713
1.154222119
1.154209547
1.154282233
1.154551649
1.154918343
1.155606065
1.156795083
1.090181949
0.9754133256
0.911486199
0.9384296497
1.034239814
1.157819457
1.156512081
1.155416
1.154804436
1.154218896
1.154132579
1.154170737
1.154281891
1.1537193
1.153523842
1.153314335
1.153154095
1.153317471
1.153350642
1.153525543
1.153991555
1.1547723
1.156443925
0.972014565
0.7358120359
0.636096779
0.623966792
0.666325007
0.7522015224
0.9013829325
1.149592193
1.155816096
1.154599658
1.153629704
1.153396255
1.15338577
1.153519561
1.152956844
1.152693112
1.152427645
1.152247531
1.152442661
1.152555006
1.152900223
1.153687085
1.155364384
0.960423966
0.6298039852
0.4506326298
0.3715479358
0.3844023548
0.4431699832
0.5280714224
0.6533593142
0.8695338432
1.157271725
1.154885313
1.153264589
1.152740076
1.152628391
1.152753133
1.152183774
1.151870652
1.151568684
1.15139399
1.151611467
1.151849249
1.152518831
1.153785801
1.156959049
0.6966549557
0.4060349288
0.2456354334
0.18721467
0.2138650825
0.2862786319
0.3745955342
0.4867145003
0.6637552714
0.9653113057
1.155785841
1.153131196
1.15217651
1.151894122
1.151969232
1.151406743
1.151042441
1.150704202
1.150539864
1.150835808
1.151249472
1.15232735
1.154382929
0.9777419187
0.5449735078
0.284498049
0.1236867993
0.06702647432
0.1049783889
0.1890926531
0.2800938148
0.3807868827
0.5299733517
0.8110399227
1.157362239
1.153252408
1.151688464
1.151151315
1.1511441
1.150648318
1.150245182
1.14989429
1.149773044
1.150138991
1.150780214
1.152376605
1.155381742
0.8810340766
0.5007698086
0.269980301
0.1068642908
0.05785337363
0.1411528828
0.229073158
0.3226311151
0.4516750923
0.7049083492
1.058986783
1.153633284
1.151316378
1.150428708
1.150301044
1.149923216
1.149479881
1.149113507
1.149031949
1.149542803
1.150456584
1.152655132
1.156618561
0.8580336369
0.536533326
0.3675431879
0.2752332387
0.0673558837
0.1356075328
0.2133706385
0.2989316042
0.4157038248
0.649564533
0.9781254916
1.154263974
1.15106559
1.149754546
1.149478146
1.149255461
1.148785043
1.148424733
1.148418772
1.149075621
1.150278154
1.153120752
1.157934755
0.8728477382
0.6035586987
0.502563802
0.5721410234
0.09264545291
0.1512891903
0.2213515593
0.300768631
0.4084304496
0.6283476796
0.9310356604
1.155115909
1.151028621
1.149237147
1.148779363
1.148636689
1.148136197
1.14778371
1.147899635
1.148668401
1.150232499
1.153724049
1.159262506
0.8994568574
0.6616354196
0.594763473
0.5902640428
0.1256298088
0.1801818336
0.2454230329
0.3210890724
0.4244422886
0.636553188
0.9126550161
1.156125073
1.151204054
1.148927046
1.148278949
1.148105732
1.147588617
1.147254541
1.147487355
1.148335353
1.150290576
1.154399642
1.160548472
0.927926222
0.6947526312
0.6073558947
0.5084162001
0.1631366191
0.2208053993
0.2860916237
0.3590848672
0.4640872193
0.6709273144
0.9252515639
1.157336553
1.151653012
1.148912784
1.148070958
1.14761125
1.147071499
1.146779007
1.147152774
1.148076631
1.150409828
1.155076168
1.161853423
0.9631572389
0.7150451164
0.5707194755
0.446149299
0.0780473977
0.2097707377
0.2805125938
0.348492037
0.423279734
0.53583232
0.7282301303
0.964066785
1.158592397
1.152294295
1.149140917
1.148129933
1.147213481
1.146658259
1.146402763
1.146873499
1.147965053
1.150750793
1.156018971
1.163128165
1.022347696
0.7590381586
0.5694367122
0.2824469733
0.1394650185
0.3097723178
0.3881475526
0.454146239
0.5217024019
0.6327625282
0.8126637572
1.022977015
1.159855721
1.153121784
1.149610445
1.148456932
1.146833736
1.146259209
1.146035944
1.146612663
1.147869728
1.150978858
1.156599654
1.163768191
1.150840718
0.8764505253
0.6724888983
0.07380501168
0.2008919589
0.4824065959
0.5989302927
0.631708056
0.6833054532
0.7773184905
0.9400823572
1.122254342
1.161021554
1.15395943
1.15018478
1.148934733
1.14653367
1.145943164
1.145740734
1.146397314
1.147792833
1.151168333
1.157086613
1.16398982
1.164041443
1.10183489
0.9037907261
0.05447999257
0.2078893333
0.4712022907
0.7038741644
0.8905225673
0.9166672671
0.9723965982
1.113199021
1.168928597
1.162038443
1.154783832
1.150830851
1.149510013
1.14621365
1.145601346
1.145406658
1.146146568
1.147698186
1.151287079
1.157432188
1.164021666
1.164453736
1.133551098
0.9472532121
0.1173342385
0.1575185021
0.4282918853
0.670693405
0.8796641942
1.036060759
1.12205703
1.162690824
1.169932073
1.162823529
1.155485146
1.151416668
1.150058925
1.145954582
1.145324839
1.145124433
1.145907751
1.147561592
1.151314182
1.157593328
1.163920643
1.163706556
1.136560991
0.9876813684
0.2335987027
0.09201451322
0.3781234484
0.6435697306
0.8793308424
1.040998291
1.124569952
1.163791753
1.170513819
1.163360399
1.156041873
1.151958874
1.150587004
1.145640911
1.144990305
1.144773404
1.145599739
1.147370624
1.151240013
1.157567054
1.16351056
1.161783586
1.132705396
0.9881298175
0.2906742357
0.06676897272
0.356581742
0.6443151716
0.8872829168
1.04445551
1.126056876
1.164294659
1.170710939
1.16362445
1.156391601
1.152340214
1.150976192
1.14538094
1.144718121
1.144478651
1.145305306
1.147121471
1.151066379
1.157363909
1.162815684
1.159419508
1.124617326
0.9466792338
0.2422979583
0.07653056735
0.3679161598
0.6526803144
0.8934843194
1.046900217
1.126854484
1.164351379
1.170604232
1.163728552
1.156655113
1.152663596
1.15131004
1.145040827
1.144366342
1.144103136
1.144939719
1.146824238
1.150805324
1.15700395
1.161878351
1.156665379
1.115058533
0.8943139056
0.2018151919
0.09032251924
0.3784528892
0.6588750336
0.8978811671
1.048601362
1.127183505
1.164088641
1.17027176
1.163630296
1.156737313
1.152821088
1.151481984
1.144759794
1.144085255
1.143802184
1.144615821
1.146491808
1.150477445
1.156514328
1.160740505
1.153556137
1.103895918
0.832462216
0.175702718
0.1047128854
0.3878074037
0.6639416063
0.9004164501
1.049640267
1.127171211
1.163603965
1.16978156
1.163470911
1.156797054
1.152957543
1.151624233
1.144380717
1.143707824
1.143410911
1.144227297
1.146142779
1.150107029
1.155927013
1.159440137
1.150093455
1.090608319
0.7712631169
0.1574321526
0.1188185792
0.3962799703
0.6683053104
0.9015078261
1.049986789
1.126870767
1.162960758
1.169186695
1.163175099
1.156705463
1.152939142
1.151609802
1.144075767
1.143415792
1.143113311
1.143907504
1.145786556
1.149714461
1.155270458
1.158005505
1.146220278
1.07399021
0.7183767891
0.1427218102
0.131865997
0.4040075057
0.672135577
0.9017363899
1.049662194
1.126294365
1.162194721
1.16852372
1.162893215
1.156649454
1.15294814
1.151612199
1.14365973
1.143012736
1.142710925
1.143516352
1.145433794
1.149312083
1.154562833
1.156446145
1.141795526
1.053175663
0.6736334999
0.1314545269
0.143534871
0.4110806816
0.6755221382
0.9015064506
1.048794325
1.125458621
1.16132881
1.167816964
1.162501591
1.156451052
1.152807244
1.151463358
1.14333712
1.142712809
1.142420492
1.143213858
1.145083637
1.148905086
1.153811455
1.154753486
1.136598853
1.028943392
0.6351535562
0.1226036508
0.153807921
0.4176034487
0.6785485721
0.90103595
1.047544878
1.124400652
1.160383578
1.167082755
1.162173018
1.156335643
1.152741108
1.151380692
1.142894857
1.142290727
1.142010426
1.142824081
1.144741788
1.148494201
1.153016396
1.152905122
1.130391236
1.002993779
0.6016096626
0.1156784549
0.162896799
0.4236611448
0.6812845028
0.9004305163
1.046047859
1.123167824
1.159379387
1.166333101
1.16173342
1.156070038
1.152519114
1.151143442
1.142561817
1.14198663
1.141728144
1.142541886
1.144402866
1.14807835
1.152173692
1.15086695
1.122995126
0.9767145878
0.5720635303
0.1101982494
0.1710846305
0.4293477024
0.6837799169
0.8997416052
1.044397383
1.121805598
1.158334594
1.165576769
1.161396132
1.155928334
1.152414809
1.151017434
1.142109961
1.141558551
1.141319049
1.142156364
1.144072824
1.14765561
1.151276892
1.148593199
1.114382956
0.9509018002
0.5459730378
0.1060931466
0.1787022472
0.4347116153
0.6860642394
0.8989945395
1.042656517
1.120352968
1.157264717
1.164820247
1.160932955
1.155622002
1.152143686
1.150728323
1.141766998
1.141248513
1.141040679
1.141892514
1.143744353
1.147224015
1.150316625
1.146032957
1.104662677
0.9259840252
0.5229063621
0.1030847949
0.1859443762
0.4397733169
0.688156257
0.8982049507
1.040868512
1.118841918
1.156182291
1.164069077
1.160604552
1.155469234
1.152021135
1.15058249
1.141330296
1.140836614
1.140651437
1.141521971
1.143424527
1.146780833
1.149280628
1.143133874
1.09402037
0.9021775337
0.5024418268
0.1008629945
0.19289846
0.4445612662
0.690079841
0.897389709
1.039065521
1.117298498
1.155097244
1.163325822
1.160138526
1.155148912
1.151731355
1.150275177
1.14096355
1.140505783
1.140360025
1.141262647
1.14310463
1.146323554
1.148154528
1.139859709
1.082665786
0.879569389
0.484219031
0.09930117497
0.1996014664
0.4491124352
0.6918630192
0.8965662785
1.037272473
1.115744017
1.154017289
1.162595317
1.159814294
1.154977837
1.151587345
1.150108205
1.140582711
1.140148643
1.1400273
1.140936963
1.142791759
1.145848445
1.146921895
1.136184331
1.070791621
0.8581248907
0.4678415721
0.09857419908
0.2060760462
0.4534622833
0.6935287755
0.8957504333
1.035508893
1.114194813
1.152948226
1.161874911
1.159385146
1.154686809
1.151322361
1.14982835
1.140155274
1.139760085
1.139683705
1.140638902
1.142479264
1.145354275
1.145568215
1.132103126
1.058570125
0.8378158152
0.4530098009
0.09842135659
0.21234308
0.4576340657
0.6950999257
0.8949602258
1.033792867
1.112666074
1.151897191
1.161174938
1.159013317
1.154454878
1.151119179
1.149602874
1.139889442
1.139515215
1.139463652
1.140426826
1.142176592
1.144844017
1.144092244
1.127623739
1.046152684
0.8186333263
0.4395752824
0.09873466247
0.2183743543
0.4616433884
0.6966091996
0.8942206092
1.032143273
1.11117106
1.150882166
1.160495242
1.15872528
1.154269928
1.150952671
1.149425795
1.139351166
1.139026416
1.139034289
1.140046405
1.14191241
1.144342705
1.142544379
1.122785034
1.033718243
0.8006631546
0.4274658737
0.09944737416
0.2241470605
0.4655017114
0.698086437
0.8935544037
1.030575083
1.109716607
1.149968506
1.15990379
1.15823593
1.153954767
1.150675869
1.149125334
0.2394466739
0.0597033189
0.0504123873
0.5530686288
0.08406269783
0.06250797564
0.599980679
0.1181796459
0.08808224513
0.5174212734
0.1496065628
0.1232446289
0.4518040036
0.05804638252
0.07319567841
0.1842159185
0.1535361829
0.3332274326
0.09977215584
0.05976046653
0.125769393
0.2497728567
0.1873944689
0.1028746706
0.06835445921
0.05225386788
0.0993098302
0.03039757953
0.02138903101
0.06499865945
0.1153157981
0.1210934803
0.4703734219
0.5233615703
0.2853146692
0.04468961708
0.05009576352
0.08934132927
0.1294232154
0.1171546794
0.5789795702
0.6984487636
0.5469114549
0.6310817249
0.2257592444
0.2628495436
0.07354066908
0.05446549064
0.1213964722
0.1572058916
0.1354208105
0.6096163514
0.6232322573
0.6902727349
0.5600175794
0.136303308
0.1837594791
0.12706803
0.09689068298
0.5795821734
0.5395307813
0.6141123252
0.4921938708
0.07533637742
0.1025767746
0.02399346103
0.1406238767
0.1351786396
0.5602180666
0.3857628533
0.5283661709
0.4051718769
0.02790494204
0.04676227998
0.2592073744
0.1494059714
0.1137615174
0.08380762722
0.2322440239
0.03862880538
0.07480955957
0.0484744124
0.0316749087
0.0522798842
0.03351494473
0.04656464548
0.2681870236
0.3085041114
0.4466673241
0.2351994928
0.2104496556
0.2867940786
0.2399807302
0.05399751723
0.0444767765
0.07376541876
0.06334631978
0.07031995991
0.04773987214
0.0636837995
0.07231831937
0.1873248841
0.2205081361
0.6284525803
0.1678933297
0.1371063631
0.207916781
0.1704874379
0.09280832459
0.07514956222
0.105335984
0.0977714613
0.1155793403
0.07092351687
0.09453969571
0.1008040869
0.1041678936
0.1343413356
0.5497934105
0.1058083179
0.07771019273
0.135387649
0.1073715325
0.1342771413
0.1280731988
0.04773150069
0.07345597668
0.4894302853
0.01634872371
0.05043057774
0.0297021879
0.07655585393
0.05202315752
0.01420933748
0.1461746527
0.1420900275
0.0271689272
0.004675665785
0.02756810231
0.3989841524
0.08419546053
0.01737567519
0.009474383738
0.02936083875
0.01770990928
0.0825122071
0.3354092179
0.252265908
0.1253362231
0.139224405
0.08364230471
0.04607248587
0.01630025748
0.009109359296
0.4039715953
0.3141290017
0.2561036333
0.009529911334
0.1559583447
0.1936633375
0.1655917156
0.00983447148
0.08001529969
0.07023065074
0.09612376316
0.1618427005
0.1496620439
0.2197375731
0.09376163912
0.158517897
0.04294001594
0.01483168632
0.02582524995
0.02456326478
0.03180880359
0.05096314586
0.06816889346
0.04984494778
0.1381839345
0.1278021217
0.13614562
0.1168272039
0.1265757547
0.1348588043
0.03905403552
0.01144579871
0.07114043513
0.02696621029
0.0467933416
0.03756327318
0.02179022401
0.03450515971
0.02567626036
0.01537504629
0.02450844298
0.02204852061
0.01093274997
0.01773441429
0.02321286058
0.05592622101
0.05677654508
0.06426224926
0.06292742448
0.0244386603
0.01116985149
0.1138305896
0.02065156195
0.03890685782
0.01017486579
0.01745475073
0.1094037773
0.09053865651
0.273521924
0.2577997604
0.09981147061
0.08511130491
0.01022960292
0.04175477113
0.19113057
0.1764186264
0.2115953688
0.1971131049
0.04214606423
0.05438219427
0.04330034589
0.1266765362
0.07153525527
0.06981034182
0.04045100227
0.07084809383
0.1443526064
0.04740325303
0.02709468669
0.01696402827
0.06082265652
0.03010746858
0.05264400168
0.028622065
0.07536764399
0.03913869528
0.03878235641
0.2287184645
0.03008172785
0.2275905929
0.2652668789
0.03438383544
0.03927547321
0.03056530143
0.03379567104
0.2587867526
0.05200730251
0.05164407156
0.0673702661
0.07030205953
0.06564043782
0.07685484046
0.07188557854
0.06771217479
0.05788739677
0.05809968054
0.05306937559
0.06395581915
0.05948129975
0.05948233722
0.1526269422
0.150642232
0.1903674572
0.1880312028
0.08806094872
0.009898358286
0.08644776321
0.09517991892
0.09317120692
0.1206364936
0.1187411948
0.04161378131
0.06101859006
0.1322682781
0.04644044896
0.02635609281
0.06397507624
0.232076442
0.2168968663
0.252539069
0.2371464464
0.06533876098
0.03539467667
0.04585869061
0.04485362407
0.0689421729
0.06804034888
0.006606289689
0.04747254962
0.1193318862
0.1048667537
0.1706781239
0.1594984954
0.02179236535
0.0112378015
0.02908653301
0.01893291332
0.02788586541
0.01042547692
0.01732827933
0.01084265577
0.02791426931
0.07608006345
0.01221068058
0.02549361575
0.003617639966
0.02502715357
0.0185744633
0.6302240967
0.3703201847
0.3650366563
0.2447077104
0.00795248139
0.005302472449
0.194425733
0.4088969407
0.2817714148
0.006291331395
0.01599106518
0.01156042207
0.1234870282
0.1227788089
0.05145847502
0.2016494238
0.1680949385
0.09956133948
0.0108898745
0.01889223793
0.0148097539
0.009455838009
0.01433521959
0.01012509751
0.04799177417
0.02147694936
0.02015446402
0.0548595804
0.06908479837
0.02135983565
0.02917924666
0.01357108987
0.01341672196
0.0566938046
0.153022975
0.3574859626
0.3413589772
0.3793076263
0.3629097061
0.1568419176
0.2942031808
0.2785291378
0.09195260831
0.0307447089
0.09247055217
0.08681856995
0.01018228166
0.01623824986
0.1238551378
0.0447112866
0.0242243988
0.02167840576
0.03872028911
0.04534789006
0.04122769164
0.05151644034
0.04677619435
0.03983666798
0.05297742409
0.01423473205
0.01365643505
0.04631472486
0.2013039643
0.401372893
0.3847566228
0.05860059109
0.06074643566
0.1428469956
0.0309645202
0.03376734583
0.07959086913
0.1073475184
0.1052626022
0.09726886491
0.07842066888
0.08470202905
0.07879370895
0.09435890719
0.08703384002
0.07975031455
0.1192147931
0.3150364049
0.2993473781
0.3360527074
0.3202876528
0.1212697739
0.101319684
0.03474428871
0.03546022439
0.02001558657
0.02079080592
0.08247057542
0.1292793278
0.05415844036
0.05816744289
0.03576675978
0.03643232594
0.1120836042
0.1335121885
0.06391710641
0.08442547634
0.006790176174
0.02392377625
0.04806997498
0.03627631463
0.07323183645
0.01940527647
0.0198773021
0.01898249965
0.06141414898
0.01064647705
0.004396556522
0.1196599029
0.09965639443
0.0848619649
0.08026218442
0.02714944891
0.02766432925
0.0408080494
0.08935801886
0.01715705149
0.01061748819
0.02606496928
0.03385756934
0.002898185688
0.0288551064
0.01869231895
0.01282201084
0.00654755257
0.01259897726
0.009685545879
0.009538509594
0.03717063973
0.028118106
0.006570466137
0.03909749333
0.04110107344
0.01712447865
0.0114966849
0.008143452859
0.01189506561
0.0187175994
0.01172773215
0.01691940149
0.05832862855
0.01025947979
0.009358602824
0.01093864046
0.01477367902
0.0472143919
0.01079926274
0.01010426075
0.01498990554
0.01091993052
0.01045675482
0.02576231448
0.0171387261
0.03661313919
0.0288801689
0.01038068236
0.0228571538
0.02229890564
0.0193806678
0.03104858377
0.02369627581
0.01895256389
0.01705236224
0.01326028155
0.01854801292
0.01446141525
0.05057643994
0.05664294868
0.0198170972
0.01863473616
0.01989328026
0.02064620146
0.06751722809
0.01180413231
0.01220694444
0.01612104682
0.01203822705
0.0123909626
0.05816365139
0.01288376719
0.01943772169
0.01644214493
0.01452840707
0.02753131796
0.07148084548
0.06537064247
0.01332622507
0.05458216138
0.04713453668
0.06313453542
0.05711984919
0.01414524225
0.01298705307
0.04986387838
0.04083163647
0.1015455487
0.09453046874
0.03425072501
0.04431356418
0.1094141973
0.1034901911
0.04782683413
0.04667360036
0.07497023245
0.09687578529
0.125012146
0.0719340297
0.09022593165
0.07627149737
0.06391056629
0.1626182093
0.1463876575
0.1404321634
0.1672804556
0.06382886519
0.04365235193
0.05261325408
0.06595946204
0.03800479413
0.04296583814
0.03329652653
0.03165515465
0.04344002915
0.02315638417
0.02324352659
0.01853862259
0.03307120258
0.03271466596
0.0240961175
0.0333528988
0.03546746095
0.03768180821
0.0348570074
0.02811729633
0.1011534567
0.08699682445
0.1092741621
0.1042086597
0.02932117904
0.07690445136
0.07419407621
0.08298753106
0.07788607693
0.03617251846
0.1318601027
0.1255156693
0.1424269357
0.1341559729
0.03687769112
0.03184943744
0.116109159
0.1110676199
0.1235208851
0.1179012515
0.03224285512
0.01519451879
0.01451872489
0.05270205329
0.04813346005
0.0151644437
0.01542457049
0.0417022612
0.04087178827
0.04401071287
0.04198766177
0.03937343074
0.03826735238
0.04060112554
0.03965467979
0.0701452375
0.06784654942
0.07335956839
0.07095927462
0.06166135625
0.04686547583
0.06687874583
0.06449885549
0.03460883375
0.02920831524
0.04496480108
0.03754819896
0.009511526319
0.01841117742
0.01718063348
0.02723320652
0.01915417602
0.03377605679
0.03439023775
0.09979187513
0.01996376462
0.01976318573
0.0206132865
0.02015022971
0.01913055026
0.08500967622
0.02136370806
0.03175034776
0.03856759865
0.05216930576
0.1271797165
0.03528075411
0.02273730804
0.03812366908
0.03513200379
0.02139353528
0.02085243581
0.02232703937
0.02162292492
0.113693187
0.03666118169
0.03753351431
0.006761990601
0.037811436
0.009381361806
0.01032601728
0.009379186182
0.03496780611
0.006938587171
0.02688874886
0.009945909704
0.01054769022
0.04740278929
0.04092876699
0.01881642721
0.01929926695
0.0722227118
0.06366857806
0.0179529203
0.01874738616
0.009652718512
0.0260641778
0.07746453592
0.06858406892
0.01144869162
0.01107411589
0.01635748689
0.01074839971
0.0113473178
0.02389457709
0.0287387884
0.007250029188
0.0131099118
0.0105024844
0.01185015627
0.01947943668
0.05988709826
0.1280008876
0.1665187713
0.009553082563
0.009534648617
0.1917036366
0.2454177952
0.2049191273
0.006601109066
0.04986714509
0.01665347191
0.02471141948
0.140614225
0.1463557918
0.1637128812
0.00526393086
0.008454139426
0.00616976088
0.00508008465
0.006334785272
0.004997374032
0.06442131022
0.04075600375
0.02509141925
0.02739019725
0.02405590104
0.02753972085
0.2416384989
0.446203131
0.4293059934
0.4688142447
0.4518433122
0.2468880132
0.06117721603
0.0529745869
0.01499415343
0.08933166235
0.1038501715
0.1375979951
0.1173525309
0.1113037247
0.04480868082
0.02911339729
0.03495609238
0.03410602641
0.423690215
0.4069082369
0.2058781476
0.1609813718
0.06708600083
0.07133273739
0.074749634
0.08680730771
0.178387182
0.05539067028
0.1264307203
0.119452975
0.01088585147
0.01125878782
0.01856234517
0.01853907814
0.0188126562
0.03050595977
0.01239595712
0.009843598257
0.0101655642
0.03597166885
0.07311733242
0.06350597964
0.0173448545
0.0291393402
0.01812884706
0.01828408251
0.01771625941
0.0141522561
0.009885215897
0.01319419715
0.01186236183
0.009866503931
0.03087341683
0.03902783084
0.07939003
0.04133618984
0.03994850924
0.03645227382
0.02689190376
0.06097723485
0.01984221502
0.02786278347
0.01032593358
0.007147183189
0.007220861939
0.0105901183
0.01017886264
0.02615457717
0.01651165792
0.01105835287
0.02154466933
0.0202043111
0.0186790377
0.02196194315
0.0267177409
0.02231617968
0.01219908204
0.01326317674
0.007780361683
0.00952436826
0.01265645211
0.08000439213
0.07352789088
0.03006787164
0.009835040771
0.0183949062
0.01649249284
0.011156755
0.0181622307
0.01540729693
0.05180222615
0.03895117104
0.04449836075
0.07281244472
0.1067259607
0.1046995226
0.04226143624
0.07158152582
0.06713761693
0.1032455283
0.10049428
0.06879463358
0.03932976113
0.04766348313
0.03991548517
0.03044622204
0.0319309446
0.0259032117
0.05134401963
0.04951007516
0.06004298067
0.02233500105
0.03280163776
0.03108679937
0.05281682998
0.05237991905
0.02980530206
0.027230726
0.02679221074
0.03001819299
0.02927392567
0.03502115179
0.0603770027
0.05959575381
0.06512307807
0.06411641722
0.03838519437
0.03093816698
0.05431024058
0.05369285091
0.05879632532
0.05801674078
0.03325694472
0.0641315732
0.06628254962
0.1588336541
0.1446942356
0.06138788736
0.06345369377
0.09487874595
0.09871985282
0.1977852202
0.02513464773
0.02499741763
0.02654014888
0.02631685851
0.01903757437
0.02471077132
0.02461507961
0.1807992111
0.08936607813
0.09345093489
0.01028234802
0.01040139659
0.01582091835
0.01503288638
0.009955792827
0.01032707043
0.009966934251
0.08116404653
0.03510555109
0.04303915237
0.1355362958
0.1287598964
0.05862004538
0.06843425751
0.1437467081
0.1375680091
0.02986871898
0.02993913466
0.04622863426
0.04450498837
0.02948274162
0.02944976485
0.009724926794
0.02072700407
0.03266427283
0.03255602611
0.00807697796
0.01332438792
0.02630105172
0.01186137591
0.01182477519
0.01727543993
0.01751598525
0.02832538346
0.01063443994
0.007535257039
0.01052061315
0.01062046979
0.02644485269
0.01680792444
0.01738000048
0.01682375358
0.0466037409
0.03922367665
0.009715577177
0.009788223467
0.01122611681
0.01190289432
0.02061403538
0.006977865609
0.004649321579
0.008612762001
0.01380175019
0.009448201092
0.01046006076
0.009397243474
0.009697841977
0.01218934675
0.01119629168
0.00741299921
0.005495700994
0.01838937089
0.01898503743
0.01770552328
0.01794870598
0.02088646532
0.03139427434
0.03183417032
0.03080373906
0.03120983599
0.020690046
0.0133199702
0.02379684216
0.02374377615
0.02457202709
0.02395190457
0.01305155341
0.02308402325
0.03502103612
0.03869481925
0.03219373258
0.0331833095
0.02239447694
0.01415492395
0.02375480963
0.02372592064
0.02369962431
0.02373789686
0.01391156204
0.0170026832
0.01741509534
0.01644111645
0.01717469119
0.03490038021
0.05410763616
0.05362012125
0.02025896958
0.03348276343
0.03324101611
0.03474953509
0.0338250243
0.02044871183
0.01004906554
0.009822162254
0.01025091939
0.01002437857
0.01882857366
0.01864835337
0.01922286213
0.01902008159
0.01469812325
0.03244474562
0.01938511047
0.02026611223
0.01958043459
0.03277863696
0.03256384997
0.03309509445
0.03291734757
0.01970507371
0.02008017565
0.01951102825
0.02934305606
0.02101156178
0.01507223839
0.006748422534
0.009838746315
0.01122444334
0.006620687977
0.03902079382
0.02680904789
0.00306894469
0.02714606982
0.04155638983
0.04116701576
0.01711201255
0.01052299014
0.007679723921
0.004368604963
0.01116379147
0.01120224243
0.01792417258
0.01806671816
0.02905631346
0.0181263538
0.009104114115
0.008085850065
0.01531888872
0.004080286402
0.009580309596
0.007396081306
0.005193993043
0.006457263054
0.009622224827
0.008598351154
0.00959731625
0.0112080898
0.01021198667
0.04108801936
0.03085059919
0.009029751707
0.01114869778
0.01260329054
0.01886219138
0.02121959387
0.01350844449
0.01672105845
0.01471787491
0.009590910322
0.006636868825
0.00967396129
0.01021557188
0.006885260174
0.01014358099
0.01014701637
0.01299665101
0.01064756022
0.01068968122
0.01031204676
0.01008406045
0.01182457531
0.01128687796
0.01074954167
0.01040169232
0.0107780416
0.01335626122
0.01229693135
0.02824500887
0.02208839879
0.02468885776
0.02759850083
0.03111388395
0.0276964984
0.02570874898
0.02756817226
0.01764246575
0.02783358108
0.02953410778
0.02029987412
0.02796566111
0.01872592841
0.01939714579
0.03020422739
0.03061817
0.02952830491
0.03006912178
0.01916162705
0.02011726228
0.0352885945
0.03475051512
0.01198443529
0.01209237489
0.01383474677
0.01077486499
0.01114651556
0.01159073903
0.0123101473
0.011834897
0.01555235786
0.02937404716
0.02627340101
0.03386987883
0.03218516264
0.01819121191
0.009426735515
0.01085597996
0.01954591419
0.007287585449
0.00940688989
0.009409405501
0.0138685138
0.009510830303
0.009764573151
0.0242157102
0.02149390411
0.01145427307
0.04950708798
0.04524982455
0.09086976995
0.08005218848
0.04446279207
0.06843885648
0.09921289676
0.09444850468
0.03730906618
0.03386243374
0.03416950599
0.02366373664
0.02919896338
0.05026483172
0.04803756231
0.04133506764
0.03319964351
0.04423697499
0.0424798886
0.04279491791
0.04420364698
0.0313842695
0.02204801164
0.02349195327
0.03519662211
0.02511494632
0.02397753441
0.02660980338
0.02536685596
0.03448867178
0.02466672203
0.02526821949
0.02035595352
0.02628880486
0.04770887223
0.04793560541
0.02966843319
0.0292713854
0.0511833423
0.05117376422
0.02796859216
0.02754558536
0.028794178
0.02833999782
0.06184018197
0.06107521978
0.03548481517
0.03762442187
0.06334308721
0.06259467428
0.05578885704
0.05511726968
0.03145036696
0.03269204722
0.05722147886
0.05650285933
0.0148757929
0.02375256464
0.02374874378
0.02377619139
0.02378194534
0.01478065109
0.01562765494
0.0219687814
0.01916121664
0.02360020434
0.02315471478
0.0155205898
0.04141131501
0.02382871906
0.02410011156
0.0234182084
0.02361765562
0.04114819968
0.04284226362
0.02502607228
0.02548750113
0.02435963507
0.02466937112
0.04233143696
0.03896748672
0.02221782688
0.02245739222
0.02185724207
0.0220862419
0.03872906824
0.04030199023
0.02303532151
0.02322010111
0.0226164561
0.02285150197
0.04001720538
0.02558440521
0.02540420627
0.06938729172
0.04509996839
0.04545289121
0.04432339396
0.04462571855
0.06853779277
0.02604455649
0.02583846703
0.02350347935
0.0247573638
0.05940406638
0.04033290024
0.04000303828
0.02635988045
0.02774619635
0.05251463754
0.06634520795
0.04354969401
0.04376183207
0.04276333551
0.04270429627
0.06492059313
0.02427492554
0.02433082209
0.01021879252
0.01061257875
0.009809868162
0.01413845288
0.01207127106
0.01799800964
0.01102904884
0.01087263673
0.01112285173
0.01109688429
0.0176815409
0.02434540585
0.01275417258
0.01499487628
0.01114689191
0.01071917144
0.02107101122
0.0337226798
0.05143628219
0.05111644573
0.05288998298
0.05251785203
0.03428884368
0.01992251448
0.01969077929
0.02049301285
0.02021882514
0.02026065812
0.0159002697
0.02243987112
0.04166556915
0.0370079861
0.0489113798
0.04710432999
0.03180796395
0.02457727225
0.01728445724
0.02208950392
0.02341601625
0.03742007686
0.02151892241
0.02180000885
0.02089613411
0.02158345461
0.03748529567
0.02122877426
0.02099752345
0.02206703924
0.02181655469
0.009647778554
0.01359765139
0.01284050251
0.01832011184
0.01519625459
0.009519916379
0.009369086092
0.009660778364
0.01188962626
0.0106262242
0.006929548547
0.01014519395
0.01118699417
0.01096104073
0.01378479226
0.01219445808
0.009923454697
0.0182345477
0.01819896631
0.01846135674
0.01840727134
0.02797082832
0.02788387773
0.04256914437
0.01747523265
0.01845436129
0.01797912361
0.01804237534
0.01902659755
0.03200767291
0.03166950331
0.03241655466
0.03214700938
0.01910770408
0.01848030613
0.03098978295
0.02926652805
0.03153714868
0.03099911469
0.01847224106
0.009964057188
0.03956867552
0.03894690824
0.02593029355
0.01144301133
0.01000053512
0.01018980478
0.007392857946
0.0103217373
0.01106917527
0.01692711661
0.01097762529
0.0116467966
0.01133086136
0.02845031765
0.01762010538
0.0178175794
0.01035467068
0.0106013355
0.01054917787
0.010769479
0.01097097199
0.007607391685
0.007553774943
0.0113142914
0.01053909044
0.01086652177
0.01431066799
0.01759669515
0.02653949337
1.154723609
1.154927909
1.155396265
1.155020829
1.155413328
1.155635947
1.155580021
1.156249726
1.156053415
1.156512113
1.157516752
1.156657683
1.157828236
1.073531811
1.157301879
1.069358855
0.9872834611
1.157792493
0.9800593544
0.9948215893
1.157878731
1.004028584
1.076977086
1.157447185
1.103505555
1.15772515
1.156844436
1.157397844
1.156568397
1.156247887
1.154109991
1.154551663
1.154802334
1.154758648
1.155645716
1.155396368
1.156055746
1.148799864
1.156432278
1.071086533
0.8661092265
1.140794736
0.8205112566
0.7255457406
1.005280564
0.712971418
0.6903444317
0.913399277