/*--------------------------------*- C++ -*----------------------------------*\
| =========                 |                                                 |
| \\      /  F ield         | OpenFOAM: The Open Source CFD Toolbox           |
|  \\    /   O peration     | Version:  v1912                                 |
|   \\  /    A nd           | Website:  www.openfoam.com                      |
|    \\/     M anipulation  |                                                 |
\*---------------------------------------------------------------------------*/
FoamFile
{
    version     2.0;
    format      ascii;
    class       volScalarField;
    location    "2.14";
    object      p;
}
// * * * * * * * * * * * * * * * * * * * * * * * * * * * * * * * * * * * * * //

dimensions      [0 2 -2 0 0 0 0];


internalField   nonuniform List<scalar> 
12556
(
695.6867231
695.3654453
694.385255
691.9768068
687.9540555
678.9316436
663.2049488
636.8840815
595.8339775
534.4367353
447.2048766
330.9810316
188.0254139
27.31479491
-137.318586
-290.878252
-422.6694136
-528.3869782
-608.5954944
-666.2280399
-715.5587961
-738.3293979
-751.6608558
-757.9192959
695.8929462
695.8149402
695.3285424
693.842843
689.9454505
682.5556863
669.0088337
647.9547635
611.9050104
556.3178128
474.7207564
361.8914485
218.0186034
51.95548866
-121.4102219
-283.7117694
-421.6161501
-530.7896227
-620.8112328
-675.4963193
-724.1915876
-744.4400063
-756.3386864
-761.8719633
696.3240187
696.7953379
697.4675826
697.8535495
695.8677394
692.0401726
683.6858918
666.6392773
638.3212447
591.1618116
512.8426363
390.2622796
228.8289852
45.07150751
-140.9980334
-315.0011968
-459.1829579
-565.9122023
-654.8906915
-701.8543543
-744.1829868
-759.1176525
-767.7623983
-771.6576876
696.5407961
697.7893207
700.1531413
703.179289
704.0534914
705.4657872
704.752011
695.881728
680.667699
645.0058004
569.4330128
433.9511682
227.8741315
-4.90702521
-217.2302579
-391.0676221
-531.8058017
-632.887938
-709.332405
-742.4071182
-773.7835633
-780.8171897
-784.549441
-786.0524758
695.7817141
697.9140318
702.1973017
708.4849289
712.379911
720.762949
729.5058009
732.6930163
735.8293388
723.5722614
667.7710101
513.4634607
226.5349764
-117.3494332
-379.6779734
-550.5817763
-661.079045
-731.7361119
-783.2716186
-795.8770458
-808.530289
-806.0322876
-803.6856891
-802.2622477
693.1742168
696.1857787
702.3137029
711.7824854
720.0416882
735.1819908
754.5089956
771.4201383
802.1181072
838.257844
849.7249619
731.1293009
269.130024
-343.4700678
-675.8893721
-804.7028536
-851.8157311
-867.5215881
-873.0031411
-856.3988049
-844.8825557
-831.3768926
-822.0387523
-817.4078579
687.8792981
691.6582916
699.3951796
711.6424096
724.1065806
745.6128577
774.419631
806.5226118
869.8649363
972.5494499
1123.88446
1282.025599
580.4931063
-908.9339804
-1159.16354
-1141.681322
-1089.580519
-1026.729727
-969.1465078
-916.4118503
-878.2772246
-852.6152019
-836.3610144
-828.6379084
679.1757834
683.5156851
692.4266663
706.6798983
722.9354495
749.1289847
784.8954365
829.8584644
918.8784858
1070.483824
1322.428059
1804.607989
-2472.253416
-1827.961609
-1507.719016
-1322.282831
-1178.336306
-1052.132471
-965.8869444
-900.700835
-864.971655
-843.3163332
-833.0099542
666.5162391
671.139324
680.6309039
695.8743942
715.0257291
743.6648338
782.828131
834.9955066
933.6430885
1089.273602
1294.685865
1504.772383
-3889.131319
-2332.749596
-1765.881963
-1481.543186
-1279.620576
-1100.859235
-992.2791787
-906.3030616
-864.6892256
-839.7305474
-827.8984705
649.5954619
654.1928173
663.6085461
678.7088619
699.6450066
728.3244711
767.182014
820.8711107
915.8118272
1050.829832
1194.72636
1304.771328
-3684.408288
-2357.030916
-1803.491504
-1509.945658
-1298.801131
-1101.523581
-987.483428
-891.7615323
-849.3728623
-823.9457085
-811.8528297
628.3930431
632.6733433
641.3902643
655.2181681
676.9115474
703.4007889
738.8341637
789.5398389
873.2548129
984.2209686
1094.366013
1184.79192
-2808.911841
-2016.108933
-1636.173414
-1410.460214
-1232.397928
-1051.524258
-950.3075669
-857.0453905
-818.8583547
-795.7145581
-784.6156195
603.1560045
606.8656053
614.4171462
625.7938543
647.862296
669.9958351
699.6550083
744.0696961
812.3331713
900.2782396
992.5343077
1094.07967
-1867.247396
-1527.696914
-1347.887169
-1217.973051
-1100.025949
-962.1374729
-886.1219655
-805.1041123
-775.0776342
-756.2900794
-747.168291
574.3877721
577.3474013
583.4846327
592.2537216
612.1442571
629.5460939
651.8010847
688.0526705
737.6841818
799.8188025
870.3009662
977.7226945
-804.0375785
-984.8188109
-1041.533425
-1023.489226
-987.41366
-935.7441943
-851.1890645
-804.2034207
-741.5915714
-721.5270328
-708.0888267
-701.5032011
542.7225926
544.8448584
549.3919621
555.6518473
572.552915
584.7426215
599.0487213
625.5082501
654.4150072
684.7092136
712.0103152
781.9472819
205.4609383
-431.9372297
-650.6201865
-732.1991305
-766.3834796
-769.2252998
-735.4405994
-714.4907052
-673.1776928
-662.1446134
-654.0763797
-650.1654711
508.9001973
510.1052523
512.77155
516.248514
530.2062957
536.4337537
542.855179
557.5388653
565.1392108
561.4880167
535.6994828
453.3132335
165.7102306
-195.6432346
-400.0349631
-512.1534948
-583.0706088
-623.7576376
-625.6749438
-626.3359347
-603.4578347
-600.2302911
-597.1888357
-595.756706
473.694057
474.0222976
474.8206676
475.6041708
486.5252735
487.4291144
486.7203845
491.06078
482.2822946
458.1306706
402.5708919
293.18783
122.6979528
-88.81427733
-248.1868172
-362.3223735
-447.1843497
-505.8242495
-529.3278159
-544.3858415
-535.7793174
-538.7780795
-539.9724465
-540.5841526
437.8855851
437.450951
436.6091046
435.0303586
443.0563748
439.4012863
432.9514396
429.7651206
411.4075109
376.9963638
316.9653859
233.4211852
107.9258685
-31.69539433
-156.228724
-261.7636776
-349.7002219
-413.0321962
-447.1721482
-470.7384852
-472.5530612
-480.0689598
-484.4243009
-486.5040038
402.1977253
401.133902
398.9413782
395.4370701
400.8220292
393.6105565
382.7967566
374.1990035
350.9249402
314.6452791
259.8101644
187.8265525
97.99265128
-3.778071128
-106.1168763
-200.7854091
-280.4057061
-340.2513695
-378.4596792
-406.2624305
-414.951773
-425.3636661
-431.857439
-434.9010249
367.2265408
365.669238
362.4173338
357.4419337
360.6407796
350.8638087
337.0849613
324.9257268
298.6236356
262.580708
214.2548206
153.2679564
83.28346163
1.794461733
-83.76271342
-162.8064611
-229.9412459
-283.7531757
-322.0998413
-350.7711318
-363.305535
-375.2779027
-383.0018085
-386.6598484
333.4388174
331.5245348
327.5044155
321.4988821
322.9897742
311.5590585
296.0536061
281.8857219
254.627161
219.2561447
175.0485175
123.0365861
64.23655657
-2.536196094
-71.18430943
-135.4393924
-191.9307045
-239.2002887
-275.4587182
-303.2099486
-317.5397754
-330.0358568
-338.2813316
-342.1995641
301.1801855
299.0385511
294.5248246
287.8846493
288.1224861
275.7983976
259.455344
244.5652272
217.7271518
184.3210724
144.3658648
98.6927209
49.8279899
-5.612128624
-61.68852007
-114.684204
-162.3528147
-203.4612145
-236.5367284
-262.4448339
-277.1945213
-289.5021883
-297.7626711
-301.7006966
270.6844288
268.4278101
263.6609556
256.7161613
256.1106336
243.487261
227.0416381
212.238046
186.6700024
155.8343252
120.1559196
80.30773932
38.79253341
-7.507846163
-54.03150371
-98.25898109
-138.646903
-174.2221539
-203.797798
-227.3988195
-241.6877733
-253.3644558
-261.3075352
-265.102077
242.0816695
239.8011032
234.9799533
228.0033761
226.8603211
214.4034824
198.4073615
184.1920621
160.3744284
132.345114
100.7409523
66.0216943
30.49157425
-8.550896838
-47.58121789
-84.81454452
-119.1608482
-149.8708471
-175.9796265
-197.1294918
-210.4422372
-221.2351196
-228.6564933
-232.2059226
215.4144406
213.1806418
208.4593453
201.66429
200.2290897
188.2711225
173.1027073
159.7761183
137.9493007
112.7579698
84.91266619
54.69732099
24.16020692
-8.983194315
-41.97699484
-73.51299013
-102.8011848
-129.2688798
-152.1129641
-170.8448504
-182.9136158
-192.6988962
-199.4853226
-202.7329279
190.6579959
188.5240947
184.0160461
177.5581681
176.0255682
164.7928601
150.6990536
138.425962
118.6792063
96.24674735
71.81934598
45.56557123
19.26150462
-8.981387857
-37.00348478
-63.81389399
-88.82622495
-111.6018885
-131.4483047
-147.8896199
-158.6016554
-167.3413827
-173.4436515
-176.3642564
167.7385229
165.7428846
161.5281376
155.5151194
154.0329026
143.6699375
130.8051885
119.6592802
101.9891361
82.17805143
60.84530695
38.0888885
15.4249583
-8.674158733
-32.52457364
-55.35266759
-76.7141257
-96.27104546
-113.401177
-127.721686
-137.0592004
-144.7689504
-150.1805011
-152.769877
146.5449633
144.7139118
140.8465022
135.3486156
134.0305833
124.6208531
113.0427656
103.073047
87.41872422
70.0642022
51.53473667
31.8824417
12.38780899
-8.155640803
-28.44962426
-47.87452969
-66.08802994
-82.82819756
-97.51294645
-109.8950365
-117.8908966
-124.6166296
-129.356708
-131.623496
126.9395947
125.2899347
121.8038464
116.863222
115.7957521
107.3805379
97.10938739
88.31338562
74.59144838
59.52358187
43.54112488
26.66147396
9.958302938
-7.494506503
-24.7132893
-41.19224277
-56.66444758
-70.92622438
-83.41227643
-94.03397826
-100.7476924
-106.5502575
-110.6522314
-112.6120827
108.768166
107.3096297
104.224035
99.8619442
99.11268938
91.70254414
82.74285933
75.08479221
63.20048679
50.25600027
36.59785029
22.20946865
7.994318269
-6.740769164
-21.26583445
-35.16363496
-48.2247553
-60.29145557
-70.79637002
-79.82230635
-85.32188619
-90.26736709
-93.77083797
-95.4425736
91.86733369
90.60444513
87.92790103
84.15080405
83.77329919
77.35909339
69.68940744
63.13585515
52.99111126
42.0189726
30.49251982
18.36508932
6.387859119
-5.93047375
-18.06635851
-29.67528903
-40.59284828
-50.69933439
-59.4128749
-66.98909528
-71.34139324
-75.49463056
-78.44045845
-79.84362449
76.06349518
74.99812809
72.73291322
69.5347961
69.58693027
64.14005999
57.72458615
52.25226368
43.74953249
34.61344009
25.0541953
14.9984206
5.055037664
-5.089313108
-15.07980969
-24.63423661
-33.6234231
-41.95430877
-49.05003339
-55.29981689
-58.55947732
-61.98221301
-64.40889895
-65.56159267
61.20278625
60.33292044
58.47747656
55.84943702
56.35481744
51.85021529
46.59371006
42.25348289
35.29182101
27.8720902
20.14185945
12.00377836
3.929373095
-4.235595681
-12.27517953
-19.96282777
-27.19827255
-33.90078159
-39.51125412
-44.54458616
-46.7713142
-49.5155335
-51.45787525
-52.37770232
47.04657136
46.377221
44.93435166
42.85826846
43.93473139
40.3101119
36.15830872
32.94227183
27.45095728
21.64932389
15.63520356
9.291847197
2.956590905
-3.38189514
-9.623230873
-15.59241618
-21.21681122
-26.4462806
-30.60939098
-34.5337989
-35.72679229
-37.84905664
-39.33275603
-40.02826852
33.67684666
33.18778848
32.14789719
30.6603822
31.95624096
29.34763842
26.28089603
24.16221086
20.08113731
15.81789793
11.42988225
6.782166071
2.091606886
-2.536180247
-7.095803658
-11.45946478
-15.57973775
-19.43079136
-22.22775314
-25.07648092
-25.45525545
-26.95331555
-28.0047969
-28.50205033
20.02575503
19.79001666
19.17057494
18.27279113
20.50221851
18.8160036
16.79352884
15.76996323
13.05351168
10.26272705
7.426428168
4.404059014
1.297192896
-1.702019299
-4.665225644
-7.504240948
-10.19389548
-12.73010725
-14.23188212
-16.09588103
-15.16342711
-16.0630075
-16.6837872
-16.92759446
9.833136179
9.604805085
9.278499297
8.754845055
9.282415579
8.446175171
7.471982767
7.632778105
6.258054812
4.880016671
3.515264851
2.089267606
0.551758303
-0.8775793181
-2.304524394
-3.671528993
-4.974714538
-6.231054637
-6.410746851
-7.264301229
-7.217395128
-7.662725745
-7.955485053
-8.161306171
1543.84313
-4144.50265
-2602.475224
1323.158901
-4005.768449
-4215.035927
1197.10638
-3050.962213
-3911.817035
1105.946211
-2029.649362
-2920.022841
987.2265575
-859.960575
-896.4084313
-1098.655671
-1906.932048
809.1502993
292.9099765
-813.6160319
157.4758703
-444.9917698
-993.6567775
1786.597923
774.4745861
-2267.611527
-726.5850825
-5337.422701
-3192.262213
-3816.845298
-2475.166095
-1954.427667
1220.445526
1312.515877
1482.526715
-5654.897228
-5876.861053
-3763.097477
-2630.741489
-2575.388922
1119.107292
1186.580682
1294.267598
1254.011686
1282.923908
1348.604851
-4223.472255
-4986.925751
-2927.674997
-2284.407408
-2578.811722
1019.035476
1091.625723
1173.857723
1150.525657
1188.620224
1219.895889
-2824.518994
-3419.209329
904.12852
978.2471617
1079.33859
1048.306086
1110.70988
1151.225761
-1632.010072
-1575.16054
-2108.837547
753.6553647
802.6603896
961.0226392
911.6538844
990.3450059
1048.741954
520.6503934
272.3962821
304.4151358
1898.673047
1557.176972
2473.340116
1974.459892
-5878.959256
-5403.617587
-3713.385058
-5175.778075
-5724.946717
1356.584146
1411.617933
1386.220878
1412.200565
1360.209111
1530.52678
1421.516756
-5031.921467
-5626.59604
-4152.828858
-5500.725911
-4944.26218
-5725.692186
-5526.721492
-4177.237873
1225.564094
1274.098963
1238.553213
1279.169573
1227.275366
1355.995275
1284.030978
-3507.006591
-4168.148254
-3438.582395
-4067.901668
-3437.245037
-4900.046816
-4166.877027
-3564.290026
1154.158131
1187.023753
1139.603338
1190.306621
1158.407459
1224.301976
1191.632206
-2186.681207
-2742.437876
1052.80188
1107.820357
1040.600191
-1591.142204
1113.250139
1057.846956
1155.374321
1116.18452
-1631.177747
-1026.675236
-1499.963705
-1584.245146
1009.843085
987.1507562
899.6023918
-83.47605907
993.7324041
898.9239798
1053.7892
995.9190621
-159.6721679
1314.604917
1516.132201
1704.314158
1728.54095
1947.261591
2338.322178
-6405.75074
-3787.579159
1411.14069
1421.767085
1537.496966
-3366.981147
-1981.982003
-1731.87781
-2155.938531
-2018.270371
-1955.4439
-2235.145598
-213.380845
-517.3220982
-889.0201473
1564.364176
1881.440377
1682.045015
1587.468969
3328.144339
2643.658422
-3062.834548
-5022.763989
-3488.705323
-2280.819126
-2582.395966
-2405.799025
-2699.88306
-2160.452133
-3352.898778
-2779.34678
-2533.342972
-1201.062387
-360.9155396
-503.6656796
1276.88308
1873.387867
2464.978997
-2756.659795
-701.0572296
1033.377174
-6534.522193
-4702.372819
-6368.904236
-3645.115001
-6198.218047
-4378.508677
-5770.156687
-5787.619683
-4587.067359
-4638.817542
-2988.464819
-3304.134142
-3074.498526
-3281.23911
-2961.649312
-3675.374763
-3328.816945
-3159.441469
1129.580879
1100.854573
1082.02095
-1611.201879
-1869.72255
-1945.79833
1017.909173
981.1652792
953.523548
1014.640149
989.7888627
1021.264713
1854.394407
1614.548125
1714.003077
1629.28001
1883.869597
1486.902221
1604.069644
1666.362059
2318.319016
2604.059012
3171.169333
1940.552405
2502.167895
2232.094324
2522.786423
1919.474004
-5772.454006
-5748.035018
1386.826
1412.033976
1383.429269
1470.626885
1433.238528
1481.142846
1412.102738
1429.29218
1455.982311
-5315.32677
-5351.708215
-5256.813318
-4686.894404
-4815.165855
-4457.09187
-4635.16118
-5220.696659
-5664.670254
-4921.956422
-4898.648216
-4847.914549
-4913.249071
-5648.196051
1251.759032
1248.071301
1323.794332
1318.491613
-3778.926851
-3711.502382
-3827.45146
1176.365643
1173.928522
1205.993765
1203.837381
-2914.28367
-2604.697651
-2501.039253
-2625.206992
-2936.744669
1075.319839
1045.797174
1022.500571
1075.28084
1053.51275
1080.258704
-1249.482299
1084.473977
1079.039633
1135.795604
1133.724436
-1954.412469
-1248.688962
-1269.21291
-1525.564734
943.0939408
910.168142
923.8402205
940.6112981
441.2475885
136.2315792
1027.419858
-350.6380948
90.84800401
-267.1956159
1024.740973
-412.2555516
-297.9483474
58.53546677
-4542.697756
-2156.162822
-2301.567247
577.5155935
543.4415846
768.344556
658.3281415
671.4768594
940.1877153
178.5797195
-151.9225218
-333.9090612
4284.680168
-2335.245781
-2492.275885
-939.2783931
-1184.755037
-1201.807448
-169.9501237
-413.1829654
-141.0740172
2075.526057
2614.338547
3320.650674
-3234.154495
-661.62615
1377.820929
-5713.739113
-6358.15562
-6285.425983
-5850.565375
-4378.16316
-4568.673879
-4381.384142
-5245.468609
-5092.472478
-4844.434119
1201.640272
1184.354313
1169.7356
1206.232552
1189.537131
1204.13307
1124.012998
1106.767413
1131.941186
1001.401777
984.6032615
971.0447385
842.0625723
591.3143363
331.7079639
-5849.070942
-6328.108663
-6388.631233
-5582.980389
-4651.596781
-4337.101033
-4872.069717
-4725.470367
-5601.156675
-5160.46523
-5432.691171
-5297.885997
-5520.991573
1243.862363
1231.38381
1212.19297
1233.271445
1240.175887
1235.512789
-4322.981195
-4156.821319
-4019.30565
-3787.069419
-3547.911157
-3784.104577
-4568.789955
-4174.779598
-4390.537574
-3863.344982
-4098.639648
-4519.143654
1170.440802
1145.406197
1129.577844
1165.005354
1150.484823
1172.84835
1185.701021
1199.353587
1200.288098
1170.880489
1185.015621
1166.591408
1215.954199
1220.81667
1230.445151
1200.195521
1201.973645
1196.02212
-2421.993738
-2562.160607
-2273.14672
-1447.553732
-1445.036155
1103.22352
1059.192797
1145.917228
1153.828484
1168.479532
1142.740162
1123.619628
-1763.241713
814.3603591
899.8306293
861.7958488
966.1229049
948.5676143
970.7995749
102.9718457
347.8765261
111.6346634
980.1404218
409.4968257
657.4783496
476.8546718
592.1315857
1037.700711
1008.281847
-5744.68247
-4426.476905
-5391.538297
-3495.169955
-3552.69899
-1978.095764
-2111.437605
-2129.361089
1538.912199
1522.471547
3130.178868
3536.628139
3977.16808
3331.733613
3018.726909
-2656.124359
-2498.167201
-2450.545055
-2506.289528
-2675.369988
-1215.973751
-1045.984889
-1053.204214
-1050.637731
-1220.094009
-836.7671268
-1002.887818
-608.7336377
-627.6282586
-787.949448
-418.8386706
-575.0644151
-511.7648436
-6682.368451
-5857.097864
-5387.3067
-6240.485724
-5975.381918
-5200.156839
-4502.413921
-5379.069772
-6127.21015
-6055.639278
-5726.489926
-5837.274294
-6253.22012
-6157.471921
-4798.936998
-4627.620382
-4431.168159
-4683.361382
-4866.202548
-4438.036278
-4628.230294
-4917.453442
-4794.058258
-5041.13603
-4853.953099
-3124.23465
-3180.044314
-3148.807894
-3064.549854
-3195.684768
-3528.417713
-3423.822303
-3563.649543
-3239.67653
-3377.556681
-3476.831974
-1822.198787
-1794.906105
-1930.801769
1001.305694
989.1905324
1001.926706
1029.725758
1016.900848
1005.779499
1728.697632
1696.500404
1714.19919
1764.280875
1674.585564
1922.933238
1799.199774
1748.98196
1531.558197
1568.479252
1523.820287
1649.346717
1586.144765
1548.747473
2141.329495
2136.287519
1970.566366
2216.661677
2127.384067
-6331.949388
-6321.770596
-5833.815964
-6466.52063
-6508.383959
-6444.725537
-6409.574132
-6315.811956
-6531.875119
-6422.635885
-5634.333779
-6219.15896
-6328.425499
1396.684116
1399.157827
1392.137714
1412.982197
1402.618807
1401.861864
1384.188404
1377.955222
1391.306506
1385.89758
1449.175154
1473.54236
1452.579388
1512.077396
1481.956584
1454.981083
1421.434673
1428.191811
1416.299439
1446.790437
1432.596323
1425.939659
-5593.139231
-5475.432956
-5200.994429
-5476.56638
-5762.464178
-5623.788665
1267.068751
1256.856898
1284.563046
1269.673092
1241.34171
1235.571128
1252.603357
1243.036821
1353.766761
1336.134899
1374.761375
1359.527298
1305.888322
1288.617529
1330.173212
1312.164923
-3795.536149
-3943.747527
-3610.844119
-3749.987719
-3847.778884
-4205.652072
-4375.241396
-3993.116023
-4153.712292
1186.482729
1196.999869
1183.675098
1202.506152
1188.896699
1203.242314
1205.402313
1186.91643
1168.057477
1184.421248
1183.999089
1212.661741
1217.773147
1213.099047
1220.842539
1215.507992
1232.655989
1223.035761
1202.821078
1202.295579
1210.125345
1203.816533
1197.749411
1203.194239
1209.68564
-2686.249409
-2759.948717
-2825.530263
-2673.978229
-2872.455513
-2802.212984
-1231.594784
-1399.623986
-1432.405904
-1230.819799
1099.795298
1065.08357
1145.23138
1150.439331
1142.986155
1126.591176
1146.319764
1145.0302
-1840.438177
961.5611822
941.6448231
924.5496457
609.8264149
510.4310462
973.22797
220.7210386
382.5755803
273.6497025
1032.18374
-504.6186011
-66.22654648
162.7819425
-112.7822836
1001.359117
-2196.662913
-1735.709369
-1142.671445
-2289.864132
-2342.097696
-1115.317644
-1166.599919
-1586.279363
-2352.956709
-1006.213984
-999.6382836
-840.4383647
-2084.892744
-1595.094331
-1546.219067
2612.543733
3381.824465
4182.191048
-3390.713105
-564.4307061
1825.749959
-1413.338395
-1002.205441
-2698.461529
-5046.404512
-5701.221062
-5978.260903
1311.616606
1294.238281
1268.862652
1329.065935
1302.957307
1321.347029
-1613.949665
-1749.190101
-1765.69307
-2188.261716
-1934.858296
-1876.633437
1032.941219
1021.406222
1034.5097
-6054.678241
-6187.877491
-5597.371212
1260.794162
1238.313288
1250.73948
1266.669575
1269.613184
1283.631829
1288.054755
1304.214435
1298.211907
1058.403375
1047.237915
1037.150071
-1605.032985
-1560.424378
-1548.216745
1062.803524
1068.211547
1061.021752
-1696.665597
-1709.425077
-1619.659087
-1441.909477
-1429.339852
-1567.386352
990.6484044
1049.928007
1056.552367
1059.107451
996.1164311
-6289.219191
-3402.622093
-1999.345433
-2062.430429
-2070.33523
-2282.881476
-2144.821563
-2106.70671
1564.012096
-4197.662796
-3670.949844
-4372.208671
-2408.203344
-2465.143663
-2324.703131
-841.0539705
-857.290086
-684.0585851
-688.4436313
-784.0715355
-1629.817709
-1036.10639
-3181.672049
-6525.089276
-6203.900489
-6047.926533
-6669.555577
-6632.517195
-3033.295443
-3063.815629
-3017.357099
-3320.452899
-3310.846288
-3282.406641
-2888.431426
-3018.672671
-3097.984905
-3639.606518
-3590.10567
-3637.393021
-1936.143041
-1913.17436
-1946.495001
1803.440209
1851.702586
1641.054339
1655.612515
1674.264703
1647.27341
1494.595429
1511.713631
1500.573693
1622.242594
1599.745199
1581.825866
2396.83476
2203.379686
2223.494655
2413.061076
2398.652475
2542.615049
1904.918064
1959.406376
1979.939212
1390.664605
1390.904912
1395.920783
1411.735995
1409.277523
1410.075731
1391.172273
1390.816899
1396.548084
1393.879291
1439.653764
1445.678006
1439.956364
1491.204141
1481.893355
1473.127314
1412.50876
1415.277939
1413.319383
1435.417769
1432.622943
1428.625077
1255.664681
1266.16981
1262.476203
1238.613043
1242.463513
1251.894444
1333.073325
1349.783295
1338.317617
1348.213366
1341.716927
1389.192329
1383.79221
1293.76396
1335.276592
1328.894408
1303.554345
1310.073948
1327.367718
-3959.250451
-4016.323846
-3683.18154
-3736.099075
-3762.315491
-4071.126377
-4096.413617
-3967.91069
-4105.055366
-3951.232164
1062.844847
1051.369942
1062.133713
1094.047792
1078.754397
1067.36789
1088.443517
1095.259824
1090.177148
1074.111611
1077.744943
1082.546939
-1950.72687
922.4864466
926.4221632
921.9339211
682.1235886
932.5771918
316.4406042
451.8920214
579.320011
1033.49866
1032.781884
1028.746497
-414.0225284
-260.1413129
-235.5227494
-249.7826197
1020.101087
1026.689728
1031.619848
-145.4236358
-219.4924097
-366.3808046
-2192.810126
-2233.784584
-2326.532566
-2280.837198
-2258.982594
4242.466269
4690.993307
4007.830846
-2386.8396
-2412.562402
-2340.907864
-2510.414184
-2459.672483
-2446.082876
-1852.126688
-1013.476572
-3314.963303
-5962.667649
-5960.966039
-5907.036086
-5940.52952
-6331.872117
-6185.042193
-6204.018604
-6145.140581
-6166.165483
-6309.332025
-5198.529856
-5118.908354
-5167.12602
-5014.384295
-5069.279545
-5148.946497
-6378.321995
-6206.555735
-6179.852685
-6220.267588
-6223.24571
-6401.847184
-5383.695524
-5304.002999
-5347.36306
-5215.211223
-5259.956145
-5343.505365
-5855.81165
-5881.297379
-5767.882774
-5815.24758
1200.288278
1195.555373
1194.202145
1173.753064
1170.357222
1167.096016
1177.313182
1174.380731
1178.937841
-1564.96343
-1614.906084
-1441.085663
-1514.773904
1115.301694
1115.06649
1120.552799
1116.468462
1061.0861
1060.443064
1067.917347
1057.167642
1158.63428
1156.154963
1152.118621
1164.137913
1160.476385
1164.217567
1128.262049
1126.891128
1135.53054
1120.839698
1127.072788
-1771.49442
-1761.862293
-1749.615467
-1621.553623
916.0579108
966.9347148
1111.89049
977.6411186
968.9647219
961.8908212
986.6334118
349.633357
331.1651072
1087.874151
960.4804535
715.8449281
1038.816963
1049.673813
1044.591333
1002.125936
-5992.010049
-6296.614733
-6055.918021
-5225.985503
-4983.05526
-4187.401329
-5760.556374
-5433.12238
-3444.231683
-3583.451811
-2123.201799
-2110.310031
-2122.046578
1550.040567
1500.632993
3735.112355
3569.077647
3418.672195
2822.226267
2678.18297
3229.104148
3002.236667
3107.090799
-2575.775249
-2518.77684
-2622.796421
-1068.20766
-1065.205784
-1052.834509
-1164.207336
-875.5469663
-858.6161052
-842.8631392
-994.5329865
-939.4811931
-935.9489514
-612.7692155
-667.4006639
-667.2876759
-490.1287884
-493.9860489
-542.0281156
-6463.917931
-6339.207495
-6603.075017
-6156.599174
-6416.507383
-6488.96373
-6611.999501
-6574.316483
-6094.718497
-5992.864456
-6015.483458
-5967.496953
-5975.873602
-6067.420608
-6216.880169
-6091.862574
-6119.812353
-6040.282753
-6065.343101
-6186.16588
-4745.148134
-4671.602828
-4725.189365
-4742.646998
-4808.325997
-4494.381273
-4521.04821
-4480.970684
-4571.784628
-4974.460673
-5018.113774
-4978.982753
-4895.030934
-4955.788111
-4779.999929
-4837.335377
-4915.354515
-3160.570424
-3085.635164
-3071.482628
-3099.087918
-3032.786556
-3083.809998
-3236.757572
-3264.620296
-3209.424438
-3490.935024
-3535.97373
-3565.661245
1763.55816
1667.121888
1544.481001
1526.062902
1508.86835
1564.301445
1580.122121
1562.229069
2190.808092
2281.751874
2313.288859
2549.449813
2426.887514
2048.035906
2024.955737
2104.873813
-6332.007039
-6144.101119
-6136.666188
-6158.538821
-6149.248008
-6327.870625
-6492.193272
-6497.291347
-6396.760099
-6622.467519
-6595.334646
-6577.597901
-6614.891901
-6371.531454
-6524.179141
-6601.400606
-6624.015626
-6464.973712
1397.922382
1395.486509
1393.951649
1406.594556
1405.894867
1401.982737
1391.071659
1391.032881
1391.914175
1391.269429
1457.108497
1451.332084
1444.855903
1463.407432
1472.460857
1463.99136
1423.150145
1418.732722
1415.904285
1428.142197
1430.279137
1427.206963
-5557.600549
-5470.102618
-5505.711647
-5388.754857
-5430.280898
-5513.127552
-5711.844751
-5632.372517
-5708.746909
-5538.837033
-5577.800239
-5663.35103
1264.280951
1265.603582
1267.416408
1258.039049
1262.496619
1260.861831
1278.701474
1276.714322
1284.840054
1268.422827
1270.826392
1273.304669
1239.775682
1241.508738
1242.194019
1238.211954
1240.263459
1237.907769
1248.676235
1248.451431
1252.959982
1242.957197
1244.945631
1245.429247
1361.314339
1354.842126
1347.984644
1351.663246
1357.748611
1339.169639
1345.422335
1342.090589
1375.461478
1367.78414
1310.257146
1304.732792
1299.743495
1302.270555
1308.057194
1289.775711
1289.445947
1292.268632
1324.202317
1326.769369
1332.956725
1314.49772
1320.626797
1318.212337
1322.706052
1316.580389
-3879.549366
-3913.369486
-3820.239634
-3788.735164
-3824.665885
-4256.222599
-4289.214794
-4243.336124
-4414.535772
-4345.884501
-4312.107908
-4040.132679
-4076.375477
-4038.219269
-4195.299176
-4146.119279
-4097.55268
1189.400311
1186.019318
1183.106513
1192.080571
1189.188601
1193.256955
1196.992193
1191.951868
1204.425581
1205.330768
1186.388502
1178.324067
1174.09384
1174.445654
1176.352911
1180.292334
1178.158283
1183.011531
1210.658003
1214.102944
1223.446245
1216.692247
1229.368792
1231.291248
1235.007245
1225.449023
1228.16972
1226.251295
1202.066243
1201.850067
1206.445592
1204.834214
-2776.497194
-2757.644988
-2811.773653
-2661.352556
-2708.027196
-2741.375635
-2937.821543
-2978.90503
-2854.835681
-2870.186315
-2881.312557
-1370.586535
-1370.522053
-1424.807213
-1242.231322
-1302.296551
-1312.16112
1099.812404
1090.962496
1113.602656
1108.620122
1069.919397
1073.003318
1069.224066
1075.655316
1072.711308
1084.480685
1079.909381
1146.344232
1144.406265
1142.860623
1148.900923
1146.397822
1148.067267
1146.656916
1140.394904
1138.359073
1141.808538
1141.141504
1145.779315
-1896.131624
952.892224
943.237854
951.4783953
563.8511918
585.2337955
652.8473006
520.1450623
529.1226084
508.6472705
965.6560945
318.4780112
264.6342543
195.842627
1029.649946
1031.105225
1031.818724
-481.3244616
26.73185045
-34.18258691
143.7199894
128.8667653
143.0463306
-54.96439006
-188.2178278
-170.016598
-68.04718098
1012.081168
1022.818248
1016.123674
660.8290362
639.3849009
623.0772204
630.0537371
595.0308547
573.1214352
580.1691992
524.9446385
498.7929267
501.574074
416.7182034
394.0137787
382.6838787
267.8642181
256.7426555
225.7371065
96.9934911
93.76304832
50.75585937
-86.86305916
-79.82347633
-132.6224544
-263.5659184
-245.7064292
-304.7700378
-414.2805171
-389.8080156
-446.7841386
-530.0905834
-505.6795145
687.7189194
674.7867308
646.930065
668.7789439
642.4087177
605.3048331
629.7955388
576.7173161
536.3312424
552.8450372
459.0939073
425.5048088
419.5277119
280.6796713
271.1010208
228.9159812
67.08972199
92.17119908
12.56684692
-142.8281118
-95.00494211
-191.198806
-324.5417604
-273.2270985
-365.2466592
-476.5056218
-426.6356756
-509.2573075
-591.1841785
-542.3063125
723.0566269
722.2239541
685.6997544
720.7411325
708.7097408
656.847386
700.795799
659.1996755
593.32077
637.0605103
534.0376802
475.1795143
486.621713
300.9807826
283.7376888
225.2925447
-7.893127892
53.2116217
-81.84296224
-275.3662632
-167.6832996
-329.2215959
-462.9985074
-351.0248181
-500.8632972
-596.8336155
-499.3455941
-623.0729522
-687.2218459
-611.9599582
761.8264387
778.7693887
735.7168707
784.8184335
802.4066889
729.4540342
806.5762581
803.4594879
688.2515415
794.0959824
710.7730079
564.9173213
655.4898772
373.9488657
312.3837422
248.1855585
-152.8258007
-35.62765585
-269.662514
-527.1586561
-324.3430035
-586.2395786
-707.814323
-513.6250668
-733.2940055
-786.4809878
-638.077721
-798.794001
-824.7843406
-717.4275326
798.476323
837.5084101
793.6904891
853.9639494
915.1918602
829.584098
939.7971904
1023.322764
853.7027478
1052.292716
1110.809633
784.4939875
1101.511854
689.1017971
421.083543
531.1486519
-505.3491395
-209.9778174
-700.8425799
-985.3635536
-616.8999204
-1018.690216
-1051.083042
-784.037336
-1049.527284
-1035.946605
-843.9358212
-1028.036981
-998.1160989
-865.5707102
825.6347167
884.0387335
850.6330623
909.6576816
1009.795914
942.5888961
1052.715053
1221.134036
1081.660153
1294.774095
1688.024784
1253.43756
1517.027382
1634.222137
1194.919195
799.0370199
-441.4928702
-78.40949535
-1267.626054
-1290.649428
-1037.795698
-1655.314114
-1468.184592
-1150.269939
-1420.093029
-1301.642787
-1104.254577
-1267.591089
-1173.171917
-1043.097069
835.5443647
903.7791187
891.7517373
933.2918038
1045.482989
1025.063064
1091.40714
1254.088828
1246.480627