/*--------------------------------*- C++ -*----------------------------------*\
| =========                 |                                                 |
| \\      /  F ield         | OpenFOAM: The Open Source CFD Toolbox           |
|  \\    /   O peration     | Version:  v1912                                 |
|   \\  /    A nd           | Website:  www.openfoam.com                      |
|    \\/     M anipulation  |                                                 |
\*---------------------------------------------------------------------------*/
FoamFile
{
    version     2.0;
    format      ascii;
    class       surfaceScalarField;
    location    "2.14";
    object      phi;
}
// * * * * * * * * * * * * * * * * * * * * * * * * * * * * * * * * * * * * * //

dimensions      [0 3 -1 0 0 0 0];
oriented        oriented;


internalField   nonuniform List<scalar> 
25162
(
0.0004145813256
0.9162354187
0.0004941932169
0.9166203881
0.0005551400253
0.9165890532
0.0002689877943
0.9166302595
0.0003058927425
0.4583396
0.0002793878082
0.4583165138
0.0003369059955
-0.0003534198276
-0.000429569988
0.4582961989
0.0004833710514
-0.0005342821728
0.458246666
0.0006226162124
-0.0007196102698
0.4582236237
0.000825986553
-0.0009515819259
0.4581960931
0.001090488836
-0.001235242419
0.458184599
0.001385643464
-0.001539978308
0.458197734
0.001673744277
-0.001790634114
0.4582444245
0.001879709635
-0.001931617395
0.4583193289
0.001947288491
-0.00192346354
0.4583956354
0.001857828118
-0.001766623119
0.4584493636
0.001652259514
-0.00151282906
0.4584709482
0.001376880842
-0.001235407215
0.4584854126
0.001064994594
-0.0009901949179
0.4584621689
0.000878026056
-0.0007312054275
0.4584695889
0.000611616596
-0.001516794164
0.9187293898
4.481888754e-06
-0.00056707748
-0.0009472350026
0.9187804408
6.206605549e-05
0.915840699
0.9138620661
0.001137220981
0.9150981977
0.001766701852
0.9159909072
0.001934092964
0.9164216621
0.0004684251262
0.9172741258
0.0008218014962
0.4581269668
0.0005616860938
-0.4582202278
-0.4582152362
-0.0006912682661
0.4580503869
0.0008561175633
-0.4580835864
-0.001063337618
0.4578300037
0.0006218956955
0.0006950246721
-0.2289853544
-0.0007646838085
0.2289169577
0.0008330805675
-0.001138412331
-0.2289241137
0.2288321668
0.001230359156
-0.001631754655
-0.2288615164
0.2287349179
0.001758353193
-0.002252288339
-0.2288227219
0.2286747904
0.002400219876
-0.002924933153
-0.228839845
0.2287601454
0.003004679942
-0.002753748252
-0.2289487965
0.228721284
0.002981183277
-0.003844426962
-0.2291210889
0.2290618892
0.003903626693
-0.003837512581
-0.2292660971
0.229297894
0.003805715686
-0.003505581697
-0.2293678949
0.2294850563
0.003388420273
-0.002957876786
-0.2294062148
0.2295635194
0.002800572194
-0.002354564336
-0.2293917095
0.2295469696
0.002199304266
-0.4589030887
-0.003468360181
0.4603713376
0.002000111336
-0.0006508731633
0.4610186661
-0.001075226673
-0.4592925662
-0.001114669115
0.9184698677
4.48350128e-05
0.001329356155
-0.0006755276534
0.9183412994
0.0005061700313
0.9146590013
0.9143682361
0.001426303887
0.9136718938
0.003866085902
0.9135511252
0.006539427084
0.9137483209
0.002579835786
0.9152382053
0.005995511817
-0.4581285915
0.4580131519
0.002695275298
-0.4579282729
-0.002610395689
0.4586553948
0.001883273715
-0.4574880124
-0.001874081683
0.4573636305
0.0009705325586
0.001027931001
-0.2285865997
-0.001222295887
0.2284443009
0.001364594708
-0.2283624697
-0.001886012911
0.228155435
0.002093047591
-0.2282103822
-0.001745329699
0.2335041452
-0.003545675884
-0.237908146
0.02181598975
0.2429808404
-0.02687731901
-0.235978946
0.0380823727
0.2383053717
-0.04040094906
-0.2271052495
0.04303041275
0.226537091
-0.04246446369
-0.2194232368
0.03639990663
0.2159864093
-0.03297390378
-0.2209725691
0.01877375313
0.2150884565
-0.01290039919
-0.2300636799
-0.00551382277
0.2291681718
0.006408719325
-0.2302705716
-0.005527545705
0.2305895209
0.005208596344
-0.003981378438
-0.2302810657
0.2309627914
0.003299652789
-0.463052258
-0.0008579562663
0.4619727649
0.001937449411
-0.4601868884
-0.001979847775
0.4602732553
0.001893480906
0.001004751082
0.9206522696
-0.001819846056
-0.001367306894
0.002141942555
0.9172041079
0.001004699917
0.9157962439
0.915372936
0.0004100746396
0.9132618192
0.0008985478345
0.913062652
0.001948667553
0.9126982012
0.002867143495
0.9125093205
0.001810408879
-0.457326786
0.4569790209
0.0032149086
-0.4602939631
-0.004328563834
0.4573572652
0.007265261793
-0.4589749488
-0.00839272986
0.4606856806
0.00166397781
0.005018020246
-0.2279267637
-0.001558819709
0.2277760393
0.001709544097
-0.2304709625
-0.0002139465413
0.2377632637
-0.007071972723
-0.2539590669
0.02832714371
0.2602478575
-0.03458787468
-0.2566283031
0.04940518693
0.2601155745
-0.05286405411
-0.2437264092
0.05908136129
0.2446831438
-0.06002456444
-0.224878085
0.06047996596
0.2244121977
-0.06002049021
-0.2072012864
0.0566192269
0.2051965251
-0.0546388683
-0.1985567679
0.04507709187
0.1939759112
-0.04052966234
-0.2079006674
0.02298226528
0.2010107105
-0.0161177543
-0.2341351091
-0.0009766249992
0.2358118903
-0.0007011071514
-0.004491537096
-0.2318849687
0.2319305901
0.004445915623
-0.4621015117
-0.006969010674
0.4634939778
0.005576544558
-0.4611230027
-0.00419195574
0.4622766771
0.003038281341
0.004104402787
0.9211595671
-0.002424599369
-0.002187100919
0.002773636548
0.9185348742
0.001290329207
0.9172795513
0.9166632652
2.326586737e-05
0.9132385533
8.105181942e-05
0.9130048661
0.0002557330775
0.9125235199
0.0009359516954
0.9116993693
0.0001297325434
-0.4567919708
0.4560728
0.001655122561
-0.4560535217
-0.001976583448
0.4555510236
0.002479081513
-0.454771105
-0.003188038754
0.4541828657
0.0020343845
0.001741893481
-0.2285939649
-0.003749044436
0.227583282
0.004759992852
-0.2594858048
0.01027684034
0.267928641
-0.01868526743
-0.2754312326
0.03790324608
0.2789816897
-0.04140475426
-0.2654297596
0.04594190726
0.2651364961
-0.04561169397
-0.243527148
0.04097442411
0.2415205501
-0.03895398881
-0.2234624985
0.03477234183
0.2233248716
-0.03464243637
-0.2035710426
0.03738226216
0.2050014412
-0.03884215119
-0.1851397304
0.04146594448
0.1843095731
-0.04068467456
-0.1957507071
0.04588763389
0.1846200936
-0.03480366136
-0.2082216391
0.01369305938
0.2017297196
-0.007227710621
-0.006588857691
-0.233471206
0.2341016907
0.005958373029
-0.4653796854
-0.008330080421
0.4672310852
0.006478680575
-0.4634149302
-0.005079685748
0.4646129678
0.003881648225
0.005064926331
0.9237288441
-0.004213496647
-0.003420706646
0.002858358644
0.9207414419
0.001310518381
0.9188273915
0.9179737836
-0.0002378790606
0.9134764324
-0.0003954780016
0.913162465
-0.0003444997444
0.9124725417
-6.141731616e-05
0.9114707144
-5.442751706e-05
-0.4552768081
0.4550512911
0.0001640996752
-0.4551687183
-0.001026202358
0.4545245927
0.001670327978
-0.4535534328
-0.002069257724
0.4527256861
0.001412750521
0.001484253873
-0.241667061
0.00244414591
0.2464337075
-0.007193287777
-0.2787730658
0.02043183751
0.2823632239
-0.02396824007
-0.2834193077
0.0279319674
0.281828173
-0.02628360217
-0.2561999283
0.01471080509
0.2562943037
-0.01477300261
-0.2295605139
-0.004772632971
0.2245541953
0.009785906301
-0.2229099779
-0.02250559868
0.2228792354
0.02253488774
-0.2182298129
-0.007919477232
0.2239298134
0.002203075353
-0.195771274
0.02060476235
0.1984452457
-0.02332611705
-0.1724740286
0.02404892772
0.1715072561
-0.02314450417
-0.1858164672
0.01518529661
0.18192003
-0.01133857169
-0.002691612694
-0.2310379346
0.2280668859
0.005655512798
-0.4689505033
-0.008878985698
0.4707439932
0.0070854958
-0.4654385152
-0.005741516771
0.4662359123
0.004944119685
0.004462191384
0.9267576735
-0.003645394504
-0.003845626273
0.00250551444
0.9226981188
0.001078292243
0.9202546137
0.9190520759
-0.0006171451701
0.9140935776
-0.001117450208
0.9136627701
-0.001490594357
0.9128456858
-0.0003181575221
0.9113245245
-0.001026246878
-0.4549946962
0.4547621309
-8.559215604e-05
-0.4535866626
-6.752151676e-05
0.4533153221
0.0003388619562
-0.4525119843
-0.001194052474
0.4525238529
0.0006654106418
0.0005167271877
-0.2566314586
0.005007810546
0.2595826223
-0.00792741547
-0.2933153499
0.01508837265
0.2892923066
-0.01099791496
-0.2777324575
0.01184814732
0.2760638943
-0.01012147227
-0.2351706149
-0.001887898286
0.2273761198
0.009701877841
-0.2111961992
-0.03080916707
0.1074029874
0.1017400219
0.01432943806
0.01853291891
-0.0230141827
-0.1088325616
0.1082279944
0.02361874984
-0.01884467675
-0.2467589803
0.03606179635
-0.01922880653
0.1239384793
0.1248321879
-0.0149758287
-0.2116619641
0.2184318356
0.008175373821
-0.1733237469
0.002410646137
0.1777297956
-0.00688233662
-0.1758747765
0.01144509323
0.17382505
-0.009454872772
0.001408196341
-0.2154614946
0.212491261
0.001539261722
-0.4725805457
-0.007909800244
0.4738992731
0.006591072861
-0.4674790749
-0.005077614233
0.4687044694
0.003852219757
0.002966781619
0.9290663094
-0.002484534722
-0.002790882846
0.001529228914
0.9241356715
0.0006270240825
0.9211568186
0.9196790999
-0.001001714486
0.915095292
-0.001957569593
0.9146186252
-0.002731191504
0.9136193078
-0.00147158294
0.912054504
-0.00198958811
-0.4547819552
0.4548335055
-0.001523133286
-0.4532303569
0.001626751369
0.4531919481
-0.001588342578
-0.452227998
0.001493677047
0.4533394827
-0.000858540602
-0.001744382947
-0.2645191475
0.001337929626
0.2648732947
-0.001652487598
-0.2910891405
0.002105064095
0.29123076
-0.002177438039
-0.2703291844
0.0006284569232
0.2692983898
0.0004570932264
-0.2137472395
-0.005279284152
0.2116776388
0.007355334597
-0.09569411032
-0.004925456072
0.09575340275
0.004866163644
-0.02668982725
-0.1354530571
0.1380541593
0.02408872503
-0.02451087665
-0.2407724412
0.2466819187
0.01858632046
-0.1834424714
-0.007897287093
0.1853875986
0.005892789499
-0.1716464221
-0.002752011322
0.171964695
0.00236695176
0.002376161174
-0.2075136333
0.2059214985
-0.0008141337003
-0.4755624555
-0.005159303019
0.4769424391
0.003779319428
-0.4696991765
-0.002800119785
0.4705387541
0.001960542227
0.0004762344168
0.9302770695
-0.0005032929502
-0.001183701525
4.708534017e-06
0.9246071974
-7.145823401e-05
0.9212329853
0.9196076417
-0.001371446561
0.9164667386
-0.002672662228
0.9159198409
-0.004045303858
0.9149919494
-0.002382577709
0.9132769095
-0.002885131645
-0.4550575319
0.455271752
-0.002596797835
-0.4533085999
0.002838616143
0.4535352933
-0.003065309508
-0.4539960168
0.003271691684
0.4549866659
-0.002065386222
-0.002191130871
-0.2671355676
0.003317575729
0.2674847411
-0.003629011487
-0.290338023
0.003633334852
0.2900899393
-0.003323222326
-0.2660817815
0.001766060654
0.2655337201
-0.001171233099
-0.2097839927
-0.0001440667904
0.209933061
-2.502476054e-06
-0.09934230047
0.00153442107
0.09982884018
-0.002020960788
-0.01200153186
-0.1509589827
0.1516499008
0.01131061376
-0.0135377161
-0.2605353247
0.2631490279
0.01091645065
-0.1923107192
-0.004562417324
0.1938726186
0.002949869245
-0.1732668544
0.0003663027791
0.1737166813
-0.0008770196079
0.0009774111081
-0.2044431019
0.204008847
-0.0005757334376
-0.4784613711
-0.001022848901
0.4796241316
-0.0001399115512
-0.4709907455
0.0007019428614
0.4712376164
-0.0009488138655
-0.002581690902
0.9298204883
0.00184706375
0.001191208308
-0.001860429478
0.923885936
-0.0009795696655
0.9203521255
0.918628072
-0.001701526323
0.918168265
-0.003509709297
0.9177280239
-0.005243282177
0.9167255223
-0.00328182339
0.9151089894
-0.00379353868
-0.4556630795
0.4560487062
-0.003667450114
-0.453823209
0.004103389497
0.454320135
-0.004600315479
-0.4560842595
0.005061522459
0.4577063983
-0.00313968193
-0.003536544192
-0.2684027779
0.00451065298
0.2688263519
-0.004900335502
-0.2896412176
0.005305616104
0.2895898595
-0.005200616421
-0.26461594
0.004430584758
0.2643628343
-0.004138321294
-0.2109326264
0.003597918157
0.2112658895
-0.003929997809
-0.1019641868
0.003011134552
0.1021657702
-0.00159330992
-0.001619407936
0.004930924532
-0.1502558966
0.1494174159
-0.004092443931
0.002550193712
-0.2629427622
0.2611131857
-0.0007277549855
-0.1947020383
-0.001584238729
0.1945720589
0.001668544201
-0.175234734
-0.0008485915114
0.1756473907
0.0003804059358
0.001074600399
-0.2053962157
0.20579362
-0.001501980549
-0.4796352788
0.004624852663
0.4790181566
-0.004007730423
-0.4710316828
0.003770796893
0.4712648373
-0.004003951411
-0.005951838633
0.927609758
0.004486222249
0.003676346662
-0.003892606852
0.9218267042
-0.001963975222
0.9184234939
0.9166640968
-0.002118624181
0.9202868891
-0.004217674018
0.9198270737
-0.006437013511
0.9189448618
-0.004156013999
0.9174832048
-0.004655214903
-0.4566010502
0.4571489311
-0.004703894917
-0.4548720357
0.00537083975
0.4554731364
-0.005971940449
-0.4597401536
0.006666206395
0.4621463439
-0.004435393378
-0.004627878582
-0.2702538777
0.00573376587
0.270778217
-0.006228395663
-0.2896414587
0.006996141782
0.2897165199
-0.00702604537
-0.2638041274
0.006702835778
0.263666767
-0.006533713152
-0.2123739598
0.00616417823
0.2127865606
-0.006576427322
-0.1033294104
0.004078426334
0.1034547915
-0.002088530424
-0.002115276993
0.01445095391
-0.1416778885
0.1404290742
-0.0132021396
0.01337312549
-0.2507921431
0.2457924027
-0.008384006834
-0.1907482564
-0.00294123739
0.1930166287
0.0006307666041
-0.1768203403
-0.0003678263222
0.1774306176
-0.0002910835553
0.002999329801
-0.2096232003
0.210535627
-0.00393531677
-0.477907005
0.009912498541
0.4763695431
-0.008375036659
-0.4712716539
0.007046000832
0.4700944413
-0.005868788279
-0.009062037655
0.9239293049
0.006666078729
0.006076412086
-0.005843677105
0.9186083436
-0.002864272267
0.9154440891
0.9137998245
-0.002500358587
0.9227872478
-0.005005409032
0.9223321242
-0.007611048544
0.9215505013
-0.004954821387
0.9200823506
-0.005255372925
-0.4578351449
0.4585083228
-0.005627999338
-0.4562640275
0.00640268123
0.4570880511
-0.007226704844
-0.4647604575
0.00811403621
0.4665166511
-0.005490994087
-0.004368255674
-0.2725104911
0.007107122553
0.2731787538
-0.007750562055
-0.2900824191
0.008860646485
0.2902428015
-0.008984799175
-0.2633348288
0.008806307769
0.2632059209
-0.008652932393
-0.2142673973
0.008232638412
0.2148756095
-0.008840834916
-0.1042655204
0.00528765036
0.104390513
-0.002687346345
-0.002725296673
0.01793094163
-0.1319032363
0.130664736
-0.0166924413
0.01681580388
-0.2312557897
0.2259939999
-0.0115686113
-0.1885015006
0.006167846962
0.1817493272
0.0005469364757
-0.178798766
-0.004439567236
0.1790268909
0.004168362679
0.004412957817
-0.2151336607
0.2167223909
-0.00601802834
-0.4744865156
0.01407460803
0.4723076086
-0.01189570108
-0.4687925666
0.01003314287
0.4672132232
-0.0084537995
-0.01175401867
0.9206679973
0.007825695978
0.007189630295
-0.007510972649
0.9143652976
-0.003637023072
0.9115701395
0.9101628015
-0.006528974546
0.9293162223
-0.01321730636
0.929020456
-0.01997224199
0.928305437
-0.005854781783
0.9272079386
-0.02124304817
-0.4593344311
0.4601764646
-0.00669681524
-0.4579360583
0.007605598964
0.4589577909
-0.008627331488
-0.4715407505
0.009614819637
0.4761902517
-0.007482164051
-0.006771192352
-0.2745126677
0.01112130796
0.2762347545
-0.0128264718
-0.2907500597
0.011489238
0.2901769773
-0.01088962456
-0.2627325104
0.008471245261
0.264539883
-0.01026024121
-0.2171253297
0.009905307069
0.2179793732
-0.005342216697
-0.005417133811
-0.05284361154
0.003331608829
0.05289285322
-0.003380850511
-0.05791678035
0.006559476222
0.05743098968
-0.01278303974
0.006709354189
0.01654618149
-0.1232607693
0.2430875155
-0.02935000758
0.01618814289
-0.1232110629
-0.2129047747
0.01255614369
0.2054972393
-0.005166090179
-0.1764953506
0.0004904258182
0.1760793531
-0.0001083048994
-0.1817077951
0.002361069329
0.1830655981
-0.003749442308
0.008251785783
-0.2238026611
0.2250868116
-0.009543006691
-0.4697906467
0.01659547481
0.4672821793
-0.01408700742
-0.4655693282
0.01213525704
0.4638036566
-0.01036958544
-0.01376681076
0.9161851256
0.009359103512
0.008890578921
-0.008811832639
0.9094103195
-0.004318272483
0.9070765794
0.905844529
-0.002954303604
0.9322705259
-0.005983830906
0.9320499833
-0.009168136682
0.9314897427
-0.006224030663
0.9306372026
-0.006373370055
-0.4630218968
0.4639048983
-0.007107032141
-0.4617816422
0.008088920753
0.4628283206
-0.009135599199
-0.4805123381
0.01026278334
0.478108215
-0.004329204528
-0.003514769669
-0.2788934598
0.003107086446
0.2783261875
-0.002521000775
-0.2913216867
0.001378088584
0.2913497334
-0.001381294678
-0.2617460108
0.003230618667
0.263151224
-0.0046206379
-0.2212300793
0.01114683167
0.2222470339
-0.006070251616
-0.006093534647
-0.05457400009
0.008070538389
0.1095482539
-0.05451192923
-0.004249076037
-0.004283786886
-0.1115223708
0.009047107502
0.1114482302
-0.01777469279
0.008801725825
0.02902154396
-0.2358810202
0.2319853328
-0.02512637036
-0.1942422292
0.005743875778
0.1918966557
-0.003414934443
-0.1774307031
0.0013460109
0.1721044686
0.00395350768
-0.1878389403
-0.002781794398
0.1941537603
-0.003555236047
0.01012408137
-0.231833242
0.2324626614
-0.01075463075
-0.4650418574
0.01733729764
0.4630420911
-0.01533753131
-0.4620313522
0.01344502592
0.4600362925
-0.01144996614
-0.01333363109
0.910873708
0.009255434416
0.009389614314
-0.00958971072
0.9056663992
-0.004680227334
0.902167096
0.9011643017
-0.003102830962
0.9353733569
-0.006281436619
0.935228589
-0.009613777929
0.9348220841
-0.006533771252
0.9342015752
-0.006644379231
-0.4648726536
0.4658238512
-0.007484968883
-0.4638977653
0.008512108933
0.4649821584
-0.009596502029
-0.4730897447
0.01075803401
0.467760551
-0.00254790518
-0.002872737592
-0.2732869635
-0.003087176785
0.2705154364
0.005875405224
-0.2898420688
-0.01261916594
0.2885950056
0.0138919041
-0.269486258
-0.01313504265
0.2715621218
0.01107959391
-0.231564796
0.001279001217
0.2376744136
-0.007383630836
-0.1125927474
0.01559566804
0.2241895334
-0.01515704294
-0.1120354111
-0.2255082346
0.02109525224
0.2261013357
-0.02168835341
-0.2165866698
0.01149070362
0.2114916299
-0.006399395762
-0.1824871542
-0.003180834085
0.1812384074
0.004414756417
-0.1716024875
-0.003176345424
0.1732636022
0.001495342487
-0.2009510125
0.005495946002
0.1998429381
-0.004400272976
0.01266049535
-0.2326596373
0.2302340216
-0.01023487966
-0.4612895057
0.01864534184
0.4579201746
-0.01527601077
-0.4580530968
0.01358621082
0.455850776
-0.01138389
-0.01366045643
0.9057554718
0.009451542976
0.009327149667
-0.009623322675
0.9016292654
-0.004880783001
0.8974245563
0.8962835187
-0.003179816619
0.9385531735
-0.006430235069
0.9384790075
-0.009822219008
0.938214068
-0.006685437822
0.9378096885
-0.006744894451
-0.4667975563
0.4677694468
-0.007657328309
-0.4660669644
0.008689136823
0.46714649
-0.009768662448
-0.4652712681
0.01091595936
0.4664039698
-0.005978228616
-0.006070349345
-0.2592197944
-0.002446310619
0.2545892551
0.00708737972
-0.2817447814
-0.01998208593
0.2783271812
0.02342204311
-0.2749809867
-0.0293340535
0.2747560014
0.02958270564
-0.2512929543
-0.02536178569
0.2539540475
0.02271676318
-0.2290014893
-0.01448633088
0.2313161018
0.01217928677
-0.2199780896
-0.01151435025
0.2184477362
0.01304730169
-0.2008623366
-0.01936691278
0.1991649822
0.02106011941
-0.1808629329
-0.02206542808
0.18213312
0.02078260799
-0.1815796485
-0.01248193922
0.185467599
0.00857925009
-0.2103368812
0.004502538659
0.2146194943
-0.008790822519
0.01169337452
-0.228158725
0.2275343217
-0.0110689712
-0.4570135139
0.01849444749
0.4542019167
-0.01568285028
-0.4528733371
0.01217096561
0.4512037484
-0.01050137688
-0.01268416084
0.8993003987
0.009798588551
0.00934064546
-0.007122032412
0.896067137
-0.00489716466
0.8951996886
0.891386354
-0.003190673138
0.9417438467
-0.006443663946
0.9417319983
-0.009818366323
0.9415887704
-0.006692604699
0.9413698647
-0.006685937823
-0.4687255708
0.4696824392
-0.00764947311
-0.4682077331
0.008653735222
0.4692479875
-0.009693989621
-0.4675993882
0.01078791342
0.4687551718
-0.005990443536
-0.005953253497
-0.2390719716
0.006521267979
0.2347787844
-0.002226464415
-0.2649095872
-0.01464514151
0.2595984411
0.01997017059
-0.2694710806
-0.03316990352
0.2663092075
0.03635140698
-0.2565469209
-0.04195232834
0.2558452034
0.04267215275
-0.2365570466
-0.04281057877
0.237526905
0.04185296093
-0.2165318566
-0.04016957678
0.2163087838
0.04039746947
-0.1994714581
-0.03768877473
0.2011427561
0.03601418636
-0.1902710186
-0.02761220116
0.1942458287
0.02362817464
-0.1999217399
-0.008860913507
0.2054070707
0.003367709217
-0.2262816988
0.01216463169
0.2260958672
-0.0119788836
0.01053237289
-0.2259003518
0.2254155388
-0.01004755994
-0.4504427003
0.01709509622
0.4486966456
-0.0153490415
-0.4495828174
0.01367815381
0.44796483
-0.01206016644
-0.01164851972
0.8920945813
0.0102776416
0.008576695513
-0.006601523621
0.8910201409
-0.004473749764
0.8930719148
0.8869126043
-0.003145631494
0.9448894782
-0.006343339707
0.9449297065
-0.009638930992
0.9448843617
-0.006573298719
0.9448136566
-0.006509424179
-0.4706082956
0.4715253207
-0.007490323825
-0.4702576129
0.008444619736
0.4712363214
-0.009423328301
-0.4698658064
0.01044049748
0.4709269195
-0.005782992982
-0.005718617597
-0.2347419928
0.00634236738
0.2350299321
-0.00663030668
-0.2425860594
0.004663695392
0.2369856346
0.0009392712383
-0.2539202173
-0.01694977135
0.2492395114
0.02164019647
-0.2503564651
-0.03274917959
0.2477553901
0.0353616169
-0.237981011
-0.03997539443
0.237532566
0.04043224927
-0.2163151104
-0.03692560679
0.2167219707
0.03652165728
-0.2094898216
-0.02970026263
0.2129837111
0.0262039199
-0.2085578352
-0.01301384445
0.2136954635
0.007871959541
-0.2223586076
0.0085432318
0.2254883651
-0.01167349775
-0.2248872271
0.01077805179
0.2245439486
-0.0104347734
0.009349221874
-0.2241537511
0.2237744296
-0.008969900382
-0.4471083721
0.0155039015
0.4456653474
-0.0140608768
-0.446488982
0.01264008702
0.4450803008
-0.01123140582
-0.01426216606
0.8869562401
0.00954496439
0.009855542883
-0.009368882532
0.8861268574
-0.001817289516
0.8855203217
0.8850953148
-0.003055162212
0.9479446404
-0.006151074412
0.9480256187
-0.009319280447
0.9480525677
-0.006351119088
0.9480902737
-0.006244778496
-0.4724050698
0.4732689667
-0.007215016041
-0.4721768651
0.008106001343
0.4730811616
-0.009010297898
-0.4719356111
0.009938818004
0.4728908469
-0.005488021447
-0.005406032344
-0.2358385571
0.005984813741
0.2360903661
-0.006236622802
-0.2356217416
0.006999920715
0.235877071
-0.007255250108
-0.2355757839
0.008016741606
0.2353707121
-0.007811643427
-0.2391456784
-0.0008780166826
0.2363406847
0.0036853697
-0.235432817
-0.009085381834
0.23464928
0.009871322365
-0.2196184799
-0.007908273236
0.2210131041
0.006514322724
-0.2238602298
0.0008546027151
0.2272520465
-0.004246865706
-0.2263803577
0.01076254708
0.2262781946
-0.01066038395
-0.2248190998
0.01021010434
0.2246260353
-0.01001703982
-0.2236542196
0.00933233138
0.2233971248
-0.009075236568
0.008242628276
-0.2227919709
0.2224913621
-0.007942019397
-0.4443533677
0.01389735969
0.4431591118
-0.01270310381
-0.4438050659
0.01150192858
0.4425897409
-0.01028660355
-0.01320343309
0.8823477488
0.008736310021
0.009075614335
-0.008722216404
0.8816456407
-0.004332324959
0.8811304303
0.8807629898
-0.002930290155
0.9508749306
-0.005890022182
0.9509853507
-0.008897610236
0.9510601558
-0.006055707744
0.9511686233
-0.005920252058
-0.474092158
0.4748951779
-0.006858727597
-0.4739440568
0.007679848593
0.4747689626
-0.008504754394
-0.4737930004
0.009342195358
0.4746438906
-0.005141091
-0.005051994512
-0.236792747
0.005576467543
0.2370104341
-0.005794154628
-0.2365752331
0.006441100003
0.2367870113
-0.006652878192
-0.2360376069
0.007269091619
0.2362349431
-0.007466427828
-0.2350876171
0.008026232475
0.2352615721
-0.00820018746
-0.2336740001
0.008664609247
0.2337044666
-0.00869507573
-0.2235568246
0.008803650917
0.2238965846
-0.009143410991
-0.2284480761
0.009330756781
0.2284382457
-0.009320926409
-0.226007866
0.009194689892
0.2259272383
-0.009114062209
-0.2241223557
0.008768433936
0.2239752754
-0.00862135367
-0.2227202406
0.008097068959
0.222521391
-0.007898219288
0.0072446912
-0.2217163541
0.2214763212
-0.00700465834
-0.4420692509
0.01237343465
0.4410741317
-0.01137831546
-0.4414936391
0.01036169187
0.440447659
-0.009315711826
-0.01207127961
0.8782496076
0.007913851939
0.008255568917
-0.008013459136
0.8775878202
-0.003991518585
0.8771084898
0.8767714712
-0.002781917262
0.9536568478
-0.005582888148
0.9537863216
-0.008409781764
0.9538870494
-0.005713698383
0.9540331715
-0.005560631609
-0.4756566798
0.4763961857
-0.006453204341
-0.4755522472
0.007203167829
0.4762983246
-0.007949245175
-0.475444324
0.008698123436
0.4761959108
-0.004766311476
-0.004683398804
-0.2376160446
0.005149733634
0.2378035615
-0.005337250577
-0.2373659554
0.005884537633
0.2375417088
-0.006060291036
-0.2367630644
0.006561293201
0.2369201521
-0.006718380919
-0.2357202688
0.007156338142
0.2358547073
-0.007290776579
-0.2337348056
0.007618904717
0.2337277738
-0.007611872913
-0.224806629
0.007715553779
0.2250716142
-0.007980538973
-0.2283921579
0.008071699369
0.2283725615
-0.00805210294
-0.2257059538
0.007928807937
0.2256378969
-0.007860751055
-0.2235827186
0.007580764679
0.2234655395
-0.00746358555
-0.2219898307
0.00704699742
0.2218312845
-0.006888451303
0.00636281509
-0.2208532482
0.2206578195
-0.006167386383
-0.4401634906
0.01097372903
0.4393288392
-0.01013907761
-0.4395054858
0.009274802392
0.4386040815
-0.008373398055
-0.01093851526
0.874622723
0.007118155908
0.007447243906
-0.007291164225
0.8739404692
-0.00364039616
0.8734577217
0.8731310751
-0.002619193429
0.9562760413
-0.00524837823
0.9564155064
-0.007884757691
0.9565234288
-0.005344012003
0.9566786091
-0.005186183238
-0.4770945614
0.4777722199
-0.006021670549
-0.4770045331
0.006702699897
0.4776758056
-0.007373972424
-0.476901069
0.008041029277
0.4775624527
-0.004387452224
-0.004314960783
-0.2383249159
0.004725619263
0.2384863564
-0.004887059757
-0.2380230377
0.005350757264
0.2381694468
-0.005497166383
-0.2373427906
0.005907285746
0.2374691872
-0.006033682375
-0.2362117577
0.006381661723
0.2363171547
-0.006487058764
-0.2336674835
0.006715805424
0.2336368545
-0.006685176443
-0.2257605485
0.006804492192
0.2259578283
-0.007001771961
-0.2283044438
0.007031427416
0.2282792187
-0.007006202291
-0.2254473182
0.006885777581
0.2253877111
-0.006826170482
-0.2231469407
0.006590484977
0.2230502173
-0.006493761527
-0.2214016865
0.006152414834
0.2212719111
-0.006022639434
0.005590535107
-0.2201471487
0.2199852208
-0.005428607282
-0.4385617917
0.009712773404
0.4378555854
-0.009006567085
-0.4377920586
0.008267359971
0.4370127826
-0.007488083986
-0.00984996706
0.8714204291
0.006373602118
0.006678658874
-0.0065877413
0.8706782434
-0.003295806324
0.8701657867
0.8698352688
-0.002450707529
0.9587267488
-0.004903826577
0.9588686255
-0.007349180218
0.9589687825
-0.004968403256
0.9591101386
-0.004812306537
-0.478408938
0.4790275999
-0.00558706524
-0.4783102884
0.006203537683
0.4789128924
-0.006806141643
-0.478182803
0.007399721806
0.4787647791
-0.004022249015
-0.00395944888
-0.2389355168
0.004320664492
0.2390748083
-0.004459955993
-0.2385716146
0.004854450857
0.2386943327
-0.004977169016
-0.2378113942
0.005315924989
0.2379144164
-0.005418947223
-0.2365988927
0.005700111733
0.2366825269
-0.005783745849
-0.2335220626
0.005940844786
0.2334778977
-0.005896679898
-0.2264659162
0.006029062873
0.2266102805
-0.006173427207
-0.228197824
0.006164233804
0.2281691491
-0.006135558857
-0.2252186064
0.006018081015
0.2251651291
-0.005964603687
-0.2227833819
0.00576061487
0.2227012978
-0.005678530774
-0.2209161681
0.00539165449
0.2208075309
-0.005283017297
0.004920867321
-0.2195592893
0.2194229586
-0.004784536656
-0.4372034035
0.008595748513
0.4366001211
-0.00799246609
-0.4363099241
0.007355783592
0.4356331372
-0.00667899661
-0.008835909158
0.8685933251
0.005692894315
0.005970118863
-0.005925628282
0.8677679626
-0.002969542417
0.8672097009
0.8668657263
-0.002282805518
0.9610095543
-0.004561894363
0.9611477143
-0.006821814799
0.9612287029
-0.004599977907
0.9613388086
-0.004450506853
-0.4796062957
0.4801698359
-0.005163518118
-0.4794821904
0.005720853397
0.4800229534
-0.006261616365
-0.4793110578
0.00679013187
0.479824123
-0.003679485691
-0.003623711426
-0.2394628612
0.003943038411
0.2395834955
-0.004063672676
-0.2390325863
0.004401153105
0.2391362157
-0.004504782507
-0.2381952583
0.004787500051
0.2382804503
-0.004872691984
-0.2369070324
0.00510345671
0.2369739472
-0.005170371561
-0.2333332044
0.005275255006
0.2332819146
-0.005223965198
-0.2269799577
0.005364251253
0.2270844835
-0.00546877708
-0.2280796719
0.005434861691
0.2280489309
-0.005404120667
-0.2250120994
0.005289743229
0.2249633278
-0.005240971681
-0.2224723476
0.005060784884
0.2224011859
-0.004989623206
-0.2205069094
0.004743557906
0.220414256
-0.004650904573
0.004342354343
-0.2190622481
0.2189458691
-0.004225975326
-0.436040392
0.007614480319
0.4355202992
-0.007094387591
-0.4350217018
0.006542145806
0.4344309626
-0.005951406559
-0.00791067289
0.8660941965
0.005081026833
0.005328774583
-0.005316563464
0.8651738531
-0.002668007905
0.8645611453
0.8641977185
-0.002120589391
0.9631301437
-0.004232650442
0.9632597754
-0.006317199367
0.9633132518
-0.004248381933
0.9633794045
-0.004109413343
-0.4806952039
0.4812082777
-0.004761455762
-0.480534019
0.00526554155
0.4810198967
-0.005751419295
-0.48030643
0.006222963071
0.4807601161
-0.003362539692
-0.003314109453
-0.2399201467
0.003595481545
0.2400250967
-0.00370043151
-0.2394228985
0.003990902266
0.2395111116
-0.004079115349
-0.2385143224
0.00431768786
0.2385858094
-0.004389174899
-0.2371541088
0.004581051042
0.2372079848
-0.004634927098
-0.2331222607
0.004701303794
0.2330677407
-0.004646783815
-0.2273510689
0.004790384297
0.2274262128
-0.004865528188
-0.2279547834
0.004815736177
0.2279229042
-0.00478385697
-0.2248229526
0.004672739694
0.2247779655
-0.004627752613
-0.2222010625
0.004466189646
0.2221383616
-0.004403488719
-0.2201559214
0.004189010281
0.2200756952
-0.004108784059
0.003842297067
-0.2186363461
0.2185358318
-0.003741782744
-0.4350356291
0.006758540324
0.4345833621
-0.006306273295
-0.4338961615
0.005823914
0.4333777397
-0.005305492238
-0.007080553915
0.8638794699
0.004538719966
0.004756560534
-0.004766638718
0.8628599379
-0.002394743691
0.8621892503
0.8618029748
-0.001967334124