/*--------------------------------*- C++ -*----------------------------------*\
| =========                 |                                                 |
| \\      /  F ield         | OpenFOAM: The Open Source CFD Toolbox           |
|  \\    /   O peration     | Version:  v1912                                 |
|   \\  /    A nd           | Website:  www.openfoam.com                      |
|    \\/     M anipulation  |                                                 |
\*---------------------------------------------------------------------------*/
FoamFile
{
    version     2.0;
    format      ascii;
    class       pointVectorField;
    location    "2.14";
    object      pointDisplacement;
}
// * * * * * * * * * * * * * * * * * * * * * * * * * * * * * * * * * * * * * //

dimensions      [0 1 0 0 0 0 0];


internalField   nonuniform List<vector> 
26316
(
(0 0 0)
(0 0 0)
(0 0 0)
(0 0 0)
(0 0 0)
(0 0 0)
(0 0 0)
(0 0 0)
(0 0 0)
(0 0 0)
(0 0 0)
(0 0 0)
(0 0 0)
(0 0 0)
(0 0 0)
(0 0 0)
(0 0 0)
(0 0 0)
(0 0 0)
(0 0 0)
(0 0 0)
(0 0 0)
(0 0 0)
(0 0 0)
(0 0 0)
(0 0 0)
(0 0 0)
(0 0 0)
(0 0 0)
(0 0 0)
(0 0 0)
(0 0 0)
(0 0 0)
(0 0 0)
(0 0 0)
(0 0 0)
(0 0 0)
(0 0 0)
(0 0 0)
(0 0 0)
(0 0 0)
(0 0 0)
(0 0 0)
(0 0 0)
(0 0 0)
(0 0 0)
(0 0 0)
(0 0 0)
(0 0 0)
(0 0 0)
(0 0 0)
(0 0 0)
(0 0 0)
(0 0 0)
(0 0 0)
(0 0 0)
(0 0 0)
(0 0 0)
(0 0 0)
(0 0 0)
(0 0 0)
(0 0 0)
(0 0 0)
(0 0 0)
(0 0 0)
(0 0 0)
(0 0 0)
(0 0 0)
(0 0 0)
(0 0 0)
(0 0 0)
(0 0 0)
(0 0 0)
(0 0 0)
(0 0 0)
(0 0 0)
(0 0 0)
(0 0 0)
(0 0 0)
(0 0 0)
(0 0 0)
(0 0 0)
(0 0 0)
(0 0 0)
(0 0 0)
(0 0 0)
(0 0 0)
(0 0 0)
(0 0 0)
(0 0 0)
(0 0 0)
(0 0 0)
(0 0 0)
(0 0 0)
(0 0 0)
(0 0 0)
(0 0 0)
(0 0 0)
(0 0 0)
(0 0 0)
(0 0 0)
(0 0 0)
(0 0 0)
(0 0 0)
(0 0 0)
(0 0 0)
(0 0 0)
(0 0 0)
(0 0 0)
(0 0 0)
(0 0 0)
(0 0 0)
(0 0 0)
(0 0 0)
(0 0 0)
(0 0 0)
(0 0 0)
(0 0 0)
(0 0 0)
(-1.987773843e-07 1.356564218e-05 2.775557562e-17)
(0 0 0)
(0 0 0)
(-1.099870188e-07 0.000151956769 3.330669074e-16)
(5.061594571e-07 0.0001291722128 2.91433544e-16)
(0 0 0)
(0 0 0)
(0 0 0)
(0 0 0)
(0 0 0)
(0 0 0)
(0 0 0)
(0 0 0)
(0 0 0)
(0 0 0)
(0 0 0)
(0 0 0)
(0 0 0)
(0 0 0)
(0 0 0)
(0 0 0)
(0 0 0)
(0 0 0)
(0 0 0)
(0 0 0)
(0 0 0)
(0 0 0)
(0 0 0)
(0 0 0)
(0 0 0)
(0 0 0)
(0 0 0)
(0 0 0)
(0 0 0)
(0 0 0)
(0 0 0)
(0 0 0)
(0 0 0)
(0 0 0)
(0 0 0)
(0 0 0)
(0 0 0)
(0 0 0)
(0 0 0)
(0 0 0)
(0 0 0)
(0 0 0)
(0 0 0)
(0 0 0)
(0 0 0)
(0 0 0)
(0 0 0)
(0 0 0)
(0 0 0)
(0 0 0)
(0 0 0)
(0 0 0)
(0 0 0)
(0 0 0)
(0 0 0)
(0 0 0)
(0 0 0)
(0 0 0)
(0 0 0)
(0 0 0)
(0 0 0)
(-1.238397277e-05 0.0002155910213 4.857225733e-16)
(-7.128032459e-05 0.001352287869 3.080868893e-15)
(-9.319225907e-07 1.775615208e-05 4.163336342e-17)
(-0.0001354022954 0.003530468106 7.993605777e-15)
(-0.0003365163822 0.008741758755 1.990074772e-14)
(-0.0003996578465 0.01184049945 2.695066392e-14)
(-0.0001861766004 0.005534849861 1.254552018e-14)
(-0.0002273126677 0.01166279208 2.643718577e-14)
(-0.0003995462534 0.02045610199 4.65599781e-14)
(-0.0003344350257 0.0226036541 5.145883719e-14)
(-0.0001961360547 0.01327255377 3.008704397e-14)
(-1.014102083e-05 0.01552371117 3.518019209e-14)
(-1.547744495e-05 0.0255535076 5.817568649e-14)
(0.0001038471333 0.02522469132 5.742628595e-14)
(6.182607137e-05 0.01526972809 3.461120279e-14)
(0.0002123454344 0.01170571681 2.653433029e-14)
(0.0003747307105 0.02051653574 4.669875597e-14)
(0.0004118570062 0.01792628182 4.080069615e-14)
(0.0002237422774 0.00979900484 2.220446049e-14)
(0.0001319697216 0.003575472241 8.10462808e-15)
(0.0003271263595 0.008817690742 2.006728117e-14)
(0.0002462947611 0.0058912013 1.340594302e-14)
(7.712896859e-05 0.001853890751 4.204969706e-15)
(0 0 0)
(1.299052716e-05 0.0002321773544 5.273559367e-16)
(0 0 0)
(0 0 0)
(0 0 0)
(0 0 0)
(0 0 0)
(0 0 0)
(0 0 0)
(0 0 0)
(0 0 0)
(0 0 0)
(0 0 0)
(0 0 0)
(0 0 0)
(0 0 0)
(0 0 0)
(0 0 0)
(0 0 0)
(0 0 0)
(0 0 0)
(0 0 0)
(0 0 0)
(0 0 0)
(0 0 0)
(0 0 0)
(0 0 0)
(0 0 0)
(0 0 0)
(0 0 0)
(0 0 0)
(0 0 0)
(0 0 0)
(0 0 0)
(0 0 0)
(0 0 0)
(0 0 0)
(0 0 0)
(0 0 0)
(0 0 0)
(0 0 0)
(0 0 0)
(0 0 0)
(0 0 0)
(0 0 0)
(0 0 0)
(0 0 0)
(0 0 0)
(-3.458684039e-05 0.0004450127089 1.026956298e-15)
(-0.000188964219 0.002592091098 6.009082121e-15)
(-4.475573195e-05 0.0006166237661 1.429412144e-15)
(-0.0006391184481 0.01098832333 2.534084054e-14)
(-0.001022643747 0.01751215116 4.057865155e-14)
(-0.001305572745 0.02437920862 5.648259638e-14)
(-0.0008791604579 0.01648000524 3.802513859e-14)
(-0.001370785025 0.03524975897 8.130995877e-14)
(-0.001815396468 0.04652934781 1.078026557e-13)
(-0.001829154045 0.05352599025 1.240257896e-13)
(-0.001410633212 0.04140511931 9.550693569e-14)
(-0.00111224431 0.05666114442 1.307010056e-13)
(-0.001385690833 0.07046599794 1.632860513e-13)
(-0.001102468879 0.07430322472 1.721678355e-13)
(-0.0008921819841 0.06018191364 1.388195114e-13)
(-2.843912893e-05 0.06487510811 1.496580637e-13)
(-3.063546848e-05 0.07937604262 1.839361996e-13)
(0.0003484599154 0.0788258931 1.826594431e-13)
(0.0002797744642 0.06436312847 1.484784518e-13)
(0.001060112425 0.05677165295 1.309785613e-13)
(0.001327794656 0.07058953148 1.635774849e-13)
(0.001552640052 0.0657985458 1.524891324e-13)
(0.001228390551 0.05240662178 1.209032874e-13)
(0.001336261555 0.03542598799 8.17262924e-14)
(0.001772954626 0.04673632499 1.083161338e-13)
(0.001682072913 0.03938392857 9.127421041e-14)
(0.001234215395 0.02905668151 6.702971511e-14)
(0.0006315966039 0.01112928518 2.567390744e-14)
(0.001009411535 0.01769833874 4.102274076e-14)
(0.0007141137791 0.01155253723 2.677025268e-14)
(0.000396683909 0.006448530034 1.487698853e-14)
(0 0 0)
(3.433388236e-05 0.0004499059569 1.054711873e-15)
(0 0 0)
(0 0 0)
(0 0 0)
(0 0 0)
(0 0 0)
(0 0 0)
(0 0 0)
(0 0 0)
(0 0 0)
(0 0 0)
(0 0 0)
(0 0 0)
(0 0 0)
(0 0 0)
(0 0 0)
(0 0 0)
(0 0 0)
(0 0 0)
(0 0 0)
(0 0 0)
(0 0 0)
(0 0 0)
(0 0 0)
(0 0 0)
(0 0 0)
(0 0 0)
(0 0 0)
(0 0 0)
(0 0 0)
(0 0 0)
(0 0 0)
(0 0 0)
(0 0 0)
(0 0 0)
(0 0 0)
(0 0 0)
(0 0 0)
(0 0 0)
(0 0 0)
(-1.4880165e-05 0.0001579630269 3.747002708e-16)
(0 0 0)
(-0.000633619192 0.008042566881 1.888766921e-14)
(-0.0009418893329 0.01188310296 2.804700916e-14)
(-0.001474609394 0.01985622793 4.685141164e-14)
(-0.001082511094 0.01465607798 3.443079155e-14)
(-0.002479029441 0.04194457331 9.850453786e-14)
(-0.00300972582 0.05071242875 1.196542865e-13)
(-0.003369183422 0.06192946392 1.4610535e-13)
(-0.002833100386 0.0522881585 1.228184221e-13)
(-0.003238798414 0.08213991253 1.929012505e-13)
(-0.003694651967 0.0933356726 2.201988591e-13)
(-0.003538833119 0.1021225903 2.409183963e-13)
(-0.003132804266 0.09075473978 2.131350652e-13)
(-0.002183279191 0.1101808021 2.587652315e-13)
(-0.002413002009 0.1213334817 2.862571291e-13)
(-0.001875848781 0.1252591551 2.955274914e-13)
(-0.001705741022 0.1142933114 2.684241718e-13)
(-3.337308898e-05 0.1195506902 2.808031585e-13)
(-3.471106072e-05 0.1301768664 3.071570776e-13)
(0.0006001205579 0.1296604191 3.0594971e-13)
(0.0005465715224 0.1189923118 2.794986464e-13)
(0.002116309112 0.1103189263 2.591538095e-13)
(0.00234308539 0.121464536 2.866457072e-13)
(0.002812173549 0.1163393641 2.74558154e-13)
(0.00252487154 0.1050386174 2.467470672e-13)
(0.003178808198 0.08240549482 1.935951399e-13)
(0.003630438285 0.09354749316 2.207817262e-13)
(0.003658717685 0.08377814158 1.977307207e-13)
(0.003168242094 0.07298142974 1.714600684e-13)
(0.002435484262 0.04194252751 9.853229344e-14)
(0.003032866786 0.05178336086 1.222216772e-13)
(0.002618163688 0.04122705583 9.73249259e-14)
(0.002076522541 0.03292444207 7.735478924e-14)
(0.0007216453682 0.009289126967 2.182976022e-14)
(0.001078165372 0.01380807129 3.259892356e-14)
(0.0006087282382 0.007338974221 1.731947918e-14)
(0.0003479392033 0.004215679596 9.908740495e-15)
(0 0 0)
(0 0 0)
(0 0 0)
(0 0 0)
(0 0 0)
(0 0 0)
(0 0 0)
(0 0 0)
(0 0 0)
(0 0 0)
(0 0 0)
(0 0 0)
(0 0 0)
(0 0 0)
(0 0 0)
(0 0 0)
(0 0 0)
(0 0 0)
(0 0 0)
(0 0 0)
(0 0 0)
(0 0 0)
(0 0 0)
(0 0 0)
(0 0 0)
(0 0 0)
(0 0 0)
(0 0 0)
(0 0 0)
(0 0 0)
(0 0 0)
(0 0 0)
(0 0 0)
(0 0 0)
(0 0 0)
(-6.877620967e-05 0.0006840927212 1.637578961e-15)
(-0.0001564117461 0.001548324071 3.719247132e-15)
(-0.000555643979 0.005786600224 1.391942117e-14)
(-0.000373534839 0.003908670068 9.353628982e-15)
(-0.002197989727 0.02726873589 6.525335827e-14)
(-0.002600585475 0.03211083486 7.720213357e-14)
(-0.003354826642 0.04416140157 1.061650767e-13)
(-0.002908142385 0.03846404124 9.205136653e-14)
(-0.004606327027 0.07607683338 1.820210649e-13)
(-0.005087494641 0.08354651903 2.008393452e-13)
(-0.005370006741 0.09613259453 2.310929226e-13)
(-0.004908510416 0.0884429483 2.115946307e-13)
(-0.004882731547 0.1212557423 2.900457652e-13)
(-0.005182661453 0.1276676726 3.068101329e-13)
(-0.004798256741 0.1351413004 3.247541125e-13)
(-0.004537098582 0.1287376711 3.079342337e-13)
(-0.002903788836 0.1438177181 3.440026042e-13)
(-0.002995918068 0.1471122617 3.535227666e-13)
(-0.002275915734 0.1485108655 3.568950691e-13)
(-0.00222256553 0.1461399358 3.495675971e-13)
(-4.556857028e-05 0.1484468322 3.5513259e-13)
(-5.134827031e-05 0.1492865835 3.58796326e-13)
(0.0006939871357 0.1492598157 3.587408148e-13)
(0.0006905526519 0.148238161 3.546468674e-13)
(0.002835861147 0.1440775639 3.447242491e-13)
(0.002918029775 0.1472678889 3.54022367e-13)
(0.003596594276 0.1448316559 3.481798183e-13)
(0.003472768677 0.1406756082 3.366196211e-13)
(0.004819833312 0.1214511242 2.906563878e-13)
(0.00512674941 0.1280267319 3.078787225e-13)
(0.005389555428 0.1195539756 2.875338856e-13)
(0.005016220219 0.1120376682 2.681743716e-13)
(0.004662402469 0.07819632378 1.871974797e-13)
(0.005137316222 0.08572372744 2.061822935e-13)
(0.004712765989 0.07265545189 1.747491041e-13)
(0.004227918192 0.06551249131 1.5683288e-13)
(0.002310399082 0.02914445258 6.976363931e-14)
(0.002722775545 0.03417409336 8.21842594e-14)
(0.001964440757 0.0232153267 5.583034035e-14)
(0.001609761518 0.01911958023 4.576894419e-14)
(0.0001063860429 0.001074487631 2.567390744e-15)
(0.0001827573808 0.00183647794 4.413136523e-15)
(4.639897246e-06 4.440214509e-05 9.714451465e-17)
(0 0 0)
(0 0 0)
(0 0 0)
(0 0 0)
(0 0 0)
(0 0 0)
(0 0 0)
(0 0 0)
(0 0 0)
(0 0 0)
(0 0 0)
(0 0 0)
(0 0 0)
(0 0 0)
(0 0 0)
(0 0 0)
(0 0 0)
(0 0 0)
(0 0 0)
(0 0 0)
(0 0 0)
(0 0 0)
(0 0 0)
(0 0 0)
(0 0 0)
(0 0 0)
(0 0 0)
(0 0 0)
(0 0 0)
(-6.546000809e-06 5.755642156e-05 1.526556659e-16)
(-1.786221284e-07 1.578370199e-06 1.387778781e-17)
(0 0 0)
(-0.000491084062 0.004791162007 1.168509733e-14)
(-0.0006198394004 0.006018007552 1.475208844e-14)
(-0.001286217401 0.01313770789 3.219646771e-14)
(-0.0010973403 0.01126316658 2.747801986e-14)
(-0.003568363989 0.04342020698 1.05887521e-13)
(-0.003883793909 0.04702410832 1.152133944e-13)
(-0.004720610411 0.06092428709 1.492694857e-13)
(-0.004473341816 0.05802777633 1.414979245e-13)
(-0.006201662863 0.1002956292 2.445266212e-13)
(-0.006454575296 0.1038334907 2.543659727e-13)
(-0.006632192743 0.1162234513 2.847166947e-13)
(-0.006404563711 0.112842422 2.751132655e-13)
(-0.005804931837 0.1397501678 3.406996907e-13)
(-0.005918615314 0.1415875 3.468475507e-13)
(-0.005333961394 0.1452605939 3.558403572e-13)
(-0.005268384824 0.1445221326 3.523292769e-13)
(-0.003102560527 0.1472052531 0)
(-0.003138116191 0.1464827052 0)
(-0.002762607197 0.1464861214 0)
(-0.00236678653 0.146505702 0)
(-0.002345861607 0.1468633514 0)
(-0.002339597153 0.1472124433 0)
(-6.901907782e-05 0.147208149 0)
(-7.186502473e-05 0.1468609954 0)
(0.0003084574407 0.1468581818 0)
(0.0003092433528 0.1472053197 0)
(0.002989007814 0.147154627 0)
(0.002997435492 0.1467979903 0)
(0.003008515327 0.1464358076 0)
(0.003386758709 0.1464217996 0)
(0.003759566372 0.1464147088 0)
(0.003748973567 0.1471308398 0)
(0.005726633283 0.1406340439 3.430589146e-13)
(0.005822298052 0.1423497595 3.489153411e-13)
(0.006280081972 0.1366364098 3.34926531e-13)
(0.006138340862 0.1341681635 3.273076254e-13)
(0.006242087091 0.1026170489 2.503552921e-13)
(0.006470074577 0.1058145163 2.594036097e-13)
(0.006151085971 0.09292238227 2.277900091e-13)
(0.005870025605 0.08913847716 2.174788127e-13)
(0.003801924835 0.04698429221 1.146305273e-13)
(0.004158218508 0.05113290204 1.253441795e-13)
(0.003278998424 0.03796810064 9.306444504e-14)
(0.002953202947 0.03436533017 8.383571615e-14)
(0.0006586105836 0.006520468398 1.590394483e-14)
(0.0008232091025 0.008110059187 1.988686993e-14)
(0.0002949900965 0.002768171872 6.786238238e-15)
(0.0002007128716 0.001892733771 4.62130334e-15)
(0 0 0)
(0 0 0)
(0 0 0)
(0 0 0)
(0 0 0)
(0 0 0)
(0 0 0)
(0 0 0)
(0 0 0)
(0 0 0)
(0 0 0)
(0 0 0)
(0 0 0)
(0 0 0)
(0 0 0)
(0 0 0)
(0 0 0)
(0 0 0)
(0 0 0)
(0 0 0)
(0 0 0)
(0 0 0)
(0 0 0)
(0 0 0)
(0 0 0)
(0 0 0)
(0 0 0)
(0 0 0)
(-5.898319773e-05 0.0005084566782 1.276756478e-15)
(-3.361278226e-05 0.0002911910799 7.21644966e-16)
(-2.749818495e-05 0.0002393869712 5.967448757e-16)
(-0.0008906005094 0.008518084 2.117750419e-14)
(-0.0009236147425 0.008789851273 2.195466031e-14)
(-0.001710383257 0.01712279034 4.278521981e-14)
(-0.001665321705 0.01675558725 4.1661119e-14)
(-0.004484328125 0.05346223714 1.32893696e-13)
(-0.004554701942 0.05402405893 1.349476086e-13)
(-0.005425192262 0.06857662659 1.712935349e-13)
(-0.005350809101 0.06798341353 1.689898221e-13)
(-0.006959533644 0.1101189482 2.736977311e-13)
(-0.007026050218 0.1105860214 2.762096107e-13)
(-0.007123432254 0.1220800633 3.049088759e-13)
(-0.00706527916 0.121738288 3.025774076e-13)
(-0.006080786099 0.1428129402 3.549660565e-13)
(-0.006101873269 0.1424641807 3.558403572e-13)
(-0.005411129471 0.1436474166 0)
(-0.005404383872 0.144352322 3.588102038e-13)
(-0.00318052768 0.1443442739 0)
(-0.003185517469 0.1439860808 0)
(-0.002815096436 0.1439852194 0)
(-0.002810143726 0.1443428486 0)
(0.003015849622 0.1443045867 0)
(0.003015079838 0.1439498341 0)
(0.003385374045 0.1439453619 0)
(0.003386529495 0.1442995862 0)
(0.005953182126 0.1435558811 3.570477247e-13)
(0.005962356603 0.1432026371 3.579081476e-13)
(0.00656530426 0.1402862548 3.506361868e-13)
(0.006532949534 0.1401693073 3.486377853e-13)
(0.007109198871 0.1146612884 2.85216295e-13)
(0.007198435952 0.1155933274 2.889355422e-13)
(0.006955500214 0.1031536321 2.578354197e-13)
(0.006853991352 0.1021028986 2.539635169e-13)
(0.004883537651 0.05919425674 1.472155731e-13)
(0.00499482185 0.06026099398 1.506156311e-13)
(0.004057896928 0.04609021069 1.151856388e-13)
(0.003952939218 0.04511141304 1.121880366e-13)
(0.00119441091 0.01159456264 2.883804306e-14)
(0.00134879664 0.01302912794 3.25572902e-14)
(0.000643385344 0.005919790506 1.47937218e-14)
(0.0005296456512 0.004897273227 1.21846977e-14)
(0 0 0)
(0 0 0)
(0 0 0)
(0 0 0)
(0 0 0)
(0 0 0)
(0 0 0)
(0 0 0)
(0 0 0)
(0 0 0)
(0 0 0)
(0 0 0)
(0 0 0)
(0 0 0)
(0 0 0)
(0 0 0)
(0 0 0)
(0 0 0)
(0 0 0)
(0 0 0)
(0 0 0)
(0 0 0)
(0 0 0)
(0 0 0)
(0 0 0)
(0 0 0)
(0 0 0)
(0 0 0)
(-9.682368442e-05 0.0008182493099 2.095545959e-15)
(-8.745138823e-05 0.0007427457204 1.90125693e-15)
(-7.671986903e-05 0.0006548495005 1.665334537e-15)
(-0.001097315915 0.01028817903 2.609024108e-14)
(-0.00113462214 0.01058546995 2.69784195e-14)
(-0.001978697686 0.01941854267 4.948819132e-14)
(-0.001932119528 0.01905583623 4.832245715e-14)
(-0.004835122701 0.05648750762 1.432187702e-13)
(-0.004892096726 0.05686357008 1.448841047e-13)
(-0.005752394262 0.07123981672 1.81493709e-13)
(-0.005697351968 0.07092140797 1.797867411e-13)
(-0.007215961383 0.1117709901 2.833150381e-13)
(-0.007254151849 0.111763199 2.847166947e-13)
(-0.007305514592 0.1225093555 3.120836922e-13)
(-0.007274984084 0.122661846 3.109318358e-13)
(-0.006141140971 0.1409165408 3.572142582e-13)
(-0.006149611964 0.1403046505 3.574363028e-13)
(-0.005432081761 0.1408363991 0)
(-0.005427296572 0.141537408 0)
(-0.003207015086 0.1415199388 0)
(-0.003209620873 0.1411691924 0)
(-0.002840142193 0.1411663369 0)
(-0.002837487663 0.141517083 0)
(0.003001257227 0.141474409 0)
(0.002998472204 0.1411216004 0)
(0.003367882992 0.1411183881 0)
(0.003370731552 0.1414710174 0)
(0.005959355934 0.1414273067 3.587546926e-13)
(0.005953499334 0.1407401471 3.58796326e-13)
(0.006617233839 0.1391175262 3.546885008e-13)
(0.006613630342 0.1395994143 3.541333893e-13)
(0.00742942599 0.1177441496 2.987055048e-13)
(0.007470124771 0.1178772114 3.005373728e-13)
(0.007297899961 0.1063149693 2.710609515e-13)
(0.007244514226 0.1060056233 2.689237721e-13)
(0.005394081212 0.06416746788 1.627725732e-13)
(0.005473817049 0.0648116185 1.652289416e-13)
(0.004543725636 0.05063938484 1.290911822e-13)
(0.00446144338 0.04995829205 1.267180805e-13)
(0.001546866803 0.01472828999 3.735900478e-14)
(0.001609840594 0.01525355433 3.888556144e-14)
(0.000830210514 0.00749211171 1.909583602e-14)
(0.0007826502123 0.007097503677 1.799949079e-14)
(0 0 0)
(0 0 0)
(0 0 0)
(0 0 0)
(0 0 0)
(0 0 0)
(0 0 0)
(0 0 0)
(0 0 0)
(0 0 0)
(0 0 0)
(0 0 0)
(0 0 0)
(0 0 0)
(0 0 0)
(0 0 0)
(0 0 0)
(0 0 0)
(0 0 0)
(0 0 0)
(0 0 0)
(0 0 0)
(0 0 0)
(0 0 0)
(0 0 0)
(0 0 0)
(0 0 0)
(0 0 0)
(-0.0001428259043 0.001182907228 3.094746681e-15)
(-0.000128767721 0.001071890483 2.789435349e-15)
(-0.0001162508163 0.0009726126864 2.511879593e-15)
(-0.001227444207 0.01128137944 2.918498776e-14)
(-0.001265042242 0.01156849555 3.007316618e-14)
(-0.002139817171 0.02058212543 5.351274979e-14)
(-0.002093671727 0.02024047225 5.234701561e-14)
(-0.005031358969 0.05759045231 1.489502965e-13)
(-0.005086453313 0.05792041811 1.505601199e-13)
(-0.005939816172 0.07204942912 1.872807465e-13)
(-0.005886852826 0.07178150612 1.856431675e-13)
(-0.007347737057 0.1113921055 2.880473637e-13)
(-0.007383848307 0.1113330186 2.893518758e-13)
(-0.007409167706 0.1215569525 3.159417172e-13)
(-0.007380567177 0.1217565973 3.148592498e-13)
(-0.006171093367 0.1383943963 3.579081476e-13)
(-0.006178184461 0.1377578072 3.580608032e-13)
(-0.005450102287 0.1380382524 0)
(-0.005445705831 0.1387374122 0)
(-0.003226869818 0.1387200198 0)
(-0.003229253304 0.1383706363 0)
(-0.002860277627 0.1383678662 0)
(-0.002859053257 0.1385425739 0)
(-0.002857830075 0.1387171354 0)
(0.002974940322 0.1386550607 0)
(0.002971093807 0.1383035932 0)
(0.00334008692 0.1383009691 0)
(0.003343981252 0.1386523225 0)
(0.005930629674 0.1386201445 3.587685704e-13)
(0.005921477352 0.1378947418 3.587130593e-13)
(0.006571781898 0.1360196697 3.538419557e-13)
(0.006588407463 0.1368928579 3.543276783e-13)
(0.007423202472 0.1156353719 2.993161274e-13)
(0.007390477188 0.1146335065 2.982197822e-13)
(0.007210225921 0.1032074132 2.684935607e-13)
(0.007245819012 0.1041741578 2.696315393e-13)
(0.005413196035 0.06320470899 1.635774849e-13)
(0.005377056976 0.06248999351 1.625505286e-13)
(0.004449906841 0.04866411657 1.265793026e-13)
(0.004483700324 0.04926690953 1.275091144e-13)
(0.001566545613 0.01462815423 3.784472735e-14)
(0.00154614198 0.01436718967 3.735900478e-14)
(0.0007831934681 0.006930541633 1.802724636e-14)
(0.0007976402311 0.007093211532 1.834643548e-14)
(0 0 0)
(0 0 0)
(0 0 0)
(0 0 0)
(0 0 0)
(0 0 0)
(0 0 0)
(0 0 0)
(0 0 0)
(0 0 0)
(0 0 0)
(0 0 0)
(0 0 0)
(0 0 0)
(0 0 0)
(0 0 0)
(0 0 0)
(0 0 0)
(0 0 0)
(0 0 0)
(0 0 0)
(0 0 0)
(0 0 0)
(0 0 0)
(0 0 0)
(0 0 0)
(0 0 0)
(0 0 0)
(-0.000204532579 0.001659612227 4.427014311e-15)
(-0.0001878173192 0.001531870681 4.066191828e-15)
(-0.0001716498782 0.001407215887 3.719247132e-15)
(-0.001382574356 0.01245127324 3.287647932e-14)
(-0.001423973655 0.01275807552 3.384792446e-14)
(-0.002332753913 0.02198126763 5.832834216e-14)
(-0.002282824216 0.02162266034 5.707934125e-14)
(-0.005254841284 0.0589039672 1.554728568e-13)
(-0.005312847397 0.05923890604 1.571659469e-13)
(-0.006156527547 0.07310739933 1.939559624e-13)
(-0.006101149213 0.07283941222 1.922628723e-13)
(-0.007492642864 0.1111267242 2.932792897e-13)
(-0.007529519089 0.1110549171 2.946115574e-13)
(-0.007523586772 0.120708973 3.202160759e-13)
(-0.007494778062 0.1209250792 3.191336084e-13)
(-0.006197711194 0.1358108909 3.584493813e-13)
(-0.00620361774 0.1351501253 3.585465258e-13)
(-0.00546695394 0.1352399825 0)
(-0.005462862881 0.135939551 0)
(-0.003245390839 0.1359222671 0)
(-0.003247565753 0.135572557 0)
(-0.002879223848 0.1355697758 0)
(-0.002878095773 0.1357446305 0)
(-0.002876951715 0.1359194526 0)
(0.002941455163 0.1358473719 0)
(0.002936605283 0.1354964 0)
(0.003305243993 0.1354941525 0)
(0.003310174318 0.1358450263 0)
(0.00588098022 0.1354745187 3.578665142e-13)
(0.005859771593 0.1345030151 3.571448692e-13)
(0.006439459711 0.1312619903 3.485545186e-13)
(0.006485777109 0.1327093258 3.505806756e-13)
(0.007144509471 0.1094001167 2.890188089e-13)
(0.006999317992 0.1067156501 2.83384427e-13)
(0.006794232648 0.09554747179 2.537137167e-13)
(0.006913561771 0.09765737357 2.579880753e-13)
(0.004985504737 0.05712640036 1.508931868e-13)
(0.004860826324 0.0554337645 1.471878175e-13)
(0.003939495348 0.04226345277 1.122157922e-13)
(0.004056093529 0.04372444472 1.154909501e-13)
(0.001263869088 0.0115718636 3.055888875e-14)
(0.001196050132 0.01089662253 2.892130979e-14)
(0.0005316708642 0.004612147417 1.224020885e-14)
(0.0005771685375 0.005031983098 1.329492072e-14)
(0 0 0)
(0 0 0)
(0 0 0)
(0 0 0)
(0 0 0)
(0 0 0)
(0 0 0)
(0 0 0)
(0 0 0)
(0 0 0)
(0 0 0)
(0 0 0)
(0 0 0)
(0 0 0)
(0 0 0)
(0 0 0)
(0 0 0)
(0 0 0)
(0 0 0)
(0 0 0)
(0 0 0)
(0 0 0)
(0 0 0)
(0 0 0)
(0 0 0)
(0 0 0)
(0 0 0)
(0 0 0)
(-0.000258494801 0.002053972422 5.592748487e-15)
(-0.0002673270418 0.00213539669 5.787037516e-15)
(-0.0002440338796 0.001959608997 5.287437155e-15)
(-0.001559275592 0.01375306339 3.706757123e-14)
(-0.001612173489 0.0141445478 3.833044993e-14)
(-0.002557078454 0.02359251537 6.392109064e-14)
(-0.002494439012 0.0231374187 6.236677841e-14)
(-0.00549778475 0.06031984337 1.625644064e-13)
(-0.005568223811 0.06076012726 1.646044412e-13)
(-0.006399084268 0.07434779853 2.014222122e-13)
(-0.006332405726 0.07397995425 1.993682996e-13)
(-0.007644901035 0.1108698305 2.987471381e-13)
(-0.007687779036 0.1108568689 3.002875726e-13)
(-0.007645780457 0.1198985429 3.247818681e-13)
(-0.007612951666 0.1200750715 3.23546745e-13)
(-0.006219528444 0.1331313161 3.587685704e-13)
(-0.006224271256 0.1324446996 3.58796326e-13)
(-0.005482775287 0.1324425329 0)
(-0.005478831773 0.1331419401 0)
(-0.003261731305 0.1331249192 0)
(-0.003263597258 0.1327752391 0)
(-0.002895953322 0.1327725448 0)
(-0.002894987324 0.1329474495 0)
(-0.002894006134 0.1331222242 0)
(0.002900014387 0.1330464258 0)
(0.002894150304 0.1326966158 0)
(0.003262661413 0.1326946618 0)
(0.003268639226 0.133044471 0)
(0.005769589116 0.131048675 3.534672555e-13)
(0.005725227084 0.1295966139 3.513994651e-13)
(0.006200935623 0.1244994814 3.375771884e-13)
(0.006275965997 0.1264830883 3.411576577e-13)
(0.006588579778 0.09914089591 2.674110933e-13)
(0.006480292575 0.09708522481 2.632477569e-13)
(0.006133893448 0.08470731682 2.296773882e-13)
(0.006326564954 0.08776942082 2.367273044e-13)
(0.004296800234 0.04829803789 1.302569164e-13)
(0.004027575253 0.04505007489 1.221384105e-13)
(0.003119773015 0.03282078444 8.898437542e-14)
(0.003389795782 0.03583812869 9.664491429e-14)
(0.0008485591396 0.007615281442 2.053912596e-14)
(0.0007410657474 0.006616973816 1.793010185e-14)
(0.0002406318301 0.002045742009 5.551115123e-15)
(0.0003028802816 0.00258805453 6.980527267e-15)
(0 0 0)
(0 0 0)
(0 0 0)
(0 0 0)
(0 0 0)
(0 0 0)
(0 0 0)
(0 0 0)
(0 0 0)
(0 0 0)
(0 0 0)
(0 0 0)
(0 0 0)
(0 0 0)
(0 0 0)
(0 0 0)
(0 0 0)
(0 0 0)
(0 0 0)
(0 0 0)
(0 0 0)
(0 0 0)
(0 0 0)
(0 0 0)
(0 0 0)
(0 0 0)
(0 0 0)
(0 0 0)
(-0.0004595204886 0.003573410128 9.950373858e-15)
(-0.000418952569 0.003275797688 9.076073226e-15)
(-0.0003585666538 0.002818833579 7.757683385e-15)
(-0.001782110361 0.01538593487 4.236888618e-14)
(-0.001914452727 0.01643851812 4.550526622e-14)
(-0.002901238028 0.0261935425 7.249756351e-14)
(-0.002739790496 0.02487250232 6.847300504e-14)
(-0.005806271505 0.06231296746 1.715294573e-13)
(-0.005911425673 0.0630845061 1.745825706e-13)
(-0.006708313375 0.07620587932 2.109007413e-13)
(-0.006623122569 0.07566818167 2.082778394e-13)
(-0.007828776092 0.1109415399 3.053529651e-13)
(-0.007849741359 0.1105862667 3.06019099e-13)
(-0.007790104165 0.1193133912 3.301664497e-13)
(-0.007752425396 0.1194486953 3.287647932e-13)
(-0.0062376703 0.1303504781 0)
(-0.006242571871 0.1296511436 0)
(-0.00549997461 0.1296454681 0)
(-0.005497589804 0.129995014 0)
(-0.005495302216 0.1303445932 0)
(-0.003275877739 0.1303276347 0)
(-0.003276760126 0.1301530217 0)
(-0.003092888889 0.1301517391 0)
(-0.003092023145 0.1303263035 0)
(-8.616612986e-05 0.1302602554 0)
(-8.889997037e-05 0.1301731869 0)
(-9.10483939e-05 0.1300860974 0)
(8.899123492e-05 0.130086682 0)
(9.415027007e-05 0.1302607078 0)
(0.002844979688 0.1302522032 0)
(0.00283643045 0.1299038773 0)
(0.002827735779 0.1295556501 0)
(0.00356693314 0.1295514808 0)
(0.003583383708 0.1302483816 0)
(0.003214319535 0.1302502588 0)
(0.00555199967 0.1244087038 3.427536033e-13)
(0.005462050259 0.1219827269 3.378824998e-13)
(0.005798259246 0.114679265 3.176625629e-13)
(0.005947441358 0.1180624699 3.252675906e-13)
(0.005936496656 0.08774787715 2.417510636e-13)
(0.005724415703 0.08423069567 2.333133686e-13)
(0.005295899884 0.07179703936 1.988686993e-13)
(0.005518147325 0.07515893161 2.070704719e-13)
(0.003338231908 0.03679192221 1.013494844e-13)
(0.003137291552 0.03440608578 9.528489109e-14)
(0.002292139597 0.02363658008 6.546152509e-14)
(0.002468954228 0.02558817463 7.048528428e-14)
(0.000350373648 0.003080917124 8.493206138e-15)
(0.0002848135272 0.002491607315 6.911138328e-15)
(2.25778443e-05 0.0001880565234 5.273559367e-16)
(4.313676368e-05 0.0003611514506 9.992007222e-16)
(0 0 0)
(0 0 0)
(0 0 0)
(0 0 0)
(0 0 0)
(0 0 0)
(0 0 0)
(0 0 0)
(0 0 0)
(0 0 0)
(0 0 0)
(0 0 0)
(0 0 0)
(0 0 0)
(0 0 0)
(0 0 0)
(0 0 0)
(0 0 0)
(0 0 0)
(0 0 0)
(0 0 0)
(0 0 0)
(0 0 0)
(0 0 0)
(0 0 0)
(0 0 0)
(0 0 0)
(0 0 0)
(-0.0004357595927 0.003330255605 9.478529073e-15)
(-0.0004924366278 0.003784247028 1.071365219e-14)
(-0.0005261968032 0.004065989546 1.143529715e-14)
(-0.002119531992 0.01799105819 5.062616992e-14)
(-0.002051353492 0.01731640255 4.898859096e-14)
(-0.00305665522 0.02713404253 7.677192215e-14)
(-0.003138348461 0.02801425545 7.882583475e-14)
(-0.006169026674 0.06512498316 1.832145546e-13)
(-0.006068284907 0.06369929897 1.801891969e-13)
(-0.006849605242 0.07655194673 2.165351232e-13)
(-0.006948475479 0.07810292728 2.197131366e-13)
(-0.007980693839 0.1113722506 3.13277182e-13)
(-0.007911977512 0.1097581477 3.104461133e-13)
(-0.007788206707 0.1175244604 3.324007736e-13)
(-0.007839747544 0.1190197107 3.347877531e-13)
(-0.006175170214 0.1275456166 0)
(-0.006180852574 0.1268461748 0)
(-0.005436178576 0.126840125 0)
(-0.005433338056 0.1271897646 0)
(-0.005430496216 0.1275395668 0)
(-0.003196506716 0.1275214175 0)
(-0.003199348556 0.1271716154 0)
(-0.002827027804 0.1271685906 0)
(-0.002825606224 0.1273435729 0)
(-0.002824185964 0.1275183928 0)
(-0.00301034634 0.1275199051 0)
(-0.0002178599984 0.1274972186 0)
(-0.0002192799472 0.1273223988 0)
(-0.0002207013716 0.1271474165 0)
(0.0001516308205 0.1271443916 0)
(0.0001544726607 0.1274941937 0)
(0.002760787787 0.1274730197 0)
(0.002755105427 0.1267735779 0)
(0.003486815145 0.1262828523 3.574363028e-13)
(0.003502772295 0.1273661946 3.585187702e-13)
(0.005196695945 0.1149508573 3.236300117e-13)
(0.00507250909 0.1118840445 3.167188733e-13)
(0.005292982979 0.1032331317 2.922245779e-13)
(0.005444062392 0.1065413606 2.999545057e-13)
(0.004985417123 0.07236681017 2.037398028e-13)
(0.004784555895 0.06914179085 1.957323192e-13)
(0.004251458168 0.05654862735 1.600664046e-13)
(0.004543090673 0.06072482878 1.70960468e-13)
(0.002366924112 0.02556923368 7.197020757e-14)
(0.002062202116 0.02216416568 6.272760089e-14)
(0.001399548022 0.01414044764 4.002354004e-14)
(0.001595027095 0.01619853257 4.558853295e-14)
(5.862989373e-05 0.0005050235724 1.415534356e-15)
(2.648195717e-05 0.0002269305072 6.383782392e-16)
(0 0 0)
(0 0 0)
(0 0 0)
(0 0 0)
(0 0 0)
(0 0 0)
(0 0 0)
(0 0 0)
(0 0 0)
(0 0 0)
(0 0 0)
(0 0 0)
(0 0 0)
(0 0 0)
(0 0 0)
(0 0 0)
(0 0 0)
(0 0 0)
(0 0 0)
(0 0 0)
(0 0 0)
(0 0 0)
(0 0 0)
(0 0 0)
(0 0 0)
(0 0 0)
(0 0 0)
(0 0 0)
(0 0 0)
(0 0 0)
(-0.0001018040046 0.0007608482254 2.220446049e-15)
(-0.0001847117161 0.00138825786 4.024558464e-15)
(-0.0002744046387 0.002073942535 5.967448757e-15)
(-0.001572210552 0.01305317409 3.755329381e-14)
(-0.001343493532 0.01109257251 3.20993232e-14)
(-0.002185938526 0.01897964743 5.491440636e-14)
(-0.002472223175 0.02158432596 6.208922265e-14)
(-0.005317296646 0.05488671085 1.578737141e-13)
(-0.004930873565 0.05061837252 1.464384169e-13)
(-0.005708981647 0.06238954029 1.804667527e-13)
(-0.006100599495 0.06703818818 1.928179838e-13)
(-0.007341475145 0.100080855 2.878391969e-13)
(-0.007018816756 0.09514464704 2.751965322e-13)
(-0.007051157455 0.1039343192 3.006067617e-13)
(-0.007326872203 0.1086173687 3.123890036e-13)
(-0.006129602809 0.1233994617 3.54938301e-13)
(-0.006031775374 0.1206807105 3.490679967e-13)
(-0.005411560681 0.1229907466 3.557709682e-13)
(-0.005449908943 0.1246672378 3.58602037e-13)
(-0.003219238797 0.1247233254 0)
(-0.003224922478 0.1240237211 0)
(-0.002480264726 0.1240176714 0)
(-0.002474581046 0.1247172757 0)
(-0.002846918045 0.1247203006 0)
(-0.0002405915458 0.1246991264 0)
(-0.0002462752262 0.1239995222 0)
(0.000498387399 0.1239934724 0)
(0.0005040710794 0.1246930767 0)
(0.002714766834 0.1235635405 3.556044348e-13)
(0.002669039502 0.1209592342 3.500810752e-13)
(0.003295285102 0.1172473203 3.393396675e-13)
(0.003376572222 0.1207303908 3.474720511e-13)
(0.004654747745 0.1010761146 2.909339436e-13)
(0.004453612688 0.09616620716 2.783606678e-13)
(0.004518826673 0.08622877737 2.495920137e-13)
(0.00475350225 0.09122660707 2.625677453e-13)
(0.003955960924 0.05626415283 1.619399059e-13)
(0.003673934549 0.05195050903 1.503658309e-13)
(0.003106832213 0.04044111043 1.170452624e-13)
(0.003382258294 0.04428246585 1.274536032e-13)
(0.001318725566 0.01394968668 4.013456234e-14)
(0.001132789246 0.011914257 3.447242491e-14)
(0.0005789611172 0.00572466841 1.657007864e-14)
(0.0007866461911 0.007823154258 2.250977182e-14)
(0 0 0)
(0 0 0)
(0 0 0)
(0 0 0)
(0 0 0)
(0 0 0)
(0 0 0)
(0 0 0)
(0 0 0)
(0 0 0)
(0 0 0)
(0 0 0)
(0 0 0)
(0 0 0)
(0 0 0)
(0 0 0)
(0 0 0)
(0 0 0)
(0 0 0)
(0 0 0)
(0 0 0)
(0 0 0)
(0 0 0)
(0 0 0)
(0 0 0)
(0 0 0)