/*--------------------------------*- C++ -*----------------------------------*\
| =========                 |                                                 |
| \\      /  F ield         | OpenFOAM: The Open Source CFD Toolbox           |
|  \\    /   O peration     | Version:  v1912                                 |
|   \\  /    A nd           | Website:  www.openfoam.com                      |
|    \\/     M anipulation  |                                                 |
\*---------------------------------------------------------------------------*/
FoamFile
{
    version     2.0;
    format      ascii;
    class       volVectorField;
    location    "0.95";
    object      U;
}
// * * * * * * * * * * * * * * * * * * * * * * * * * * * * * * * * * * * * * //

dimensions      [0 1 -1 0 0 0 0];


internalField   nonuniform List<vector> 
12556
(
(99.99813971 0.004443435292 -4.294555276e-21)
(99.9976755 0.01461607616 5.220677373e-25)
(99.99632215 0.02974785631 -4.281899441e-21)
(99.99407588 0.0530130336 -4.247192343e-21)
(99.99984061 0.04074840404 4.084062581e-21)
(99.99716234 0.06519296128 0)
(99.99574608 0.1023818803 0)
(99.99541449 0.1523906878 -7.008825867e-21)
(99.99433048 0.2164843364 8.081256354e-22)
(99.99380274 0.291076113 -5.114339545e-21)
(99.99449355 0.3652010777 7.375705002e-22)
(99.99629304 0.4218414089 0)
(100.0001162 0.4444078963 0)
(100.003847 0.4236453239 1.48083989e-21)
(100.005428 0.3703156783 -1.951651358e-21)
(100.0060104 0.3006972263 1.013883313e-21)
(100.005503 0.2301673839 0)
(100.0047682 0.1684860509 1.546375572e-21)
(100.0043155 0.1174702845 6.327956597e-21)
(100.0023049 0.08118189093 -1.745406963e-21)
(100.008801 0.09098505493 -1.507843957e-20)
(100.0059144 0.05547266148 0)
(100.0042478 0.02920622138 -1.881694489e-21)
(100.0040135 0.009143315784 -1.323672406e-20)
(99.9834436 0.01194721048 1.722122513e-20)
(99.97789363 0.03976127524 4.29664331e-21)
(99.96532859 0.08154350711 2.997597698e-20)
(99.94376414 0.1461736417 -1.283725873e-20)
(99.94874941 0.1928674937 4.117319215e-21)
(99.91635968 0.3116808268 -5.823305272e-23)
(99.87551619 0.4898718757 0)
(99.85505329 0.645426713 -7.112435227e-21)
(99.81443283 0.9278165907 -6.501555852e-21)
(99.78932519 1.267274088 -1.10473284e-20)
(99.7990048 1.617340536 -4.415907597e-21)
(99.85536422 1.893644892 -5.200726386e-21)
(99.94893325 2.015828213 5.364222183e-22)
(100.0503014 1.942050022 6.570003691e-22)
(100.1233882 1.708871126 -6.34259847e-22)
(100.1534656 1.389100431 5.217027254e-21)
(100.1486767 1.061928499 -9.80063713e-21)
(100.1234012 0.7788899329 0)
(100.124539 0.5728239113 -2.664075147e-20)
(100.0867374 0.3842116607 5.108847493e-20)
(100.0826035 0.258207276 1.459802344e-20)
(100.0565108 0.1569240833 2.992786987e-20)
(100.0413517 0.08290127883 -3.001657745e-20)
(100.0355793 0.02599794117 1.511891773e-20)
(99.95547715 0.01575760379 -1.718287674e-20)
(99.93977723 0.05345322981 -3.452940751e-20)
(99.90559732 0.1118805316 -7.726050509e-20)
(99.84835517 0.2051430806 1.027492243e-19)
(99.82292919 0.3050966555 -8.482709595e-21)
(99.72597265 0.5069102177 -8.199805414e-21)
(99.59939779 0.8134953205 -1.420707728e-20)
(99.53468533 1.13985592 0)
(99.40383465 1.682810939 2.700725488e-20)
(99.32204662 2.354792349 0)
(99.36723927 3.059036432 -1.191647412e-19)
(99.57474164 3.661600695 0)
(99.93435177 3.958238303 -1.193480438e-20)
(100.3139013 3.815219577 8.090088323e-20)
(100.5567066 3.297868452 8.336501391e-20)
(100.6348067 2.631743458 4.179323696e-21)
(100.5916318 1.977657143 -1.048375902e-20)
(100.4879504 1.415673702 -2.402755602e-20)
(100.4099291 0.969806965 -1.599791067e-19)
(100.293178 0.6418099857 -3.519493338e-20)
(100.2270792 0.3872456135 -1.491190886e-20)
(100.1580216 0.2332919404 3.385525496e-20)
(100.1163472 0.1232012906 -3.79704525e-21)
(100.0982092 0.03846970835 0)
(99.92214529 0.01368739363 -8.674318148e-21)
(99.89202682 0.04884074251 6.069277384e-20)
(99.82754654 0.1097576961 -1.736838808e-20)
(99.72211564 0.2105551052 0)
(99.64071344 0.3514255799 0)
(99.45174743 0.6113011866 -6.661040491e-20)
(99.19195196 1.021283383 -1.330718897e-19)
(98.99635145 1.50895022 3.109716364e-20)
(98.68801816 2.304873226 -5.901567256e-20)
(98.47996709 3.307345225 -2.307638833e-19)
(98.49133187 4.48054572 7.446995362e-19)
(98.90326329 5.622216759 9.127051625e-19)
(99.776896 6.281718709 0)
(100.7631172 6.051931203 2.074783407e-20)
(101.360185 5.070920499 -3.741753436e-19)
(101.4742011 3.854845856 1.578058545e-19)
(101.3200856 2.78161177 1.812085453e-19)
(101.0744304 1.93897075 0)
(100.8427546 1.262765981 5.765845023e-20)
(100.6012224 0.8163241221 -4.42727142e-20)
(100.427352 0.4547684342 -3.808587692e-20)
(100.2988481 0.2706921162 1.924123463e-20)
(100.2191452 0.1408454924 -3.85707331e-21)
(100.182807 0.04356360628 0)
(99.8977006 0.004332515851 0)
(99.8507947 0.0211926148 0)
(99.75120604 0.0671203733 8.800566298e-21)
(99.58769321 0.1523517602 1.326113861e-20)
(99.43800705 0.3144502487 2.191107693e-20)
(99.12616607 0.593409341 0)
(98.6927506 1.03967865 0)
(98.28738522 1.652542285 0)
(97.72641158 2.620833174 8.446994216e-19)
(97.21598244 3.959044783 1.406279918e-18)
(96.97241282 5.755482129 6.295915746e-20)
(97.49754979 7.885372312 -5.53765999e-19)
(99.30427777 9.405265074 0)
(101.5748262 9.030046754 1.322610314e-19)
(102.8037536 7.149345121 0)
(102.8646871 5.031168802 -8.793473754e-21)
(102.3927472 3.390200085 -4.171009142e-19)
(101.8669599 2.261210819 -3.896452991e-22)
(101.3939175 1.39678306 -9.417189335e-20)
(100.9817695 0.8766469652 7.815582949e-21)
(100.6565957 0.4417218063 0)
(100.4548008 0.257218707 3.920686386e-21)
(100.3291202 0.129282947 -2.944668336e-21)
(100.2707696 0.03926751924 -9.762177759e-22)
(99.89794495 -0.01276645007 0)
(99.83385141 -0.03111260263 0)
(99.69943869 -0.02139453964 -1.761007027e-20)
(99.47480309 0.02658954309 3.597015219e-20)
(99.24773327 0.1802114504 0)
(98.8008805 0.4252766505 0)
(98.16328034 0.8383716541 2.813934313e-20)
(97.52542943 1.470835002 0)
(96.59959807 2.460041125 1.164573448e-20)
(95.54829168 3.975635562 0)
(94.51545601 6.471668038 -1.405420492e-18)
(94.49790145 10.47413199 0)
(98.10630001 14.39183373 0)
(103.4411669 13.37280284 0)
(105.4731824 9.396656151 4.444666117e-19)
(105.0212014 5.956544393 1.706438015e-20)
(103.8464688 3.670145879 4.636346162e-19)
(102.8044235 2.285159864 2.354485629e-20)
(102.0124423 1.319268596 2.415733218e-20)
(101.3886728 0.7884035715 -1.610492026e-20)
(100.8831399 0.3367207646 0)
(100.598319 0.1851020727 0)
(100.4233812 0.08462597977 -9.873784989e-22)
(100.3415402 0.02453430523 -2.958156976e-21)
(99.93805246 -0.03719405366 4.315213496e-21)
(99.8585531 -0.1061272963 -4.349109902e-21)
(99.69433009 -0.1523776441 8.881107997e-21)
(99.41637468 -0.1667511401 -3.245360039e-20)
(99.10380827 -0.05274932457 6.453429285e-23)
(98.53641963 0.1043483099 2.787142842e-20)
(97.71802858 0.4021934443 -1.366326995e-19)
(96.84445813 0.9258581602 -1.345452472e-18)
(95.52172961 1.746670042 1.536013735e-18)
(93.74891662 3.088485497 0)
(91.13983206 5.605093641 0)
(87.64321612 11.91970783 -1.126301591e-19)
(94.06672573 24.0090929 0)
(109.3340826 19.47778779 0)
(110.2473711 10.97638706 -3.876560052e-19)
(107.9809085 6.016850902 6.332065848e-19)
(105.5802499 3.34293243 5.602126084e-19)
(103.8074701 1.91126038 -2.81065835e-19)
(102.5971531 0.978012755 0)
(101.765048 0.5263372502 8.694087019e-21)
(101.065766 0.1401520926 2.581663396e-21)
(100.6993044 0.05067583792 -3.056553065e-21)
(100.4788218 0.006938339492 -3.478476181e-21)
(100.3743452 -0.0004842715212 8.389965584e-21)
(100.0310261 -0.06741827483 -4.315671067e-21)
(99.94000756 -0.198933524 4.350672635e-21)
(99.75449576 -0.3162458662 -5.528220136e-21)
(99.43859122 -0.4122908395 -3.72665414e-21)
(99.05430651 -0.3678028977 1.59070391e-20)
(98.39660573 -0.3417159782 9.50408125e-21)
(97.46543744 -0.238470059 -1.009503028e-20)
(96.39873677 0.07009833043 0)
(94.79139338 0.5148736091 -3.657609945e-21)
(92.48874735 1.206473344 8.998103008e-19)
(88.56045988 2.252354312 0)
(80.59910224 4.180975077 -1.225539937e-18)
(124.3528082 22.34464946 0)
(116.9336354 9.168022446 0)
(111.2395975 4.417131396 6.385659916e-19)
(107.2410419 2.177714377 3.311291067e-19)
(104.6945271 1.080194957 0)
(103.0355951 0.3749238567 -4.590360306e-21)
(102.0384 0.1064681775 1.960236777e-20)
(101.1599068 -0.1414079656 -3.137694285e-21)
(100.7287716 -0.1368780989 2.569958902e-21)
(100.47299 -0.09896427719 -4.816877823e-22)
(100.349665 -0.03472125987 -7.868656008e-21)
(100.1862876 -0.1011353571 -2.083917969e-21)
(100.0890062 -0.3024166365 -1.566581943e-21)
(99.8931543 -0.4994911372 -5.372622866e-22)
(99.5590677 -0.6882625184 1.630657771e-21)
(99.12383898 -0.7341088627 -3.128179218e-23)
(98.42451238 -0.8635005792 0)
(97.46111584 -0.9900023903 2.499831933e-21)
(96.30032959 -0.9546217111 -1.663636658e-18)
(94.61823255 -0.9540458997 -4.424133869e-19)
(92.30508557 -1.011749671 9.851667181e-19)
(88.76932647 -1.541161468 0)
(84.07004117 -3.601445799 2.333265974e-20)
(137.0650384 6.640526963 0)
(121.5721917 2.59372152 -1.511975632e-18)
(113.4330065 0.9789192432 -8.957610642e-19)
(108.3134286 0.2113479282 1.896046519e-20)
(105.2222513 -0.1375858821 5.603634323e-21)
(103.2322168 -0.4232458047 -4.66866024e-21)
(102.1353573 -0.436522443 1.098186557e-20)
(101.1327713 -0.4817087708 1.073618662e-21)
(100.6638214 -0.3606830813 0)
(100.3872443 -0.2242779971 3.96347681e-21)
(100.2519744 -0.07538608053 3.91969732e-21)
(100.4083054 -0.1356264827 4.10640919e-21)
(100.3105426 -0.4081869547 6.244383861e-23)
(100.116225 -0.686330126 0)
(99.78522652 -0.9700369239 2.129241368e-22)
(99.32480065 -1.115588702 -2.187714266e-21)
(98.63506513 -1.402905077 2.339705936e-21)
(97.71444357 -1.750588811 -1.019487961e-20)
(96.56943614 -1.974319581 0)
(94.99769414 -2.340259884 0)
(92.95257214 -2.88766422 -9.007507184e-19)
(90.17354612 -3.985034661 2.993872436e-21)
(87.23626189 -5.802085503 0)
(134.2610062 -9.548880099 -2.215253622e-18)
(121.2728541 -5.161731546 -1.356362694e-18)
(113.5007429 -3.167660461 4.861644391e-19)
(108.3613713 -2.107753622 9.680011912e-21)
(105.2098217 -1.537523552 -5.421901275e-19)
(103.120315 -1.307878247 3.94599745e-20)
(102.0156722 -1.038444095 0)
(100.9657628 -0.8446144196 -1.049386803e-21)
(100.4910069 -0.5985401551 -4.370385033e-21)
(100.2107614 -0.3573873802 4.881680507e-22)
(100.0719374 -0.1186548471 0)
(100.6961523 -0.1682733907 -2.022312906e-21)
(100.6032943 -0.5080112724 2.041026587e-21)
(100.4212168 -0.861470966 1.991662982e-21)
(100.1145613 -1.234219281 -1.867287003e-21)
(99.65156555 -1.477753042 -2.159149219e-21)
(99.01522946 -1.905307587 0)
(98.19181281 -2.43988309 -7.787026889e-20)
(97.13419466 -2.876144283 0)
(95.74809204 -3.495780023 0)
(94.00090171 -4.315577181 0)
(91.7021209 -5.595577254 1.654959954e-18)
(89.32246373 -7.133466153 -2.126601708e-19)
(125.3855628 -18.43164356 3.263882155e-18)
(117.4092112 -10.83148716 -2.40587023e-18)
(111.6493499 -6.611489637 -4.149746555e-19)
(107.4054094 -4.190034057 -6.585774561e-19)
(104.642693 -2.861286163 0)
(102.6950488 -2.150021433 0)
(101.6781208 -1.620616227 -2.59100172e-20)
(100.6569803 -1.191638097 -1.318248378e-20)
(100.209156 -0.8267098859 9.97909279e-22)
(99.94215296 -0.4858056008 -3.162814872e-21)
(99.80804163 -0.1605245507 4.630280008e-22)
(101.0438303 -0.1968118275 7.408377057e-21)
(100.9605136 -0.5946939833 0)
(100.7986578 -1.010004124 -1.987757431e-21)
(100.5304738 -1.467825852 0)
(100.0803006 -1.793232979 0)
(99.53542757 -2.328954017 -6.422381355e-21)
(98.84383999 -3.006213498 -2.220105319e-21)
(97.91667853 -3.600085756 1.668621336e-19)
(96.74122636 -4.387852397 3.849729226e-19)
(95.26364068 -5.383604303 -8.027843367e-19)
(93.26364933 -6.826693958 -7.391096248e-19)
(91.02094152 -8.408462838 9.688209613e-21)
(115.9890102 -21.59406762 0)
(112.224476 -13.61291411 4.610803121e-19)
(108.7713972 -8.690315629 3.255055849e-19)
(105.7844385 -5.652509739 2.704035394e-19)
(103.6530069 -3.900664329 1.059303132e-19)
(102.0113799 -2.844203083 2.07510086e-21)
(101.1552735 -2.117899361 -3.166805056e-20)
(100.2256774 -1.49544272 7.801800152e-21)
(99.82958913 -1.023403123 0)
(99.58902719 -0.5985574071 3.641508386e-21)
(99.46653856 -0.1974633843 0)
(101.4416667 -0.2203959499 7.398882698e-21)
(101.370632 -0.6668538798 1.167758447e-19)
(101.2327065 -1.131668028 -2.353314092e-19)
(101.0066986 -1.652270916 -5.744664843e-22)
(100.613312 -2.037562113 -1.866691847e-21)
(100.1614416 -2.648887336 0)
(99.62164589 -3.421381732 1.720665356e-20)
(98.84367059 -4.113545226 3.022123295e-19)
(97.89687307 -5.001613059 7.158112091e-19)
(96.69776163 -6.123932339 6.42369692e-19)
(95.03345397 -7.796063867 7.670228124e-19)
(93.02416393 -9.708652568 -5.313951563e-19)
(103.3065806 -30.70263739 9.516503545e-20)
(107.4058159 -19.97442509 1.363167156e-19)
(107.2808288 -13.88539535 -1.396300147e-20)
(105.7378369 -9.401492922 0)
(103.9136631 -6.406370164 4.598036911e-19)
(102.4350264 -4.5655507 8.559180382e-21)
(101.1624023 -3.327411051 -6.347775516e-20)
(100.4978892 -2.485902447 0)
(99.70554878 -1.728304322 0)
(99.37227592 -1.175890029 1.143056253e-20)
(99.16605616 -0.6882721461 2.105332646e-21)
(99.05996558 -0.2269445982 -6.837307775e-21)
(101.8770316 -0.2367845769 0)
(101.8198755 -0.7176699162 0)
(101.7095262 -1.216018753 0)
(101.5280549 -1.770396063 0)
(101.1904643 -2.212773287 0)
(100.8345778 -2.876952441 0)
(100.4369058 -3.700102532 -1.174124544e-19)
(99.8314139 -4.432226435 0)
(99.11351889 -5.356291371 5.874213498e-19)
(98.22088731 -6.530004763 -7.245943404e-20)
(97.03662944 -8.337475031 -8.93454436e-19)
(95.82288448 -10.95001415 4.851989597e-19)
(96.35489477 -20.04407929 1.954925887e-20)
(102.2407541 -16.40532303 -4.747696239e-19)
(103.5230394 -12.55262914 -8.1612548e-20)
(103.1086909 -9.102549543 1.861833533e-19)
(102.1137321 -6.557659093 0)
(101.1610699 -4.868630957 -4.133272456e-20)
(100.245868 -3.595071193 -8.896159027e-20)
(99.76951634 -2.718114601 -3.34653168e-20)
(99.12919007 -1.876637693 -1.862465527e-20)
(98.86051632 -1.280563109 1.837727479e-20)
(98.69218995 -0.751100249 0)
(98.60478125 -0.2475750963 1.835568757e-20)
(102.3370997 -0.2459903206 0)
(102.2945513 -0.746449283 0)
(102.2138748 -1.263108937 0)
(102.0783261 -1.827233262 0)
(101.7956508 -2.29910557 0)
(101.5424272 -2.977729338 0)
(101.2777412 -3.787093466 -2.59446101e-20)
(100.8351159 -4.552731707 8.16431801e-21)
(100.3192415 -5.465792967 -5.104829482e-19)
(99.72299939 -6.561836493 -3.796282434e-21)
(99.10391294 -8.110166402 0)
(98.8823272 -10.48559226 0)
(97.84880258 -13.0305015 -1.70140576e-19)
(100.1701793 -12.6064457 9.829176469e-20)
(101.149764 -10.6074266 8.163362692e-20)
(101.095156 -8.267137408 -5.718454303e-19)
(100.5566989 -6.306810348 3.320730539e-19)
(99.96643837 -4.893171969 -2.40073836e-20)
(99.33316265 -3.677410604 0)
(99.02639047 -2.825339236 0)
(98.52586537 -1.946437258 -3.477918752e-20)
(98.31840249 -1.336830938 1.716312519e-20)
(98.18762812 -0.7859951919 7.181629315e-22)
(98.11883658 -0.2590891329 -1.265170196e-20)
(102.8085569 -0.2484423404 0)
(102.7796065 -0.7539635298 0)
(102.7264978 -1.27429753 0)
(102.6334324 -1.831143074 0)
(102.40163 -2.312576109 0)
(102.2367167 -2.974925303 0)
(102.0763257 -3.737129626 -2.059159306e-23)
(101.7762108 -4.502013115 1.924630051e-19)
(101.4150318 -5.373094357 0)
(101.0205369 -6.329180114 6.168994857e-20)
(100.7125145 -7.482799727 -4.817586885e-19)
(97.57171037 -8.405515508 -2.035782504e-20)
(98.79846706 -9.943656056 6.630380112e-20)
(99.49596161 -9.866864841 2.563637141e-19)
(99.76546752 -8.779043433 9.135568807e-21)
(99.63671992 -7.257810734 0)
(99.28828224 -5.83904692 -7.378808972e-20)
(98.91164024 -4.706468089 0)
(98.49033473 -3.617527626 -2.967369831e-20)
(98.30560099 -2.823322034 4.488823757e-20)
(97.92287496 -1.949391222 1.084339082e-20)
(97.76901192 -1.349921181 1.848966521e-20)
(97.67141402 -0.7954866301 -2.100751006e-20)
(97.61923739 -0.262232241 0)
(103.2790905 -0.2451142812 0)
(103.2617446 -0.7432641263 0)
(103.2315226 -1.254670823 0)
(103.1739685 -1.790572329 0)
(102.9876569 -2.265562767 0)
(102.8923929 -2.889990634 0)
(102.810208 -3.581810206 0)
(102.6054899 -4.301645274 2.34450925e-21)
(102.3482737 -5.103197589 2.974172378e-19)
(102.0413389 -5.9073675 2.174222585e-18)
(101.913723 -6.75543236 0)
(94.06828408 -6.608993445 0)
(99.29827785 -8.019663864 -2.767143922e-19)
(99.11439223 -7.949470877 -2.090681655e-20)
(98.87405896 -7.273917786 2.972641677e-20)
(98.58752942 -6.287828954 -3.785931507e-19)
(98.28856305 -5.299228937 7.452458721e-21)
(98.02231293 -4.400394987 0)
(97.73712038 -3.457180578 0)
(97.6313837 -2.737323497 0)
(97.34165606 -1.89976287 3.766480493e-20)
(97.23084743 -1.32712242 -3.524057714e-20)
(97.15980632 -0.7833065369 -2.376300521e-21)
(97.12106234 -0.2585631375 2.384269859e-21)
(103.7382303 -0.2371576417 0)
(103.7302186 -0.718070471 0)
(103.7176715 -1.210568669 0)
(103.6875612 -1.715322019 0)
(103.5385622 -2.170990589 0)
(103.492918 -2.744598753 0)
(103.4603537 -3.357556836 0)
(103.3100089 -3.989779131 0)
(103.0930301 -4.68465401 5.835778386e-20)
(102.77616 -5.349930766 -7.497002175e-19)
(102.3123067 -5.979380876 -6.189550763e-19)
(95.70506262 -6.187979194 -2.707187583e-20)
(99.36566879 -6.684500384 1.472416078e-19)
(98.75010145 -6.56646331 0)
(98.22678504 -6.100881816 -2.260038657e-19)
(97.82756909 -5.456863431 -1.040420028e-20)
(97.51549111 -4.748523654 0)
(97.28897833 -4.034296901 0)
(97.0758933 -3.228859729 0)
(97.01652291 -2.590650004 0)
(96.79491002 -1.809707556 0)
(96.71603362 -1.27466541 0)
(96.66533615 -0.7546973875 0)
(96.63672779 -0.2500908848 0)
(104.1779728 -0.2257041478 0)
(104.1770199 -0.6820301088 0)
(104.1770993 -1.14832765 0)
(104.1664733 -1.615773891 0)
(104.0455212 -2.043288986 0)
(104.0308378 -2.56049173 0)
(104.0234419 -3.096622542 0)
(103.8948553 -3.638162131 0)
(103.6787254 -4.199108331 0)
(103.3297912 -4.73481941 8.229637433e-21)
(101.5221888 -5.111251111 2.224041567e-19)
(98.24166932 -5.512031353 5.397304014e-22)
(99.28268397 -5.625669131 -4.585706537e-22)
(98.45037204 -5.51066231 -3.506682441e-22)
(97.77829642 -5.201601232 0)
(97.27791988 -4.751013734 0)
(96.91827242 -4.215444289 0)
(96.68993492 -3.646698344 0)
(96.50615269 -2.965956269 0)
(96.46808511 -2.408883317 0)
(96.2907117 -1.694242243 0)
(96.23299258 -1.202373652 0)
(96.19591561 -0.7136737284 0)
(96.17522514 -0.2370353309 0)
(104.5926527 -0.2118405087 0)
(104.5965799 -0.6386164806 0)
(104.6045969 -1.0739068 0)
(104.6061725 -1.50139495 0)
(104.5048365 -1.895699497 0)
(104.5055981 -2.355970405 0)
(104.5040533 -2.823376589 0)
(104.37703 -3.279948536 0)
(104.1393164 -3.732081161 0)
(103.7495582 -4.146231964 0)
(101.4551003 -4.378339169 0)
(98.9338513 -4.716184299 0)
(99.26795389 -4.779682975 0)
(98.27087059 -4.695514106 0)
(97.46579966 -4.47097453 0)
(96.86786845 -4.135530245 0)
(96.4519437 -3.722606558 0)
(96.19983093 -3.265444539 0)
(96.01976054 -2.691784881 0)
(95.98462435 -2.210297727 0)
(95.83257413 -1.565124694 0)
(95.78693202 -1.118215924 0)
(95.75770842 -0.6651664395 0)
(95.74200015 -0.2213428524 0)
(104.9786784 -0.196552591 0)
(104.985544 -0.590967939 0)
(104.9974299 -0.9926067648 0)
(105.0049558 -1.379868737 0)
(104.9165187 -1.738935798 0)
(104.9208206 -2.145236873 0)
(104.911115 -2.551370719 0)
(104.7742999 -2.933983889 0)
(104.5044844 -3.300401232 0)
(104.0615016 -3.623861889 0)
(101.4574061 -3.783986251 0)
(99.25350841 -4.065709197 0)
(99.26189579 -4.094797526 -2.302823296e-35)
(98.1410665 -4.028494737 0)
(97.23310074 -3.858890926 0)
(96.55425104 -3.602358503 0)
(96.08295609 -3.278257706 0)
(95.79716486 -2.907011859 0)
(95.60550538 -2.422723625 0)
(95.56119982 -2.008218363 0)
(95.42047596 -1.43113268 0)
(95.37969215 -1.028455337 0)
(95.35366667 -0.6129436965 0)
(95.34069169 -0.2043704176 0)
(105.3342112 -0.1806611225 0)
(105.3424137 -0.541685492 0)
(105.3549338 -0.9088190763 0)
(105.3634101 -1.257046136 0)
(105.282727 -1.580991216 0)
(105.2821379 -1.937984403 0)
(105.2551059 -2.288762973 0)
(105.1024433 -2.610586872 0)
(104.7971852 -2.909642392 0)
(104.2991359 -3.166388008 0)
(101.4678424 -3.282826629 0)
(99.4522471 -3.521634275 0)
(99.2499202 -3.530135987 0)
(98.04045256 -3.4749776 0)
(97.05440215 -3.342602606 0)
(96.30926677 -3.141794606 0)
(95.78709765 -2.883292466 0)
(95.4646977 -2.579616746 0)
(95.25202101 -2.168908524 0)
(95.19146999 -1.811712021 0)
(95.05229958 -1.298506861 0)
(95.01097157 -0.9378602546 0)
(94.9846515 -0.559885822 0)
(94.97262957 -0.1870692297 0)
(105.6588597 -0.1648016155 0)
(105.6671466 -0.4927512662 0)
(105.6779164 -0.8258867397 0)
(105.6836387 -1.137239227 0)
(105.6067333 -1.427502939 0)
(105.5957809 -1.740230279 0)
(105.5469947 -2.041731649 0)
(105.3743262 -2.314207909 0)
(105.0344557 -2.560246007 0)
(104.4835792 -2.766937833 0)
(101.4908317 -2.855307688 0)
(99.57819103 -3.061365785 0)
(99.233953 -3.057592531 -3.055498856e-35)
(97.95988091 -3.010455043 0)
(96.91367067 -2.90454178 0)
(96.11438516 -2.744257291 0)
(95.54695346 -2.535113942 0)
(95.18857136 -2.284381319 0)
(94.94954363 -1.934885284 0)
(94.86888154 -1.626277877 0)
(94.7247265 -1.171507714 0)
(94.67908334 -0.8498190521 0)
(94.65002753 -0.5080559501 0)
(94.63762593 -0.1701119055 0)
(105.9533336 -0.1494438995 0)
(105.9607597 -0.4455935116 0)
(105.9681111 -0.7461851715 0)
(105.9685073 -1.023440249 0)
(105.8924497 -1.282204614 0)
(105.867731 -1.55558176 0)
(105.7952727 -1.814645585 0)
(105.6008879 -2.046224176 0)
(105.2289411 -2.250319174 0)
(104.6287379 -2.418718093 0)
(101.5285165 -2.488766704 0)
(99.65749259 -2.669850775 0)
(99.21562447 -2.658338317 0)
(97.89391441 -2.617403815 0)
(96.80058578 -2.531098759 0)
(95.95693206 -2.401113854 0)
(95.34978673 -2.229803702 0)
(94.95729885 -2.020900507 0)
(94.69013642 -1.722338808 0)
(94.58729406 -1.455007294 0)
(94.43395256 -1.0528388 0)
(94.38153817 -0.7665708573 0)
(94.34813769 -0.4588461768 0)
(94.33439788 -0.1539578438 0)
(106.2190906 -0.134921557 0)
(106.2249669 -0.4011998094 0)
(106.2277913 -0.6713217833 0)
(106.2211846 -0.917589144 0)
(106.1438841 -1.147433615 0)
(106.1035144 -1.386192831 0)
(106.0068662 -1.609059998 0)
(105.7907787 -1.806494387 0)
(105.390049 -1.977149723 0)
(104.744374 -2.115733087 0)
(101.5805008 -2.173668311 0)
(99.70602992 -2.335686551 0)
(99.19598372 -2.319009732 1.016810825e-35)
(97.83906582 -2.283060595 0)
(96.70830184 -2.211776548 0)
(95.82807439 -2.105016458 0)
(95.1862884 -1.963219716 0)
(94.76214931 -1.787745341 0)
(94.46681756 -1.531658813 0)
(94.3411674 -1.299382443 0)
(94.17610436 -0.9440417511 0)
(94.11543993 -0.6894961837 0)
(94.07670593 -0.4131425909 0)
(94.06096616 -0.1389056995 0)
(106.4580725 -0.1214581071 0)
(106.4619208 -0.3602138537 0)
(106.4595395 -0.6023160226 0)
(106.4449282 -0.8208180657 0)
(106.364965 -1.024465281 0)
(106.3081144 -1.23300465 0)
(106.1877076 -1.425117602 0)
(105.9508619 -1.593919119 0)
(105.5247675 -1.737674808 0)
(104.8375312 -1.852664809 0)
(101.6450064 -1.902511867 0)
(99.73378136 -2.04981551 0)
(99.17570835 -2.029640999 0)
(97.79294716 -1.99781581 0)
(96.63208722 -1.938341622 0)
(95.72148387 -1.849762516 0)
(95.04952179 -1.731349497 0)
(94.59636256 -1.582885733 0)
(94.27375242 -1.362335059 0)
(94.12556909 -1.15981767 0)
(93.94741927 -0.8458331479 0)
(93.87772292 -0.6193546613 0)
(93.83311941 -0.3714566305 0)
(93.81494868 -0.1251331529 0)
(106.6725325 -0.109189273 0)
(106.6740402 -0.3230115157 0)
(106.6660958 -0.5397442543 0)
(106.64297 -0.7336834629 0)
(106.5593682 -0.9138742917 0)
(106.4859069 -1.09619981 0)
(106.3427332 -1.262241171 0)
(106.0865701 -1.406959925 0)
(105.6382654 -1.528873583 0)
(104.9133505 -1.624949945 0)
(101.7195204 -1.669270963 0)
(99.74731886 -1.80518082 0)
(99.15525633 -1.782707895 0)
(97.75384191 -1.754342315 0)
(96.56855988 -1.704324697 0)
(95.63253078 -1.630211923 0)
(94.93424591 -1.53055539 0)
(94.45465244 -1.404102507 0)
(94.10611479 -1.213381057 0)
(93.93619491 -1.036096621 0)
(93.74432454 -0.7583812997 0)
(93.66529302 -0.5564660032 0)
(93.61460316 -0.3340254715 0)
(93.59374288 -0.1127278813 0)
(106.8649101 -0.09818490642 0)
(106.8638875 -0.2897704582 0)
(106.8502486 -0.4838600228 0)
(106.8184385 -0.6563387582 0)
(106.7305451 -0.8157243926 0)
(106.6407816 -0.9754505575 0)
(106.4761271 -1.119444303 0)
(106.2022829 -1.243884551 0)
(105.7344932 -1.347937222 0)
(104.9756731 -1.428736379 0)
(101.80132 -1.469089809 0)
(99.75118162 -1.596217963 0)
(99.13492651 -1.572332531 0)
(97.72044197 -1.546889046 0)
(96.51519665 -1.504535329 0)
(95.55771378 -1.442066441 0)
(94.83638796 -1.357585571 0)
(94.33277612 -1.249170282 0)
(93.95983377 -1.083535681 0)
(93.76923609 -0.927601501 0)
(93.56347702 -0.6814995294 0)
(93.47511887 -0.5008497392 0)
(93.41833638 -0.3008957897 0)
(93.39464964 -0.1017143325 0)
(107.0376919 -0.0884703732 0)
(107.0340366 -0.2605357444 0)
(107.0147219 -0.4347042674 0)
(106.9742809 -0.5886923957 0)
(106.8816568 -0.7297887031 0)
(106.7761522 -0.8701684609 0)
(106.5914238 -0.9955895733 0)
(106.3015594 -1.102984092 0)
(105.816572 -1.192398071 0)
(105.0274161 -1.260829549 0)
(101.8878543 -1.298188228 0)
(99.74855512 -1.418586348 0)
(99.11490364 -1.393903263 0)
(97.69172137 -1.370918465 0)
(96.47006204 -1.334814775 0)
(95.49432556 -1.281778294 0)
(94.75272939 -1.209628642 0)
(94.22728541 -1.116013611 0)
(93.83148372 -0.9714736193 0)
(93.62135737 -0.8335328896 0)
(93.40180882 -0.6148103976 0)
(93.30432153 -0.4523440295 0)
(93.24156896 -0.2719965553 0)
(93.21500156 -0.09207750268 0)
(107.1934103 -0.08004029673 0)
(107.187074 -0.2352641299 0)
(107.1621898 -0.3921801452 0)
(107.1133101 -0.5304942882 0)
(107.015605 -0.6556759534 0)
(106.8950472 -0.7796494802 0)
(106.6915915 -0.8894452845 0)
(106.3873776 -0.982642497 0)
(105.8870613 -1.060082887 0)
(105.0708556 -1.11850937 0)
(101.9769249 -1.153559756 0)
(99.74170018 -1.268800911 0)
(99.09525535 -1.243746564 0)
(97.66683448 -1.222791736 0)
(96.43161205 -1.191778417 0)
(95.44020285 -1.146390316 0)
(94.68065264 -1.084264851 0)
(94.13526046 -1.002763501 0)
(93.71814214 -0.8759250412 0)
(93.48960628 -0.7530298797 0)
(93.25645755 -0.5578287538 0)
(93.1501454 -0.4106816065 0)
(93.08161163 -0.2471853802 0)
(93.05215709 -0.08377737907 0)
(107.3343799 -0.07287641951 0)
(107.3253614 -0.2138711059 0)
(107.2950668 -0.356113591 0)
(107.2380235 -0.4814714407 0)
(107.1350426 -0.5929158806 0)
(107.0001929 -0.7031779418 0)
(106.7791466 -0.7995180953 0)
(106.4621932 -0.8814919841 0)
(105.9480717 -0.9491057695 0)
(105.1077825 -0.9994551653 0)
(102.0667205 -1.032731846 0)
(99.73230018 -1.143978302 0)
(99.0759804 -1.118891253 -1.363462493e-36)
(97.64505868 -1.099577921 0)
(96.39857709 -1.072674074 0)
(95.39357932 -1.033453451 0)
(94.61801784 -0.9794481453 0)
(94.05436064 -0.9080647917 0)
(93.61716713 -0.7958794777 0)
(93.37133903 -0.6852211848 0)
(93.12492758 -0.5100870653 0)
(93.01014332 -0.375547514 0)
(92.93604995 -0.2262949711 0)
(92.90374314 -0.07676673638 0)
(107.4634772 -0.06693751259 0)
(107.4517506 -0.1962258579 0)
(107.4161804 -0.3262837159 0)
(107.3512586 -0.4411901584 0)
(107.2424476 -0.5410321506 0)
(107.0940719 -0.6399679431 0)
(106.8567666 -0.7249354676 0)
(106.5279742 -0.798179098 0)
(106.0013655 -0.8578331376 0)
(105.1396457 -0.9017464117 0)
(102.1557689 -0.9337035491 0)
(99.72166549 -1.041761988 0)
(99.05705417 -1.016930644 0)
(97.62577023 -0.9989144703 0)
(96.36988486 -0.9752731877 0)
(95.35297201 -0.9409505648 0)
(94.56303111 -0.893417619 0)
(93.98271643 -0.8303207702 0)
(93.52618176 -0.7302350555 0)
(93.26417186 -0.6293048693 0)
(93.00442697 -0.4709923958 0)
(92.88151553 -0.3466112611 0)
(92.80204487 -0.2091274094 0)
(92.76688705 -0.07098034615 0)
(107.5811469 -0.06223191706 0)
(107.5668274 -0.1822913381 0)
(107.5261963 -0.3025154526 0)
(107.4537442 -0.4097331926 0)
(107.340107 -0.4994629952 0)
(107.1789091 -0.5892330311 0)
(106.9269698 -0.6657929133 0)
(106.5865221 -0.7313496443 0)
(106.0485128 -0.7848531293 0)
(105.1676837 -0.8237935259 0)
(102.2429437 -0.8548254153 0)
(99.71085517 -0.9602452544 0)
(99.03844053 -0.9359343367 0)
(97.60841955 -0.9189048105 0)
(96.3445987 -0.8977761039 0)
(95.31708033 -0.8672307701 0)
(94.51405837 -0.8246856729 0)
(93.91828633 -0.7676677331 0)
(93.44335673 -0.6776205616 0)
(93.16588122 -0.5843755237 0)
(92.89431474 -0.4405054276 0)
(92.76364099 -0.3236006466 0)
(92.67903634 -0.195591382 0)
(92.64117458 -0.06640947536 0)
(107.6965996 -0.05859619899 0)
(107.679347 -0.1717292079 0)
(107.6334921 -0.2844711887 0)
(107.552969 -0.3850209938 0)
(107.4306699 -0.4679254567 0)
(107.2566291 -0.5506879522 0)
(106.9908993 -0.6215605034 0)
(106.6397413 -0.6801587599 0)
(106.0909531 -0.7290513534 0)
(105.192962 -0.7643307884 0)
(102.3274759 -0.794781332 0)
(99.70077988 -0.897999826 0)
(99.02009399 -0.8744359221 0)
(97.59250836 -0.8580892208 0)
(96.32188253 -0.8387830846 0)
(95.28474934 -0.8110047902 0)
(94.46963655 -0.77213928 0)
(93.85921858 -0.7196481474 0)
(93.36697115 -0.6373875204 0)
(93.07464172 -0.5505203387 0)
(92.78706177 -0.4163816178 0)
(92.64812109 -0.3061286491 0)
(92.55824941 -0.1853035069 0)
(92.51732598 -0.06286820701 0)
(107.7849507 -0.05648264308 0)
(107.7657546 -0.1653523391 0)
(107.7158511 -0.2731330377 0)
(107.6299353 -0.3718308483 0)
(107.5140381 -0.445698636 0)
(107.328924 -0.5236855023 0)
(107.0501057 -0.5910422845 0)
(106.6890097 -0.643916663 0)
(106.1299656 -0.6895496579 0)
(105.2164374 -0.7223624934 0)
(102.4089782 -0.7525914449 0)
(99.69220217 -0.8540102576 0)
(99.00193296 -0.8313405833 0)
(97.57755633 -0.8153623622 0)
(96.30096187 -0.7972225436 0)
(95.25493193 -0.7712765108 0)
(94.42848532 -0.7348961337 0)
(93.80417835 -0.6855179103 0)
(93.29534944 -0.6090248988 0)
(92.98893888 -0.5268046525 0)
(92.70277488 -0.4034283971 0)
(92.55821127 -0.2951014844 0)
(92.46426961 -0.1790787892 0)
(92.42138827 -0.06083474643 0)
(107.9500132 -0.05425362335 0)
(107.926775 -0.1597483695 0)
(107.8691794 -0.2636128738 0)
(107.7698237 -0.3566959739 0)
(107.5907281 -0.4333965804 0)
(107.3941483 -0.5083602298 0)
(107.1037497 -0.5742471984 0)
(106.7355962 -0.6219795243 0)
(106.1666866 -0.6656080905 0)
(105.2389933 -0.6971120423 0)
(102.4871391 -0.7275244423 0)
(99.68567702 -0.827585685 0)
(98.98389101 -0.8058223909 0)
(97.56311439 -0.7899237424 0)