/*--------------------------------*- C++ -*----------------------------------*\
| =========                 |                                                 |
| \\      /  F ield         | OpenFOAM: The Open Source CFD Toolbox           |
|  \\    /   O peration     | Version:  v1912                                 |
|   \\  /    A nd           | Website:  www.openfoam.com                      |
|    \\/     M anipulation  |                                                 |
\*---------------------------------------------------------------------------*/
FoamFile
{
    version     2.0;
    format      ascii;
    class       surfaceVectorField;
    location    "1.6";
    object      Uf;
}
// * * * * * * * * * * * * * * * * * * * * * * * * * * * * * * * * * * * * * //

dimensions      [0 1 -1 0 0 0 0];


internalField   nonuniform List<vector> 
25162
(
(99.99930102 0.002615795271 -2.024317051e-21)
(99.99755034 0.002149118364 5.991464731e-21)
(99.99864806 0.007440442721 -2.002479643e-21)
(99.99548414 0.008426399759 2.012859959e-21)
(99.99735853 0.01688619417 -3.997871501e-21)
(99.99116069 0.02103363736 1.204370939e-20)
(99.99860432 0.02154093463 1.251070997e-21)
(99.98300501 0.04530440221 -7.969076239e-21)
(99.99227639 0.04856304134 -1.330378511e-21)
(99.99727948 0.04024032772 1.936232272e-21)
(99.99918466 0.02444633502 9.641133988e-22)
(99.99073192 0.0720091449 1.92865872e-21)
(99.99786449 0.04147036879 9.473155942e-22)
(99.99842028 0.03155783564 -9.700039216e-22)
(99.99731043 0.05405220149 9.47276903e-22)
(99.98524034 0.1231416899 1.888473e-21)
(99.99698289 0.06983700414 0)
(99.99675433 0.08756362936 -3.517342508e-21)
(99.98014624 0.1953382734 -3.517324202e-21)
(99.9962532 0.1088015664 -9.149881288e-22)
(99.99564512 0.1337497877 3.067333442e-21)
(99.97315372 0.2951156427 3.371958713e-21)
(99.99504062 0.1624932162 4.16909407e-22)
(99.99449649 0.1948581848 -2.845297058e-21)
(99.96681733 0.4244687786 4.020873082e-22)
(99.99408243 0.2303718885 -2.963337403e-21)
(99.99389913 0.2680943551 1.988922348e-22)
(99.96422107 0.5746812956 -2.015608893e-21)
(99.99407288 0.3063862591 2.614741217e-21)
(99.99465859 0.3430845682 2.297142881e-21)
(99.96949528 0.7208086844 -1.034297311e-21)
(99.99558545 0.3757963427 0)
(99.99679411 0.402326549 0)
(99.98298145 0.8250116887 2.742772169e-22)
(99.99814563 0.4205758704 0)
(99.99963018 0.4297416779 1.066300959e-22)
(100.0009122 0.8606763682 -3.180597395e-24)
(100.001264 0.428812848 6.842742148e-22)
(100.0027228 0.4176149625 1.064746309e-22)
(100.018729 0.8175393218 -4.525809866e-22)
(100.0039415 0.3975855443 -7.398083762e-22)
(100.0048845 0.3707284744 9.52881159e-23)
(100.0294793 0.7115283165 1.538508575e-21)
(100.0054268 0.3392241027 3.884217487e-22)
(100.0056401 0.3051710074 0)
(100.0324164 0.5759936343 0)
(100.0055884 0.2705159988 0)
(100.0055007 0.2366596777 7.305087545e-22)
(100.0295585 0.4416773437 1.522714046e-21)
(100.0057173 0.2050639585 -3.707004757e-21)
(100.0056298 0.174094534 -1.367708067e-21)
(100.0256266 0.3195965764 3.019556193e-21)
(100.0049226 0.1467074855 3.019330869e-21)
(100.0036957 0.1233579554 -8.710068115e-22)
(100.0156851 0.2238877259 -6.124202045e-23)
(100.0008305 0.1066032238 1.686578114e-21)
(100.0103629 0.1061518026 -7.632899541e-21)
(100.0580696 0.2591468559 6.266285488e-22)
(100.0202277 0.2289805125 -2.73438142e-21)
(100.0032344 0.1072607082 -1.612189391e-21)
(100.0075433 0.06246570468 -9.679046403e-22)
(100.0408567 0.1610751948 1.532523509e-20)
(100.0063989 0.02947026106 -7.782533584e-21)
(100.0310023 0.08720333793 -1.634192637e-20)
(100.027773 0.02779426435 1.554101979e-21)
(99.99340035 0.006933281391 1.001031785e-20)
(99.99103671 0.002674888207 2.337570079e-22)
(99.98709552 0.02014682111 1.602488207e-20)
(99.98310694 0.01183768235 -1.397896456e-20)
(99.97546054 0.04643853325 8.361673343e-21)
(99.96656263 0.032777063 -2.175562622e-20)
(99.96819569 0.08458600715 -1.402422189e-21)
(99.93925304 0.07415909267 4.186176685e-20)
(99.94480009 0.1018998893 -9.244070477e-21)
(99.95160785 0.1103871157 -1.980978479e-21)
(99.96250923 0.1123985493 3.921431513e-21)
(99.97763202 0.07846251682 1.948420215e-21)
(99.96256508 0.1405576219 1.913188033e-21)
(99.95068752 0.1512055081 1.941974941e-21)
(99.91653636 0.2020854695 -3.913255012e-21)
(99.93742657 0.2004145652 -1.422457784e-23)
(99.94049831 0.2397972384 1.888769373e-21)
(99.92150641 0.2619668764 -1.407983793e-23)
(99.87039324 0.3455544754 0)
(99.91333628 0.3144972617 0)
(99.88903164 0.3593633115 -2.36581365e-21)
(99.91592195 0.3715563516 -4.664972845e-21)
(99.90639518 0.3893435048 -4.949372473e-23)
(99.8785054 0.4516363118 -1.049570533e-20)
(99.89792234 0.4293028448 -3.607437335e-21)
(99.86952081 0.5968964693 2.921275011e-23)
(99.88508674 0.5658755523 -2.402392697e-21)
(99.83272936 0.691903573 -1.316301791e-20)
(99.8614203 0.6528202898 -3.202773317e-21)
(99.83423819 0.8734867219 -6.133433341e-21)
(99.85610329 0.8208771759 -5.753910201e-21)
(99.78944655 1.009250332 4.701589677e-22)
(99.82817296 0.9446779604 -7.369350636e-21)
(99.81254642 1.208006251 -1.025559951e-22)
(99.84095274 1.123032837 -4.95345945e-21)
(99.76592078 1.389487975 -3.786268915e-21)
(99.81315529 1.288131703 -3.74045727e-21)
(99.82746861 1.554236602 -5.561133279e-21)
(99.8604201 1.4257293 -7.434766269e-21)
(99.79120275 1.776507223 -1.15487933e-19)
(99.840601 1.628084826 -5.263333003e-21)
(99.8910863 1.82273761 -4.993831948e-21)
(99.92500183 1.649137594 -7.06786368e-21)
(99.8752415 2.067509063 -4.992187941e-21)
(99.91349102 1.875862482 1.154932211e-22)
(99.98166149 1.940963226 4.817291203e-22)
(100.0078258 1.734347754 -5.154688233e-22)
(99.98574042 2.181370549 -1.099509221e-20)
(100.0047735 1.964380634 -3.473257268e-22)
(100.075498 1.88820966 -1.661349128e-22)
(100.0711685 1.657618693 -2.052801553e-22)
(100.0980153 2.090079301 -1.023178741e-22)
(100.0952371 1.859283805 1.483653163e-21)
(100.1442869 1.678517409 1.998182562e-21)
(100.1105089 1.450188455 3.470766115e-21)
(100.1737077 1.829773722 3.488984522e-21)
(100.1536671 1.61075413 4.861821501e-22)
(100.1701227 1.377646269 -5.981067967e-21)
(100.1213615 1.175580364 -5.611889688e-21)
(100.1982705 1.482289605 -2.009276089e-21)
(100.1693372 1.295255033 -1.997852156e-21)
(100.1599607 1.067786854 -4.925912866e-21)
(100.1067151 0.9033542469 4.562166078e-22)
(100.1785693 1.133924659 -1.339663448e-21)
(100.1529502 0.9908588592 5.474245236e-21)
(100.1034169 0.6335170749 -1.297064043e-20)
(100.163738 0.8599163232 -1.296963264e-20)
(100.2322706 0.935542008 1.315205386e-20)
(100.1438167 0.7220250874 -2.668128674e-20)
(100.1232754 0.6019221234 1.157525668e-20)
(100.171999 0.645569477 -1.669652293e-20)
(100.101654 0.4996302974 2.342056949e-20)
(100.0762874 0.4398606512 2.604840719e-20)
(100.0980059 0.3092223072 2.2726233e-20)
(100.2201511 0.4851266237 -2.430989194e-22)
(100.1668285 0.5366121684 4.721194469e-20)
(100.0981729 0.4268729217 2.591268121e-21)
(100.0725626 0.1823959863 -6.962828682e-22)
(100.1598717 0.3005795363 3.269940724e-20)
(100.0593585 0.08445407434 -7.590580413e-21)
(100.1233428 0.1626023086 -1.734240869e-20)
(100.1074343 0.05160015691 7.78301717e-21)
(99.98307898 0.006442327793 -2.400886816e-20)
(99.98496569 -7.417574131e-06 -1.199895408e-20)
(99.96553283 0.02236775067 -5.207036181e-20)
(99.96814652 0.005156468146 1.132339811e-20)
(99.93404011 0.05841478027 1.157723618e-20)
(99.93278411 0.02661690768 -4.40903184e-20)
(99.89708985 0.1227959807 2.664547586e-20)
(99.87572623 0.07306258372 4.799548104e-20)
(99.86249438 0.1301205653 -4.295287636e-20)
(99.9092648 0.1350137748 -7.973220743e-21)
(99.86232292 0.1487335894 -5.87462444e-20)
(99.87278317 0.1730369178 -3.970219476e-21)
(99.85423309 0.2528823065 -7.819538881e-21)
(99.83830849 0.2382140043 -3.89911245e-21)
(99.77758528 0.2894306736 2.731375192e-20)
(99.79699434 0.3203229917 7.715511601e-21)
(99.77529594 0.4379913493 -6.786511294e-21)
(99.74819225 0.4226268985 4.980465712e-21)
(99.65679309 0.5122429468 -3.85617631e-20)
(99.71708748 0.5310279098 2.754039998e-21)
(99.67125231 0.5677157278 -1.685197512e-20)
(99.69706133 0.6799815578 -7.048200498e-21)
(99.67494863 0.6743117027 0)
(99.61842983 0.7458429788 7.254529259e-21)
(99.64530818 0.7583685115 -7.03785646e-21)
(99.58210503 1.060296371 3.468660317e-21)
(99.54817097 1.061183245 1.362694029e-20)
(99.47231429 1.17132108 6.763503732e-21)
(99.51471306 1.178575588 1.695039001e-20)
(99.46794925 1.573477804 2.508509533e-20)
(99.41778703 1.589027872 2.498715716e-20)
(99.32462746 1.753972746 -2.010112155e-19)
(99.38883568 1.743895398 -1.490356901e-19)
(99.40092029 2.220422014 1.684594045e-19)
(99.32876377 2.267941501 3.561330702e-19)
(99.23820165 2.504990682 0)
(99.32457563 2.452457189 2.103116004e-22)
(99.46941954 2.905463306 5.314500283e-19)
(99.37932729 3.017195206 9.783237939e-21)
(99.3229374 3.316808551 -5.732763411e-20)
(99.42081875 3.191696425 1.157697606e-20)
(99.70546685 3.411532891 -2.500486349e-20)
(99.59315997 3.59354872 -2.720995257e-20)
(99.62511732 3.911460833 -1.272813166e-20)
(99.67321476 3.699805781 -4.119740363e-20)
(99.9873152 3.616774429 9.243901249e-21)
(99.95018752 3.863393782 -7.165471246e-22)
(100.0062677 4.136931746 -5.642585486e-20)
(100.0441326 3.862221316 5.38682141e-20)
(100.287356 3.437058751 1.189883365e-19)
(100.2975173 3.713238213 1.161602909e-19)
(100.3879556 3.909750778 -2.139455389e-19)
(100.3683194 3.616931821 -1.484372652e-21)
(100.4783472 2.969591693 1.428606155e-20)
(100.5283727 3.237057064 4.381682319e-20)
(100.6213091 3.35879429 1.385393884e-20)
(100.5621934 3.08453581 1.713519809e-20)
(100.5401688 2.37745539 -5.627484536e-21)
(100.6119267 2.606260283 -1.298558834e-20)
(100.6930989 2.669733821 -4.576177644e-21)
(100.6119576 2.442763455 5.221201735e-21)
(100.574274 1.969056997 -1.670098678e-20)
(100.4976531 1.78618505 -1.129534623e-20)
(100.6375883 1.994724371 -1.131057846e-20)
(100.5565027 1.819258743 6.115792832e-21)
(100.411112 1.219931927 -5.128863716e-20)
(100.5454848 1.485854387 -2.689282355e-20)
(100.6425425 1.481282177 -7.771554993e-20)
(100.4811788 1.239625409 -3.608741227e-20)
(100.3094902 0.8360098451 -5.973196409e-20)
(100.4175319 1.025649182 2.350049119e-20)
(100.4819661 1.004950384 -2.833409438e-20)
(100.356758 0.8420497487 -2.479950397e-20)
(100.274358 0.4720402435 1.051404088e-20)
(100.470184 0.6492134734 -2.563373187e-20)
(100.4338148 0.7808437489 -1.883717562e-22)
(100.3240867 0.6960652426 -1.477748598e-20)
(100.2044168 0.2773144872 1.529274754e-20)
(100.3430911 0.3985873886 2.731641304e-20)
(100.1662508 0.1279833029 -1.956424352e-21)
(100.264232 0.2143855709 -3.959461102e-21)
(100.2281344 0.06757546925 0)
(99.97412691 -0.002087700472 2.409821032e-20)
(99.98695122 -0.007156641168 -4.015649481e-21)
(99.94074275 0.007573568833 2.025253605e-20)
(99.95908976 -0.01572275082 2.813388637e-20)
(99.88100649 0.04154458015 -8.053622386e-21)
(99.90085608 -0.005069855022 -4.007308004e-21)
(99.80210874 0.1246819218 0)
(99.80424704 0.03369024792 6.128843169e-21)
(99.76360995 0.1107647889 1.872503692e-20)
(99.80851812 0.1510345964 -5.489317728e-20)
(99.7511855 0.1398701509 1.4078221e-20)
(99.74994114 0.1857619381 0)
(99.68934511 0.3083311334 3.394848461e-22)
(99.68095409 0.2668330749 -3.127510402e-20)
(99.59177149 0.3069695908 -3.125406438e-20)
(99.59832948 0.371332505 6.349473278e-20)
(99.52066422 0.5616782502 -9.452881328e-20)
(99.50102358 0.5030468465 3.305339028e-20)
(99.3681337 0.5792553424 -6.313915173e-20)
(99.41680586 0.6620412794 -3.138172483e-20)
(99.35479055 0.6741485285 -5.167056352e-20)
(99.33284846 0.8990314936 7.514453884e-21)
(99.31112304 0.8623478637 1.495427471e-20)
(99.22298704 0.9327673068 3.771328835e-20)
(99.24599109 0.9798210695 7.453793473e-21)
(99.06597992 1.452237373 -1.15820732e-19)
(99.02809242 1.408266556 3.945221154e-20)
(98.90529803 1.527513108 -5.748370993e-20)
(98.94913025 1.58351206 -1.121344983e-19)
(98.77986573 2.278797856 0)
(98.71151496 2.236792312 0)
(98.5593429 2.443886187 6.981319005e-19)
(98.6415291 2.495854926 -9.839170775e-20)
(98.5999974 3.408763278 6.78009634e-19)
(98.48823709 3.399658099 5.586635682e-20)
(98.32827996 3.730947328 -6.993897262e-19)
(98.46770812 3.733513636 -6.266684926e-19)
(98.77530487 4.688775351 1.451403278e-19)
(98.55054226 4.754322575 -8.76132959e-19)
(98.53207929 5.21401711 1.139331402e-18)
(98.65803617 5.078938131 1.598923764e-19)
(99.3833707 5.631613484 -1.096296668e-18)
(99.1888211 5.848003946 -7.012412859e-19)
(99.30378701 6.297338102 -6.388545143e-19)
(99.41278581 6.013536952 -6.326240505e-19)
(100.1879341 5.872423155 1.639960857e-19)
(100.1264639 6.194402052 -1.712311487e-21)
(100.3109741 6.521071536 -7.545627029e-20)
(100.3512139 6.146428819 -5.345222481e-20)
(100.8725537 5.40678301 -3.054181595e-19)
(100.9083719 5.754602454 -3.811997899e-19)
(101.1181455 5.931387729 -3.842131396e-19)
(101.0471149 5.560681805 -1.331192414e-20)
(101.2243853 4.541302173 -8.138752145e-19)
(101.3221151 4.864067006 -7.294848447e-19)
(101.499725 4.931011042 -1.798833876e-19)
(101.3710806 4.606371371 -2.851229875e-19)
(101.2900227 3.52058832 4.207813603e-20)
(101.4153907 3.797044855 0)
(101.5456959 3.788959303 -9.023383718e-20)
(101.3996385 3.523996055 2.004027519e-19)
(101.2938833 2.775420885 0)
(101.1692201 2.573350132 4.491958611e-20)
(101.3810031 2.743027022 0)
(101.2435999 2.550327962 0)
(100.925489 1.710049514 2.879830283e-20)
(101.1519266 2.001063403 1.85981719e-20)
(101.2556371 1.895399496 -1.69880193e-20)
(101.0068086 1.649093882 3.613596934e-20)
(100.6904887 1.146015617 -3.326325515e-20)
(100.8689671 1.347734743 -1.485806287e-20)
(100.9312606 1.253845827 -1.501883347e-20)
(100.7422798 1.091146405 -7.1746774e-21)
(100.5231351 0.5706455238 -9.023341463e-21)
(100.7816661 0.7219111001 -1.959555662e-20)
(100.8016696 0.9215025967 -2.566416904e-21)
(100.6564446 0.8820394953 4.733042975e-21)
(100.3896665 0.3322847386 7.881122447e-21)
(100.5678348 0.4374377901 1.201499729e-20)
(100.314929 0.1520857578 -2.002682448e-21)
(100.4341875 0.2320424239 -3.545270118e-21)
(100.3715648 0.07243547976 -5.118962134e-22)
(99.97650358 -0.02102100141 0)
(100.0067958 -0.01944880637 0)
(99.92503149 -0.02928858503 4.03508036e-21)
(99.9669566 -0.05275197463 0)
(99.83241184 -0.0122151104 1.015951283e-20)
(99.88487247 -0.06636178379 -3.531967204e-21)
(99.70116724 0.06294133352 1.802119527e-20)
(99.74755372 -0.05054770955 2.254652436e-20)
(99.66269626 0.03345278567 -6.807703009e-21)
(99.6958353 0.1137812232 2.424665237e-20)
(99.63110203 0.07222702976 1.982262022e-21)
(99.61300762 0.1320515754 -9.65832535e-21)
(99.48971432 0.2830087026 0)
(99.50018627 0.2171859967 -2.026143886e-20)
(99.38681131 0.2347657635 -1.660459568e-20)
(99.36550161 0.3271571691 4.134644533e-21)
(99.20333392 0.5624393253 0)
(99.20612819 0.4696656037 4.134201864e-21)
(99.03309255 0.5109728889 -4.250503803e-21)
(99.04919819 0.6617352311 2.081901368e-20)
(98.98094215 0.6409420374 5.345424675e-21)
(98.86247743 0.9620709794 2.713848384e-19)
(98.85482689 0.8924243766 3.10270152e-20)
(98.73331798 0.9476330112 -6.502706937e-20)
(98.73961691 1.029976909 -8.723680808e-20)
(98.35193646 1.687024652 -2.242087168e-19)
(98.32842115 1.587051135 -2.211714084e-19)
(98.15017392 1.706405421 -2.230826002e-19)
(98.17519724 1.828388706 -1.090288392e-20)
(97.75230829 2.891980162 -1.915140259e-18)
(97.68298338 2.768654085 -1.050808226e-18)
(97.43026463 3.013710754 -1.707569304e-18)
(97.51578123 3.166892802 -1.079830692e-18)
(97.27540773 4.740414529 -1.690279147e-20)
(97.10919697 4.632323889 6.904321423e-19)
(96.8249251 5.072041092 1.600598645e-18)
(97.04413835 5.201047796 6.578212597e-19)
(97.54460136 6.979326647 4.004669451e-20)
(97.25762901 7.02038473 1.178299849e-19)
(97.10483624 7.659281665 -5.978824879e-19)
(97.49527554 7.60609856 8.527948535e-20)
(99.0739268 8.692979205 6.788221361e-20)
(98.68996522 9.005089617 -3.391271936e-19)
(98.99039492 9.671104168 -4.023765452e-19)
(99.24540695 9.238967075 0)
(100.9722051 8.74785552 4.868041068e-20)
(100.8821413 9.239106511 -8.388098722e-20)
(101.320843 9.607381516 3.014800452e-19)
(101.3463105 9.026318881 -1.555283311e-20)
(102.213713 7.561055767 8.695939078e-20)
(102.3370021 8.026474446 5.30436922e-19)
(102.7274049 8.10492348 -1.637925326e-19)
(102.5357833 7.63089354 -1.530278986e-19)
(102.6218132 6.00838328 5.27390291e-22)
(102.8318181 6.382097682 -2.436199503e-20)
(103.1156601 6.324187102 -2.420923992e-20)
(102.8522494 5.967970937 -2.426867457e-20)
(102.5106185 4.505608811 6.866485292e-20)
(102.7338772 4.796961179 1.182199151e-19)
(102.8992267 4.693338076 -3.270217826e-21)
(102.6508327 4.424721807 1.220906277e-19)
(102.3313678 3.377330181 -1.466859279e-20)
(102.1314828 3.158467352 -3.863441973e-21)
(102.4236979 3.260065275 1.070157218e-20)
(102.2103241 3.065786315 2.260769264e-20)
(101.6264912 2.02563213 -9.45861411e-20)
(101.9529396 2.307867352 -6.004786853e-20)
(102.0301535 2.089507752 -3.378861121e-20)
(101.6944803 1.87801364 -1.750882411e-20)
(101.1981997 1.322341105 1.165402363e-20)
(101.4525904 1.512467981 3.506334685e-20)
(101.4857284 1.346527872 -3.952655782e-21)
(101.2354956 1.206236454 -3.848092326e-21)
(100.811932 0.5876633734 2.05438882e-21)
(101.1252994 0.6769044503 0)
(101.2333074 0.9520933096 -1.350824678e-22)
(101.0704375 0.9527046706 -1.053408148e-20)
(100.5992913 0.3344752154 4.53059361e-22)
(100.8066124 0.4031558708 2.054203609e-21)
(100.4793482 0.1508541459 -2.061973427e-21)
(100.6073889 0.207860806 -2.064281866e-21)
(100.5138508 0.06390598697 -2.082884026e-21)
(100.0016291 -0.05097844932 0)
(100.0549061 -0.03689437041 1.971670638e-21)
(99.93206417 -0.08968767997 -8.099658743e-21)
(100.0035612 -0.1058048259 -1.985769921e-21)
(99.80642659 -0.104180996 8.325435822e-21)
(99.89872003 -0.1572311604 -4.049466598e-21)
(99.61405143 -0.04820750611 1.09513637e-20)
(99.72134177 -0.1816102315 2.948033658e-21)
(99.58795233 -0.1036795912 5.989585926e-25)
(99.58534827 0.01317420839 -8.171612931e-21)
(99.53257549 -0.06154279332 -8.202569016e-21)
(99.48592779 0.007948116187 0)
(99.28850436 0.1610675054 -1.660418578e-20)
(99.32823222 0.07779331375 0)
(99.19948701 0.0617884763 -8.660479617e-23)
(99.13739659 0.1729901086 -5.397782883e-23)
(98.86335642 0.4235506616 8.52514683e-21)
(98.90769082 0.3002573005 1.282578845e-20)
(98.70595253 0.2985848217 1.72287841e-20)
(98.6665098 0.4904764136 -1.309889493e-20)
(98.60066583 0.4463832584 -1.383049951e-20)
(98.33884483 0.8296239454 -1.287864058e-19)
(98.36260482 0.7309813321 1.230722636e-19)
(98.20776806 0.7630845286 3.786355532e-19)
(98.17696698 0.8788873366 3.712414134e-19)
(97.49395104 1.647287759 -4.584092585e-19)
(97.51020182 1.49285502 4.898847426e-19)
(97.2673427 1.584463044 -4.827568199e-19)
(97.2415465 1.772803884 -4.661944957e-19)
(96.30522691 3.18463151 1.416411121e-18)
(96.27850939 2.939953416 4.786459833e-19)
(95.88679832 3.160591511 5.744581538e-19)
(95.92169565 3.457216251 2.724513301e-19)
(95.08718956 5.879221972 0)
(94.89048485 5.556421672 4.005539437e-21)
(94.35952081 6.019341968 0)
(94.62434196 6.442571954 -2.113216455e-20)
(95.08930367 9.885326598 2.354770802e-19)
(94.50907166 9.661884926 2.236950503e-19)
(94.04844412 10.61405276 2.213804093e-19)
(94.85789136 10.86314149 1.712288068e-19)
(98.39597688 13.42113948 0)
(97.5927336 13.88415457 -2.095862453e-19)
(98.00755075 15.11179775 -1.972787284e-19)
(98.95319944 14.36634051 7.082381114e-22)
(102.9834433 12.6809723 3.401148764e-19)
(102.856066 13.61011996 2.369316811e-19)
(103.8235713 13.92749544 1.571330308e-19)
(103.766364 12.86327057 -1.128593193e-20)
(104.8866731 9.655366614 -7.290038552e-20)
(105.2189293 10.30843302 0)
(105.8548336 10.11512246 -6.17839958e-19)
(105.3928889 9.498478485 5.962040889e-19)
(104.9274202 7.033646432 8.094783556e-19)
(105.3296496 7.415866911 5.949848285e-19)
(105.6456709 7.16093542 6.976079614e-19)
(105.194077 6.826821881 5.093873213e-19)
(104.2656259 5.035032668 3.373370563e-19)
(104.6249983 5.292932398 7.704393257e-21)
(104.7803975 5.055490181 1.387271743e-18)
(104.4040043 4.841294141 2.194974522e-20)
(103.7032338 3.614982009 0)
(103.4041537 3.417785702 0)
(103.7657163 3.406302259 1.463469985e-19)
(103.4658222 3.241477527 -5.016362809e-20)
(102.4591062 2.076082098 2.73945187e-20)
(102.8946969 2.307807585 -2.795800009e-22)
(102.8987543 1.975843346 1.690282652e-20)
(102.4779727 1.839361856 1.258171411e-20)
(101.7786029 1.318188812 -1.65857079e-20)
(102.1041619 1.459009114 -8.484201787e-21)
(102.0746796 1.229924197 -8.485845482e-21)
(101.7722488 1.144245974 1.303270977e-20)
(101.1030452 0.4990791368 0)
(101.4561 0.504035653 1.385189784e-21)
(101.662833 0.8105504184 -1.146802993e-20)
(101.5086235 0.8890707159 2.83606947e-20)
(100.8001608 0.2744934786 -5.220118308e-22)
(101.0183854 0.2857670962 -1.635273617e-21)
(100.6303991 0.1205270398 -2.095847495e-21)
(100.752583 0.1379244872 -2.382556018e-21)
(100.6275244 0.04104616743 2.651480177e-21)
(100.0606037 -0.09117569281 -1.347140001e-23)
(100.1409259 -0.05885147205 5.834265429e-23)
(99.97490482 -0.1720566196 2.061372805e-21)
(100.0799174 -0.1728258455 -7.078539465e-23)
(99.81989206 -0.233229389 -1.082853828e-20)
(99.95657274 -0.2738498419 1.619465874e-21)
(99.56963142 -0.222118725 -9.85936152e-21)
(99.74684377 -0.3535287429 -1.644909936e-20)
(99.56339094 -0.2977243137 -1.396449253e-20)
(99.51082802 -0.153968008 -7.70537424e-21)
(99.48193856 -0.2600524501 -3.035355024e-21)
(99.4023296 -0.191286991 4.288497264e-23)
(99.12484825 -0.06223013511 1.244210926e-20)
(99.20187104 -0.1533516614 1.262487278e-20)
(99.06911923 -0.2093494845 6.246139451e-21)
(98.95955211 -0.09409519415 2.144053149e-20)
(98.56672426 0.1353863957 -5.679509349e-20)
(98.66517799 -0.00714353294 -5.256013277e-20)
(98.45305101 -0.06383001975 -6.198181934e-20)
(98.33286939 0.1521616237 -4.142793906e-20)
(98.28452363 0.07806625951 -4.166285321e-20)
(97.84548836 0.4756068889 -2.57521366e-19)
(97.91303765 0.3584344609 -6.529475953e-19)
(97.74124042 0.3507456637 -6.976494943e-20)
(97.6621275 0.4837207163 -6.306654956e-19)
(96.60831094 1.227569565 2.47034255e-19)
(96.70291702 1.026528456 2.295508743e-19)
(96.40959894 1.05168547 4.864199666e-19)
(96.28450646 1.288521226 7.467186167e-19)
(94.60070212 2.755942451 -2.741760284e-19)
(94.69798147 2.40689302 -6.735694733e-19)
(94.19877265 2.48815054 -7.206164012e-20)
(94.05505614 2.917713229 1.663876448e-19)
(91.81421674 5.676808922 -3.75875516e-19)
(91.79052342 5.053503613 -5.471525452e-19)
(90.94202317 5.226514531 5.760711182e-19)
(90.93665137 6.050542832 -5.712891826e-19)
(89.02819412 11.91960235 0)
(88.32441355 10.7346402 0)
(86.48962665 12.04462856 0)
(86.74629107 11.25857948 0)
(88.11974821 13.34619424 0)
(87.15859266 13.44586628 0)
(93.35102162 23.1485833 2.356418737e-19)
(94.68841761 22.79667033 0)
(93.79360254 24.91258681 0)
(95.43582156 24.14358581 9.871446424e-20)
(108.0911448 20.1274323 7.254615384e-19)
(108.212383 18.41685878 4.529148371e-19)
(109.8162435 17.96358398 1.184516007e-18)
(108.9485995 20.89811586 -6.233222499e-19)
(110.9216641 19.61851869 6.034465807e-19)
(110.555702 20.40804153 5.046536499e-19)
(110.3616269 11.84650887 5.841785258e-19)
(109.5131494 11.01867388 0)
(111.0286945 11.03612746 -5.079744564e-19)
(110.0513188 10.41325622 0)
(108.1120325 7.065544436 8.291750887e-21)
(108.784038 7.36889207 -3.880790533e-19)
(109.0143004 6.825651265 -4.809356423e-19)
(108.3229115 6.62920001 4.827378e-19)
(106.449255 4.754220054 6.815685475e-21)
(106.9550267 4.898222786 1.386443169e-20)
(107.0117929 4.513625204 -8.941470093e-19)
(106.5137746 4.430703945 6.863106038e-21)
(105.2516762 3.225224548 -3.628179243e-19)
(104.8606439 3.125238208 -1.735879623e-19)
(105.2261171 2.942557702 -1.728694901e-19)
(104.8515569 2.870052413 -1.773188628e-19)
(103.3327235 1.781409113 4.497725165e-21)
(103.8770046 1.897912991 -2.048524204e-20)
(103.7387858 1.486652789 -2.67591656e-21)
(103.2551034 1.466725399 -4.755967609e-21)
(102.3534259 1.07506324 4.729271942e-21)
(102.7289742 1.130594168 -2.317194467e-23)
(102.6121749 0.8593693763 -7.579046197e-21)
(102.2781581 0.8561215658 9.589349488e-21)
(101.3475172 0.2985103348 -1.73346668e-22)
(101.6964276 0.2059816877 -3.14989023e-22)
(102.0373511 0.4930347894 8.327312164e-22)
(101.9090349 0.6139040738 6.938213083e-21)
(100.9554865 0.1493261497 -3.507339159e-21)
(101.158979 0.08688485228 -2.473676001e-22)
(100.7380859 0.05947940993 2.600382759e-21)
(100.8372693 0.02469414815 -2.398027823e-21)
(100.6836132 0.004580007247 4.619672646e-22)
(100.1630526 -0.1396912987 1.418707759e-23)
(100.2727009 -0.08410415646 -2.919749099e-21)
(100.0650931 -0.2722788009 -5.30559478e-22)
(100.2050094 -0.2500257262 1.27375866e-21)
(99.88807843 -0.3919909969 -4.190137567e-21)
(100.0695596 -0.4090044366 -2.760302988e-21)
(99.58866691 -0.4424720694 8.638845203e-21)
(99.83855594 -0.5545076142 -9.509141266e-22)
(99.60980949 -0.5357756064 8.883115818e-22)
(99.49520958 -0.3804584527 4.191889822e-21)
(99.50392814 -0.5090235018 8.71609172e-21)
(99.38930299 -0.4516153969 6.135243587e-21)
(99.0375186 -0.3753919657 -2.104961471e-21)
(99.15619203 -0.460360364 3.234756203e-21)
(99.03293633 -0.5568990091 2.139569803e-21)
(98.87365492 -0.4553590197 6.475859837e-21)
(98.37214544 -0.2934309538 -2.865867773e-21)
(98.53039441 -0.4319911 -1.066401989e-22)
(98.32985298 -0.5465339648 5.101658978e-20)
(98.12543406 -0.3363143854 -1.584828075e-21)
(98.10575138 -0.4358165719 -1.58695231e-21)
(97.50747585 -0.1047074788 -1.017524713e-21)
(97.62229087 -0.21964514 5.021677269e-19)
(97.46030362 -0.2770791877 5.13292836e-19)
(97.32518892 -0.1525470927 1.512488651e-18)
(95.93268128 0.3707261552 -5.653186612e-19)
(96.12293931 0.1691987151 -5.303260135e-19)
(95.82968548 0.1038545321 5.165971362e-19)
(95.59259012 0.3263701061 -2.190061994e-20)
(93.24543208 1.323184211 7.778014559e-20)
(93.53423798 0.9690455522 1.486135991e-19)
(93.0504783 0.8520608492 -3.90831658e-20)
(92.67024508 1.240613601 0)
(88.95990604 2.840012119 -6.855398412e-21)
(89.3929493 2.190046142 -4.591070484e-19)
(88.66712942 1.844497434 -4.488673368e-19)
(88.01271922 2.526031798 -9.387833995e-19)
(81.10167878 5.053596585 5.887373222e-19)
(81.70851781 4.208730301 1.151639588e-18)
(80.90445344 3.565221816 -5.708138966e-19)
(80.00414855 4.439221687 -1.210713786e-18)
(124.8498645 23.3235852 -8.592750153e-19)
(123.0019268 22.26968097 8.220708509e-19)
(125.500725 21.35119398 -9.847316279e-19)
(123.7069519 20.71251403 8.196186427e-19)
(117.6657883 9.91382964 -7.371466094e-19)
(116.0488141 9.524428094 -6.623965795e-19)
(117.6347711 8.388677539 -6.935731511e-19)
(116.1233207 8.337406865 -1.262464171e-18)
(111.6416451 5.339510981 3.36571209e-20)
(112.5414925 5.348267937 -4.539419902e-19)
(112.4337701 4.590791472 1.613855362e-19)
(111.593938 4.707165601 -2.021785618e-19)
(108.6040055 3.377982996 -4.527225205e-19)
(109.2070075 3.326378896 -4.76723503e-19)
(109.0736006 2.861126778 -7.535672552e-19)
(108.5200213 2.976739382 -1.004962484e-18)
(106.6709111 2.088902051 -1.715970975e-19)
(106.2276752 2.123234181 -4.958705965e-19)
(106.5178201 1.764445843 4.215439159e-19)
(106.111623 1.827312644 -4.105554351e-19)
(104.090043 1.095475193 -5.221001164e-21)
(104.6963163 1.045567009 -3.215035678e-21)
(104.3665543 0.6205170902 8.435255874e-21)
(103.8786471 0.7517646418 1.220260162e-21)
(102.8189916 0.5869506051 -2.031062075e-21)
(103.2117846 0.5309352188 1.453061097e-20)
(102.9791739 0.2646683299 5.339079379e-21)
(102.6597055 0.3608636018 1.055501896e-20)
(101.4907608 -0.001495106539 -3.367765605e-22)
(101.799662 -0.1961040312 -1.112058168e-21)
(102.2629514 0.01568018616 -1.133158905e-21)
(102.1983683 0.2007048702 -1.336560971e-21)
(101.0278525 -0.03549465324 1.124470551e-21)
(101.1909346 -0.1763482502 1.388288216e-21)
(100.7725506 -0.02865700615 -4.484143883e-21)
(100.8307634 -0.1224118781 1.712867252e-21)
(100.6565642 -0.04282536801 -2.226060161e-21)
(100.3161266 -0.1934876461 -1.660140611e-21)
(100.4552189 -0.1110071519 9.201961688e-22)
(100.2112161 -0.3837439134 -9.659716432e-22)
(100.3845029 -0.3322973504 -6.815171737e-22)
(100.0221669 -0.5692038545 4.92554927e-22)
(100.2445422 -0.553195931 -2.439299861e-22)
(99.68871055 -0.6943851495 5.621956621e-22)
(100.0056114 -0.7699167019 8.269924019e-22)
(99.74110435 -0.7980960061 4.910399476e-22)
(99.56032387 -0.6475584644 1.443323407e-21)
(99.61448191 -0.7887390189 -1.367579528e-23)
(99.46777278 -0.7517074672 -1.36777404e-23)
(99.05814958 -0.7497757781 -2.132280241e-21)
(99.2162284 -0.8164143598 0)
(99.11453794 -0.949454548 -1.042801233e-21)
(98.91173934 -0.8760624807 -1.101685112e-21)
(98.3302638 -0.8161187523 3.792078039e-20)
(98.54375764 -0.9291805218 -1.664165505e-20)
(98.37529317 -1.094418651 -1.557883633e-20)
(98.09784779 -0.9194765715 -1.625443569e-20)
(98.1129414 -1.033201804 3.440992303e-19)
(97.40748837 -0.8327670152 -5.384223277e-19)
(97.56086166 -0.9242321175 -5.122943531e-19)
(97.42222742 -1.02508654 -5.365653149e-19)
(97.24109728 -0.9302093666 -2.931157291e-20)
(95.67834081 -0.7535870965 4.786487705e-19)
(95.93544179 -0.9073474843 5.457827806e-19)
(95.68470918 -1.045540293 -1.141962808e-20)
(95.37025727 -0.8893261814 6.930462624e-19)
(92.83682971 -0.6196236403 -5.618117861e-19)
(93.24788066 -0.8556098257 -3.457641018e-19)
(92.87846433 -1.091408098 -3.416992814e-19)
(92.39275637 -0.8749773848 -6.924764291e-20)
(88.79657538 -0.906756359 -4.416275434e-19)
(89.42665072 -1.195248541 4.723736515e-19)
(89.04976543 -1.648724743 9.112527926e-19)
(88.33983741 -1.449837229 3.368908619e-19)
(84.03807386 -3.038061366 -1.088551022e-20)
(84.59915037 -3.020154121 1.040440779e-18)
(84.55887699 -3.447432878 1.552991209e-18)
(84.0577671 -3.563143476 5.315199978e-19)
(138.1340513 6.525321923 1.618008803e-18)
(136.438961 7.473493931 -1.127325113e-18)
(136.8480367 5.147742986 1.150723016e-18)
(135.4354452 6.1083995 -3.020244309e-20)
(122.6874686 2.738895834 0)
(121.0304608 3.411128154 0)
(121.55109 1.457017368 -7.490311663e-19)
(120.240034 2.235102743 0)
(114.142585 1.681463803 -8.450891886e-19)
(115.001738 1.252696247 4.181162643e-20)
(114.4372851 0.5729138307 1.352393676e-18)
(113.7142032 1.0506679 -5.675910598e-21)
(110.0755208 0.9494137903 6.932802487e-20)
(110.6300855 0.648993068 -2.173165918e-19)