/*--------------------------------*- C++ -*----------------------------------*\
| =========                 |                                                 |
| \\      /  F ield         | OpenFOAM: The Open Source CFD Toolbox           |
|  \\    /   O peration     | Version:  v1912                                 |
|   \\  /    A nd           | Website:  www.openfoam.com                      |
|    \\/     M anipulation  |                                                 |
\*---------------------------------------------------------------------------*/
FoamFile
{
    version     2.0;
    format      ascii;
    class       volScalarField;
    location    "2.44";
    object      nut;
}
// * * * * * * * * * * * * * * * * * * * * * * * * * * * * * * * * * * * * * //

dimensions      [0 2 -1 0 0 0 0];


internalField   nonuniform List<scalar> 
12556
(
1.155884477
1.155853306
1.155822751
1.155800307
1.156028362
1.156026908
1.156045003
1.156088712
1.156170896
1.1563082
1.156467924
1.150264783
1.069075114
1.097315501
1.156578262
1.156407126
1.156252827
1.156152493
1.156078002
1.156050611
1.15582823
1.155840229
1.155863017
1.155888755
1.155127007
1.155040323
1.154957122
1.154899357
1.155120389
1.15515457
1.155268364
1.15555376
1.155949729
1.15660509
1.157537418
1.065000989
0.9827876438
0.992976636
1.093178971
1.157291549
1.156485146
1.155903585
1.155453281
1.155258627
1.154960102
1.154999503
1.155071794
1.155152372
1.154337149
1.154187786
1.154055848
1.153990771
1.154240459
1.154364052
1.154647527
1.155234641
1.15622036
1.157804169
0.9506866249
0.8199270084
0.7679915907
0.7845105364
0.8700723813
1.03160057
1.157361661
1.156039795
1.155055132
1.154588286
1.154169936
1.15417073
1.154269198
1.154400056
1.153525101
1.153330527
1.153172123
1.153119339
1.153416802
1.15371148
1.154396115
1.155488319
1.156647245
0.8614946156
0.6722656742
0.5657625633
0.5232016029
0.5408660784
0.6173641015
0.7548636874
0.9741170296
1.156963127
1.155094725
1.154148797
1.153416047
1.153376218
1.15348116
1.153653975
1.152691518
1.152446887
1.152276427
1.152287742
1.152697187
1.153272887
1.15457738
1.156579327
0.8822199939
0.6249078622
0.4579067643
0.3545013874
0.3118725125
0.332551605
0.4081702605
0.5339626413
0.7246629547
1.01556662
1.155794021
1.154032681
1.152842486
1.152618532
1.152687679
1.152883629
1.151856325
1.151584942
1.151431597
1.151517888
1.152126628
1.153130695
1.155407192
1.040208406
0.6977919672
0.4712757738
0.3093759142
0.199801513
0.1559493658
0.1825899814
0.259348031
0.3771875931
0.5495385863
0.8041811797
1.157266235
1.154312572
1.152416066
1.151910619
1.151903902
1.152104988
1.151004938
1.150717661
1.150608554
1.150875098
1.15174743
1.153343217
1.15686579
0.8894188836
0.5895694165
0.3802734094
0.2211142511
0.1011720477
0.05723721049
0.09037842346
0.1679855972
0.277595231
0.4341010066
0.6564919522
1.016738055
1.1550597
1.152136041
1.151256222
1.151112895
1.151290556
1.150213057
1.149925791
1.149894127
1.150404878
1.151494356
1.153949079
1.12032091
0.8063411595
0.5427607198
0.3526602302
0.2035529231
0.08381908415
0.05178625007
0.1269725553
0.2252966205
0.3671595965
0.5707142927
0.9008611731
1.156192841
1.152055818
1.150689863
1.150348169
1.150483422
1.14946819
1.149197186
1.149279766
1.150077052
1.151508046
1.15492299
1.054474643
0.7674112137
0.5430823282
0.380578264
0.2633145891
0.1885183242
0.06324103541
0.1241469848
0.2098329575
0.3379994856
0.5242477721
0.830658012
1.157585533
1.152179603
1.150239361
1.149651388
1.149714769
1.148858409
1.14862065
1.148842083
1.149970585
1.151829815
1.156190956
1.020076499
0.766574242
0.569798225
0.4350723987
0.354820814
0.3570782264
0.08892713884
0.1412322874
0.2192059598
0.3396180899
0.5154856726
0.7959022769
1.144148344
1.152537683
1.149974801
1.149097048
1.149078748
1.148373395
1.148184904
1.148585275
1.150113299
1.15242655
1.157751968
1.006871519
0.7807691853
0.6073058521
0.4911374713
0.4338279667
0.4945397127
0.1213223672
0.1711969937
0.2470789751
0.3613781736
0.5252852901
0.7909919615
1.104556456
1.153108146
1.149917945
1.148748047
1.148627029
1.148083522
1.147950757
1.148525117
1.150446361
1.153248264
1.159358656
1.009514339
0.8063279396
0.6473486983
0.53643017
0.4722688942
0.4534214011
0.1588059665
0.2136205086
0.2925461239
0.4071541531
0.5629595324
0.8124377096
1.096200848
1.153914242
1.150105011
1.148636519
1.148422634
1.147923017
1.147861386
1.148679869
1.151052444
1.154205048
1.16093467
1.02327631
0.8479376296
0.6933032652
0.5783041704
0.4878434103
0.4081742998
0.05351599143
0.2076443819
0.2773719954
0.3633516246
0.475589726
0.6294348192
0.8565194405
1.109310799
1.154826325
1.150509715
1.148780161
1.148472506
1.147953467
1.147963781
1.148999354
1.151746274
1.155499695
1.162745102
1.08088108
0.8985597194
0.7580556979
0.6374169853
0.5282945365
0.2773499053
0.1073452375
0.3095412872
0.3900776762
0.4710698844
0.5759991832
0.7159507044
0.9187287018
1.144855878
1.155808443
1.151089772
1.149128608
1.148755189
1.148049703
1.148125084
1.149367548
1.152493928
1.156677949
1.16423662
1.153392243
0.9844692984
0.8535159318
0.7416015388
0.633378012
0.0929697173
0.1520700136
0.413020491
0.5934586979
0.6336972152
0.7118682567
0.8363794923
1.016365678
1.166128999
1.156780052
1.15176567
1.149633939
1.149199179
1.148275497
1.14841372
1.149837816
1.153291832
1.157817234
1.165491895
1.167814126
1.116070847
1.001319396
0.9198340796
0.7725088058
0.04497486905
0.1777322123
0.451085101
0.7498262422
0.8605517084
0.8941144735
0.9907765373
1.154671388
1.167268187
1.157679987
1.152470121
1.150230747
1.149774405
1.148473906
1.148658184
1.150237269
1.154005616
1.158847321
1.166429578
1.167930736
1.153509162
1.106071547
0.9836266342
0.5309418201
0.02730657466
0.2391498236
0.5151055264
0.8012264963
1.004494737
1.108128086
1.153139868
1.170116481
1.168156895
1.158449143
1.153136702
1.150831345
1.15033952
1.14874099
1.14896517
1.150665773
1.154669808
1.159711741
1.16707799
1.167452865
1.15074604
1.088146422
0.8839249796
0.2219275622
0.0416930196
0.3110796491
0.5886567485
0.8462703278
1.018901478
1.112161894
1.155392797
1.171108808
1.168732128
1.159057701
1.153730608
1.151421966
1.150926795
1.148912374
1.149158551
1.150949147
1.155162891
1.160377575
1.167361892
1.166431108
1.147111641
1.074149204
0.7747475171
0.09970257766
0.09319029988
0.3675546662
0.636220801
0.8660312868
1.024644454
1.114947693
1.156790746
1.171639551
1.169032812
1.159474261
1.154183868
1.151902085
1.151412697
1.149130492
1.149398386
1.151249628
1.155581005
1.160829216
1.167317569
1.164943659
1.142692498
1.057947704
0.6892717888
0.07979224235
0.1239649177
0.3869398746
0.6465530191
0.874204628
1.029046256
1.116876157
1.157577092
1.171810539
1.169102259
1.159777734
1.154578827
1.152337601
1.151851106
1.149216251
1.149496302
1.151386698
1.155813209
1.161079742
1.166977714
1.163012206
1.137547156
1.038672012
0.6096111844
0.06850452298
0.1453388728
0.3992350433
0.6544251794
0.8802922855
1.03243539
1.118198571
1.157936259
1.171710852
1.168991863
1.159915583
1.154818265
1.152620461
1.152135296
1.149355338
1.149657362
1.151575583
1.156015718
1.161153797
1.166382801
1.160721192
1.131704933
1.014979553
0.5465604139
0.06126881306
0.1628436684
0.409914432
0.6611783447
0.8844489672
1.03490918
1.119064063
1.157999752
1.171413139
1.168748432
1.159992727
1.155024128
1.152865082
1.152372533
1.149339239
1.149660894
1.151602268
1.156061181
1.161091262
1.165584774
1.158120549
1.125103541
0.9846832632
0.4972562297
0.05715957846
0.1771735034
0.4192922852
0.6670116427
0.887187826
1.036505248
1.119542518
1.157845042
1.17097222
1.168407649
1.159931663
1.155076231
1.15294956
1.152448003
1.149397324
1.149752832
1.151720768
1.156139381
1.160924282
1.164634031
1.155279722
1.117508643
0.9488461266
0.4572161631
0.05493056026
0.1892579924
0.4275822082
0.6720384035
0.8890473354
1.037352662
1.119666305
1.157503172
1.170418483
1.167991249
1.159855193
1.155133336
1.153032789
1.152514878
1.149281674
1.149669155
1.151665952
1.156074028
1.160688149
1.163586163
1.152243974
1.108587538
0.91193987
0.4240757014
0.05373937375
0.1996888698
0.4350256014
0.6764851175
0.8904358916
1.037647239
1.119455963
1.156973215
1.169760602
1.167509786
1.159648298
1.155035715
1.15295591
1.152421988
1.149271264
1.149705441
1.151741492
1.15609361
1.160403988
1.162483409
1.148987613
1.098090221
0.87668058
0.3963067982
0.05331593205
0.2088876919
0.4420107409
0.6806827848
0.8916337036
1.037547342
1.118919347
1.156237895
1.168996065
1.166966585
1.159462523
1.154983923
1.15292126
1.152365919
1.149074193
1.149550541
1.151627309
1.155966779
1.16010154
1.161366278
1.145524646
1.086054256
0.8440352763
0.3729642684
0.0535249239
0.2173735856
0.4488225831
0.6848574408
0.8927656261
1.03713034
1.118051617
1.155278569
1.168120515
1.166362828
1.159139775
1.154769801
1.152722876
1.152149202
1.149020821
1.149555505
1.151690157
1.155983598
1.159796003
1.160261697
1.141785841
1.072804205
0.8142979948
0.3533559843
0.05418565711
0.2253862546
0.455558705
0.6890498994
0.8938181257
1.036404748
1.116842103
1.154084358
1.167132955
1.165699869
1.158872899
1.154640151
1.15260789
1.152012342
1.148779282
1.149363788
1.15155213
1.155844486
1.159513708
1.159170777
1.13767813
1.058692786
0.7871237903
0.3366524474
0.05493963214
0.2330215473
0.4622097488
0.6932044474
0.8947141519
1.035349895
1.115289371
1.152659376
1.166039791
1.164981631
1.158457523
1.154339207
1.152323942
1.151711553
1.148714362
1.149368833
1.151637631
1.155911708
1.159256688
1.158072899
1.133099281
1.043983037
0.7620522126
0.3221209445
0.05594497668
0.2403809329
0.4687986361
0.6972711145
0.8953861599
1.033956381
1.113414976
1.151026768
1.164855854
1.164216113
1.158129567
1.154149061
1.152149356
1.151516572
1.148481548
1.149190982
1.151524821
1.155809022
1.159044185
1.156943123
1.127988124
1.028855113
0.7387216308
0.3092802077
0.05729080009
0.2477103012
0.4754402758
0.7012064092
0.8957637957
1.032215424
1.111253672
1.14922321
1.163601463
1.163412131
1.157653878
1.153796591
1.151816322
1.151169073
1.148425217
1.149216679
1.151654936
1.155960032
1.158869843
1.155771128
1.122361907
1.013398873
0.7164549344
0.2971453025
0.059064035
0.2552684354
0.4820622355
0.7047568799
0.8956309889
1.030050463
1.108824642
1.147285578
1.16229774
1.162582736
1.157271039
1.153544292
1.15158106
1.150914795
1.148266079
1.149113665
1.151623781
1.155941911
1.158753022
1.15457943
1.116449393
0.9980280274
0.6952334533
0.285518933
0.06136351551
0.2627488371
0.4880271726
0.7072546936
0.8945708431
1.027323426
1.106134093
1.145245894
1.160963737
1.161733244
1.156795324
1.153198614
1.151254648
1.150576901
1.148209404
1.14915112
1.151787622
1.156165216
1.158682221
1.153423154
1.110716213
0.9839630764
0.6773019533
0.2772404664
0.06410813688
0.2688976543
0.492144898
0.7078938808
0.892241876
1.023979202
1.103215056
1.143136377
1.159617668
1.160881537
1.1563181
1.152849593
1.150926983
1.150231184
1.148186298
1.149180747
1.15188938
1.156288675
1.158673525
1.152356493
1.105626175
0.972523413
0.6651648817
0.2729504538
0.06709794558
0.2724894381
0.4936387759
0.706458781
0.8887298744
1.020143495
1.100138663
1.140985999
1.158286342
1.160033742
1.155965157
1.152599938
1.150692714
1.149988923
1.148224404
1.149343393
1.152223113
1.156706317
1.158725821
1.151421632
1.101438238
0.9639913874
0.6584979282
0.2743563146
0.07015991986
0.2737535715
0.4929891511
0.7035768894
0.8845055986
1.016048576
1.096984849
1.138815697
1.157047922
1.159266075
1.155311346
1.1521211
1.150247035
1.149524809
0.1676736821
0.05641434057
0.04471588103
0.3395174172
0.08166828643
0.0593973126
0.4801773786
0.1147148175
0.08555239621
0.4601452636
0.1456067
0.1196051445
0.4125272381
0.04012680399
0.05019170203
0.18271124
0.149588292
0.3214868656
0.0785350884
0.04120958438
0.1018750208
0.2502577326
0.1859570759
0.08143807411
0.0575185759
0.04617273898
0.08583926271
0.02874778412
0.01927893282
0.06070118255
0.1051909977
0.1073400186
0.3317138195
0.3297137927
0.1936943785
0.02988377004
0.04435522055
0.08550232683
0.1211301493
0.1076403304
0.4170640751
0.4597694524
0.3462945412
0.4071444427
0.203793698
0.2309771824
0.05208066176
0.03712414174
0.1171659741
0.1492210182
0.1271730633
0.4668411068
0.4992894081
0.4732659761
0.4920842213
0.1312867011
0.1711161229
0.09672621581
0.07102352965
0.4809744779
0.450608931
0.4957721792
0.4422513622
0.07710143555
0.1019502722
0.01721882762
0.1367916642
0.130595904
0.5146882526
0.3938776514
0.4432724312
0.376717958
0.03009895772
0.04959887079
0.2728152555
0.1088633448
0.0803878498
0.06689568359
0.1572850244
0.03193741552
0.06082244444
0.04554269965
0.0299849919
0.04826450299
0.03182429274
0.04811561102
0.2347140845
0.2619921424
0.2791025303
0.2036829336
0.1879003925
0.1797651246
0.2068050607
0.03675557544
0.02972112941
0.07097971622
0.0439557888
0.04977567888
0.04942988877
0.04418283768
0.06946495348
0.1739526808
0.1997966026
0.4256256578
0.155418656
0.1305631271
0.1860518421
0.157489059
0.06761924189
0.05336106294
0.1021758013
0.07318611648
0.09388330629
0.05026745506
0.0704865442
0.09780613056
0.1033588953
0.1296210619
0.4844811584
0.1039561663
0.07873145596
0.1291365846
0.1053122356
0.1266658893
0.1007348521
0.05056160011
0.07534782821
0.4405701364
0.01299074213
0.0528573178
0.03176571044
0.0776777493
0.05440853984
0.01205312417
0.1435613664
0.1387057257
0.01945322485
0.004707157655
0.02979378738
0.3720154551
0.06367742216
0.01871796702
0.01106836353
0.031417048
0.01904902849
0.06105599518
0.2430328656
0.1749059194
0.09748454421
0.1049585223
0.06602419918
0.0374964287
0.01724606362
0.008371238953
0.2570126599
0.2654559485
0.1727951472
0.009399770901
0.1517840445
0.1866179562
0.1576839658
0.01121235488
0.05612838656
0.04867711088
0.0763157031
0.1604337492
0.147463652
0.1561907906
0.07361120922
0.1175474815
0.04144133251
0.0131279614
0.02282261305
0.02209670949
0.03013660951
0.04669886411
0.04716635867
0.03396957952
0.1342048984
0.1236921608
0.1333271433
0.09720453122
0.120295826
0.1310108698
0.0278300223
0.01272588998
0.04836455455
0.02278172037
0.03876363211
0.03112572665
0.01946233983
0.02992965961
0.02166423576
0.01579695882
0.02291993004
0.02005093013
0.009964976311
0.01653725221
0.02169829441
0.03811647808
0.03875154798
0.04465154081
0.04359954373
0.01747733265
0.009993764375
0.0852280253
0.01470649281
0.02671267899
0.009399152913
0.01270375232
0.08145132324
0.09117527769
0.2547483918
0.2420619819
0.07155244871
0.06009578844
0.01093291151
0.04471654504
0.1868198815
0.174392143
0.2039722661
0.1918526279
0.04506701814
0.05018060181
0.04179656349
0.09830889173
0.06581837445
0.05825723183
0.03988429721
0.06532766934
0.1108515108
0.03877842555
0.02370598685
0.01497146063
0.05334408009
0.02645068255
0.04285654298
0.0254017992
0.05963561082
0.03947845706
0.03868481361
0.2003737835
0.03100224295
0.1996820763
0.2229591322
0.03470374564
0.03885645367
0.03141838709
0.03420799969
0.2189111423
0.03520729748
0.03493279163
0.04732370744
0.06861970948
0.06393490556
0.07504659695
0.07029615752
0.04760132396
0.05278947887
0.05612601395
0.05095964911
0.06227868704
0.05756615795
0.05181274932
0.143246504
0.1416389839
0.1729513398
0.1711705363
0.06387750468
0.009244322983
0.06260870448
0.09460639302
0.09280222029
0.1166666284
0.1150594158
0.02839634831
0.0416566802
0.1122430805
0.03170232416
0.01879610936
0.06644369781
0.2209846672
0.2083857236
0.2377816853
0.2251628314
0.06774127374
0.02525935612
0.04842116209
0.04742164293
0.07067127822
0.06982710828
0.007418894014
0.0334502105
0.08759835147
0.07562202224
0.1695317059
0.1604532664
0.02389419306
0.01201322778
0.01944895628
0.01382951693
0.02997884141
0.01241062366
0.01343861716
0.01280343372
0.03001429251
0.05174228345
0.01285345263
0.01643896861
0.003561099625
0.0181919806
0.01392773901
0.5951490107
0.3712525384
0.3835495626
0.2507156521
0.00864520885
0.005315425765
0.1466170853
0.3401113377
0.2817769429
0.005840407832
0.01255136719
0.01073934118
0.1035438728
0.0919364811
0.03580506194
0.1996080377
0.1669769124
0.07946132489
0.009448152621
0.01602036644
0.01282837312
0.00854627909
0.01258920708
0.008882854787
0.0322959489
0.01371109041
0.0128440504
0.04149247287
0.04846723863
0.01397870083
0.01921958601
0.00930206645
0.00938436768
0.03882123491
0.1454626368
0.3199331016
0.3077719879
0.3360897989
0.3239786729
0.1487168082
0.2712092333
0.2587525091
0.09245451088
0.03310296052
0.09533582578
0.0901736941
0.01190704249
0.0168482701
0.08707342203
0.04600907586
0.01557772721
0.01382573634
0.03779309429
0.04275504977
0.03843651663
0.04931835798
0.04429383829
0.03938233773
0.03596488799
0.009541891882
0.009340849892
0.03103985212
0.1849927305
0.3520166412
0.3400628968
0.05944934068
0.06138391365
0.1352923075
0.02039551937
0.02226295132
0.05698169476
0.08146919706
0.1023847265
0.09469717587
0.05644599737
0.08267903807
0.07697858131
0.09190246586
0.08491857091
0.05757243409
0.1166226876
0.2875333025
0.2752612518
0.3037299125
0.2916087896
0.1184134231
0.1000328109
0.03665363943
0.03737492405
0.02123541995
0.02205709671
0.08306510222
0.1240120924
0.05530800182
0.05904686928
0.03767652398
0.0383518161
0.1093806116
0.1161645342
0.04389908893
0.05993418927
0.008016116485
0.01705549281
0.05055760065
0.03873967702
0.07463928603
0.02062207435
0.02109609594
0.02022448724
0.06353856261
0.01133078249
0.004380523772
0.1234471684
0.1065503938
0.08841228267
0.08422865409
0.02944133487
0.01754306532
0.02918738077
0.07189065013
0.01848053436
0.01180970326
0.01821331043
0.02244457006
0.00283117975
0.03094715788
0.02008785167
0.01210308109
0.006314481581
0.01169246523
0.009416695698
0.009242521598
0.02663850536
0.0204179597
0.007265790507
0.03840992822
0.0400647537
0.01523929137
0.01109500633
0.007179831554
0.01167751669
0.01659759015
0.01057643185
0.01294657844
0.0397161362
0.01035850887
0.01025410028
0.01174569778
0.01264244336
0.0331452125
0.01196012287
0.01186685149
0.01288758607
0.01182084101
0.01241735442
0.01731252117
0.01369855446
0.02429760012
0.01911593311
0.01243576958
0.01550909035
0.02180317698
0.01819980469
0.02839038899
0.02306226376
0.01777881437
0.0159291077
0.01242287533
0.01178534854
0.009181206665
0.03419191226
0.04081590006
0.01260352267
0.01189528997
0.01312514393
0.01359777295
0.04725404099
0.009034315967
0.009072937089
0.01121108283
0.009182164292
0.009081741568
0.03994644141
0.00913206906
0.01289720163
0.01239765275
0.01132285957
0.01940934888
0.05020834407
0.04533909944
0.01053311559
0.0368505645
0.03146655433
0.04357341369
0.03884219766
0.0108808524
0.01146800144
0.03466846062
0.02902042715
0.1036224548
0.09717393475
0.03689073513
0.04720816643
0.1107254389
0.1053803479
0.04511933209
0.04423917088
0.06798918439
0.08000502848
0.09786649085
0.06010091974
0.0750205194
0.06892460259
0.0601105283
0.1395194824
0.1280475046
0.1064998073
0.1430385993
0.06002716394
0.03930630636
0.04416219929
0.05493859089
0.03381203217
0.03790516509
0.02194405938
0.02078018523
0.04459403619
0.01492570425
0.01503102941
0.01175624265
0.02195194393
0.02603227886
0.01563692628
0.02214783376
0.03447399982
0.03024165888
0.02303999317
0.02918301179
0.09481603574
0.08300687113
0.1012502017
0.09728508747
0.03030972704
0.07459210779
0.07237078996
0.07964119452
0.07539845623
0.03621994187
0.1178965628
0.1133608259
0.125267021
0.1195106286
0.03680874325
0.03253562148
0.1064365798
0.1026170644
0.1119123831
0.1077660069
0.03288289229
0.009912232627
0.009651696416
0.03574423983
0.03236305236
0.009674622004
0.01001562247
0.04305074078
0.04228320785
0.04521664058
0.04331471032
0.04087304636
0.03982920806
0.04202926422
0.0411430452
0.06899618503
0.06703863681
0.07168055125
0.06967854182
0.06159009271
0.04791141922
0.06622100415
0.06413550133
0.02308342301
0.01960836784
0.02991018644
0.0249718767
0.006637361232
0.0125444986
0.0117374864
0.01831555515
0.01286860605
0.03569913757
0.03630058614
0.09869264467
0.02123806647
0.02102830376
0.02188824703
0.02142143429
0.02037430406
0.08538270204
0.02269856998
0.03355656687
0.04048890182
0.05345421271
0.1222291918
0.03706829453
0.02400889315
0.03969183753
0.03675164961
0.0226568859
0.02212228609
0.02357438412
0.02287751639
0.1107599603
0.03858139346
0.03946654014
0.006798332591
0.02632647828
0.01005940054
0.01022966992
0.01001694119
0.02451438962
0.008367817691
0.01907672146
0.01156828547
0.0118590492
0.04991399153
0.04355670397
0.02003093551
0.02051690414
0.07370535952
0.06569809091
0.01915383621
0.01996900302
0.0112614865
0.02835035316
0.08166287196
0.07341625663
0.01331966609
0.01268365846
0.01769796622
0.01220608141
0.01362507268
0.01579807961
0.03083646761
0.00887248508
0.01318196967
0.01207408204
0.01309573571
0.02091850512
0.05316684179
0.1126631616
0.1458186626
0.01080647147
0.01053807358
0.189524129
0.2408949816
0.1980185094
0.007144418576
0.0349270305
0.01341704137
0.01697748676
0.1376010212
0.143492614
0.1610065781
0.004792508049
0.007374553564
0.005434456987
0.004882187991
0.005761386645
0.004507472515
0.0567515323
0.03541987134
0.0223672625
0.02557317303
0.023187139
0.0272270582
0.2156765697
0.3830304242
0.3715187452
0.3757838598
0.3869314176
0.2195210812
0.04206867034
0.03661633743
0.01227450923
0.0637793126
0.07533615824
0.1350602725
0.117829353
0.1124230195
0.04769168093
0.02842140154
0.03134261727
0.03296333123
0.3676690019
0.3559367491
0.188544511
0.1499378928
0.0670031853
0.07077043872
0.07380450164
0.08444394982
0.1637192929
0.05811769521
0.1259188686
0.1197080442
0.01130500007
0.01124515242
0.01402161108
0.01985320432
0.02014647758
0.03260571462
0.01142792852
0.0115474223
0.01127669643
0.02585154601
0.05067355602
0.04362854611
0.01866691006
0.0312080109
0.01941406406
0.01958819831
0.01907091737
0.01539959058
0.009595160433
0.01137562539
0.01092270299
0.01115709091
0.0223583026
0.02773185529
0.05597215319
0.040287518
0.03707825015
0.03385999811
0.02498433404
0.04164531098
0.01461296455
0.02023980862
0.0121646491
0.008738111282
0.008866824085
0.01241424568
0.01228918765
0.02303814258
0.0146150489
0.01005592551
0.01843955672
0.01963410446
0.01803268836
0.01467882205
0.01816843169
0.01598410133
0.01041570565
0.01096201451
0.006537979679
0.009537659629
0.01043613977
0.05687300223
0.05177247677
0.02109718035
0.009275998603
0.01293245313
0.01187247645
0.01106933739
0.01377742839
0.01238805491
0.04808649093
0.03713344657
0.04260638527
0.06662516259
0.09404052371
0.09262777312
0.04144512497
0.0671060063
0.06345605008
0.0915920114
0.08978838559
0.0639218936
0.03327009024
0.04005345896
0.0356109023
0.02727767503
0.02789741713
0.02300026101
0.04698570074
0.04560515313
0.05049204134
0.02346943901
0.03377567737
0.03214047616
0.05209747044
0.051722345
0.03074830626
0.02848360737
0.02807179618
0.03110396667
0.03040010796
0.03523852058
0.05817973452
0.05756471826
0.06182334477
0.06105261519
0.03809746106
0.03174939006
0.05332595594
0.05280919177
0.05693228631
0.05631002192
0.03375031952
0.06440907957
0.0663050059
0.1482177474
0.1368071574
0.06196480337
0.0638071819
0.09126847144
0.09442257423
0.1785466621
0.02648080433
0.02633729322
0.02783462972
0.02761673569
0.02021316112
0.02606889509
0.02596452823
0.1656032464
0.08664796888
0.09009223283
0.009160299135
0.009154609136
0.01149602026
0.01107083886
0.009233529477
0.009034970203
0.006829351977
0.05822678112
0.02316345037
0.02846823431
0.1339502584
0.1279893109
0.06129451134
0.07065392607
0.1410732862
0.1357258709
0.03192803102
0.03198866874
0.04877218678
0.04710781054
0.03153371522
0.03149027834
0.01106738977
0.02261914716
0.03590735201
0.03537335071
0.008690847161
0.01441520206
0.01724858132
0.0137502006
0.01318224208
0.01849529915
0.01873798581
0.03043001575
0.01253956848
0.009146390515
0.0124115441
0.01269610741
0.02845272876
0.01799530305
0.01857949561
0.01349549577
0.03180248671
0.02661258127
0.01094846239
0.01092558497
0.01072142497
0.01094983591
0.01517734317
0.006424824611
0.004129493178
0.007663844525
0.01149934428
0.01054201679
0.01071131895
0.0104780656
0.0106405155
0.01080380961
0.01013760862
0.006697658977
0.005273645342
0.0117574428
0.01210186117
0.01139240795
0.01148397876
0.01331995229
0.02046165773
0.0207429667
0.02005136786
0.02028557109
0.01319463464
0.009239620978
0.01544799305
0.01543415028
0.0159487965
0.0155581341
0.009125484099
0.01477307975
0.0230425337
0.02563467585
0.02103326149
0.02171661667
0.01431173239
0.009508848082
0.01546900833
0.0154768264
0.01540505376
0.01545316825
0.009420129042
0.01102321861
0.01121380577
0.01064068281
0.01117228233
0.03681468564
0.05576554503
0.055303099
0.02147487665
0.0356049919
0.03535378659
0.03691346013
0.03596475532
0.02167937124
0.01176050616
0.0113147129
0.01151227802
0.01184048325
0.02012592329
0.01993074171
0.02056094417
0.02033978097
0.01569263487
0.03466870029
0.02073903955
0.02165366119
0.02079865169
0.03486539316
0.03464491257
0.03519747998
0.03501403056
0.02092363009
0.02145579738
0.0208627704
0.0312735697
0.0224077039
0.01611037688
0.007818249909
0.01132832104
0.01115979505
0.007720754324
0.04217764725
0.02930140924
0.0029898419
0.02944377916
0.04496946799
0.04462481586
0.01844967938
0.01176423253
0.00864315467
0.003542122833
0.01327758033
0.01353713543
0.01917601982
0.01934223568
0.03113730969
0.01949550706
0.01084723543
0.0111598808
0.01500756057
0.004430322529
0.009147068721
0.007039834631
0.006446524938
0.007310373916
0.009445898491
0.006520319443
0.01088912064
0.01084159534
0.01074994142
0.04003713118
0.03094070778
0.008312848802
0.010378063
0.01153889738
0.01880253196
0.02111078252
0.0122515484
0.01516045451
0.01502640149
0.01048065173
0.006923276099
0.0104314672
0.01191338435
0.00832079272
0.01185578742
0.01211501418
0.01221219939
0.01229082859
0.012058252
0.01224793016
0.01216692936
0.0120258619
0.01236735844
0.0123876184
0.01232633439
0.01258254807
0.01277112014
0.01257889631
0.01920315413
0.02043470691
0.01938441566
0.02673568764
0.02372064667
0.01845116315
0.01730572597
0.01861252568
0.01127276688
0.01805649411
0.01913008294
0.01299442728
0.01803138097
0.01212712724
0.01236218083
0.01964837712
0.01986122557
0.01919734257
0.01949615622
0.0121858873
0.01328989612
0.02310330033
0.02269590629
0.009077891908
0.009068867452
0.009985214011
0.007454088653
0.008970744047
0.009000792868
0.008988925624
0.008746480622
0.01059027392
0.01911387971
0.01707501747
0.02207248553
0.02093655256
0.01211905029
0.009577253562
0.01013155215
0.01408473295
0.006580182633
0.009815032339
0.009772017938
0.01105960005
0.009575943086
0.009759397431
0.01688251466
0.01500360935
0.009762258731
0.04633254035
0.04320665862
0.08261004607
0.0740154554
0.04340853658
0.06365086546
0.08890765591
0.08537777104
0.03546769398
0.03262908731
0.03067604914
0.02315200087
0.03007371528
0.04364870049
0.04435214337
0.03867640713
0.02187313818
0.03141750889
0.03189020425
0.02854693086
0.02952810486
0.0205976353
0.01414206747
0.01521462658
0.02343778611
0.01662396479
0.01576956927
0.01777911606
0.0168331497
0.02378406181
0.01608345262
0.01679574652
0.0132098475
0.0172352832
0.0476726712
0.04786516813
0.03061607993
0.03028558175
0.05074189708
0.05073229981
0.02917337945
0.02878072133
0.02994484102
0.02952307758
0.05930913077
0.05871980072
0.03564148932
0.03743659118
0.06046155312
0.0598900836
0.05452897325
0.05397824788
0.03218878025
0.03327187588
0.05567521001
0.05509824915
0.009804844033
0.01555490422
0.01558684312
0.01552152649
0.01555509698
0.009757167406
0.01005657829
0.01448670617
0.01260682451
0.0155151478
0.01525535506
0.01005143244
0.04278268614
0.02520186103
0.02546889972
0.02478425256
0.02498735583
0.04253870556
0.04410719317
0.02639924703
0.02687684405
0.02573110463
0.02603818388
0.04363226058
0.04049425253
0.0235776936
0.02381503681
0.02321409978
0.02344215347
0.04026384879
0.04175157829
0.02439557399
0.02458348696
0.02397764446
0.02420960585
0.04148042731
0.02691589077
0.02673351269
0.06835236277
0.04587892865
0.04619721604
0.04518517281
0.04546261924
0.06763646824
0.02735851563
0.02715464628
0.0248369157
0.02608206711
0.05953669465
0.04148016226
0.04117823443
0.02776695717
0.02916195921
0.05318110307
0.06574308237
0.04448992867
0.04468719976
0.04377774406
0.04372832041
0.06451653615
0.02563908274
0.02568469193
0.009135637676
0.009296459662
0.009073584241
0.01063213524
0.009750892657
0.01219436782
0.009116442078
0.009103052516
0.009036824057
0.009076609344
0.01210302055
0.01639015223
0.009792089462
0.01083448438
0.009224658534
0.009048476747
0.01417628631
0.03562389262
0.05324280106
0.05293931031
0.05462278715
0.05426702806
0.03620330402
0.02119442489
0.02095754827
0.0217657219
0.02149468982
0.02147075532
0.01684612458
0.02385946587
0.04376962321
0.03920134783
0.05080117332
0.04902692027
0.03382062184
0.02606487308
0.01813630364
0.023310053
0.02477542636
0.03902179095
0.02286508814
0.02315044644
0.02219144887
0.02291874175
0.03908811668
0.02249317482
0.0222688294
0.02331085414
0.02306815902
0.01022081083
0.0111775613
0.01092377577
0.01359179146
0.01203276545
0.0102240159
0.009818553971
0.009985676155
0.01048314121
0.0102690062
0.006672647546
0.01197388375
0.01141406619
0.01158747962
0.01209414684
0.01169848814
0.01192809182
0.01947434193
0.01942885526
0.01972654268
0.0196616971
0.02987032415
0.02985280848
0.0451310397
0.01866426734
0.01969650983
0.01919637924
0.01926195301
0.02024588623
0.03406711411
0.0337098359
0.03448824655
0.03420999175
0.02032322438
0.01969823064
0.03303045168
0.03119682808
0.03359001133
0.03300919138
0.01968484281
0.01137457874
0.04302740738
0.04247483859
0.02814915085
0.01348202028
0.01104846834
0.0107998735
0.008240410088
0.01130508756
0.01285037861
0.01826680841
0.01283774377
0.01379244349
0.01349756086
0.03054886556
0.01885181378
0.01905524893
0.01224976326
0.01229771388
0.01234483814
0.01303237542
0.01288360928
0.008823643439
0.009048273041
0.01305340998
0.01241335898
0.01281255836
0.01528978663
0.01885607717
0.02848181905
1.155269605
1.155833687
1.155832811
1.156073928
1.157003876
1.156422306
1.157382521
1.070790951
1.157271263
1.027380919
0.9085424474
1.082436484
0.8858280706
0.8308170941
0.9863313045
0.8279885752
0.8347048226
0.9871276725
0.8429392861
0.906762177
1.07489573
0.9318863305
1.056620423
1.157524202
1.100473488
1.157382814
1.156659498
1.157044652
1.156162469
1.156025139
1.155355058
1.156564243
1.155921446
1.157112982
1.002558367
1.157367283
0.9352738536