/*--------------------------------*- C++ -*----------------------------------*\
| =========                 |                                                 |
| \\      /  F ield         | OpenFOAM: The Open Source CFD Toolbox           |
|  \\    /   O peration     | Version:  v1912                                 |
|   \\  /    A nd           | Website:  www.openfoam.com                      |
|    \\/     M anipulation  |                                                 |
\*---------------------------------------------------------------------------*/
FoamFile
{
    version     2.0;
    format      ascii;
    class       volVectorField;
    location    "1700";
    object      U;
}
// * * * * * * * * * * * * * * * * * * * * * * * * * * * * * * * * * * * * * //

dimensions      [0 1 -1 0 0 0 0];


internalField   nonuniform List<vector> 
12556
(
(99.9993 0.00196342 -1.51317e-19)
(99.999 0.00677963 5.10097e-24)
(99.998 0.0147614 -1.60747e-19)
(99.9966 0.0272315 -1.57512e-19)
(100 0.0212759 6.49508e-20)
(99.9984 0.0365082 0)
(99.9975 0.0593311 0)
(99.9967 0.0917983 -1.12554e-19)
(99.9957 0.135416 1.31892e-20)
(99.9949 0.189917 -8.72531e-20)
(99.9948 0.250077 1.05552e-20)
(99.996 0.30462 0)
(99.9984 0.338769 0)
(100.001 0.341753 1.43592e-20)
(100.004 0.314188 -2.39295e-20)
(100.005 0.266482 1.50476e-20)
(100.005 0.211797 0)
(100.004 0.159954 2.54099e-20)
(100.004 0.115081 1.04596e-19)
(100.002 0.0824989 -2.96094e-20)
(100.009 0.0944242 -6.18803e-19)
(100.006 0.0598495 0)
(100.004 0.0322919 -7.92718e-20)
(100.004 0.0103488 -5.25112e-19)
(99.9928 0.00514893 6.373e-19)
(99.9893 0.0179514 1.69771e-19)
(99.9811 0.039664 1.18507e-18)
(99.9676 0.0739493 -4.99851e-19)
(99.9698 0.10254 7.12469e-20)
(99.9491 0.174624 -7.29516e-22)
(99.9226 0.284782 0)
(99.9114 0.387733 -5.02676e-20)
(99.8807 0.57754 -4.67668e-20)
(99.8538 0.820854 -8.22385e-20)
(99.8434 1.09759 -3.42116e-20)
(99.8641 1.35893 -4.50863e-20)
(99.9207 1.53388 -9.22733e-21)
(99.9963 1.56463 4.94226e-23)
(100.062 1.44744 -3.57768e-21)
(100.1 1.23091 3.41681e-20)
(100.109 0.97873 -6.78651e-20)
(100.098 0.74403 0)
(100.112 0.565902 -4.82972e-19)
(100.081 0.392624 9.36272e-19)
(100.082 0.270293 6.31219e-19)
(100.06 0.171078 1.32674e-18)
(100.045 0.0920317 -1.33176e-18)
(100.039 0.0294215 6.2968e-19)
(99.9806 0.00607461 -6.37783e-19)
(99.9706 0.0220037 -1.36554e-18)
(99.9489 0.0513828 -3.05695e-18)
(99.9129 0.0998913 4.00188e-18)
(99.896 0.159909 -1.45708e-19)
(99.834 0.28007 -1.38662e-19)
(99.7499 0.465972 -2.34826e-19)
(99.6978 0.676451 0)
(99.5917 1.03362 1.86041e-19)
(99.4962 1.50671 4.02373e-20)
(99.4599 2.07139 -1.01994e-19)
(99.548 2.62732 -1.07124e-21)
(99.7824 3.0108 1.39119e-20)
(100.088 3.0801 -2.4854e-22)
(100.341 2.82563 0)
(100.47 2.36658 2.60789e-20)
(100.48 1.84505 -6.99795e-20)
(100.422 1.3672 -1.67546e-19)
(100.375 0.971444 -2.91859e-18)
(100.278 0.663139 -6.49194e-19)
(100.23 0.412246 -6.49536e-19)
(100.167 0.259218 1.50069e-18)
(100.127 0.138703 -1.68895e-19)
(100.11 0.0441546 0)
(99.968 0.00337865 -3.20681e-19)
(99.949 0.0148194 2.40043e-18)
(99.9089 0.0427902 -6.86803e-19)
(99.8419 0.0950925 0)
(99.7929 0.176967 0)
(99.6705 0.327632 -1.12574e-18)
(99.4997 0.569447 -2.19391e-18)
(99.3567 0.877493 2.08564e-19)
(99.1121 1.38891 9.94772e-20)
(98.8669 2.10664 4.72503e-20)
(98.7449 3.01204 -1.32971e-19)
(98.9032 4.00353 3.71304e-20)
(99.464 4.74829 3.72024e-20)
(100.24 4.86544 0)
(100.843 4.34908 0)
(101.105 3.51807 -1.19723e-19)
(101.1 2.6599 0)
(100.946 1.91075 0)
(100.781 1.29257 1.05278e-18)
(100.576 0.862673 -8.21343e-19)
(100.437 0.501425 -1.66169e-18)
(100.317 0.310446 8.56271e-19)
(100.241 0.164165 -1.72196e-19)
(100.207 0.0519413 0)
(99.9637 -0.00375359 0)
(99.9343 -0.00613429 0)
(99.8732 0.00908481 3.46007e-19)
(99.7704 0.0517982 5.15092e-19)
(99.6778 0.142697 3.75715e-19)
(99.4806 0.298744 0)
(99.1991 0.559669 0)
(98.9223 0.928702 0)
(98.464 1.5569 1.75473e-18)
(97.9681 2.47827 2.34925e-19)
(97.5671 3.82112 0)
(97.6777 5.5678 2.14042e-19)
(98.8324 7.07164 2.56859e-20)
(100.599 7.23563 -2.10394e-20)
(101.806 6.13728 5.62651e-19)
(102.178 4.64425 1.66129e-18)
(102.028 3.32496 3.24289e-19)
(101.681 2.30579 -4.12561e-21)
(101.314 1.47668 -1.74897e-18)
(100.954 0.956456 1.4667e-19)
(100.68 0.518067 0)
(100.487 0.312606 1.75608e-19)
(100.369 0.162123 -1.32094e-19)
(100.313 0.0507664 -4.10746e-20)
(99.977 -0.0156022 0)
(99.9371 -0.0417372 0)
(99.855 -0.0515521 -6.9451e-19)
(99.7158 -0.0335688 1.3921e-18)
(99.5729 0.049678 0)
(99.2966 0.181434 0)
(98.894 0.418011 4.56392e-19)
(98.4519 0.79301 1.76403e-19)
(97.7364 1.41383 2.53273e-19)
(96.8224 2.41303 -1.24967e-18)
(95.7547 4.17797 1.51628e-18)
(95.2369 7.21837 -1.43281e-18)
(97.4368 10.745 2.42605e-20)
(101.65 10.7723 0)
(103.734 8.15152 2.19068e-18)
(103.899 5.59465 0)
(103.313 3.7118 -2.88568e-19)
(102.589 2.42625 5.0172e-19)
(101.934 1.46376 4.48103e-19)
(101.374 0.910098 -3.02965e-19)
(100.926 0.44586 0)
(100.653 0.257042 0)
(100.487 0.128377 -4.4561e-20)
(100.408 0.0393325 -1.2556e-19)
(100.017 -0.0318641 1.58419e-19)
(99.9675 -0.0910444 -1.70543e-19)
(99.867 -0.137432 3.48025e-19)
(99.6957 -0.158729 -1.25719e-18)
(99.5021 -0.101869 1.30847e-21)
(99.1536 -0.0246567 4.64611e-19)
(98.6405 0.140067 -2.36247e-18)
(98.0349 0.449628 -2.50017e-19)
(97.0806 0.924597 5.95742e-19)
(95.6588 1.73481 4.02112e-19)
(93.4712 3.30102 1.12246e-18)
(90.145 7.39559 2.77288e-18)
(92.959 17.4679 3.18601e-19)
(105.558 16.3018 3.45786e-18)
(107.428 9.85841 0)
(106.389 5.89414 8.67506e-19)
(104.912 3.56572 -4.73623e-19)
(103.601 2.17141 -7.76979e-20)
(102.551 1.19523 0)
(101.78 0.699823 1.66757e-19)
(101.139 0.278457 1.1494e-19)
(100.785 0.14127 -1.3857e-19)
(100.573 0.0620027 -1.58378e-19)
(100.471 0.0174112 3.56671e-19)
(100.092 -0.0516687 -1.58333e-19)
(100.035 -0.151308 1.70386e-19)
(99.9206 -0.243288 -2.16123e-19)
(99.7258 -0.315254 -1.42991e-19)
(99.488 -0.301579 2.69607e-19)
(99.0855 -0.303058 1.5647e-19)
(98.4926 -0.248836 1.22559e-18)
(97.7683 -0.0707432 2.26967e-19)
(96.6674 0.141075 0)
(94.944 0.464542 1.64944e-19)
(92.1391 0.840111 -9.36643e-19)
(86.6718 0.938265 9.91654e-19)
(117.402 20.8017 9.24498e-19)
(113.133 9.10274 -1.94648e-19)
(109.315 4.80048 1.44002e-19)
(106.532 2.6401 -2.30992e-19)
(104.541 1.45936 7.07176e-20)
(103.053 0.660992 -9.13139e-20)
(102.101 0.325341 3.76857e-19)
(101.275 0.0239981 -1.40797e-19)
(100.855 -0.0287321 1.17423e-19)
(100.606 -0.0335297 -2.29421e-20)
(100.485 -0.0138452 -3.36256e-19)
(100.207 -0.0737128 -7.63331e-20)
(100.145 -0.21846 -6.12468e-20)
(100.024 -0.36152 -2.09665e-20)
(99.8164 -0.49103 6.25458e-20)
(99.5459 -0.532079 -4.94199e-22)
(99.1147 -0.625238 0)
(98.484 -0.699571 2.00415e-19)
(97.7094 -0.683869 -1.31887e-21)
(96.5921 -0.752811 4.17288e-21)
(94.9112 -0.897148 -2.09773e-19)
(92.6149 -1.37749 -9.29372e-20)
(90.3227 -2.90691 -3.30329e-20)
(130.453 9.35788 0)
(117.788 4.10676 6.56376e-19)
(111.538 1.9997 7.21756e-19)
(107.689 0.904174 3.40198e-20)
(105.169 0.324663 -2.1078e-19)
(103.328 -0.0925275 -9.63664e-20)
(102.262 -0.183618 2.13557e-19)
(101.3 -0.294432 4.85502e-20)
(100.838 -0.238298 0)
(100.565 -0.150283 1.8139e-19)
(100.431 -0.0518992 1.67979e-19)
(100.365 -0.0964587 1.5031e-19)
(100.303 -0.287783 2.35181e-21)
(100.181 -0.483415 0)
(99.9722 -0.67252 8.25388e-21)
(99.6827 -0.774016 -3.69051e-20)
(99.2485 -0.960673 3.82182e-20)
(98.6206 -1.16194 0)
(97.8529 -1.30165 -4.02787e-21)
(96.8043 -1.59406 1.5787e-19)
(95.2841 -2.00765 1.83886e-19)
(93.4297 -2.64465 0)
(91.8551 -3.45621 -2.0043e-20)
(130.059 -5.16164 -9.42665e-19)
(118.369 -2.57732 0)
(111.994 -1.65955 1.86232e-19)
(107.943 -1.26877 -6.34755e-20)
(105.281 -1.04532 -4.0656e-19)
(103.299 -0.955514 8.26511e-19)
(102.213 -0.764057 0)
(101.19 -0.641534 -4.76664e-20)
(100.717 -0.465628 -2.01123e-19)
(100.438 -0.276774 2.24978e-20)
(100.299 -0.0931121 0)
(100.567 -0.118401 -7.39527e-20)
(100.507 -0.354632 7.95674e-20)
(100.39 -0.600508 7.76411e-20)
(100.191 -0.846755 -7.12996e-20)
(99.8971 -1.00846 -3.63365e-20)
(99.4821 -1.28155 0)
(98.8887 -1.59674 -7.4504e-20)
(98.1643 -1.87046 5.70451e-20)
(97.2116 -2.32957 -2.82023e-19)
(95.8193 -2.90232 -1.62833e-19)
(94.1108 -3.56968 -4.15629e-19)
(92.6011 -4.13409 6.24624e-20)
(123.118 -13.9251 1.06233e-18)
(115.563 -7.88317 0)
(110.674 -4.92639 -1.37085e-18)
(107.227 -3.32213 0)
(104.831 -2.37658 -3.96245e-19)
(102.949 -1.79053 0)
(101.945 -1.33498 -5.09701e-19)
(100.941 -0.978122 -5.98374e-19)
(100.49 -0.68664 4.56185e-20)
(100.222 -0.400325 -1.45991e-19)
(100.087 -0.133464 2.00524e-20)
(100.81 -0.138164 2.71769e-19)
(100.755 -0.41461 0)
(100.649 -0.705075 -7.74076e-20)
(100.469 -1.00149 0)
(100.181 -1.21946 0)
(99.8031 -1.56616 -1.05217e-19)
(99.2674 -1.97612 -2.58254e-20)
(98.6091 -2.36165 9.08245e-22)
(97.7631 -2.95523 7.16154e-20)
(96.4711 -3.67434 1.59107e-19)
(94.7743 -4.47094 -3.44369e-19)
(93.1392 -5.08815 2.93022e-22)
(115.046 -17.57 -1.42236e-18)
(111.264 -10.7924 3.10528e-19)
(108.276 -7.07419 -1.09911e-18)
(105.813 -4.84371 -5.19545e-20)
(103.931 -3.44166 -4.56694e-20)
(102.331 -2.48307 4.31783e-20)
(101.487 -1.82742 -6.21281e-19)
(100.571 -1.27058 3.54256e-19)
(100.166 -0.880023 0)
(99.9233 -0.509633 1.68451e-19)
(99.7993 -0.169322 0)
(101.088 -0.155201 -2.70409e-19)
(101.04 -0.466438 4.53394e-18)
(100.948 -0.794511 -9.08738e-18)
(100.792 -1.1335 -2.42712e-20)
(100.525 -1.39475 -3.18231e-20)
(100.197 -1.79803 0)
(99.7361 -2.27842 2.65844e-19)
(99.1596 -2.75467 -1.66708e-21)
(98.4425 -3.45843 -3.79778e-21)
(97.2895 -4.3397 -7.2877e-20)
(95.6718 -5.41991 1.87469e-19)
(93.9468 -6.34874 0)
(104.331 -26.8222 -3.86735e-19)
(107.248 -16.7364 0)
(106.926 -11.4445 2.86823e-20)
(105.583 -7.97394 0)
(104.092 -5.67943 9.10781e-20)
(102.778 -4.125 1.22019e-18)
(101.543 -2.96582 -1.29853e-18)
(100.895 -2.19548 0)
(100.108 -1.49525 0)
(99.7658 -1.03103 5.27314e-19)
(99.5569 -0.596546 9.76417e-20)
(99.4487 -0.198019 -2.97189e-19)
(101.394 -0.167999 0)
(101.354 -0.505297 0)
(101.278 -0.860685 0)
(101.151 -1.2311 0)
(100.905 -1.53389 0)
(100.629 -1.97822 0)
(100.249 -2.50977 0)
(99.7731 -3.0473 0)
(99.209 -3.82373 0)
(98.2767 -4.83728 0)
(97.0119 -6.25576 0)
(95.5193 -8.43622 0)
(97.2582 -17.1391 0)
(102.485 -13.7899 0)
(103.505 -10.5213 1.08045e-18)
(103.18 -7.88055 0)
(102.404 -5.89783 0)
(101.568 -4.42721 -9.87684e-19)
(100.687 -3.22769 -1.76455e-18)
(100.233 -2.42496 -6.50459e-19)
(99.5886 -1.64367 -8.43793e-19)
(99.3128 -1.13317 8.4955e-19)
(99.141 -0.656909 0)
(99.0509 -0.21814 7.98972e-19)
(101.72 -0.176418 0)
(101.689 -0.530845 0)
(101.631 -0.903055 0)
(101.533 -1.29175 0)
(101.318 -1.61839 0)
(101.101 -2.08143 0)
(100.809 -2.62986 0)
(100.438 -3.19283 0)
(100.043 -3.97392 0)
(99.4 -4.98551 0)
(98.7134 -6.38705 0)
(97.8314 -8.35692 0)
(98.6333 -10.8463 -5.51729e-29)
(100.499 -10.5224 0)
(101.319 -8.94694 0)
(101.335 -7.21191 0)
(100.951 -5.6831 0)
(100.443 -4.42569 -1.97152e-19)
(99.8518 -3.30174 0)
(99.5538 -2.52354 0)
(99.045 -1.71759 -1.57476e-18)
(98.8318 -1.18662 7.93277e-19)
(98.6953 -0.690482 3.33363e-20)
(98.6232 -0.229478 -5.51989e-19)
(102.059 -0.180498 0)
(102.036 -0.543182 0)
(101.995 -0.922129 0)
(101.926 -1.3177 0)
(101.741 -1.65533 0)
(101.579 -2.11801 0)
(101.365 -2.65803 0)
(101.092 -3.2113 0)
(100.829 -3.94365 0)
(100.425 -4.82703 0)
(100.048 -5.91304 0)
(96.6137 -6.75479 0)
(99.3884 -8.25732 4.51547e-33)
(99.8091 -8.21118 0)
(100.072 -7.44342 0)
(100.036 -6.35385 0)
(99.7937 -5.23406 0)
(99.4685 -4.22002 0)
(99.0871 -3.23706 -5.63823e-19)
(98.8984 -2.51617 8.65001e-19)
(98.5044 -1.72675 4.9176e-19)
(98.3445 -1.19795 8.5626e-19)
(98.2384 -0.700291 -9.7628e-19)
(98.1823 -0.232776 0)
(102.401 -0.18062 0)
(102.386 -0.543524 0)
(102.36 -0.920293 0)
(102.315 -1.31268 0)
(102.16 -1.65037 0)
(102.044 -2.09725 0)
(101.895 -2.60837 0)
(101.697 -3.12555 0)
(101.525 -3.77101 0)
(101.243 -4.4914 0)
(100.966 -5.2721 0)
(95.8751 -5.568 0)
(99.7973 -6.64272 9.65236e-38)
(99.5218 -6.6303 0)
(99.3521 -6.20617 0)
(99.1534 -5.50757 0)
(98.9133 -4.70677 0)
(98.6723 -3.916 0)
(98.4082 -3.07405 0)
(98.2912 -2.43006 0)
(97.9861 -1.68513 1.70403e-18)
(97.8676 -1.17527 -1.62757e-18)
(97.7856 -0.690055 -1.10537e-19)
(97.7423 -0.229525 1.03965e-19)
(102.74 -0.177369 0)
(102.732 -0.533668 0)
(102.718 -0.900911 0)
(102.693 -1.28188 0)
(102.563 -1.61053 0)
(102.483 -2.03111 0)
(102.38 -2.50099 0)
(102.234 -2.96751 0)
(102.107 -3.5152 0)
(101.864 -4.08415 0)
(101.607 -4.65286 0)
(95.5673 -4.70802 0)
(100.018 -5.50928 0)
(99.3683 -5.49305 0)
(98.9059 -5.22743 0)
(98.5468 -4.75729 0)
(98.254 -4.17639 0)
(98.0294 -3.56167 0)
(97.8213 -2.85369 0)
(97.7431 -2.28989 0)
(97.5015 -1.60558 0)
(97.4123 -1.12545 0)
(97.3485 -0.664749 0)
(97.3149 -0.221657 0)
(103.069 -0.171416 0)
(103.067 -0.515677 0)
(103.062 -0.867806 0)
(103.052 -1.23133 0)
(102.942 -1.54436 0)
(102.888 -1.93268 0)
(102.814 -2.35604 0)
(102.698 -2.76778 0)
(102.583 -3.22448 0)
(102.334 -3.6716 0)
(102.063 -4.09558 0)
(95.5407 -4.05182 0)
(100.137 -4.65751 0)
(99.2655 -4.63372 0)
(98.6068 -4.44838 0)
(98.1154 -4.11447 0)
(97.7551 -3.68209 0)
(97.5132 -3.20025 0)
(97.3218 -2.60877 0)
(97.2584 -2.12092 0)
(97.0571 -1.50268 0)
(96.9862 -1.05826 0)
(96.9344 -0.628353 0)
(96.908 -0.209605 0)
(103.386 -0.163464 0)
(103.387 -0.49169 0)
(103.389 -0.824853 0)
(103.388 -1.16697 0)
(103.294 -1.46024 0)
(103.254 -1.81401 0)
(103.195 -2.19063 0)
(103.092 -2.54976 0)
(102.967 -2.92862 0)
(102.695 -3.28266 0)
(102.388 -3.60618 0)
(95.6798 -3.52854 0)
(100.198 -3.98946 0)
(99.1852 -3.95952 0)
(98.3914 -3.81887 0)
(97.7965 -3.56958 0)
(97.3705 -3.23834 0)
(97.0967 -2.85524 0)
(96.8989 -2.36049 0)
(96.8339 -1.94032 0)
(96.6553 -1.38765 0)
(96.5937 -0.981453 0)
(96.5486 -0.585489 0)
(96.5266 -0.195226 0)
(103.686 -0.15418 0)
(103.69 -0.463729 0)
(103.695 -0.77561 0)
(103.699 -1.09413 0)
(103.616 -1.36552 0)
(103.583 -1.68495 0)
(103.528 -2.0176 0)
(103.425 -2.32921 0)
(103.28 -2.64403 0)
(102.978 -2.9281 0)
(102.621 -3.17973 0)
(95.9081 -3.09808 0)
(100.225 -3.45005 -5.23462e-34)
(99.1164 -3.41582 0)
(98.2269 -3.30235 0)
(97.552 -3.10814 0)
(97.0676 -2.84724 0)
(96.7571 -2.53759 0)
(96.5403 -2.12156 0)
(96.4638 -1.75975 0)
(96.2948 -1.26878 0)
(96.2357 -0.900845 0)
(96.1933 -0.539609 0)
(96.1737 -0.179824 0)
(103.967 -0.144153 0)
(103.972 -0.433559 0)
(103.979 -0.723112 0)
(103.984 -1.01725 0)
(103.909 -1.26615 0)
(103.876 -1.553 0)
(103.818 -1.84588 0)
(103.708 -2.11591 0)
(103.536 -2.37894 0)
(103.205 -2.61038 0)
(102.785 -2.80901 0)
(96.1779 -2.73652 0)
(100.23 -3.00556 0)
(99.0547 -2.96858 0)
(98.0952 -2.87302 0)
(97.3582 -2.71634 0)
(96.824 -2.50569 0)
(96.4768 -2.25129 0)
(96.2351 -1.89897 0)
(96.1412 -1.58661 0)
(95.9729 -1.15186 0)
(95.9119 -0.820608 0)
(95.8691 -0.493282 0)
(95.8501 -0.16429 0)
(104.229 -0.133867 0)
(104.235 -0.402626 0)
(104.242 -0.669794 0)
(104.245 -0.939798 0)
(104.173 -1.16664 0)
(104.137 -1.42351 0)
(104.07 -1.68122 0)
(103.948 -1.9155 0)
(103.748 -2.13691 0)
(103.39 -2.32848 0)
(102.899 -2.48701 0)
(96.4606 -2.4287 0)
(100.221 -2.63409 -6.64492e-34)
(98.9979 -2.59552 0)
(97.986 -2.51261 0)
(97.2005 -2.38259 0)
(96.6241 -2.20884 0)
(96.2425 -1.99663 0)
(95.9737 -1.69599 0)
(95.8597 -1.42524 0)
(95.6864 -1.0407 0)
(95.6202 -0.743582 0)
(95.5751 -0.448314 0)
(95.5554 -0.149234 0)
(104.471 -0.1237 0)
(104.477 -0.372059 0)
(104.482 -0.617509 0)
(104.482 -0.86437 0)
(104.412 -1.07024 0)
(104.368 -1.30006 0)
(104.289 -1.5271 0)
(104.153 -1.73089 0)
(103.925 -1.91886 0)
(103.544 -2.07985 0)
(102.977 -2.20743 0)
(96.7397 -2.16439 0)
(100.203 -2.32061 0)
(98.9451 -2.28127 0)
(97.893 -2.20781 0)
(97.0691 -2.09747 0)
(96.4573 -1.95153 0)
(96.0444 -1.77211 0)
(95.7484 -1.51362 0)
(95.6134 -1.27782 0)
(95.4315 -0.937571 0)
(95.3583 -0.671558 0)
(95.3095 -0.405898 0)
(95.2884 -0.135053 0)
(104.695 -0.113935 0)
(104.7 -0.342698 0)
(104.702 -0.567605 0)
(104.697 -0.792788 0)
(104.626 -0.979187 0)
(104.574 -1.18492 0)
(104.482 -1.38545 0)
(104.33 -1.56334 0)
(104.076 -1.72438 0)
(103.674 -1.86153 0)
(103.027 -1.9649 0)
(97.0063 -1.9364 0)
(100.179 -2.05443 2.17492e-34)
(98.8954 -2.01489 0)
(97.8121 -1.94881 0)
(96.9575 -1.85349 0)
(96.316 -1.72898 0)
(95.875 -1.57545 0)
(95.5529 -1.3516 0)
(95.397 -1.14516 0)
(95.2046 -0.843666 0)
(95.1234 -0.605558 0)
(95.07 -0.366757 0)
(95.047 -0.121987 0)
(104.901 -0.104773 0)
(104.904 -0.315141 0)
(104.903 -0.521013 0)
(104.892 -0.726272 0)
(104.82 -0.894874 0)
(104.757 -1.07938 0)
(104.65 -1.25712 0)
(104.482 -1.41304 0)
(104.205 -1.55235 0)
(103.784 -1.6706 0)
(103.058 -1.75486 0)
(97.2559 -1.73937 0)
(100.151 -1.82766 0)
(98.8485 -1.78826 0)
(97.7407 -1.72815 0)
(96.8613 -1.64459 0)
(96.1947 -1.53694 0)
(95.7287 -1.40413 0)
(95.3821 -1.20897 0)
(95.2061 -1.02722 0)
(95.0022 -0.759443 0)
(94.9127 -0.546062 0)
(94.8544 -0.331277 0)
(94.829 -0.11016 0)
(105.09 -0.0963487 0)
(105.091 -0.289786 0)
(105.087 -0.478335 0)
(105.069 -0.665578 0)
(104.994 -0.818143 0)
(104.921 -0.984107 0)
(104.799 -1.14235 0)
(104.616 -1.27966 0)
(104.317 -1.40136 0)
(103.879 -1.50442 0)
(103.075 -1.5735 0)
(97.4869 -1.56924 0)
(100.119 -1.63431 0)
(98.8042 -1.59529 0)
(97.6768 -1.54009 0)
(96.7773 -1.46595 0)
(96.0895 -1.37175 0)
(95.6013 -1.25573 0)
(95.2319 -1.08444 0)
(95.0369 -0.923489 0)
(94.8211 -0.684888 0)
(94.7233 -0.493189 0)
(94.6599 -0.299605 0)
(94.6322 -0.0996184 0)
(105.263 -0.0887458 0)
(105.263 -0.266884 0)
(105.255 -0.439924 0)
(105.23 -0.611117 0)
(105.152 -0.749397 0)
(105.068 -0.899292 0)
(104.931 -1.04093 0)
(104.733 -1.16249 0)
(104.415 -1.26989 0)
(103.961 -1.36063 0)
(103.082 -1.4176 0)
(97.6993 -1.42281 0)
(100.086 -1.46974 0)
(98.762 -1.43122 0)
(97.6191 -1.38013 0)
(96.703 -1.31361 0)
(95.9971 -1.23029 0)
(95.4892 -1.12795 0)
(95.0988 -0.976635 0)
(94.8861 -0.833171 0)
(94.6585 -0.619701 0)
(94.5526 -0.446823 0)
(94.4842 -0.271731 0)
(94.4539 -0.0903544 0)
(105.424 -0.0820114 0)
(105.422 -0.246573 0)
(105.409 -0.405966 0)
(105.377 -0.563074 0)
(105.295 -0.688765 0)
(105.201 -0.82486 0)
(105.05 -0.952434 0)
(104.837 -1.06072 0)
(104.502 -1.15649 0)
(104.033 -1.23716 0)
(103.082 -1.28445 0)
(97.8939 -1.29753 0)
(100.051 -1.33028 0)
(98.7218 -1.29231 0)
(97.5663 -1.24468 0)
(96.6365 -1.1844 0)
(95.9153 -1.10992 0)
(95.3898 -1.01879 0)
(94.9801 -0.884177 0)
(94.7509 -0.755388 0)
(94.5117 -0.563438 0)
(94.398 -0.406721 0)
(94.3247 -0.247554 0)
(94.292 -0.0823319 0)
(105.572 -0.076165 0)
(105.568 -0.228917 0)
(105.551 -0.376519 0)
(105.513 -0.521466 0)
(105.427 -0.636198 0)
(105.321 -0.76057 0)
(105.156 -0.876338 0)
(104.93 -0.973471 0)
(104.581 -1.0598 0)
(104.096 -1.13224 0)
(103.077 -1.17179 0)
(98.072 -1.19132 0)
(100.015 -1.21303 0)
(98.6834 -1.17561 0)
(97.5178 -1.13088 0)
(96.5765 -1.07571 0)
(95.8419 -1.00842 0)
(95.3008 -0.926457 0)
(94.8733 -0.805806 0)
(94.6288 -0.689257 0)
(94.3783 -0.515589 0)
(94.2571 -0.372578 0)
(94.1791 -0.22692 0)
(94.144 -0.0754963 0)
(105.71 -0.0712171 0)
(105.704 -0.21394 0)
(105.683 -0.351595 0)
(105.637 -0.486279 0)
(105.547 -0.591555 0)
(105.431 -0.706109 0)
(105.253 -0.81208 0)
(105.014 -0.899896 0)
(104.652 -0.9786 0)
(104.153 -1.04434 0)
(103.069 -1.07774 0)
(98.2351 -1.10247 0)
(99.9789 -1.11563 -3.10739e-35)
(98.6465 -1.07873 0)
(97.4727 -1.03642 0)
(96.5217 -0.985401 0)
(95.7755 -0.923942 0)
(95.2203 -0.849433 0)
(94.7763 -0.740398 0)
(94.5175 -0.633958 0)
(94.2562 -0.475691 0)
(94.1279 -0.344088 0)
(94.0455 -0.20967 0)
(94.0079 -0.0697946 0)
(105.84 -0.0671462 0)
(105.832 -0.2016 0)
(105.806 -0.33111 0)
(105.754 -0.457278 0)
(105.659 -0.554662 0)
(105.533 -0.661145 0)
(105.341 -0.759118 0)
(105.091 -0.839224 0)
(104.717 -0.911848 0)
(104.204 -0.97217 0)
(103.059 -1.00074 0)
(98.3848 -1.02966 0)
(99.9422 -1.03622 0)
(98.6108 -0.999776 0)
(97.4304 -0.959451 0)
(96.4712 -0.91177 0)
(95.7147 -0.854966 0)
(95.1467 -0.786444 0)
(94.6874 -0.686985 0)
(94.4153 -0.588764 0)
(94.1429 -0.443176 0)
(94.0079 -0.32092 0)
(93.9211 -0.19561 0)
(93.8812 -0.065154 0)
(105.962 -0.063996 0)
(105.951 -0.191978 0)
(105.921 -0.315156 0)
(105.863 -0.43489 0)
(105.764 -0.525359 0)
(105.627 -0.62537 0)
(105.424 -0.716966 0)
(105.163 -0.790766 0)
(104.778 -0.858636 0)
(104.25 -0.914657 0)
(103.048 -0.939507 0)
(98.5226 -0.971736 0)
(99.9053 -0.973301 0)
(98.5763 -0.93723 0)
(97.3903 -0.89848 0)
(96.424 -0.853419 0)
(95.6584 -0.800255 0)
(95.0786 -0.736437 0)
(94.605 -0.644762 0)
(94.3202 -0.553085 0)
(94.0382 -0.418108 0)
(93.8968 -0.302939 0)
(93.8059 -0.184686 0)
(93.7639 -0.0615727 0)
(106.084 -0.0615925 0)
(106.071 -0.184719 0)
(106.037 -0.303237 0)
(105.971 -0.41741 0)
(105.863 -0.50356 0)
(105.716 -0.598527 0)
(105.501 -0.685215 0)
(105.23 -0.753944 0)
(104.835 -0.818211 0)
(104.292 -0.870918 0)
(103.037 -0.893015 0)
(98.6498 -0.927891 0)
(99.8685 -0.925713 0)
(98.5425 -0.889916 0)
(97.352 -0.852345 0)
(96.3793 -0.809253 0)
(95.6054 -0.758827 0)
(95.0149 -0.698579 0)
(94.5276 -0.613082 0)
(94.2309 -0.52639 0)
(93.9345 -0.398763 0)
(93.7864 -0.289532 0)
(93.6913 -0.176462 0)
(93.6467 -0.0588483 0)
(106.18 -0.0603993 0)
(106.165 -0.180753 0)
(106.127 -0.296656 0)
(106.058 -0.410255 0)
(105.958 -0.48918 0)
(105.801 -0.580375 0)
(105.575 -0.663606 0)
(105.294 -0.728289 0)
(104.889 -0.789924 0)
(104.332 -0.840219 0)
(103.027 -0.860456 0)
(98.7678 -0.897491 0)
(99.8317 -0.892597 0)
(98.5093 -0.856924 0)
(97.3149 -0.820141 0)
(96.3365 -0.778416 0)
(95.555 -0.729918 0)
(94.9542 -0.672238 0)
(94.454 -0.591443 0)
(94.1458 -0.508472 0)
(93.8517 -0.389867 0)
(93.6995 -0.281793 0)
(93.6011 -0.171775 0)
(93.555 -0.0574202 0)
(106.346 -0.0590816 0)
(106.328 -0.177178 0)
(106.284 -0.29106 0)
(106.203 -0.399207 0)
(106.044 -0.481185 0)
(105.879 -0.570795 0)
(105.643 -0.65258 0)
(105.356 -0.713434 0)
(104.941 -0.773175 0)
(104.37 -0.821919 0)
(103.018 -0.841248 0)
(98.8776 -0.880299 0)
(99.795 -0.873392 0)
(98.4764 -0.837576 0)
(97.2787 -0.801186 0)
(96.295 -0.760263 0)
(95.5063 -0.712946 0)
(94.8958 -0.657015 0)
(94.3861 -0.57963 0)
(94.0683 -0.498204 0)
(93.7139 -0.377697 0)
(93.5516 -0.275181 0)
(93.4479 -0.167489 0)
(93.3986 -0.0558483 0)
(89.9444 -2.79004 -9.60562e-22)
(132.007 12.4109 2.1658e-20)
(117.936 23.3061 -2.83404e-18)
(91.7418 -3.37789 -1.5144e-20)
(132.584 -4.14694 -1.87409e-19)
(132.87 10.1712 -6.39817e-19)
(92.5269 -4.04351 -6.18694e-20)
(125.165 -14.2556 -5.91029e-19)
(131.895 -5.82822 1.13118e-18)
(93.0652 -4.94568 1.28815e-19)
(116.509 -18.4318 3.5314e-18)
(124.088 -15.045 -5.47547e-19)
(93.8882 -6.25036 -6.52203e-20)
(104.29 -27.5681 1.83517e-19)
(105.035 -27.1347 0)
(108.41 -18.4403 -1.73772e-18)
(115.442 -18.6492 -7.44007e-19)
(95.306 -8.15384 0)
(96.0171 -18.2076 0)
(103.932 -27.4697 0)
(97.4219 -18.4449 1.68257e-19)
(102.757 -15.7393 -6.52461e-19)
(107.501 -18.2708 -2.08783e-19)
(86.6058 2.01012 -2.8655e-18)
(91.6944 16.1432 -3.0547e-19)
(115.288 23.4092 3.38663e-20)
(103.802 17.4434 -8.16042e-19)
(136.53 30.2975 1.94411e-19)
(117.203 39.3272 5.05931e-18)
(129.624 11.3159 0)
(118.998 6.73705 2.77112e-19)
(114.282 10.8048 -2.213e-19)
(93.2374 -2.37883 0)
(91.9153 -3.25285 2.00827e-20)
(90.5362 -2.564 -6.34904e-20)
(143.806 1.68325 5.43252e-20)
(144.214 13.9453 0)
(130.624 -3.6094 3.77477e-19)
(120.852 -1.16282 -1.0878e-18)
(119.988 4.85489 -2.32347e-19)
(93.9502 -3.3488 -2.54852e-20)
(92.7074 -3.96017 -9.64411e-20)
(92.0322 -3.33768 -1.95522e-20)
(92.1729 -3.70665 8.11744e-20)
(91.4443 -4.08395 2.67921e-20)
(91.0345 -3.79068 -3.19116e-20)
(133.809 -15.3817 6.93686e-19)
(139.412 -9.06185 0)
(124.106 -13.1551 -1.68454e-18)
(118.154 -7.79254 -2.34873e-18)
(120.51 -3.0518 0)
(94.5976 -4.2397 3.4954e-19)
(93.2859 -4.86645 -1.59489e-19)
(92.7848 -4.05562 0)
(92.8004 -4.43937 4.23276e-20)
(91.7662 -4.61914 0)
(91.7702 -4.32458 5.7537e-20)
(122.848 -21.8715 -8.83631e-21)
(127.607 -19.7407 0)
(95.4109 -5.18222 -2.25413e-20)
(94.0528 -6.11368 -1.13923e-19)
(93.3643 -5.00505 0)
(93.4694 -5.56837 4.76694e-20)
(91.738 -5.84995 5.9237e-20)
(91.7769 -5.24116 -5.58956e-20)
(109.116 -28.3086 0)
(112.391 -23.4299 0)
(116.909 -23.3074 3.5784e-19)
(96.6276 -6.09627 0)
(95.4641 -7.85907 0)
(94.1756 -6.29465 0)
(94.4331 -7.07851 0)
(90.5643 -7.31441 -1.15201e-18)
(91.5065 -6.58131 5.17627e-19)
(98.5784 -8.50267 0)
(97.6217 -11.235 1.0228e-27)
(96.0169 -17.484 -1.68663e-22)
(86.6127 -5.75314 -5.61358e-20)
(89.9418 -4.6898 3.29089e-20)
(79.0908 -0.23158 4.59892e-18)
(85.7734 -5.71343 2.72793e-19)
(144.083 14.8683 2.6136e-18)
(137.365 29.4203 -1.54708e-19)
(127.62 18.6423 -1.53238e-18)
(136.222 27.6977 9.1355e-19)
(143.129 14.6892 -8.70427e-19)
(90.9935 -3.74015 0)
(90.79 -3.63984 -3.67409e-20)
(91.3369 -3.18872 0)
(90.6814 -3.67354 0)
(90.851 -3.78048 0)
(90.1177 -4.49458 -4.77921e-20)
(90.6547 -3.71183 0)
(139.74 -8.51796 2.67487e-20)
(143.653 0.948467 5.45451e-20)
(133.294 1.99968 1.84847e-19)
(142.996 1.14911 -2.62301e-20)
(139.324 -8.18406 0)
(143.292 13.7855 -1.08365e-19)
(143.139 1.86022 2.06325e-19)
(133.319 3.00831 1.20641e-20)
(91.7473 -4.29077 0)
(91.4979 -4.10935 -4.04131e-20)
(92.2703 -3.78969 -2.04791e-20)
(91.3402 -4.14667 7.82915e-20)
(91.5775 -4.31382 0)
(90.8693 -3.81112 5.5602e-21)
(91.3141 -4.13328 1.4978e-19)
(128.292 -19.3466 0)
(133.417 -15.7292 -1.6883e-19)
(128.295 -11.3148 -4.42309e-21)
(132.928 -15.2378 6.16804e-19)
(128.018 -18.6422 0)
(139.008 -8.72624 0)
(133.676 -14.6079 -3.74331e-19)
(129.283 -10.127 0)
(91.7696 -5.20103 -3.88992e-23)
(91.7627 -4.65005 -1.26707e-19)
(92.8636 -4.55537 -1.4759e-19)
(91.5874 -4.64289 1.12835e-19)
(91.4986 -5.20605 0)
(91.5863 -4.33208 2.66965e-20)
(91.5963 -4.61267 2.17203e-19)
(117.561 -23.215 3.67672e-19)
(122.175 -22.0955 -9.60414e-19)
(91.5234 -6.53222 2.54446e-19)
(91.7329 -5.90015 -3.02044e-20)
(93.5159 -5.65105 6.36066e-20)
(107.26 -28.3464 0)
(91.2519 -5.88708 -2.28966e-19)
(90.5953 -6.49195 -3.46782e-19)
(91.5026 -5.24551 -6.14439e-20)
(91.2735 -5.84114 0)
(107.023 -28.2406 1.79164e-19)
(107.666 -22.8443 7.82894e-19)
(111.746 -23.4416 0)
(109.045 -28.3235 1.65911e-19)
(78.1166 -7.64346 2.67866e-19)
(90.5135 -7.38544 -4.60069e-21)
(94.5206 -7.20517 4.028e-22)
(98.3416 -23.4605 2.68845e-20)
(88.8643 -7.22279 0)
(52.7281 -8.13818 1.18344e-19)
(90.558 -6.53417 7.17082e-20)
(88.919 -7.15789 1.42205e-18)
(98.9016 -24.1242 0)
(92.4154 -0.937176 -7.50874e-20)
(90.2117 -2.39773 6.90357e-20)
(87.7721 1.1 8.49698e-19)
(87.9303 -1.53423 -4.04184e-19)
(85.9772 -4.86997 -3.16615e-19)
(80.6366 0.184494 2.0437e-18)
(135.713 51.41 3.51422e-17)
(111.579 57.9765 4.16239e-19)
(91.1519 -3.13388 -9.63701e-20)
(90.7491 -3.67137 1.81837e-20)
(90.0867 -4.31021 -2.98513e-21)
(122.227 -23.1809 -4.97449e-18)
(116.04 -17.3332 -1.54756e-18)
(113.37 -11.5667 0)
(117.066 -9.01196 5.03947e-19)
(106.82 -27.2962 3.10352e-18)
(114.683 -26.2917 -7.76861e-19)
(116.949 -25.9411 2.04861e-19)
(99.7608 -23.5665 2.28175e-19)
(103.401 -20.5159 -9.42155e-20)
(106.505 -22.3877 -1.849e-18)
(89.877 -4.44708 -1.29431e-20)
(86.701 -4.98467 5.22359e-20)
(88.4792 -2.02521 6.15827e-21)
(89.3742 -6.7379 9.27793e-20)
(68.2044 -2.0564 9.58622e-18)
(78.5058 -11.3836 -1.61136e-18)
(117.413 36.2068 -9.35608e-19)
(134.604 29.447 -2.09819e-19)
(125.533 20.344 1.31207e-18)
(117.289 -25.8498 0)
(119.545 -25.4055 0)
(119.755 -17.3896 0)
(121.991 -21.3979 4.5695e-19)
(117.469 -22.5351 -7.20363e-19)
(127.341 -19.0287 0)
(122.65 -21.1674 -2.45746e-19)
(120.843 -16.9104 -9.88216e-19)
(106.424 -28.3613 1.24484e-19)
(90.7046 -26.8983 0)
(101.468 -26.3439 0)
(83.8422 22.8959 4.41856e-20)
(82.7679 10.2969 -1.07019e-18)
(78.7845 1.42575 7.41521e-18)
(113.985 38.7505 4.33215e-21)
(100.583 29.1036 9.60385e-19)
(85.471 25.4817 -4.16658e-20)
(137.899 48.9493 -1.57707e-16)
(129.824 36.645 -5.18443e-19)
(136.49 48.6681 2.26492e-17)
(112.589 54.2872 -4.8959e-19)
(134.007 50.2804 -3.45631e-18)
(126.949 37.9318 -1.00752e-18)
(144.302 7.07564 -2.38979e-19)
(144.348 7.88688 0)
(136.52 -12.8337 -1.89584e-19)
(136.9 -12.3978 7.71867e-19)
(121.943 -24.5623 2.90491e-19)
(122.627 -23.2999 -4.99814e-19)
(124.875 -21.0861 0)
(124.286 -23.2122 2.35071e-18)
(122.535 -24.2461 1.39603e-19)
(125.395 -21.7566 6.35843e-18)
(124.376 -23.0824 1.19371e-18)
(125.555 -20.7842 -4.20757e-19)
(91.7988 -5.53605 1.79966e-19)
(92.7474 -5.49172 1.39337e-19)
(92.8522 -5.74544 0)
(111.922 -26.2512 6.49325e-19)
(113.996 -26.315 9.29781e-19)
(107.622 -27.4651 -1.02594e-17)
(91.3741 -6.95617 -1.43435e-19)
(93.38 -6.99236 1.01637e-19)
(93.5043 -7.37883 -8.88811e-20)
(93.2223 -6.56463 5.01458e-20)
(93.3412 -6.87774 -1.01109e-19)
(91.4071 -6.89073 -4.27912e-19)
(87.2978 -9.66082 -4.18902e-18)
(89.1703 -7.06624 5.72296e-18)
(88.5363 -5.44574 1.97791e-20)
(89.2639 -6.98218 -2.40977e-18)
(87.1739 -9.13543 7.16078e-18)
(89.868 -5.06137 -1.23509e-18)
(89.448 -6.69187 -1.30168e-18)
(89.0041 -5.27208 0)
(81.6451 -4.00064 0)
(78.8257 -9.92336 1.28514e-20)
(70.3547 -1.62082 -4.4629e-18)
(86.6274 -9.40461 -1.29531e-19)
(80.096 -10.2229 1.42048e-18)
(82.7456 -4.75953 2.75618e-19)
(79.9715 -11.6147 -2.7604e-19)
(86.8246 -9.98095 3.58317e-19)
(142.026 21.4616 1.84927e-18)
(141.603 22.4683 -6.35132e-19)
(90.7721 -3.63484 2.09191e-20)
(89.6389 -3.62294 -4.20173e-22)
(90.7786 -3.64234 0)
(90.4575 -4.03529 -3.93327e-20)
(89.9107 -4.0452 2.872e-18)
(89.8567 -4.91192 -1.28072e-18)
(89.6822 -3.62972 -2.38132e-20)
(89.8815 -3.94274 -5.66181e-21)
(90.5259 -3.92537 2.64237e-20)
(141.748 -4.35755 -7.22586e-19)
(141.996 -3.72216 1.19996e-18)
(141.503 -3.48742 0)
(137.551 -1.9072 2.10727e-19)
(138.244 1.57875 -4.36338e-21)
(136.029 -6.06699 6.99995e-19)
(137.231 -3.00618 0)
(141.266 -4.12454 0)
(143.657 7.91105 -1.13301e-19)
(138.334 8.01227 1.10281e-19)
(137.56 12.1516 -2.18444e-19)
(138.375 2.81006 -9.42661e-20)
(138.438 6.67624 -8.15641e-20)
(143.631 7.10448 4.41132e-19)
(91.4866 -4.21141 1.51354e-19)
(91.5025 -4.22371 9.203e-20)
(91.0633 -4.00143 1.16313e-20)
(91.0958 -4.02647 1.17007e-20)
(130.483 -17.8014 7.54278e-20)
(125.659 -21.4789 0)
(130.838 -17.5274 7.72838e-20)
(91.5655 -4.89806 -1.19024e-19)
(91.561 -4.93131 -2.95664e-20)
(91.621 -4.44262 2.59497e-20)
(91.6216 -4.46269 -5.23862e-20)
(122.217 -24.3545 -2.69183e-19)
(120.019 -24.9853 0)
(120.182 -22.6705 -8.64299e-19)
(119.841 -25.3224 4.83759e-19)
(121.677 -24.6853 -2.83479e-19)