/*--------------------------------*- C++ -*----------------------------------*\
| =========                 |                                                 |
| \\      /  F ield         | OpenFOAM: The Open Source CFD Toolbox           |
|  \\    /   O peration     | Version:  v1912                                 |
|   \\  /    A nd           | Website:  www.openfoam.com                      |
|    \\/     M anipulation  |                                                 |
\*---------------------------------------------------------------------------*/
FoamFile
{
    version     2.0;
    format      ascii;
    class       volScalarField;
    location    "1.63";
    object      k;
}
// * * * * * * * * * * * * * * * * * * * * * * * * * * * * * * * * * * * * * //

dimensions      [0 2 -2 0 0 0 0];


internalField   nonuniform List<scalar> 
12556
(
36.90869229
36.90873677
36.90879631
36.90884999
36.95437738
36.95464206
36.95512836
36.95640548
36.95909757
36.96426205
36.97278303
36.98385513
36.9935506
37.00009935
36.99550574
36.98706109
36.97660969
36.96744349
36.96143244
36.95754044
36.91108918
36.90954807
36.90882398
36.90842615
36.72743266
36.72761729
36.72777433
36.72801485
36.77348879
36.77491374
36.77809581
36.80557387
36.81829587
36.84249492
36.88236827
36.9352191
36.98857599
37.00951218
37.00193402
36.96364506
36.91156608
36.86629332
36.81395371
36.79217776
36.73672977
36.73140483
36.72887575
36.72771718
36.54733231
36.5477783
36.54823414
36.5488339
36.59479649
36.59864159
36.6065948
36.64245615
36.67440595
36.73364935
36.83560451
36.94954837
37.02647656
37.06036321
37.04535143
36.98487534
36.88809936
36.786679
36.68913949
36.64093046
36.57030112
36.5588538
36.55329504
36.55107761
36.36862337
36.36902914
36.36965147
36.37109155
36.41797563
36.42641013
36.44366217
36.4968764
36.56495815
36.7045492
36.89384881
37.06855968
37.17449651
37.20008188
37.15990041
37.06862589
36.93182602
36.77717907
36.60852065
36.5153712
36.41614567
36.39395159
36.38313021
36.37889178
36.19193665
36.19242519
36.19357961
36.19662856
36.24549833
36.26075782
36.29399568
36.37398276
36.52256033
36.77590651
37.07732451
37.34577051
37.52035727
37.51578039
37.40748224
37.24633319
37.052549
36.831441
36.59920644
36.42623071
36.2789779
36.23690748
36.21734414
36.20974001
36.01703586
36.01763443
36.01954193
36.0248601
36.07814071
36.10462043
36.16404801
36.28919188
36.55385329
36.94584096
37.44306203
37.95568621
38.29152592
38.19876265
37.88494439
37.57248331
37.27264733
36.9613243
36.63348531
36.38115078
36.15954421
36.08647091
36.05420608
36.04146095
35.8447816
35.84585549
35.8493475
35.85843007
35.91672059
35.95871848
36.05500772
36.25006489
36.63616677
37.22539963
38.06471166
39.30636882
40.08668171
39.89209842
38.75927408
38.10441284
37.61439816
37.16871377
36.71167558
36.38339024
36.05818929
35.9429476
35.89235454
35.87241424
35.6757693
35.67750357
35.68303289
35.69662498
35.76358938
35.82571337
35.96955429
36.24303856
36.75084776
37.56946724
38.90864933
41.64603192
42.69897044
40.20040278
38.86174739
38.08476526
37.4527878
36.83297492
36.40507802
35.97448451
35.80675893
35.73213064
35.70298147
35.51177315
35.51475435
35.52355583
35.54403094
35.62130775
35.70746134
35.90651796
36.25587891
36.88662906
37.92527256
39.68219641
43.71278841
47.28853648
41.99938844
39.7848373
38.63981783
37.79125369
36.98324077
36.4426857
35.90813551
35.68046425
35.57680816
35.53666715
35.35361037
35.35796271
35.37036461
35.39955439
35.4889132
35.60392786
35.86168398
36.28059265
37.02581025
38.24421622
40.25150572
44.68422731
50.53098918
43.65540473
40.73633881
39.23916794
38.15204272
37.14640001
36.49090268
35.85707485
35.56756576
35.43204567
35.3793779
35.20314009
35.2095542
35.22701144
35.26779706
35.36614557
35.51423174
35.83078976
36.3159565
37.16965293
38.53624917
40.72170309
44.86342034
52.14319672
44.91941263
41.61928038
39.81944262
38.50398755
37.30419279
36.54391845
35.81898043
35.47156053
35.3034812
35.23745011
35.06019767
35.06849845
35.09076054
35.14280811
35.25362738
35.43623873
35.80969373
36.35988573
37.31453373
38.8144896
41.17188932
44.4988438
52.83360353
45.81083061
42.35869505
40.32517387
38.80691742
37.44251254
36.59494879
35.79432003
35.39266921
35.19433933
35.11486464
34.92580729
34.93667403
34.9659185
35.03108341
35.15039527
35.36692392
35.79522872
36.40765768
37.45919164
39.08781407
41.65892528
43.93773751
46.44930388
52.63914396
46.41810479
42.91718054
40.74004018
39.04363287
37.55152264
36.63686138
35.77546207
35.32960583
35.10371704
35.01202469
34.7985011
34.81187891
34.84771234
34.92412454
35.06181159
35.32132081
35.80248674
36.47531988
37.63132874
39.41241684
42.21260217
42.50945627
55.78782061
52.60686068
46.77561991
43.35900598
41.02329173
39.19505701
37.63002433
36.66599806
35.75388351
35.27674681
35.02757569
34.9253114
34.67783197
34.69368585
34.73581621
34.82319026
34.97464085
35.26666108
35.78586825
36.49126616
37.69020063
39.56721451
42.56052537
38.42636999
55.58592782
52.11716542
46.94807215
43.59495148
41.19011923
39.26947351
37.67135453
36.67917309
35.72815732
35.22773929
34.9598345
34.84929348
34.56127191
34.57956197
34.62755467
34.7257411
34.89128535
35.21151707
35.76527077
36.48488493
37.68932108
39.57333045
42.49193606
34.635209
53.42381327
51.47524782
46.99118337
43.72331808
41.22010155
39.27466108
37.6749986
36.67276854
35.68877301
35.17404783
34.89397847
34.77708121
34.44844643
34.46901123
34.52207929
34.63008331
34.80887466
35.15309776
35.73716371
36.47207306
37.65043242
39.47362441
42.06192774
35.47436489
50.46726818
50.88635218
46.83597586
43.62113231
41.12909788
39.23268657
37.64867701
36.63676221
35.63588417
35.11460838
34.82510252
34.70349889
34.33614734
34.35883003
34.4164305
34.53370678
34.72526337
35.08948215
35.69775789
36.45727061
37.61845409
39.33918132
41.58294662
36.77233661
46.81805187
50.14299144
46.45699232
43.30839679
40.91938126
39.11999846
37.56824498
36.56524034
35.56207935
35.04028765
34.74833964
34.62366065
34.22527615
34.24983024
34.31114827
34.43625797
34.63887386
35.01961777
35.64666119
36.42511259
37.60857598
39.2819998
41.18448424
36.26435683
44.05122016
49.08598029
45.83536466
42.89065478
40.66354681
38.95443832
37.4508102
36.4663124
35.47139076
34.95391675
34.66203225
34.53623929
34.11219279
34.13844193
34.2031467
34.33571628
34.54887512
34.94324695
35.58458965
36.37669091
37.57542263
39.23436343
40.79534075
32.96417958
43.13834816
47.97051583
45.18799621
42.48303963
40.39032146
38.75997952
37.30766224
36.34588804
35.36481955
34.85447817
34.56455276
34.43855812
33.99984926
34.02753283
34.0949289
34.23337746
34.45492516
34.86066174
35.51280342
36.31479568
37.52317812
39.14593105
40.32966208
29.6735841
42.34822988
46.96065126
44.59121043
42.09505206
40.11403687
38.55127703
37.147175
36.20923791
35.24612139
34.74522714
34.4585843
34.33304313
33.88349195
33.91249614
33.98260705
34.12715552
34.35723456
34.77254251
35.43288116
36.24227612
37.45608339
39.02307809
39.79217002
26.85204389
41.53143433
46.03978389
44.03561168
41.72831598
39.84188522
38.33674613
36.97569151
36.06081654
35.11623475
34.62514932
34.342244
34.21753563
33.76885179
33.79894697
33.87119197
34.02015875
34.25618817
34.6797949
35.34647207
36.16166391
37.37707379
38.869534
39.20195643
24.43619476
40.70803035
45.19172938
43.51493584
41.38060109
39.57727089
38.12128021
36.7978172
35.9042381
34.97985059
34.49953843
34.22075913
34.09710855
33.64866988
33.67985051
33.7546133
33.90910108
34.15247185
34.58337753
35.25513738
36.0751246
37.28814694
38.68595286
38.57867808
22.39635438
39.90878034
44.40665005
43.02431172
41.04892194
39.32122462
37.90770144
36.61678395
35.74239636
34.83597428
34.36524492
34.09029842
33.96775712
33.53264221
33.56471007
33.6413874
33.79934664
34.0465981
34.48421274
35.16032152
35.98445804
37.1903345
38.47366335
37.93437924
20.72442404
39.14382531
43.67629412
42.55978074
40.73102034
39.07354613
37.69754324
36.43479668
35.57741662
34.69043193
34.23005266
33.95904365
33.83763168
33.40887742
33.44194451
33.52124015
33.6848297
33.93931378
34.38310361
35.06323764
35.89097433
37.08361226
38.23534621
37.27917512
19.51319357
38.41489258
42.99333859
42.11806615
40.42523727
38.83356744
37.49146884
36.25327094
35.41092592
34.53886328
34.08656753
33.81887926
33.69850847
33.29331137
33.32718078
33.40833522
33.57465492
33.83093297
34.28071642
34.96481415
35.79543934
36.96745555
37.97450364
36.61988213
18.66203664
37.72516475
42.35423659
41.6965053
40.13029427
38.60059391
37.28967405
36.07310463
35.24396706
34.39009466
33.94733303
33.68312009
33.56374387
33.16610478
33.20100104
33.28502146
33.45755159
33.72218198
34.17759175
34.86570269
35.6981348
36.8415533
37.697529
35.95812808
18.08229941
37.07452889
41.75372952
41.29285524
39.84506059
38.37395016
37.09207883
35.89480094
35.07741285
34.23407711
33.79746762
33.53597388
33.41747435
33.05341586
33.08910347
33.17499406
33.34948029
33.61306049
34.07418725
34.76636376
35.59906416
36.70609655
37.40970183
35.29506128
17.60461984
36.4631848
41.18628583
40.90534814
39.56857199
38.15304735
36.89850859
35.71864813
34.91161922
34.08646294
33.65880313
33.40032403
33.28263903
32.92214282
32.95896164
33.04801871
33.22962161
33.50442207
33.9709122
34.66712582
35.49808759
36.56168754
37.11166088
34.63364066
17.22991246
35.88775809
40.64832426
40.53250636
39.29996784
37.93734285
36.70872447
35.54478832
34.74717279
33.92657771
33.50302753
33.24678651
33.12982897
32.81542824
32.8530571
32.94403306
33.12676715
33.39586219
33.86810601
34.56822325
35.39504521
36.40907179
36.80459121
33.97718621
16.98287247
35.34408806
40.13645681
40.17306545
39.03851951
37.72636731
36.52248934
35.37329789
34.58399339
33.78452101
33.36965326
33.11597248
32.99966006
32.67819685
32.71711829
32.81154965
33.00235024
33.28859989
33.76609305
34.46984508
35.28981221
36.24907277
36.49013803
33.32798737
16.8432412
34.82794515
39.64899198
39.82599291
38.78365201
37.51973979
36.33959304
35.20422263
34.42275102
33.61839457
33.20583461
32.95414617
32.83846056
32.58168696
32.6214301
32.71786916
32.90931042
33.18163311
33.66516048
34.37206333
35.18230711
36.08235998
36.16905043
32.68156026
16.76967308
34.33625242
39.1839708
39.49050942
38.53490847
37.31712588
36.15977559
35.03765204
34.262979
33.48842956
33.0839733
32.83427276
32.71908565
32.4348745
32.47611441
32.57627429
32.77581275
33.07719281
33.56580116
34.27505706
35.07242703
35.90934487
35.84169794
32.03667201
16.76361628
33.86997299
38.74053293
39.16611254
38.2919954
37.11830847
35.98294754
34.87400928
34.1061495
33.30885024
32.90657044
32.65894542
32.54433867
32.35383497
32.39592012
32.49814697
32.69988504
32.97380304
33.4688675
34.17954721
34.9600612
35.73060706
35.50931497
31.39465793
16.82613983
33.43233725
38.31829201
38.8524205
38.05467773
36.92311343
35.80896405
34.71470788
33.95229609
33.20299755
32.8051301
32.55872771
32.44446025
32.16804695
32.21222747
32.31944744
32.53044666
32.87700335
33.37645455
34.08834181
34.84554577
35.54737597
35.17615802
30.76136553
16.95682787
33.02734624
37.92035748
38.55124582
37.82362506
36.73182226
35.63790868
34.56422521
33.80746244
32.97141586
32.57701639
32.33305391
32.21946409
43.54600434
47.8048872
43.07139014
44.6017874
51.4024895
48.25704425
44.88503545
53.09985945
51.7043623
44.56071951
53.78316175
53.21439112
43.97703088
42.0966253
45.46065005
54.07648265
53.82346305
43.00150963
52.25571273
42.47029958
55.39512273
54.54299506
54.09982723
41.287864
40.04382442
42.58375477
39.8197264
51.34084467
44.67836262
46.77300199
42.40318213
40.7413025
40.12292443
43.64704587
42.79835466
55.64306995
57.22493519
50.23123889
44.45642123
42.96048789
40.61005485
44.21355302
43.74662316
44.85893543
46.67347352
47.61064566
54.6400744
54.09970203
52.01195209
45.95469075
44.89572435
41.07142379
44.24974393
44.23872758
44.75750652
43.14625514
45.08234202
56.02815528
55.22513601
41.54618826
44.05317961
44.23790483
44.27188775
38.43321676
40.84898781
39.6579955
56.8121888
56.58706216
42.1079311
43.54511085
44.0121534
43.61334982
32.42568776
35.16274427
41.42964058
53.98371126
52.62225043
47.8065378
49.63623154
43.76000992
47.39827638
57.11416395
51.67204322
45.73924476
50.71592555
55.77037753
47.72511835
48.40831667
44.25365097
49.06701344
47.81128059
49.74996474
49.2092668
54.17734176
55.44843786
50.0194891
56.42140606
55.62838504
55.98708136
56.50906109
49.77542122
45.26759515
46.51438166
44.88659119
46.18285282
44.4004038
47.72998265
46.29281639
55.07338427
54.72366986
52.63270181
56.13838032
56.36831618
55.58808874
56.09643902
52.44435462
40.9827486
43.02530062
44.7138254
42.08356207
39.5866823
44.2802459
42.22068387
56.54718086
56.11461615
35.31933958
38.25809423
44.23911637
40.68823884
36.33388492
33.15140676
39.44243306
36.54231982
41.58378234
57.06763922
56.83851277
39.55870694
39.7932154
32.3642408
43.56522189
48.92801159
31.86968103
76.20330372
33.06220672
31.88147464
48.20016442
39.51088298
42.64201021
40.97785442
42.63183969
46.39833706
43.34808301
62.20075832
47.36152133
44.14350752
48.48344852
48.43173152
47.60330421
52.79298589
46.92330095
46.25424441
55.27324975
49.39701445
47.89295198
51.88552443
57.36292527
57.15523498
48.2675241
46.71364611
42.90214554
55.2439546
45.81230637
53.16497732
44.28782973
49.77534033
45.11838556
47.4607671
43.6336439
53.57994186
56.57063135
56.68598931
56.39596784
56.5572099
53.51022113
39.50752632
48.59986071
44.63354522
41.65381346
41.24733834
43.29613238
44.1130394
41.7335589
41.68763535
66.72694001
48.39064596
61.85174652
46.46285368
58.41938612
47.54753931
57.01925498
57.13561932
54.29690949
54.26231996
40.92552529
45.00248935
55.73141925
41.35491978
42.40894387
46.53828378
41.52599192
55.63003716
39.74715812
43.82734879
43.47602024
52.2533318
50.22663884
49.76318511
34.17533445
41.61048835
41.09833996
42.25713073
41.79305505
34.32085272
59.44269557
55.70009075
48.73004703
56.0040748
56.97541066
51.72361954
55.67662745
48.97949391
45.43481622
50.82241132
45.19514244
56.21007081
51.58459649
46.00584464
53.86224679
59.25976925
55.11971713
54.72681065
48.47629726
44.56501854
48.39661682
49.66655026
47.94327543
51.18042296
44.95824652
47.51839994
49.57258663
54.91048696
55.02496772
56.03372855
54.01800074
53.40805525
54.6246523
54.18783089
55.97217559
56.83915614
52.05048959
51.01294089
53.17463087
52.35729216
56.86708958
45.3738245
45.25880557
47.10742304
47.01679873
55.24106165
47.14101729
55.17666231
41.09973067
40.92980824
43.31385483
43.17422073
42.85128777
46.68098554
56.3369466
42.97708594
40.92615811
37.12271935
42.83816603
42.4089152
43.35352466
42.97230497
37.27349738
39.3796024
35.43925099
35.30329977
38.43131941
38.28797132
56.59870323
40.35120395
54.23587216
52.82552442
40.90097712
40.41714618
31.96452894
32.90617447
41.27846298
41.77371663
32.62008434
70.82701753
42.27690551
61.95115082
32.54295736
45.58128866
45.77536912
40.51263619
61.34632447
39.84527949
40.37326983
42.49577079
43.05729736
43.44767547
41.97701394
34.12795444
41.36109655
56.09160217
53.91877677
54.46161376
54.04185489
40.79880452
44.23905234
55.53270524
54.61717194
40.98181204
57.48606729
57.41859372
52.41817647
43.38298525
42.90546691
45.38131533
46.46680317
43.12400281
43.43584588
56.30784814
59.27362251
58.14328867
57.3534345
54.41919538
45.12481311
45.42873198
48.32348104
47.62260074
53.99158103
44.0125552
45.35671114
45.1058698
45.66699405
45.43694965
44.15354588
44.25975082
43.93782279
39.8874219
32.83852062
38.12301279
37.68674622
68.79565951
51.27126892
53.03528947
56.47088046
60.46437728
59.55910685
53.20151132
48.89736126
47.43607141
50.62614588
49.35661571
53.56965169
54.45333065
49.49482569
48.66200682
55.13359598
45.82841515
45.93497562
45.73862623
40.76941946
41.28059775
44.7755759
45.64778255
45.95459695
54.91379418
56.2489368
55.41866603
55.32578272
55.62309048
55.03219105
54.74063757
55.28585324
55.10505389
55.63573286
42.01957953
44.65512884
44.36184359
45.01905836
44.7489261
42.15647039
41.67237206
36.26214533
36.60189139
33.66586371
33.90385704
40.07885793
43.87770699
39.95301615
40.62600894
36.73794171
37.12019017
42.6298596
56.39134942
47.28131882
51.18425635
60.8348773
39.57650153
35.90864065
34.07129305
39.01248899
33.33185866
33.58712819
32.78787261
37.51587111
50.53037207
38.54465703
39.08155172
38.25439702
37.54504054
37.12748101
32.2200047
40.48552431
41.23667471
50.88710144
31.83773405
88.44153702
42.91892447
41.34634074
45.94277254
32.88065996
31.98319278
55.82653897
54.99285349
54.71577453
47.73338736
47.65541027
40.04114175
39.80739032
55.5600292
53.25790102
53.15550863
48.65831326
58.41422569
48.80174881
58.91643248
49.55575994
43.83749662
40.8011338
45.36729849
47.25309852
51.69032772
48.04901206
41.40383784
40.19824834
49.84120861
61.07167047
41.44935896
47.19806415
67.59526895
39.60606212
40.62268144
39.54882396
39.53813475
59.67383675
67.19078448
55.37562194
51.73475924
59.21513252
56.19071045
51.03438803
48.01167714
53.23814001
56.07169577
55.36043194
56.5637323
57.33512523
57.78051673
56.53630995
46.08926796
45.30759194
54.35931866
46.9857483
47.22404845
45.20710198
46.71809891
47.29572326
54.04043298
47.50623559
46.37952689
41.43064646
41.7622694
41.34672594
51.01515498
50.12773251
43.27069958
48.24799359
46.8099225
49.77799337
48.72062516
42.58216601
42.22787806
41.51108378
40.37031384
38.73658319
38.25399919
33.2215953
34.67926449
39.27372153
38.87295299
58.07893021
57.52503882
57.07788835
51.74860631
52.33330365
50.70633925
51.51430359
57.37943525
54.13539846
52.57445303
52.40269906
52.46364137
52.58979833
54.41415658
54.55971892
49.4676864
50.43487199
57.61565274
58.07020502
60.13424059
59.65009102
56.151494
61.33245691
62.15389828
62.34772071
61.04413316
60.14480063
62.39106335
60.9014131
53.43214508
59.05706184
60.19448583
43.1644571
48.58308204
47.71102496
49.40167087
48.8186364
43.74738429
46.49854119
45.89606912
47.40703559
46.70573828
49.24057396
51.63198861
51.09755192
52.27416545
51.80280961
49.70394476
45.98533685
50.17052103
49.5980472
50.91492384
50.35874024
46.35882419
50.63695789
49.66953624
54.56288677
55.14719665
52.16378206
51.01414671
40.28152289
39.78276059
41.14691878
40.45641078
38.98861155
38.50191543
39.62509116
39.13354215
44.93070672
44.36052518
45.70138921
45.1261467
43.22250184
41.59561098
44.15244132
43.58046834
44.55301108
43.92369238
46.39431308
45.00789628
47.54841741
43.88719015
44.79099634
43.76226803
43.61680313
35.8037558
36.12817743
41.5340779
34.07067647
33.85042138
34.38149855
34.16310566
33.73835564
40.28877111
33.99612865
35.49356237
37.97345756
39.6663677
43.7416182
37.58750038
35.3507186
38.40291785
37.65571431
34.7606157
34.48278008
35.19495472
34.86863025
42.76549731
37.25713801
37.71789145
51.67064
41.67123216
50.71793174
46.58989597
50.43630245
41.32115235
63.18208493
39.47202378
60.88888449
53.63739959
35.78633275
34.67678387
33.02864634
33.25841207
38.86939422
37.763768
32.80612035
32.97142365
56.33553682
32.16439171
36.93145842
36.2311046
71.39454288
78.46350414
31.77110939
82.54342478
62.53550444
41.05402618
32.81287633
70.33679162
45.63620049
80.55212372
47.82949203
32.10690177
42.25648159
40.22520211
38.97427905
54.35988678
53.93711249
53.25880078
47.52629613
47.12297592
54.2929849
40.63070388
40.66330635
39.53830781
56.69598406
56.6745513
53.95764799
45.33885014
44.77268146
47.80991386
53.17065679
45.24998215
45.38294375
41.19043161
41.53378338
43.90978239
49.97449585
53.55739009
56.29394269
47.10832355
46.29345393
46.19039135
46.3710652
46.31877281
47.24102448
43.81674087
42.10209676
40.96085749
51.83405104
53.38733112
56.72548438
39.7832518
39.40013852
34.79964462
57.09606321
58.77912705
53.03255618
46.14707968
45.99337839
46.00632372
45.83794089
42.82454081
43.46358181
43.77412173
44.7269736
46.62163722
36.16199906
40.30874087
39.90919015
47.18373024
44.95198974
40.13482014
32.30033686
32.33888778
33.29275088
43.34688835
57.62130448
51.59944225
39.50042617
46.55333838
44.36253776
31.84918698
32.99912827
32.25260133
32.27944938
31.90306581
62.74121542
47.44183755
41.94223066
43.35935965
54.5263178
40.12382948
40.53235021
49.68665835
54.50541589
46.92888552
45.36248817
47.34131821
45.93246339
40.50221949
40.0963662
64.47674283
66.96466677
68.64171893
57.6736025
65.65209084
42.85108353
43.1174241
45.84549232
63.85448744
59.24947531
56.76580286
66.81990324
64.08248401
41.04010895
43.31284676
42.42403493
48.84169374
48.22588668
43.11848729
52.10079547
51.32207913
41.44009759
46.78087251
42.06762763
42.31004469
45.80690956
40.24329207
40.82834746
59.14441824
59.91643785
56.35047431
56.38348038
55.25234607
55.09444962
52.29352381
53.29670201
52.91735679
54.91920785
54.70277023
55.24427234
47.99286107
49.15368405
54.02802097
55.37157722
60.83706481
57.17529386
61.02365837
61.37426921
58.63835854
41.51545963
43.71618029
43.18687608
47.39411228
47.15828779
44.32545285
41.06848606
40.82586675
42.74726918
42.39613569
48.36990851
50.56016989
50.23118319
52.56436124
52.22585253
50.66913894
45.25687883
48.00691893
47.72872245
49.89985289
49.57684231
47.12310899
42.12791356
42.64608442
45.72620289
44.89393559
41.44485549
41.9587602
45.6682186
46.17288104
47.38332355
39.40893283
39.2598557
40.61324457
40.4212974
37.09321483
39.03534092
38.91139266
46.72038795
44.96238434
45.49302565
47.0459849
46.82797447
42.69056062
43.04743143
47.00392063
46.82554424
47.30865916
54.97827133
46.12844499
47.47388281
40.80790823
40.4368709
36.50431756
37.68510607
41.25380826
40.91915262
33.46529887
33.5332649
35.55338557
35.16506831
33.28924908
33.38162206
56.77127144
32.06533654
32.98942258
32.30726744
109.2485129
32.17505939
41.09500208
57.25325658
50.7456963
31.99933647
32.03436841
32.67718862
69.28337304
75.04875246
72.44888052
55.51656143
32.47546246
31.94120282
31.96957448
41.80151786
40.26432325
39.64253048
54.2421158
53.54645599
44.7431449
43.38737861
40.13974775
55.46134979
55.23861153
59.39511773
41.62847166
52.53752521
48.03673329
52.81137284
51.83204443
42.71306609
44.33176696
45.06646198
49.30542364
54.02002253
54.39064595
53.44723576
53.73570907
58.9459219
58.1121349
58.3844252
57.54631236
57.83063225
58.51794066
48.06779888
48.02166833
48.26882403
47.63341874
47.7881553
47.98421848
60.10397661
58.98558909
58.99282807
58.63996427
58.85922489
59.8337715
49.07129961
49.08911609
49.36937876
48.5369025
48.80424178
48.83765205
52.73150872
52.9125078
52.02096771
52.21810095
36.35417376
38.65923836
38.52836099
33.76022443
35.28925014
35.1900889
35.6054683
35.4075642
33.83821287
58.01423884
59.38587536
52.48160951
58.97434571
32.72729218
32.68116652
32.83968258
32.79141841
32.42240216
33.56364197
32.38927281
32.5229471
33.42208974
34.93890963
34.84587073
35.10750665
35.02127532
33.49962348
32.96804217
32.89542633
33.71740118
33.13029831
32.87383187
58.70400837
56.77004408
45.86622108
59.28639236
34.37083367
33.51317702
39.1765597
32.26736514
33.89514094
33.74849927
31.82211766
86.82596316
88.38752144
62.33332964
78.45733569
68.26192646
32.16979885
32.21763918
32.944998
31.93949198
59.91098822
65.36864329
60.18929324
62.17820455
58.14344513
50.27584715
64.14458463
58.91347239
48.09741625
48.00062837
55.65835833
45.21651409
48.99444559
54.14398168
51.37395407
55.37686311
50.54113033
53.66057665
60.31762328
61.83601663
54.57969505
59.14321784
62.83605246
51.47329831
52.76581613
50.80382094
55.00278407
64.13089578
64.23240218
62.12609061
42.77533257
56.22156566
50.1351346
62.73760688
63.8787251
44.9120108
47.8975779
51.69664119
66.26514312
54.36827576
43.37461483
45.06531793
63.1259464
59.70750527
63.50486232
58.07308099
60.74668418
63.27303246
64.57835478
63.9362705
55.53300812
55.72977321
56.02667772
55.05753979
55.24773929
55.24686468
57.34127419
56.96121723
57.25508061
56.35359247
56.65033828
56.9395518
45.81641808
48.36904881
48.35114429
47.02598369
47.24387836
45.72877725
47.12667944
46.84732639
46.53483364
47.70086122
48.0671093
46.96969058
47.7280745
47.57453619
48.27313266
48.0483267
46.63864758
48.33735336
45.38945346
41.16530161
49.65997816
49.61027968
49.35249215
42.38827165
48.47380608
48.02441749
41.94162778
41.93956035
44.66913674
58.66318111
56.88453989
54.07009481
53.69396687
52.83967104
54.93509174
54.51953597
54.25762315
62.0555477
61.73149283
56.70140066
62.33545592
64.45938161
58.4897831
61.85999194
62.03213457
59.99415446
58.75773555
58.66687934
58.85693086
58.86048643
59.8209647
61.72361432
61.88496499
60.86257059
63.84490096
63.78834165
63.67680426
63.81614323
60.70285888
62.53095944
63.28028332
65.13694274
62.55095042
46.01198903
45.85279504
43.11426751
43.90546398
46.77762949
46.61064276
41.5641029
41.30651727
42.10142259
41.82370375
51.22171794
50.88827594
48.7882152
50.18195514
51.89161653
51.55652016
48.62787927
48.33150554
45.65406298
46.71770587
49.25212638
48.94322241
50.39302282
50.25790183
50.56002877
49.66107573
49.95829529
49.98733383
51.71135129
51.37270728
51.58683962
50.86156015
51.1381186
51.42520017
40.10956311
37.25741989
37.4122898
36.97747151
37.12186619
39.94738607
40.86095761
37.92126229
38.15059122
37.56398744
37.73599766
40.64635974
38.81412191
36.15612309
36.30555007
35.91300204
36.05949059
38.68736176
39.45940341
36.6987011
36.84557751
36.41841333
36.57173399
39.304857
39.79919843
39.62833128
44.74241708
42.6623863
42.85307808
42.2678358
42.44160098
44.54325697
40.20238536
40.01524175
38.2462468
38.12642268
42.95012475
40.91555548
40.98375459
38.48855086
38.96491003
42.24367595
43.98115716
41.88679988
42.03047251
41.49928846
41.60298676
43.74367058
38.67021963
38.57305851
46.39469031
46.40640824
47.07570284
43.61059238
44.72021846
44.13158051
46.79512143
46.97318271
46.83258003
46.88307058
44.48911709
43.5943102
45.04651446
44.18684955
46.43894136
46.42766796
43.54761331
35.87549717
38.07689965
37.94126681
38.37674944
38.25395096
36.05165062
34.0130315
33.90701177
34.31208199
34.21734404
33.70577608
33.67541095
34.17611048
36.71140927
35.99372845
37.66059388
37.38298661
35.20773257
35.98068153
34.75057368
35.28517125
35.58819884
38.17696389
35.67372345
35.83300514
35.40625519
35.60068232
38.09827785
34.67013782
34.564554
35.08018481
34.96644845
49.9873388
41.81616696
42.58041415
40.76143444
41.17215392
50.52561125
49.47429222
49.09114666
43.59546119
46.03380789
50.78391305
59.59537835
45.46181551
47.83846107
41.70838473
43.5111753
60.59696589
32.54355748
32.48617864
32.63380831
32.59441721
32.87335583
33.15506738
34.95315635
32.30000213
32.25452626
32.43282371
32.36820603
33.10706643
34.57740224
34.47527823
34.76017013
34.66183913
33.17278222
32.86251676
34.18386021
34.02051794
34.39209347
34.28248006
32.90903609
55.62221341
33.65484066
33.37370869
32.05736641
69.85885955
94.29003553
99.62724686
93.79649863
94.72782811
74.93049636
31.97672045
73.3313208
53.33730898
57.42361023
32.74335586
32.06163499
32.12180154
70.31886063
78.11571333
75.99948402
62.04260322
68.46804623
83.01656321
78.44405532
51.3870481
74.18573557
64.88041572
32.16552413
31.8902944
32.25462324
36.68192077
36.69983207
36.81405987
36.70775579
36.74191528
36.83473403
36.75595121
36.81338584
36.87032932
36.83617326
36.91413231
36.92085342
36.93667891
36.9961768
36.97442782
37.00888529
37.03742343
37.00669922
37.04118821
37.03625582
37.00726111
37.02957446
36.99175017
36.97760779
36.97461217
36.90964325
36.92495649
36.88660522
36.81891395
36.87702454
36.53131941
36.56994571
36.6645007
36.58777812
36.66517112
36.7159701
36.70203797
36.82576674
36.80640245
36.86937289
36.99262761
36.92368802
37.02584051
37.10596782
37.01134157
37.12361184
37.15323346
37.05705006
37.15231434
37.13429319
37.053035
37.12161864
37.06496222
37.00391535
37.04037216
36.94916036
36.91319863
36.91449584
36.80711143
36.80814238
36.40257354
36.48409896
36.54315392
36.52492471
36.68732752
36.66267572
36.74902709
36.94930769
36.84526972
37.01671533
37.20158306
37.03071345
37.25576098
37.3872323
37.15441394
37.4053441
37.4200106
37.20185208
37.40432105
37.3545713
37.17513447
37.32795183
37.230062
37.09568883
37.19149358
37.06109992
36.97009106
37.01384694
36.86350286
36.81427318
36.30592749
36.46733912
36.47231054
36.54013705
36.79460872
36.70661005
36.89251671
37.21930666
37.00115381
37.33081713
37.66479041
37.28487671
37.76062848
37.99782112
37.48956655
38.02724524
38.02789091
37.51742104
37.9462157
37.79639077
37.44067371
37.73525985
37.54026737
37.29170058
37.47399654
37.27383678
37.10394242
37.20552532
36.99748104
36.88867243
36.25575431
36.50810853
36.47389706
36.612503
36.99561558
36.83631753
37.14635354
37.67947831
37.31286115
37.88243281
38.59291806
37.82827476
38.85383915
39.72468181
38.21759331
39.7638729
39.52518053
38.20987677
39.17875398
38.65844816
37.96491451
38.49160871
38.07114111
37.64880578
37.94797673
37.62121189
37.34697989
37.51611154
37.21316305
37.04209697
36.24318418
36.58269593
36.52404525
36.72434317
37.26214045
37.05515735
37.4850204
38.3293454
37.8268739
38.69088464
40.6763526
38.92130809
39.97380234
40.5953025
39.59987988
41.22256354
41.29208805
40.09898674
40.6872188
40.00540139
39.54215623
39.78802743
38.88240503
38.24380341
38.65865599
38.10692368
37.73015381
37.94826005
37.51585438
37.27885901
36.25144559
36.67220596
36.60010158
36.85228758
37.54562462
37.32770949
37.8394794
38.99532289
38.50327721
39.12278416
39.66179918
39.3984911
41.9957702
42.6547631
42.21074169
44.44567119
43.09820551
41.81549636
41.54394721
39.93053749
39.11716068
39.57216611
38.73167552
38.25747265
38.50160988
37.89043319
37.60150509
36.27334337
36.77471991
36.69732782
36.99039501
37.81782478
37.61576264
38.16738982
39.52704383
39.14139986
39.84001723
40.53044951
40.34518864
43.86850374
44.96835695
44.79321945
48.72797866
46.11241367
45.01402565
43.27008411
41.03511665
40.18661597
40.54618382
39.40499548
38.88418447
39.09838272
38.3008946
37.98883206
36.30625989
36.88505213
36.80175934
37.1328781
38.07279869
37.88314925
38.46468173
39.96016628
39.64148975
40.37508358
41.14089279
41.00088025
44.75477154
45.90330784
45.90474937
51.29256988
48.27171108
47.58625057
44.62941752
42.02552339
41.26972319
41.43746122
40.0643459
39.55625124
39.68565835
38.70867969
38.40160897
36.34674755
36.9998519
36.9141508
37.27702367
38.31641659
38.13521934
38.74469925
40.36191471
40.06027893
40.83945767
41.67377783
41.5373637
44.8338226
45.34658216
45.5055848
52.49253219
49.4942092