/*--------------------------------*- C++ -*----------------------------------*\
| =========                 |                                                 |
| \\      /  F ield         | OpenFOAM: The Open Source CFD Toolbox           |
|  \\    /   O peration     | Version:  v1912                                 |
|   \\  /    A nd           | Website:  www.openfoam.com                      |
|    \\/     M anipulation  |                                                 |
\*---------------------------------------------------------------------------*/
FoamFile
{
    version     2.0;
    format      ascii;
    class       surfaceScalarField;
    location    "1.63";
    object      meshPhi;
}
// * * * * * * * * * * * * * * * * * * * * * * * * * * * * * * * * * * * * * //

dimensions      [0 3 -1 0 0 0 0];
oriented        oriented;


internalField   nonuniform List<scalar> 
25162
(
0
0
0
0
0
0
0
0
0
0
0
0
0
0
0
0
0
0
0
0
0
0
0
0
0
0
0
0
0
0
0
0
0
0
0
0
0
0
0
0
0
0
0
0
0
0
0
0
0
0
0
0
0
0
0
0
0
0
0
0
0
0
0
0
0
0
0
0
0
0
0
0
0
0
0
0
0
0
0
0
0
0
0
0
0
0
0
0
0
0
0
0
0
0
0
0
0
0
0
0
0
0
0
0
6.747678254e-09
1.779343161e-08
-1.992276501e-07
0
-1.320825316e-08
1.694065644e-07
0
0
0
0
0
0
0
0
0
0
0
0
0
0
0
0
0
0
0
0
0
0
0
0
0
0
0
0
0
0
0
0
0
0
0
0
0
0
0
0
0
0
0
0
0
0
0
0
0
0
0
0
0
0
0
0
0
0
0
0
0
0
0
0
0
0
-3.160208647e-08
-4.062148644e-07
2.917706403e-06
2.508280831e-06
-1.141323019e-05
-2.056004452e-05
2.668894043e-05
2.884428864e-05
-1.458012253e-05
-5.427499377e-05
2.512698816e-05
6.165682558e-05
2.286408843e-06
-7.531721062e-05
-4.500390326e-06
7.592574219e-05
1.431564315e-05
-6.384463996e-05
-2.573570084e-05
5.55926568e-05
6.78883162e-06
-2.504069581e-05
-1.809454252e-05
1.55306453e-05
0
-4.421395743e-07
-4.376152337e-07
0
0
0
0
0
0
0
0
0
0
0
0
0
0
0
0
0
0
0
0
0
0
0
0
0
0
0
0
0
0
0
0
0
0
0
0
0
0
0
0
0
0
0
0
0
0
0
0
0
0
0
-1.541734848e-06
-1.099117403e-06
8.002128841e-06
7.515281028e-06
-5.837040953e-05
-5.98315855e-05
9.198736927e-05
8.412165354e-05
-0.0001055357867
-0.0001668461255
0.0001394233677
0.00019588019
-6.528942959e-05
-0.0002787623389
7.892511274e-05
0.0003024728789
1.889863721e-05
-0.000351099095
-2.660563564e-05
0.0003575138594
7.596878252e-05
-0.0003403888164
-9.684112674e-05
0.000321819328
7.515169674e-05
-0.0002318367176
-9.905741836e-05
0.0001938183298
3.080105399e-05
-7.997449919e-05
-4.957421257e-05
4.905515249e-05
0
-1.16530522e-06
-1.195285001e-06
0
0
0
0
0
0
0
0
0
0
0
0
0
0
0
0
0
0
0
0
0
0
0
0
0
0
0
0
0
0
0
0
0
0
0
0
0
0
0
0
0
0
0
0
0
5.077524212e-07
5.139944644e-07
-6.833054995e-05
-5.750789271e-05
0.0001003779871
9.529085489e-05
-0.0002233191545
-0.0002388917387
0.0002719694951
0.0002938156894
-0.000244223947
-0.000464110263
0.0002753762118
0.0005187766894
-0.0001115214492
-0.0006592092531
0.0001183546745
0.0006948488456
5.533237697e-05
-0.0007621094567
-6.498326483e-05
0.0007711920914
0.0001655449895
-0.000755498917
-0.0001887734351
0.0007338658777
0.0001766497535
-0.0006104793892
-0.0002032816947
0.0005497079214
0.0001291412592
-0.0003507108851
-0.000152347354
0.0002725030721
3.144955664e-05
-7.885886601e-05
-4.747528816e-05
3.849098931e-05
0
0
0
0
0
0
0
0
0
0
0
0
0
0
0
0
0
0
0
0
0
0
0
0
0
0
0
0
0
0
0
0
0
0
0
0
0
0
0
0
0
0
-1.625544203e-05
-8.221364988e-06
2.684528068e-05
3.468083987e-05
-0.0002218927722
-0.0001997626419
0.0002629901572
0.0002746788582
-0.0004198864591
-0.0005393707244
0.0004550603294
0.0006342668965
-0.0003432881264
-0.0008760547056
0.0003707110021
0.0009264678426
-0.0001260321631
-0.001053838838
0.0001270310293
0.001072609678
8.502572363e-05
-0.001094026387
-8.701487553e-05
0.001095709918
0.000257383821
-0.001099518383
-0.000274295899
0.001090086774
0.0003186626519
-0.00102806594
-0.0003436748814
0.0009638179168
0.0002106462864
-0.0006828866657
-0.0002311280976
0.0005768971191
9.80882182e-05
-0.0002604558899
-0.0001136717758
0.0001721514123
-1.12703246e-05
3.511585206e-06
-6.06091734e-06
1.717904856e-07
0
0
0
0
0
0
0
0
0
0
0
0
0
0
0
0
0
0
0
0
0
0
0
0
0
0
0
0
0
0
0
0
0
0
0
4.459175653e-07
7.098409986e-09
2.769374398e-07
-6.314367627e-05
-4.644028829e-05
7.6933482e-05
0.0001033778531
-0.0003742852634
-0.0003726943283
0.0003940916513
0.0004982968209
-0.0005375570618
-0.0008526059058
0.0005563102086
0.0009612756186
-0.0003784920873
-0.001219399894
0.000362366572
0.001279532738
-0.0001453066943
-0.00133499223
9.962113327e-05
7.934838079e-05
0.0006361007282
0.0006652286817
-0.0006316153447
3.721914072e-05
-3.739161205e-05
0.000631787816
-0.0006538731902
0.0003320861311
0.001324781055
-0.0006767603403
-0.0001620089042
-0.0001642247509
-0.001270226297
0.000386391014
-0.0004061249638
0.001229394457
0.0002875985607
-0.0009771994931
-0.0003073637587
0.0008629276277
0.0001536715308
-0.0004665542753
-0.0001650181248
0.0003415217986
-6.688849673e-05
2.537198389e-05
-3.22610994e-05
2.103490984e-05
0
0
0
0
0
0
0
0
0
0
0
0
0
0
0
0
0
0
0
0
0
0
0
0
0
0
0
0
0
0
0
0
0
-1.872067352e-06
0
4.019238319e-06
2.717343047e-06
4.254049748e-06
-0.0001059602993
-8.819998635e-05
0.0001095162655
0.0001722302278
-0.0004560252582
-0.0005435358723
0.0004637623502
0.0006897408038
-0.0005854368677
-0.00111622502
0.0005882249439
0.001236374362
-0.0003408071737
-0.001463926749
0.0003357376472
0.001483665257
-7.0536327e-05
-0.0007464312134
7.184756258e-05
0.0007451199778
-0.0007391534408
0.00014566348
-0.0001445417301
0.000738031691
-0.001473505601
0.0004490544519
-0.0004572732703
0.001447926657
0.0003412207196
-0.00120056337
-0.0003476198182
0.001072495773
0.0001887421635
-0.0006251747894
-0.0001930950914
0.0004773679375
-0.0001306933202
4.747873814e-05
-5.401310624e-05
5.700379306e-05
0
0
0
0
0
0
0
0
0
0
0
0
0
0
0
0
0
0
0
0
0
0
0
0
0
0
0
0
0
0
0
0
0
-5.226342372e-06
0
6.607368769e-06
8.169980476e-06
9.4108891e-06
-0.0001275875137
-0.0001213213731
0.0001314380686
0.0002232434147
-0.0004897341116
-0.0006564269269
0.0004949721442
0.0008235353272
-0.0005950231194
-0.001298660425
0.0005963827518
0.001426286471
-0.000328748561
-0.001642610972
0.0003277563947
0.001650564244
-6.758363524e-05
-0.0008203860235
6.757206e-05
0.0008203975987
-0.0008251663911
0.0001422574618
-0.0001418258914
0.0008247348208
-0.001657234184
0.0004702245603
-0.000472282143
0.001638745682
0.0003706037378
-0.001392959039
-0.0003753507187
0.001257552355
0.0002076651847
-0.0007668161512
-0.0002109693423
0.0005981682913
-0.0001776259099
6.180112767e-05
-6.434076051e-05
8.621204724e-05
0
0
0
0
0
0
0
0
0
0
0
0
0
0
0
0
0
0
0
0
0
0
0
0
0
0
0
0
0
0
0
0
0
-7.953623406e-06
0
9.80696298e-06
1.347971529e-05
1.53005774e-05
-0.0001410317332
-0.0001498919962
0.000144911903
0.0002674124576
-0.0005079045254
-0.0007554214252
0.0005129782327
0.0009408680033
-0.0005998306022
-0.001460544222
0.0006010672681
0.001597387228
-0.0003256379079
-0.001819080979
0.0003250056676
0.001824008237
-6.735953239e-05
-0.0009060854902
6.763394554e-05
0.000451329296
0.000454481781
-0.0009117489669
0.0001403916125
-0.0001400336454
0.0009113909998
-0.001828799968
0.0004689849672
-0.0004663247785
0.001802576152
0.0003724737928
-0.001516415841
-0.0003706335833
0.001364739409
0.0002088124773
-0.0008258433839
-0.0002078210331
0.0006435453195
-0.0001908218366
6.257252778e-05
-6.178905792e-05
9.236164693e-05
0
0
0
0
0
0
0
0
0
0
0
0
0
0
0
0
0
0
0
0
0
0
0
0
0
0
0
0
0
0
0
0
0
-1.183234481e-05
0
1.41641698e-05
2.169208782e-05
2.419714934e-05
-0.0001570538044
-0.0001853212446
0.0001613305092
0.0003201264601
-0.0005283617708
-0.0008661218244
0.0005336294293
0.001070265339
-0.0006045629815
-0.001633352788
0.0006056717872
0.00177833141
-0.0003231530808
-0.002000687481
0.0003226685877
0.002002939532
-6.733236377e-05
-0.0009958606479
6.739274949e-05
0.0004964653516
0.0004993349106
-0.0009997266293
0.0001387324579
-0.0001383329769
0.0009993271484
-0.001996217939
0.0004505428329
-0.0004424916229
0.001944992276
0.0003500431244
-0.001569591955
-0.0003502596028
0.001407849186
0.000192824067
-0.0008181286585
-0.0001889187568
0.0006254882739
-0.0001643412103
5.023624123e-05
-4.754967677e-05
7.075479437e-05
0
0
0
0
0
0
0
0
0
0
0
0
0
0
0
0
0
0
0
0
0
0
0
0
0
0
0
0
0
0
0
0
0
-1.699341281e-05
0
1.804715724e-05
3.357342161e-05
3.533803992e-05
-0.0001753011874
-0.0002277632353
0.0001807626989
0.0003809898165
-0.0005502631004
-0.0009858629762
0.0005565437431
0.001208185394
-0.0006088565595
-0.001811297744
0.0006098939727
0.001962827237
-0.0003216052062
-0.002180136755
0.0003215946742
0.002180334914
-6.739763649e-05
-0.001084654169
6.736101358e-05
0.0005407552561
0.0005439355354
-0.001085161921
0.0001366972852
-0.0001365178677
0.001084982503
-0.002131118726
0.0004181373864
-0.000407778026
0.002044098624
0.0003222405301
-0.001591459393
-0.0003011171345
0.001383955115
0.0001680481599
-0.0007411124428
-0.000156820794
0.0005446494372
-0.0001151910506
3.299511116e-05
-2.853623951e-05
3.768290378e-05
0
0
0
0
0
0
0
0
0
0
0
0
0
0
0
0
0
0
0
0
0
0
0
0
0
0
0
0
0
0
0
0
0
-2.540886836e-05
0
3.348261297e-05
5.500841162e-05
6.3768378e-05
-0.0001968444802
-0.0002845795672
0.0002111646028
0.0004549876979
-0.0005774166787
-0.001124198508
0.0005838547895
0.001364657618
-0.0006126348472
-0.00200550297
0.0006193931973
0.002157214568
-0.0003214474882
-0.00235835998
0.0003222138871
0.001173276409
0.001184317172
-3.518243802e-05
-0.000584636767
3.534259394e-05
0.0005844766111
1.189147938e-05
-0.0002914294766
-1.133710281e-05
0.000583103627
-0.000292228527
-0.001168165299
0.0001355761938
-0.0002838069963
0.002347570855
-0.00117881993
0.0001476451765
0.0003804953264
-0.002211295333
-0.0003598199183
0.002073128002
0.0002660201126
-0.001520294158
-0.0002562146491
0.001297120822
0.0001317447868
-0.0006296263887
-0.0001251787243
0.0004364971281
-5.002394744e-05
1.2159454e-05
-9.632360644e-06
4.944016496e-06
0
0
0
0
0
0
0
0
0
0
0
0
0
0
0
0
0
0
0
0
0
0
0
0
0
0
0
0
0
0
0
0
0
-3.79685941e-05
0
3.111234354e-05
7.862746029e-05
7.307539962e-05
-0.0002328525801
-0.0003549918667
0.0002254457067
0.0005552806894
-0.0006072421673
-0.00129974561
0.0005976245086
0.001560060346
-0.0006087922503
-0.002223536607
0.00060748209
0.002374158787
-0.0003161032715
-0.002537466892
0.0003161032715
0.001263467249
0.001273999643
-3.332532093e-05
-0.001263467249
6.349921612e-05
-3.017389518e-05
0.0006300493317
0.0006334179177
3.73505363e-05
-0.0006300493577
-3.735049735e-05
0.001263467249
-0.0006334179307
-0.002537466892
0.0002882663266
-0.0002854286274
0.002529001089
0.0003248951487
-0.002217515253
-0.0003146879442
0.002045622518
0.0002266495982
-0.001375166932
-0.0002066244119
0.00112977394
9.617554683e-05
-0.0004583647384
-8.889046435e-05
0.0002950165263
-7.221378946e-06
1.951281797e-06
-8.902896882e-07
0
0
0
0
0
0
0
0
0
0
0
0
0
0
0
0
0
0
0
0
0
0
0
0
0
0
0
0
0
0
0
0
0
0
-1.92185486e-05
0
6.981514699e-06
3.809037349e-05
2.411784492e-05
-0.0001738270321
-0.0002696919617
0.0001494992493
0.0004557429292
-0.0005242197668
-0.001197585852
0.0004857917024
0.001470107619
-0.0005862664341
-0.002203481201
0.0005691864677
0.002388151415
-0.0003321446346
-0.002693830294
0.0003433011638
0.002716490646
-6.349921612e-05
-0.002716072572
0.000114394675
0.002716072572
-5.089545893e-05
8.730721115e-05
-0.002716072572
-8.730721111e-05
0.002716072572
0.0002653161012
-0.002661369108
-0.0002538604629
0.002581362385
0.0002688584947
-0.002113684352
-0.0002531788571
0.001894834823
0.0001658627995
-0.001149065588
-0.0001553342469
0.0009000113637
5.760713155e-05
-0.0002770851937
-4.65386436e-05
0.0001446840721
0
0
0
0
0
0
0
0
0
0
0
0
0
0
0
0
0
0
0
0
0
0
0
0
0
0
0
0
0
0
0
0
0
0
0
0
0
-1.693966727e-07
0
0
2.178197963e-07
0
-7.153552824e-05
-9.571086898e-05
4.839265448e-05
0.0002163426933
-0.0003395318574
-0.0008074807278
0.0002851045754
0.001052671321
-0.0004753669441
-0.001792866586
0.000430177448
0.002010697989
-0.0003418708643
-0.00249687119
0.0003273863002
0.00259851151
-0.0001190254132
-0.00275349226
0.0001182122491
0.002767488603
8.141500384e-05
-0.002722452544
-7.475958899e-05
0.002674129835
0.0002058768888
-0.002390366864
-0.0001860655653
0.002243971303
0.0001960131972
-0.00166761294
-0.0001748154592
0.001443867396
0.0001145937611
-0.0007636214532
-9.859593317e-05
0.000557610733
2.066823645e-05
-0.0001031488828
-1.264433733e-05
2.837839883e-05
0
0
0
0
0
0
0
0
0
0
0
0
0
0
0
0
0
0
0
0
0
0
0
0
0
0
0
0
0
0
0
0
0
0
0
0
0
0
0
0
0
0
-4.771347016e-06
-2.231696227e-07
7.704314324e-07
1.690279546e-05
-0.0001306119174
-0.0002971557675
8.838248702e-05
0.0004542148212
-0.0002699501475
-0.001017117271
0.0002150487777
0.001209284874
-0.0002467576823
-0.001707397878
0.0002114782643
0.001832970644
-0.0001025588867
-0.002061352253
9.301889514e-05
0.002087181377
4.614840137e-05
-0.002018504512
-3.608836238e-05
0.001948530485
0.0001217708469
-0.001610156727
-0.0001006787091
0.001460787317
0.0001094267628
-0.0009479790397
-8.812054356e-05
0.0007703966231
4.801327999e-05
-0.0002926755486
-3.22756725e-05
0.0001713441751
1.93682802e-07
-7.404333571e-07
0
0
0
0
0
0
0
0
0
0
0
0
0
0
0
0
0
0
0
0
0
0
0
0
0
0
0
0
0
0
0
0
0
0
0
0
0
0
0
0
0
0
0
0
0
0
0
0
-9.53883273e-06
-7.821353799e-06
1.449613369e-06
3.650373766e-05
-7.558360162e-05
-0.0002560480552
4.316816234e-05
0.000356796536
-0.0001030937693
-0.0006661380517
7.163446452e-05
0.0007557545545
-5.555906192e-05
-0.0009365038096
4.208704883e-05
0.0009611127675
1.25285647e-05
-0.0009209682952
-7.706449453e-06
0.0008718937611
4.553012195e-05
-0.0006417274172
-3.106846213e-05
0.00054628222
3.17127516e-05
-0.000253020414
-1.754685291e-05
0.000167018855
1.763570603e-06
-9.642657615e-06
-5.015563326e-09
1.0408486e-07
0
0
0
0
0
0
0
0
0
0
0
0
0
0
0
0
0
0
0
0
0
0
0
0
0
0
0
0
0
0
0
0
0
0
0
0
0
0
0
0
0
0
0
0
0
0
0
0
0
0
0
0
0
0
-2.215105155e-07
0
0
1.338301599e-06
-9.21592264e-06
-3.676531539e-05
1.435508946e-06
5.700351051e-05
-9.194483973e-06
-0.0001110021576
3.080403224e-06
0.0001204306082
8.81678268e-07
-0.0001115388197
-2.319910557e-07
9.717727987e-05
3.343589834e-06
-3.852685525e-05
-2.834915407e-07
2.122526245e-05
0
0
0
0
0
0
0
0
0
0
0
0
0
0
0
0
0
0
0
0
0
0
0
0
0
0
0
0
0
0
0
0
0
0
0
0
0
0
0
0
0
0
0
0
0
0
0
0
0
0
0
0
0
0
0
0
0
0
0
0
0
0
0
0
0
0
0
0
0
0
0
0
0
0
0
0
0
0
0
0
0
0
0
0
0
0
0
0
0
0
0
0
0
0
0
0
0
0
0
0
0
0
0
0
0
0
0
0
0
0
0
0
0
0
0
0
0
0
0
0
0
0
0
0
0
0
0
0
0
0
0
0
0
0
0
0
0
0
0
0
0
0
0
0
0
0
0
0
0
0
0
0
0
0
0
0
0
0
0
0
0
0
0
0
0
0
0
0
0
0
0
0
0
0
0
0
0
0
0
0
0
0
0
0
0
0
0
0
0
0
0
0
0
0
0
0
0
0
0
0
0
0
0
0
0
0
0
0
0
0
0
0
0
0
0
0
0
0
0
0
0
0
0
0
0
0
0
0
0
0
0
0
0
0
0
0
0
0
0
0
0
0
0
0
0
0
0
0
0
0
0
0
0
0
0
0
0
0
0
0
0
0
0
0
0
0
0
0
0
0
0
0
0
0
0
0
0
0
0
0
0
0
0
0
0
0
0
0
0
0
0
0
0
0
0
0
0
0
0
0
0
0
0
0
0
0
0
0
0
0
0
0
0
0
0
0
0
0
0
0
0
0
0
0
0
0
0
0
0
0
0
0
0
0
0
0
0
0
0
0
0
0
0
0
0
0
0
0
0
0
0
0
0
0
0
0
0
0
0
0
0
0
0
0
0
0
0
0
0
0
0
0
0
0
0
0
0
0
0
0
0
0
0
0
0
0
0
0
0
0
0
0
0
0
0
0
0
0
0
0
0
0
0
0
0
0
0
0
0
0
0
0
0
0
0
0
0
0
0
0
0
0
0
0
0
0
0
0
0
0
0
0
0
0
0
0
0
0
0
0
0
0
0
0
0
0
0
0
0
0
0
0
0
0
0
0
0
0
0
0
0
0
0
0
0
0
0
0
0
0
0
0
0
0
0
0
0
0
0
0
0
0
0
0
0
0
0
0
0
0
0
0
0
0
0
0
0
0
0
0
0
0
0
0
0
0
0
0
0
0
0
0
0
0
0
0
0
0
0
0
0
0
0
0
0
0
0
0
0
0
0
0
0
0
0
0
0
0
0
0
0
0
0
0
0
0
0
0
0
0
0
0
0
0
0
0
0
0
0
0
0
0
0
0
0
0
0
0
0
0
0
0
0
0
0
0
0
0
0
0
0
0
0
0
0
0
0
0
0
0
0
0
0
0
0
0
0
0
0
0
0
0
0
0
0
0
0
0
0
0
0
0
0
0
0
0
0
0
0
0
0
0
0
0
0
0
0
0
0
0
0
0
0
0
0
0
0
0
0
0
0
0
0
0
0
0
0
0
0
0
0
0
0
0
0
0
0
0
0
0
0
0
0
0
0
0
0
0
0
0
0
0
0
0
0
0
0
0
0
0
0
0
0
0
0
0
0
0
0
0
0
0
0
0
0
0
0
0
0
0
0
0
0
0
0
0
0
0
0
0
0
0
0
0
0
0
0
0
0
0
0
0
0
0
0
0
0
0
0
0
0
0
0
0
0
0
0
0
0
0
0
0
0
0
0
0
0
0
0
0
0
0
0
0
0
0
0
0
0
0
0
0
0
0
0
0
0
0
0
0
0
0
0
0
0
0
0
0
0
0
0
0
0
0
0
0
0
0
0
0
0
0
0
0
0
0
0
0
0
0
0
0
0
0
0
0
0
0
0
0
0
0
0
0
0
0
0
0
0
0
0
0
0
0
0
0
0
0
0
0
0
0
0
0
0
0
0
0
0
0
0
0
0
0
0
0
0
0
0
0
0
0
0
0
0
0
0
0
0
0
0
0
0
0
0
0
0
0
0
0
0
0
0
0
0
0
0
0
0
0
0
0
0
0
0
0
0
0
0
0
0
0
0
0
0
0
0
0
0
0
0
0
0
0
0
0
0
0
0
0
0
0
0
0
0
0
0
0
0
0
0
0
0
0
0
0
0
0
0
0
0
0
0
0
0
0
0
0
0
0
0
0
0
0
0
0
0
0
0
0
0
0
0
0
0
0
0
0
0
0
0
0
0
0
0
0
0
0
0
0
0
0
0
0
0
0
0
0
0
0
0
0
0
0
0
0
0
0
0
0
0
0
0
0
0
0
0
0
0
0
0
0
0
0
0
0
0
0
0
0
0
0
0
0
0
0
0
0
0
0
0
0
0
0
0
0
0
0
0
0
0
0
0
0
0
0
0
0
0
0
0
0
0
0
0
0
0
0
0
0
0
0
0
0
0
0
0
0
0
0
0
0
0
0
0
0
0
0
0
0
0
0
0
0
0
0
0
0
0
0
0
0
0
0
0
0
0
0
0
0
0
0
0
0
0
0
0
0
0
0
0
0
0
0
0
0
0
0
0
0
0
0
0
0
0
0
0
0
0
0
0
0
0
0
0
0
0
0
0
0
0
0
0
0
0
0
0
0
0
0
0
0
0
0
0
0
0
0
0
0
0
0
0
0
0
0
0
0
0
0
0
0
0
0
0
0
0
0
0
0
0
0
0
0
0
0
0
0
0
0
0
0
0
0
0
0
0
0
0
0
0
0
0
0
0
0
0
0
0
0
0
0
0
0
0
0
0
0
0
0
0
0
0
0
0
0
0
0
0
0
0
0
0
0
0
0
0
0
0
0
0
0
0
0
0
0
0
0
0
0
0
0
0
0
0
0
0
0
0
0
0
0
0
0
0
0
0
0
0
0
0
0
0
0
0
0
0
0
0
0
0
0
0
0
0
0
0
0
0
0
0
0
0
0
0
0
0
0
0
0
0
0
0
0
0
0
0
0
0
0
0
0
0
0
0
0
0
0
0
0
0
0
0
0
0
0
0
0
0
0
0
0
0
0
0
0
0
0
0
0
0
0
0
0
0
0
0
0
0
0
0
0
0
0
0
0
0
0
0
0
0
0
0
0
0
0
0
0
0
0
0
0
0
0
0
0
0
0
0
0
0
0
0
0
0
0
0
0
0
0
0
0
0
0
0
0
0
0
0
0
0
0
0
0
0
0
0
0
0
0
0
0
0
0
0
0
0
0
0
0
0
0
0
0
0
0
0
0
0
-0.0008104436252
0.000810489691
-6.762970102e-05
-0.0001308623939
0.0008126057558
0.0001313039958
-0.0004086451891
-0.0004044021686
0.0001377178606
-0.000742317034
-0.0001345542675
-0.0008950267099
-6.717508078e-05
0.0004462838695
0.0004485583888
-0.0001275018361
0.0009016149075
0.0001279818261
-0.0004523857914
-0.0004497091061
-0.0001294663541
-0.0004147523889
-0.0004118100421
-0.0009846552662
-6.722479311e-05
0.0004909987839
0.0004935489116
-0.0001262645669
0.0009877611478
0.000125672287
-0.0004947836264
-0.0004923852416
-0.0001271473528
-0.0004568692598
-0.0004552341904
-0.001073243997
-6.723466404e-05
0.0005352031786
0.0005378778464
-0.0001233211869
0.001073584978
0.0001240917157
-0.001074355506
-0.001000250128
-0.0001257410681
-0.000582401319
0.0005824050463
-3.518616526e-05
0.0002912735148
-4.965992424e-06
5.055703893e-06
-0.0002913632262
-0.0002905750223
0.0005811478267
1.259218972e-05
-0.000122082816
0.001158608373
0.0001221319179
-0.001158657475
-0.001085528394
-0.0001229547137
-0.0006278518411
0.0006278518411
-3.332532094e-05
0.0006278519133
-1.394793588e-05
1.394807965e-05
-0.0006278520571
-0.0002917590281
-4.636440987e-06
0.001252340264
-0.0005731186149
-1.322551875e-05
-7.936811857e-07
-0.0002149142446
0.002461397022
-0.001248492902
-0.001230094191
0.0001106336395
0.0001214706756
-0.001168217123
-0.0001220309919
-0.0007348902405
0.0007344724917
-7.011857819e-05
2.396532987e-05
-0.000631841714
-2.373896055e-05
0.0007314907924
0.0001363659528
-0.0007301388846
0.0001415368508
-0.0006480849379
-0.0001473251031
-2.118931146e-05
0.0001952764306
2.126027968e-05
-0.0001953473988
0.0003735913334
4.663182516e-05
-0.0003745794092
-4.564374942e-05
0.0008122735064
0.0001425897112
-0.0004461741679
0.00160967719
0.0004481059979
-0.001612060679
0.0004454587685
-0.001480106208
-0.0004447353446
-0.001774212316
0.001779740926
-0.0003262382228
7.984619545e-05
-7.982729207e-05
-0.0008950456133
-8.003480213e-05
-0.0008202984172
7.994719581e-05
-2.347751179e-05
0.0002154644118
2.332991525e-05
-0.0002153168153
2.106686879e-05
0.0002056569888
-0.0002056295504
-2.109430722e-05
0.0009013556265
0.0001406508935
-0.0004431595621
0.001788114002
0.0004441150158
-0.001789161736
-0.001658185753
-0.0004453849275
-0.001955748168
0.001958604999
-0.0003236894268
7.972081392e-05
-7.970269563e-05
-0.0009846733845
-0.0009061016599
7.986236518e-05
6.748174826e-05
-0.0009405798821
-6.746507416e-05
0.0004688020115
0.0004717611965
1.373657541e-05
0.0002362402315
-1.370120738e-05
-0.0004717579118
0.0002354823123
-1.362511569e-05
0.0002249945466
-0.000451182754
1.378577308e-05
0.00022602755
-2.043399129e-05
0.0002377263712
2.054801409e-05
-0.000237840394
2.188137868e-05
0.0002269905518
-0.0002264652351
-2.240669535e-05
0.0009877718828
0.0001387217229
-0.0004350918139
0.001954254589
0.0004385597241
-0.001961449503
-0.001830247778
-0.0004420232667
-0.002134849067
0.002135552384
-0.0003217712791
7.964721792e-05
-7.963318913e-05
-0.001073258026
-0.000995828421
7.968858706e-05
6.700821111e-05
-0.001029253871
-6.72343191e-05
0.0005134223111
0.0005160576676
6.415283406e-06
0.0002584033301
-6.383254692e-06
-0.0002584353588
-1.382082414e-05
0.0002478663975
-0.000496493876
1.376635117e-05
0.0002486819514
-3.853872908e-05
0.0005169141371
3.875492446e-05
-0.0005171303325
3.962781596e-05
0.0004987720171
-3.854132971e-05
-0.0002505356699
-0.0002493228334
-0.002313978932
-0.0003216709855
0.001151552724
0.001162649705
7.976583453e-05
0.0005801011594
-7.958740233e-05
-0.001162680911
-0.001084671905
7.96649544e-05
3.518078363e-05
-0.0005606922625
0.0005607540595
-3.524258065e-05
5.62914517e-06
0.0002810624501
-5.848136356e-06
-0.0002808434589
-6.065929679e-06
0.0002697012709
-0.0002697648734
6.129532113e-06
-0.0002828942489
-7.60305838e-06
0.0002820833434
8.413963869e-06
-3.709650513e-05
0.000560548251
3.696877091e-05
-0.0005604205168
3.799241051e-05
0.0005415398268
-0.0005415595423
-3.7972695e-05
-0.002436060502
-0.0003160434821
0.001183660448
0.001252340264
7.61085152e-05
0.0006244884233
-7.610851521e-05
-0.001252340264
0.0005885727637
-0.001173201065
7.975736933e-05
3.517030353e-05
-0.0006047443019
0.000604689708
-3.51157096e-05
6.274212805e-06
0.0003011682656
-5.636528773e-06
-0.0003018059496
-5.229165329e-06
0.0002907690662
-0.0002910177504
5.477849561e-06
-0.001341345808
0.001341345808
-6.349921612e-05
0.001341345808
-2.474401862e-05
2.47440186e-05
-0.001341345808
-0.0006300494397
-1.394785385e-05
-1.056548223e-05
-0.0003881665787
1.088734451e-05
0.0001933348752
0.0001945098412
1.035031492e-05
-0.0004063026958
-1.036927831e-05
0.0002030811692
0.00020324049
-0.0003740133726
-1.75118036e-05
1.836249833e-05
0.0003731626779
-0.0003864436536
0.0003867345475
-1.08563761e-05
0.0002050364227
2.101112268e-05
-0.0002049806766
0.0001954141123
-0.000195589979
-2.101344472e-05
0.0001326317449
0.0007822553671
-0.0001318036577
-0.0003936864001
-0.0003893970542
4.631837359e-05
-0.0001956144429
-4.562068052e-05
0.0003903308621
-2.190452041e-05
0.0002050651082
2.187583491e-05
0.0002242256083
-1.342280471e-05
-0.0004484139129
0.0002239859936
0.0004297137185
-1.357046773e-05
-0.0004297508657
1.360761491e-05
-6.740109946e-05
-0.0008627502582
6.742393887e-05
0.0008627274188
-1.039204998e-05
1.066337153e-05
0.0002144403933
0.0002150020037
5.617206939e-06
0.0002242276133
-5.619211944e-06
-0.0004085820149
1.053840801e-05
0.000203777524
0.0002046163978
-0.0004273759441
-1.048053695e-05
0.0002135263045
0.0002139381266
0.0002258953173
2.131152736e-05
-0.000225325466
0.0002168741205
-0.0002165792303
-2.377240199e-05
6.598033457e-05
0.0004336708793
-0.0004337662111
-6.588500276e-05
2.39505406e-05
-2.40191894e-05
0.0002169427693
-2.223884021e-05
0.0002262361066
2.18980509e-05
-2.189628937e-05
0.0002056487578
0.0002156132446
2.380170778e-05
0.000430265784
6.59890156e-05
-0.0004302744651
0.000247031069
-1.365484304e-05
-0.0004934480796
0.0002462510295
0.0002371443425
-0.0004749504025
1.357289804e-05
0.0002379697374
-0.0009520604214
6.723748736e-05
0.0004748480688
0.0004774566135
-5.540489382e-06
5.500750993e-06
0.0002371840808
5.761182528e-06
0.000246998423
-5.728536523e-06
5.651888777e-06
0.0002249598648
0.0002362919883
-5.592246173e-06
0.0004953466156
3.953851508e-05
-0.0002479763469
-0.0002472809678
0.0002383037991
-0.0002382524131
-2.048537729e-05
0.0001258652745
0.0009546568569
-0.0001259399865
-0.0004783079114
-0.0004762742336
4.322114175e-05
-0.0002383046806
-4.283338155e-05
0.0004762207195
-4.261386583e-05
0.0004952688159
4.269166555e-05
-2.257364253e-05
0.0002273253541
-0.0002366728015
0.0004738948259
2.135320322e-05
2.237228533e-05
0.0009439782982
0.000126711863
-0.0004737086902
-0.0004711161965
0.0002689970933
-6.046776769e-06
-0.0002690162462
0.0002590500804
-0.0002590318883
6.397091339e-06
-0.001039588524
6.731092909e-05
0.0005185000099
0.0005207857957
-5.542483296e-06
5.659701285e-06
0.0002589328624
4.973796298e-06
0.0002688904595
-4.867162541e-06
5.755636278e-06
0.0002478719438
0.0002583825266
-5.52167979e-06
0.000539120254
3.806134978e-05
-0.0005391891933
0.0005200594885
-0.0005200727266
-3.852549094e-05
0.0002911536093
-5.066897926e-06
-0.0002913158767
0.0002814196369
-0.0002815066064
5.71611471e-06
-0.0005633176517
3.517387436e-05
0.000563324561
5.180272937e-06
0.000281634341
-0.0002807184884
-6.096125555e-06
-4.469192286e-06
4.584904384e-06
0.0002813039248
4.596215083e-06
0.0002908087004
-4.251306185e-06
5.126752207e-06
0.000269548315
0.0002811934746
-4.600216822e-06
6.715688306e-06
-0.0002844296643
-7.090924771e-05
0.001158407262
7.079456109e-05
-0.0005801592609
-0.0005781333147
0.0005628097945
-0.0005626545082
-3.725179141e-05
-7.594353965e-06
0.0002816256366
0.000633053284
1.299655047e-05
-0.0006301964879
-8.915914865e-06
-6.937431704e-06
0.000301878144
-0.0003022083499
6.604418713e-06
-0.0006073087839
3.52860251e-05
0.0006071930623
4.188266476e-06
0.0006001546498
-0.0006006134338
-3.729482473e-06
-5.816138615e-06
6.051723471e-06
0.0003016425591
8.10290104e-06
0.0006330183282
-6.143077e-06
-1.92486824e-06
4.962014053e-06
0.0002904032672
-5.34477246e-06
0.0003006968994
0.0005978732326
5.002014693e-06
-0.0005986869809
-0.001598299871
0.001608018646
-0.0003304133072
-8.012137346e-05
-0.0008103570539
-8.275993897e-05
-0.0007454476913
8.177641695e-05
6.855489977e-05
-0.0007706893778
0.0007706070089
-6.847253094e-05
1.381406533e-05
-1.385914108e-05
-0.0003863985778
-1.573044958e-05
-0.0003751565104
1.687358737e-05
-3.494100838e-05
0.0001875430989
3.734371151e-06
-0.0001563364616
0.0001915077218
1.94500343e-05
-0.0001941429659
-1.681479014e-05
-0.0008520970334
0.0008521952598
-6.749932593e-05
-1.357731057e-05
-0.0004273691013
-1.364996112e-05
-0.0004085830366
1.365098279e-05
-8.032477104e-05
0.0002559769889
3.448103207e-05
-0.0002101332499
0.001073210573
0.00013707169
-0.0004150954898
0.002102636263
0.0004220743833
-0.002135534628
-0.002006007639
-0.0004322660133
-7.830357013e-05
0.0002763607553
2.91624398e-05
-0.000227219625
-2.483516087e-05
0.0005498192029
2.519937383e-05
-0.0002754048219
-0.000274778594
1.313165648e-05
0.0002705252816
-0.0002704834912
-1.317344687e-05
-9.351288194e-06
0.0005974440095
9.7805113e-06
-7.603320152e-05
0.001198065761
7.363697445e-05
-0.001195669534
0.001168237466
-7.111404704e-05
-0.0005851405471
-0.0005828921192
-1.36411104e-05
-0.0004063115465
-0.0003881886844
1.383617104e-05
-0.0007771079258
6.804267121e-05
0.0007776201543
-1.430884197e-07
-0.0001990194354
-2.42735399e-07
0.0001994052592
-0.0001927062048
-6.853756461e-06
4.254010165e-06
0.0001953059511
-0.0001908012561
1.874883207e-06
0.0001911139848
-2.187611902e-06
5.20548529e-05
-4.896316767e-05
0.0003704996482
-0.0001938848287
0.0003883593395
4.712029344e-05
0.0007705573168
0.00013112826
-0.0003861364484
-0.0003829173834
0.0002703067549
1.335141783e-05
-0.0002705265163
1.614818399e-05
0.0002656788099
-0.0002664550345
-1.537195933e-05
0.0001250732066
0.001041019577
-0.001041442884
-0.0001246499003
4.200352149e-05
-4.179614389e-05
0.0005198521109
-4.128934875e-05
0.0005389629658
4.144663697e-05
-4.227086785e-05
0.0004984290192
0.0005169078986
4.200976001e-05
0.001031439844
0.0001252496227
-0.00103161626
7.975615572e-06
0.0002874693519
-0.0002884554218
-6.989545676e-06
-0.0002945574826
-4.044378612e-06
0.0002944968771
4.104984102e-06
-6.270725165e-06
0.0005898640504
6.522029382e-06
-0.0002950722288
-0.0002950431258
0.0003366363272
1.165689483e-05
-0.0003366444066
-1.164881544e-05
-0.0007297587363
-3.406223389e-05
2.709527512e-05
2.019747232e-05
0.0003539301569
0.0003625980659
-0.000367821158
0.0003754478399
-2.513848547e-05
0.0003698984389
4.711904686e-05
-0.0003703856606
0.0007128552376
0.0001032587405
-0.0003585387984
-0.0003414443045
-5.312957269e-05
-6.300130244e-05
2.193545408e-05
-2.2422748e-05
0.0003371236211
0.0002383951917
-0.0002733362001
4.377230018e-05
0.00038238357
-4.304009332e-05
-0.0001917641127
-0.0001913516642
1.956547357e-05
2.585308417e-05
0.000192976634
1.81216489e-05
-1.682086252e-05
0.0001902069354
0.0001919837208
1.512485163e-05
0.0003782313092
4.258677713e-05
-0.0001891491328
-0.0001878966533
2.059562797e-05
0.0002108025764
-0.0002108309751
-2.056722927e-05
0.0002104853816
2.068004421e-05
-0.0002105697979
2.01506441e-05
0.0002333137797
-0.0002332090489
-2.025537488e-05
0.0002333475359
2.04964863e-05
-0.0002336933781
0.0002584613001
-1.613735843e-05
1.430625682e-05
-0.0002566301984
0.0002605956208
-0.0003309649391
-9.955452688e-06
3.909754816e-05
0.000508480537
-0.0005084834663
-3.909461887e-05
1.914748645e-05
-1.55676663e-05
0.0002570158006
-1.681104176e-05
0.0002589726386
1.629970322e-05
1.717374875e-05
-3.440231276e-05
0.0002464173268
-0.0002291887627
0.0002545524197
2.057205568e-05
0.0005061124962
3.916670129e-05
-0.0002533568313
-0.000252824818
0.000275700541
-6.728617708e-06
-0.0002757708378
6.798914554e-06
-2.297688761e-05
-0.0005518310327
2.301672503e-05
0.0005517911953
2.299697985e-05
-0.000560676655
0.0005607367795
-2.305710431e-05
-2.379633474e-05
0.0005603806951
2.399011115e-05
-0.0005605744716
0.0005523812827
-2.44343052e-05
-0.0002768210521
-0.0002759610863
-0.0003558534989
-4.018978839e-06
0.0002815689076
-7.745788593e-06
0.0002972123576
-0.000297508109
8.041540016e-06
-2.317597258e-05
-0.0005961061302
2.323813059e-05
0.0005960439722
2.324198568e-05
-0.0006046386515
-2.296908265e-05
0.0003017969117
0.0003025688368
-2.309418433e-05
-0.0005843935322
2.323724344e-05
0.0005842504731
-0.0005932776204
0.0005932378165
-2.313616869e-05
0.0002957889647
-7.338795068e-06
-0.0002961959582
-0.0001983509974
-1.844468314e-06
-4.853713835e-05
0.0002487326041
-0.0001975063684
2.732318522e-08
0.0001973359568
1.074484397e-05
-0.0003961989106
-1.06013669e-05
0.0001973823457
0.0001986730879
5.16667084e-07
-1.762880434e-07
-0.0001978467475
-3.988105137e-07
-0.0001965875696
-1.364617342e-06
-2.311369844e-06
1.409697181e-05
-0.0002036242895
0.0001918386875
-0.0001992454679
7.426996036e-07
-0.0003993438971
1.030017986e-05
0.0001997828023
0.0002000057589
1.172591657e-05
-0.0003824930645
0.0003827223012
-1.195515325e-05
1.252964451e-06
-1.031421097e-06
-0.0001910227994
-1.172909519e-05
-0.0001867981802
5.821070597e-06
0.0001957529374
-1.066487453e-06
-0.0001950852604
0.0001911415803
-0.0001912201515
1.331535698e-06
-0.0003822309054
1.149379221e-05
0.0003824630298
6.710118398e-07
0.0001923454516
0.0001955337886
-1.625319579e-06
2.154489255e-05