/*--------------------------------*- C++ -*----------------------------------*\
| =========                 |                                                 |
| \\      /  F ield         | OpenFOAM: The Open Source CFD Toolbox           |
|  \\    /   O peration     | Version:  v1912                                 |
|   \\  /    A nd           | Website:  www.openfoam.com                      |
|    \\/     M anipulation  |                                                 |
\*---------------------------------------------------------------------------*/
FoamFile
{
    version     2.0;
    format      ascii;
    class       volScalarField;
    location    "1.63";
    object      omega;
}
// * * * * * * * * * * * * * * * * * * * * * * * * * * * * * * * * * * * * * //

dimensions      [0 0 -1 0 0 0 0];


internalField   nonuniform List<scalar> 
12556
(
31.93050469
31.93131771
31.93220845
31.93305194
31.96657263
31.96708008
31.96743081
31.96807873
31.96939506
31.97188165
31.97597539
31.98130846
31.98621828
31.98901209
31.98736807
31.98297094
31.97780291
31.97293703
31.97054847
31.9683338
31.93505881
31.93368764
31.93247005
31.93140561
31.79322966
31.79563697
31.79829371
31.80078646
31.83498004
31.83675596
31.83864185
31.85736031
31.86348871
31.87510651
31.8942766
31.91976038
31.9435921
31.95704006
31.95214113
31.93261693
31.90783316
31.88630986
31.85593368
31.8449001
31.8068723
31.80310629
31.79973294
31.7966983
31.65749915
31.66184208
31.66647525
31.67042828
31.70518618
31.7084628
31.71273414
31.73522455
31.7503537
31.77840777
31.82636964
31.88793021
31.93503717
31.95978209
31.9485648
31.90699367
31.85225781
31.80389134
31.7520625
31.72828998
31.68368756
31.67615296
31.67016541
31.66506355
31.52343511
31.52919278
31.53542137
31.54086667
31.57656
31.58210591
31.59101307
31.62152756
31.6536448
31.71937458
31.8278565
31.964757
32.0613565
32.08843842
32.0368514
31.95079876
31.84942795
31.7552264
31.66942864
31.62425664
31.56579133
31.55323716
31.54406607
31.53685799
31.39129746
31.39888725
31.40690087
31.41384178
31.45040182
31.45898047
31.47459834
31.51805407
31.58860508
31.73217293
31.99094891
32.33020155
32.61103285
32.58834127
32.38009849
32.15241487
31.94953706
31.76523649
31.61882323
31.53792017
31.45643169
31.43476829
31.42077727
31.41073263
31.26068406
31.26965356
31.27922198
31.2879356
31.32693573
31.34067532
31.3680788
31.43292942
31.56683963
31.87892706
32.54740781
33.74505758
34.73976833
34.33329475
33.36998769
32.68455161
32.23506129
31.87236741
31.61108245
31.47280476
31.35599314
31.31944551
31.29911112
31.28579403
31.13238428
31.14302195
31.15456545
31.16543731
31.20635912
31.22715316
31.27185257
31.36986438
31.59669479
32.2356538
33.93356496
39.26818553
45.47834824
42.55975811
36.00954723
33.83728536
32.80650124
32.12165815
31.64666465
31.43069296
31.26427212
31.20794632
31.17867667
31.16131482
31.00587751
31.0180213
31.03143462
31.04491029
31.0898563
31.11978847
31.18657845
31.32293136
31.6779475
32.76225611
36.20658487
53.13735998
69.4935767
42.14017674
35.90026095
33.74758406
32.54140494
31.74777273
31.40873587
31.18097985
31.09964442
31.05902123
31.03690089
30.88258428
30.89667898
30.91277014
30.92978063
30.97854573
31.01962834
31.112118
31.288924
31.7926579
33.31614446
38.09808176
63.41360452
129.3922611
51.28241958
38.77407192
34.98879503
33.09563943
31.89825325
31.40613239
31.10598988
30.99646271
30.94201362
30.91433127
30.76224173
30.77802179
30.79659135
30.81746797
30.87296308
30.92657521
31.04661901
31.26427742
31.91325662
33.77911166
39.26942692
70.53596225
161.8962512
59.38759849
41.80775704
36.37835086
33.70881085
32.07421078
31.41491466
31.03855495
30.89906039
30.82967623
30.79585148
30.64667717
30.6646589
30.68651916
30.71273365
30.77278895
30.84031479
30.98815084
31.24951548
32.03916464
34.18434076
40.26530253
79.95044753
162.5508788
64.28621696
44.4606136
37.68800217
34.30024576
32.24427246
31.43233977
30.97808059
30.81028398
30.72532186
30.68480659
30.53454201
30.55430848
30.57905562
30.61075683
30.67748314
30.76004267
30.934727
31.24255117
32.16583641
34.56845339
41.39765683
91.15169965
150.8383771
66.47258016
46.40691524
38.72554339
34.76815887
32.38241343
31.44924937
30.92391284
30.72891527
30.62971687
30.58253989
30.42810154
30.45026128
30.47892552
30.51682694
30.58632771
30.68464738
30.88514332
31.24242807
32.29193914
34.95333685
42.87825294
101.6173597
678.4928998
130.1986915
67.07034116
47.59970186
39.48148426
35.07965824
32.47266152
31.45614423
30.8733809
30.6558332
30.54315892
30.4894904
30.32450116
30.34881923
30.38122514
30.42464101
30.50225224
30.62107893
30.85293947
31.26010045
32.45863998
35.47321469
45.2479575
151.6680216
424.8218862
121.5387603
67.01978988
48.42822317
39.84689726
35.20921004
32.51603778
31.44727645
30.82065482
30.58661054
30.46269778
30.40351538
30.22556169
30.25209902
30.28808392
30.33635932
30.41919568
30.55331253
30.80609543
31.24521809
32.48778981
35.66218081
47.7152786
491.9693428
303.9210544
114.2093718
66.75256783
48.68609632
39.95141499
35.19791963
32.50536905
31.42002162
30.76671778
30.52014751
30.3862454
30.32194871
30.1274537
30.1560939
30.19560685
30.24926994
30.33835742
30.48583042
30.75878613
31.21681499
32.4484974
35.59904343
48.7856265
639.857736
276.5797882
113.3110751
67.47342976
48.88310658
39.79477032
35.08522432
32.45725617
31.37561542
30.70498338
30.45006912
30.30951702
30.24120629
30.03269497
30.06347361
30.10619465
30.16423056
30.25832748
30.41730923
30.70969072
31.19060102
32.39250757
35.40504796
47.67704074
427.5927748
296.1968958
117.5114064
68.72671259
48.87159752
39.48966146
34.93185896
32.37967759
31.3164031
30.63777056
30.37812097
30.23151566
30.15973452
29.93639028
29.9690679
30.01492531
30.07794829
30.17809499
30.34685164
30.65685368
31.17263027
32.38569009
35.29364499
46.65379632
287.291373
329.4663237
122.1805596
69.06898883
48.30292135
39.10305995
34.75089443
32.27882635
31.23843901
30.55916318
30.29716185
30.14788479
30.07348206
29.84256463
29.87703268
29.9256305
29.99239888
30.09677565
30.27395366
30.60003518
31.14903087
32.4369907
35.48744928
47.51990366
251.081517
326.1570345
120.9380391
67.52702678
47.4386619
38.73239971
34.55710436
32.16359013
31.14784613
30.47328668
30.2112463
30.06024582
29.98438305
29.7451676
29.78104067
29.8322934
29.90370116
30.013869
30.19846958
30.53955897
31.12006776
32.48617498
35.84386784
50.80361302
300.8337404
285.6838932
115.0055748
65.7633273
46.68894225
38.3859275
34.36054616
32.0392385
31.04739562
30.37810608
30.11649835
29.96468226
29.88807065
29.65043367
29.68747796
29.74083268
29.8152897
29.92889165
30.1204184
30.47592236
31.08701316
32.53416795
36.24522638
55.27566125
341.0217125
253.7706328
109.9122652
64.34193117
46.05391552
38.06595566
34.16679616
31.90928981
30.9393759
30.27789365
30.01815918
29.86627906
29.78937389
29.55050902
29.5883033
29.64368909
29.72235758
29.84172658
30.03988026
30.40966422
31.05112657
32.58424435
36.71538346
60.13445973
360.4084049
230.1685968
105.5460569
63.12461912
45.53229181
37.77480871
33.97891305
31.7763149
30.82568065
30.16984641
29.91135103
29.75976864
29.68310476
29.45466247
29.49296505
29.54970974
29.63046619
29.75223987
29.95702309
30.3413332
31.01385317
32.64091828
37.32239944
64.67363279
367.5374081
211.6958872
101.7492931
62.04458195
45.1025581
37.51505983
33.7991617
31.64235697
30.70791203
30.05987807
29.80387513
29.65303118
29.57683802
29.35197964
29.39045885
29.44865395
29.5332001
29.66079734
29.87217075
30.27152844
30.97653734
32.71096799
38.13371161
68.80979449
366.2852291
196.6922989
98.4107283
61.06972281
44.73490466
37.28573159
33.62916721
31.50905521
30.58752326
29.94331947
29.68830173
29.53816613
29.4627374
29.25592942
29.29441733
29.35335815
29.43902474
29.56758876
29.78582858
30.2010739
30.94086024
32.80415807
39.11400568
72.55032328
357.6625507
184.2676842
95.44237464
60.1808563
44.40734767
37.08186959
33.46935571
31.37752132
30.46563907
29.82825929
29.57578276
29.4266674
29.35204248
29.15064338
29.18894173
29.24897261
29.33835726
29.4733165
29.69857615
30.1309003
30.90903878
32.93224846
40.17168324
75.93722143
344.4692157
173.7582482
92.76931635
59.36303084
44.10649132
36.8973477
33.3189751
31.24829362
30.34317126
29.70658628
29.45427758
29.30587493
29.23217481
29.05580964
29.09383786
29.1542422
29.24396418
29.37813886
29.61098654
30.06187221
30.88328278
33.10316226
41.24261587
79.0229393
329.2660353
164.7337504
90.34145016
58.60261537
43.82425432
36.72701251
33.1767279
31.12153334
30.22066245
29.59020311
29.34037769
29.19300429
29.12015279
28.94785399
28.98552448
29.04687764
29.14065148
29.2828639
29.52356657
29.99475186
30.8655846
33.31730025
42.29668916
81.82378953
313.3095591
156.8609214
88.11410104
57.88755525
43.5555477
36.56703116
33.04121999
30.997167
30.09861596
29.46514727
29.21442423
29.06758317
28.99561684
28.85594195
28.89324279
28.95481172
29.04830259
29.18734969
29.43676552
29.93025101
30.85812638
33.56917101
43.32169497
84.34645473
297.7035518
149.8687571
86.04838762
57.20903974
43.29704704
36.41465196
32.91120559
30.87503723
29.97716439
29.35048812
29.1023282
28.95638498
28.88516797
28.74468432
28.7815919
28.84409523
28.94222809
29.09254459
29.35097949
29.86907837
30.86246535
33.85120546
44.31424898
86.60872262
283.4150916
143.5601802
84.11790171
56.56087344
43.04634546
36.26784053
32.78561092
30.75495209
29.85666532
29.22205832
28.97187113
28.82624775
28.75580288
28.65781153
28.69436395
28.75709013
28.85451871
28.99789184
29.26656266
29.81194087
30.88002606
34.15672267
45.27765214
88.65436201
269.9403193
137.8188169
82.30387747
55.93826079
42.80155003
36.12505753
32.66354755
30.63674091
29.73698968
29.11231044
28.86487624
28.71994338
28.65009908
28.54183413
28.57802769
28.64171135
28.74431647
28.90470478
29.18386314
29.75956644
30.911399
34.48090794
46.21952752
90.54259867
257.1524388
132.5606106
80.59150045
55.33732344
42.56114646
35.98512418
32.54429432
30.52027144
29.61859014
28.97858064
28.72820777
28.5834612
28.51427337
28.46280484
28.49872187
28.56276563
28.66477876
28.81188386
29.10324077
29.71257889
30.95656779
34.81963368
47.14153162
92.27941061
244.8654691
127.7203175
78.96769881
54.75465864
42.32384371
35.84708451
32.42721545
30.40549449
29.501146
28.87828622
28.63050913
28.48616849
28.41742499
28.33963055
28.37524679
28.44027418
28.54721288
28.72162284
29.02520022
29.67160326
31.01521513
35.16893667
48.04010321
93.87784917
232.9561701
123.2490922
77.42066552
54.18712836
42.08850093
35.7101578
32.31182816
30.29259577
29.3856434
28.73436527
28.48385513
28.33968533
28.2715049
28.27198734
28.30746521
28.37304867
28.48113479
28.63235887
28.95050089
29.63738309
31.08659121
35.52566284
48.91225106
95.33037147
221.4574835
119.1089194
75.94214894
53.63219065
41.85410819
35.57366717
32.19767332
30.18231746
29.27210336
28.6511987
28.40123027
28.25713864
28.18922859
28.11556309
28.15082448
28.21788856
28.33178463
28.54860797
28.88059196
29.61069114
31.16934533
35.88508713
49.74965767
96.62840796
210.4735113
115.2861516
74.53776351
53.09252406
41.62132135
35.43763474
32.08467049
30.07676371
29.1639393
28.46578442
28.21309483
28.06902908
28.00166663
62.76952869
151.6353752
77.96862855
69.45373966
193.9714816
157.3875946
78.75892452
192.320241
195.5677304
89.79068142
174.4275261
190.1721079
100.5056716
827.2048063
708.6488785
157.3308425
171.8410812
130.4610179
523.5717211
811.1352476
443.2049538
153.3310593
155.6602475
50.95548157
45.06941091
71.3504607
42.37157968
431.2808489
155.2148674
122.6122661
55.59403835
45.64704642
39.02091749
59.51153521
55.52304594
1444.949242
1016.669318
160.0417615
67.55399741
58.96421119
40.04360649
66.20655101
60.2125079
74.06784267
214.6303337
189.9704555
839.8680163
1141.51611
163.5765332
74.25275071
69.78884215
41.16487474
74.15517849
67.12294992
83.75262374
320.7021442
251.7395911
485.6737642
636.6760938
42.5663852
84.64767558
75.18220179
93.39758906
505.3235927
398.7315271
1842.868298
318.0954442
369.9938564
44.84062504
106.3918704
86.25017707
110.4446326
1131.821742
735.1584747
158.0821113
400.5296992
515.732766
149.5580773
180.1789572
95.1745339
144.1844026
988.497685
453.8836967
119.3186393
368.6325786
698.2374411
186.9225467
166.6901015
66.3052488
220.1031262
236.9085337
186.0025608
216.7360076
1153.782129
1447.272202
178.1451597
1018.722275
894.6509095
722.000444
1015.349019
175.6996959
248.2214606
218.6854348
75.25636442
282.9298802
329.528737
239.1856578
279.5107934
664.4178819
822.3330158
196.1026513
633.0516699
503.7471019
885.9534107
654.6738698
196.7504287
394.16817
324.2607235
85.11399785
399.9192489
506.3475113
332.6032229
395.6391423
380.861778
468.5984649
723.7103954
515.4561135
93.79366258
2724.506061
707.2018369
1089.092786
511.838807
690.0821499
3153.674978
292.5022377
312.6897805
1623.417607
8517.096531
1142.695616
111.9211057
598.4794705
1788.237934
7568.958261
1098.606197
1755.638499
614.6002049
37.7216615
54.96321143
47.55042423
58.6769487
118.7254659
83.35526752
2472.8561
429.6297989
65.71339661
164.2480085
143.0077814
5148.393037
152.7127649
76.46187757
75.18722439
5453.051902
698.7774585
775.1439121
539.2405472
259.4466949
282.5475597
139.7389461
121.7836629
59.93418898
1308.858501
207.0567956
490.9586184
130.9457368
327.3410676
110.3528346
791.9113099
1005.494467
181.1843077
388.1507061
330.7994355
487.7725646
398.7702354
183.740335
1138.033563
4189.327437
717.3286861
69.14709862
57.55186847
87.44036344
136.1123924
68.15037254
71.63413123
3353.118566
304.250922
2386.801863
327.2219521
1760.712381
274.6761167
1174.841437
1159.164278
962.6010227
983.6010766
1890.867101
4306.581513
542.6190049
2262.338619
1252.920825
4826.047048
2682.282283
564.6589084
437.4552609
164.4386885
172.5592958
588.1360076
666.5626268
4846.334613
797.7351512
219.6260432
234.1198171
202.4405887
214.210957
794.2777759
1133.629737
1308.994829
161.6393765
810.6185355
637.1501702
1288.229013
812.9109477
165.2987653
119.5591844
348.1636925
168.8433805
555.8392246
377.1879926
127.545607
517.0935809
810.8914605
695.5667804
659.7016571
222.6394743
1465.019409
223.2279219
199.7695114
1391.09561
1311.089791
1456.188058
1401.064674
203.8772369
1217.92231
1229.551967
945.2608061
331.0494918
322.3271736
333.3900845
332.420101
938.8619224
858.7940913
293.9483285
269.6242907
318.1242342
301.1101079
875.3381836
304.1812898
307.1976238
256.3455747
258.8339298
703.3550703
5004.227152
716.0226063
432.2741059
439.4206055
363.2118524
367.5421966
1184.852713
874.4930908
425.6433208
1063.778692
1754.019572
571.6911486
187.9267976
198.4359023
175.4827915
184.6744941
562.3796424
1246.076517
756.5382133
770.1631936
551.7636352
556.7538776
5683.00926
964.7454256
505.6962849
564.6718257
240.4384295
253.2120915
1421.312121
2872.257579
1412.694338
2408.017682
1139.728514
6325.770272
2688.934477
5406.299727
1135.879837
684.3398754
3795.130412
1803.883542
3046.531001
1777.478428
2423.253235
47.11227574
116.5479701
109.6757599
170.5619293
4188.214176
7763.998927
317.2244956
140.4241064
150.2123902
997.2017109
2805.883041
4015.405452
445.0673682
487.1842505
907.3351815
238.4488826
251.9861431
525.2283691
134.3045216
98.18414126
190.1407044
345.8479873
121.6062953
140.8861706
1357.818714
3264.337575
3423.777615
1088.43129
893.8012725
2461.33776
1813.923924
4141.729828
4087.412941
1091.989707
292.8564537
132.127159
137.2292749
125.8443601
130.5031006
286.9145066
154.9692399
162.0392934
432.4964638
1040.769025
407.7537962
428.2570312
6375.015515
3164.499231
479.4081633
857.3176191
2935.750266
3250.67644
489.2783503
217.790923
183.8189277
259.8050609
229.4148667
511.2976633
1183.783294
4082.940195
4148.215936
1379.918889
234.7653073
120.0801027
124.3731854
691.1662466
676.1639555
319.6178778
1717.339111
1582.563509
776.9428058
574.0850232
301.5950292
312.436081
796.618613
327.7378519
332.7008771
316.2181722
325.0366168
782.7760265
355.0133318
146.5498437
152.7974768
139.0028939
144.5803219
350.3788712
412.7892506
1021.020783
1009.835351
1639.835107
1589.708293
484.0755196
344.4086647
730.9274168
693.7022865
1004.95888
996.7040869
383.4195051
412.5863047
843.4789398
683.8807659
5860.137902
1845.186404
732.3032627
916.1870564
528.3884165
1675.518862
1647.679391
1685.513763
602.5905866
4721.772847
8801.677902
323.4104642
375.8435506
436.0249694
454.8251032
1154.323797
1643.157105
1024.211309
555.1508692
1810.265259
7920.70355
1509.067588
1330.357909
16030.21663
1110.883089
1668.625606
1496.671083
1819.34707
1346.139407
5095.603702
5166.527723
1215.494015
1582.525334
5664.601393
1375.392248
1309.740136
321.5607514
1173.061178
479.7219363
1174.257265
348.9312621
3940.871301
2676.363251
890.9026251
4683.693509
5482.522251
4403.416197
3037.853843
966.1081754
4566.625377
5708.606296
3000.463927
4332.883532
6034.330927
1755.992992
2633.15642
1223.187381
1556.609692
5434.052302
3413.561454
1003.495498
623.034828
1623.147474
1103.385562
562.8628482
358.600632
996.3800142
3600.556829
4550.116775
1291.600236
1105.429528
3465.0047
3608.043314
2694.545232
2555.532155
914.4056358
4460.883053
4377.379048
3194.449229
4340.347305
4340.337437
1063.979939
4234.6323
2771.850375
2825.000311
3181.96389
1705.574752
808.779691
872.2407234
3594.658359
1014.539108
1145.709711
898.1657686
976.5353013
3368.046039
3460.261309
951.0311796
1120.575224
378.6480503
400.6566731
944.6908709
764.1100723
357.331239
373.1212018
1248.075944
1263.943288
792.9114949
276.6580626
299.8563398
249.7658126
269.9568759
784.6479047
869.2221628
342.7399749
376.6951725
308.254786
333.8397962
874.937371
489.4865357
225.4258388
243.964386
718.7222585
752.9229894
2106.572644
2201.101901
812.4612834
3113.260245
3134.244701
3974.182647
2151.629272
1799.788387
3024.397249
2128.21631
558.0167541
1519.796352
2012.706987
1513.602447
492.3025221
558.2835839
465.5006389
480.9428219
1473.567074
611.5173521
624.2317444
580.2073508
606.9648531
1362.5719
408.7189467
423.3380995
385.4388924
403.602568
1350.902216
1433.122611
446.7812387
460.3220509
428.1225064
442.1434732
1428.126325
3969.901412
4039.180847
1192.914826
1326.029144
4171.537351
3948.180612
953.3620264
959.8723466
924.5024552
951.2601244
975.1191125
989.6994695
962.1991208
972.0249462
644.2375429
656.4405603
628.2228749
640.0471385
700.7777083
879.3505789
662.263867
676.6729058
1491.065521
1739.348969
1192.402964
1388.591352
5242.784665
2736.468703
2986.180579
1856.166121
2627.518543
1036.444992
1027.656337
417.4466482
1666.683313
1672.179797
1630.577482
1656.120958
1720.766466
472.5641011
1551.675851
1092.965729
963.2866436
752.6631551
348.7577932
1042.338936
1525.281367
990.7464072
1052.709971
1590.923216
1617.337161
1546.396727
1579.802849
379.4455897
994.0780737
982.7402376
5557.039375
1260.509807
5407.99665
4637.058047
5386.19688
1348.653187
6070.022946
1637.082664
5792.352912
4960.126841
739.7697612
826.9249436
1712.417879
1681.085967
533.5618503
585.6917404
1782.364014
1715.613378
5623.421607
1198.945521
468.061644
515.5295169
5840.204961
6640.856355
1892.602482
7221.029185
5164.976976
1892.181892
1112.897886
6294.378715
3553.101128
6990.717132
4012.774178
1607.61099
64.46167114
42.83197993
36.90077421
5551.68278
5527.236224
142.6651082
76.36090405
76.60178696
5787.931357
926.4862274
2691.039063
1811.415894
322.5364278
270.3963859
165.4518506
296.7454364
213.5705331
445.5540355
1607.934076
292.049178
317.2281613
53.75784898
63.01876508
119.6982214
376.9434118
721.2058277
1055.051187
203.2602415
109.7201517
113.4437365
105.018543
108.5112667
199.7881901
817.9609839
908.3580242
2960.110978
653.3130312
575.532283
345.8818783
338.423302
352.6328102
758.5272728
1145.862248
1460.633803
526.5917324
114.7251627
118.7114464
230.7390382
292.1910506
638.0572164
610.6101284
587.9608459
520.2907584
269.6958187
640.8595575
319.2018804
333.7543385
4381.853933
4085.441413
2405.021522
1699.750208
1676.723696
1065.098963
3660.735147
5613.868613
4995.894677
1230.273979
723.4407632
797.6013096
1791.289104
1104.496022
1735.826083
1722.188559
1755.684815
2637.553691
4971.683061
3405.865177
3835.756826
5381.261337
1457.357998
1177.558638
707.4296078
1335.924556
171.6787113
136.8825266
236.6752773
861.4115509
2270.273819
1609.661224
5845.085491
6178.755891
6293.90907
5206.946542
6003.802323
93.08527739
116.6832371
279.0558546
2741.782246
1801.036502
1393.533057
3511.831576
2790.586638
2071.525357
3825.464244
3485.99457
5478.266845
5184.125478
3715.176743
735.1508358
790.3800262
1570.93146
4983.86637
2605.805851
2923.013056
4195.47068
2464.62677
2889.387377
1181.513423
1575.311654
1292.773155
803.5273409
544.1164632
552.3591303
1249.625692
764.4966868
806.7182857
557.5170398
569.1114842
828.1209622
198.763514
220.0776509
461.6862076
587.9419272
1058.206687
758.7913123
1237.503699
1287.360318
814.156747
1823.948093
1317.889536
1371.512291
902.6419651
905.2246225
1470.019816
1481.949394
1496.342827
1404.611348
1427.253871
1379.709258
850.5573512
855.2692877
824.8136221
831.3048578
1326.241674
1449.165374
890.88198
895.2639278
860.3124456
865.399721
1410.375609
655.1763016
642.7060539
295.207882
316.5769103
672.0397826
659.1999388
488.1668528
475.4155235
248.7849471
1536.185992
1538.72831
1502.081426
1507.311698
1903.139715
1546.849354
1547.995461
266.8633102
508.6997857
493.3007399
4893.011276
4837.105885
3052.716985
3244.46531
4970.718
4881.945964
5081.284161
762.2165105
1526.751701
1277.928754
302.2835106
314.644711
611.9145487
543.6948278
288.8556466
298.8139458
1092.76082
1092.550595
753.1163689
772.8338874
1101.202715
1105.554519
5630.199412
1499.854538
978.4380354
965.3780825
12512.11102
2358.500169
1704.483673
4610.732797
3750.698943
1808.741646
1786.135705
1124.134107
6097.86391
6643.554354
6346.474585
4968.543601
1196.468489
1856.231997
1797.48413
2724.180805
982.4587785
1142.236294
5452.02401
5360.301711
4126.541402
3819.637586
2170.502246
1211.176369
1306.119077
1362.535009
3264.046681
5465.763664
4639.489082
5522.532851
5280.460024
3726.004305
189.7783885
265.7176887
842.5487042
3484.127531
3401.540654
3574.366883
3553.125145
3344.597803
2170.8437
2149.564366
2192.711249
2174.285822
3352.48745
4178.949731
2358.527917
2375.599268
2265.907543
2331.620212
4250.686795
3070.161522
1967.062884
1774.949522
2133.589336
2074.930112
3152.670065
4066.541278
2413.332353
2428.974709
2393.098676
2401.717146
4108.912551
3668.775169
3598.904858
3767.572682
3590.720847
1019.041981
705.1526867
708.9793353
1624.592111
1030.552221
1034.853966
1002.645439
1023.816091
1612.764817
5534.338093
5762.706853
5012.505309
5612.936028
1695.472338
1709.756483
1665.68841
1681.171551
2155.793899
1009.505089
1630.188905
1566.19368
1664.852591
1041.420675
1045.302985
1036.792988
1039.612558
1657.972633
1601.325691
1644.080404
1121.916919
1538.769628
2126.778523
5973.842292
5557.125781
4164.834146
5814.295165
858.0709449
1214.270948
12888.69329
1155.740741
792.9188823
796.6969722
1813.166083
7545.747727
7799.292587
9206.991353
5872.078435
5444.140266
1752.132936
1740.235911
1105.59064
1717.963066
2281.390941
3200.091247
2248.566573
3014.642662
2255.632271
893.4316509
3118.460833
2272.148972
5149.639069
5352.340137
5611.351537
4173.042941
4799.43923
1335.114104
1667.283221
1007.97133
517.925263
703.8451216
1095.820163
1203.991552
733.3481625
1069.451136
1399.991797
5324.16086
5598.661456
5235.096775
5191.693349
5973.79271
5921.538751
5764.939175
3461.196177
5082.580963
4610.703368
5725.856273
5923.992522
3885.572526
4219.863065
4667.935184
5957.607659
4832.192708
3399.771005
3745.608774
2578.000303
1863.327096
2616.344036
1382.459737
2000.040733
2659.336179
2923.116265
2705.960948
3748.006738
2356.696151
2230.242184
3209.783721
2326.25658
3513.966028
3513.215316
2214.890661
2196.491876
2242.831594
2213.942289
3535.780182
2649.536348
1596.721694
1622.83577
4409.231427
4402.130646
3740.00342
4839.140601
4659.737471
4482.368661
4418.482908
4628.877287
3488.199434
1900.67136
2117.503332
1664.361246
1745.476565
2973.121885
5216.165684
4398.557178
2368.907316
5565.871886
5324.358084
5304.316205
3377.74114
5205.425833
5038.873912
1976.758163
2225.006049
4232.681117
1221.992646
1285.120228
617.954014
692.1827123
1202.322137
827.3939938
573.7846031
597.8710561
1173.412228
1135.727729
675.5471434
1157.736716
1496.981681
757.8924415
1230.090077
1212.419793
2107.78469
1455.009918
1431.356114
1598.772711
1547.341899
2227.262595
3295.146064
3083.838592
2015.545698
2947.937367
3087.859942
2777.735232
2921.103003
1980.096133
2959.12217
2898.505053
3721.642682
2768.943751
965.007477
957.3425061
1435.937775
1480.857339
917.3964311
914.2626402
1461.905753
1474.180794
1440.076274
1452.514867
842.9075418
847.0681166
1374.457656
1338.774155
835.2726646
838.9961291
880.158942
884.732073
1439.710745
1420.613649
870.7837823
875.5297835
4011.348036
2465.40583
2478.351271
2437.135101
2449.270764
3999.603565
3972.697975
2717.658281
3142.994317
2506.354876
2566.431524
3962.386613
955.6748167
1529.128381
1518.656774
1543.815511
1536.948337
957.6466213
942.3553478
1483.462964
1465.631048
1508.866662
1497.2017
948.2825744
980.4352669
1589.613427
1579.467071
1604.558103
1594.695732
983.0612933
964.984359
1557.235445
1551.205898
1573.391016
1564.111887
967.8138122
1525.031828
1529.073842
648.1658666
939.2853564
936.4862677
946.0949912
943.8039234
652.8137372
1514.203605
1518.886845
1592.344824
1508.644975
721.8730762
1002.938567
1012.550916
1430.281009
1376.798907
799.9140069
664.7940868
953.4158737
952.2217062
961.168952
964.8141048
674.9578344
1559.119036
1551.94089
4848.516808
4710.638837
5051.545477
3466.162481
4088.769026
2819.133257
4657.473004
4719.315548
4645.91011
4656.28637
2881.408124
2066.576174
3947.210298
3335.298592
4570.781516
4709.563144
2383.756277
1040.6453
729.4817596
731.3336113
715.6014895
718.2383513
1028.342063
1667.120325
1681.220072
1636.423193
1653.358112
1625.101193
2063.223186
1486.822979
863.9922702
952.4179561
757.7817112
780.4846766
1081.969191
1430.609429
1979.57904
1565.544213
1488.956201
1002.782801
1618.635039
1605.211076
1655.128067
1611.000221
998.9471052
1598.540738
1610.427959
1558.945206
1570.846345
5196.316755
3334.070679
3575.422367
2477.182278
2986.099863
5286.144823
5311.754759
5142.078671
3898.201149
4493.802287
5663.787729
5593.157782
4136.738379
4397.189891
3243.009064
3713.622605
5773.855323
1741.929823
1742.984519
1724.800859
1728.16902
1147.683348
1159.615979
802.5368672
1804.896687
1706.726557
1761.068716
1751.652276
1697.438301
1054.868986
1062.875267
1047.362043
1052.982545
1693.599507
1734.751303
1076.611855
1133.992861
1064.557048
1079.485077
1737.954496
5412.282287
825.6191882
831.3369187
1202.801818
5672.745196
8607.416105
8966.160829
8399.22965
8429.767103
6294.778398
1841.471879
6252.093646
4432.115438
4822.310399
1121.64421
1776.966616
1760.393042
6259.940273
6882.88103
6628.086366
5395.10575
5886.33728
7289.733722
6925.305732
4405.941443
6561.748115
5634.003498
2200.312234
1768.613051
1185.21465
31.76514656
31.77366782
31.8613358
31.77736574
31.79368283
31.87115245
31.80024059
31.82783801
31.88811762
31.83836989
31.87542448
31.91235603
31.88755904
31.92282503
31.93769683
31.93003004
31.9500948
31.95503468
31.95262259
31.94886717
31.95534553
31.94424449
31.91748207
31.93904684
31.90700133
31.87326089
31.91465731
31.86258248
31.83037358
31.89165838
31.64905157
31.66731241
31.7457298
31.67567361
31.71250808
31.77016525
31.7292067
31.79415362
31.81300438
31.81909181
31.90139456
31.87335452
31.92458079
31.98891117
31.92577179
32.0091722
32.03380565
31.95739306
32.03267477
32.01518496
31.95414147
32.0029256
31.95166033
31.91886205
31.93160226
31.86572691
31.86470129
31.84375328
31.78085987
31.8139785
31.54311316
31.58185256
31.64337987
31.60117716
31.68460398
31.69937989
31.72063192
31.86652983
31.79807084
31.92578863
32.12015749
31.93103998
32.17421132
32.34721873
32.04763441
32.37190372
32.40922858
32.0891473
32.37018818
32.30140978
32.05334488
32.2607236
32.13818905
31.97388945
32.0929415
31.95401565
31.87543004
31.91016818
31.79103557
31.77573828
31.45206503
31.52887749
31.56498733
31.56645136
31.73961998
31.68857112
31.82495143
32.19400857
31.91532601
32.35159462
32.98088395
32.22591975
33.12729133
33.67382993
32.58018849
33.78200207
33.79973653
32.57501862
33.55537755
33.18146123
32.42851481
33.02296307
32.65474306
32.20837596
32.54016663
32.23024696
31.99919622
32.13882992
31.9098484
31.80713487
31.38369818
31.51553219
31.52213815
31.58497566
31.94181196
31.77380699
32.12649095
33.02456658
32.33712726
33.48311561
35.89919539
33.32323155
36.86167907
42.82389458
34.54951131
42.92322642
40.48969503
34.40550853
38.44219304
35.75673337
33.55385775
35.09277662
33.84109119
32.82600364
33.53743847
32.8262609
32.33436743
32.63377118
32.17893384
31.9574296
31.3344289
31.54103008
31.51828846
31.65949796
32.28547214
32.01173404
32.63251771
34.50333537
33.3360085
35.621557
45.98586243
36.98341541
42.84375093
49.39325519
41.19050616
61.54804205
59.52124608
45.56747072
48.29109483
42.6521828
40.04241804
40.19712997
36.16308189
34.22171738
35.41128913
33.84326223
33.02136923
33.47251953
32.64269145
32.27069203
31.29648698
31.59111757
31.54767874
31.76301932
32.67395358
32.37247093
33.18552012
36.00851681
34.91137987
36.77489159
38.90243258
38.12028349
55.22773457
62.71106133
59.74059301
92.19073299
66.05456568
55.39867536
48.89814738
39.70729407
36.84188233
38.21628992
35.32869873
34.15547197
34.68903062
33.29298547
32.78364126
31.26945518
31.65875626
31.60742117
31.88203548
33.03577835
32.76933269
33.67003626
37.04191546
36.30411947
38.44038057
41.16670128
40.71804506
64.21854803
76.16414705
74.904202
146.3087659
91.26347637
82.20494263
57.57486383
43.60671798
40.529988
41.34519449
37.00886469
35.66730426
36.06583609
34.0461825
33.47010791
31.2516007
31.73533306
31.67769035
32.00552383
33.36021129
33.12042826
34.08530179
37.83435755
37.24549075
39.53804201
42.63202791
42.26517676
71.6616521
94.77729176
91.98649171
164.8561656
105.0720978
101.429687
63.2423615
46.85537139
44.32075825
44.04107333
38.62135523
37.34611208
37.40001702
34.79044737
34.22887266
31.24231707
31.81746015
31.75752706
32.13137621
33.66686486
33.43955711
34.47267364
38.61526938
38.01235873
40.57659315
44.21550467
43.70938242
81.17593919
111.1940878
107.7210739
158.9863148