/*--------------------------------*- C++ -*----------------------------------*\
| =========                 |                                                 |
| \\      /  F ield         | OpenFOAM: The Open Source CFD Toolbox           |
|  \\    /   O peration     | Version:  v1912                                 |
|   \\  /    A nd           | Website:  www.openfoam.com                      |
|    \\/     M anipulation  |                                                 |
\*---------------------------------------------------------------------------*/
FoamFile
{
    version     2.0;
    format      ascii;
    class       pointVectorField;
    location    "1.63";
    object      pointDisplacement;
}
// * * * * * * * * * * * * * * * * * * * * * * * * * * * * * * * * * * * * * //

dimensions      [0 1 0 0 0 0 0];


internalField   nonuniform List<vector> 
26316
(
(0 0 0)
(0 0 0)
(0 0 0)
(0 0 0)
(0 0 0)
(0 0 0)
(0 0 0)
(0 0 0)
(0 0 0)
(0 0 0)
(0 0 0)
(0 0 0)
(0 0 0)
(0 0 0)
(0 0 0)
(0 0 0)
(0 0 0)
(0 0 0)
(0 0 0)
(0 0 0)
(0 0 0)
(0 0 0)
(0 0 0)
(0 0 0)
(0 0 0)
(0 0 0)
(0 0 0)
(0 0 0)
(0 0 0)
(0 0 0)
(0 0 0)
(0 0 0)
(0 0 0)
(0 0 0)
(0 0 0)
(0 0 0)
(0 0 0)
(0 0 0)
(0 0 0)
(0 0 0)
(0 0 0)
(0 0 0)
(0 0 0)
(0 0 0)
(0 0 0)
(0 0 0)
(0 0 0)
(0 0 0)
(0 0 0)
(0 0 0)
(0 0 0)
(0 0 0)
(0 0 0)
(0 0 0)
(0 0 0)
(0 0 0)
(0 0 0)
(0 0 0)
(0 0 0)
(0 0 0)
(0 0 0)
(0 0 0)
(0 0 0)
(0 0 0)
(0 0 0)
(0 0 0)
(0 0 0)
(0 0 0)
(0 0 0)
(0 0 0)
(0 0 0)
(0 0 0)
(0 0 0)
(0 0 0)
(0 0 0)
(0 0 0)
(0 0 0)
(0 0 0)
(0 0 0)
(0 0 0)
(0 0 0)
(0 0 0)
(0 0 0)
(0 0 0)
(0 0 0)
(0 0 0)
(0 0 0)
(0 0 0)
(0 0 0)
(0 0 0)
(0 0 0)
(0 0 0)
(0 0 0)
(0 0 0)
(0 0 0)
(0 0 0)
(0 0 0)
(0 0 0)
(0 0 0)
(0 0 0)
(0 0 0)
(0 0 0)
(0 0 0)
(0 0 0)
(0 0 0)
(0 0 0)
(0 0 0)
(0 0 0)
(0 0 0)
(0 0 0)
(0 0 0)
(0 0 0)
(0 0 0)
(0 0 0)
(0 0 0)
(0 0 0)
(0 0 0)
(0 0 0)
(0 0 0)
(-4.714908752e-07 1.441851529e-05 2.775557562e-17)
(0 0 0)
(0 0 0)
(-2.604096863e-07 0.0001615099587 3.469446952e-16)
(1.200941172e-06 0.0001372934485 2.775557562e-16)
(0 0 0)
(0 0 0)
(0 0 0)
(0 0 0)
(0 0 0)
(0 0 0)
(0 0 0)
(0 0 0)
(0 0 0)
(0 0 0)
(0 0 0)
(0 0 0)
(0 0 0)
(0 0 0)
(0 0 0)
(0 0 0)
(0 0 0)
(0 0 0)
(0 0 0)
(0 0 0)
(0 0 0)
(0 0 0)
(0 0 0)
(0 0 0)
(0 0 0)
(0 0 0)
(0 0 0)
(0 0 0)
(0 0 0)
(0 0 0)
(0 0 0)
(0 0 0)
(0 0 0)
(0 0 0)
(0 0 0)
(0 0 0)
(0 0 0)
(0 0 0)
(0 0 0)
(0 0 0)
(0 0 0)
(0 0 0)
(0 0 0)
(0 0 0)
(0 0 0)
(0 0 0)
(0 0 0)
(0 0 0)
(0 0 0)
(0 0 0)
(0 0 0)
(0 0 0)
(0 0 0)
(0 0 0)
(0 0 0)
(0 0 0)
(0 0 0)
(0 0 0)
(0 0 0)
(0 0 0)
(0 0 0)
(-2.937359835e-05 0.0002241615267 4.996003611e-16)
(-0.0001690413572 0.001406075876 3.080868893e-15)
(-2.210489629e-06 1.856598847e-05 4.163336342e-17)
(-0.0003209339389 0.003691646119 8.007483565e-15)
(-0.0007968000677 0.009090154961 1.992850329e-14)
(-0.0009453946962 0.01231265248 2.699229729e-14)
(-0.0004410241223 0.005787636905 1.255939797e-14)
(-0.0005365960305 0.01219566368 2.646494135e-14)
(-0.0009400028108 0.02127202425 4.662936703e-14)
(-0.0007838571768 0.02350499013 5.151434834e-14)
(-0.0004618835336 0.01387893697 3.011479954e-14)
(-1.947773113e-05 0.01623228015 3.522182546e-14)
(-2.468440788e-05 0.02657058969 5.823119764e-14)
(0.0002580415279 0.02622800943 5.74817971e-14)
(0.0001510775213 0.01596647304 3.465283616e-14)
(0.0005062793106 0.01223933992 2.656208586e-14)
(0.0008966014764 0.0213311133 4.675426712e-14)
(0.0009828303828 0.01863783233 4.085620731e-14)
(0.0005325337887 0.01024567373 2.223221607e-14)
(0.0003132713926 0.003738480624 8.118505868e-15)
(0.0007773665354 0.009167731036 2.009503675e-14)
(0.0005848436483 0.006125157461 1.34336986e-14)
(0.0001830131198 0.001938429849 4.204969706e-15)
(0 0 0)
(3.081417776e-05 0.0002414058644 5.273559367e-16)
(0 0 0)
(0 0 0)
(0 0 0)
(0 0 0)
(0 0 0)
(0 0 0)
(0 0 0)
(0 0 0)
(0 0 0)
(0 0 0)
(0 0 0)
(0 0 0)
(0 0 0)
(0 0 0)
(0 0 0)
(0 0 0)
(0 0 0)
(0 0 0)
(0 0 0)
(0 0 0)
(0 0 0)
(0 0 0)
(0 0 0)
(0 0 0)
(0 0 0)
(0 0 0)
(0 0 0)
(0 0 0)
(0 0 0)
(0 0 0)
(0 0 0)
(0 0 0)
(0 0 0)
(0 0 0)
(0 0 0)
(0 0 0)
(0 0 0)
(0 0 0)
(0 0 0)
(0 0 0)
(0 0 0)
(0 0 0)
(0 0 0)
(0 0 0)
(0 0 0)
(0 0 0)
(-8.203589534e-05 0.0004520364385 1.026956298e-15)
(-0.0004481105008 0.002633128916 6.009082121e-15)
(-0.0001061530835 0.0006301063269 1.429412144e-15)
(-0.001513962366 0.0112304561 2.53824739e-14)
(-0.002420766671 0.0177934722 4.06341627e-14)
(-0.003087250533 0.02477279054 5.65658631e-14)
(-0.002080823506 0.01684427529 3.806677196e-14)
(-0.003230764077 0.03603395485 8.140710328e-14)
(-0.004271319085 0.0472875643 1.079414336e-13)
(-0.004292710546 0.05439891142 1.241645675e-13)
(-0.003317418996 0.04232700984 9.5617958e-14)
(-0.002584731665 0.05791961163 1.308536612e-13)
(-0.003207138115 0.07160901084 1.634664626e-13)
(-0.002526453948 0.07550381744 1.723621246e-13)
(-0.002055909147 0.06151571798 1.389860449e-13)
(2.576944596e-06 0.0662997357 1.498245972e-13)
(2.829247737e-05 0.08063845272 1.841443664e-13)
(0.00092605875 0.08007235438 1.828676099e-13)
(0.000732527359 0.06577178299 1.486449852e-13)
(0.002568122069 0.05800292341 1.31131217e-13)
(0.003229207504 0.0716882267 1.637717739e-13)
(0.00375206115 0.06681876714 1.526556659e-13)
(0.002959343593 0.05354088934 1.21055943e-13)
(0.003190424063 0.03619104079 8.182343691e-14)
(0.004240319567 0.04745735373 1.084410339e-13)
(0.004014629515 0.03999206912 9.138523271e-14)
(0.00294155182 0.02968469552 6.711298184e-14)
(0.001500188985 0.01137112442 2.570166302e-14)
(0.002399307813 0.01797395345 4.106437412e-14)
(0.001695994357 0.01173315932 2.679800826e-14)
(0.0009416149684 0.006588966799 1.489086632e-14)
(0 0 0)
(8.144229663e-05 0.0004569932055 1.054711873e-15)
(0 0 0)
(0 0 0)
(0 0 0)
(0 0 0)
(0 0 0)
(0 0 0)
(0 0 0)
(0 0 0)
(0 0 0)
(0 0 0)
(0 0 0)
(0 0 0)
(0 0 0)
(0 0 0)
(0 0 0)
(0 0 0)
(0 0 0)
(0 0 0)
(0 0 0)
(0 0 0)
(0 0 0)
(0 0 0)
(0 0 0)
(0 0 0)
(0 0 0)
(0 0 0)
(0 0 0)
(0 0 0)
(0 0 0)
(0 0 0)
(0 0 0)
(0 0 0)
(0 0 0)
(0 0 0)
(0 0 0)
(0 0 0)
(0 0 0)
(0 0 0)
(0 0 0)
(-3.529502203e-05 0.0001564740159 3.747002708e-16)
(0 0 0)
(-0.001502016105 0.008021504523 1.891542478e-14)
(-0.002232240197 0.01177737353 2.807476474e-14)
(-0.003492433398 0.01968321941 4.690692279e-14)
(-0.002564657443 0.0146195707 3.447242491e-14)
(-0.005855318481 0.04185627787 9.862943795e-14)
(-0.00710431674 0.05029338393 1.197930644e-13)
(-0.007939872281 0.06142421157 1.462857613e-13)
(-0.006681362224 0.05218339812 1.229572e-13)
(-0.007586817924 0.08198672651 1.931371729e-13)
(-0.008645992185 0.09258571146 2.204625371e-13)
(-0.008253219139 0.1012995575 2.412098299e-13)
(-0.007314319343 0.09058428065 2.133848653e-13)
(-0.005006988179 0.1099514063 2.590705428e-13)
(-0.005525086726 0.1203259911 2.86590196e-13)
(-0.004238069233 0.1242035708 2.958744361e-13)
(-0.00386133207 0.1140428521 2.687433609e-13)
(0.0001224139253 0.1192406193 2.811362254e-13)
(0.0001454003423 0.1290219832 3.075040222e-13)
(0.001649191655 0.128489635 3.063105325e-13)
(0.001495990174 0.1186666457 2.798317134e-13)
(0.005190947768 0.1099724984 2.594452431e-13)
(0.005755291308 0.1203129451 2.869787741e-13)
(0.006851498183 0.1152217575 2.748773431e-13)
(0.006143961277 0.1046973354 2.470385008e-13)
(0.00763535724 0.08212168394 1.938171845e-13)
(0.00872821831 0.0926264571 2.210315264e-13)
(0.00877213736 0.0829515694 1.979527653e-13)
(0.007589735683 0.0727293826 1.716543574e-13)
(0.005801605575 0.04180271063 9.865719353e-14)
(0.007229671828 0.05126977186 1.223743329e-13)
(0.00623288925 0.04081648931 9.74359482e-14)
(0.00494067071 0.03281346358 7.745193376e-14)
(0.001712935093 0.009259029998 2.18575158e-14)
(0.002559927419 0.01367485347 3.264055692e-14)
(0.001444607392 0.007268977974 1.734723476e-14)
(0.0008255521652 0.004202368241 9.922618283e-15)
(0 0 0)
(0 0 0)
(0 0 0)
(0 0 0)
(0 0 0)
(0 0 0)
(0 0 0)
(0 0 0)
(0 0 0)
(0 0 0)
(0 0 0)
(0 0 0)
(0 0 0)
(0 0 0)
(0 0 0)
(0 0 0)
(0 0 0)
(0 0 0)
(0 0 0)
(0 0 0)
(0 0 0)
(0 0 0)
(0 0 0)
(0 0 0)
(0 0 0)
(0 0 0)
(0 0 0)
(0 0 0)
(0 0 0)
(0 0 0)
(0 0 0)
(0 0 0)
(0 0 0)
(0 0 0)
(0 0 0)
(-0.0001631300593 0.0006644128451 1.637578961e-15)
(-0.0003709791788 0.001493654096 3.719247132e-15)
(-0.001317618705 0.005582918056 1.393329896e-14)
(-0.0008858421732 0.00379654905 9.353628982e-15)
(-0.005205146742 0.02649954613 6.5336625e-14)
(-0.006157572012 0.03099782066 7.729927809e-14)
(-0.007936821791 0.04263941094 1.062899768e-13)
(-0.006881247971 0.03738625353 9.216238883e-14)
(-0.010860109 0.07398969274 1.822292317e-13)
(-0.0119928989 0.08070723457 2.010752675e-13)
(-0.01263876475 0.09287740343 2.313566005e-13)
(-0.01155355546 0.08603195755 2.118444309e-13)
(-0.01141341071 0.1179830827 2.903788321e-13)
(-0.01211833648 0.1233877378 3.071709553e-13)
(-0.01118544655 0.1306090107 3.251426905e-13)
(-0.01057221403 0.1252567314 3.082811784e-13)
(-0.006651497509 0.1398820269 3.444189378e-13)
(-0.006874599544 0.1421298106 3.539391003e-13)
(-0.005162603231 0.1434581668 3.573114027e-13)
(-0.005028219302 0.1421179974 3.499700529e-13)
(0.0001423927415 0.1442830104 3.555489236e-13)
(0.0001155334617 0.1441273937 3.592265374e-13)
(0.001883018746 0.1440730406 3.591710263e-13)
(0.001887417021 0.1440523982 3.550493233e-13)
(0.006961248241 0.1399265958 3.451405828e-13)
(0.007150990039 0.1420594141 3.544248228e-13)
(0.008752631152 0.1396798828 3.485822742e-13)
(0.008460711172 0.1365963074 3.370081991e-13)
(0.01159839576 0.1178711454 2.910172103e-13)
(0.01233259232 0.1233831905 3.08239545e-13)
(0.01293361222 0.1151910758 2.878808303e-13)
(0.01203920466 0.1087095479 2.684935607e-13)
(0.0111276147 0.075864053 1.874195243e-13)
(0.01226253084 0.08259423022 2.064182159e-13)
(0.01123387561 0.0700102712 1.749572709e-13)
(0.01007663763 0.06356521247 1.570132913e-13)
(0.005489760814 0.02829158137 6.984690604e-14)
(0.006470633794 0.03294618024 8.22952817e-14)
(0.004665276992 0.02238531444 5.589972929e-14)
(0.003822428869 0.018563302 4.582445534e-14)
(0.0002523578981 0.001043578718 2.581268532e-15)
(0.000433531248 0.001771442476 4.427014311e-15)
(1.100573374e-05 4.283050119e-05 1.110223025e-16)
(0 0 0)
(0 0 0)
(0 0 0)
(0 0 0)
(0 0 0)
(0 0 0)
(0 0 0)
(0 0 0)
(0 0 0)
(0 0 0)
(0 0 0)
(0 0 0)
(0 0 0)
(0 0 0)
(0 0 0)
(0 0 0)
(0 0 0)
(0 0 0)
(0 0 0)
(0 0 0)
(0 0 0)
(0 0 0)
(0 0 0)
(0 0 0)
(0 0 0)
(0 0 0)
(0 0 0)
(0 0 0)
(0 0 0)
(-1.552691768e-05 5.357490071e-05 1.387778781e-16)
(-4.236869222e-07 1.480093963e-06 0)
(0 0 0)
(-0.001164647569 0.00452620009 1.169897512e-14)
(-0.001469969854 0.005644372583 1.476596623e-14)
(-0.003049571116 0.01232438987 3.222422329e-14)
(-0.002601806012 0.01064212056 2.750577544e-14)
(-0.008448265177 0.04105491965 1.059985433e-13)
(-0.009195441186 0.04414560879 1.153521723e-13)
(-0.01116886579 0.05720879464 1.494360191e-13)
(-0.01058235751 0.0548813745 1.416644579e-13)
(-0.01462525714 0.09490510861 2.448180547e-13)
(-0.01522743429 0.09755191832 2.546712841e-13)
(-0.01562776365 0.1091992453 2.850497616e-13)
(-0.01508388764 0.1067844186 2.754463324e-13)
(-0.01360419457 0.1322391985 3.411021465e-13)
(-0.01388520151 0.1330113194 3.472500065e-13)
(-0.01249050693 0.1364461055 3.562566908e-13)
(-0.0123200784 0.136748116 3.527456105e-13)
(-0.00717617194 0.1392652658 0)
(-0.007279600608 0.137552535 0)
(-0.006388913594 0.1375507102 0)
(-0.005449625956 0.1375866858 0)
(-0.005390543469 0.1384343716 0)
(-0.005366457515 0.1392621492 0)
(1.857122073e-05 0.13919194 0)
(2.644200233e-06 0.1383686691 0)
(0.0009045826624 0.138351942 0)
(0.0009156234706 0.13917523 0)
(0.007269895187 0.1389841603 0)
(0.00728045519 0.1381381002 0)
(0.007297158716 0.1372788167 0)
(0.008193870273 0.1372355947 0)
(0.009077872767 0.137208922 0)
(0.009071681226 0.1389076538 0)
(0.01374570175 0.132663499 3.434752482e-13)
(0.01396067529 0.133307451 3.493316747e-13)
(0.01503446662 0.1279377304 3.35315109e-13)
(0.01470749509 0.1265480258 3.276823257e-13)
(0.01489224132 0.09677849836 2.506467256e-13)
(0.01542951738 0.09905572289 2.59708921e-13)
(0.01465398678 0.08699112268 2.280675648e-13)
(0.01398859666 0.08407188811 2.177147351e-13)
(0.009036200618 0.04433243375 1.147554274e-13)
(0.009882590123 0.04789266839 1.254968351e-13)
(0.007788423674 0.03557060851 9.318934513e-14)
(0.007014640989 0.03243282569 8.393286066e-14)
(0.001562558805 0.006157550205 1.59317004e-14)
(0.001953122921 0.007603028429 1.990074772e-14)
(0.0006997661662 0.002595478731 6.786238238e-15)
(0.00047611529 0.001787604397 4.62130334e-15)
(0 0 0)
(0 0 0)
(0 0 0)
(0 0 0)
(0 0 0)
(0 0 0)
(0 0 0)
(0 0 0)
(0 0 0)
(0 0 0)
(0 0 0)
(0 0 0)
(0 0 0)
(0 0 0)
(0 0 0)
(0 0 0)
(0 0 0)
(0 0 0)
(0 0 0)
(0 0 0)
(0 0 0)
(0 0 0)
(0 0 0)
(0 0 0)
(0 0 0)
(0 0 0)
(0 0 0)
(0 0 0)
(-0.0001399057131 0.0004588791488 1.276756478e-15)
(-7.972826904e-05 0.0002648918094 7.21644966e-16)
(-6.522467382e-05 0.0002194662823 5.967448757e-16)
(-0.002112112079 0.007811317684 2.120525977e-14)
(-0.00219046261 0.007998171843 2.198241589e-14)
(-0.004055737309 0.01558422661 4.282685317e-14)
(-0.003948667338 0.01536883013 4.171663015e-14)
(-0.01062194819 0.0490779534 1.330602295e-13)
(-0.0107910322 0.04921114329 1.351141421e-13)
(-0.01284801485 0.06248328595 1.715017017e-13)
(-0.0126680192 0.06242412338 1.69197989e-13)
(-0.01644451455 0.1011619717 2.740307981e-13)
(-0.01661210342 0.1008078551 2.765287999e-13)
(-0.01683135157 0.1112891472 3.052835762e-13)
(-0.01668121984 0.111840829 3.029382301e-13)
(-0.01431723132 0.1311717345 3.553823902e-13)
(-0.01438506818 0.1298349693 3.562566908e-13)
(-0.01274547149 0.1308881545 0)
(-0.01271079614 0.1325622552 3.592265374e-13)
(-0.007436719238 0.1324819272 0)
(-0.007458022657 0.1316325304 0)
(-0.006579515868 0.1316206952 0)
(-0.006558315298 0.1324687553 0)
(0.007258213045 0.1322239948 0)
(0.007247009188 0.1313826465 0)
(0.008125119726 0.1313622506 0)
(0.008137224305 0.1322023358 0)
(0.01422262595 0.1314022503 3.574640584e-13)
(0.01422639417 0.130057767 3.583244812e-13)
(0.01565286722 0.1273835561 3.510525204e-13)
(0.0155927681 0.128278179 3.490541189e-13)
(0.01692738256 0.1049137101 2.855493619e-13)
(0.01712867947 0.1049397527 2.892686091e-13)
(0.01654146165 0.09365279735 2.581546088e-13)
(0.01630872504 0.0934293696 2.542688282e-13)
(0.01160099429 0.05419597337 1.473959843e-13)
(0.01186248487 0.05474147136 1.507960423e-13)
(0.009633981415 0.04187939953 1.153244167e-13)
(0.009386397513 0.0413130558 1.123268145e-13)
(0.002833788087 0.01062645395 2.886579864e-14)
(0.003200019019 0.01184746461 3.259892356e-14)
(0.001526239905 0.005384004963 1.480759959e-14)
(0.00125642656 0.004489208278 1.21846977e-14)
(0 0 0)
(0 0 0)
(0 0 0)
(0 0 0)
(0 0 0)
(0 0 0)
(0 0 0)
(0 0 0)
(0 0 0)
(0 0 0)
(0 0 0)
(0 0 0)
(0 0 0)
(0 0 0)
(0 0 0)
(0 0 0)
(0 0 0)
(0 0 0)
(0 0 0)
(0 0 0)
(0 0 0)
(0 0 0)
(0 0 0)
(0 0 0)
(0 0 0)
(0 0 0)
(0 0 0)
(0 0 0)
(-0.0002296634049 0.0007144168763 2.095545959e-15)
(-0.0002074320159 0.0006540273739 1.887379142e-15)
(-0.0001819768222 0.0005814636723 1.665334537e-15)
(-0.0026026367 0.009138123782 2.611799665e-14)
(-0.002691219092 0.009324126443 2.700617507e-14)
(-0.004693159974 0.01710916523 4.954370247e-14)
(-0.00458235431 0.01693003231 4.83779683e-14)
(-0.01146344736 0.05023064885 1.433714258e-13)
(-0.01160147893 0.05014641832 1.450506382e-13)
(-0.01364058335 0.06284123749 1.817157536e-13)
(-0.01350545322 0.06308244587 1.799949079e-13)
(-0.01709446358 0.09946332712 2.83648105e-13)
(-0.01719649221 0.09863342374 2.850497616e-13)
(-0.01731625469 0.108118949 3.124445147e-13)
(-0.01723002512 0.1091570167 3.112926583e-13)
(-0.01453277683 0.1253591208 3.576305918e-13)
(-0.01457121496 0.1237800919 3.578665142e-13)
(-0.01286947555 0.1242218031 0)
(-0.01283959478 0.1258842632 0)
(-0.007574203026 0.1257841366 0)
(-0.007589655439 0.1249523382 0)
(-0.006713436348 0.1249357985 0)
(-0.006697868345 0.1257675946 0)
(0.007148786262 0.1255120327 0)
(0.007132854243 0.1246753485 0)
(0.008008902878 0.124657964 0)
(0.008024980849 0.1254942215 0)
(0.01416381605 0.1253527198 3.591710263e-13)
(0.01413132486 0.1236982603 3.592126596e-13)
(0.01570514381 0.1222465318 3.550909566e-13)
(0.01571468945 0.123706942 3.545497229e-13)
(0.01764156049 0.1043126382 2.990663273e-13)
(0.01772527578 0.1035539828 3.008981952e-13)
(0.01731562658 0.093401582 2.713801406e-13)
(0.01719937198 0.09391831347 2.692429613e-13)
(0.01280050459 0.05688275474 1.629529844e-13)
(0.01298586648 0.05697158276 1.654232307e-13)
(0.01077894705 0.04452657009 1.292299601e-13)
(0.01058604908 0.04429931148 1.268707361e-13)
(0.003669456936 0.01307157387 3.740063814e-14)
(0.003818638157 0.01342447827 3.89271948e-14)
(0.001969271878 0.006595316241 1.91235916e-14)
(0.001856503045 0.006300603894 1.802724636e-14)
(0 0 0)
(0 0 0)
(0 0 0)
(0 0 0)
(0 0 0)
(0 0 0)
(0 0 0)
(0 0 0)
(0 0 0)
(0 0 0)
(0 0 0)
(0 0 0)
(0 0 0)
(0 0 0)
(0 0 0)
(0 0 0)
(0 0 0)
(0 0 0)
(0 0 0)
(0 0 0)
(0 0 0)
(0 0 0)
(0 0 0)
(0 0 0)
(0 0 0)
(0 0 0)
(0 0 0)
(0 0 0)
(-0.0003387851705 0.0009966883255 3.094746681e-15)
(-0.0003054373095 0.0009114533683 2.789435349e-15)
(-0.0002757459515 0.0008344934768 2.525757381e-15)
(-0.002911744676 0.00968284159 2.921274334e-14)
(-0.003001073398 0.009840668849 3.011479954e-14)
(-0.005076930969 0.01751312709 5.356826094e-14)
(-0.004967024836 0.01737736169 5.241640455e-14)
(-0.01194121683 0.0494913382 1.4911683e-13)
(-0.01207530104 0.04933198494 1.507405312e-13)
(-0.01410501644 0.0613833017 1.874889133e-13)
(-0.01397416996 0.06170387152 1.858513343e-13)
(-0.0174539691 0.09579917088 2.883943084e-13)
(-0.01755186514 0.09489696981 2.897126983e-13)
(-0.01761912819 0.1036125785 3.163025397e-13)
(-0.01753676044 0.1047140783 3.152200723e-13)
(-0.01467732963 0.1189769594 3.583244812e-13)
(-0.01471258922 0.1173749123 3.584910147e-13)
(-0.01298618609 0.1175858999 0)
(-0.01295727616 0.1192439847 0)
(-0.007695310612 0.1191440783 0)
(-0.007710199759 0.1183155068 0)
(-0.006835171387 0.1182991827 0)
(-0.00682764901 0.1187135055 0)
(-0.006820133317 0.1191274815 0)
(0.00701183868 0.1188260649 0)
(0.006993424566 0.1179925892 0)
(0.007868498151 0.1179766111 0)
(0.007887022657 0.1188098149 0)
(0.01402130418 0.1186854843 3.591987818e-13)
(0.01398108486 0.1170021288 3.591293929e-13)
(0.01552503236 0.1153868323 3.542582894e-13)
(0.01558236919 0.1171818542 3.547301342e-13)
(0.01757514426 0.09895890381 2.996630721e-13)
(0.01748496324 0.09721918116 2.985667269e-13)
(0.01706599934 0.08753437316 2.688127498e-13)
(0.01716056935 0.08915592742 2.699507284e-13)
(0.01283045698 0.05412550653 1.637717739e-13)
(0.0127410595 0.05303331568 1.627309398e-13)
(0.01054712674 0.04131248051 1.267180805e-13)
(0.01062950351 0.04220269497 1.276478923e-13)
(0.003715316713 0.01254264648 3.788636072e-14)
(0.003666731689 0.01220854424 3.741451593e-14)
(0.001857557739 0.005890735262 1.804112415e-14)
(0.001891867709 0.006083477081 1.837419106e-14)
(0 0 0)
(0 0 0)
(0 0 0)
(0 0 0)
(0 0 0)
(0 0 0)
(0 0 0)
(0 0 0)
(0 0 0)
(0 0 0)
(0 0 0)
(0 0 0)
(0 0 0)
(0 0 0)
(0 0 0)
(0 0 0)
(0 0 0)
(0 0 0)
(0 0 0)
(0 0 0)
(0 0 0)
(0 0 0)
(0 0 0)
(0 0 0)
(0 0 0)
(0 0 0)
(0 0 0)
(0 0 0)
(-0.0004851692464 0.00134557205 4.440892099e-15)
(-0.0004455150513 0.001254367451 4.066191828e-15)
(-0.0004071614676 0.001163538261 3.719247132e-15)
(-0.003280404694 0.0102995053 3.291811268e-14)
(-0.003378826484 0.01045146861 3.388955783e-14)
(-0.005536776961 0.01801292708 5.83977311e-14)
(-0.005417727559 0.01789153292 5.714873019e-14)
(-0.01248580401 0.04879005638 1.556532681e-13)
(-0.01262740591 0.0485954653 1.57360236e-13)
(-0.01464179247 0.05999011964 1.94178007e-13)
(-0.01450445792 0.0603505307 1.924710391e-13)
(-0.01784798134 0.09211807519 2.936262344e-13)
(-0.01794859251 0.09117349632 2.949585021e-13)
(-0.01795062619 0.0990992843 3.205907761e-13)
(-0.0178669681 0.1002406799 3.195221865e-13)
(-0.01481439639 0.1125305162 3.588795927e-13)
(-0.01484693612 0.1109044401 3.589628594e-13)
(-0.01310012765 0.1109496735 0)
(-0.01307193124 0.1126087357 0)
(-0.007813197758 0.1125091228 0)
(-0.007827600865 0.1116797711 0)
(-0.006954075909 0.1116634374 0)
(-0.00694677803 0.1120781114 0)
(-0.006939443106 0.1124927077 0)
(0.006858198342 0.1121679396 0)
(0.00683741764 0.1113356657 0)
(0.007711660643 0.1113205902 0)
(0.007732629539 0.1121526291 0)
(0.01383001892 0.111753835 3.582967256e-13)
(0.01376184278 0.109873837 3.575750807e-13)
(0.01514313552 0.1072053819 3.489569744e-13)
(0.01526914455 0.1094509476 3.509970092e-13)
(0.01686828348 0.090207568 2.893518758e-13)
(0.01651540002 0.08714194215 2.837174939e-13)
(0.01604621655 0.07802826426 2.54019028e-13)
(0.01633645343 0.08053168038 2.582933867e-13)
(0.01180433257 0.04714089458 1.510735981e-13)
(0.01150652336 0.04530200239 1.473543509e-13)
(0.009330922389 0.0345502158 1.123406923e-13)
(0.009608602769 0.03609329614 1.15629728e-13)
(0.002997009559 0.009561615994 3.058664433e-14)
(0.002836113791 0.008916742151 2.894906537e-14)
(0.001260950939 0.003775027517 1.225408663e-14)
(0.00136886736 0.004158836787 1.330879851e-14)
(0 0 0)
(0 0 0)
(0 0 0)
(0 0 0)
(0 0 0)
(0 0 0)
(0 0 0)
(0 0 0)
(0 0 0)
(0 0 0)
(0 0 0)
(0 0 0)
(0 0 0)
(0 0 0)
(0 0 0)
(0 0 0)
(0 0 0)
(0 0 0)
(0 0 0)
(0 0 0)
(0 0 0)
(0 0 0)
(0 0 0)
(0 0 0)
(0 0 0)
(0 0 0)
(0 0 0)
(0 0 0)
(-0.0006131981679 0.00159723344 5.606626274e-15)
(-0.0006341470452 0.001678537685 5.800915304e-15)
(-0.0005788832085 0.001556676699 5.301314943e-15)
(-0.003700589033 0.01093051751 3.71092046e-14)
(-0.003826412018 0.01112403612 3.837208329e-14)
(-0.006071926409 0.01856106306 6.400435737e-14)
(-0.005922470726 0.01839531292 6.243616735e-14)
(-0.01307921533 0.04801064613 1.627586954e-13)
(-0.01325115993 0.047856653 1.647987302e-13)
(-0.01524342684 0.05857721357 2.016442568e-13)
(-0.0150782537 0.05890152107 1.995903443e-13)
(-0.01826320128 0.08831620557 2.990940828e-13)
(-0.01837918592 0.08738518589 3.006483951e-13)
(-0.01830402501 0.09451128766 3.251565683e-13)
(-0.01820985985 0.09564804033 3.23935323e-13)
(-0.0149402743 0.1059944214 3.59184904e-13)
(-0.01497004845 0.1043459067 3.592126596e-13)
(-0.01321160396 0.1043153654 0)
(-0.01318376174 0.1059740489 0)
(-0.007925902568 0.1058750697 0)
(-0.007939572119 0.1050457809 0)
(-0.007067700243 0.1050296718 0)
(-0.007060785437 0.1054444688 0)
(-0.007053838041 0.1058589569 0)
(0.006685867869 0.1055260161 0)
(0.006662712495 0.1046965247 0)
(0.007536660623 0.1046821486 0)
(0.007560085708 0.1055116349 0)
(0.01349693372 0.1038398632 3.538835891e-13)
(0.01337619649 0.1016092645 3.518019209e-13)
(0.01452009036 0.09759617982 3.379796443e-13)
(0.01471072947 0.1002042359 3.415601135e-13)
(0.01551994194 0.07853610875 2.677164046e-13)
(0.01525649307 0.0760997807 2.635530683e-13)
(0.0144622756 0.06640631667 2.29954944e-13)
(0.01492186659 0.0695351837 2.370048602e-13)
(0.0101664236 0.03829331304 1.30409572e-13)
(0.009528776363 0.03534548832 1.222910662e-13)
(0.007387030611 0.02575959984 8.908151994e-14)
(0.008026514507 0.02842411584 9.67559366e-14)
(0.002012132306 0.006045664296 2.056688153e-14)
(0.001757263452 0.005198142724 1.795785742e-14)
(0.0005707222062 0.001607401973 5.551115123e-15)
(0.0007183516188 0.002055043901 6.980527267e-15)
(0 0 0)
(0 0 0)
(0 0 0)
(0 0 0)
(0 0 0)
(0 0 0)
(0 0 0)
(0 0 0)
(0 0 0)
(0 0 0)
(0 0 0)
(0 0 0)
(0 0 0)
(0 0 0)
(0 0 0)
(0 0 0)
(0 0 0)
(0 0 0)
(0 0 0)
(0 0 0)
(0 0 0)
(0 0 0)
(0 0 0)
(0 0 0)
(0 0 0)
(0 0 0)
(0 0 0)
(0 0 0)
(-0.00109020217 0.002655220484 9.964251646e-15)
(-0.0009939251796 0.002462973504 9.076073226e-15)
(-0.0008506343918 0.002143857472 7.771561172e-15)
(-0.004230797061 0.01170840077 4.242439733e-14)
(-0.004545571906 0.01236717502 4.556077737e-14)
(-0.006893167992 0.01971407662 7.259470802e-14)
(-0.006508305682 0.01893473557 6.855627177e-14)
(-0.01383218511 0.04749532019 1.717237463e-13)
(-0.01408812789 0.0475376571 1.747907374e-13)
(-0.01600866787 0.05744406506 2.111366637e-13)
(-0.01579800174 0.05769365711 2.085276396e-13)
(-0.0187586408 0.08462951652 3.057137876e-13)
(-0.01882263307 0.08339952538 3.063799214e-13)
(-0.01871454478 0.08997935183 3.305550278e-13)
(-0.01860766482 0.09111660346 3.291533712e-13)
(-0.0150572976 0.09937358395 0)
(-0.01508741013 0.09771509834 0)
(-0.01332633824 0.0976820066 0)
(-0.01331144167 0.0985109634 0)
(-0.01329677479 0.09934000172 0)
(-0.008033402105 0.09924110891 0)
(-0.008040110895 0.0988270017 0)
(-0.007604056396 0.09881909905 0)
(-0.007597388364 0.09923309141 0)
(-0.0004701271113 0.09899698275 0)
(-0.0004789126984 0.09879055416 0)
(-0.0004863104043 0.09858406029 0)
(-5.929399143e-05 0.09858068734 0)
(-4.245777464e-05 0.09899328886 0)
(0.006481474356 0.09890039819 0)
(0.006451989819 0.09807449773 0)
(0.006422162968 0.09724883513 0)
(0.008175211115 0.09721940557 0)
(0.008232650123 0.09887181414 0)
(0.00735738826 0.0988860228 0)
(0.01292473505 0.09436986232 3.431560591e-13)
(0.01270194559 0.09147195414 3.382710778e-13)
(0.01352878768 0.08598375472 3.180233854e-13)
(0.01388685153 0.08954179001 3.256561687e-13)
(0.01395952334 0.06655125152 2.420286194e-13)
(0.01345705935 0.06315635275 2.335909244e-13)
(0.01247381746 0.05384322752 1.991046217e-13)
(0.01299969828 0.05701316387 2.073063943e-13)
(0.007896912912 0.02793359407 1.014743845e-13)
(0.007421462348 0.02582512993 9.539591339e-14)
(0.005427418177 0.01774773984 6.553091403e-14)
(0.005846016289 0.01943419944 7.0568551e-14)
(0.0008309286017 0.002341943515 8.493206138e-15)
(0.0006754652055 0.001872377569 6.89726054e-15)
(5.355344922e-05 0.0001413352278 5.273559367e-16)
(0.0001023172193 0.0002745626314 9.992007222e-16)
(0 0 0)
(0 0 0)
(0 0 0)
(0 0 0)
(0 0 0)
(0 0 0)
(0 0 0)
(0 0 0)
(0 0 0)
(0 0 0)
(0 0 0)
(0 0 0)
(0 0 0)
(0 0 0)
(0 0 0)
(0 0 0)
(0 0 0)
(0 0 0)
(0 0 0)
(0 0 0)
(0 0 0)
(0 0 0)
(0 0 0)
(0 0 0)
(0 0 0)
(0 0 0)
(0 0 0)
(0 0 0)
(-0.001033872175 0.00235404411 9.492406861e-15)
(-0.001168364676 0.002709790255 1.071365219e-14)
(-0.001248469198 0.002948517893 1.146305273e-14)
(-0.005034199097 0.01305546486 5.068168107e-14)
(-0.004872400958 0.01240827594 4.90579799e-14)
(-0.00726659641 0.01945182081 7.685518888e-14)
(-0.007460360199 0.02033786823 7.892297926e-14)
(-0.01472033831 0.04734154266 1.834227215e-13)
(-0.01448319272 0.04572532033 1.803973637e-13)
(-0.01637602113 0.05497035828 2.167849233e-13)
(-0.01660739535 0.05679484907 2.199629368e-13)
(-0.01918536763 0.0810244818 3.136380045e-13)
(-0.01903163765 0.07885271975 3.10793058e-13)
(-0.01877688679 0.0844279571 3.327893516e-13)
(-0.01888738479 0.0865831533 3.351763311e-13)
(-0.01498321448 0.0927196267 0)
(-0.01501518164 0.09106090702 0)
(-0.01324919424 0.09102687257 0)
(-0.01323321437 0.09185603976 0)
(-0.01321722707 0.09268559225 0)
(-0.007919341925 0.09258349038 0)
(-0.00793532922 0.0917539379 0)
(-0.007052374049 0.09173692141 0)
(-0.007044376688 0.09215189031 0)
(-0.007036386753 0.0925664739 0)
(-0.007477864339 0.09257498214 0)
(-0.0008555091684 0.09244735484 0)
(-0.0008634983653 0.09203277123 0)
(-0.0008714953567 0.09161780233 0)
(1.148694508e-05 0.09160078532 0)
(2.747424078e-05 0.09243033781 0)
(0.006208326121 0.09231121924 0)
(0.006176358955 0.09065249956 0)
(0.007914342293 0.09027249101 3.578526364e-13)
(0.007968473761 0.09220433288 3.589489816e-13)
(0.01204862633 0.08314838389 3.239908342e-13)
(0.01175152688 0.0799231609 3.170935736e-13)
(0.01231608096 0.07373601271 2.925715226e-13)
(0.01267445077 0.07705761977 3.003014504e-13)
(0.01171520115 0.05234873346 2.039757252e-13)
(0.01124179456 0.04939319507 1.959543638e-13)
(0.0100127938 0.04040569952 1.602606936e-13)
(0.01069863504 0.04393541011 1.71154757e-13)
(0.005600593793 0.01851687321 7.20534743e-14)
(0.004880531507 0.01585205056 6.281086762e-14)
(0.00331523516 0.01011631319 4.00651734e-14)
(0.003777875125 0.01173464257 4.56440441e-14)
(0.000139063229 0.0003660934574 1.415534356e-15)
(6.281335327e-05 0.000162446416 6.383782392e-16)
(0 0 0)
(0 0 0)
(0 0 0)
(0 0 0)
(0 0 0)
(0 0 0)
(0 0 0)
(0 0 0)
(0 0 0)
(0 0 0)
(0 0 0)
(0 0 0)
(0 0 0)
(0 0 0)
(0 0 0)
(0 0 0)
(0 0 0)
(0 0 0)
(0 0 0)
(0 0 0)
(0 0 0)
(0 0 0)
(0 0 0)
(0 0 0)
(0 0 0)
(0 0 0)
(0 0 0)
(0 0 0)
(0 0 0)
(0 0 0)
(-0.0002414935198 0.0005089837544 2.220446049e-15)
(-0.000438185336 0.0009420749891 4.024558464e-15)
(-0.0006509946694 0.001427146182 5.967448757e-15)
(-0.003733756264 0.008987760009 3.759492717e-14)
(-0.00319017709 0.00753161425 3.214095656e-14)
(-0.005195066367 0.01289195645 5.498379529e-14)
(-0.005876377486 0.01486814265 6.217248938e-14)
(-0.01269191892 0.03785862224 1.580680031e-13)
(-0.01176733886 0.03442784977 1.466049504e-13)
(-0.01364997263 0.04244984271 1.806749195e-13)
(-0.01458883548 0.04625728186 1.930400284e-13)
(-0.01767717894 0.06909811803 2.881722638e-13)
(-0.01690017508 0.06477774191 2.755157213e-13)
(-0.01702553142 0.07076349723 3.009675842e-13)
(-0.01768939501 0.07499176989 3.12749826e-13)
(-0.01494031982 0.08515094039 3.553546346e-13)
(-0.01471269298 0.08212629753 3.494843304e-13)
(-0.01325755996 0.08367376586 3.561873019e-13)
(-0.01333675089 0.08599859511 3.590183706e-13)
(-0.008047225439 0.08594784107 0)
(-0.00807920003 0.08428873609 0)
(-0.006313251157 0.08425470239 0)
(-0.006281276566 0.08591380736 0)
(-0.007164270267 0.08593082459 0)
(-0.0009833914162 0.0858117055 0)
(-0.001015366008 0.08415260052 0)
(0.0007505944246 0.08411856659 0)
(0.000782569016 0.08577767157 0)
(0.006032564801 0.08491269644 3.560207684e-13)
(0.005919071464 0.08197480747 3.504835311e-13)
(0.007429093644 0.07943520694 3.397560011e-13)
(0.007620456147 0.08293989075 3.47874507e-13)
(0.01076805037 0.06939530435 2.912670105e-13)
(0.01030296784 0.06511574386 2.78679857e-13)
(0.010508767 0.05838481019 2.498834473e-13)
(0.0110528564 0.06262975573 2.628869344e-13)
(0.009298951769 0.03864090157 1.621203172e-13)
(0.008638413234 0.03518901796 1.505462421e-13)
(0.00732326301 0.02740040361 1.171840402e-13)
(0.007970333587 0.03042023715 1.275923811e-13)
(0.003122806511 0.009592080141 4.019007349e-14)
(0.00268295805 0.008079956957 3.451405828e-14)
(0.001372360326 0.003883356364 1.658395643e-14)
(0.001864277238 0.005380692834 2.25375274e-14)
(0 0 0)
(0 0 0)
(0 0 0)
(0 0 0)
(0 0 0)
(0 0 0)
(0 0 0)
(0 0 0)
(0 0 0)
(0 0 0)
(0 0 0)
(0 0 0)
(0 0 0)
(0 0 0)
(0 0 0)
(0 0 0)
(0 0 0)
(0 0 0)
(0 0 0)
(0 0 0)
(0 0 0)
(0 0 0)
(0 0 0)
(0 0 0)
(0 0 0)
(0 0 0)
(0 0 0)
(0 0 0)
(0 0 0)
(0 0 0)
(0 0 0)
(0 0 0)
(0 0 0)
(0 0 0)
(-5.931853376e-06 1.199999555e-05 5.551115123e-17)
(-0.001419515641 0.003154748314 1.430799923e-14)