/*--------------------------------*- C++ -*----------------------------------*\
| =========                 |                                                 |
| \\      /  F ield         | OpenFOAM: The Open Source CFD Toolbox           |
|  \\    /   O peration     | Version:  v1912                                 |
|   \\  /    A nd           | Website:  www.openfoam.com                      |
|    \\/     M anipulation  |                                                 |
\*---------------------------------------------------------------------------*/
FoamFile
{
    version     2.0;
    format      ascii;
    class       volScalarField;
    location    "0.93";
    object      nut;
}
// * * * * * * * * * * * * * * * * * * * * * * * * * * * * * * * * * * * * * //

dimensions      [0 2 -1 0 0 0 0];


internalField   nonuniform List<scalar> 
12556
(
1.155878313
1.155848165
1.155818805
1.155797334
1.156027074
1.156027405
1.156045503
1.156087732
1.156164883
1.156290419
1.156447792
1.156595358
1.149350259
1.156651545
1.15648402
1.156335752
1.156204118
1.156123427
1.15606426
1.156044173
1.155823523
1.155840979
1.155867554
1.155895199
1.155113409
1.155024756
1.154943792
1.154893283
1.155117915
1.155154404
1.155262748
1.155539092
1.155902861
1.156490383
1.157276561
1.133618534
1.061384573
1.079291661
1.157686296
1.156894054
1.156226351
1.155753912
1.155370756
1.155222004
1.154965387
1.155008079
1.155083022
1.155161419
1.154312232
1.154165812
1.1540409
1.153982162
1.154235624
1.154354857
1.154614548
1.155163799
1.15604731
1.157438865
1.014388347
0.8837076418
0.8357147039
0.859235983
0.958110149
1.140994835
1.156748766
1.15567898
1.154854296
1.154494739
1.154127674
1.154164939
1.154279504
1.154416664
1.153497256
1.153303419
1.153153053
1.153111016
1.153404902
1.153676691
1.154289641
1.155285963
1.157117942
0.916323426
0.7235087107
0.6138048517
0.5720928623
0.5965034251
0.6824376314
0.8404917183
1.088079271
1.156212937
1.154686271
1.153950751
1.153363398
1.1533553
1.153482837
1.153658883
1.152655627
1.152418102
1.152257409
1.152267209
1.152662923
1.153180425
1.15433866
1.156138098
0.9343219464
0.6708782638
0.497711688
0.3877031376
0.3429099271
0.3662883757
0.4511396217
0.5946164151
0.8133737216
1.134732917
1.155039689
1.15366535
1.15267779
1.152558599
1.1526743
1.152891559
1.151811999
1.151549911
1.151403213
1.151485985
1.152042325
1.152933841
1.154932092
1.093960057
0.7456006688
0.513879015
0.3419790188
0.2206464668
0.1711222073
0.1997479964
0.2849298252
0.4178370233
0.6150202788
0.9061471363
1.156026053
1.153706209
1.152168767
1.151813547
1.15187401
1.152102989
1.150963642
1.15067992
1.1505671
1.150776384
1.15159113
1.152974595
1.156067131
0.9472264398
0.6369668826
0.4206821538
0.2478296001
0.1119728777
0.06231882907
0.09772793857
0.1820896925
0.305280179
0.4840819777
0.7386684855
1.13197242
1.154143754
1.151760173
1.151102428
1.151061552
1.15128531
1.150145059
1.149863847
1.149813832
1.150230148
1.151257876
1.15332623
1.157581851
0.8668835943
0.5928194749
0.3956544213
0.2329697218
0.09466498057
0.05475102642
0.1349584042
0.2444833563
0.4066451937
0.6403610539
1.007844413
1.154941697
1.151526507
1.150476652
1.150278696
1.150472322
1.14938097
1.149101788
1.149139447
1.149800161
1.151058109
1.15397357
1.134990601
0.8329843722
0.5983425318
0.4311712506
0.3065706413
0.2257750261
0.06495703809
0.129996636
0.2245451835
0.3711409283
0.5845649637
0.9274491429
1.156057066
1.151468056
1.149939632
1.149545633
1.149693072
1.148722496
1.148466616
1.148606664
1.149522777
1.15109654
1.154867856
1.108685693
0.8366653085
0.630062645
0.4923665067
0.4106658774
0.431726103
0.09002421241
0.1460272743
0.2320590379
0.3683460618
0.5656550208
0.8842029015
1.157367646
1.15162771
1.149574631
1.148943215
1.149022534
1.148165222
1.147934076
1.148206518
1.14943155
1.151359301
1.155953977
1.099945263
0.8531799478
0.6686303523
0.5481333286
0.4885253095
0.5684847736
0.1219868935
0.175133757
0.2592327657
0.3900377716
0.5763997544
0.873611322
1.15879483
1.151973366
1.14937372
1.148498406
1.148504124
1.147760782
1.14756521
1.147962005
1.149481067
1.151781061
1.157169784
1.103024165
0.8788758971
0.7052932204
0.5854248715
0.5133716226
0.4985220732
0.1586238099
0.2164072861
0.3046579871
0.436050183
0.6134378944
0.8912844519
1.160227086
1.152544143
1.149402054
1.148274368
1.148196259
1.147450417
1.147298156
1.147870673
1.14972479
1.152302859
1.158408068
1.114183213
0.9189088753
0.745560992
0.6155561419
0.5030529189
0.4440230703
0.07036229605
0.2042822203
0.278042013
0.3760054482
0.5067102614
0.6820246089
0.9343525922
1.161598015
1.153205866
1.149597108
1.148242827
1.148094645
1.147288495
1.147179044
1.147902059
1.150021537
1.153089885
1.159824946
1.167413655
0.966825133
0.804318554
0.6635615351
0.5256898207
0.2921880529
0.1341741602
0.3006274863
0.387187039
0.4856251429
0.6112690058
0.7719275337
0.9990193994
1.162861216
1.153942637
1.149963694
1.148393796
1.14818403
1.147163599
1.147088369
1.147948419
1.150335441
1.153764442
1.161022325
1.16896237
1.051187997
0.8960711924
0.7628499457
0.6222025069
0.08692423803
0.1863874273
0.4672602427
0.5845000455
0.6529177856
0.7548520067
0.8990204852
1.106776488
1.163961728
1.154662465
1.150389522
1.148679553
1.148418027
1.147132786
1.147088764
1.148061826
1.150671908
1.154401771
1.162053886
1.170191966
1.168885434
1.044371921
0.9379321391
0.8419663621
0.04292449084
0.2146231027
0.507425116
0.8038705056
0.8912343497
0.9508189342
1.064032793
1.168533163
1.164858334
1.155327665
1.150847902
1.149028381
1.148738459
1.147060459
1.147031278
1.148090905
1.150914774
1.154943481
1.162873158
1.171144924
1.169616371
1.146487788
1.06388537
0.635680564
0.02827007749
0.2723358306
0.564582653
0.8442048789
1.027896222
1.118363742
1.156723635
1.169458332
1.165491316
1.155864762
1.151258169
1.14936711
1.149059977
1.14703399
1.147013946
1.148131074
1.151106727
1.155346655
1.163450145
1.171697183
1.170037154
1.141682693
1.008747847
0.3398446633
0.03736547776
0.3353314906
0.622951664
0.8760524264
1.036565169
1.120288077
1.157801415
1.169880645
1.165821852
1.156256773
1.151605034
1.149696305
1.149380887
1.146912261
1.14688515
1.148031389
1.1511433
1.155592091
1.163782627
1.171904578
1.169945993
1.138446364
0.9540701954
0.2070230342
0.06146147846
0.3774908688
0.6562280688
0.8874982192
1.038657606
1.121104744
1.158135037
1.169901231
1.1658961
1.156468688
1.15181704
1.149916397
1.149597463
1.146822403
1.146789131
1.147941991
1.151121729
1.1556766
1.163890776
1.171817167
1.169460226
1.134236664
0.9140197357
0.1886467646
0.07455660701
0.3867982946
0.6586750037
0.8899875746
1.039545498
1.121152177
1.157926043
1.16960366
1.165753863
1.156579684
1.151981613
1.150101624
1.14977627
1.146612202
1.146565316
1.147707549
1.150945072
1.155617554
1.163806139
1.171494713
1.168658181
1.128987177
0.8705144682
0.1802028399
0.0835657976
0.3901872329
0.6582215729
0.8904954056
1.039536138
1.120649101
1.157329955
1.169062709
1.165442469
1.156536922
1.152002533
1.150147362
1.149816299
1.146444865
1.146394709
1.147521352
1.1507598
1.155440038
1.163566728
1.170993425
1.167603505
1.122731441
0.825712846
0.1755343824
0.09154127553
0.3920985594
0.6566922369
0.8889855225
1.03870241
1.119720565
1.156457109
1.168342264
1.165007067
1.156447531
1.152006543
1.150173422
1.149829468
1.146146445
1.146092298
1.147201476
1.150453134
1.155180039
1.163214146
1.170362502
1.166338808
1.115281614
0.7860229448
0.1735551925
0.09843488379
0.3929294351
0.6545426016
0.8859062058
1.036997089
1.118412794
1.155373437
1.167493634
1.164484631
1.156235538
1.151872986
1.150055597
1.149697605
1.145913604
1.1458688
1.146967836
1.150195237
1.154864739
1.162786997
1.169639136
1.164866602
1.106050685
0.7545948572
0.1735280994
0.1042842719
0.3929785283
0.651887976
0.8818336276
1.034446435
1.11673535
1.15411131
1.166552856
1.163901742
1.156027268
1.151764099
1.149954977
1.149574984
1.14554326
1.145507241
1.146599263
1.149830602
1.154519726
1.162314217
1.1688457
1.163136908
1.094617371
0.7304835375
0.1752146507
0.1090956407
0.3923298816
0.6487837144
0.8771687671
1.031194938
1.114706956
1.152689865
1.165543992
1.163276824
1.155709071
1.1515183
1.149709921
1.149307544
1.145264249
1.145248692
1.146343949
1.149550524
1.154153644
1.161813625
1.167990334
1.161062481
1.081415712
0.7118350585
0.1782628405
0.113006528
0.3911084144
0.6453229015
0.8721526612
1.02742019
1.112366263
1.151126609
1.164483422
1.162621884
1.155436041
1.151339332
1.149524897
1.149092832
1.144843561
1.144845357
1.145944236
1.149155688
1.153778803
1.161294547
1.167071507
1.158551985
1.067437995
0.6971677837
0.1823413623
0.1162144088
0.3894662334
0.6416137822
0.8669276205
1.023267463
1.109759573
1.149439714
1.163383083
1.16194542
1.155049327
1.151015775
1.149191003
1.148730969
1.144535286
1.144564232
1.145677716
1.148871255
1.153393173
1.160761899
1.166081816
1.155548828
1.053566973
0.6854344527
0.1871403998
0.1188715367
0.3875608566
0.6377291279
0.8615676034
1.018836449
1.106929009
1.147645761
1.16225149
1.161253148
1.154745503
1.150798616
1.148957583
1.148462955
1.144088434
1.144138729
1.145262055
1.148458658
1.153006293
1.160218155
1.165010529
1.1520554
1.040333819
0.6759986888
0.1925065167
0.1210733116
0.385463989
0.6337044279
0.8561108138
1.014195088
1.103909729
1.145758651
1.161094598
1.160549029
1.154314544
1.150426432
1.148569854
1.148044951
1.143758138
1.143839081
1.144985266
1.148175075
1.152612524
1.159664704
1.163845389
1.148128992
1.027986697
0.6684751893
0.1984066884
0.1228866954
0.3832072183
0.6295645581
0.8505842643
1.009392254
1.100730094
1.143789153
1.159916348
1.159836364
1.15399805
1.150187895
1.148308637
1.147746399
1.143314609
1.143417793
1.144576742
1.147761774
1.152221977
1.159101037
1.16257502
1.143857678
1.016597997
0.6625293939
0.204765834
0.1243609426
0.3808321938
0.6253372684
0.8450098611
1.004464015
1.097413012
1.141745929
1.158719481
1.159116126
1.153545516
1.149797789
1.147902188
1.147309861
1.142952469
1.143088339
1.144275807
1.147469406
1.151826667
1.158525914
1.161191697
1.139336856
1.006150447
0.6578474241
0.2114497265
0.1255475078
0.3783722477
0.6210400677
0.8394038463
0.9994374327
1.093977503
1.139636011
1.157506004
1.1583919
1.153213241
1.149531833
1.147609845
1.146978239
1.142555398
1.142712241
1.143914229
1.14709172
1.151436057
1.157936209
1.159693047
1.134655037
0.9965904156
0.654210622
0.2184037841
0.1265234942
0.3758551087
0.616695928
0.83377712
0.994332319
1.090439948
1.137465689
1.156277894
1.157660667
1.152780869
1.149171523
1.147234276
1.146575135
1.142124857
1.142316192
1.143549603
1.146745922
1.151043341
1.157331829
1.158083198
1.12988804
0.9878572094
0.6514593454
0.2255813356
0.1273721975
0.3733146536
0.6123315299
0.8281503505
0.9891733457
1.086817036
1.135242884
1.155039977
1.156932133
1.15238412
1.148835127
1.146870473
1.146169567
1.141839888
1.142049309
1.143298932
1.146485769
1.15066132
1.156719003
1.156384987
1.125094618
0.9798661989
0.6494300084
0.232882941
0.128144736
0.3707786749
0.6079839259
0.8225386956
0.9839779218
1.083125422
1.132974572
1.153809069
1.156206548
1.152076057
1.148587136
1.146609087
1.145885716
1.141271988
1.141523933
1.142813895
1.146016417
1.150323341
1.156134902
1.15469208
1.120328103
0.972562444
0.6479850859
0.2401764293
0.1288963487
0.3683010642
0.6037066508
0.816995402
0.9787890674
1.079387592
1.130666883
1.152652257
1.155552112
1.151528181
1.148128773
1.146119833
1.145345438
0.1993120541
0.05775609178
0.04753061098
0.4140922983
0.08203955947
0.06059245649
0.5546365145
0.1150441111
0.08594605251
0.5064737893
0.1454074646
0.119922353
0.4491715906
0.05222177265
0.06589479027
0.1796297861
0.1492274751
0.3418049381
0.09561724859
0.05375366129
0.1216910768
0.2428500992
0.1827002913
0.09165135824
0.06286990047
0.04920431541
0.09257933547
0.02947810085
0.02032994148
0.06256152199
0.1101307053
0.1143737434
0.3854024472
0.3989180885
0.2319958483
0.03806693198
0.04962450748
0.08673831617
0.1247798198
0.112189027
0.4737428563
0.5344881661
0.4173478848
0.4806970275
0.2208814135
0.2536722016
0.06507864709
0.04716338139
0.1178924899
0.1522487191
0.1306620019
0.5110310663
0.5462765923
0.5468478471
0.5437084687
0.1371304159
0.1824529408
0.1161336219
0.08718489738
0.5038941932
0.4735013505
0.5391552107
0.4850525822
0.07748752637
0.1044503401
0.02190617383
0.1365509274
0.1314263115
0.5159988641
0.3798174742
0.4627195593
0.4067254057
0.02913344234
0.0486463829
0.2814884213
0.1374871959
0.1047654514
0.07494373775
0.1892235632
0.03529858917
0.06758513968
0.04819840071
0.03071399693
0.05011511852
0.03255576531
0.0463794323
0.2582891874
0.2922890626
0.3422754446
0.2246193128
0.2042201842
0.2244852234
0.2286251671
0.04671100278
0.0378888784
0.07179868005
0.05481268373
0.06184809989
0.04762013943
0.05505795977
0.07036837395
0.1857485897
0.2161339309
0.500428341
0.1657392575
0.13703914
0.2019801126
0.1681415266
0.08329091933
0.06659277338
0.1026456435
0.0887136995
0.1122867564
0.06243770744
0.08567304765
0.09827420323
0.1060056135
0.1352550683
0.5348544767
0.1070935398
0.07950429449
0.1354166011
0.1086023056
0.1305378758
0.1205780903
0.04963536633
0.07561139218
0.4827800058
0.01513475688
0.05215136188
0.03083518278
0.07836348086
0.05375995868
0.01333753433
0.1424411739
0.1381631225
0.02478792663
0.004672449723
0.02881273466
0.4011395606
0.08078219148
0.01806961894
0.01008016382
0.03048896198
0.01840290128
0.07887713294
0.2822113276
0.2078825525
0.1105881599
0.1207572603
0.07472124428
0.04175835898
0.01775083648
0.008676767679
0.3141057194
0.2968612598
0.2086594637
0.009224802616
0.1516089535
0.1884841159
0.1604674535
0.01004876976
0.07203955939
0.06286726178
0.09299992526
0.1579984002
0.1459806653
0.185466577
0.08331785407
0.1361549182
0.04232436504
0.01385951117
0.0242006144
0.02330487265
0.03087798944
0.04869997
0.06096652085
0.04406099889
0.1343532263
0.1245323163
0.1325563352
0.1136879961
0.1233467837
0.1311635134
0.03542896471
0.01152757152
0.06404566588
0.02475794265
0.04267057447
0.03434817223
0.02060024483
0.03222292027
0.02357012108
0.01795366925
0.02364844925
0.02170219247
0.01040203767
0.01722560135
0.02238091862
0.04785521695
0.04858695167
0.05629240245
0.05503574423
0.02185830101
0.01046001431
0.1033351603
0.01841428259
0.0342479269
0.00963360627
0.01558712424
0.0990999613
0.09263943665
0.2739885435
0.2592862685
0.09061630292
0.07679693562
0.01022692529
0.04361451918
0.1959002995
0.1817627393
0.215505155
0.2016376673
0.04398342161
0.05247412516
0.04267283528
0.1122067891
0.06922064101
0.06400123945
0.04033863395
0.06863411548
0.1272739116
0.04298198179
0.02532070063
0.01589582334
0.05704631343
0.02821760365
0.04779839099
0.02689748358
0.06777321621
0.03860871442
0.0380758926
0.2199187412
0.03060190405
0.2190045987
0.2494834527
0.03465401064
0.03922286137
0.0310577598
0.03410634983
0.2442470791
0.04472881917
0.04438214118
0.05880810619
0.0688067502
0.06423525191
0.07518961498
0.07038449447
0.05916674388
0.05766392431
0.05672529848
0.05171463796
0.06258998744
0.05810366013
0.05911819648
0.1515933213
0.1497420535
0.1862956593
0.1841882637
0.07876592425
0.009406483657
0.07726525196
0.09677001309
0.09479707844
0.121347846
0.11953282
0.03661563123
0.05417985975
0.1283626742
0.04100054979
0.02357270069
0.06615074501
0.2350111807
0.220558025
0.2543274708
0.2398111921
0.06752049053
0.03222221603
0.04756236923
0.04654034706
0.07082895242
0.06993225461
0.006677012887
0.04275478551
0.1092707233
0.09538300895
0.1762666885
0.1657502397
0.02295589464
0.01164614576
0.02599490806
0.01679989212
0.02903063954
0.01104034649
0.0156350765
0.01132656017
0.02906606435
0.06858640386
0.01204082054
0.02219445304
0.003481668954
0.02272585361
0.01688718757
0.5849233008
0.3902955076
0.3641726111
0.2593256933
0.008120537311
0.005311469214
0.1798189421
0.3881023468
0.2730967623
0.006160899904
0.01468736355
0.01103991536
0.1198571597
0.1141692381
0.04623318952
0.1959082731
0.1640793589
0.09651644196
0.01017066941
0.0174351567
0.01384415562
0.008976513992
0.01344461368
0.009462817452
0.0409447491
0.01781826337
0.01669619063
0.05187361455
0.06084703116
0.01833992886
0.02507942227
0.01163433862
0.01162934147
0.04925676391
0.1530861215
0.3503894379
0.3360269928
0.3695556956
0.3551822695
0.1567494613
0.2931563969
0.2786486545
0.09403189665
0.03207981299
0.0960836497
0.09048147024
0.01075711625
0.01596581826
0.1133785895
0.04458441144
0.02017040736
0.01796975893
0.0378142284
0.04391810199
0.03977375994
0.0501508524
0.0453703136
0.03906527672
0.04570845282
0.01207242287
0.01169661527
0.03956094779
0.1986446164
0.3886122152
0.3742942779
0.05967963473
0.06176526132
0.142444102
0.02662820037
0.02912172367
0.07078970051
0.09816030745
0.102685811
0.09495785624
0.069651432
0.08279519988
0.07707469254
0.0921385828
0.08505318657
0.07093316935
0.1206945461
0.312248721
0.2978926342
0.3312677045
0.3170266611
0.1226878761
0.1027464067
0.03585008537
0.03658479295
0.02066444311
0.02146793367
0.08421124782
0.1296093868
0.05529118245
0.05925250979
0.03689784069
0.03758767578
0.1131433616
0.1296868779
0.05690723029
0.07603607249
0.007019754466
0.02185289143
0.04977584875
0.03771114469
0.07508178197
0.0200247443
0.02051756969
0.01959688504
0.06328398624
0.01065810098
0.004400064415
0.1252550015
0.1060789435
0.08855933348
0.08402390381
0.02842875374
0.02412210968
0.03726069235
0.08619574982
0.01785182213
0.01103412833
0.02295380687
0.03064266974
0.002874008791
0.0300011363
0.01941133525
0.01237987647
0.006359905484
0.01220448998
0.009346296603
0.009202872512
0.03348683708
0.02552067824
0.00659199807
0.03887325622
0.04073213416
0.01623230794
0.01126806977
0.007624315341
0.01176881694
0.01768398762
0.01114749608
0.01541079148
0.05176309385
0.01006089672
0.009370028539
0.01088485617
0.01380288899
0.04257689055
0.01086515759
0.01055620163
0.01399896005
0.01086600732
0.01104965513
0.02317403188
0.01572991437
0.0331479285
0.02607444043
0.0108315862
0.01913986703
0.02180822178
0.01871330946
0.03042905691
0.02322348752
0.01831405131
0.01646425053
0.01278399466
0.015347317
0.01202422751
0.04321966613
0.05107816815
0.01639906033
0.01544203967
0.0170863597
0.01773008251
0.0593854118
0.01052806666
0.01078129067
0.01416396747
0.01076326728
0.01088871145
0.05062088071
0.01120028165
0.01671061622
0.0147672945
0.01320633686
0.02445829948
0.06371930281
0.0580197089
0.01208361228
0.04795090487
0.04116259632
0.05593121547
0.05032040541
0.01270793554
0.01228608507
0.04454002317
0.03666304868
0.1050889431
0.09809329846
0.03577444456
0.04618115217
0.1128619079
0.1070108605
0.04661115587
0.0455926922
0.07201592645
0.08845949707
0.1110049136
0.06606033117
0.08269249641
0.0731635213
0.06250059262
0.1535774261
0.1395255039
0.1224490805
0.1577712043
0.06241050547
0.04142190598
0.04835638476
0.06045345376
0.03589926883
0.04046034865
0.02791911182
0.02653354496
0.04327767753
0.0192686339
0.01938561419
0.01537166142
0.02769309321
0.03186608261
0.02014814845
0.02794091187
0.03456112334
0.03688273157
0.02923744952
0.0286890106
0.09955005096
0.08622301305
0.1069816442
0.1023787633
0.02986610561
0.07675489069
0.07424330633
0.08244038379
0.07766529033
0.03632759113
0.1269541176
0.1214167833
0.1360900376
0.1289448639
0.03698041632
0.03227429218
0.1131039233
0.1085909182
0.1196658509
0.1146912373
0.03264996997
0.01267557802
0.01223784577
0.04543098533
0.04119785809
0.01240671835
0.01283517906
0.04262338575
0.04181385036
0.04489691493
0.04290165116
0.04034027901
0.03925030233
0.04154805329
0.04061942398
0.0704570898
0.06828161878
0.07346651351
0.07122061544
0.0623241832
0.04772903771
0.06736910335
0.06508521364
0.03004875726
0.02536402828
0.03918643657
0.03261019097
0.008174562565
0.01607499659
0.01502175564
0.02366934991
0.01664969276
0.0348737524
0.03548769663
0.1012648421
0.02056622161
0.02036640414
0.02121306597
0.02075406794
0.01972298304
0.08672920775
0.02205777089
0.03277035758
0.03978458809
0.05329554085
0.1276038239
0.03637299978
0.02331702945
0.03910829582
0.03607777972
0.02198079782
0.02144977955
0.02289639174
0.02220430439
0.1146899149
0.03782444137
0.03873067418
0.006517233613
0.03348321226
0.009330400561
0.01002629583
0.009317827348
0.03100786309
0.007233770873
0.02455867222
0.01037608387
0.01073541899
0.04910798345
0.04256157853
0.01941977898
0.01991451251
0.07408035383
0.06555347227
0.0185367043
0.01935148119
0.009925038239
0.02733643554
0.08124705196
0.07242724697
0.0120608541
0.01168208941
0.01705603906
0.01129462026
0.01193461438
0.02091126867
0.02988936199
0.00767267448
0.01285809261
0.01100790126
0.01187778227
0.02023147688
0.05645269576
0.1207158598
0.1575357229
0.009714509229
0.009683365201
0.1869238077
0.2407108531
0.1995000757
0.00654776121
0.04491283725
0.01538254337
0.02236790774
0.1368577111
0.1425530238
0.1594278538
0.005016752703
0.007922899611
0.005863259143
0.004949567645
0.006046557613
0.004744492208
0.06055409875
0.0380442339
0.02373592814
0.02640917541
0.02338178426
0.02715565364
0.2350944851
0.4260203678
0.412164658
0.4449472336
0.4306446582
0.2397355305
0.05477354983
0.04732541667
0.0139953107
0.08062549409
0.09430353775
0.1340011831
0.1206813945
0.1147261086
0.046677371
0.02878414025
0.03440988701
0.0332262577
0.4074686555
0.3933281976
0.2028313929
0.1593504803
0.06788136557
0.07199379478
0.07531434728
0.08700748677
0.1754154925
0.05744013881
0.129622797
0.1227524965
0.01076139154
0.0110100816
0.01699125034
0.01918449237
0.01947113221
0.03166499849
0.0118930097
0.01015601245
0.01026426144
0.03270247493
0.06584630849
0.05688134791
0.01802815802
0.03027299765
0.0187627966
0.01892716415
0.01841150987
0.01502445829
0.009522398074
0.01241569154
0.01134774615
0.01005272404
0.02791217137
0.03498170732
0.07147872829
0.04094119462
0.038470957
0.03515516246
0.02588687497
0.05421834086
0.0180548998
0.02524424877
0.0107589748
0.007523559282
0.007624084639
0.01095867977
0.01076721025
0.024638551
0.01554775082
0.0105422087
0.02245581766
0.01994463288
0.01828551642
0.01853897226
0.02237068141
0.01999570414
0.01135754737
0.01222498225
0.007015202076
0.009277393922
0.01165179635
0.07165578117
0.06561439699
0.02663270104
0.009372537423
0.01624211507
0.01455944305
0.01091146617
0.01658075195
0.01428652095
0.05010624866
0.03808518413
0.04368945536
0.07026767454
0.1016153834
0.0998226779
0.04203135974
0.06999749224
0.0658890097
0.09861455259
0.09629932659
0.06689537051
0.03619425567
0.04375028155
0.03771317434
0.02884533551
0.02982114248
0.02443113801
0.04928646749
0.04766737439
0.05548879098
0.0228821066
0.03337940257
0.03168691726
0.05287621475
0.0524643578
0.03033466742
0.02788055343
0.02744920591
0.03062384236
0.02988900575
0.03524752931
0.05979864144
0.059090422
0.06403099518
0.06313996734
0.03839147752
0.03141469249
0.05425775773
0.05368153436
0.05836445444
0.05765230399
0.0336013316
0.06504349243
0.06711277858
0.1573596227
0.1441786862
0.06239106548
0.06438908397
0.09465562024
0.09823958826
0.1929470749
0.02580382161
0.02566301742
0.02720104633
0.02697754115
0.01958004072
0.02538144489
0.02528191642
0.177621382
0.08945880703
0.09332166637
0.009605542565
0.009676369046
0.01405174957
0.01333186121
0.00944440662
0.009587352532
0.009042473255
0.07226615064
0.03031220326
0.03730880698
0.1385560537
0.1319159964
0.06075272354
0.07060857844
0.1465670589
0.1405431007
0.03098497546
0.0310505742
0.0479285393
0.04620229223
0.03059173003
0.03055113881
0.009991633869
0.02178966933
0.03448884401
0.03427029831
0.008233782343
0.01388486922
0.02317734636
0.01209622466
0.01167838303
0.01788659092
0.01812936041
0.02947871766
0.01113307736
0.007995120782
0.01102572049
0.01104363363
0.02753487493
0.01740572521
0.01798486324
0.01558146275
0.04206748251
0.03556387445
0.009874940321
0.009919346753
0.01085034855
0.01138820359
0.01874191515
0.006680570587
0.004330873475
0.008050401328
0.01285036036
0.009544607349
0.0103232064
0.009494349764
0.009753261107
0.01151186473
0.01060972478
0.007027105355
0.005402650813
0.01532546813
0.01579800575
0.01479681586
0.01495347634
0.0173074346
0.02628552627
0.02665047428
0.0257953248
0.02611926427
0.01714687381
0.01147662364
0.02028323029
0.02023253707
0.02095792427
0.02042543768
0.01126454467
0.01918234022
0.02939891943
0.03256899417
0.02696322204
0.02781310976
0.01860339335
0.01202212619
0.02022989639
0.02020759553
0.02018828036
0.0202192682
0.01184278759
0.01423598718
0.01455386613
0.01369069071
0.01441489964
0.03601006351
0.05551829121
0.05503157931
0.02091477559
0.03458366468
0.03434487597
0.03586765017
0.0349275826
0.02111709158
0.01037143193
0.01018391173
0.01039886028
0.0103856636
0.01945351387
0.01926710786
0.01986555157
0.01965674573
0.01515788484
0.03369011899
0.02005616033
0.02096530941
0.02020677262
0.03388975124
0.03367594459
0.03420159956
0.03402752208
0.0203376866
0.02075023984
0.02016516198
0.03036688362
0.02170636622
0.01555507058
0.006883127812
0.01011581201
0.01103161631
0.006798708753
0.04098566949
0.02828096078
0.003035740809
0.02842925044
0.04369103704
0.04331657077
0.01780704337
0.01095916647
0.008044606544
0.003914836367
0.0118231292
0.01183679616
0.01854571769
0.01869871864
0.03019824549
0.01883244837
0.009760579958
0.008954324398
0.0151418565
0.004067197581
0.009270358527
0.007225015653
0.00536741207
0.006655751761
0.009314819707
0.007472799569
0.009829475541
0.01085497607
0.01016779858
0.04069186257
0.03094050721
0.008584818714
0.01078508406
0.01207824001
0.01879713945
0.02112677006
0.01286273315
0.01582568493
0.01479688946
0.009611359901
0.006498268632
0.009651680816
0.01049403895
0.007207336749
0.01054350802
0.01062703196
0.01244440754
0.01095543044
0.01079930777
0.01080524477
0.01062011773
0.0115844911
0.01129866578
0.01097425015
0.01086308621
0.01110592497
0.01282212533
0.01204749107
0.02381408203
0.02167616465
0.0235843913
0.0271630644
0.02957802056
0.02317871047
0.02150901203
0.02297555602
0.01461887719
0.02331352339
0.02474585133
0.01693571726
0.02341963041
0.01550668592
0.01606582445
0.02530205905
0.02562029727
0.02474558933
0.02518027876
0.01585311107
0.01728207174
0.03026557735
0.02975530759
0.01066214214
0.01072660987
0.01223344501
0.009740033766
0.01005547844
0.01038102051
0.01078294915
0.01037313574
0.01344200644
0.02505221612
0.0224070483
0.02895599763
0.02747247055
0.01566020385
0.009236734606
0.01031710712
0.01753901122
0.0067342509
0.009280340841
0.009268315553
0.01260885741
0.009284761319
0.009505023567
0.02136915531
0.01897489051
0.01057217627
0.04806634181
0.04436386362
0.08775828905
0.0778462963
0.04413051163
0.06658555755
0.09521176411
0.09099436391
0.03625616406
0.03306475538
0.03246671045
0.02333087286
0.02923197824
0.04712055188
0.04595866075
0.03985138363
0.02784574981
0.03955039162
0.04012983774
0.03607160135
0.03726501225
0.02628948088
0.01832710678
0.01962009812
0.02946135052
0.02111964711
0.02015344657
0.02234211192
0.02129821959
0.02990124973
0.02064219457
0.02130111256
0.01709106596
0.02205273076
0.04802688296
0.04824262462
0.03021032648
0.02982771547
0.05135756363
0.05135112005
0.02860504949
0.02819086995
0.02941562494
0.02897082246
0.06111038889
0.06042521958
0.03568637675
0.03766898098
0.06245153032
0.0617852642
0.05561892211
0.05499781191
0.03189626583
0.03307542026
0.0569274225
0.05626944495
0.01249569922
0.02024282798
0.02025029
0.02024973436
0.02026297456
0.01243507314
0.01291944485
0.01874618686
0.01627539012
0.02013566191
0.01976560517
0.0128879573
0.04234004006
0.02450484563
0.02477645292
0.02408702484
0.02429035229
0.04208326041
0.04373739149
0.02571285888
0.02618678788
0.02503957396
0.02535081786
0.04323673941
0.03994240377
0.02287190056
0.02311419371
0.02250666638
0.02273877467
0.03970535067
0.04125574466
0.02369760033
0.02388618573
0.02327528851
0.02351185731
0.04097416096
0.02625152724
0.02606881577
0.06974065751
0.04580373592
0.04614562954
0.04505498972
0.04535023166
0.06894152163
0.02670859753
0.02650142158
0.02415261984
0.02542195892
0.06011119395
0.04113323659
0.04080996578
0.02707528109
0.02847902436
0.05331698132
0.06685360696
0.04430716126
0.04451484699
0.04354399608
0.04348634594
0.06549399652
0.02494435936
0.02499750078
0.009562595923
0.00985106326
0.009308905233
0.01262587449
0.01095960653
0.01568833392
0.01004755447
0.00995141383
0.01008160849
0.01007074121
0.01546487434
0.02117131917
0.01143221851
0.01328720238
0.01016383374
0.009857331643
0.01832779469
0.03479954579
0.05285625538
0.05253614822
0.05430811488
0.05393681491
0.03539011905
0.0205264817
0.02028999877
0.02109521007
0.02082178215
0.02087439299
0.01640446405
0.0231445701
0.04296274665
0.0381839246
0.0503139904
0.04847786082
0.0328438356
0.02530882175
0.01763421006
0.02266996005
0.02405007084
0.03840971452
0.0221610481
0.02244737832
0.02150791364
0.02222228396
0.03847995336
0.02181931766
0.02159237868
0.02263773187
0.02239345875
0.009574805503
0.01261861761
0.01195705182
0.01664453384
0.01388835435
0.009507852532
0.009273750307
0.00951055938
0.01121661431
0.01023037478
0.006561569605
0.01053144865
0.01099572461
0.01085709748
0.01299008207
0.01176435662
0.01035795398
0.01883494604
0.01879245184
0.01907199341
0.01901365013
0.02898591714
0.0289243652
0.04421408303
0.01804730183
0.0190628964
0.01856960466
0.01863450566
0.01963570691
0.03311745015
0.03277217862
0.03352812663
0.03325667151
0.01971768975
0.01907929375
0.0320850124
0.03030610454
0.03264297454
0.0320889516
0.0190684707
0.01019305846
0.04169095394
0.04109109547
0.02716599624
0.01213533737
0.01023014489
0.01029894791
0.007629250977
0.01058193234
0.01174636053
0.0176430655
0.01156445123
0.01193480667
0.01176678381
0.02959893717
0.01823350171
0.01843556077
0.01084159412
0.01119888123
0.01105877976
0.01132811586
0.01147732283
0.008056926806
0.008021329296
0.01156651231
0.01114551313
0.0113758093
0.01478593734
0.01824329044
0.0276159429
1.15521882
1.1557283
1.155796106
1.155943126
1.156770007
1.156327643
1.157083535
1.133171057
1.157075858
1.092484272
0.9733234913
1.147261442
0.9525959182
0.9032980476
1.063125753
0.8984936347
0.9106883848
1.071813754
0.9221390278
0.9966957213
1.15792823
1.024725953
1.158163653
1.157080272
1.157843542
1.15681983
1.156369537
1.15653822
1.155820274
1.15585219
1.155194856
1.156269985
1.155780968
1.1567322
1.059610052
1.157041964
0.992773755
0.8315053193
1.05888639
0.7909612998
0.6995597833
0.9060637348
0.6786661101