/*--------------------------------*- C++ -*----------------------------------*\
| =========                 |                                                 |
| \\      /  F ield         | OpenFOAM: The Open Source CFD Toolbox           |
|  \\    /   O peration     | Version:  v1912                                 |
|   \\  /    A nd           | Website:  www.openfoam.com                      |
|    \\/     M anipulation  |                                                 |
\*---------------------------------------------------------------------------*/
FoamFile
{
    version     2.0;
    format      ascii;
    class       volScalarField;
    location    "700";
    object      k;
}
// * * * * * * * * * * * * * * * * * * * * * * * * * * * * * * * * * * * * * //

dimensions      [0 2 -2 0 0 0 0];


internalField   nonuniform List<scalar> 
12556
(
36.829
36.8288
36.8289
36.8308
36.9166
36.9183
36.9196
36.9223
36.9273
36.9362
36.9494
36.9642
36.9749
36.9758
36.967
36.9534
36.9404
36.9309
36.9244
36.9208
36.833
36.8298
36.8291
36.8287
36.6491
36.6493
36.6497
36.6537
36.7326
36.7401
36.7473
36.7947
36.8093
36.8345
36.8711
36.9126
36.9433
36.9482
36.9259
36.8886
36.8513
36.8223
36.7634
36.7487
36.66
36.6526
36.6506
36.6496
36.4704
36.4708
36.4717
36.4776
36.5523
36.5656
36.5815
36.6335
36.6689
36.7279
36.8117
36.8988
36.9548
36.9636
36.9245
36.8491
36.7659
36.6988
36.617
36.5855
36.4924
36.4795
36.4751
36.4733
36.2934
36.2939
36.2955
36.3038
36.3749
36.3955
36.4239
36.4905
36.5644
36.6869
36.8336
36.9652
37.0475
37.056
36.9939
36.8823
36.7466
36.617
36.4965
36.437
36.3321
36.3108
36.3028
36.2996
36.1181
36.1188
36.1215
36.1328
36.203
36.233
36.2799
36.3712
36.5143
36.718
36.9458
37.1665
37.307
37.3042
37.1831
36.9991
36.7966
36.6036
36.4138
36.3078
36.1801
36.1466
36.133
36.1277
35.9447
35.9457
35.9498
35.9649
36.0364
36.0794
36.1541
36.2882
36.5178
36.8146
37.1955
37.6469
37.9775
37.8963
37.5874
37.2457
36.9263
36.646
36.3774
36.2029
36.0374
35.9867
35.9651
35.9568
35.7736
35.7753
35.7815
35.8012
35.8753
35.9352
36.0473
36.2412
36.5578
36.9898
37.6415
38.7864
39.5423
39.3621
38.3651
37.6702
37.1491
36.7404
36.3841
36.1245
35.9047
35.8314
35.799
35.7866
35.6058
35.6085
35.6175
35.6431
35.7217
35.8022
35.9592
36.2185
36.6231
37.2126
38.2214
40.4643
42.0964
39.6572
38.2873
37.4636
36.8847
36.4152
36.0709
35.7828
35.6815
35.6358
35.6183
35.4424
35.4464
35.4588
35.4914
35.5764
35.6808
35.8866
36.2082
36.6994
37.4273
38.6865
41.8999
46.2717
41.2054
39.0274
37.842
37.066
36.4629
36.0369
35.6721
35.539
35.4778
35.4542
35.2844
35.29
35.3065
35.347
35.4399
35.5704
35.8254
36.2034
36.7754
37.6113
39.0184
42.2726
49.0632
42.5648
39.7557
38.2332
37.2618
36.5201
36.0161
35.5733
35.4061
35.328
35.2975
35.1326
35.1401
35.161
35.2102
35.3124
35.4702
35.7724
36.2022
36.85
37.7794
39.318
42.0594
50.4425
43.5835
40.3828
38.5929
37.4501
36.5781
36.0029
35.4854
35.2843
35.1889
35.1511
34.9873
34.9967
35.0223
35.0808
35.1933
35.3787
35.7254
36.2053
36.9264
37.9517
39.6149
41.5777
50.9128
44.2661
40.8666
38.8913
37.6123
36.6285
35.9914
35.4063
35.1735
35.0614
35.0161
34.8481
34.8601
34.8912
34.9595
35.0815
35.2943
35.6823
36.212
37.0063
38.1394
39.9123
40.936
42.2737
50.4758
44.6697
41.1996
39.1125
37.7357
36.6651
35.975
35.3324
35.0717
34.9444
34.8921
34.7145
34.7287
34.7648
34.8422
34.9793
35.222
35.6516
36.2374
37.1147
38.3798
40.2524
39.234
48.9312
50.4155
44.8394
41.3885
39.2537
37.8148
36.6832
35.9481
35.2598
34.9759
34.8354
34.7768
34.5852
34.6015
34.6423
34.7281
34.8768
35.143
35.6065
36.2372
37.1893
38.5614
40.4251
32.9834
49.7662
49.8427
44.7586
41.4408
39.3163
37.8495
36.6784
35.9058
35.1838
34.8821
34.7307
34.667
34.4588
34.4771
34.5222
34.6156
34.7753
35.0616
35.5534
36.2221
37.2399
38.6921
40.2131
28.3435
48.1631
48.8948
44.4943
41.3897
39.308
37.8366
36.6392
35.8458
35.1015
34.7873
34.6268
34.559
34.3339
34.354
34.4029
34.5029
34.6726
34.9757
35.4897
36.1877
37.2489
38.7128
39.6602
24.5988
46.5976
47.908
44.0696
41.2191
39.2293
37.7727
36.5661
35.7656
35.0104
34.6883
34.5209
34.4501
34.2095
34.231
34.2833
34.3888
34.5672
34.8839
35.4145
36.1327
37.2161
38.6206
38.888
21.8473
45.1461
46.9802
43.6043
40.9707
39.078
37.6583
36.4632
35.6656
34.9083
34.5826
34.4114
34.3379
34.0847
34.1074
34.1625
34.2726
34.4583
34.7856
35.3282
36.0591
37.1477
38.4477
37.9749
19.8614
43.8094
46.1182
43.1436
40.6926
38.8882
37.5118
36.3386
35.5502
34.7966
34.4702
34.2963
34.2214
33.959
33.9827
34.0401
34.1538
34.3456
34.6811
35.2319
35.9698
37.0504
38.2166
36.9969
18.4207
42.5761
45.3123
42.7023
40.4072
38.6799
37.3461
36.1982
35.4223
34.6764
34.3511
34.1757
34.1001
33.832
33.8565
33.9158
34.0326
34.2293
34.571
35.1273
35.8678
36.9298
37.9417
36.0094
17.3611
41.4333
44.5554
42.2831
40.1248
38.4642
37.1694
36.0468
35.2848
34.5491
34.226
34.05
33.9739
33.7039
33.729
33.7898
33.909
34.1096
34.4562
35.016
35.7557
36.7903
37.6321
35.0399
16.5684
40.3696
43.8414
41.8828
39.8498
38.2473
36.9873
35.8881
35.1403
34.416
34.0957
33.9197
33.8433
33.5746
33.6002
33.6623
33.7836
33.9873
34.3376
34.8993
35.6356
36.6352
37.2941
34.1057
15.9641
39.3754
43.1647
41.4967
39.5838
38.0326
36.803
35.7251
34.9911
34.2785
33.9614
33.7855
33.709
33.4444
33.4705
33.5336
33.6568
33.863
34.2161
34.7787
35.5092
36.4666
36.9351
33.2171
15.4949
38.4425
42.5204
41.1224
39.326
37.8218
36.619
35.5599
34.8389
34.1379
33.8239
33.6484
33.5718
33.3136
33.34
33.4041
33.529
33.7372
34.0926
34.6553
35.3777
36.2861
36.563
32.3795
15.1239
37.5646
41.9046
40.7583
39.075
37.6157
36.4366
35.3942
34.6851
33.9951
33.684
33.5088
33.4322
33.1823
33.2092
33.2741
33.4007
33.6105
33.9678
34.5299
35.2421
36.0946
36.1837
31.5945
14.8255
36.7359
41.3138
40.4034
38.8296
37.4141
36.2568
35.2288
34.5306
33.8509
33.5425
33.3677
33.2909
33.0509
33.0781
33.1439
33.272
33.4833
33.8423
34.4031
35.1028
35.8933
35.8013
30.8612
14.5819
35.952
40.7453
40.0568
38.5891
37.2169
36.0798
35.0647
34.3762
33.7059
33.4
33.2254
33.1485
32.9196
32.9471
33.0138
33.1434
33.356
33.7164
34.2753
34.9602
35.6839
35.4185
30.1773
14.3808
35.2091
40.1969
39.7176
38.3527
37.0235
35.9057
34.9021
34.2224
33.5607
33.2569
33.0826
33.0055
32.7886
32.8165
32.8839
33.0151
33.2289
33.5905
34.1468
34.8143
35.4682
35.0375
29.5397
14.2131
34.504
39.6669
39.3852
38.12
36.8337
35.7345
34.7414
34.0695
33.4156
33.1137
32.9395
32.8621
32.658
32.6862
32.7545
32.8872
33.1021
33.4648
34.0177
34.6655
35.2477
34.6597
28.9446
14.0727
33.8341
39.1538
39.0589
37.8906
36.6471
35.5662
34.5827
33.9177
33.2709
32.9707
32.7965
32.7188
32.5281
32.5566
32.6258
32.76
32.9759
33.3395
33.8881
34.5139
35.0236
34.2862
28.3882
13.9552
33.1971
38.6566
38.7383
37.6642
36.4632
35.4005
34.426
33.7673
33.1268
32.8281
32.6539
32.5758
32.3988
32.4278
32.4977
32.6336
32.8504
33.2147
33.7581
34.3599
34.7969
33.918
27.8668
13.8573
32.5913
38.1743
38.4229
37.4405
36.2819
35.2373
34.2715
33.6184
32.9836
32.6862
32.5117
32.4334
32.2705
32.2998
32.3707
32.5081
32.7258
33.0905
33.6277
34.2037
34.5684
33.5554
27.3766
13.7769
32.0148
37.7062
38.1126
37.2193
36.1029
35.0765
34.1191
33.4711
32.8415
32.5451
32.3704
32.2916
32.1429
32.1726
32.2444
32.3835
32.6022
32.9671
33.4969
34.0458
34.3389
33.199
26.9144
13.7124
31.4664
37.2518
37.8071
37.0003
35.926
34.9179
33.9687
33.3253
32.7003
32.4047
32.2298
32.1505
32.0173
32.0474
32.1202
32.2607
32.4795
32.8444
33.3658
33.8863
34.1089
32.8487
26.4767
13.6626
30.945
36.8106
37.5063
36.7835
35.7511
34.7614
33.8204
33.1813
32.5611
32.2665
32.0912
32.0115
31.8984
31.929
32.0027
32.1446
32.3591
32.7234
33.2353
33.7257
33.8787
32.5047
26.0606
13.627
30.4496
36.3824
37.2102
36.569
35.578
34.6069
33.6752
33.0401
32.4306
32.1367
31.961
31.8808
41.7851
46.6415
42.4672
42.2746
49.9619
47.167
42.1049
51.4198
50.2297
41.6492
51.9156
51.5177
40.9845
40.5143
41.9074
51.9553
51.9377
39.7182
44.9255
40.7
48.6254
52.1597
51.8968
40.2
39.4702
41.9321
39.3187
50.9589
44.2713
45.8041
41.6095
40.1766
38.9412
41.6429
41.1428
53.9917
55.5709
48.7988
43.3104
42.0732
39.2437
41.6779
41.6687
42.237
43.5091
44.4692
51.9491
52.1206
50.3298
44.5445
43.6633
39.5406
41.4797
41.6614
41.9011
40.0991
41.9599
52.3556
51.8279
39.8385
41.1403
41.4452
41.3428
35.6284
37.8588
40.9823
53.4841
53.0232
40.1811
40.4536
41.0841
40.5654
31.8429
33.1855
36.0756
45.395
45.3652
45.6909
46.8292
42.5762
45.4041
55.5395
51.4172
44.9017
50.0865
54.5553
44.5891
45.3376
42.2319
45.8295
44.6223
46.7797
45.975
52.2055
53.8354
48.6032
54.3751
53.2828
54.6784
54.4634
48.421
42.145
43.3492
42.2126
42.995
41.3007
44.5395
43.1081
51.7657
51.9838
51.0373
53.3521
53.3356
53.2308
53.3641
50.8718
37.9808
39.9825
41.8426
39.0915
36.7537
41.1835
39.2174
52.9518
52.4364
33.2868
35.4912
41.3021
42.8778
34.1501
32.4457
36.6336
34.2812
43.8081
53.6517
53.5428
40.5655
40.576
31.7879
40.5105
42.7234
32.2815
63.1725
32.3697
32.2364
42.3643
38.5874
41.0397
39.9131
41.1619
44.5245
42.1892
59.0154
48.9928
42.1836
45.4327
45.8897
46.2711
50.8929
45.3481
44.7816
49.2363
45.546
45.2127
45.022
53.9841
53.7582
45.8641
44.7621
41.349
51.0324
44.4799
51.0373
43.7274
49.3699
44.2891
44.9378
42.8593
51.7984
53.4841
53.6125
53.342
53.461
51.7415
39.5953
48.13
41.0044
40.8775
40.5563
42.1976
43.4892
41.1421
40.9565
59.9438
48.2436
58.5285
47.3723
57.2154
47.2446
55.1715
55.2684
51.8738
51.8881
42.2384
45.278
52.1286
42.9258
42.866
46.5386
43.1228
52.0581
36.8639
40.7518
40.3892
46.9452
45.8913
47.606
32.4679
38.4729
37.9576
39.1356
38.6462
32.5617
54.4225
51.4884
46.3809
51.6594
53.1159
48.4236
51.3645
46.5719
43.9189
48.8114
43.7959
52.8979
49.6118
44.3418
52.0132
54.455
54.345
54.0846
45.3006
42.5111
45.2122
46.4998
45.3142
48.0061
42.7894
44.9655
46.3797
52.9388
53.0551
53.8216
52.5587
52.077
53.0227
52.6924
53.744
55.0079
50.955
50.052
51.8881
51.2157
54.9931
42.2138
42.1022
43.9255
43.8344
52.2263
46.7549
52.1976
38.1692
37.9905
40.2273
40.0975
42.9908
44.6099
52.6649
42.6477
42.1129
34.5705
39.7356
39.2906
40.2645
39.8741
34.6974
39.6945
33.4752
33.3749
35.7869
35.662
50.0098
39.994
48.3192
47.2946
37.7909
36.914
33.0244
35.7802
39.4441
42.9014
31.9365
56.2822
43.7551
54.0443
31.9013
41.3256
46.8051
40.6799
56.08
40.8671
41.9782
40.4101
39.3529
40.3234
38.2599
32.0997
40.337
50.1326
51.4732
52.0495
52.6325
42.5435
44.9357
49.5948
48.6483
40.139
54.058
54.0334
45.4031
42.5112
41.9747
43.9563
46.9488
42.5344
42.6349
54.5184
57.0878
56.4215
55.5322
51.8493
46.7488
46.825
49.6021
48.9377
51.9405
40.9661
42.3033
42.0515
42.6176
42.3844
41.1194
41.1967
40.8673
36.9923
32.0584
35.1478
34.7765
58.1282
44.0556
45.0053
55.226
57.8007
57.297
52.3926
48.0964
46.6744
49.7058
48.5328
52.7724
52.4938
50.5876
49.8815
53.4526
42.6785
42.9005
42.6914
38.228
38.6432
41.6475
46.8101
46.655
52.0747
53.3298
53.5249
53.4917
53.0415
53.3138
53.1103
53.4707
53.3641
53.0295
39.0014
41.5991
41.301
41.9647
41.6938
39.1442
38.7148
34.8026
35.0843
33.6734
33.782
37.1587
40.7928
37.5055
38.0869
35.1857
35.5101
39.5952
52.7371
44.8713
47.1249
52.0197
40.9106
33.8423
32.7612
36.2732
33.466
33.631
33.1013
34.9397
47.9529
38.0405
36.0596
35.0222
34.6568
34.2838
31.6793
40.2087
38.6156
43.7526
32.3914
66.252
40.365
39.2581
43.9124
32.1586
32.1357
55.9849
55.1972
54.6096
46.9549
46.8969
40.4663
40.6559
49.7022
49.6821
49.2499
46.9424
55.7772
47.4365
57.1002
47.9734
44.6859
42.4545
43.5889
46.1527
47.9893
47.7277
43.806
39.8679
48.5466
52.4681
43.7042
47.2354
54.2509
40.598
42.7438
39.1712
40.1108
52.467
60.4731
55.0613
52.4474
57.5349
55.7563
51.4768
48.4328
53.9605
55.1383
54.7663
54.7137
55.4855
56.176
55.3868
47.5685
46.8655
51.8456
48.0411
48.4788
46.6607
47.8241
48.5308
51.9163
48.6894
47.8392
42.9658
43.3612
42.6185
48.078
47.4042
44.6543
46.4681
45.9835
47.1359
46.6338
44.1574
43.9327
40.9499
40.5266
35.7373
35.2673
32.1412
32.8209
36.2516
35.8732
53.3135
52.8585
52.4973
49.102
49.2942
48.3434
48.9631
52.7521
49.9278
49.0803
48.7594
49.2841
49.1449
50.383
51.9835
47.2353
48.1012
54.2284
54.3991
57.8306
57.6417
55.0288
58.5487
58.8853
58.6352
58.4152
57.9791
58.9986
58.6081
53.0883
57.3854
57.9091
41.4636
45.2772
44.3362
46.0456
45.5036
41.7221
43.3374
42.8364
44.0797
43.5086
46.4045
48.0148
47.5381
48.6198
48.1699
46.7918
43.6846
46.7184
46.2149
47.3761
46.8844
43.99
51.5221
50.8251
52.5995
53.3591
52.4821
51.7335
38.1976
37.7767
38.8533
38.3451
37.0981
36.7179
37.639
37.2301
42.0203
41.5258
42.6739
42.1844
40.5047
39.1129
41.3593
40.7937
45.4185
45.3488
45.863
45.5279
47.1025
45.5255
46.3416
45.3557
45.3663
34.416
34.7119
38.5882
34.0953
33.8484
34.393
34.1732
33.7777
37.3384
33.8208
34.2834
36.1543
37.1285
40.6418
35.8159
35.1781
36.5926
36.124
34.7348
34.4741
35.0897
34.8241
39.7205
35.6247
36
47.9556
42.1895
47.8034
45.8619
47.644
42.1095
52.5692
40.4618
52.1991
49.6709
33.7509
32.9196
33.2378
33.407
36.1521
35.1865
33.0937
33.1906
49.688
31.6885
34.133
33.2137
61.3755
63.576
32.4878
62.0349
55.6448
40.9576
32.0907
56.5562
47.0421
62.4283
48.452
32.1492
41.6113
39.7248
38.5844
49.5954
49.1836
50.948
45.8165
45.4941
48.9658
40.0325
42.8834
40.7431
53.633
53.8384
51.9732
44.2338
43.4983
47.0144
54.1637
44.3685
44.4497
40.6122
41.0372
43.1206
49.6201
53.8208
55.7199
43.9523
43.3491
43.2021
43.5046
43.3921
44.0879
42.2188
41.3164
42.9831
47.4151
48.3003
53.2289
36.7395
36.3741
32.9118
56.2246
57.0922
52.6926
43.1471
42.9658
42.8508
42.6584
39.9333
40.4449
40.6941
41.691
43.4432
33.7633
37.262
36.8634
46.8946
45.7195
42.1128
32.5243
32.4925
32.5318
44.9296
49.963
48.3971
39.8553
43.2102
42.4986
32.3082
32.2999
32.583
32.562
32.2019
58.3574
46.8326
43.6898
44.675
49.8657
40.9029
40.8185
45.8999
50.5621
46.1704
44.6213
47.0499
43.9876
41.9486
41.0469
53.997
54.2155
54.8362
51.4921
53.3977
42.0296
42.4097
45.7793
59.0909
57.2401
56.4145
60.8776
60.2051
42.4191
44.4139
43.7698
46.7804
46.6708
44.441
48.7628
48.2672
42.6187
46.1505
43.735
43.9532
46.1015
42.0659
42.803
54.1267
54.9541
51.9409
51.9457
51.2469
51.0783
48.8307
49.3159
49.0159
50.898
50.7064
51.0571
45.9784
46.9411
51.6281
53.1382
56.317
54.9445
55.4792
55.8899
54.4769
40.9019
41.8581
41.6177
44.5156
44.2675
42.2398
39.8771
39.6639
41.3566
41.0891
45.6768
47.1256
46.8541
48.7399
48.4718
47.5944
43.0772
45.0184
44.7652
46.5841
46.3166
44.6274
39.3541
39.7854
42.5485
41.7611
38.7839
39.2114
42.5911
43.041
44.1956
38.3169
38.1427
39.4633
39.2631
37.1662
37.9734
37.8092
43.545
41.9265
42.4385
47.0824
47.1625
44.2595
44.6274
46.8791
47.1846
47.3398
52.1008
46.6702
46.9805
37.779
37.3985
34.0035
35.0367
38.2235
37.8939
32.5936
32.6618
33.5694
33.2593
32.465
32.5273
50.291
32.1502
31.9548
32.1145
103.483
33.6813
40.4355
54.0043
50.8846
32.5004
32.5114
31.98
57.0796
58.3668
58.2178
51.7951
31.8857
32.4796
32.4875
43.5133
38.9823
39.0759
48.9955
49.6832
45.3632
44.4821
41.5265
55.187
55.7158
57.2115
43.233
47.9592
46.5943
48.3961
48.3728
44.0158
43.6164
44.1979
52.177
53.8262
54.0543
53.32
53.5862
56.8731
56.3143
56.5015
55.9289
56.1232
56.6365
49.4177
48.9086
49.1145
48.6481
48.7426
49.2024
57.6318
56.9614
57.0114
56.682
56.8429
57.4799
50.3049
49.8093
50.0554
49.3389
49.5708
50.1163
52.8329
53.0567
52.376
52.5791
34.8928
36.2747
36.1638
33.7104
34.1709
34.0713
34.4031
34.2792
33.7469
51.2725
51.2868
48.9656
50.6674
32.929
32.9301
32.9369
32.9319
32.976
32.6316
32.4764
32.4924
33.5251
33.7952
33.7063
33.9774
33.8857
33.5811
32.9582
32.9438
33.012
32.9967
33.3054
50.6414
50.4746
46.2456
51.1165
32.9611
32.1491
41.5395
31.703
32.2063
32.1334
32.3308
66.4854
65.9087
64.4236
65.3414
61.5791
32.5555
32.5797
32.2299
32.1663
57.8021
58.9555
57.627
56.78
55.7121
53.1045
58.1989
56.8454
47.029
46.9687
49.8556
45.8108
47.3274
50.1154
48.6398
54.3736
49.782
51.6566
56.7339
57.3546
53.4155
55.9747
58.3718
47.483
48.3318
47.9438
50.2136
53.3675
53.5976
51.9408
44.8076
50.9561
48.9113
53.629
52.975
46.0193
47.9955
49.5334
54.7551
50.7508
45.4292
46.6136
59.0719
57.9369
59.5969
56.8704
58.5145
59.4374
59.8521
59.4738
54.8796
54.6348
54.8621
54.2577
54.4136
54.6937
55.9125
55.516
55.7263
55.0834
55.3016
55.6578
47.306
48.5256
48.6169
48.2043
48.3691
47.0308
47.9262
47.8107
47.5075
48.7564
49.0474
48.3522
48.6897
48.6421
48.6924
48.7221
48.1023
46.3552
45.3111
42.6541
47.1654
47.3794
47.2191
43.8445
46.83
46.8143
43.4985
43.5957
45.3355
53.7462
52.3955
50.0227
49.6514
49.1863
50.7372
50.5046
50.2872
56.5719
56.4993
53.8654
57.7779
58.0648
54.4679
56.2567
56.5043
57.7316
56.913
56.8718
56.9731
56.9407
57.6583
58.6632
58.7435
58.3265
59.9235
59.9286
59.6436
59.8208
58.2124
59.0763
59.938
60.2402
59.1124
43.3745
42.8034
41.2128
41.9799
44.0164
43.7394
40.3348
40.1013
40.8292
40.5777
47.6635
47.3945
46.0356
47.1895
48.2037
47.934
45.5352
45.2759
43.3773
44.3009
46.0526
45.7932
51.2955
50.8232
51.0895
50.305
50.5603
51.0217
52.227
51.8796
52.1023
51.3606
51.6288
51.9998
38.0546
36.7736
36.9131
36.4997
36.6367
37.915
38.6636
37.3647
37.525
37.0571
37.2073
38.4989
36.9689
35.7254
35.8433
35.4988
35.6114
36.8424
37.5018
36.2271
36.363
35.9659
36.094
37.3649
38.6809
38.4963
41.8558
40.3474
40.523
40
40.1731
41.691
39.0643
38.8701
37.3507
37.2286
40.0636
38.5549
39.0035
37.6835
37.8396
39.5122
41.189
39.655
39.8278
39.2775
39.4774
41.0072
37.6505
37.4973
46.3393
46.8123
46.9309
45.0637
45.6397
45.7624
47.5709
47.4597
47.7586
47.6905
46.0417
45.3299
46.1692
45.6728
47.2068
46.7949
45.3116
34.5214
35.8108
35.6591
36.0524
35.9367
34.6183
34.0122
33.9282
34.3164
34.2462
33.7515
33.9051
33.8781
34.8106
34.5657
35.4517
35.1437
34.0937
35.3701
35.0743
35.0099
35.2688
36.463
35.2771
35.3871
35.0738
35.1719
36.3184
34.646
34.5588
35.0016
34.9131
47.7307
43.2369
43.856
42.2145
42.6868
47.1846
46.8092
47.3492
44.59
45.6187
47.5438
52.2824
46.096
47.3505
43.8437
44.9541
51.6132
32.8752
32.8363
32.9232
32.906
32.3861
32.4115
33.1132
32.7199
32.7351
32.7947
32.7545
33.2913
33.4538
33.3752
33.6196
33.5353
33.3485
33.123
33.1629
33.0921
33.3004
33.2299
33.151
50.3326
32.0569
31.962
31.774
59.7532
77.7731
79.01
71.7806
73.9759
61.5932
32.7789
59.6749
51.6295
53.2545
32.0308
32.5169
32.5321
56.9818
59.5248
59.9572
54.9856
57.2656
62.3468
59.893
50.0518
57.5784
55.3895
32.7786
32.5312
31.9312
36.6724
36.6925
36.8037
36.7013
36.7356
36.8251
36.7497
36.8004
36.8584
36.8191
36.877
36.8997
36.8946
36.9369
36.9358
36.9459
36.9566
36.9499
36.9544
36.9314
36.9354
36.9188
36.8702
36.9011
36.8524
36.7989
36.8625
36.7825
36.7391
36.8305
36.5241
36.5674
36.6582
36.5861
36.6593
36.7107
36.6894
36.7884
36.7893
36.8212
36.9128
36.8792
36.9393
37.0005
36.9449
37.0134
37.0266
36.9662
37.0225
36.9867
36.9383
36.9679
36.8955
36.8698
36.8674
36.7759
36.7855
36.7443
36.6569
36.7137
36.3982
36.484
36.542
36.5215
36.6563
36.6518
36.7044
36.8555
36.7972
36.9068
37.0541
36.9356
37.0978
37.1981
37.0333
37.218
37.2308
37.0611
37.2203
37.1526
37.015
37.1205
37.0046
36.9133
36.9604
36.8229
36.7819
36.7772
36.6442
36.6463
36.3054
36.4531
36.4706
36.5129
36.7094
36.6646
36.7827
37.028
36.8875
37.1171
37.396
37.1154
37.4867
37.7033
37.2841
37.7427
37.7357
37.3183
37.697
37.5266
37.221
37.4592
37.2422
37.0494
37.1691
36.9543
36.847
36.8855
36.6913
36.6508
36.25
36.4648
36.4534
36.5449
36.8281
36.7332
36.9397
37.3449
37.0917
37.5103
38.1394
37.5321
38.3993
39.1655
37.9274
39.24
39.0509
37.9519
38.8691
38.2964
37.6724
38.1249
37.6768
37.33
37.5451
37.1908
37.0029
37.0845
36.7976
36.7121
36.2226
36.4988
36.4715
36.6052
36.9951
36.8666
37.1555
37.7876
37.4477
38.0776
39.6894
38.4285
39.1976
39.9051
38.9441
40.7096
40.6806
39.5767
40.0206
39.578
39.092
39.2923
38.3533
37.8235
38.1167
37.538
37.2675
37.377
36.963
36.8337
36.2101
36.5466
36.5098
36.6801
37.1721
37.0401
37.3766
38.1992
37.9006
38.3558
38.7913
38.6205
40.7157
41.3899
41.0655
43.7282
42.1015
41.0413
40.8221
39.2131
38.5568
38.8383
37.973
37.6406
37.7441
37.1761
37.0129
36.2043
36.5987
36.5595
36.7566
37.3315
37.2139
37.5676
38.5047
38.284
38.777
39.299
39.1938
42.0074
42.9453
42.8251
47.4914
44.8179
43.8734
42.2555
40.0847
39.4369
39.581
38.4346
38.0885
38.1371
37.4108
37.2339
36.2022
36.6515
36.6118
36.8313
37.4764
37.3686
37.7376
38.7647
38.5712
39.0942
39.6721
39.5829
42.2665
43.0679
43.1397
49.7232
46.6363
46.0814
43.3619
40.8374
40.2867
40.2383
38.8648
38.5467
38.5078
37.6403
37.4695
36.2042
36.7067
36.665
36.907
37.6206
37.512
37.9074
39.0302
38.8295
39.3922
39.9947
39.92
42.0099
42.3426
42.5158
50.7031
47.5582
47.2912
44.1239
41.4199
41.0002
40.7597
39.2256
38.9626
38.8235
37.8426
37.694
36.2101
36.7656
36.7211
36.986
37.774
37.6579
38.091
39.3184
39.1002
39.6924
40.3791
40.1993
41.5028
41.2044
41.4518
50.9489
48.6115
48.507
44.5911
41.8228
41.5373
41.1304
39.4973
39.3023
39.0648
38.0026
37.8869
36.2351
36.8505
36.7809
37.0933
37.9721
37.8141
38.3288
39.6733
39.3934
39.9878
40.6547
40.5668
40.7808
39.5207
39.8947
43.452
50.823
49.8904
50.4898
46.0102
45.8889
44.8168
42.0578
41.8966
41.3541
39.6753
39.5504
39.2258
38.1118
38.0346
36.2385
36.9096
36.8671
37.1718
38.1298
38.0142
38.5196
39.9321
39.747
40.3195
40.7714
40.8123
39.0229
35.5722
36.555
49.2786
53.5857
54.0094
50.0379
45.9215
46.0212
44.794
42.133
42.0927
41.4405
39.763
39.7058
39.3091
38.1699
38.1309
36.2276
36.9475
36.9216
37.2309
38.2547
38.1648
38.6661
40.01
39.9751
40.3054
36.1513
38.6278
29.4432
42.4595
42.9393
48.5676
50.285
51.1972
49.1434
45.6025
45.866
44.5825
42.0813
42.1289
41.4102
39.7656
39.7698
39.3151
38.172
38.1746
36.1982
36.9533
36.9523
37.2507
38.3133
38.2788
38.7198
39.7911
39.9799
39.8222
32.8077
35.2969
25.435
41.4475
42.2281
46.979
49.0682
49.9753
48.1505
45.0932
45.485
44.1825
41.8999
42.051
41.2718
39.6975
39.7569
39.2575
38.1239
38.1654
36.1483
36.9242
36.9492
37.2279
38.279
38.3126
38.6523
39.3712
39.7015
39.0971
29.7886
32.0165
22.4537
40.3415
41.1732
45.4978
47.9353
48.7765
47.2056
44.5426
44.9563
43.7212
41.6239
41.8365
41.0369
39.5441
39.6655
39.1205
38.0148
38.1014
36.0791
36.8643
36.9119
37.1677
38.1726
38.2584
38.4971
38.8184
39.2438
38.2122
27.1845
29.0981
20.2991
39.252
40.0656
44.1334
46.8895
47.666
46.3281
44.0042
44.4059
43.2573
41.315
41.5483
40.7634
39.345
39.4974
38.938
37.8666
37.9806
35.9934
36.7788
36.8451
37.0771
38.0121
38.137
38.2789
38.171
38.664
37.2438
24.9841
26.5981
18.7397
38.2109
38.9867
42.8755
45.9215
46.6405
45.509
43.4936
43.8738
42.8105
40.9999
41.2362
40.4786
39.1249
39.2913
38.733
37.6956
37.8255
35.8943
36.6729
36.7541
36.9619
37.8105
37.9652
38.0139
37.4666
37.9986
36.2555
23.1392
24.4917
17.5973
37.2252
37.9593
41.7112
45.0217
45.6906
44.7404
43.0109
43.3705
42.386
40.6902
40.9217
40.1948
38.8969
39.0682
38.5185
37.5124
37.6507
35.7845
36.5502
36.6436
36.8267
37.5766
37.7547
37.7124
36.7405
37.2861
35.2795
21.5945
22.7269
16.7463
36.2936
36.9873
40.6286
44.1802
44.8062
44.0161
42.5505
42.894
41.9814
40.3905
40.6142
39.9177
38.6682
38.8396
38.3014
37.3233
37.4655
35.6663
36.414
36.5173
36.6753
37.3164
37.5139
37.3809
36.0129
36.5582
34.3352
20.2991
21.2491
16.1008
35.4128
36.0688
39.6178
43.3886
43.9779
43.3306
42.1075
42.4382
41.592
40.1017
40.3173
39.6495
38.4425
38.6114
38.0859
37.1323
37.2756
35.5413
36.2663
36.378
36.5099
37.0338
37.2477
37.0263
35.2957
35.8323
33.4346
19.2091
20.0089
15.6018
34.579
35.2002
38.6704
42.64
43.1977
42.6787
41.6795
41.9992
41.2149
39.8223
40.031
39.3897
38.2217
38.3868
37.8741
36.9419
37.0845
35.411
36.1086
36.2277
36.3323
36.7332
36.9601
36.6569
34.5971
35.1191
32.584
18.2885
18.9643
15.209
33.7888
34.3775
37.7793
41.9287
42.4589
42.0561
41.265
41.5747
40.8484
39.5504
39.7537
39.1372
38.0062
38.1673
37.6668
36.7537
36.8946
35.2764
35.9419
36.0678
36.1434
36.4201
36.6559
36.279
33.9224
34.426
31.7858
17.5076
18.0812
14.8943
33.039
33.5976
36.9387
41.2502
41.7562
41.4593
40.8623
41.1632
40.4913
39.2848
39.4835
38.8905
37.7957
37.9531
37.4641
36.5684
36.707
35.138
35.7667
35.8988
35.9444
36.0989
36.3404
35.897
33.2748
33.7579
31.0397
16.843
17.3314
14.6384
32.3272
32.8576
36.144
40.601
41.0853
40.8854
40.4705
40.7634
40.1427
39.0244
39.2192
38.6488
37.5899
37.7439
37.2658
36.3864
36.5226
34.9962
35.5839
35.7216
35.7369
35.7731
36.0178
35.5141
32.6557
33.1173
30.3438
16.2753
16.6926
14.4276
31.651
32.1549
35.3911
39.9782
40.4429
40.3322
40.0882
40.374
39.8018
38.7686
38.96
38.4114
37.3882
37.5391
37.0715
36.2077
36.3414
34.8511
35.3947
35.5371
35.5227
35.445
35.6912
35.1325
32.0656
32.5055
29.695
15.7893
16.1467
14.2523
31.0086
31.4873
34.6769
39.3793
39.8263
39.7978
39.7148
39.9941
39.4677
38.517
38.7053
38.1779
37.1901
37.3383
36.8809
36.0323
36.1636
34.703
35.2001
35.3465
35.3032
35.1164
35.3629
34.7537
31.5038
31.9225
29.0896
15.3723
15.679
14.1055
30.3981
30.853
33.9984
38.8027
39.2332
39.2806
39.3492
39.6226
39.1399
38.2691
38.4547
37.9477
36.9952
37.1411
36.6935
35.8598
35.9889
34.5521
35.0013
35.1508
35.0799
34.7886
35.0343
34.3791
30.9691
31.3676
28.5239
15.0144
15.2777
13.9826
29.8181
30.2503
33.3534
38.2466
38.6618
38.7795
38.9911
39.259
38.8179
38.0245
38.2076
37.7206
36.8032
36.9469
36.5089
35.6902
35.8172
34.3986
34.7992
34.9511
34.8537
34.4626
34.7069
34.0095
30.4602
30.8396
27.9941
14.7071
14.9331
13.8801
29.2673
29.6778
32.7399
37.7098
38.1106
38.2936
38.6398
38.9026
38.5013
37.7829
37.9638
37.4962
36.6137
36.7556
36.327
35.5232
35.6482
34.243
34.5946
34.7483
34.6257
34.1392
34.3815
33.6455
29.9753
30.3368
27.4964
14.4437
14.6374
13.7955
28.7445
29.1341
32.1562
37.1915
37.5786
37.822
38.295
38.553
38.1897
37.5442
37.723
37.2744
36.4266
36.5668
36.1475
35.3586
35.4818
34.0854
34.3882
34.5432
34.3964
33.8189
34.0588
33.2875
29.5124
29.8575
27.0275
14.2184
14.384
13.7271
28.2486
28.618
31.601
36.6907
37.0647
37.3642
37.9566
38.2098
37.883
37.3081
37.4849
37.0548
36.2416
36.3802
35.9701
35.1963
35.3178
33.9263
34.1805
34.3364
34.1664
33.5021
33.7393
32.9357
29.0698
29.4
26.5839
14.0265
14.1674
13.6737
27.7787
28.1287
31.0729
36.2067
36.5681
36.9197
37.6242
37.8729
37.581
37.0745
37.2495
36.8375
36.0586
36.1957
35.7946
35.036
35.156
33.7659
33.972
34.1285
33.9362
33.189
33.4234
32.5901
28.6457
28.9622
26.1627
13.8639
13.9832
13.6346
27.3342
27.6653
30.571
35.7392
36.0884
36.4882
37.2978
37.542
37.2837
36.8434
37.0165
36.6224
35.8773
36.0131
35.6211
34.8778
34.9963
33.6143
33.7744
33.9198
33.718
32.892
33.1114
32.2622
28.2453
28.5423
25.7663
13.7277
13.8275
13.6092
26.9191
27.2269
30.1017
35.2998
35.6249
36.0823
36.9909
37.2172
37.0043
36.6272
36.7861
36.4214
35.709
35.8324
35.4602
34.7319
34.8386
42.6947
42.5498
41.6579
46.0857
47.5368
48.6414
42.7793
43.4695
43.0672
43.1593
43.1987
42.2724
49.6641
51.6749
52.0519
48.9742
49.8602
47.6628
42.5702
42.7234
42.146
51.3091
52.8349
52.8881
52.158
52.4245
50.4696
41.5301
41.7534
41.7169
51.8844
52.8374
52.856
52.6195
52.6777
51.6021
40.0132
40.351
41.1277
40.3592
39.4618
39.5135
44.5573
44.1537
41.5691
51.9748
53.8781
53.9788
52.8695
52.8823
51.9554
36.8197
37.4645
39.9735
44.0781
38.5897
38.7681
40.2324
39.3121
40.4719
51.7562
51.5563
46.7263
51.737
54.0464
53.9408
54.0055
54.0489
51.7672
41.8546
40.2869
39.4232
52.4021
49.9207
55.6485
39.1781
40.1443
40.6187
53.3466
53.2433
41.4482
41.6782
42.1905
39.4947
40.5828
40.2518
50.491
51.4853
52.1125
44.9548
46.1367
45.2419
43.536
42.4632
44.2717
41.132
41.9189
42.4965
40.7625
41.3343
40.6499
39.4912
39.3971
38.8612
41.4994
39.9172
40.0878
39.673
39.8591
41.4204
54.1574
53.5987
53.3457
56.1559
56.0601
55.5768
45.8632
45.1017
47.852
42.9274
44.0673
44.516
43.0538
43.5797
42.5145
39.8412
39.7584
39.1692
41.7045
40.3318
40.4437
40.1413
40.288
41.7047
42.9387
43.0394
42.2549
43.6639
43.6649
43.5585
44.2146
44.1321
44.346
51.9034
50.3471
50.4
50.6093
50.4839
52.0452
47.18
46.794
49.9016
44.2799
45.6155
45.9024
44.9234
45.29
43.9867
40.134
40.0658
39.4663
41.5697
40.5837
40.6491
40.4763
40.5585
41.5958
42.0931
42.2821
41.957
40.4531
41.5892
41.4385
42.4439
42.3038
41.7658
52.2782
50.3206
50.4775
48.0879
48.5443
51.8986
40.5357
40.4271
39.7657
41.2909
40.724
40.7822
40.67
40.706
41.3332
40.849
41.1178
41.427
36.2068
38.7113
38.6834
39.9086
39.7221
37.4914
40.0619
40.1611
41.5096
53.2954
48.5904
49.4382
51.8065
51.9449
53.0943
40.7919
40.6838
40.0792
40.8394
40.8715
40.9236
40.8007
40.8542
40.905
38.9854
39.3896
40.7289
31.9078
32.5178
32.43
34.412
34.2977
33.0933
28.0392
30.842
37.7974
45.1322
41.505
36.9879
38.7105
38.7274
44.5348
45.9428
47.7637
46.964
48.2323
48.4179
46.8195
42.9964
43.4722
42.9383
46.5513
46.1364
45.0818
55.4792
56.291
56.2363
52.6774
53.179
51.8626
45.839
47.1354
45.5029
50.7755
49.3809
48.7697
52.1726
51.7912
53.9855
44.9335
43.6254
43.5374
43.7632
43.6534
45.0407
42.2625
43.1966
43.0408
45.6796
45.7662
46.1884
43.7746
44.216
44.8732
46.7039
47.8239
48.141
46.3227
46.7195
46.116
52.296
50.8987
50.7497
53.1006
52.8788
53.6898
51.0107
51.5291
49.1075
54.129
54.0348
53.9288
54.3054
54.303
53.46
54.9184
52.821
52.5152
53.8853
53.7571
54.742
47.8548
50.1221
50.8137
42.3255
42.7125
42.5799
43.4477
43.3332
43.1861
42.1821
42.7707
42.9002
42.8811
42.3708
42.5106
40.5475
40.6791
41.4175
44.282
43.1892
43.6291
42.6582
42.8117
43.2234
51.7124
47.5066
47.9443
50.4443
50.4841
52.0181
52.712
52.8117
51.1819
53.341
54.1611
54.1878
53.5241
53.5277
53.3314
53.112
54.2956
54.3025
54.2146
54.2407
53.0058
50.6836
52.4957
52.6692
38.3694
40.2724
40.0917
41.2849
41.1285
39.634
41.7813
41.8243
42.028
38.9657
37.7909
37.9165
35.3416
35.4547
36.8772
41.0611
40.2724
40.4132
38.0425
38.1689
39.3435
52.8805
51.5223
51.6653
50.6402
50.7882
52.5155
33.4063
34.6739
34.5344
38.6099
38.3272
35.1459
41.1719
40.457
40.7552
34.039
33.0223
33.1156
36.514
35.1261
35.2333
33.2209
33.3494
34.4515
53.5402
50.7428
51.4542
49.713
50.4936
53.7057
40.2465
40.0487
40.0279
44.1013
31.8211
31.7755
32.3507
32.2771
31.7411
40.2185
38.1291
38.8492
40.3625
40.6389
43.0733
63.1688
62.1111
67.397
42.0156
39.8663
40.1003
39.077
38.9438
38.4777
40.6584
39.3736
39.6061
39
39.2869
40.4992
41.9581
41.6916
40.9506
43.6593
42.3197
42.7866
41.7677
42.1513
43.3128
50.9242
53.3564
51.1131
43.0467
43.0225
42.1067
45.689
43.8376
43.7876
43.6786
43.8336
45.7601
48.3775
47.6324
50.7687
45.1812
46.5643
46.7329
46.1539
46.3738
44.9929
45.2167
40.9301
41.5381
43.126
43.3991
45.4505
51.7199
51.0946
43.8493
53.9201
52.87
53.0557
51.6626
52.6665
53.8438
45.5101
43.3581
43.6077
42.9194
43.2638
45.349
41.5136
42.3828
42.1873