/*--------------------------------*- C++ -*----------------------------------*\
| =========                 |                                                 |
| \\      /  F ield         | OpenFOAM: The Open Source CFD Toolbox           |
|  \\    /   O peration     | Version:  v1912                                 |
|   \\  /    A nd           | Website:  www.openfoam.com                      |
|    \\/     M anipulation  |                                                 |
\*---------------------------------------------------------------------------*/
FoamFile
{
    version     2.0;
    format      ascii;
    class       volScalarField;
    location    "700";
    object      nut;
}
// * * * * * * * * * * * * * * * * * * * * * * * * * * * * * * * * * * * * * //

dimensions      [0 2 -1 0 0 0 0];


internalField   nonuniform List<scalar> 
12556
(
1.15562
1.15558
1.15553
1.15552
1.15589
1.15591
1.15593
1.15597
1.15603
1.15615
1.15633
1.15652
1.15666
1.15667
1.15656
1.15638
1.15621
1.15608
1.15599
1.15595
1.15555
1.15554
1.15558
1.15562
1.15486
1.15476
1.15466
1.15463
1.15492
1.15501
1.1551
1.15537
1.15557
1.15592
1.15642
1.15699
1.15741
1.15748
1.15718
1.15668
1.15616
1.15576
1.15533
1.15513
1.15473
1.1547
1.15478
1.15487
1.15407
1.15391
1.15377
1.15375
1.15399
1.15414
1.15435
1.1547
1.15521
1.15604
1.15721
1.13018
1.03508
1.03195
1.11107
1.15772
1.15656
1.15562
1.15488
1.15443
1.15396
1.15388
1.15397
1.15411
1.15326
1.15305
1.15288
1.15287
1.15309
1.15333
1.15372
1.15428
1.15535
1.15709
0.96097
0.78097
0.705597
0.716407
0.797637
0.94834
1.15788
1.15609
1.15477
1.15392
1.15327
1.1531
1.15317
1.15335
1.15244
1.15218
1.152
1.15201
1.15225
1.15262
1.15327
1.15423
1.15629
0.934149
0.656805
0.490311
0.420498
0.440996
0.528866
0.67041
0.88261
1.15748
1.15519
1.15368
1.15267
1.15235
1.15238
1.15257
1.15162
1.15132
1.15113
1.15118
1.15147
1.15202
1.15309
1.1547
1.09365
0.713022
0.449098
0.278468
0.208416
0.239905
0.333846
0.471306
0.66301
0.947182
1.15625
1.15377
1.1522
1.15164
1.15158
1.15177
1.1508
1.15047
1.15029
1.1504
1.15076
1.15156
1.15319
1.15569
0.947682
0.588778
0.330895
0.142332
0.0743606
0.114492
0.211751
0.342343
0.518228
0.770413
1.15329
1.15425
1.15187
1.15098
1.15078
1.15095
1.15
1.14966
1.14949
1.14968
1.15014
1.15125
1.15356
1.15701
0.887778
0.567481
0.329162
0.12553
0.062553
0.154599
0.272107
0.432461
0.659083
1.02782
1.15507
1.15168
1.1504
1.15002
1.15014
1.14925
1.14889
1.14876
1.14905
1.14963
1.15111
1.15416
1.15846
0.895899
0.633451
0.476638
0.37211
0.070822
0.145271
0.247113
0.39241
0.598045
0.94637
1.15616
1.15166
1.14991
1.14931
1.14937
1.14855
1.14819
1.1481
1.1485
1.14924
1.15112
1.15492
1.15992
0.932828
0.722887
0.659192
0.707168
0.0959971
0.160081
0.252325
0.386612
0.576803
0.90545
1.15739
1.1518
1.14955
1.14872
1.1487
1.14793
1.14756
1.14752
1.14805
1.14896
1.15128
1.15579
1.16138
0.965999
0.777805
0.738344
0.60577
0.129776
0.189525
0.278518
0.407208
0.587297
0.899381
1.1587
1.15211
1.14936
1.14828
1.14818
1.14737
1.14701
1.14703
1.1477
1.1488
1.15156
1.15674
1.16283
0.985364
0.78421
0.698405
0.498936
0.165255
0.232035
0.324242
0.452315
0.626693
0.924044
1.16
1.15255
1.14933
1.14802
1.14784
1.14689
1.14654
1.14663
1.14745
1.14874
1.15194
1.15773
1.16425
1.00398
0.773529
0.615532
0.419129
0.0423473
0.212292
0.296486
0.397058
0.526164
0.696802
0.978819
1.16122
1.15307
1.14943
1.14792
1.14767
1.14647
1.14613
1.14628
1.14725
1.1488
1.15247
1.15886
1.16573
1.04648
0.794207
0.577837
0.217175
0.0977098
0.314628
0.411448
0.513603
0.638233
0.802595
1.06668
1.1623
1.15362
1.14964
1.14795
1.14764
1.1461
1.14577
1.14598
1.14709
1.14885
1.1529
1.15977
1.16687
1.15541
0.897638
0.676731
0.0425768
0.147388
0.504062
0.626383
0.698836
0.801807
0.950962
1.16717
1.16317
1.15412
1.14988
1.14806
1.14771
1.14578
1.14544
1.1457
1.14693
1.14889
1.15328
1.16053
1.16773
1.16682
1.1066
0.756658
0.0324611
0.164182
0.521096
0.814079
0.980157
1.03051
1.15531
1.16803
1.16379
1.15453
1.15012
1.1482
1.14782
1.14547
1.14513
1.14543
1.14676
1.14891
1.15358
1.16111
1.16824
1.166
1.10832
0.629278
0.0293082
0.177817
0.532785
0.822802
1.01643
1.11505
1.15658
1.16842
1.16412
1.15482
1.15031
1.14833
1.14794
1.14518
1.14483
1.14515
1.14656
1.14887
1.15378
1.16148
1.16839
1.16415
1.08513
0.518833
0.0283444
0.18917
0.539447
0.828656
1.01883
1.11601
1.15702
1.16841
1.16419
1.15496
1.15043
1.14842
1.14804
1.14489
1.14453
1.14485
1.14633
1.14877
1.15387
1.16166
1.1682
1.16121
1.05621
0.436878
0.0284266
0.198764
0.542002
0.832464
1.01997
1.11613
1.15688
1.16809
1.16403
1.15498
1.15047
1.14846
1.14808
1.14459
1.14422
1.14454
1.14606
1.14861
1.15384
1.16166
1.16771
1.15715
1.02284
0.382076
0.0291178
0.206979
0.54288
0.83425
1.02023
1.11569
1.15633
1.16753
1.1637
1.15489
1.15044
1.14844
1.14806
1.14429
1.14392
1.14423
1.14577
1.14839
1.15373
1.1615
1.16695
1.15195
0.985503
0.345457
0.0302047
0.214092
0.543261
0.833605
1.01978
1.11487
1.1555
1.1668
1.16325
1.15473
1.15036
1.14837
1.14799
1.14399
1.14361
1.14391
1.14547
1.14813
1.15353
1.16122
1.16594
1.1456
0.943425
0.319262
0.0315653
0.220312
0.543354
0.830909
1.01854
1.11373
1.15448
1.16597
1.16271
1.1545
1.15022
1.14825
1.14786
1.14367
1.1433
1.1436
1.14516
1.14786
1.15329
1.16083
1.16469
1.13795
0.898617
0.299781
0.0331234
0.225801
0.543186
0.827135
1.01634
1.1123
1.15331
1.16506
1.16212
1.15424
1.15004
1.14809
1.14768
1.14334
1.14299
1.14329
1.14487
1.14758
1.15303
1.16036
1.16318
1.12859
0.856669
0.284992
0.0348283
0.23069
0.542783
0.822961
1.01326
1.11052
1.15201
1.16412
1.16151
1.15395
1.14983
1.14789
1.14746
1.14301
1.14267
1.14298
1.14458
1.14731
1.15275
1.15983
1.16138
1.117
0.820453
0.273629
0.0366454
0.235081
0.542185
0.818676
1.00951
1.10841
1.15059
1.16314
1.16088
1.15364
1.1496
1.14766
1.14721
1.14267
1.14236
1.14268
1.1443
1.14705
1.15247
1.15924
1.15919
1.10315
0.789711
0.264835
0.0385511
0.23906
0.541434
0.814384
1.00535
1.10599
1.14904
1.16215
1.16024
1.15332
1.14935
1.14741
1.14693
1.14233
1.14204
1.14238
1.14402
1.14679
1.15218
1.15856
1.15649
1.08767
0.763424
0.258007
0.0405297
0.242698
0.540573
0.81013
1.00095
1.10332
1.1474
1.16115
1.15961
1.15299
1.14909
1.14714
1.14663
1.14198
1.14172
1.14209
1.14376
1.14655
1.15189
1.15778
1.15321
1.0714
0.740693
0.252707
0.0425712
0.246055
0.53964
0.805937
0.996438
1.10046
1.14568
1.16013
1.15898
1.15266
1.14881
1.14686
1.14632
1.14163
1.1414
1.1418
1.14349
1.1463
1.15159
1.15688
1.14929
1.05504
0.720842
0.248607
0.0446698
0.249181
0.538672
0.801824
0.99188
1.09744
1.14388
1.15911
1.15835
1.15232
1.14853
1.14657
1.146
1.14128
1.14108
1.14151
1.14324
1.14607
1.15126
1.15583
1.14475
1.03899
0.703357
0.245456
0.0468233
0.25212
0.537698
0.797808
0.987327
1.09432
1.14203
1.15808
1.15772
1.15198
1.14825
1.14628
1.14567
1.14093
1.14076
1.14122
1.14299
1.14583
1.15092
1.1546
1.13966
1.0235
0.687838
0.243057
0.0490318
0.254911
0.536746
0.793903
0.982813
1.09113
1.14013
1.15704
1.1571
1.15164
1.14796
1.14598
1.14534
1.14059
1.14045
1.14094
1.14274
1.14559
1.15054
1.15318
1.13408
1.00865
0.673965
0.241257
0.0512978
0.257587
0.535841
0.790126
0.978363
1.08789
1.1382
1.156
1.15649
1.1513
1.14768
1.14568
1.14501
1.14024
1.14014
1.14066
1.1425
1.14536
1.15013
1.15155
1.12813
0.994491
0.661478
0.239927
0.0536255
0.260181
0.535003
0.78649
0.973998
1.08463
1.13623
1.15496
1.15588
1.15096
1.14739
1.14538
1.14468
1.1399
1.13983
1.14039
1.14226
1.14512
1.14968
1.14971
1.12187
0.981003
0.650162
0.238965
0.05602
0.262718
0.534252
0.783009
0.969734
1.08137
1.13425
1.15392
1.15527
1.15062
1.14711
1.14508
1.14435
1.13958
1.13954
1.14013
1.14204
1.14488
1.14918
1.14767
1.11538
0.968156
0.639835
0.238284
0.058488
0.265227
0.533607
0.779695
0.965587
1.07812
1.13224
1.15287
1.15466
1.1503
1.14684
1.1448
1.14404
1.13929
1.13928
1.13991
1.14186
1.14465
1.14863
1.14543
1.10874
0.955909
0.630343
0.23781
0.0610374
0.267731
0.533084
0.776562
0.961573
1.0749
1.13024
1.15184
1.15408
1.15003
1.14662
1.14457
1.14378
0.313607
0.062554
0.0535963
0.718597
0.0870678
0.0654452
0.618903
0.121669
0.0910604
0.512445
0.153392
0.12718
0.426294
0.0325459
0.0397994
0.189672
0.157395
0.261947
0.0645506
0.033997
0.0929288
0.254173
0.192322
0.120598
0.0763451
0.0556162
0.107511
0.0326959
0.0231923
0.0684711
0.122981
0.130314
0.619069
0.799142
0.385985
0.0409895
0.0529775
0.0922867
0.136656
0.124521
0.732383
0.728801
0.804877
0.670514
0.204799
0.244739
0.0604261
0.0465578
0.12543
0.164813
0.142647
0.712648
0.629816
0.717048
0.566024
0.114288
0.161035
0.0974184
0.076901
0.632856
0.527321
0.616684
0.477025
0.0581383
0.0819844
0.0183039
0.138304
0.130633
0.575904
0.350474
0.513706
0.368546
0.0254672
0.0373846
0.0828111
0.0859357
0.0680406
0.0967373
0.287879
0.0437841
0.0857306
0.0515407
0.0342259
0.0555874
0.035647
0.0504376
0.250568
0.295821
0.724745
0.217016
0.18928
0.277592
0.223161
0.0461596
0.040974
0.0767032
0.0530007
0.0581681
0.0516519
0.0530218
0.0752012
0.165431
0.199168
0.657799
0.145171
0.116379
0.186605
0.147926
0.0743753
0.0618797
0.108669
0.0811262
0.0981381
0.0587173
0.0791737
0.10402
0.0832949
0.11243
0.552693
0.0868174
0.0613881
0.114746
0.0880771
0.126547
0.10073
0.0378176
0.0568487
0.473059
0.0163967
0.0401809
0.0269157
0.060624
0.0409632
0.0158675
0.143389
0.139931
0.019077
0.00517864
0.0253624
0.361273
0.0490748
0.0186342
0.00912209
0.0267964
0.0190036
0.0467602
0.429574
0.332373
0.147941
0.169094
0.0964672
0.0522703
0.0126616
0.0105245
0.619748
0.303341
0.365475
0.0139958
0.158508
0.201697
0.173323
0.013635
0.0507831
0.0457565
0.0614054
0.158078
0.146203
0.294395
0.108642
0.194548
0.0410585
0.0162416
0.0287682
0.026563
0.0339895
0.0541957
0.0436881
0.0302808
0.141984
0.126651
0.135921
0.100921
0.123103
0.13876
0.0225432
0.0147149
0.0377959
0.0294953
0.0526741
0.0423804
0.0234595
0.0374176
0.0281413
0.0109038
0.0265657
0.0219405
0.0123519
0.0197193
0.0250268
0.049359
0.0499824
0.0527222
0.0518697
0.0196806
0.0146094
0.0881569
0.018791
0.0260622
0.0139622
0.0178482
0.0852607
0.0725015
0.241613
0.224587
0.0634964
0.0538143
0.0143596
0.0345991
0.156725
0.142498
0.177301
0.161927
0.0352323
0.0524993
0.0420911
0.147261
0.0649136
0.0766283
0.0411414
0.0640763
0.169468
0.0537961
0.0303066
0.0189188
0.0689546
0.0336437
0.0597331
0.0318397
0.0629825
0.0428058
0.0420759
0.208478
0.0285038
0.207166
0.251182
0.0333841
0.0398567
0.0289376
0.0326741
0.243522
0.044233
0.0439989
0.0551595
0.0724538
0.0678723
0.0790402
0.0742595
0.0554436
0.0604359
0.0605424
0.0555295
0.0661615
0.0618719
0.0596821
0.130211
0.128359
0.168928
0.166581
0.0731483
0.013877
0.0716743
0.0778406
0.0757098
0.0994521
0.0977064
0.0272824
0.0383935
0.11119
0.0287996
0.0205273
0.0507792
0.198243
0.182468
0.219135
0.203426
0.0516176
0.0215121
0.0379743
0.037554
0.0557089
0.0549584
0.00760611
0.026576
0.0776071
0.0668998
0.138317
0.112806
0.011805
0.00731271
0.0215153
0.0169858
0.0260402
0.0115274
0.0164932
0.0135961
0.0257244
0.0399895
0.0150967
0.0186396
0.00500121
0.0190912
0.017098
0.63377
0.238295
0.335886
0.146516
0.00835148
0.00557785
0.142412
0.415657
0.286643
0.00683832
0.016475
0.0148673
0.0929762
0.0813393
0.0279764
0.198881
0.164634
0.064261
0.0119379
0.0209039
0.0163054
0.0105517
0.0156516
0.0111959
0.0426809
0.0275319
0.0254289
0.0516932
0.0563497
0.0224261
0.0258582
0.0166262
0.0163645
0.0482761
0.131725
0.336089
0.317517
0.361998
0.34246
0.136045
0.264511
0.247327
0.0736708
0.0265688
0.0698527
0.0652016
0.0096497
0.0146351
0.0717725
0.048245
0.0301852
0.0282265
0.0417001
0.0478375
0.043612
0.0540104
0.0492805
0.0431829
0.0451849
0.0179919
0.0168581
0.0419596
0.179021
0.388807
0.368612
0.0505989
0.0518783
0.121324
0.0267389
0.0287523
0.0659847
0.0877989
0.107814
0.0998672
0.0645202
0.0870092
0.0810501
0.0968057
0.0894431
0.0654913
0.0981523
0.287803
0.270283
0.311485
0.293701
0.100317
0.0831852
0.0317585
0.032314
0.0210389
0.022049
0.0647153
0.108864
0.0463634
0.0501057
0.0324904
0.0329197
0.0919943
0.114887
0.0402287
0.057113
0.007456
0.0181884
0.0390847
0.0297251
0.0584876
0.0200246
0.0207623
0.018115
0.0484102
0.0144027
0.0042579
0.0778718
0.0541738
0.063897
0.059957
0.0249076
0.0193137
0.0254629
0.0559092
0.0177513
0.00999093
0.0213576
0.0219509
0.002984
0.0266258
0.0199627
0.0149582
0.00737387
0.0137816
0.0135475
0.0136073
0.0230479
0.0199621
0.00769151
0.0380407
0.036935
0.0191304
0.0128502
0.00867962
0.0135149
0.0210119
0.0149292
0.0167647
0.0351341
0.0143715
0.0128194
0.0146538
0.0159851
0.0267661
0.0144549
0.0113183
0.0160609
0.0147656
0.0115475
0.0183898
0.0165775
0.021441
0.0190891
0.0137969
0.0177004
0.0251693
0.0216907
0.032303
0.0267363
0.0209167
0.0186424
0.0153001
0.0226085
0.0205289
0.0444779
0.0512538
0.0248098
0.0232002
0.0208337
0.0217534
0.0553545
0.0151435
0.0160611
0.0178931
0.0152323
0.0166346
0.0491119
0.0172147
0.0204628
0.0171163
0.0163887
0.0215359
0.0522655
0.0461875
0.0156443
0.0379562
0.0336762
0.0440427
0.0394346
0.016119
0.0156536
0.0282452
0.0242422
0.0781669
0.07166
0.0282049
0.0362862
0.0849187
0.0799434
0.0475281
0.0459403
0.0668743
0.111876
0.156601
0.0802252
0.102136
0.0675741
0.0531591
0.139584
0.121915
0.158901
0.14585
0.05867
0.047828
0.0588048
0.0732044
0.0423317
0.0483971
0.0369459
0.0339948
0.0471394
0.027515
0.0301919
0.0259147
0.0376223
0.0334315
0.0309272
0.0360838
0.0386268
0.0390763
0.0373484
0.0270473
0.0868886
0.0704251
0.0952943
0.0902483
0.0274465
0.0643772
0.0629144
0.0676794
0.0648841
0.0356475
0.111374
0.106986
0.118803
0.112952
0.0366089
0.0304406
0.100324
0.0965549
0.105588
0.101595
0.0308842
0.0198897
0.018409
0.0449153
0.0426115
0.0214942
0.0205301
0.0373399
0.0368938
0.0382461
0.037478
0.0358299
0.0350711
0.0367227
0.0360777
0.060559
0.0590186
0.0624554
0.0610481
0.0532664
0.0394963
0.0584639
0.0557217
0.027511
0.0245521
0.0324318
0.0287634
0.0125999
0.0195714
0.0184886
0.0235874
0.0202257
0.0306067
0.0315853
0.0820041
0.0199136
0.0194087
0.020829
0.0200918
0.0192173
0.0668226
0.0223636
0.0294428
0.0337361
0.0425063
0.106256
0.0295194
0.0239145
0.034795
0.0324574
0.0220246
0.0211107
0.0234943
0.022357
0.0933446
0.0330286
0.0333703
0.00826338
0.0248645
0.0135067
0.0143637
0.0132663
0.0237096
0.00739412
0.0189091
0.0111732
0.0142392
0.038818
0.0330902
0.0191508
0.0197959
0.0577937
0.0511405
0.0183304
0.0189309
0.0133673
0.0242823
0.0582476
0.0415839
0.0125893
0.0121634
0.0171501
0.010394
0.0134654
0.0186032
0.0265191
0.00723488
0.0151693
0.00995368
0.0147625
0.0201571
0.0644608
0.138146
0.184046
0.0127144
0.0119968
0.193054
0.255544
0.212896
0.00782909
0.0283072
0.016456
0.0182355
0.140006
0.146104
0.168329
0.00571996
0.0091044
0.00670978
0.00567984
0.00695919
0.00542838
0.0700767
0.0447534
0.0269925
0.0296847
0.0271055
0.0306954
0.22198
0.445555
0.423772
0.475584
0.452945
0.227553
0.0358176
0.0302466
0.0162322
0.0601682
0.0699642
0.138077
0.0918811
0.0865882
0.0365672
0.0320177
0.0369282
0.0371103
0.416638
0.395665
0.183821
0.138154
0.0552921
0.057539
0.0597903
0.073317
0.156736
0.0423289
0.10062
0.0938194
0.0146736
0.0150122
0.016936
0.0200487
0.0203945
0.0271897
0.0153516
0.0126735
0.0143143
0.0217152
0.0427281
0.0376818
0.0184113
0.0267468
0.0194475
0.0196996
0.0192618
0.0120877
0.0135714
0.0156994
0.0151878
0.0127927
0.0208691
0.0239156
0.0514068
0.0398375
0.0423835
0.0391001
0.0290379
0.0374066
0.0175079
0.0199468
0.0110155
0.00731364
0.00724957
0.0139703
0.0117525
0.0282237
0.017976
0.0122232
0.0171498
0.0221577
0.0210461
0.0303684
0.0315995
0.0188619
0.015081
0.0155503
0.00980629
0.0136699
0.0153067
0.0598261
0.0542448
0.0225555
0.014301
0.0185352
0.0177252
0.0147759
0.0169253
0.0162947
0.0510385
0.0416289
0.043212
0.0656008
0.0918337
0.0907431
0.0425419
0.060854
0.0587058
0.0895074
0.0879327
0.0629382
0.0439328
0.0532586
0.0440331
0.0336701
0.0365364
0.0296846
0.0457291
0.047622
0.0685419
0.0247472
0.0321569
0.0315694
0.0485443
0.0479034
0.0280885
0.0269723
0.0264576
0.0308234
0.0300533
0.03418
0.0548248
0.054205
0.0578201
0.0573221
0.0387044
0.0294079
0.049811
0.0491727
0.0535641
0.05291
0.0319943
0.0538214
0.0549007
0.136079
0.123023
0.0522908
0.0534592
0.0810256
0.0838491
0.176244
0.0243019
0.0240553
0.0260927
0.02575
0.0214865
0.0238192
0.0235879
0.159369
0.0760482
0.0800618
0.0140473
0.0141545
0.017153
0.0167044
0.0138901
0.0143214
0.0142683
0.0673904
0.0296447
0.0333142
0.109797
0.10306
0.0454137
0.0536812
0.117664
0.111817
0.0274886
0.0276045
0.0382884
0.0368691
0.0269768
0.0273136
0.0116929
0.0183633
0.0267505
0.0187972
0.0073318
0.0118888
0.0194336
0.013834
0.0147265
0.0180183
0.0182059
0.0262278
0.0110386
0.0072428
0.0105295
0.0139769
0.0249564
0.0176429
0.0178475
0.0164066
0.0260287
0.0226698
0.0139366
0.0134165
0.0147319
0.0150606
0.0176979
0.00795519
0.00544722
0.00988286
0.0158644
0.0139899
0.0143286
0.0123859
0.013519
0.0153283
0.0120901
0.00809716
0.00623436
0.0238483
0.0244027
0.0228153
0.0232758
0.0268149
0.0349296
0.0351153
0.0345078
0.0347426
0.0262153
0.0162313
0.0260314
0.0259311
0.0268227
0.0262792
0.0160571
0.0297574
0.036483
0.0381563
0.0353226
0.0356788
0.028985
0.0177089
0.0259239
0.0259163
0.0258809
0.0258818
0.0172086
0.021827
0.0223505
0.0224625
0.0219179
0.0319261
0.0457701
0.0454393
0.0213664
0.030156
0.0300776
0.030592
0.0302793
0.0217076
0.012086
0.0111584
0.0143013
0.0128834
0.0199578
0.0196425
0.0206011
0.0202795
0.0171556
0.0279347
0.0206914
0.0209124
0.0202563
0.0298613
0.0297607
0.0300164
0.029946
0.0205019
0.0211923
0.0209102
0.0251502
0.0214059
0.0174296
0.00754956
0.0117294
0.01487
0.00735897
0.0195498
0.0146119
0.00356688
0.0251652
0.033947
0.0334825
0.0181946
0.00967243
0.00681745
0.00527671
0.0117327
0.0126691
0.0189756
0.0192072
0.0267027
0.0195499
0.00863925
0.00724519
0.0164741
0.00571637
0.00989749
0.00809495
0.00586108
0.00725969
0.0134612
0.0109875
0.0118244
0.0147575
0.014301
0.0389186
0.0339822
0.0105868
0.0126169
0.0141089
0.0207966
0.0236064
0.015309
0.0187624
0.0165912
0.0139784
0.00800793
0.0137095
0.0141257
0.0072665
0.0108014
0.0121037
0.015578
0.014078
0.0144698
0.0116075
0.0122366
0.0151387
0.0147062
0.0143381
0.0108922
0.0140988
0.0154637
0.0150867
0.0275415
0.0237653
0.0186915
0.0302626
0.0323072
0.0342523
0.0277895
0.0246986
0.0221446
0.0316771
0.0328251
0.0249707
0.0292058
0.0215906
0.0242794
0.0340202
0.0342676
0.0333875
0.0337311
0.023689
0.0210898
0.0315421
0.0311261
0.0153597
0.015644
0.0168445
0.0151994
0.0151152
0.0158581
0.0168044
0.0166242
0.0184501
0.0288567
0.027739
0.0306204
0.0298839
0.0197545
0.013954
0.0144786
0.0179815
0.00909823
0.0134592
0.0134561
0.0158354
0.0135999
0.0136282
0.0204682
0.019508
0.0149384
0.0492777
0.0444605
0.0749108
0.0657151
0.0436833
0.0614311
0.0856737
0.0818143
0.0415422
0.0380579
0.0377581
0.0267908
0.0334325
0.0572803
0.0493135
0.0468716
0.0365946
0.0438921
0.0446148
0.0410148
0.0428542
0.0357957
0.0283738
0.0295495
0.0383032
0.0316819
0.0308913
0.0330512
0.0327159
0.03568
0.0316543
0.0301121
0.0281237
0.0323296
0.0439336
0.039447
0.0264408
0.027767
0.0472026
0.0461413
0.0280857
0.0275172
0.0293485
0.0286948
0.0558789
0.0553594
0.0348662
0.0376359
0.0568804
0.0564006
0.0510901
0.050461
0.0299263
0.0313705
0.0522665
0.0516728
0.0193522
0.0259539
0.0259283
0.0259339
0.0259702
0.018992
0.0213894
0.0249824
0.0237242
0.0258307
0.0255786
0.0209192
0.037195
0.0242719
0.0246802
0.0236163
0.0239332
0.037051
0.0378117
0.0261589
0.0266655
0.025131
0.025619
0.0376178
0.0355744
0.0218955
0.0221623
0.0214605
0.021657
0.0353204
0.0365344
0.023038
0.0233188
0.0224391
0.0227307
0.0363145
0.0248351
0.024561
0.0600574
0.0410117
0.0413171
0.0403827
0.0407004
0.0595449
0.0254268
0.0251225
0.0229198
0.0225828
0.0486448
0.0333311
0.0368363
0.0271512
0.0275299
0.0425945
0.0578392
0.0396887
0.0400516
0.038491
0.0392386
0.0570261
0.0233704
0.0231552
0.014692
0.0141907
0.0139441
0.0161828
0.0153975
0.0191669
0.014356
0.0141772
0.0148374
0.0145632
0.0188522
0.0224282
0.0157605
0.0167155
0.0143029
0.0148796
0.0212219
0.0311053
0.0441603
0.0432627
0.0450953
0.0446988
0.0313825
0.0197419
0.0195763
0.0205522
0.0202778
0.0189668
0.018139
0.0226309
0.0337988
0.0315109
0.0415318
0.0382155
0.0269144
0.0246131
0.0194872
0.0204038
0.0243082
0.0344372
0.02107
0.0212632
0.0206751
0.0208769
0.0338286
0.0217076
0.0214022
0.0230895
0.0227112
0.0136117
0.0158141
0.0153375
0.0172244
0.0164497
0.0139063
0.0138571
0.0135292
0.0148967
0.0143402
0.00853434
0.011982
0.0149769
0.0146457
0.0158602
0.015379
0.0126247
0.0189885
0.0187913
0.0194126
0.0191956
0.0242701
0.0261491
0.0355701
0.0182347
0.0179993
0.0186033
0.0184219
0.0193663
0.0293629
0.029193
0.0296429
0.0295104
0.0195771
0.0184914
0.0282802
0.0273161
0.0289907
0.0287239
0.0187114
0.0125811
0.032665
0.0308582
0.0225186
0.0128411
0.00951249
0.00948028
0.0065188
0.00928772
0.0124753
0.0156034
0.0127172
0.0141884
0.0138096
0.0263874
0.0184687
0.0187242
0.0104657
0.0107442
0.0102874
0.0134365
0.0130557
0.00691478
0.00707093
0.0143605
0.0110261
0.0133551
0.0156792
0.0173818
0.0232229
1.15485
1.15514
1.1555
1.15526
1.15575
1.1558
1.15594
1.15666
1.15626
1.15691
1.15771
1.15683
1.15794
1.12643
1.15732
1.11329
1.09957
1.1575
1.10556
1.15843
1.1573
1.15827
1.15761
1.15683
1.15737
1.15662
1.1563
1.15639
1.15578
1.15586
1.15435
1.15498
1.15506
1.15525
1.1563
1.1558
1.15672
1.11313
1.1569
1.05121
0.900623
1.15813
0.865261
0.796954
1.04855
0.786107
0.785041
1.0249
0.794087
0.848254
1.08572
0.874704
0.983169
1.158
1.02905
1.15789
1.15683
1.15746
1.15624
1.15583
1.1542
1.15544
1.15503
1.15598
1.09591
1.1566
1.00718
0.782413
1.02422
0.72357
0.588091
0.815162
0.555567
0.494061
0.71569
0.485317
0.491685
0.706712
0.503368
0.562139
0.771286
0.58871
0.691139
0.903492
0.732226
0.888873
1.11581
0.951985
1.15764
1.1565
1.15453
1.15665
1.15567
1.14151
0.842888
1.02417
0.756397
0.548677
0.714536
0.492309
0.357806
0.522778
0.32428
0.261871
0.428969
0.254321
0.268085
0.428528
0.28265
0.348217
0.501921
0.375369
0.475302
0.629085
0.514358
0.654482
0.822256
0.710129
0.91236
1.10169
1.1554
1.08578
1.15704
0.976488
0.689001
0.795693
0.610422
0.409642
0.505057
0.35163
0.205621
0.312605
0.170486
0.0911038
0.215847
0.0894711
0.122639
0.224434
0.140062
0.208341
0.306334
0.235952
0.331807
0.432694
0.368577
0.497592
0.608729
0.548382
0.729919
0.859038
1.15666
1.00312
1.05798
0.895269
0.63524
0.666162
0.56308
0.372331
0.389458
0.316668
0.144336
0.182433
0.128295
0.075296
0.117957
0.0368301
0.0463609
0.0806093
0.0867039
0.11632
0.137109
0.163437
0.251079
0.306101
0.284922
0.403136
0.468768
0.449298
0.614134
0.694452
1.15809
0.987417
0.993613
0.889468
0.670018
0.636701
0.611805
0.467567
0.384286
0.351805
0.303752
0.281954
0.134506
0.1136
0.102599
0.06164
0.0881492
0.0938709
0.144642
0.219991
0.239224
0.250005
0.356809
0.387415
0.398787
0.549467
0.592759
1.15955
1.0114
0.991194
0.923027
0.74463
0.687506
0.70213
0.622759
0.505332
0.525519
0.508782
0.44611
0.438367
0.447308
0.3625
0.0799295
0.0988531
0.0936549
0.154839
0.221734
0.217969
0.248845
0.346599
0.351327
0.385379
0.52476
0.539544
1.16101
1.04223
1.01947
0.959022
0.803391
0.762372
0.768964
0.720973
0.656373
0.692299
0.719924
0.679626
0.695268
0.52657
0.549674
0.108097
0.124446
0.114268
0.180994
0.24457
0.225707
0.270237
0.363043
0.348452
0.399819
0.531098
0.523802
1.16247
1.06326
1.0486
0.981445
0.8234
0.81201
0.785986
0.71494
0.728436
0.735788
0.763742
0.770246
0.592574
0.413077
0.433487
0.142204
0.160058
0.145839
0.21981
0.284994
0.252997
0.310714
0.402673
0.370752
0.438604
0.564498
0.537622
1.1639
1.08031
1.06717
0.998098
0.82184
0.823624
0.775206
0.661056
0.70245
0.669463
0.696009
0.69925
0.48542
0.310294
0.329056
0.173294
0.19361
0.182461
0.277211
0.348463
0.298275
0.375557
0.468949
0.416477
0.504543
0.626192
0.578165
1.16539
1.11371
1.08654
1.03037
0.836951
0.822624
0.781621
0.625093
0.648144
0.597941
0.552814
0.60827
0.397385
0.214706
0.23231
0.0503291
0.11087
0.0969482
0.278774
0.352355
0.27413
0.376138
0.451785
0.369621
0.479181
0.571567
0.490711
0.605989
0.72162
0.647908
1.16661
1.1683
1.12919
1.11846
0.918021
0.85079
0.86167
0.694386
0.630427
0.584279
0.518452
0.5035
0.202389
0.066302
0.0895195
0.110104
0.244791
0.216103
0.490056
0.543723
0.388797
0.561151
0.621286
0.486934
0.644686
0.724857
0.604418
0.755629
0.858249
0.753024
1.16755
1.16887
1.16849
1.16687
1.09377
0.952513
1.04129
0.919186
0.732459
0.789066
0.111362
0.182882
0.0339349
0.0818521
0.0702827
0.160338
0.434231
0.421015
0.517409
0.74418
0.612804
0.811283
0.887784
0.677805
0.897087
0.94483
0.772813
0.966542
1.04808
0.902229
1.16815
1.16882
1.16892
1.1663
1.13839
1.14422
1.11309
0.859086
0.926855
0.659952
0.0795009
0.0999906
0.0298142
0.0953578
0.0854126
0.174646
0.44631
0.437833
0.530315
0.755326
0.747383
0.820938
0.977233
0.973149
1.01557
1.09669
1.01205
1.11463
1.14943
1.10742
1.16838
1.16807
1.1687
1.16471
1.1268
1.1359
1.09151
0.764339
0.83548
0.543955
0.0660097
0.0751728
0.0284614
0.107155
0.0984521
0.186514
0.452751
0.448373
0.538253
0.762979
0.757513
0.827405
0.980692
0.978279
1.01837
1.09819
1.09719
1.11586
1.15017
1.1497
1.16828
1.1666
1.16777
1.16205
1.11098
1.12323
1.06391
0.672647
0.741014
0.454618
0.0588879
0.0638227
0.0283373
0.117563
0.109877
0.196508
0.456283
0.453787
0.541605
0.768072
0.76448
0.831687
0.982611
0.981293
1.01978
1.09866
1.09839
1.11616
1.15021
1.15024
1.16786
1.16441
1.16612
1.15827
1.09132
1.1064
1.03155
0.591646
0.650939
0.393654
0.0547693
0.0576478
0.0289017
0.126806
0.119976
0.205038
0.458942
0.456999
0.542727
0.770431
0.768943
0.834021
0.983458
0.982911
1.02024
1.09845
1.09866
1.11584
1.14978
1.15014
1.16716
1.16148
1.16375
1.15336
1.06831
1.08587
0.995247
0.529458
0.574195
0.353425
0.0523126
0.0540316
0.0299035
0.135061
0.128956
0.212404
0.461117
0.459529
0.543195
0.769831
0.770538
0.833992
0.983409
0.98353
1.01996
1.09776
1.09832
1.1151
1.14901
1.14961
1.16621
1.1578
1.16063
1.1473
1.04189
1.06206
0.954382
0.485129
0.516938
0.325077
0.0508803
0.0518752
0.0312042
0.142475
0.136989
0.218831
0.46284
0.461589
0.543356
0.767273
0.769321
0.831721
0.982312
0.983243
1.01894
1.0967
1.09753
1.11404
1.14802
1.14878
1.16502
1.15332
1.15675
1.14
1.01105
1.03463
0.90976
0.452522
0.476089
0.304148
0.0501314
0.0506385
0.0327185
0.149167
0.144211
0.22449
0.464149
0.463204
0.543252
0.763922
0.766478
0.828134
0.97999
0.981846
1.01698
1.09526
1.09638
1.11269
1.14685
1.14774
1.16359
1.14788
1.15206
1.13112
0.976489
1.00264
0.866656
0.42748
0.445662
0.288327
0.049867
0.0500256
0.0343904
0.15524
0.150739
0.229518
0.465106
0.464419
0.542904
0.760334
0.763037
0.824022
0.9766
0.97923
1.0141
1.09338
1.09483
1.111
1.14551
1.14653
1.16187
1.14113
1.14633
1.12012
0.941833
0.967681
0.828958
0.40776
0.422115
0.276201
0.0499637
0.049861
0.036182
0.160784
0.156673
0.234025
0.465773
0.465297
0.54235
0.756687
0.759425
0.81975
0.972506
0.975628
1.01049
1.09107
1.09285
1.10897
1.14401
1.14515
1.15978
1.13274
1.1392
1.1068
0.909938
0.933541
0.796938
0.391986
0.403488
0.266828
0.0503408
0.0500341
0.0380674
0.165871
0.162096
0.2381
0.466212
0.465902
0.541633
0.753034
0.755773
0.815455
0.968024
0.971412
1.00642
1.08837
1.09043
1.10662
1.14236
1.14361
1.15722
1.12266
1.13037
1.09164
0.881561
0.902515
0.76963
0.379234
0.388545
0.259556
0.0509439
0.0504721
0.0400289
0.170568
0.16708
0.241817
0.466475
0.466292
0.540796
0.749401
0.752123
0.811189
0.963357
0.966869
1.00206
1.08536
1.08764
1.10401
1.14057
1.14192
1.15409
1.11122
1.11991
1.0755
0.856459
0.874996
0.746082
0.368838
0.376436
0.253909
0.0517348
0.0511252
0.0420553
0.174932
0.171688
0.245239
0.466611
0.46652
0.539878
0.745807
0.748498
0.806979
0.958619
0.962176
0.997572
1.08213
1.08457
1.10119
1.13866
1.1401
1.15033
1.09889
1.1082
1.05911
0.834176
0.850641
0.725566
0.360306
0.366546
0.249535
0.0526867
0.0519586
0.0441399
0.179011
0.175977
0.248418
0.46666
0.46663
0.538916
0.742272
0.744917
0.802844
0.953877
0.957431
0.993021
1.07873
1.08129
1.09821
1.13665
1.13816
1.14594
1.08612
1.09572
1.04296
0.814282
0.828993
0.70753
0.353262
0.358418
0.246166
0.0537801
0.0529475
0.0462797
0.182852
0.179992
0.2514
0.466657
0.466663
0.537941
0.738814
0.741399
0.798802
0.949175
0.952697
0.988463
1.07523
1.07786
1.09511
1.13456
1.13613
1.14098
1.07325
1.0829
1.02731
0.796413
0.809637
0.691551
0.347412
0.351697
0.243595
0.0550008
0.0540738
0.0484745
0.186493
0.183779
0.254225
0.466634
0.466652
0.536981
0.735451
0.737963
0.794868
0.944541
0.948009
0.983936
1.07166
1.07434
1.09194
1.13241
1.13403
1.13552
1.06051
1.07005
1.0123
0.780269
0.792226
0.677293
0.342526
0.346108
0.241658
0.0563384
0.0553246
0.0507258
0.18997
0.187376
0.256927
0.466617
0.466628
0.536062
0.7322
0.734627
0.791058
0.939997
0.943396
0.979469
1.06805
1.07076
1.08871
1.13021
1.13187
1.12965
1.04803
1.05736
0.997967
0.765599
0.776472
0.664482
0.338415
0.341432
0.240221
0.0577852
0.0566901
0.0530375
0.193317
0.190818
0.259538
0.46663
0.466616
0.535205
0.729078
0.731407
0.787385
0.935561
0.938878
0.97508
1.06443
1.06715
1.08545
1.12797
1.12966
1.12345
1.03588
1.04496
0.984313
0.752192
0.762136
0.652892
0.334928
0.33749
0.239176
0.0593357
0.0581634
0.0554147
0.196564
0.194137
0.262088
0.466696
0.466641
0.53443
0.7261
0.72832
0.783864
0.931248
0.934471
0.97079
1.06083
1.06353
1.08218
1.12571
1.12741
1.11702
1.0241
1.0329
0.971309
0.739868
0.749016
0.642332
0.331937
0.334138
0.238432
0.0609859
0.0597391
0.0578638
0.19974
0.197363
0.264601
0.466834
0.466723
0.533757
0.723279
0.725379
0.780507
0.927071
0.93019
0.966612
1.05726
1.05993
1.07893
1.12342
1.12514
1.11041
1.01271
1.02122
0.958915
0.728473
0.736938
0.632644
0.329336
0.331254
0.237912
0.0627326
0.0614136
0.060392
0.202871
0.200525
0.267104
0.467063
0.466882
0.533202
0.72063
0.722601
0.777327
0.923045
0.92605
0.962563
1.05373
1.05637
1.0757
1.12113
1.12285
1.10407
1.00224
1.00992
0.947633
0.718252
0.725754
0.623973
0.327082
0.328735
0.237563
0.064568
0.0631841
0.0629998
0.205959
0.20365
0.269597
0.467416
0.467137
0.53282
0.718289
0.719997
0.774489
0.919401
0.922064
0.958885
1.0505
1.05286
1.07273
1.11903
1.12056
0.296488
0.242671
0.264901
0.0599384
0.0525193
0.0567538
0.044978
0.044452
0.0528665
0.557726
0.58507
0.729605
0.0836288
0.0779801
0.082744
0.0584015
0.0640514
0.0673208
0.440361
0.461258
0.631965
0.117546
0.113701
0.118678
0.0848481
0.0902759
0.0951739
0.335338
0.354299