/*--------------------------------*- C++ -*----------------------------------*\
| =========                 |                                                 |
| \\      /  F ield         | OpenFOAM: The Open Source CFD Toolbox           |
|  \\    /   O peration     | Version:  v1912                                 |
|   \\  /    A nd           | Website:  www.openfoam.com                      |
|    \\/     M anipulation  |                                                 |
\*---------------------------------------------------------------------------*/
FoamFile
{
    version     2.0;
    format      ascii;
    class       volScalarField;
    location    "700";
    object      omega;
}
// * * * * * * * * * * * * * * * * * * * * * * * * * * * * * * * * * * * * * //

dimensions      [0 0 -1 0 0 0 0];


internalField   nonuniform List<scalar> 
12556
(
31.8693
31.8706
31.8719
31.8739
31.9377
31.9387
31.9393
31.9406
31.9431
31.9476
31.9541
31.9615
31.9669
31.9674
31.9629
31.9561
31.9497
31.9449
31.9417
31.9399
31.8748
31.8723
31.8706
31.8691
31.7347
31.7377
31.7408
31.7448
31.8052
31.8094
31.8129
31.8467
31.8537
31.866
31.8838
31.904
31.9189
31.9212
31.9101
31.8919
31.8738
31.8599
31.8206
31.8134
31.7477
31.742
31.7382
31.7347
31.6014
31.6062
31.6109
31.6167
31.6747
31.6822
31.69
31.7257
31.7423
31.7704
31.8107
31.8542
31.8855
31.8902
31.8674
31.8291
31.789
31.7569
31.7064
31.6914
31.6237
31.6146
31.6083
31.6029
31.4702
31.4764
31.4824
31.49
31.5455
31.5569
31.5709
31.6132
31.6478
31.7062
31.7874
31.8801
31.9454
31.9483
31.8942
31.8143
31.7361
31.6732
31.605
31.5767
31.5036
31.4899
31.4808
31.4733
31.3405
31.3481
31.3555
31.3651
31.4194
31.4355
31.4582
31.5111
31.5789
31.692
31.8781
32.1251
32.3112
32.2838
32.107
31.9062
31.74
31.6236
31.5218
31.4713
31.388
31.3678
31.3552
31.3454
31.2123
31.2212
31.2301
31.2417
31.2961
31.3185
31.3542
31.4265
31.5397
31.7626
32.2247
33.1118
34.0364
33.6618
32.8301
32.2304
31.8503
31.6186
31.4614
31.3778
31.2769
31.2482
31.2311
31.2187
31.0859
31.0961
31.1066
31.1206
31.1754
31.2057
31.2589
31.3589
31.5364
31.9547
33.0727
37.2767
43.0897
40.2261
34.9623
33.0049
32.1257
31.6794
31.4249
31.297
31.1709
31.1311
31.1083
31.0931
30.9615
30.9731
30.9854
31.0025
31.0585
31.0985
31.1723
31.3035
31.5621
32.2295
34.3095
45.6248
65.5248
40.051
34.4421
32.6073
31.8162
31.4122
31.2284
31.0701
31.0167
30.9872
30.9687
30.8396
30.8527
30.8671
30.8877
30.9459
30.9969
31.0932
31.2556
31.5997
32.4814
35.1736
52.3544
116.072
47.2019
36.4117
33.2616
32.0192
31.4204
31.1696
30.9746
30.906
30.8687
30.8466
30.7207
30.7354
30.7522
30.7767
30.8377
30.9006
31.0197
31.212
31.6359
32.6783
35.7814
59.7773
140.622
53.0142
38.3641
33.9636
32.254
31.4415
31.1182
30.8849
30.7999
30.7542
30.7282
30.6053
30.6215
30.6408
30.6695
30.7341
30.8094
30.9505
31.1718
31.6705
32.8548
36.5263
69.4312
141.294
56.4464
39.8997
34.5872
32.4802
31.4654
31.0718
30.8003
30.6991
30.6448
30.6145
30.4934
30.5112
30.533
30.5662
30.6348
30.7226
30.8847
31.1356
31.7079
33.0482
37.6041
83.3328
131.164
57.8145
40.8729
35.0517
32.6626
31.4817
31.0271
30.7199
30.6035
30.5407
30.5061
30.3849
30.4046
30.4294
30.4671
30.5391
30.639
30.821
31.1031
31.7509
33.2823
38.9702
97.6693
998.264
111.12
57.8206
41.3306
35.3307
32.7799
31.4827
30.9804
30.6419
30.5122
30.4416
30.4027
30.2795
30.3009
30.3283
30.3701
30.4485
30.5621
30.7644
31.0856
31.8295
33.66
41.5551
180.656
500.78
105.035
57.1024
41.3996
35.4447
32.828
31.4639
30.9285
30.5645
30.4234
30.3458
30.303
30.1763
30.1994
30.2294
30.2751
30.3581
30.4822
30.7014
31.055
31.8754
33.9939
45.8798
774.68
337.654
98.8821
55.8517
41.2018
35.4284
32.8157
31.4252
30.869
30.4855
30.3355
30.2518
30.2054
30.0746
30.0994
30.1319
30.1811
30.2685
30.4016
30.6355
31.0193
31.9158
34.4005
53.1456
873.153
293.352
93.8305
54.656
40.8948
35.3232
32.7501
31.3685
30.801
30.4033
30.2467
30.1576
30.1083
29.9736
30
30.035
30.0872
30.1787
30.3192
30.5654
30.9762
31.9459
34.9294
63.0249
839.316
262.054
89.9199
53.5603
40.5527
35.1817
32.659
31.2954
30.7232
30.3168
30.1556
30.0619
30.0102
29.8727
29.9005
29.9379
29.993
30.0879
30.2344
30.4907
30.9253
31.9685
35.5908
74.9529
770.782
238.654
87.0896
52.6206
40.2135
35.0158
32.5477
31.2075
30.6356
30.2247
30.0607
29.9641
29.9102
29.7713
29.8005
29.8402
29.8977
29.9958
30.147
30.4117
30.8672
31.9905
36.4014
86.9232
698.69
220.409
85.0885
51.8264
39.896
34.842
32.4251
31.1095
30.5406
30.1276
29.9618
29.8628
29.8076
29.669
29.6993
29.7412
29.8011
29.902
30.057
30.3288
30.8037
32.0186
37.3632
96.8313
632.626
205.703
83.4666
51.1864
39.6059
34.6689
32.2972
31.0041
30.4393
30.0257
29.859
29.7583
29.7023
29.5659
29.597
29.6408
29.7028
29.8064
29.9646
30.2429
30.7364
32.0584
38.4998
104.237
574.783
193.531
82.0147
50.7232
39.3463
34.5012
32.1674
30.8937
30.333
29.9197
29.7525
29.6506
29.5943
29.4618
29.4935
29.5388
29.6028
29.7088
29.8701
30.1545
30.6669
32.1145
39.8888
109.753
524.892
183.239
80.6865
50.4059
39.1245
34.3416
32.0379
30.7797
30.2228
29.8102
29.6429
29.5403
29.4839
29.3569
29.3889
29.4354
29.5012
29.6094
29.7735
30.0641
30.5968
32.194
41.5016
113.769
481.96
174.381
79.4657
50.1692
38.9472
34.1929
31.9106
30.6637
30.1097
29.6979
29.5306
29.4277
29.3715
29.2514
29.2834
29.3308
29.3981
29.5081
29.675
29.9723
30.5276
32.3117
43.1147
116.554
444.894
166.642
78.3378
49.9688
38.8114
34.0577
31.7869
30.5467
29.9946
29.5834
29.4164
29.3132
29.2575
29.1454
29.1773
29.2254
29.2938
29.4055
29.575
29.8795
30.4618
32.4854
44.5644
118.334
412.709
159.794
77.2885
49.7856
38.7069
33.9366
31.6679
30.4297
29.8783
29.4675
29.3006
29.1975
29.1422
29.0392
29.0708
29.1193
29.1888
29.3017
29.4739
29.7867
30.4024
32.7196
45.8189
119.299
384.567
153.668
76.3044
49.6122
38.6231
33.8286
31.5538
30.3135
29.7615
29.3507
29.1839
29.0809
29.0261
28.9329
28.9641
29.013
29.0833
29.1973
29.3723
29.6947
30.3528
33.0003
46.8957
119.614
359.784
148.135
75.3743
49.4449
38.5524
33.7317
31.4447
30.1984
29.6446
29.2334
29.0665
28.9636
28.9094
28.8267
28.8575
28.9065
28.9777
29.0926
29.2705
29.6043
30.3156
33.3058
47.8181
119.416
337.805
143.094
74.4883
49.2813
38.4898
33.6439
31.3402
30.0847
29.5281
29.1159
28.9489
28.8462
28.7925
28.7208
28.7511
28.8002
28.8721
28.9878
29.1689
29.5163
30.292
33.6181
48.6063
118.821
318.181
138.47
73.6383
49.1195
38.4321
33.5632
31.2397
29.9726
29.4121
28.9985
28.8313
28.7286
28.6755
28.6152
28.645
28.6941
28.7667
28.8832
29.0678
29.4314
30.282
33.9249
49.2775
117.922
300.55
134.198
72.8175
48.9578
38.377
33.4883
31.1429
29.8622
29.2969
28.8815
28.7139
28.6113
28.5586
28.51
28.5393
28.5885
28.6618
28.7791
28.9677
29.3505
30.2845
34.2196
49.8464
116.796
284.615
130.231
72.0203
48.7947
38.3229
33.4178
31.0495
29.7535
29.1826
28.765
28.5968
28.4943
28.442
28.4054
28.4342
28.4834
28.5573
28.6755
28.8687
29.2739
30.2975
34.4984
50.3261
115.507
270.135
126.525
71.242
48.6289
38.2685
33.3506
30.9589
29.6465
29.0694
28.6492
28.4803
28.3777
28.3258
28.3014
28.3298
28.3789
28.4535
28.5726
28.7711
29.202
30.3191
34.7599
50.728
114.104
256.91
123.048
70.4786
48.4591
38.2129
33.2858
30.8709
29.5413
28.9574
28.534
28.3644
28.2617
28.2102
28.1979
28.2259
28.275
28.3503
28.4706
28.675
29.135
30.3475
35.0039
51.0626
112.629
244.777
119.773
69.7271
48.2844
38.1551
33.2227
30.7851
29.4378
28.8464
28.4197
28.2491
28.1462
28.095
28.0957
28.1232
28.1723
28.2483
28.3694
28.5808
29.0727
30.3809
35.2308
51.3394
111.114
233.597
116.674
68.9846
48.1038
38.0945
33.1606
30.7013
29.3358
28.7367
28.3067
28.1351
28.0321
27.9811
27.9983
28.0256
28.0747
28.1512
28.2699
28.4891
29.0155
30.4182
35.4414
51.5667
109.586
223.256
113.732
68.2488
47.9165
38.0304
33.0989
30.6192
29.2361
28.6289
28.1999
28.0274
27.9241
27.8733
51.6723
133.65
73.5168
58.8294
172.235
141.204
68.0315
170.725
173.644
81.2755
155.692
169.242
96.1414
1244.84
1052.97
138.733
153.517
151.627
695.974
1197.16
523.254
134.328
136.013
44.305
42.511
66.2747
40.2377
508.2
160.202
110.589
51.06
43.214
35.6286
51.0866
46.6109
1317.21
1042.47
139.147
59.7893
53.5916
36.3134
57.187
51.7703
62.9919
212.447
181.701
859.714
1119.48
142.017
64.6123
61.3454
37.2996
65.8601
58.1014
74.0271
350.861
260.563
537.431
673.957
38.5926
78.0176
67.2065
86.668
612.821
461.781
2239
326.247
405.895
40.9345
109.597
79.9759
110.069
1250.35
887.679
435.638
528.244
666.737
121.872
162.67
79.3855
117.476
1027.52
542.564
108.031
403.042
806.527
177.952
153.26
56.1135
211.18
235.747
168.52
206.017
1130.98
1313.89
156.629
1025.93
916.014
824.852
1027.19
155.015
254.759
217.651
64.1725
296.167
354.882
238.684
291.417
696.007
840.079
174.195
657.643
543.475
906.56
674.014
174.722
455.98
355.62
75.7067
450.272
598.711
358.909
445.263
418.434
520.562
880.193
624.309
87.3085
2615.02
849.91
1205.45
604.276
836.88
2760.86
301.358
317.341
2126.41
7835.26
1253.35
112.133
870.579
1732.38
6925.23
1207.99
1696.33
905.991
35.0009
46.1564
41.8031
48.8323
95.4478
69.7695
1760.5
663.486
55.117
149.774
125.562
3306.07
132.767
66.3156
65.2802
3509.15
896.874
988.116
733.193
267.283
291.489
121.497
98.238
49.6417
1242.92
174.92
477.071
130.079
363.601
99.1678
1028.61
1415.39
161.948
422.296
345.437
528.553
434.278
163.91
1756.42
3270.84
1084.89
62.2671
52.5828
74.125
130.418
63.8704
64.1965
1885.68
343.752
1664.87
463.237
1497.33
290.757
1117.76
1105.76
983.907
1000.36
2146.19
3099.23
591.315
2284.38
1644.76
3333.19
2416.08
610.576
508.458
168.666
179.837
739.337
852.772
3315.28
938.404
245.48
266.373
220.73
238.665
924.2
1036.63
1223.26
135.408
795.819
693.163
1177
801.615
141.348
97.3217
317.847
135.754
607.198
357.14
102.861
539.613
864.605
814.39
785.534
217.293
1491.42
218.241
185.124
1357.36
1204.47
1478.68
1376.18
190.454
1196.82
1205.83
975.745
338.299
332.419
338.165
339.072
969.346
910.186
305.273
278.396
328.933
312.568
921.434
324.196
328.003
260.026
263.141
713.978
3369.24
728.261
490.35
501.791
404.489
410.388
1575.77
1161.91
473.649
1480.85
2051.56
680.8
200.438
215.329
183.743
196.013
672.2
1845.22
881.523
888.717
642.392
648.891
3693.05
1504.89
622.613
706.946
273.219
327.235
2797.49
4892.87
1833.3
2525.72
1226.43
4228.17
2652.91
3975
1240.12
1033.41
3100.35
2182.44
1884.08
2140.62
2455.15
44.5398
165.144
116.355
261.131
3843.59
7231.64
352.026
123.836
131.331
1035.01
2582.31
3022.46
533.414
598.092
1434.75
244.264
260.494
706.542
124.099
86.9587
155.134
455.213
118.057
133.513
1277.35
2073.51
2218.8
1074.27
920.134
2084.57
1810.84
2983.37
2990.48
1075.91
310.997
125.87
132.438
117.729
123.765
302.249
155.746
165.236
502.13
1206.62
503.171
533.368
6023.83
3010.26
627.055
945.136
1914.87
2029.9
568.983
219.049
178.78
267.804
232.022
603.073
1161.76
2811.69
2958.91
1273.9
238.399
110.339
115.817
755.511
744.88
343.275
1750.64
1622.65
789.193
607.408
300.286
313.072
822.091
330.355
336.859
317.04
327.45
809.718
397.356
144.54
152.807
134.725
141.96
390.204
465.405
1095.85
1085.73
1600.53
1532.14
574.188
374.713
808.945
760.132
1082.96
1078.69
430.409
459.033
1115.4
825.116
3872.61
2249.27
865.873
1102.14
620.186
1671.25
1619.81
1827.29
721.742
3329.43
8934.1
463.064
646.479
542.386
571.807
1271.87
2081.88
1516.54
782.566
1824.74
5593.51
1889.96
1788.45
14259.7
1207.8
1609.79
1447.17
1669.54
1294.57
3465.96
3446.44
1755.75
2036.65
3691.26
1306.03
1333.42
272.611
1092.54
430.354
1173.15
317.219
2993.18
2532.37
1240.64
3211.41
3538.94
3257.03
2740.43
1489.49
3358.49
3842.87
2721.16
3199.01
4001.27
2207.64
2578.42
1826.93
2101.24
3802.82
1918.15
1073.13
802.325
1390.82
1152.1
710.911
452.036
1139.64
2438.83
2667.77
1230.13
1082.56
2264.27
2387.34
2283.25
2154.4
936.61
3172.4
3018.41
2607.74
3139.64
2917.46
1057.1
2828.36
2337.86
2510.22
2645.81
1978.95
919.881
1026.34
2854.35
1224.26
1365.46
1070.23
1182.56
2739.46
2806.55
1449.8
1671.74
457.193
492.148
1139.56
904.5
426.898
448.733
1121.73
1150.59
785.015
274.842
302.546
228.859
264.227
780.655
939.215
351.618
399.945
310.156
336.956
858.752
500.426
190.044
217.822
731.641
748.179
1565.28
1695.6
907.291
2127.88
1950.37
2262.62
1552.67
1460.98
1907.66
1624.22
682.845
1343.77
1550.51
1533
521.095
629.551
483.194
504.205
1520.13
673.179
680.867
651.302
670.558
1301.76
431.112
444.339
409.247
426.463
1278.15
1435.08
465.676
478.638
448.689
461.482
1424.35
2590.39
2760.89
1171.08
1252.22
2441.68
2519.88
1022.97
1023.93
1015.88
1023.14
1035.39
1046.96
1024.95
1031.94
693.873
703.605
683.27
691.002
760.416
990.294
707.434
732.097
1650.92
1847.05
1414.14
1582.84
3406.65
2326.12
2506.49
1922.87
2243
1124.46
1098.99
470.564
1712.16
1743.98
1651.2
1700.85
1757.67
558.769
1512.31
1164.41
1071.68
873.484
382.491
1213.3
1470.99
1051.66
1112.97
1577.09
1633.02
1493.54
1557.64
425.526
1078.6
1078.8
3582.76
1696.78
3539.23
3192.91
3540.13
1776.05
3909.28
2139.81
3838.1
3488.31
869.465
994.846
1735.58
1687.57
625.536
688.036
1805.4
1753.25
3532.11
1305
585.999
798.715
4875.22
5226.84
1894.32
4993.68
4132.42
2201.64
1210.1
4383.04
3101.14
5082.08
3282.1
1594.93
60.0221
40.8945
35.8321
3655.29
3632.67
120.217
66.0903
66.4018
3650.76
1414.22
2605.94
2234.27
335.996
268.937
147.012
274.942
176.018
463.647
1642.49
279.974
305.789
50.6173
60.1881
110.813
422.011
890.656
1103.06
198.001
97.2924
101.947
91.4761
95.7998
193.748
1178.72
1365.98
2648.01
788.043
690.356
371.673
399.86
420.082
900.037
1167.56
1284.46
646.759
103.56
108.592
233.112
308.775
722.223
702.912
680.614
568.64
277.175
797.642
370.325
392.918
3195.84
3045.48
2486.58
1622.26
1593.2
1196.48
2926.7
3560.36
3381.04
1835.36
1011.28
1127.83
1754.8
1207.62
1675.44
1652.93
1671.8
1707.79
3450.83
2782.9
2941.52
3624.8
1959.98
1706.78
892.876
1269.21
165.409
127.394
253.718
1175.93
2395.98
2057.82
4003.13
4084.76
4160.72
3685.82
3897.47
83.4289
107.823
325.564
1721.17
1437.01
1342.86
2004.64
1859.06
2248.93
2945.02
2814.72
3464.3
3414.12
2903.36
815.076
889.803
1889.5
3227.07
2359.56
2479.7
3120.05
2485.39
2626.81
1060.51
1320.1
1202
791.846
558.04
562.889
1147.83
810.396
834.941
568.645
576.65
811.226
161.619
182.639
479.58
635.34
988.548
809.402
1213.22
1173.62
794.797
1652.79
1301.68
1318.29
917.009
924.1
1503.81
1478.45
1499.15
1341.73
1367.21
1336.36
859.566
864.387
842.958
845.604
1229.69
1464.82
903.784
910.367
869.689
875.385
1394.86
731.198
724.68
312.676
339.459
741.697
733.484
525.651
513.315
250.764
1576.7
1585.63
1512.43
1524.78
1729.74
1594.23
1602.91
273.234
551.315
530.071
3351.7
3331.98
2580.28
2671.6
3375.01
3294.7
3317.84
773.119
1574.32
1410.22
344.08
362.881
748.75
652.681
324.853
338.892
1185.71
1183.2
876.753
902.09
1203.44
1190.88
3678.34
1750.79
1194.55
1708.47
14114.3
2833.02
2080.7
3903.72
3455.3
1803.74
1785.76
1219.32
4354.57
4588.27
4520.31
3705.77
1277.66
1840.94
1820.28
2652.19
1497.67
1723.7
3515.61
3637.6
3079.24
2953.53
2346.41
1242.74
1576.26
1389.11
2725.16
3428.12
3251.85
3557.73
3517.57
2871.54
177.432
250.099
1259.03
2257.02
2215.09
2337.03
2302.23
2120.95
1612.22
1609.03
1620.76
1615.4
2160.44
3044.59
1878.83
1894.04
1813.69
1854.8
3064.22
1936.72
1561.31
1494.15
1604.7
1593.18
1983.09
2840.65
1921.37
1931.42
1906.38
1915.27
2912.28
2420.53
2373.85
2331.71
2398.9
1092.92
792.54
795.871
1577.73
1133.14
1132.78
1124.58
1132.1
1554.61
3714.31
3757.2
3423.85
3610.05
1649.93
1676.48
1598.79
1623.9
1909.54
1168.14
1569.56
1553.73
1655.04
1131.74
1132.58
1131.96
1131.56
1637.95
1555.2
1575.49
1312.59
1541.48
1910.86
3740.18
3662.6
3109.99
3793.06
1686.01
2200.2
11645.9
1259.8
948.723
959.707
1776.95
5660.38
5616.45
9012.17
5336.84
4860.58
1715.65
1696.22
1206.99
1645.34
1731.33
1859.84
1645.31
1849.33
1627.75
1291.41
1888.19
1732.8
3493.68
3476.19
3660.45
3104.24
3309.37
1287.7
1431.33
1011.88
534.115
656.387
1038.12
1088.24
773.539
991.758
1277.84
3396.88
3597.36
3497.11
3554.77
4010.99
3980.91
3745.63
2876.33
3619.56
3380.23
3944.34
3840.41
3039.85
3263.62
3454.68
4096.21
3599.65
2937.79
3089.71
1683.46
1516.2
1769.97
1287.56
1558.76
1735.28
1795.26
1737.02
2478.24
1724.74
1671.35
2172.85
1863.11
2533.22
2302.88
1631.85
1626.21
1649.82
1639.48
2349.52
2243.07
1538.44
1561.93
3138.36
3091.86
2792.05
3153.16
3163.08
2995.79
2901.4
2950.36
2620.7
1687.29
1753.56
1590.19
1630.38
2435.01
3322.01
3129.51
2372.11
3537.28
3520.23
3509.11
2768.76
3443.41
3435.11
2125.18
2234.76
3034.82
1090.68
1178.47
667.763
755.555
1125.97
825.921
589.5
614.65
1060.13
1020.46
699.976
1142.99
1258.91
764.733
1140.8
1102.52
1577.6
1296.66
1274.73
1389.09
1328.71
1610.76
2067.51
1987.97
1522.76
1891.41
1939.98
1774.36
1828.49
1499.39
1866.3
1990.5
2141.97
1828.43
987.274
1085.09
1558.68
1511.86
932.499
947.944
1436.13
1457.32
1391.18
1414.11
852.979
856.124
1320.35
1253.84
847.458
849.885
891.273
897.246
1449.47
1412.19
881.113
886.215
2650.62
1958.21
1970.41
1939.74
1946.86
2686.48
2441.73
2076.64
2196.16
1988.36
2018.44
2485.74
1023.11
1515.07
1495.65
1545.53
1530.79
1023.32
1022.53
1428.37
1407.25
1474.56
1452.33
1023.42
1039.2
1631.63
1617.3
1654.15
1644.33
1043.09
1026.48
1572.5
1559.39
1602.82
1587.89
1028.92
1557.51
1567.37
696.929
983.802
980.78
990.523
987.042
700.161
1536.34
1547.23
1629.63
1648.54
823.594
1156.72
1058.83
1387.91
1374.49
927.636
712.13
999.152
994.412
1020.43
1006.08
719.095
1611.03
1619.38
3154.06
3298.8
3365.64
2784.67
2964.1
2387.58
3313.65
3347.61
3218.8
3274.73
2442.24
2021.12
2929.42
2732.36
3300.51
3144.91
2135.13
1109.82
810.927
824.245
799.469
803.976
1103.11
1722.84
1733.13
1669.72
1688.85
1779.51
1869.18
1496.99
1029.94
1096.94
853.604
919.617
1266.75
1437.05
1799.86
1715.85
1450.9
1058.82
1674.28
1664.24
1696.43
1684.73
1073.6
1596.03
1614.73
1515.91
1537.26
3506.59
2734.08
2859.39
2450.86
2595
3393.04
3378
3499.78
2993.27
3181.17
3569.03
3810.84
3077.8
3233.07
2764.38
2923.08
3702.8
1731.32
1747.42
1695.97
1714.25
1334.4
1239.49
930.93
1794.38
1818.69
1762.84
1778.02
1719.04
1139.32
1143.26
1134.15
1136.39
1703.45
1791.27
1172.65
1211.45
1148.66
1156.87
1771.7
3646.4
981.386
1035.77
1411.02
4653.28
7519.1
7607.79
6498.09
6827.57
4937.21
2100.75
4692.44
3638.85
3856.35
1213.87
1760.65
1737.44
4383.07
4664.1
4751.11
4092.27
4386.24
5123.17
4790.57
3485.37
4406.65
4147.44
1954.52
1871.56
1374.99
31.7552
31.7646
31.8509
31.7689
31.7852
31.8611
31.792
31.8162
31.8772
31.8254
31.8534
31.8972
31.8621
31.8838
31.9149
31.8887
31.8943
31.922
31.893
31.8806
31.9151
31.8741
31.8504
31.8984
31.8416
31.8159
31.8796
31.8079
31.7872
31.8641
31.6403
31.6605
31.7372
31.6693
31.704
31.7621
31.7184
31.7679
31.7998
31.7861
31.8434
31.8438
31.8615
31.9055
31.8798
31.9149
31.923
31.8918
31.9191
31.8903
31.8751
31.8765
31.828
31.8393
31.811
31.7612
31.7984
31.7457
31.7035
31.764
31.5354
31.5759
31.6373
31.5937
31.6609
31.6892
31.6889
31.7959
31.7651
31.8386
31.9799
31.8577
32.027
32.1417
31.9342
32.1641
32.1688
31.9538
32.1514
32.0619
31.9114
32.0249
31.9077
31.8349
31.8684
31.7617
31.7547
31.731
31.6543
31.6873
31.446
31.5161
31.558
31.5461
31.674
31.6579
31.7342
31.9879
31.8241
32.1022
32.5497
32.0619
32.7283
33.2183
32.2813
33.3092
33.2311
32.3106
33.1144
32.7021
32.1568
32.5687
32.2155
31.9557
32.1171
31.8747
31.7768
31.8097
31.6549
31.6487
31.3743
31.4832
31.5056
31.534
31.7743
31.6905
31.8957
32.4846
32.0768
32.8028
34.5562
32.8442
35.5863
40.0988
33.8904
40.5903
38.7073
33.861
37.5233
34.8039
33.0238
34.2108
33.0221
32.3566
32.7542
32.1771
31.9291
32.0385
31.7319
31.666
31.3165
31.4732
31.4789
31.5539
31.949
31.8128
32.1589
33.2972
32.6675
34.0101
40.8456
35.5636
39.1669
45.0643
38.3153
58.8555
55.8894
42.8996
44.7711
41.0826
38.4233
38.4719
34.6939
33.3478
34.0174
32.74
32.2915
32.467
31.9035
31.7657
31.2671
31.4775
31.4734
31.5901
32.1353
31.9974
32.4242
33.9994
33.5016
34.5757
35.9294
35.5357
46.8243
52.65
50.7725
85.1318
58.7295
50.5893
45.4222
37.2256
35.2655
35.8975
33.5554
32.9243
33.0879
32.165
31.9618
31.2226
31.4857
31.4794
31.6272
32.2898
32.1771
32.6326
34.4648
34.1303
35.3309
36.9901
36.7739
53.1428
62.7336
61.2399
128.901
79.7866
72.8105
51.7845
39.8652
37.9118
37.9054
34.4681
33.7824
33.7914
32.4754
32.2402
31.1816
31.4947
31.4878
31.6617
32.4233
32.3242
32.8104
34.9029
34.5692
35.9438
37.9725
37.6867
60.7917
81.7894
78.4824
142.912
89.6243
87.3947
55.8055
41.9506
40.4515
39.566
35.2962
34.6884
34.4441
32.7812
32.5541
31.1443
31.5066
31.4972
31.698
32.56
32.4563
32.9967
35.4747
35.0286
36.7606
39.4916
39.0554
70.8939
102.505
98.0785
138.268
89.8938
90.4642
57.6284
43.2718
42.3549
40.6814
35.923
35.4747
34.9527
33.0361
32.8509
31.111
31.5234
31.5103
31.7396
32.7172
32.597
33.2193
36.2638
35.6513
37.9262
42.6775
41.0128
85.4987
132.791
125.972
126.326
93.8873
94.6415
57.9041
43.8876
43.4863
41.2587
36.3092
36.0421
35.2779
33.2121
33.0879
31.0926
31.5692
31.5284
31.8165
32.9644
32.7606
33.5805
37.6769
36.498
39.392
47.0531
45.4182
102.623
184.069
171.731
863.357
458.403
514.609
106.75
64.8668
65.8452
57.3193
43.9863
43.9521
41.411
36.4776
36.3696
35.4297
33.3018
33.2422
31.063
31.5925
31.5758
31.8644
33.1721
33.0164
33.9066
39.3358
38.0186
42.4302
51.2357
51.9883
192.811
536.517
408.347
447.564
218.904
238.071
100.344
63.0552
64.5019
56.1614
43.7308
43.9557
41.2723
36.4789
36.4924
35.4455
33.3158
33.3115
31.0288
31.6096
31.5976
31.9066
33.392
33.225
34.2864
42.2215
39.9118
51.0798
324.628
211.217
867.637
518.735
610.95
302.908
115.803
121.604
94.9798
61.2789
62.6009
54.9531
43.3184
43.6299
40.9724
36.3592
36.4551
35.3535
33.2591
33.3061
30.9877
31.6158
31.6123
31.9393
33.6558
33.4542
34.786
46.318
43.1351
60.341
412.671
353.002
853.117
434.652
494.402
268.995
109.942
114.142
90.796
59.7003
60.859
53.8195
42.8761
43.2113
40.6391
36.1976
36.3221
35.2202
33.1676
33.2383
30.9387
31.6113
31.6156
31.9632
33.9713
33.7288
35.4117
51.5102
47.5194
71.8756
451.276
425.906
788.918
376.477
418.205
243.938
105.876
108.785
87.7015
58.3799
59.3472
52.8414
42.4434
42.7654
40.2967
36.0084
36.152
35.0586
33.0514
33.1404
30.8823
31.5997
31.6089
31.9847
34.3596
34.0609
36.1846
57.71
52.9596
84.0535
461.632
455.921
716.337
333.881
364.64
224.589
102.764
105.04
85.5384
57.2918
58.0864
52.0115
42.0461
42.3404
39.9729
35.8117
35.9594
34.8856
32.9214
33.0198
30.82
31.5858
31.5963
32.0107
34.8314
34.4695
37.1082
64.5166
59.3973
94.6105
456.17
461.39
648.396
301.334
324.955
209.11
100.06
102.058
83.8524
56.4535
57.0572
51.3302
41.6896
41.9531
39.6757
35.6182
35.7628
34.7118
32.7852
32.8877
30.7535
31.5743
31.5826
32.0471
35.3927
34.9631
38.1955
70.7641
66.1773
102.583
442.325
453.284
588.47
275.617
294.357
196.377
97.6361
99.4291
82.3653
55.8706
56.2859
50.823
41.3767
41.607
39.408
35.4328
35.571
34.5425
32.6475
32.7508
30.6844
31.5688
31.5722
32.0987
36.0659
35.5487
39.515
75.7334
72.1288
108.527
424.417
438.107
536.668
254.738
270.003
185.662
95.4546
97.0694
81.0079
55.4568
55.7556
50.4753
41.1178
41.3064
39.1759
35.2586
35.3881
34.3806
32.5111
32.6132
30.6143
31.5733
31.5688
32.1713
36.9086
36.2583
41.0887
79.5826
76.7885
112.89
404.918
419.624
492.1
237.405
250.112
176.479
93.4799
94.943
79.7616
55.1202
55.3679
50.2238
40.9205
41.0627
38.9873
35.099
35.2172
34.2289
32.3778
32.4774
30.5447
31.5942
31.5766
32.2776
37.9254
37.1495
42.7232
82.5668
80.4022
115.96
385.208
399.973
453.667
222.745
233.517
168.485
91.6781
93.0145
78.6119
54.8174
55.0422
50.0168
40.7764
40.8801
38.842
34.9572
35.0618
34.0901
32.2493
32.3451
30.4777
31.6428
31.6033
32.4361
39.0018
38.1945
44.2204
84.8468
83.1979
117.972
366.036
380.344
420.347
210.151
219.422
161.433
90.0196
91.251
77.5442
54.5337
54.745
49.8303
40.6686
40.7467
38.7307
34.8339
34.9247
33.9656
32.127
32.2181
30.4165
31.7301
31.6607
32.6559
40.0248
39.2654
45.5229
86.5398
85.3211
119.124
347.782
361.377
391.262
199.184
207.271
155.139
88.4796
89.6243
76.545
54.2636
54.4651
49.6549
40.5824
40.6454
38.6426
34.727
34.8057
33.8545
32.0113
32.0975
30.3641
31.8589
31.7585
32.9269
40.9489
40.2657
46.6419
87.7421
86.8829
119.588
330.618
343.386
365.697
189.526
196.658
149.468
87.0379
88.1107
75.6023
54.0038
54.1978
49.4863
40.5087
40.5631
38.5691
34.6336
34.7025
33.755
31.9021
31.9834
30.3236
32.0225
31.8969
33.2282
41.7687
41.1634
47.6008
88.5368
87.976
119.507
314.591
326.505
343.063
180.933
187.286
144.313
85.6777
86.6908
74.7061
53.7515
53.9401
49.322
40.4422
40.4916
38.5049
34.5507
34.612
33.6651
31.7987
31.8757
30.2966
32.2096
32.0676
33.5401
42.4911
41.9581
48.4208
88.9955
88.6805
119.001
299.682
310.76
322.888
173.221
178.929
139.591
84.3855
85.3487
73.8478
53.5043
53.6893
49.1599
40.3794
40.4262
38.4462
34.4758
34.5313
33.5828
31.7004
31.7737
30.2833
32.4091
32.2587
33.8492
43.1256
42.6576
49.1198
89.1797
89.0651
118.171
285.837
296.123
304.789
166.245
171.413
135.236
83.1502
84.0717
73.0203
53.26
53.4431
48.9983
40.3182
40.364
38.3906
34.4069
34.458
33.5066
31.6067
31.6766
30.2828
32.6123
32.4598
34.1473
43.6816
43.2717
49.7131
89.1423
89.1893
117.095
272.985
282.534
288.453
159.889
164.601
131.196
81.9627
82.8492
72.2176
53.0166
53.1992
48.8357
40.2571
40.303
38.3364
34.3423
34.3904
33.4351
31.5169
31.5839
30.2933
32.8136
32.663
34.4303
44.1676
43.8094
50.2139
88.9282
89.1038
115.842
261.05
269.918
273.629
154.063
158.386
127.429
80.8155
81.6724
71.435
52.7721
52.9556
48.6707
40.1947
40.2417
38.2822
34.2809
34.3267
33.3671
31.4305
31.4951
30.313
33.0093
32.8632
34.6962
44.5914
44.2791
50.6342
88.5753
88.8516
114.463
249.955
258.2
260.108
148.691
152.68
123.898
79.7023
80.5342
70.6683
52.5253
52.7107
48.502
40.1302
40.1788
38.227
34.2216
34.266
33.3019
31.347
31.4094
30.3398
33.1971
33.057
34.9445
44.9604
44.6886
50.9848
88.1158
88.4693
113.003
239.626
247.303
247.716
143.712
147.412
120.574
78.618
79.4287
69.914
52.2746
52.463
48.3286
40.0625
40.1136
38.1698
34.1635
34.207
33.2384
31.2659
31.3265
30.3722
33.3761
33.2427
35.1756
45.2811
45.0449
51.2751
87.5765
87.9875
111.495
229.995
237.155
236.309
139.075
142.522
117.433
77.5581
78.3509
69.1695
52.0189
52.2111
48.1495
39.991
40.045
38.1099
34.1058
34.1491
33.1761
31.1869
31.246
30.4086
33.5457
33.4193
35.3902
45.5597
45.3545
51.5141
86.9801
87.432
109.968
221
227.689
225.768
134.737
137.964
114.454
76.5191
77.2966
68.4322
51.7572
51.9541
47.964
39.9151
39.9725
38.0468
34.0479
34.0914
33.1144
31.1095
31.1674
30.4459
33.6991
33.5866
35.5813
45.7945
45.6235
51.7045
86.3556
86.8245
108.461
212.609
218.844
216.02
130.702
133.695
111.654
75.5211
76.2623
67.7195
51.4987
51.6908
47.779
39.8381
39.8954
37.9831
33.9924
34.0334
33.056
31.0376
31.0904
60.0864
59.082
51.0248
125.478
183.612
210.376
82.8841
94.6202
81.9576
77.3843
73.8352
57.9388
170.22
267.926
268.7
218.396
239.045
148.077
96.6711
92.6238
66.6903
172.154
243.064
234.106
268.216
264.869
174.497
123.845
117.848
79.324
157.816
191.233
187.737
213.143
209.67
167.579
167.97
157.567
91.8351
1293.08
1581.96
1510.17
822.101
861.844
1112.88
144.878
260.607
238.884
184.228
180.855
151.347
377.668
312.905
139.361
757.408
1448.53
1416.47
2123.22
1825.38
1203.94
390.537
405.598
621.288
127.772
212.178
200.425
232.665
216.692
129.523
65.9015
48.4201
40.2936
1507.82
1055.2
1969.35
39.8866
47.9397
56.9667
1722.25
1720.2
60.083
65.7037
73.4443
42.0032
53.4763
47.1826
475.257
582.465
637.261
205.985
263.508
198.929
70.1877
61.6025
91.8461
48.4139
55.0761
58.8822
47.5709
51.2321
45.7573
37.4333
37.2049
35.4804
48.9989
39.3453
39.9477
38.7335
39.1803
48.2907
1315.23
1727.07
1725.69
1296.56
1303.58
1054.58
86.2955
81.7
132.129
57.9871
68.5275
70.9243
62.4763
65.7194
55.9209
38.6564
38.2953
36.12
54.6758
41.2871
42.2646
40.1807
40.9904
53.9138
86.394
82.9137
61.8647
207.272
155.386
158.594
138.318
140.962
185.595
880.611
1082.15
1056.63
1411.19
1396.53
1106.91
90.5088
90.0385
143.053
63.7446
75.8169
76.7501
72.929
74.555
62.6627
40.4765
39.9649
37.0179
62.2094
44.1268
45.4267
42.6098
43.7299
61.1085
108.908
104.05
72.4238
335.922
214.684
218.814
190.418
194.545
267.115
554.718
706.247
680.295
1058.48
964.908
652.308
44.89
43.276
38.2485
73.0303
47.7224
49.5589
45.8939
47.1977
71.5921
142.876
135.227
87.6981
554.017
314.627
310.049
268.42
275.053
478.836
1816.25
1912.11
2362.8
357.975
661.953
586.619
494.952
478.73
394.056
51.2314
47.6703
40.04
89.6568
53.2736
58.4235
50.2323
52.427
86.8583
203.416
188.617
104.373
1247.44
920.379
929.023
659.248
667.161
892.312
2695.79
3486.94
302.295
600.721
2702.16
2070.8
1354.32
1192.77
689.419
126.05
193.578
165.098
293.902
266.876
155.922
85.1084
100.19
91.0884
153.449
144.929
112.794
1007.62
1269.35
1286.55
688.528
735.075
577.364
144.155
174.032
116.868
444.489
325.848
298.485
466.824
445.173
729.968
167.606
86.1137
90.0859
82.0735
84.922
164.273
57.0701
72.3904
67.218
216.633
388.451
372.568
493.674
481.507
227.186
174.176
317.156
300.861
368.452
356.33
200.879
1141.74
1435.24
1423.81
1719.38
1705.99
1306.37
261.021
266.901
160.629
1009.28
563.515
564.227
586.743
592.002
941.482
868.062
505.43
486.917
564.123
564.717
1001.56
149.799
244.741
257.984
249.215
182.75
186.517
161.858
165.163
222.77
65.4044
91.331
87.5937
300.615
382.286
375.849
445.704
441.232
350.962
247.73
509.334
497.592
368.123
359.401
286.449
718.316
1202.76
1091.88
1032.76
1010.43
822.416
254.236
245.988
173.318
641.036
495.061
505.537
282.073
295.823
590.714
873.761
573.024
580.409
515.882
526.077
761.351
174.85
263.148
256.767
435.553
255.725
262.004
223.172
227.738
369.65
77.4702
115.956
110.604
455.304
591.93
587.332
815.62
811.836
592.5
363.315
455.957
450.457
582.791
578.315
440.279
431.392
529.873
512.02
655.145
631.949
504.398
866.508
636.839
649.679
311.445
320.752
646.45
90.5415
154.391
145.59
856.992
1179.29
1177.55
609.613
821.176
818.491
1169.53
1141.33
811.367
311.816
487.313
439.106
564.335
505.447
295.748
2023.3
1645.69
1727.82
11098.2
2308.73
3523
935.672
941.695
1255.62
125.285
246.23
208.63
1083.74
1038.87
838.658
4817.25
4861.08
8821.33
944.153
1188.06
1133.44
36.538
36.2624
34.8045
44.712
38.0915
38.5907
37.1526
37.8924
44.1258
55.8081
54.3558
47.9019
86.0354
62.5596
65.2912
58.9083
61.5398
82.3056
940.09
1235.58
896.349
65.8541
64.3552
54.0896
139.436
77.5075
80.9418
72.3271
76.3274
135.99
95.2476
89.5667
137.05
66.1093
77.9712
78.0084
77.3926
77.7897
65.7701
943.961
1625.47
1403.12
1240.1
1187.5
954.221
407.189
442.505
826.363
274.674
351.763
339.898
425.151
364.806
282.774
109.453
68.8956
71.326
66.0545
68.2027
106.411
50.3612
58.096