/*--------------------------------*- C++ -*----------------------------------*\
| =========                 |                                                 |
| \\      /  F ield         | OpenFOAM: The Open Source CFD Toolbox           |
|  \\    /   O peration     | Version:  v1912                                 |
|   \\  /    A nd           | Website:  www.openfoam.com                      |
|    \\/     M anipulation  |                                                 |
\*---------------------------------------------------------------------------*/
FoamFile
{
    version     2.0;
    format      ascii;
    class       volScalarField;
    location    "700";
    object      p;
}
// * * * * * * * * * * * * * * * * * * * * * * * * * * * * * * * * * * * * * //

dimensions      [0 2 -2 0 0 0 0];


internalField   nonuniform List<scalar> 
12556
(
658.368
657.573
655.611
651.511
646.015
633.765
613.879
582.168
534.271
465.17
370.934
251.17
111.431
-36.6472
-179.004
-304.317
-406.853
-486.108
-544.419
-585.549
-619.712
-635.685
-644.883
-649.207
658.844
658.327
656.969
653.915
648.424
637.962
620.238
593.9
550.637
486.44
396.073
277.356
134.695
-19.4818
-168.691
-299.534
-405.565
-486.612
-553.615
-592.29
-625.864
-640.015
-648.035
-651.781
660.06
660.174
660.161
659.351
655.442
649.139
637.078
615.216
579.598
522.349
434.714
309.758
149.732
-26.9833
-194.627
-334.291
-440.65
-517.004
-579.413
-611.549
-640.258
-650.451
-655.974
-658.518
661.473
662.473
664.322
666.623
665.506
665.278
661.69
648.449
626.404
583.77
505.585
373.366
180.21
-43.4393
-245.509
-397.884
-501.982
-569.003
-619.414
-640.745
-661.125
-665.599
-667.552
-668.374
662.124
664.129
668.079
673.971
676.721
684.026
691.588
691.495
690.07
674.364
623.517
493.237
237.567
-85.4182
-346.268
-510.011
-598.124
-642.095
-672.302
-678.124
-685.641
-682.863
-680.485
-679.218
661.039
664.048
670.094
679.627
686.921
702.188
721.734
737.713
764.311
792.843
805.777
727.74
353.8
-211.426
-553.785
-690.13
-731.094
-735.831
-734.3
-719.79
-710.669
-699.702
-692.575
-689.036
657.299
661.185
669.056
681.777
693.724
716.193
746.622
778.583
833.023
912.986
1037.77
1215.81
710.631
-662.191
-950.878
-951.644
-897.889
-841.508
-797.44
-760.275
-732.389
-713.306
-701.566
-695.834
650.075
654.601
663.781
678.783
694.829
722.571
760.688
804.817
877.663
988.546
1178.71
1587.17
-2054.88
-1569.7
-1261.76
-1068.35
-940.765
-851.059
-792.42
-746.498
-720.639
-705.107
-697.571
638.734
643.586
653.412
669.546
688.682
719.062
760.553
810.635
887.737
994.511
1136.51
1272.37
-3487.74
-2078.3
-1500.99
-1192.62
-1009.01
-882.855
-808.916
-749.145
-719.021
-701.14
-692.472
622.931
627.772
637.54
653.588
674.557
704.895
745.723
796.193
867.976
958.295
1058.44
1136.63
-3407.66
-2145.89
-1556.09
-1224.72
-1025.25
-883.77
-804.693
-737.871
-706.753
-688.35
-679.396
602.642
607.152
616.204
631.046
652.573
680.583
717.655
764.77
827.677
904.342
989.165
1068.35
-2633.2
-1854.16
-1426.65
-1157.74
-984.45
-851.595
-778.753
-712.381
-683.552
-666.449
-658.058
578.128
582.027
589.819
602.576
623.497
647.382
678.47
719.706
772.035
837.579
919.246
1020.48
-1757.82
-1407.78
-1186.04
-1019.29
-897.943
-791.808
-733.746
-674.42
-650.506
-636.164
-629.04
549.93
553.024
559.154
569.064
588.365
606.897
630.498
663.734
702.845
753.617
826.069
945.583
-774.813
-916.82
-957.706
-914.974
-849.411
-785.62
-714.347
-675.142
-627.264
-609.72
-599.019
-593.618
518.722
520.946
525.295
532.212
549.202
561.77
576.904
600.67
623.508
651.226
688.374
784.74
224.58
-389.946
-603.428
-673.742
-682.808
-667.363
-629.911
-609.342
-574.574
-563.798
-557.015
-553.505
485.33
486.597
489
492.657
506.725
512.86
519.105
532.423
537.412
536.805
520.022
456.126
179.605
-169.391
-380.966
-490.585
-540.226
-557.309
-546.946
-542.085
-519.874
-515.361
-512.237
-510.545
450.582
450.922
451.455
452.041
463.134
463.453
461.805
465.339
455.278
433.267
386.775
294.766
125.628
-87.99
-254.854
-364.065
-428.042
-462.503
-470.556
-477.348
-465.879
-466.587
-466.573
-466.464
415.306
414.829
413.738
411.677
419.886
415.255
407.207
402.888
382.255
347.701
293.21
208.325
88.882
-55.453
-181.018
-276.055
-341.371
-383.221
-403.014
-417.549
-414.456
-419.16
-421.584
-422.703
380.254
379.104
376.687
372.498
378.137
369.71
357.072
347.236
320.745
281.769
228.245
155.458
64.8397
-40.282
-136.549
-215.846
-276.057
-319.2
-344.907
-363.826
-366.752
-374.199
-378.391
-380.396
346.04
344.369
340.943
335.179
338.691
327.644
312.125
298.923
270.083
231.081
181.8
120.264
48.5138
-32.0713
-107.812
-173.523
-226.806
-267.88
-295.641
-316.478
-323.286
-332.386
-337.706
-340.329
313.136
311.098
306.976
300.164
302.015
289.394
272.401
257.507
228.55
191.655
147.493
95.4223
37.0137
-26.9761
-87.958
-142.626
-188.958
-226.521
-254.032
-275.137
-284.184
-294.065
-299.989
-302.946
281.878
279.614
275.078
267.68
268.304
254.957
237.546
222.139
194.361
160.486
121.384
77.1133
28.6658
-23.4086
-73.4184
-119.212
-159.217
-192.829
-218.831
-239.178
-249.257
-259.285
-265.411
-268.494
252.48
250.112
245.395
237.786
237.562
224.133
207.038
191.895
165.986
135.423
100.997
63.1638
22.4593
-20.6548
-62.2432
-100.859
-135.32
-165.023
-188.9
-207.906
-218.184
-227.928
-233.966
-237.023
225.048
222.671
217.961
210.43
209.668
196.616
180.322
165.928
142.207
114.937
84.7253
52.2539
17.7562
-18.3706
-53.3097
-86.0534
-115.718
-141.768
-163.284
-180.658
-190.591
-199.774
-205.532
-208.458
199.601
197.29
192.725
185.484
184.428
172.065
156.869
143.506
122.077
97.9322
71.4867
43.5367
14.1364
-16.3807
-45.939
-73.8137
-99.3416
-122.067
-141.199
-156.835
-166.091
-174.552
-179.907
-182.637
176.092
173.899
169.583
162.778
161.615
150.137
136.204
124.023
104.869
83.619
60.5364
36.4465
11.3144
-14.5915
-39.7044
-63.4884
-85.44
-105.181
-122.014
-135.918
-144.308
-151.968
-156.852
-159.347
154.428
152.391
148.391
142.119
140.987
130.507
117.913
106.979
90.0163
71.4196
51.3447
30.5894
9.08989
-12.9506
-34.3251
-54.6281
-73.473
-90.5485
-105.224
-117.462
-124.895
-131.728
-136.112
-138.354
134.481
132.624
128.984
123.303
122.305
112.878
101.641
91.9642
77.0771
60.9031
43.5263
25.6837
7.31865
-11.4273
-29.6092
-46.915
-63.0441
-77.7418
-90.4205
-101.092
-107.534
-113.55
-117.428
-119.412
116.102
114.44
111.185
106.124
105.335
96.9776
87.0788
78.6395
65.6989
51.7383
36.7927
21.5214
5.89454
-10.0019
-25.4196
-40.115
-53.853
-66.4255
-77.2684
-86.4821
-91.9384
-97.1655
-100.547
-102.279
99.1269
97.6672
94.8098
90.3798
89.858
82.5605
73.9612
66.7229
55.5994
43.6665
30.9241
17.9454
4.73806
-8.66117
-21.6551
-34.0521
-45.6681
-56.3333
-65.4904
-73.3567
-77.8486
-82.3256
-85.23
-86.7169
83.3881
82.1328
79.6769
75.8775
75.6652
69.4047
62.0563
55.9758
46.5475
36.4805
25.7476
14.8339
3.78837
-7.39451
-18.237
-28.5883
-38.3044
-47.2477
-54.8535
-61.475
-65.0326
-68.8012
-71.2506
-72.5045
68.7052
67.6549
65.5997
62.425
62.5615
57.31
51.1616
46.1941
38.3508
30.0108
21.1251
12.0905
2.99816
-6.19318
-15.1027
-23.6125
-31.6112
-38.9881
-45.1591
-50.6275
-53.2763
-56.3761
-58.393
-59.4246
54.9298
54.0806
52.4209
49.8601
50.3689
46.0943
41.0976
37.2023
30.8474
24.1169
16.9432
9.63716
2.32999
-5.04924
-12.2006
-19.0334
-25.4632
-31.4021
-36.2352
-40.6291
-42.4016
-44.8695
-46.4764
-47.2987
41.8001
41.1566
39.8935
37.9466
38.9001
35.5899
31.7037
28.8454
23.8968
18.6782
13.106
7.40839
1.75353
-3.95485
-9.48628
-14.7728
-19.7527
-24.3573
-27.9302
-31.3124
-32.1802
-34.0394
-35.2502
-35.8668
29.4555
28.9921
28.1027
26.7375
28.0516
25.6471
22.8353
20.988
17.3772
13.5892
9.5297
5.34767
1.24405
-2.90184
-6.92073
-10.7635
-14.387
-17.7385
-20.1099
-22.5349
-22.6278
-23.9212
-24.7661
-25.2057
16.6829
16.4677
15.9979
15.2761
17.4925
16.1077
14.3521
13.5105
11.1805
8.75334
6.136
3.40223
0.782354
-1.88026
-4.46811
-6.94556
-9.2842
-11.4429
-12.6421
-14.1429
-12.9275
-13.621
-14.0721
-14.278
7.53575
7.34883
7.11878
6.70188
7.64017
6.73965
6.01804
6.3158
5.21161
4.07253
2.84934
1.5002
0.364911
-0.874879
-2.09331
-3.26354
-4.37098
-5.38287
-5.31529
-5.97538
-5.71324
-6.08116
-6.28864
-6.4613
1304.55
-3699.55
-2145.83
1147.12
-3706.06
-3786.46
1075.05
-2862.3
-3625.87
1027.14
-1915.31
-2742.25
952.892
-831.097
-864.572
-1034.06
-1799.66
811.199
312.89
-786.996
177.693
-403.252
-938.181
1587.95
871.836
-1838.83
-488.329
-4612.54
-2476.22
-3402.01
-2193.09
-1675.32
1077.24
1139.3
1262.11
-5216.29
-5311.22
-3472.78
-2395.26
-2301.05
1005.87
1065.55
1128.11
1107.37
1131.08
1169.06
-3977.38
-4663.09
-2741.42
-2109.66
-2358.94
937.889
1012.97
1058.48
1050.59
1088.33
1097.93
-2684.69
-3238.43
853.024
940.78
1005.73
991.92
1055.46
1074.75
-1571.6
-1499.27
-2008.66
726.575
799.39
928.876
900.04
1000.68
1020.86
522.779
284.635
321.575
1548.89
1268.27
2179.74
1618.51
-5303.93
-4683.9
-3233.52
-4494.61
-5161.29
1172.55
1191.18
1185.4
1188.84
1176.24
1250.01
1191.77
-4702.55
-5196.57
-3794.5
-5076.68
-4617.88
-5170.04
-5095.26
-3813.78
1100.48
1125.83
1098.43
1129.11
1102.61
1174.23
1132.01
-3319.39
-3924.56
-3212.97
-3828.29
-3249.49
-4578.63
-3918.78
-3325.12
1076.35
1088.15
1045.02
1091.32
1080.44
1101.14
1091.19
-2082.61
-2607.59
1023.22
1053.93
986.353
-1534.91
1059.35
1027.79
1078.81
1061.03
-1569.76
-973.331
-1428.82
-1527.68
1035.16
1000.87
889.509
-62.4666
1007.67
920.986
1025.8
1007.08
-139.348
1155.14
1290.32
1501.68
1479.44
1610.19
2059.97
-5265.64
-2707.09
1202.31
1195.38
1263.95
-3205.34
-1865.58
-1608.01
-1995.22
-1941.21
-1878.06
-2139.23
-191.257
-480.192
-839.932
1282.63
1548.39
1431.46
1228.96
2977.45
2154.05
-2404.37
-4329.7
-3004.25
-2180.86
-2468.2
-2267.5
-2562.54
-2054.04
-3171.73
-2637.23
-2386.22
-1161.05
-342.495
-481.14
1423.67
1794.44
2200.13
-2080.77
-311.808
1233.95
-5401.36
-3931.35
-5291.4
-2648.53
-5112.75
-3609.01
-5277.96
-5287.13
-4306.56
-4353.2
-2848.62
-3144.5
-2918.15
-3121.81
-2823.17
-3491.53
-3167.19
-2997.41
1064.14
1036.47
1026.03
-1548.54
-1795.48
-1872.34
1006.9
967.863
952.865
986.452
972.556
1007.9
1428.16
1249.59
1387.45
1269.55
1469.12
1178.11
1250.84
1348.81
1968.79
2140.9
2831.83
1519.05
2038.85
1875.07
2036.17
1486.64
-5129.35
-5092.93
1182.56
1180.46
1182.01
1213.36
1164.59
1177.79
1176.97
1165.63
1205.88
-4943.14
-4973.25
-4881.74
-4330.21
-4423.7
-4142.14
-4289.28
-4851.43
-5170.74
-4469.43
-4407.63
-4444.55
-4473.39
-5161.91
1113.87
1111.91
1156.94
1153.5
-3567.83
-3523.01
-3613.93
1087.23
1086.15
1093.64
1093.04
-2778.49
-2488.16
-2380.35
-2508.57
-2800.17
1033.48
1004.51
990.902
1022.14
1009.19
1036.82
-1207.22
1040.88
1037.12
1068.91
1068.25
-1881.77
-1206.38
-1221.14
-1466.67
946.582
923.658
995.16
1009.21
471.657
157.613
1014.23
-336.619
110.965
-254.27
1013.91
-391.91
-281.969
78.9485
-2989.13
-2069.16
-2207.02
560.395
536.729
764.839
656.805
660.248
956.041
196.607
-123.317
-296.278
3958.47
-2238.3
-2387.53
-900.635
-1139.47
-1161
-140.731
-377.945
-118.589
2320.46
2551.05
3016.54
-2211.72
-67.146
1770.22
-5257.48
-5757.26
-5720.26
-5314.36
-4117.01
-4303.5
-4129.86
-4911.58
-4776.26
-4537.51
1090.98
1075.89
1069.83
1086.03
1078.19
1092.04
1048.73
1039.67
1065.14
1001.75
982.287
977.464
858.698
594.619
341.779
-5245.24
-5698.82
-5773.06
-4943.35
-4101.23
-3761.75
-4368.72
-4185.81
-4973.75
-4813.18
-5075.62
-4958.9
-5112.87
1109.16
1098.93
1089.01
1107.91
1109.86
1105.98
-4075.94
-3923.76
-3790.23
-3571.49
-3333.59
-3547.68
-4285.44
-3897.19
-4084.99
-3619.4
-3829.69
-4240.27
1082.76
1059.26
1051.62
1067.87
1061.64
1083.84
1091.04
1104.59
1101.02
1092.67
1103.51
1084.67
1097.47
1101.67
1106.67
1099.43
1096.63
1091.17
-2305.51
-2448.02
-2176.25
-1401.18
-1394.98
1053.68
1023.66
1073.42
1081.03
1091.88
1083.43
1063.83
-1699.23
913.562
912.647
875.46
975.568
967.787
997.831
124.314
373.055
133.771
1008.42
443.803
673.354
507.819
625.99
1015.08
1011.77
-4560.66
-3148.21
-4176.79
-3319.84
-3374.65
-1900.06
-2026.87
-2045.72
1203.4
1192.79
2683.4
2968.07
3630.83
2759.63
2552.12
-2540.19
-2391.51
-2343.49
-2399.77
-2559.05
-1178.11
-1012.35
-1018.55
-1019.82
-1182.95
-810.665
-969.063
-590.134
-606.242
-761.684
-400.242
-553.559
-493.047
-5631
-4970.34
-4482.76
-5406.56
-5103.11
-4292.06
-3600.21
-4282.74
-5612.34
-5572.27
-5261.76
-5309.83
-5697.46
-5633.78
-4514.14
-4356.91
-4165.53
-4410.65
-4579.87
-4186.08
-4361.32
-4622.61
-4492.38
-4732.79
-4562.01
-2977.74
-3029.54
-2998.57
-2915.5
-3037.64
-3351.36
-3250.19
-3380.41
-3078.8
-3207.05
-3302.44
-1751.99
-1725.91
-1855.4
988.983
984.288
999.079
1009.43
996.104
991.449
1328.64
1306.11
1331.67
1403.67
1333.39
1538.78
1432.53
1357.84
1205.4
1254.76
1224.67
1314.15
1267.38
1216.39
1694.36
1733.2
1580.85
1744.21
1663.91
-5639.81
-5671.6
-5220.03
-5796.16
-5795.66
-5791.69
-5633.29
-5494.91
-5802.99
-5665.93
-4950.73
-5479.57
-5625.32
1177.88
1182.42
1184.58
1183.66
1182.88
1180.19
1190.29
1191.63
1186.69
1189.35
1166.85
1197.79
1189.63
1217.82
1201.68
1167.3
1174.66
1184.79
1183.56
1187.96
1185.53
1175.41
-5210.8
-5111.91
-4847.7
-5076.34
-5348.15
-5234.69
1122.76
1117.69
1132.88
1123.49
1110.85
1110.07
1115.14
1110.78
1178.63
1167.21
1190.83
1182.17
1146.65
1135.34
1163.28
1151.18
-3594.13
-3729.62
-3423.76
-3552.12
-3648.59
-3972.39
-4126.96
-3775.52
-3924.18
1097.28
1103.51
1090.4
1108.98
1099.71
1103.89
1110.78
1099.11
1084.64
1103.1
1096.05
1099.83
1100.53
1096.1
1104.13
1103.28
1108.71
1103.86
1097.37
1101.45
1098.23
1096.9
1091.43
1096.38
1098.15
-2568.92
-2634.84
-2696.81
-2556.5
-2743.54
-2674.83
-1193.61
-1352.35
-1386.28
-1190.17
1051.77
1028.46
1078.06
1079.11
1071.89
1065.34
1085.41
1079.32
-1772.67
993.899
964.014
956.331
652.248
552.166
1007.59
243.842
414.899
299.566
1011.72
-489.749
-49.9651
181.642
-93.9312
998.325
-1798.55
-1469.63
-925.316
-2193.99
-2246.43
-1045.9
-1079.55
-1472.59
-2256.94
-973.794
-966.416
-814.197
-1982.74
-1518.47
-1459.19
3018.73
3374.91
3964.11
-1960.66
293.451
2416.77
-1070.5
-615.791
-2070.67
-4291.31
-4863.62
-5170.32
1148.56
1134.89
1120.08
1154.34
1139.94
1154.34
-1552.1
-1682.14
-1700.06
-2095.71
-1854.38
-1787.61
1004.62
998.833
1012.13
-5261
-5432.25
-4906.6
1115.36
1102.72
1112.74
1121.83
1123.73
1132.53
1135.03
1145.45
1140.79
1023.06
1011.84
1007.22
-1550.22
-1504.54
-1493.24
1032.39
1037.23
1029.38
-1632.5
-1647.31
-1559.3
-1391.25
-1377.18
-1509.01
1009.37
1024.16
1030.99
1030.84
1003.3
-5131.44
-3237.14
-1919.96
-1978.92
-1986.63
-2188.58
-2057.16
-2016.77
1213.6
-3617.46
-3092.24
-3658.68
-2303.25
-2360.85
-2227.67
-817.634
-832.929
-664.09
-665.061
-760.669
-1090.23
-445.63
-2228.18
-5454.71
-5206.71
-5032.41
-5744.63
-5684.22
-2891.62
-2921.66
-2875.78
-3160.81
-3152.11
-3125.4
-2749.97
-2871.81
-2951.47
-3459.52
-3409.66
-3453.82
-1864.44
-1841.21
-1871.28
1384.54
1416.41
1269.2
1289.03
1314.69
1294.57
1180.03
1198.85
1193.52
1275.99
1259.79
1235.56
1990.84
1793.45
1768.87
1930.89
1889.69
2031.35
1461.95
1504.41
1536.79
1177.45
1179.44
1188.97
1180.61
1181.46
1181.73
1201.69
1203.93
1191.24
1190.56
1166.93
1174.17
1172.74
1189.74
1185.65
1174.91
1173.19
1176.67
1178.62
1172.77
1174.6
1169.88
1116.82
1122.12
1119.5
1107.47
1110.44
1114.76
1164.61
1175.1
1165.24
1176.51
1172.15
1205.04
1201.46
1136.52
1167.75
1163.38
1144.23
1149.48
1160.92
-3747.19
-3799.42
-3494.61
-3541.79
-3566.79
-3851.64
-3873.05
-3741.37
-3876.22
-3734.97
1020.93
1014.45
1025.31
1046.09
1030.72
1024.07
1044.62
1049.95
1045.03
1033.95
1037.51
1040.46
-1879.45
968.043
967.761
974.286
739.092
976.183
343.239
488.348
615.16
1020.25
1017.33
1013.31
-395.072
-249.892
-223.787
-237.425
1011.43
1018.06
1020.73
-126.871
-200.994
-350.424
-2108.54
-2142.99
-2231.76
-2185.53
-2165.15
3785.06
4408.41
3472.3
-2286.15
-2314.11
-2244.99
-2405.67
-2354.12
-2340.77
-1051.69
-149.267
-2033.94
-5499.11
-5505.85
-5455.6
-5475.79
-5745.48
-5610.64
-5618.24
-5591.67
-5602.61
-5734.4
-4872.14
-4795.5
-4837.49
-4701.8
-4751.9
-4828.2
-5745.45
-5588.5
-5556
-5623.07
-5614.32
-5774.17
-5033.3
-4955.73
-4993.94
-4880.05
-4918.51
-4999.02
-5422.91
-5440.69
-5350.65
-5388.36
1103.95
1099.27
1099.39
1093.74
1090.65
1088.97
1095.09
1093.24
1097.42
-1507.66
-1560.12
-1393.32
-1464.01
1063.97
1065.24
1065.79
1063.24
1024.04
1027.22
1036.99
1021.03
1084.29
1081.95
1079.36
1087.48
1085.03
1088.67
1073.43
1072
1076.5
1060.9
1066.63
-1708.68
-1699.95
-1687.51
-1564.12
943.026
1002.99
1157.89
999.933
989.51
986.991
1010.38
378.017
358.04
1143.25
1009.88
770.086
1016.13
1025.56
1020.48
1006
-4804.61
-5086.44
-4888.74
-3959.64
-3740.78
-2890.74
-4605.86
-4299.86
-3275.07
-3402.97
-2040.97
-2027.74
-2038.22
1208.06
1174.84
3205.84
3090.46
2908.6
2271.85
2138.08
2702.52
2457.26
2537.51
-2466.95
-2412.25
-2506.96
-1031.52
-1031.69
-1021.29
-1126.51
-846.902
-831.53
-818.066
-961.793
-912.004
-903.892
-590.834
-649.18
-649.049
-474.617
-475.598
-520.249
-5483.94
-5360.08
-5549.91
-5311.07
-5539.6
-5624.94
-5657.09
-5603.32
-5588.29
-5493.79
-5509.1
-5493.91
-5481.38
-5569.78
-5671.9
-5557.79
-5576.09
-5525.71
-5541.37
-5653.11
-4465.04
-4392.47
-4441
-4462.94
-4525.29
-4236.86
-4261.46
-4227.05
-4309.99
-4673.09
-4713.26
-4678.2
-4593.3
-4648.63
-4489.77
-4541.35
-4618
-3014.67
-2941.41
-2927.21
-2955.61
-2890.3
-2941.31
-3081.96
-3109.11
-3058.36
-3315.1
-3356.9
-3385.91
1353.84
1286.34
1222.01
1207.78
1187.62
1225.35
1246.5
1234.46
1703.29
1782.2
1834.42
2020.47
1906.42
1594.6
1558.77
1628.82
-5650.15
-5478.66
-5460.2
-5522.08
-5498.44
-5662.5
-5803.66
-5795.78
-5605.75
-5778.44
-5783.71
-5726.18
-5771.85
-5565.7
-5789.15
-5804.52
-5849.22
-5725.34
1179.65
1181
1178.6
1181.73
1181.4
1180.74
1196.39
1198.95
1191.6
1193.93
1176.12
1175.25
1167.6
1170.36
1181.26
1177.89
1177.05
1176.28
1172.58
1173.59
1176.46
1177.32
-5181.57
-5096.93
-5126.61
-5028.74
-5062.67
-5143.81
-5304.82
-5231.02
-5301.1
-5153.82
-5185.23
-5266.11
1121.68
1122.78
1122.89
1118.72
1121.5
1119.99
1128.54
1125.96
1133.4
1121.93
1121.98
1125.05
1110.98
1112.59
1111.58
1112.69
1113.03
1110.77
1112.96
1112.56
1115.29
1110.5
1110.68
1111.43
1185.64
1181.1
1174.95
1178.27
1182.27
1169.93
1174.08
1171.11
1195.02
1189.84
1150.74
1147.59
1142.71
1145.43
1148.59
1137.75
1133.07
1136.78
1159.31
1161.59
1165.77
1153.31
1157.44
1155.27
1159.27
1155.16
-3678.1
-3706.55
-3621.55
-3592.08
-3626.93
-4018.02
-4049.48
-4009.15
-4163.93
-4100.2
-4068.62
-3817.79
-3853.92
-3820.45
-3964.11
-3919.52
-3871.63
1098.55
1095.26
1093.86
1098.63
1097.04
1100.96
1104.55
1101.09
1106.57
1108.95
1100.55
1091.36
1088.05
1088.97
1092.82
1092.33
1091.98
1097.6
1093.63
1096.23
1106.49
1104.27
1106.98
1108.79
1110.96
1106.43
1107.46
1105.58
1098.13
1099.46
1096.16
1096.37
-2652.61
-2634.1
-2683.65
-2544.43
-2589.4
-2623.87
-2806.04
-2841.21
-2726.13
-2739.38
-2750.89
-1322.43
-1322.75
-1378.84
-1200.29
-1256.3
-1270.13
1054.56
1047.34
1065.56
1061.96
1033.92
1034.26
1030.56
1036.84
1036.19
1042.57
1039.64
1077.78
1075.93
1075.8
1077.62
1076.53
1078.12
1084.08
1077.91
1077.17
1076.23
1077.09
1081.65
-1822.01
982.818
979.916
992.244
607.794
632.079
704.642
561.055
571.104
544.459
1008.67
347.174
291.71
219.653
1011.84
1013.58
1011.57
-466.813
43.4889
-21.2268
161.33
150.282
161.416
-42.0779
-169.973
-155.234
-51.3268
1008.34
1017.51
1011.14
608.742
582.164
562.977
570.769
528.781
504.43
511.218
448.104
420.822
422.487
333.736
308.908
299.287
186.086
171.206
144.746
18.1619
18.3514
-24.8483
-147.612
-133.518
-186.66
-291.787
-269.696
-323.619
-405.923
-381.991
-429.989
-490.4
-468.878
639.108
621.137
590.291
613.025
580.236
539.268
565.777
508.725
460.091
484.182
391.326
344.817
353.456
220.434
192.447
170.705
14.3281
17.5361
-37.8328
-184.851
-154.591
-229.296
-345.467
-302.328
-378.465
-460.93
-416.938
-483.472
-539.006
-500.247
680.09
675.596
633.415
672.723
657.253
597.072
648.908
608.823
529.506
588.646
498.179
412.362
455.748
287.541
233.314
219.564
0.775508
12.3691
-70.791
-261.166
-199.147
-314.294
-442.097
-364.694
-475.584
-552.294
-479.75
-570.962
-611.872
-555.183
726.315
740.851
691.396
745.633
758.577
680.442
761.503
760.048
641.487
753.576
694.07
536.512
652.58
425.922
312.813
315.718
-51.8796
-6.38911
-164.773
-424.969
-290.727
-487.063
-612.897
-476.691
-638.148
-685.316
-581.507
-694.252
-708.721
-633.855
769.431
803.802
757.318
817.382
865.858
785.982
885.18
954.037
806.311
980.172
1053.43
765.391
1060.16
777.69
483.17
646.915
-298.437
-82.9295
-487.859
-788.415
-490.912
-829.579
-877.234
-668.847
-878.509
-862.994
-725.704
-854.289
-824.917
-736.466
800.103
849.634
817.488
869.663
944.684
889.76
976.328
1104.06
1000.94
1163.49
1500.44
1173.27
1402.52
1558.64
1172.04
997.009
-119.295
129.994
-965.451
-1017.2
-797.732
-1405.34
-1233.79
-960.351
-1185.08
-1061.95
-912.546
-1027.76
-941.903
-854.969
811.201
866.484
856.719
888.409
967.107
955.793
998.448
1111.34
1118.99
1179.75
1247.12
1250.2
1564.07
1653.55
1689.57
-2775.43
-2293.67
-1827.75
-1987.55
-1557.22
-1325.15
-1455.73
-1226.85
-1109.18
-1168.93
-1032.42
-968.259
801.581
854.748
865.987
875.152
944.107
964.563
969.553
1050.43
1098.28
1116.65
1149.46
1175.64
1245.29
1247.62
1276.48
-3602.3
-2938.05
-2802.83
-2170.59
-1679.75
-1610.87
-1561.5
-1293.95
-1254.57
-1226.45
-1068.24
-1047.25
774.065
821.427
848.168
839.313
897.951
934.17
918.988
984.309
1033.79
1040.34
1061.93
1081.37
1126.57
1135.42
1149.91
-3152.58
-2705.11
-2852.86
-1948.88
-1570.2
-1671.93
-1472.81
-1242.79
-1291.82
-1182.65
-1038.28
-1066.78
732.135
772.075
810.446
787.261
837.301
884.077
855.649
915.999
967.821
972.483
993.864
1010.04
1062.12
1073.41
1081.58
-2303.7
-2077.97
-2324.46
-1524.76
-1311.85
-1515.41
-1251.99
-1100.59
-1214.06
-1058.44
-952.447
-1021.25
678.635
709.431
757.586
721.341
761.293
819.867
776.52
830.746
897.021
899.314
924.589
942.737
1013.41
1031.66
1041
-1439.7
-1431.86
-1609.68
-1064.34
-1004.27
-1236.08
-981.806
-914.268
-1056.24
-892.722
-833.011
-924.7
616.343
635.782
691.926
643.229
667.853
739.543
677.163
711.304
804.614
796.238
817.921
864.405
929.116
961.368
976.425
-512.31
-593.59
-822.713
-491.09
-650.453
-959.003
-679.591
-724.078
-929.377
-729.128
-727.095
-866.171
-722.741
-703.876
-800.772
549.488
556.445
617.209
558.715
563.964
643.799
564.855
563.26
677.456
645.655
652.724
717.448
741.69
745.999
829.153
251.788
19.5945
-86.7178
-205.498
-383.618
-568.23
-425.334
-511.791
-663.989
-530.606
-566.391
-683.801
-573.065
-582.808
-672.321
481.803
477.508
536.382
475.122
463.554
537.936
457.518
429.526
526.901
416.005
353.917
475.519
325.125
191.599
266.355
137.895
-46.2104
-94.212
-101.601
-242.611
-339.661
-280.57
-368.983
-470.191
-391.235
-441.248
-531.716
-453.278
-478.873
-555.028
417.917
405.099
458.62
399.456
376.922
440.482
367.105
329.074
401.406
313.43
250.122
322.595
225.821
130.989
172.841
96.6352
-23.344
-37.8463
-61.2815
-165.487
-218.666
-195.956
-273.595
-341.715
-295.027
-347.194
-415.346
-360.954
-393.224
-455.938
360.454
342.448
388.468
335.049
307.692
358.021
296.647
257.492
308.852
242.428
186.052
231.318
166.608
94.9
120.319
69.975
-15.6325
-20.6172
-43.1835
-121.776
-152.303
-145.813
-210.155
-255.251
-228.896
-277.123
-327.53
-290.666
-324.52
-374.489
310.319
289.872
328.391
281.821
253.467
292.867
242.559
205.759
243.002
192.076
143.621
173.868
127.888
71.3677
88.1128
52.0569
-12.7227
-14.6388
-33.7377
-94.809
-113.868
-113.971
-166.875
-197.817
-182.834
-225.437
-262.734
-237.894
-270.298
-309.758
267.248
246.214
278.178
238.179
210.818
241.843
200.637
167.328
195.101
155.178
113.879
135.229
100.908
55.0882
66.7524
39.5422
-11.4478
-12.3122
-28.0655
-76.7956
-89.6603
-92.3203
-136.035
-158.217
-149.527
-186.456
-214.678
-197.551
-227.219
-258.616
230.453
209.964
236.516
202.309
176.874
201.612
167.635
137.983
159.267
127.296
92.0881
107.816
81.2155
43.3424
51.8009
30.5205
-10.7224
-11.2372
-24.205
-63.9121
-73.1932
-76.6799
-113.1
-129.689
-124.515
-156.298
-178.209
-166.03
-192.564
-217.874
199.012
179.7
201.888
172.606
149.463
169.479
141.208
115.012
131.725
105.656
75.5559
87.539
66.3246
34.5945
40.9183
23.8496
-10.1506
-10.5732
-21.2896
-54.162
-61.2349
-64.7926
-95.3791
-108.259
-105.067
-132.368
-149.812
-140.84
-164.264
-184.977
172.049
154.235
172.925
147.776
127.005
143.436
119.696
96.6415
110.042
88.4737
62.6605
72.0392
54.7484
27.9168
32.7585
18.8167
-9.58868
-10.0121
-18.9091
-46.4399
-52.0724
-55.3754
-81.2329
-91.5557
-89.4828
-112.933
-127.141
-120.28
-140.803
-158.01
148.803
132.618
148.502
126.81
108.343
122.021
101.904
81.6763
92.6185
74.557
52.3694
59.8751
45.5447
22.7162
26.4962
14.9571
-8.99025
-9.4432
-16.8566
-40.0997
-44.7439
-47.6615
-69.6285
-78.1246
-76.6728
-96.8212
-108.63
-103.178
-121.068
-135.57
128.637
114.102
127.723
108.93
92.63
104.166
86.9795
69.2864
78.364
63.0914
43.9983
50.1181
38.0902
18.5985
21.5976
11.9572
-8.3479
-8.83366
-15.0233
-34.7469
-38.6806
-41.1737
-59.8932
-67.0402
-65.9175
-83.2264
-93.2121
-88.7157
-104.249
-116.629
111.026
98.1008
109.886
93.5344
79.2356
89.0848
74.2967
58.8786
66.5178
53.5007
37.0752
42.1468
31.9547
15.2907
17.7043
9.59862
-7.66865
-8.18114
-13.3488
-30.1281
-33.5311
-35.6013
-51.5723
-57.6947
-56.7249
-71.5783
-80.1502
-76.3068
-89.7426
-100.437
95.5391
84.1525
94.4373
80.1531
67.6884
76.1913
63.394
50.0212
56.5331
45.3693
31.2656
35.5293
26.8332
12.5993
14.5663
7.72527
-6.96393
-7.49441
-11.7983
-26.0744
-29.0671
-30.7342
-44.3492
-49.6738
-48.7497
-61.4654
-68.9197
-65.5247
-77.0952
-86.4315
81.8216
71.8865
80.9411
68.4137
57.627
65.0459
53.9181
42.3907
48.0093
38.3876
26.3243
29.9569
22.5015
10.3824
12.0052
6.22274
-6.24512
-6.78514
-10.3499
-22.4671
-25.1346
-26.4238
-37.9951
-42.6867
-41.7399
-52.5804
-59.1392
-56.0484
-65.9565
-74.1894
69.5776
61.0032
69.0463
58.0178
48.7691
55.3091
45.5941
35.7396
40.6443
32.3203
22.0675
25.202
18.7914
8.53421
9.88922
5.00566
-5.52196
-6.06439
-8.98905
-19.2196
-21.6243
-22.561
-32.3393
-36.5213
-35.5068
-44.6886
-50.5221
-47.6307
-56.0511
-63.381
58.5594
51.2573
58.4688
48.7233
40.8895
46.7153
38.2038
29.8748
34.2063
26.9849
18.354
21.093
15.5736
6.9741
8.11987
4.00916
-4.8021
-5.34144
-7.70473
-16.2661
-18.4559
-19.0626
-27.2503
-31.0184
-29.9045
-37.6062
-42.8485
-40.077
-47.1582
-53.7467
48.5548
42.4436
48.9738
40.329
33.8038
39.0502
31.5691
24.6412
28.5126
22.2353
15.0722
17.4969
12.7462
5.63907
6.62136
3.18291
-4.091
-4.62334
-6.48782
-13.5543
-15.5673
-15.8626
-22.6231
-26.0539
-24.8159
-31.1839
-35.9439
-33.2288
-39.0953
-45.0761
39.3817
34.3892
40.3651
32.6663
27.3592
32.138
25.5433
19.9123
23.4162
17.9529
12.1324
14.3084
10.2269
4.47913
5.33438
2.48732
-3.39231
-3.91507
-5.33028
-11.0414
-12.909
-12.9069
-18.372
-21.5281
-20.1454
-25.299
-29.6667
-26.9552
-31.7102
-37.1949
30.8804
26.9442
32.4762
25.5895
21.4248
25.8325
20.0011
15.5812
18.7961
14.0377
9.45955
11.4419
7.94753
3.45344
4.21152
1.89045
-2.70794
-3.21984
-4.22423
-8.69062
-10.4398
-10.1494
-14.4241
-17.3592
-15.8119
-19.847
-23.8992
-21.1445
-24.8716
-29.9571
22.9108
19.9788
25.1626
18.9728
15.8877
20.0075
14.834
11.5557
14.5496
10.4037
6.98927
8.82537
5.84981
2.52804
3.21386
1.36627
-2.03822
-2.53919
-3.16172
-6.46971
-8.12442
-7.55017
-10.7171
-13.4771
-11.7457
-14.7381
-18.5409
-15.7007
-18.466
-23.2358
15.3494
13.3787
18.2987
12.7047
10.6456
14.5533
9.94368
7.75098
10.5871
6.97153
4.66231
6.3964
3.88059
1.67434
2.30885
0.893983
-1.38089
-1.8729
-2.13337
-4.34872
-5.93124
-5.07252
-7.19519
-9.82129
-7.88511
-9.89329
-13.505
-10.5393
-12.393
-16.9214
8.09614
7.0472
11.7739
6.68912
5.60341
9.36996
5.236
4.08456
6.82471
3.66478
2.41631
4.09588
1.98441
0.872429
1.46943
0.461637
-0.729679
-1.21783
-1.12748
-2.29964
-3.83074
-2.68305
-3.80903
-6.33772
-4.17554
-5.24338
-8.71503
-5.58673
-6.56826
-10.9165
1.41164
1.18642
5.4935
1.11236
0.87361
4.35939
0.786004
0.493399
3.17843
0.396587
0.462753
1.84622
0.412978
-0.0163113
0.684438
-0.0816202
-0.232161
-0.563348
-0.288213
-0.463104
-1.79289
-0.522729
-0.702776
-2.97602
-0.762908
-0.943328
-4.10153
-1.00359
-1.19674
-5.13743
1312.36
1356.38
1342.21
-3579.49
-3981.68
-4168.88
-2251.06
-2627.29
-2451.06
1154.82
1169.35
1158.48
-3775.62
-4137.13
-4006.02
-4207.6
-4281.73
-3844.08
1084.79
1094.88
1082.26
-2980.8
-3189.18
-2986.25
-3952.8
-3782.35
-3533.81
1044.16
1052.16
1033.41
-2031.36
-2090.49
-1966.39
-2859.5
-2728.2
-2623.4
981.219
995.402
967.109
-879.909
-873.07
-825.524
-876.949
-963.333
-955.3
-1349.14
-1383.13
-991.974
-1842.87
-1720.04
-1684.77
854.405
893.729
846.273
185.569
444.037
581.914
-766.869
-614.455
-665.932
57.9419
-14.459
115.682
-594.972
-444.091
-216.385
-869.423
-538.641
-668.406
2073.84
1712.08
1467.18
3800.41
4209.14
4742.49
1138.36
1592.97
1320.16
1109.81
2625.63
-1549.1
-1525.53
-1874.98
-41.9431
-393.275
-879.742
-4502.93
-4674.88
-4776.12
-2560.2
-3042.29
-2873.71
-2744.77
-2417.04
-2974.58
-2048.19
-2274.2
-2453.24
-1799.82
-2051.65
-1872.16
1102.31
1124.96
1096.71
1180.02
1149.88
1114.48
1211.45
1166.22
1196.98
-5234.1
-5364.34
-5345.52
-5459.51
-5457.58
-5314.93
-2902.37
-2933.96
-3593.94
-2400.27
-2684.36
-2667.65
-2581.27
-2657.34
-2369.86
1026.55
1043.75
1022.87
1089.31
1061.74
1037.95
1101.3
1072.91
1098.22
1115.99
1130.35
1116.78
1136.73
1133.01
1127.73
1163.73
1159.35
1164.78
-4019.44
-4076.14
-4026.73
-4746.52
-4704.81
-4622.57
-2413.35
-2628.24
-3054.59
-2211.26
-2419.41
-2292.88
-2613.43
-2528.35
-2295.92
960.714
977.583
955.51
1032.77
997.059
975.206
1028
1006.77
1039.04
1064.05
1070.78
1056.23
1088.84
1082.45
1081.3
1094.2
1091.63
1095.4
-2762.28
-2813.12
-2732.79
-3344.69
-3217.58
-3157.67
878.139
913.312
877.536
972.305
926.809
892.064
964.605
936.931
981.349
1017.09
1028.12
1005.89
1059.25
1047.4
1040.99
1064.2
1061.29
1069.97
-1566.56
-1613.79
-1623.24
-1716.1
-1774.52
-1535.48
-2037.11
-1961
-1935.09
741.457
799.809
762.49
867.711
813.443
752.34
878.623
831.851
885.858
938.412
956.082
920.685
999.766
994.241
993.3
1015.19
1012.94
1018.46
401.119
580.233
616.497
325.42
541.201
379.461
557.813
520.911
365.74
1486.62
1448.12
1549
1237.4
1268.79
1290.18
2130.24
2255.34
2325.31
1614.82
1706.87
1697.3
-5289.86
-5445.6
-5457.33
-4861.79
-4940.94
-4774.32
-3571.15
-3900.5
-3424.47
-4633.42
-4353.06
-4215.27
-4823.53
-4779.7
-5099.89
1180.02
1172.18
1158.91
1193.47
1176.89
1182.12
1171.03
1174.95
1188.78
1186.46
1183.89
1185.44
1186.82
1187.15