/*--------------------------------*- C++ -*----------------------------------*\
| =========                 |                                                 |
| \\      /  F ield         | OpenFOAM: The Open Source CFD Toolbox           |
|  \\    /   O peration     | Version:  v1912                                 |
|   \\  /    A nd           | Website:  www.openfoam.com                      |
|    \\/     M anipulation  |                                                 |
\*---------------------------------------------------------------------------*/
FoamFile
{
    version     2.0;
    format      ascii;
    class       surfaceScalarField;
    location    "700";
    object      phi;
}
// * * * * * * * * * * * * * * * * * * * * * * * * * * * * * * * * * * * * * //

dimensions      [0 3 -1 0 0 0 0];
oriented        oriented;


internalField   nonuniform List<scalar> 
25162
(
0.000432994
0.916217
0.000532033
0.916601
0.000620545
0.916561
0.000298536
0.916595
0.000376772
0.458339
0.000309762
0.458311
0.000376102
-0.000387312
-0.00047473
0.458291
0.000534016
-0.000592899
0.458239
0.000688513
-0.000791688
0.458219
0.000902526
-0.00102947
0.4582
0.00116494
-0.00129979
0.458202
0.00143244
-0.00156069
0.458232
0.00166015
-0.00173553
0.458292
0.00177692
-0.0017787
0.458369
0.00174506
-0.00168018
0.458426
0.00158465
-0.00147639
0.458454
0.00135749
-0.00122442
0.458456
0.00110313
-0.000982151
0.458464
0.000832858
-0.000786066
0.458435
0.000700637
-0.000578012
0.458451
0.000476687
-0.00179839
0.918585
0.000281872
-0.000418971
-0.00112458
0.918676
-2.50417e-05
0.91575
0.913775
0.00119518
0.915022
0.00188734
0.915909
0.00212998
0.916319
0.000593964
0.917138
0.000993424
0.458091
0.000707051
-0.458204
-0.458193
-0.000860521
0.458
0.00105364
-0.458062
-0.00129334
0.45777
0.00074483
0.00084023
-0.228982
-0.000897738
0.228895
0.000984762
-0.00130016
-0.22893
0.228816
0.00141424
-0.00180901
-0.228887
0.228741
0.00195556
-0.00240202
-0.228882
0.228724
0.00255945
-0.00297552
-0.22893
0.228794
0.00311108
-0.00338768
-0.229045
0.228976
0.00345667
-0.00350025
-0.229194
0.229208
0.00348624
-0.00328236
-0.229312
0.229398
0.0031969
-0.00283517
-0.22938
0.229506
0.00271008
-0.00229218
-0.22939
0.229523
0.00215988
-0.00176904
-0.22937
0.229483
0.0016569
-0.458794
-0.0024506
0.460126
0.00111856
0.000103725
0.460813
-0.00171638
-0.4592
-0.00195917
0.917899
0.000745745
0.00189948
-0.00118943
0.917906
0.000264294
0.914297
0.914039
0.00151812
0.913504
0.00405743
0.913369
0.00684292
0.913533
0.002789
0.914956
0.00623618
-0.458066
0.457912
0.00294299
-0.457837
-0.00290298
0.458512
0.00222798
-0.457377
-0.00227843
0.457188
0.00119749
0.00127026
-0.228525
-0.00148107
0.228364
0.00164182
-0.228311
-0.00222007
0.228085
0.00244566
-0.22812
-0.00321516
0.22784
0.00349508
-0.228056
-0.00441236
0.227741
0.00472716
-0.22824
-0.00563201
0.227978
0.00589418
-0.228721
-0.00651393
0.228596
0.00663921
-0.229343
-0.00675089
0.229406
0.00668803
-0.229863
-0.00627757
0.230067
0.00607315
-0.230124
-0.00532911
0.230405
0.00504859
-0.230149
-0.00420858
0.230429
0.003929
-0.0028654
-0.23008
0.230697
0.00224903
-0.462618
0.000974289
0.461279
0.000364859
-0.459814
-0.000649556
0.459684
0.000779434
-0.00031928
0.919382
-0.000744759
-0.000418852
0.00134394
0.916243
0.000630442
0.91501
0.91467
0.000527134
0.912977
0.00114292
0.912754
0.00233797
0.912338
0.00313019
0.912057
0.00210591
-0.457177
0.456764
0.00354276
-0.460088
-0.00472202
0.457078
0.00773182
-0.458708
-0.00894348
0.460317
0.00198286
0.00535162
-0.227774
-0.00193131
0.227593
0.00211221
-0.227258
-0.00292665
0.226932
0.00325224
-0.226753
-0.00441222
0.226309
0.00485578
-0.226515
-0.00631543
0.225988
0.00684293
-0.226872
-0.00844584
0.226372
0.00894609
-0.228054
-0.0101528
0.227803
0.0104039
-0.229664
-0.0105909
0.229794
0.0104611
-0.230935
-0.00962175
0.231324
0.00923315
-0.231497
-0.00788885
0.23199
0.00739622
-0.233803
-0.00119362
0.237678
-0.00268145
-0.00281111
-0.231371
0.231308
0.00287424
-0.461066
-0.00436903
0.462047
0.00338804
-0.460268
-0.00236884
0.461098
0.00153813
0.00243732
0.919036
-0.00114886
-0.000941939
0.00177737
0.916903
0.000826161
0.915961
0.915496
0.000157997
0.912819
0.000362054
0.91255
0.000707922
0.911992
0.00127024
0.911032
0.000462969
-0.456513
0.455739
0.00204343
-0.455692
-0.00243583
0.455104
0.00302399
-0.454286
-0.00383248
0.453578
0.00240754
0.00213251
-0.228302
-0.00420515
0.226464
0.0060424
-0.22658
-0.00919821
0.228367
0.00741186
-0.22476
-0.00522484
0.224237
0.00574819
-0.223965
-0.00789745
0.223118
0.00874442
-0.224276
-0.0115544
0.223311
0.0125197
-0.226725
-0.0149617
0.226213
0.0154745
-0.23041
-0.0156965
0.230905
0.0152019
-0.23297
-0.0121284
0.233891
0.0112066
-0.241298
-0.00116853
0.238036
0.00443043
-0.233198
-0.00650579
0.233724
0.00597965
-0.00440273
-0.232451
0.232898
0.00395539
-0.463461
-0.00516068
0.464793
0.00382825
-0.461861
-0.00290948
0.462645
0.00212607
0.00322113
0.920572
-0.00275399
-0.00200383
0.00178574
0.918339
0.000815628
0.916932
0.916311
-9.45645e-05
0.912913
-9.75919e-05
0.912553
0.00012923
0.911766
0.000285647
0.910592
0.000284093
-0.454875
0.454589
0.000570768
-0.454634
-0.00150902
0.453902
0.00224106
-0.452831
-0.00274545
0.451877
0.00181839
0.00188069
-0.22529
-0.00229097
0.225043
0.00253814
-0.223675
-0.00359304
0.223217
0.00405119
-0.223882
-0.00782566
0.221579
0.0101283
-0.221596
-0.0141681
0.222234
0.0135309
-0.219653
-0.0169675
0.219341
0.0172792
-0.223882
-0.022363
0.22284
0.0234048
-0.234655
-0.0205616
0.235103
0.0201142
-0.24357
-0.0103154
0.241369
0.0125165
-0.236952
-0.0117697
0.238106
0.0106159
-0.235855
-0.0076013
0.236761
0.00669556
-0.00400726
-0.234679
0.235158
0.00352822
-0.465923
-0.00546756
0.467072
0.00431816
-0.463043
-0.00348635
0.463403
0.00312627
0.00272474
0.922477
-0.00226556
-0.00236416
0.00151183
0.919551
0.000624817
0.917819
0.916936
-0.000475339
0.913388
-0.000824634
0.912902
-0.00102929
0.91197
2.2132e-05
0.910247
-0.000706615
-0.45446
0.454172
0.00030992
-0.452882
-0.000534225
0.452532
0.000884125
-0.451547
-0.00182727
0.451174
0.00104995
0.00115071
-0.224251
-0.00141574
0.224038
0.00162943
-0.222166
-0.00251248
0.22174
0.00293828
-0.218821
-0.00420641
0.218271
0.00475582
-0.21538
-0.00800334
0.213195
0.0101883
-0.213849
-0.0230124
0.108965
0.103503
0.0101643
0.0142297
-0.0179763
-0.108768
0.108148
0.0185963
-0.0149177
-0.244147
0.0286528
-0.0151866
0.122361
0.123237
-0.0217749
-0.244033
0.24685
0.0189579
-0.242663
-0.0117919
0.244163
0.0102925
-0.239381
-0.00741969
0.24026
0.00654016
-0.00438355
-0.236598
0.237171
0.00381052
-0.468228
-0.00481194
0.468871
0.00416885
-0.464219
-0.00314821
0.465037
0.00233019
0.00165937
0.923915
-0.00144521
-0.00165194
0.000789602
0.920421
0.000298954
0.918309
0.917235
-0.000869169
0.914258
-0.00168587
0.913719
-0.00230814
0.912593
-0.00116468
0.910805
-0.00170212
-0.454131
0.454135
-0.00116899
-0.452378
0.00121614
0.452279
-0.00111774
-0.449897
0.000958546
0.449614
-0.000291945
-0.00038412
-0.22355
-0.000280572
0.22345
0.000380749
-0.220951
-0.000557673
0.221032
0.000476015
-0.217114
-0.000781568
0.21687
0.00102608
-0.210492
-0.00190576
0.210248
0.00214915
-0.0987634
-0.00168322
0.0989814
0.00146518
-0.0233134
-0.132542
0.134982
0.0208731
-0.0214104
-0.256482
0.259772
0.0181206
-0.248913
-0.0113356
0.250489
0.00975969
-0.243209
-0.00631609
0.244086
0.00543913
-0.00339224
-0.23883
0.239299
0.00292359
-0.469915
-0.00311789
0.470782
0.0022507
-0.465707
-0.00163089
0.466289
0.0010484
-0.000115035
0.924634
-5.97285e-05
-0.000544431
-0.000292131
0.920598
-0.000193232
0.91821
0.917042
-0.00125301
0.915511
-0.00243192
0.914898
-0.0036747
0.913835
-0.00212009
0.911888
-0.00263709
-0.454312
0.454488
-0.00229662
-0.452347
0.00249597
0.452533
-0.0026815
-0.449499
0.00284806
0.449649
-0.00139787
-0.00160045
-0.223633
0.00165811
0.223669
-0.00169381
-0.220929
0.00184261
0.220987
-0.00190056
-0.216812
0.00215591
0.216951
-0.00229454
-0.21101
0.00304249
0.211466
-0.00349843
-0.102502
0.00302376
0.102886
-0.00340843
-0.0105656
-0.147841
0.148629
0.00977746
-0.0100666
-0.267587
0.26912
0.00853313
-0.254333
-0.00515022
0.255133
0.00435104
-0.245945
-0.0025233
0.246314
0.00215514
-0.00122565
-0.240373
0.240613
0.00098504
-0.471927
-0.000624702
0.472893
-0.000341042
-0.466591
0.000796269
0.466791
-0.000996765
-0.00229061
0.924214
0.00155494
0.00115607
-0.00164001
0.919948
-0.000858219
0.917429
0.916184
-0.00159955
0.91711
-0.0033047
0.916603
-0.00493165
0.915462
-0.00306573
0.913606
-0.00358363
-0.454846
0.455204
-0.00342331
-0.45279
0.00382908
0.453261
-0.00429975
-0.449961
0.00473833
0.450526
-0.00247885
-0.00282501
-0.223961
0.00294715
0.224104
-0.00308978
-0.221396
0.00360804
0.221599
-0.00381126
-0.217627
0.00452158
0.217916
-0.00481095
-0.212833
0.00586619
0.213254
-0.00628762
-0.104258
0.00378119
0.104365
-0.00193562
-0.00195256
0.0055459
-0.14802
0.147294
-0.00482003
0.00515277
-0.270029
0.269236
-0.00435939
-0.255796
0.0029451
0.255525
-0.00267421
-0.246785
0.00212203
0.246656
-0.00199282
0.00166296
-0.240832
0.240763
-0.00159383
-0.472925
0.0031334
0.472532
-0.00274078
-0.466663
0.00269516
0.467074
-0.00310628
-0.0047168
0.922601
0.00342733
0.00290227
-0.00311007
0.918341
-0.00158055
0.915899
0.914603
-0.00203297
0.919143
-0.00404842
0.918618
-0.00618839
0.917602
-0.0039806
0.915872
-0.00447374
-0.455737
0.456267
-0.00451126
-0.453795
0.00515867
0.454381
-0.00574492
-0.451435
0.00642768
0.452577
-0.00369561
-0.00387395
-0.224684
0.00409198
0.224917
-0.00432518
-0.222357
0.00512292
0.222653
-0.00541904
-0.2189
0.00641834
0.219266
-0.00678411
-0.214434
0.00794459
0.214817
-0.00832741
-0.104956
0.00459669
0.105009
-0.0023138
-0.00233611
0.0148778
-0.140232
0.139066
-0.0137121
0.0168671
-0.264508
0.262321
-0.0146803
-0.253352
0.00999518
0.25227
-0.00891287
-0.245578
0.00654634
0.244941
-0.00590888
0.00452048
-0.240067
0.239758
-0.00421118
-0.471829
0.00675922
0.470851
-0.00578179
-0.467365
0.00490928
0.466578
-0.004122
-0.0069737
0.920003
0.00494735
0.00462477
-0.00454589
0.915913
-0.0022383
0.913591
0.912365
-0.0024293
0.921572
-0.00486707
0.921056
-0.00742311
0.920158
-0.00480169
0.918456
-0.00520557
-0.456954
0.457638
-0.00548623
-0.455163
0.00624829
0.455981
-0.00706565
-0.45369
0.00795029
0.45496
-0.00453562
-0.00468488
-0.225721
0.00505646
0.226023
-0.00535807
-0.223664
0.00635863
0.224041
-0.00673631
-0.220488
0.00797332
0.220942
-0.00842666
-0.216061
0.00985952
0.216537
-0.0103355
-0.105359
0.0057103
0.105422
-0.00286871
-0.00290421
0.0184221
-0.131013
0.129839
-0.0172486
0.0226898
-0.255248
0.252854
-0.0202963
-0.248432
0.0145906
0.247017
-0.0131762
-0.242442
0.00977677
0.241408
-0.00874276
0.00674399
-0.238164
0.237545
-0.00612484
-0.469641
0.00981998
0.468205
-0.00838352
-0.465727
0.00713107
0.464666
-0.00607075
-0.00902317
0.918101
0.00571011
0.00521452
-0.00580831
0.912698
-0.00281722
0.9106
0.909548
-0.00646271
0.928035
-0.0130874
0.927681
-0.0197902
0.926861
-0.00572713
0.925562
-0.0211692
-0.458399
0.459268
-0.00659648
-0.456826
0.00750074
0.457848
-0.00852245
-0.456164
0.00951914
0.457035
-0.00515059
-0.00523979
-0.226994
0.00579702
0.227334
-0.00613667
-0.225258
0.00729026
0.225691
-0.00772302
-0.222443
0.00918812
0.222989
-0.00973438
-0.218275
0.0115855
0.218972
-0.00610409
-0.00617766
-0.053141
0.00355464
0.0531727
-0.00358632
-0.05792
0.00664876
0.0574341
-0.0129696
0.00680676
0.017103
-0.122736
0.242178
-0.0307144
0.0168391
-0.122669
-0.246144
0.0233458
0.243728
-0.0209302
-0.242237
0.0161085
0.240763
-0.0146343
-0.238608
0.0112533
0.237682
-0.0103274
0.00802252
-0.235539
0.234896
-0.0073796
-0.466451
0.0119003
0.464693
-0.010143
-0.463562
0.008843
0.462361
-0.00764251
-0.010642
0.915016
0.00713239
0.00659531
-0.00684451
0.908901
-0.00336925
0.907125
0.906178
-0.00289792
0.930933
-0.00587541
0.930658
-0.00901179
0.929998
-0.00612695
0.928971
-0.00629408
-0.46206
0.46296
-0.0070272
-0.460669
0.00800986
0.461724
-0.00906429
-0.458879
0.0102096
0.460138
-0.00569702
-0.00577093
-0.228469
0.0063765
0.228842
-0.00675025
-0.227124
0.00800131
0.227597
-0.00847403
-0.224913
0.0101071
0.225545
-0.0107385
-0.221879
0.0130161
0.222824
-0.00695572
-0.00700553
-0.0546509
0.00887248
0.109694
-0.0545685
-0.00464588
-0.0047013
-0.111508
0.00933341
0.111457
-0.0183821
0.00909995
0.0306058
-0.235898
0.234061
-0.0287697
-0.237717
0.0194891
0.236444
-0.018216
-0.237394
0.0149739
0.236836
-0.0144156
-0.235167
0.0112118
0.234535
-0.0105806
0.00835873
-0.233052
0.232492
-0.00779858
-0.463192
0.0126658
0.461891
-0.0113655
-0.461145
0.0100912
0.459688
-0.0086336
-0.0100218
0.911149
0.00688323
0.00700548
-0.00750095
0.90638
-0.00366845
0.903293
0.90251
-0.00304515
0.933978
-0.00617133
0.933784
-0.00945485
0.933281
-0.00645339
0.932518
-0.00654865
-0.463919
0.464873
-0.00740775
-0.462804
0.0084338
0.463898
-0.00952719
-0.461415
0.0107071
0.462701
-0.00598099
-0.00601194
-0.229984
0.00668713
0.230366
-0.00706824
-0.229029
0.0083287
0.229498
-0.00879764
-0.227475
0.0104301
0.228104
-0.0110592
-0.225756
0.0133124
0.226669
-0.0142253
-0.112741
0.0175913
0.223819
-0.0168761
-0.111794
-0.225712
0.0228569
0.226291
-0.0234368
-0.230675
0.0229301
0.230038
-0.0222936
-0.232695
0.0197304
0.23175
-0.0187859
-0.23269
0.0159797
0.231799
-0.0150886
-0.231735
0.0126191
0.230985
-0.0118693
0.0098394
-0.232117
0.22988
-0.00760199
-0.460781
0.0143605
0.458004
-0.0115837
-0.458186
0.0104096
0.45644
-0.00866366
-0.0103778
0.907381
0.00713729
0.00700792
-0.0075362
0.903538
-0.00386348
0.89962
0.898647
-0.00311677
0.937095
-0.0063097
0.936977
-0.00964692
0.936618
-0.00659705
0.936096
-0.00662772
-0.465847
0.466815
-0.00756568
-0.464992
0.00859298
0.466078
-0.00967819
-0.463977
0.010839
0.465228
-0.00604842
-0.00604124
-0.231489
0.00673493
0.231852
-0.00709816
-0.230849
0.00828003
0.231277
-0.00870805
-0.229866
0.0101325
0.230399
-0.0106657
-0.228957
0.0124224
0.229585
-0.0130503
-0.221722
0.014714
0.221148
-0.01414
-0.227587
0.0174295
0.227904
-0.0177467
-0.228866
0.0177666
0.228626
-0.0175261
-0.229613
0.0162792
0.229081
-0.0157475
-0.22957
0.0139834
0.228958
-0.0133713
-0.228998
0.0115613
0.228418
-0.0109813
0.00934303
-0.228209
0.2277
-0.00883442
-0.457593
0.0148064
0.455204
-0.0124167
-0.453842
0.00929269
0.452529
-0.00798
-0.00958455
0.902132
0.00767492
0.00715868
-0.00512398
0.899078
-0.00392005
0.898416
0.894727
-0.00311903
0.940214
-0.0063052
0.940163
-0.00961509
0.939928
-0.0065769
0.939608
-0.0065501
-0.467771
0.468722
-0.00752877
-0.467143
0.00852312
0.468182
-0.00956191
-0.466441
0.0106598
0.467606
-0.00592946
-0.00589578
-0.232894
0.00656491
0.233222
-0.00689326
-0.232473
0.00793501
0.23284
-0.00830154
-0.231805
0.00946443
0.232213
-0.00987225
-0.23116
0.0111345
0.231597
-0.0115712
-0.219878
0.0122833
0.219591
-0.0119964
-0.228604
0.0140805
0.228774
-0.01425
-0.228135
0.0143071
0.228021
-0.0141926
-0.227849
0.0135066
0.227531
-0.0131882
-0.227443
0.0120578
0.227027
-0.0116423
-0.226906
0.0103479
0.22647
-0.00991286
0.00863604
-0.226335
0.225921
-0.00822195
-0.451808
0.0139817
0.450357
-0.0125308
-0.451204
0.0111418
0.449867
-0.00980499
-0.00881868
0.895967
0.00839688
0.00658701
-0.00475461
0.895014
-0.00356731
0.897229
0.891159
-0.00306279
0.943277
-0.00618094
0.943282
-0.00939736
0.943145
-0.00642038
0.94298
-0.00634909
-0.469635
0.470546
-0.00733211
-0.469187
0.00826981
0.470154
-0.00923739
-0.468718
0.0102462
0.469771
-0.00567645
-0.00562295
-0.234145
0.00624452
0.234431
-0.00653094
-0.233841
0.00741511
0.234142
-0.00771667
-0.233278
0.00863544
0.233586
-0.00894348
-0.232698
0.0098629
0.233005
-0.0101707
-0.219061
0.0104011
0.218977
-0.0103165
-0.229151
0.0117247
0.229243
-0.0118168
-0.227758
0.0118437
0.227688
-0.0117742
-0.226766
0.0113459
0.22656
-0.0111401
-0.225986
0.0103798
0.225696
-0.0100895
-0.225338
0.00915065
0.225012
-0.00882375
0.00783142
-0.224821
0.224488
-0.00749797
-0.449013
0.0129173
0.447771
-0.0116756
-0.448622
0.0104603
0.447429
-0.00926678
-0.0117564
0.891714
0.00791607
0.00809346
-0.00772055
0.890978
-0.000987069
0.890495
0.890172
-0.00295968
0.946237
-0.00596181
0.946284
-0.00903549
0.946218
-0.00616047
0.946163
-0.00605737
-0.4714
0.472256
-0.00701672
-0.47108
0.0078841
0.471964
-0.00876785
-0.470764
0.00967652
0.471697
-0.0053384
-0.00527109
-0.235227
0.00583581
0.235472
-0.00608084
-0.234958
0.00681837
0.235203
-0.00706304
-0.234393
0.00778521
0.234628
-0.00802005
-0.233787
0.00870591
0.234007
-0.00892567
-0.21893
0.00892299
0.218969
-0.00896264
-0.229447
0.00994593
0.229497
-0.00999499
-0.227512
0.00999162
0.227461
-0.0099406
-0.226047
0.00964215
0.225904
-0.00949867
-0.224956
0.00895881
0.224745
-0.0087482
-0.224155
0.00804934
0.223905
-0.00779975
0.00702203
-0.223605
0.223336
-0.00675318
-0.446626
0.011761
0.445573
-0.0107077
-0.446329
0.00965668
0.445278
-0.00860583
-0.0110211
0.88784
0.00734437
0.00755073
-0.00727286
0.88723
-0.00360993
0.886832
0.886562
-0.00282201
0.949059
-0.00567385
0.949136
-0.00857202
0.949116
-0.00582956
0.949126
-0.00570611
-0.473042
0.473835
-0.00662202
-0.472803
0.00741349
0.473599
-0.00821015
-0.472571
0.00901842
0.473388
-0.0049538
-0.00488172
-0.236149
0.0053845
0.236357
-0.00559227
-0.235864
0.00620411
0.236062
-0.00640237
-0.235248
0.00697408
0.23543
-0.00715639
-0.234566
0.00768045
0.234723
-0.00783778
-0.219207
0.00773108
0.219317
-0.00784084
-0.229602
0.00854013
0.229626
-0.00856396
-0.227323
0.00853852
0.227281
-0.00849639
-0.225534
0.00827
0.225427
-0.00816327
-0.224198
0.00776041
0.224039
-0.00760165
-0.223245
0.0070664
0.223051
-0.00687188
0.00625374
-0.222625
0.222406
-0.00603528
-0.444604
0.0106065
0.443712
-0.00971454
-0.444316
0.00880974
0.443397
-0.00789081
-0.0101934
0.884348
0.00673391
0.00695119
-0.00675663
0.883793
-0.00336302
0.883439
0.883199
-0.00266158
0.95172
-0.00534159
0.951816
-0.00804578
0.951821
-0.00545675
0.951859
-0.00532187
-0.474551
0.475277
-0.00618266
-0.474352
0.00689841
0.475064
-0.00761079
-0.474151
0.00832479
0.474863
-0.00455399
-0.00448261
-0.23693
0.00492531
0.237106
-0.00510119
-0.236599
0.00560956
0.236761
-0.0057712
-0.235916
0.00622979
0.236061
-0.00637433
-0.235123
0.00678301
0.235234
-0.00689489
-0.219708
0.00675139
0.219853
-0.00689667
-0.229672
0.00739921
0.22968
-0.00740754
-0.227163
0.0073673
0.227126
-0.00733019
-0.225145
0.0071475
0.225061
-0.00706385
-0.223619
0.00675012
0.223496
-0.00662622
-0.222531
0.00620475
0.222376
-0.00604984
0.00555038
-0.221827
0.221647
-0.00537084
-0.44289
0.0095089
0.442133
-0.00875128
-0.44256
0.00797231
0.441758
-0.00717061
-0.00933401
0.881222
0.00612183
0.00633821
-0.00621101
0.88067
-0.0030989
0.880327
0.8801
-0.00248812
0.954208
-0.00498491
0.954312
-0.00748754
0.954323
-0.00506342
0.954361
-0.00492586
-0.475925
0.476585
-0.00572349
-0.475736
0.00636698
0.47637
-0.00700099
-0.475527
0.00762957
0.476146
-0.00415829
-0.0040903
-0.237591
0.00447824
0.23774
-0.00462741
-0.237201
0.00505201
0.237334
-0.00518502
-0.236451
0.0055585
0.236568
-0.00567548
-0.235517
0.00599902
0.235595
-0.00607752
-0.220315
0.00593157
0.220475
-0.0060912
-0.229689
0.00645384
0.229687
-0.00645232
-0.22702
0.00640253
0.226986
-0.00636874
-0.224835
0.00621485
0.224767
-0.00614658
-0.223163
0.0058936
0.223063
-0.00579401
-0.221957
0.00545388
0.221831
-0.005328
0.00491786
-0.221169
0.22102
-0.00476854
-0.441433
0.00849256
0.440787
-0.00784585
-0.441029
0.0071736
0.440329
-0.00647412
-0.00848414
0.878435
0.00553284
0.00573869
-0.00566425
0.87785
-0.00283202
0.877494
0.877268
-0.00231043
0.956519
-0.00462159
0.956623
-0.00692413
0.956626
-0.00466938
0.95664
-0.00453401
-0.477169
0.477766
-0.0052669
-0.476966
0.00584372
0.47753
-0.006407
-0.476723
0.00696014
0.477262
-0.00378154
-0.00371757
-0.238153
0.00405786
0.23828
-0.00418497
-0.237698
0.00454232
0.237808
-0.00465305
-0.236886
0.00496217
0.236983
-0.00505863
-0.235792
0.00531768
0.235846
-0.00537168
-0.22096
0.00523984
0.221121
-0.00540141
-0.229672
0.00566286
0.229664
-0.00565489
-0.226889
0.00559917
0.226857
-0.00556784
-0.224579
0.00543426
0.224522
-0.00537679
-0.222792
0.00516691
0.22271
-0.00508481
-0.221488
0.00480432
0.221384
-0.00470011
0.00435809
-0.22062
0.220494
-0.00423238
-0.440188
0.00757243
0.439632
-0.00701686
-0.439693
0.00643426
0.439081
-0.00582266
-0.00767387
0.875954
0.00498187
0.00517317
-0.0051376
0.875314
-0.00257331
0.87493
0.874695
-0.00213486
0.958654
-0.00426425
0.958753
-0.00637415
0.958736
-0.00428699
0.958711
-0.00415769
-0.478291
0.47883
-0.00482646
-0.478059
0.00534295
0.47856
-0.0058434
-0.477765
0.00633078
0.478236
-0.00343094
-0.00337036
-0.238632
0.00367046
0.238741
-0.00377943
-0.238113
0.00408281
0.238206
-0.00417613
-0.237247
0.00443599
0.237328
-0.00451674
-0.235979
0.00472594
0.236015
-0.00476196
-0.2216
0.00465129
0.221756
-0.00480785
-0.229633
0.00499503
0.229621
-0.00498273
-0.226766
0.00492351
0.226737
-0.00489417
-0.224362
0.00477575
0.224313
-0.00472623
-0.222485
0.00454811
0.222416
-0.00447901
-0.221097
0.00424339
0.22101
-0.00415573
0.00386654
-0.220157
0.220049
-0.00375952
-0.439116
0.00674962
0.438635
-0.00626914
-0.438525
0.00576179
0.437989
-0.00522537
-0.00692004
0.873745
0.00447699
0.00465129
-0.00464365
0.873037
-0.00232943
0.872616
0.872366
-0.00196636
0.96062
-0.00392259
0.960709
-0.00585155
0.960665
-0.00392523
0.960589
-0.00380499
-0.479302
0.479788
-0.00441178
-0.479031
0.00487443
0.479476
-0.00531971
-0.478676
0.00575022
0.479088
-0.00310878
-0.00305377
-0.239044
0.00331726
0.239138
-0.00341127
-0.238465
0.00367115
0.238544
-0.00375074
-0.237551
0.00397218
0.237619
-0.00404056
-0.236102
0.00421063
0.236125
-0.00423351
-0.222214
0.00414602
0.222362
-0.00429388
-0.229579
0.00442589
0.229564
-0.00441065
-0.226652
0.00434958
0.226624
-0.00432196
-0.224174
0.0042154
0.22413
-0.00417198
-0.222224
0.00401813
0.222165
-0.00395898
-0.220767
0.003758
0.220692
-0.00368324
0.00343582
-0.219761
0.219669
-0.00334381
-0.438188
0.00602119
0.437769
-0.00560286
-0.4375
0.00515869
0.437028
-0.00468642
-0.00623242
0.871778
0.00402213
0.00417804
-0.00419018
0.870995
-0.00210464
0.87053
0.870261
-0.00180803
0.962428
-0.00360255
0.962504
-0.00536449
0.962427
-0.00358986
0.962294
-0.00347942
-0.480212
0.480651
-0.00402882
-0.479896
0.00444393
0.480293
-0.00484114
-0.479475
0.00522277
0.479838
-0.00281689
-0.00276887
-0.2394
0.00299924
0.239482
-0.00308091
-0.238766
0.0033056
0.238835
-0.00337431
-0.237809
0.00356526
0.237867
-0.00362374
-0.236178
0.00376278
0.236192
-0.00377613
-0.22279
0.00371122
0.222928
-0.00384874
-0.229515
0.00393945
0.229498
-0.00392218
-0.226544
0.00386035
0.226517
-0.00383425
-0.224008
0.0037373
0.223969
-0.0036987
-0.222
0.00356389
0.221948
-0.00351253
-0.220484
0.00333884
0.22042
-0.00327431
0.00306037
-0.219419
0.21934
-0.00298055
-0.437378
0.0053816
0.437011
-0.00501491
-0.436597
0.00462388
0.436179
-0.00420626
-0.00561389
0.87002
0.00361639
0.00375484
-0.00378018
0.869161
-0.00190074
0.868651
0.86836
-0.00166251
0.96409
-0.00330913
0.96415
-0.00491979
0.964037
-0.00328438
0.963844
-0.00318505
-0.481033
0.48143
-0.00368103
-0.480668
0.00405453
0.481023
-0.00441014
-0.480179
0.00474994
0.480501
-0.00255688
-0.00251435
-0.23971
0.00271731
0.239782
-0.00278882
-0.239027
0.00298509
0.239087
-0.0030451
-0.23803
0.00321158
0.238081
-0.00326208
-0.236221
0.00337639
0.236227
-0.00338291
-0.223324
0.00333869
0.223451
-0.00346549
-0.229444
0.00352514
0.229425
-0.00350647
-0.226441
0.00344457
0.226416
-0.00341981
-0.223859
0.00333077
0.223825
-0.00329606
-0.221804
0.00317644
0.221759
-0.00313129
-0.220239
0.00297934
0.220183
-0.00292301
0.00273612
-0.219122
0.219053
-0.00266625
-0.436667
0.00482435
0.436343
-0.00450072
-0.435797
0.00415441
0.435426
-0.00378326
-0.00506592
0.868445
0.0032599
0.00338099
-0.0034155
0.867511
-0.00171892
0.866954
0.866641
-0.00153111
0.965622
-0.00304471
0.965664
-0.00452038
0.965513
-0.00301054
0.965257
-0.00292272
-0.481776
0.482136
-0.00336994
-0.48136
0.00370732
0.48168
-0.00402718
-0.480804
0.00433136
0.48109
-0.00232789
-0.0022896
-0.239983
0.00246996
0.240046
-0.00253313
-0.239256
0.00270636
0.239309
-0.00275937
-0.238222
0.00290603
0.238266
-0.00295002
-0.236239
0.00304453
0.236241
-0.00304623
-0.223816
0.00302032
0.223932
-0.0031367
-0.229368
0.00317292
0.229348
-0.00315328
-0.226344
0.00309172
0.22632
-0.00306815
-0.223725
0.00298571
0.223694
-0.00295417
-0.221631
0.00284684
0.221591
-0.00280669
-0.220024
0.00267227
0.219974
-0.00262258
0.00245771
-0.218862
0.2188
-0.00239601
-0.436038
0.00434263
0.435751
-0.00405494
-0.435086
0.00374625
0.434754
-0.00341454
-0.00458632
0.867027
0.00294987
0.00305448
-0.00309533
0.86602
-0.00155898
0.865418
0.865082
-0.00141462
0.967036
-0.00281068
0.96706
-0.00416781
0.96687
-0.00276899
0.96655
-0.00269277
-0.48245
0.482777
-0.00309592
-0.481983
0.00340224
0.482272
-0.00369159
-0.48136
0.00396561
0.481617
-0.00212768
-0.00209459
-0.240225
0.00225437
0.240281
-0.00231069
-0.239459
0.00246515
0.239507
-0.00251246
-0.23839
0.00264291
0.238428
-0.00268154
-0.23624
0.00276015
0.236239
-0.00275852
-0.224266
0.00274846
0.224373
-0.00285503
-0.229288
0.00287356
0.229268
-0.00285325
-0.226251
0.00279228
0.226229
-0.00276978
-0.223603
0.00269292
0.223574
-0.002664
-0.221477
0.00256673
0.221441
-0.00253065
-0.219834
0.00241052
0.219789
-0.00236624
0.00221943
-0.21863
0.218575
-0.00216448
-0.435479
0.00392997
0.435221
-0.00367226
-0.434449
0.00339512
0.434151
-0.00309671
-0.00417211
0.865743
0.00268362
0.00277271
-0.00281816
0.864666
-0.00142031
0.86402
0.863662
-0.00131347
0.96835
-0.00260771
0.968354
-0.00386263
0.968125
-0.0025599
0.967743
-0.0024949
-0.483066
0.483365
-0.00285894
-0.482548
0.00313884
0.482811
-0.00340244
-0.481861
0.00365117
0.482093
-0.00195551
-0.00192781
-0.240441
0.00206941
0.240491
-0.00212012
-0.239641
0.00225936
0.239684
-0.00230204
-0.238537
0.00241923
0.238571
-0.00245347
-0.23623
0.00251932
0.236226
-0.00251548
-0.224679
0.00251891
0.224776
-0.00261648
-0.229206
0.00262168
0.229185
-0.00260095
-0.226163
0.00254068
0.226141
-0.0025191
-0.223491
0.00244693
0.223464
-0.00242017
-0.221338
0.00233115
0.221305
-0.00229839
-0.219663
0.00218987
0.219624
-0.00215
0.00201796
-0.218424
0.218374
-0.00196858
-0.434976
0.00358089
0.434743
-0.00334802
-0.433875
0.00309718
0.433604
-0.00282667
-0.00381998
0.864572
0.00245833
0.00253316
-0.00258213
0.863428
-0.00130209
0.86274
0.86236
-0.00122758
0.969577
-0.00243548
0.969562
-0.00360409
0.969294
-0.00238202
0.968849
-0.00232869
-0.483631
0.483906
-0.00265722
-0.483063
0.0029149
0.483305
-0.00315695
-0.482315
0.00338465
0.482527
-0.00180959
-0.00178698
-0.240636
0.0019129
0.240682
-0.00195906
-0.239806
0.00208599
0.239845
-0.00212491
-0.238669
0.00223126
0.238699
-0.00226189
-0.236213
0.00231755
0.236207
-0.00231234
-0.225056
0.0023271
0.225146
-0.00241653
-0.229123
0.00241178
0.229102
-0.00239079
-0.226078
0.00233125
0.226057
-0.00231048
-0.223387
0.00224222
0.223362
-0.00221725
-0.221211
0.00213496
0.221181
-0.0021049
-0.21951
0.00200581
0.219473
-0.00196952
0.0018495
-0.218237
0.218192
-0.00180469
-0.434521
0.00328895
0.434309
-0.00307657
-0.433353
0.00284748
0.433106
-0.00260018
-0.00352593
0.863494
0.00227153
0.00233236
-0.00238478
0.862287
-0.00120318
0.861558
0.861157
-0.00115688
0.970734
-0.00229391
0.970699
-0.00339164
0.970391
-0.00223528
0.969886
-0.00219302
-0.484153
0.484409
-0.00249087
-0.483538
0.00273028
0.483762
-0.00295467
-0.48273
0.00316523
0.482925
-0.0016895
-0.0016713
-0.240815
0.00178418
0.240857
-0.00182671
-0.239957
0.00194384
0.239993
-0.00197977
-0.238786
0.00207739
0.238814
-0.00210508
-0.236191
0.00215271
0.236185
-0.00214675
-0.225403
0.00217095
0.225485
-0.00225313
-0.229038
0.00224103
0.229017
-0.00221991
-0.225996
0.00216103
0.225976
-0.00214093
-0.223289
0.00207588
0.223266
-0.00205234
-0.221094
0.00197545
0.221066
-0.00194754
-0.219369
0.00185596
0.219336
-0.00182254
0.00171215
-0.218067
0.218025
-0.00167102
-0.434105
0.00305096
0.433909
-0.00285517
-0.432874
0.00264374
0.432646
-0.00241535
-0.00328687
0.862491
0.00212053
0.0021685
-0.00222426
0.861224
-0.00112262
0.860457
0.860034
-0.00110192
0.971836
-0.00218352
0.971781
-0.00322663
0.971434
-0.00211999
0.970868
-0.00208919
-0.484642
0.484881
-0.00235875
-0.483979
0.00258343
0.484189
-0.0027937
-0.483114
0.0029906
0.483297
-0.00159396
-0.00157925
-0.24098
0.00168173
0.24102
-0.00172143
-0.240097
0.00183093
0.240131
-0.00186451
-0.238894
0.00195522
0.238919
-0.00198057
-0.236166
0.00202199
0.23616
-0.00201575
-0.225722
0.00204777
0.225798
-0.00212354
-0.228954
0.00210615
0.228933
-0.00208498
-0.225916
0.00202666
0.225897
-0.00200709
-0.223197
0.00194456
0.223174
-0.00192215
-0.220985
0.00184947
0.220959
-0.00182324
-0.219239
0.00173752
0.219208
-0.00170632
0.00160348
-0.217909
0.217871
-0.00156526
-0.433721
0.00286283
0.433538
-0.00268016
-0.432431
0.00248276
0.432217
-0.00226947
-0.00310171
0.861548
0.00200508
0.00204032
-0.00209956
0.860222
-0.00106019
0.859417
0.858974
-0.00106012
0.972896
-0.00210093
0.972821
-0.00310176
0.972435
-0.0020321
0.97181
-0.00201145
-0.485102
0.48533
-0.00226019
-0.484393
0.00247344
0.484592
-0.00267277
-0.483474
0.00285916
0.483647
-0.00152124
-0.00151065
-0.241136
0.00160357
0.241173
-0.00164111
-0.240229
0.00174481
0.24026
-0.00177659
-0.238992
0.00186197
0.239016
-0.00188548
-0.236141
0.00192228
0.236135
-0.00191613
-0.226016
0.0019546
0.226086
-0.00202473
-0.228869
0.00200366
0.228848
-0.00198252
-0.225838
0.00192462
0.225819
-0.00190545
-0.223108
0.00184482
0.223087
-0.00182327
-0.220882
0.00175378
0.220857
-0.00172881
-0.219117
0.00164751
0.219087
-0.001618
0.00152089
-0.217762
0.217726
-0.00148491
-0.433361
0.00272161
0.433188
-0.00254893
-0.432015
0.00236232
0.431814
-0.00216071
-0.00296232
0.860648
0.00191907
0.00194307
-0.00200643
0.859266
-0.00101284
0.858424
0.857961
-0.00103851
0.973935
-0.00205482
0.973838
-0.00303641
0.973417
-0.00198514
0.97274
-0.0019812
-0.485545
0.485755
-0.00219471
-0.484787
0.00239928
0.484979
-0.00259079
-0.483816
0.00276977
0.483981
-0.00147069
-0.00146484
-0.241283
0.00154879
0.241319
-0.00158473
-0.240354
0.00168417
0.240384
-0.00171465
-0.239084
0.00179612
0.239106
-0.00181829
-0.236117
0.00185193