/*--------------------------------*- C++ -*----------------------------------*\
| =========                 |                                                 |
| \\      /  F ield         | OpenFOAM: The Open Source CFD Toolbox           |
|  \\    /   O peration     | Version:  v1912                                 |
|   \\  /    A nd           | Website:  www.openfoam.com                      |
|    \\/     M anipulation  |                                                 |
\*---------------------------------------------------------------------------*/
FoamFile
{
    version     2.0;
    format      ascii;
    class       volVectorField;
    location    "700";
    object      U;
}
// * * * * * * * * * * * * * * * * * * * * * * * * * * * * * * * * * * * * * //

dimensions      [0 1 -1 0 0 0 0];


internalField   nonuniform List<vector> 
12556
(
(99.9993 0.00196204 -1.5129e-19)
(99.999 0.00677535 5.07981e-24)
(99.998 0.0147535 -1.60719e-19)
(99.9966 0.0272192 -1.57485e-19)
(100 0.0212674 6.49399e-20)
(99.9984 0.0364957 0)
(99.9975 0.0593133 0)
(99.9967 0.0917737 -1.12537e-19)
(99.9957 0.135383 1.31873e-20)
(99.9949 0.189875 -8.72419e-20)
(99.9948 0.250027 1.05531e-20)
(99.996 0.304564 0)
(99.9984 0.338712 0)
(100.001 0.3417 1.43521e-20)
(100.004 0.314143 -2.39216e-20)
(100.005 0.266447 1.50442e-20)
(100.005 0.211771 0)
(100.004 0.159935 2.54052e-20)
(100.004 0.115069 1.04577e-19)
(100.002 0.0824905 -2.96043e-20)
(100.009 0.0944152 -6.18698e-19)
(100.006 0.0598441 0)
(100.004 0.0322891 -7.92586e-20)
(100.004 0.0103479 -5.25025e-19)
(99.9928 0.00514497 6.37187e-19)
(99.9893 0.0179391 1.69741e-19)
(99.9811 0.0396412 1.18487e-18)
(99.9676 0.0739137 -4.99764e-19)
(99.9698 0.102498 7.12349e-20)
(99.9491 0.174562 -7.29248e-22)
(99.9226 0.284694 0)
(99.9114 0.387625 -5.02598e-20)
(99.8807 0.577394 -4.67599e-20)
(99.8539 0.820664 -8.22275e-20)
(99.8434 1.09735 -3.42076e-20)
(99.8642 1.35866 -4.50829e-20)
(99.9207 1.53361 -9.22801e-21)
(99.9963 1.56438 4.72596e-23)
(100.062 1.44723 -3.5766e-21)
(100.1 1.23074 3.41604e-20)
(100.109 0.978608 -6.78514e-20)
(100.098 0.743943 0)
(100.112 0.56584 -4.82887e-19)
(100.081 0.392584 9.36108e-19)
(100.082 0.270268 6.31112e-19)
(100.06 0.171063 1.32652e-18)
(100.045 0.0920239 -1.33153e-18)
(100.039 0.0294191 6.29575e-19)
(99.9806 0.0060686 -6.3767e-19)
(99.9707 0.021985 -1.3653e-18)
(99.9489 0.051348 -3.05642e-18)
(99.9129 0.0998367 4.00118e-18)
(99.8961 0.159837 -1.45683e-19)
(99.834 0.279963 -1.38639e-19)
(99.75 0.465819 -2.34787e-19)
(99.6979 0.676251 0)
(99.5918 1.03335 1.86014e-19)
(99.4963 1.50634 4.02319e-20)
(99.46 2.07093 -1.01982e-19)
(99.5481 2.62681 -1.07089e-21)
(99.7824 3.01027 1.39117e-20)
(100.088 3.07962 -2.50266e-22)
(100.341 2.82523 0)
(100.47 2.36626 2.60731e-20)
(100.48 1.84482 -6.99657e-20)
(100.422 1.36704 -1.67516e-19)
(100.375 0.971339 -2.91807e-18)
(100.278 0.663073 -6.49082e-19)
(100.23 0.412209 -6.49428e-19)
(100.167 0.259196 1.50044e-18)
(100.127 0.138692 -1.68867e-19)
(100.11 0.0441512 0)
(99.968 0.00337144 -3.20624e-19)
(99.9491 0.0147969 2.4e-18)
(99.9089 0.0427479 -6.86681e-19)
(99.842 0.0950255 0)
(99.7929 0.176874 0)
(99.6706 0.327492 -1.12555e-18)
(99.4998 0.56924 -2.19354e-18)
(99.3568 0.877211 2.0853e-19)
(99.1123 1.3885 9.94621e-20)
(98.8671 2.1061 4.72437e-20)
(98.7451 3.01135 -1.32945e-19)
(98.9033 4.00271 3.71248e-20)
(99.464 4.74743 3.72017e-20)
(100.24 4.86466 0)
(100.843 4.34846 0)
(101.105 3.51761 -1.1969e-19)
(101.099 2.65958 0)
(100.946 1.91053 0)
(100.78 1.29243 1.0526e-18)
(100.576 0.862589 -8.21205e-19)
(100.437 0.501382 -1.66142e-18)
(100.317 0.310422 8.5613e-19)
(100.241 0.164153 -1.72167e-19)
(100.207 0.0519376 0)
(99.9637 -0.0037609 0)
(99.9344 -0.00615724 0)
(99.8733 0.00904114 3.45944e-19)
(99.7705 0.0517277 5.15e-19)
(99.678 0.142594 3.75649e-19)
(99.4808 0.298586 0)
(99.1993 0.559431 0)
(98.9225 0.928362 0)
(98.4643 1.55639 1.75445e-18)
(97.9685 2.47757 2.34869e-19)
(97.5675 3.82015 0)
(97.678 5.56658 2.14016e-19)
(98.8323 7.07033 2.56874e-20)
(100.599 7.23449 -2.10247e-20)
(101.805 6.13642 5.62481e-19)
(102.178 4.64366 1.66088e-18)
(102.028 3.32457 3.24211e-19)
(101.68 2.30555 -4.12529e-21)
(101.314 1.47654 -1.74869e-18)
(100.954 0.956368 1.46646e-19)
(100.679 0.518027 0)
(100.487 0.312586 1.75579e-19)
(100.368 0.162114 -1.32073e-19)
(100.313 0.0507637 -4.1068e-20)
(99.9771 -0.0156084 0)
(99.9371 -0.0417567 0)
(99.855 -0.0515901 -6.94383e-19)
(99.7159 -0.033632 1.39185e-18)
(99.5731 0.0495794 0)
(99.2968 0.181279 0)
(98.8943 0.417769 4.56312e-19)
(98.4523 0.792648 1.76373e-19)
(97.7369 1.41329 2.53207e-19)
(96.823 2.41221 -1.24937e-18)
(95.7554 4.17674 1.516e-18)
(95.2374 7.21661 -1.43264e-18)
(97.4367 10.743 2.42623e-20)
(101.65 10.7707 0)
(103.734 8.15044 2.19016e-18)
(103.899 5.59398 0)
(103.313 3.71139 -2.88506e-19)
(102.589 2.42601 5.01607e-19)
(101.934 1.46363 4.48028e-19)
(101.374 0.910025 -3.02916e-19)
(100.926 0.445835 0)
(100.653 0.257032 0)
(100.487 0.128374 -4.45539e-20)
(100.408 0.0393319 -1.2554e-19)
(100.017 -0.0318678 1.58389e-19)
(99.9676 -0.0910564 -1.70511e-19)
(99.8671 -0.137457 3.47959e-19)
(99.6959 -0.158774 -1.25696e-18)
(99.5023 -0.101948 1.30867e-21)
(99.1539 -0.0247865 4.64525e-19)
(98.6409 0.139857 -2.36204e-18)
(98.0354 0.449297 -2.49972e-19)
(97.0814 0.924093 5.95568e-19)
(95.6598 1.73399 4.02011e-19)
(93.4725 3.29967 1.12224e-18)
(90.1464 7.39318 2.77258e-18)
(92.9589 17.4645 3.18644e-19)
(105.557 16.2997 3.45679e-18)
(107.426 9.85727 0)
(106.388 5.8935 8.67345e-19)
(104.911 3.56536 -4.73531e-19)
(103.601 2.17122 -7.76816e-20)
(102.551 1.19515 0)
(101.78 0.699784 1.66731e-19)
(101.139 0.278458 1.14922e-19)
(100.785 0.141278 -1.38548e-19)
(100.573 0.0620098 -1.58353e-19)
(100.471 0.0174139 3.56614e-19)
(100.092 -0.0516688 -1.58303e-19)
(100.035 -0.151309 1.70354e-19)
(99.9208 -0.243294 -2.16083e-19)
(99.726 -0.31527 -1.42964e-19)
(99.4882 -0.301623 2.69556e-19)
(99.0858 -0.30314 1.5644e-19)
(98.493 -0.248979 1.22536e-18)
(97.769 -0.0709875 2.26924e-19)
(96.6684 0.140693 0)
(94.9453 0.463912 1.64899e-19)
(92.1411 0.839069 -9.36413e-19)
(86.6749 0.936273 9.91446e-19)
(117.399 20.7999 9.24345e-19)
(113.131 9.10191 -1.94619e-19)
(109.313 4.80004 1.43979e-19)
(106.531 2.63988 -2.30951e-19)
(104.54 1.45927 7.07038e-20)
(103.052 0.660989 -9.1297e-20)
(102.101 0.325356 3.76799e-19)
(101.275 0.0240344 -1.40775e-19)
(100.855 -0.0287007 1.17404e-19)
(100.606 -0.0335091 -2.29388e-20)
(100.485 -0.013838 -3.36204e-19)
(100.207 -0.0737084 -7.63183e-20)
(100.146 -0.218448 -6.12349e-20)
(100.024 -0.361502 -2.09625e-20)
(99.8166 -0.49101 6.25335e-20)
(99.5461 -0.532076 -4.94146e-22)
(99.115 -0.625253 0)
(98.4845 -0.699621 2.00375e-19)
(97.7101 -0.683982 -1.31857e-21)
(96.5931 -0.753002 4.17138e-21)
(94.9128 -0.897461 -2.09709e-19)
(92.6172 -1.37791 -9.29086e-20)
(90.3262 -2.90741 -3.30216e-20)
(130.45 9.3575 0)
(117.785 4.10656 6.56294e-19)
(111.537 1.99961 7.21652e-19)
(107.688 0.904173 3.40142e-20)
(105.168 0.324717 -2.1074e-19)
(103.328 -0.0924325 -9.63485e-20)
(102.262 -0.183535 2.13524e-19)
(101.3 -0.294354 4.85428e-20)
(100.838 -0.238239 0)
(100.565 -0.150247 1.81361e-19)
(100.431 -0.0518869 1.67953e-19)
(100.365 -0.0964491 1.5028e-19)
(100.303 -0.287755 2.35159e-21)
(100.181 -0.483369 0)
(99.9724 -0.672459 8.25199e-21)
(99.683 -0.773959 -3.68978e-20)
(99.2489 -0.960612 3.82106e-20)
(98.6212 -1.16188 0)
(97.8537 -1.30161 -4.02706e-21)
(96.8054 -1.59404 1.57816e-19)
(95.2857 -2.00765 1.83828e-19)
(93.4319 -2.6446 0)
(91.8586 -3.45616 -2.00369e-20)
(130.055 -5.16102 -9.42575e-19)
(118.367 -2.57692 0)
(111.993 -1.65926 1.86207e-19)
(107.942 -1.26853 -6.34662e-20)
(105.281 -1.04511 -4.06487e-19)
(103.299 -0.955315 8.2636e-19)
(102.213 -0.763899 0)
(101.19 -0.641412 -4.76592e-20)
(100.717 -0.465539 -2.01093e-19)
(100.438 -0.276721 2.24944e-20)
(100.299 -0.0930944 0)
(100.567 -0.118387 -7.39382e-20)
(100.507 -0.354588 7.95517e-20)
(100.39 -0.600433 7.76256e-20)
(100.192 -0.846652 -7.12855e-20)
(99.8973 -1.00835 -3.63292e-20)
(99.4825 -1.28141 0)
(98.8892 -1.59658 -7.44887e-20)
(98.1651 -1.87028 5.70334e-20)
(97.2127 -2.32935 -2.81927e-19)
(95.8208 -2.90205 -1.62782e-19)
(94.113 -3.56933 -4.1547e-19)
(92.6048 -4.13389 6.24443e-20)
(123.115 -13.9238 1.06222e-18)
(115.561 -7.8823 0)
(110.673 -4.92576 -1.37066e-18)
(107.227 -3.32166 0)
(104.831 -2.37621 -3.96174e-19)
(102.948 -1.79023 0)
(101.944 -1.33476 -5.09623e-19)
(100.941 -0.977957 -5.98284e-19)
(100.49 -0.686523 4.56114e-20)
(100.222 -0.400256 -1.45968e-19)
(100.087 -0.133441 2.00493e-20)
(100.81 -0.138144 2.71714e-19)
(100.755 -0.41455 0)
(100.649 -0.704973 -7.73921e-20)
(100.469 -1.00135 0)
(100.182 -1.2193 0)
(99.8034 -1.56595 -1.05195e-19)
(99.2679 -1.97585 -2.58201e-20)
(98.6098 -2.36134 9.08016e-22)
(97.7642 -2.95484 7.1591e-20)
(96.4726 -3.67385 1.59058e-19)
(94.7765 -4.47036 -3.44238e-19)
(93.1434 -5.08788 2.92947e-22)
(115.043 -17.5683 -1.42218e-18)
(111.263 -10.7912 3.10486e-19)
(108.275 -7.07332 -1.09895e-18)
(105.813 -4.84307 -5.1946e-20)
(103.931 -3.44117 -4.56611e-20)
(102.331 -2.48269 4.31703e-20)
(101.487 -1.82713 -6.21187e-19)
(100.571 -1.27038 3.54202e-19)
(100.166 -0.87988 0)
(99.9234 -0.50955 1.68425e-19)
(99.7994 -0.169294 0)
(101.088 -0.155176 -2.70355e-19)
(101.04 -0.466364 4.53302e-18)
(100.948 -0.794386 -9.08554e-18)
(100.792 -1.13332 -2.42586e-20)
(100.525 -1.39454 -3.18165e-20)
(100.197 -1.79776 0)
(99.7366 -2.27807 2.65789e-19)
(99.1602 -2.75424 -1.66674e-21)
(98.4434 -3.45789 -3.7965e-21)
(97.2909 -4.33902 -7.28551e-20)
(95.674 -5.4191 1.87398e-19)
(93.9517 -6.34831 0)
(104.321 -26.8181 -3.86665e-19)
(107.246 -16.7344 0)
(106.925 -11.4431 2.86779e-20)
(105.582 -7.97293 0)
(104.091 -5.67866 9.10626e-20)
(102.777 -4.12441 1.21996e-18)
(101.542 -2.96537 -1.29829e-18)
(100.895 -2.19514 0)
(100.108 -1.49502 0)
(99.766 -1.03087 5.27233e-19)
(99.5571 -0.596451 9.76266e-20)
(99.4489 -0.197987 -2.97143e-19)
(101.394 -0.167971 0)
(101.354 -0.505212 0)
(101.278 -0.86054 0)
(101.151 -1.23089 0)
(100.905 -1.53363 0)
(100.629 -1.97788 0)
(100.25 -2.50935 0)
(99.7737 -3.04678 0)
(99.2098 -3.82308 0)
(98.2779 -4.83645 0)
(97.0141 -6.25472 0)
(95.5254 -8.43498 0)
(97.2527 -17.1361 0)
(102.484 -13.7881 0)
(103.504 -10.5199 1.08026e-18)
(103.179 -7.87949 0)
(102.403 -5.897 0)
(101.568 -4.42656 -9.87486e-19)
(100.687 -3.2272 -1.76421e-18)
(100.233 -2.4246 -6.50361e-19)
(99.5887 -1.64341 -8.43664e-19)
(99.313 -1.13299 8.49419e-19)
(99.1412 -0.656806 0)
(99.0511 -0.218106 7.98848e-19)
(101.72 -0.176387 0)
(101.689 -0.530751 0)
(101.631 -0.902895 0)
(101.533 -1.29152 0)
(101.318 -1.61811 0)
(101.101 -2.08106 0)
(100.809 -2.6294 0)
(100.439 -3.19226 0)
(100.044 -3.97322 0)
(99.401 -4.98461 0)
(98.7153 -6.38598 0)
(97.839 -8.35637 0)
(98.6297 -10.8443 -5.51714e-29)
(100.498 -10.5208 0)
(101.319 -8.94564 0)
(101.335 -7.21086 0)
(100.951 -5.68226 0)
(100.442 -4.42502 -1.9711e-19)
(99.852 -3.30125 0)
(99.554 -2.52315 0)
(99.0453 -1.71733 -1.57451e-18)
(98.8321 -1.18643 7.93153e-19)
(98.6956 -0.690373 3.33311e-20)
(98.6235 -0.229442 -5.51903e-19)
(102.058 -0.180464 0)
(102.036 -0.543083 0)
(101.995 -0.92196 0)
(101.925 -1.31746 0)
(101.741 -1.65503 0)
(101.579 -2.11762 0)
(101.366 -2.65754 0)
(101.092 -3.21071 0)
(100.83 -3.94294 0)
(100.426 -4.82615 0)
(100.05 -5.91211 0)
(96.6196 -6.7544 0)
(99.3854 -8.25571 4.51533e-33)
(99.8085 -8.20984 0)
(100.071 -7.44225 0)
(100.036 -6.35286 0)
(99.7936 -5.23325 0)
(99.4686 -4.21937 0)
(99.0874 -3.23656 -5.63733e-19)
(98.8987 -2.51578 8.64865e-19)
(98.5047 -1.72648 4.91683e-19)
(98.3449 -1.19776 8.56126e-19)
(98.2388 -0.700179 -9.76127e-19)
(98.1826 -0.232738 0)
(102.4 -0.180586 0)
(102.386 -0.543421 0)
(102.36 -0.920118 0)
(102.315 -1.31243 0)
(102.16 -1.65006 0)
(102.044 -2.09685 0)
(101.895 -2.60787 0)
(101.698 -3.12496 0)
(101.525 -3.77031 0)
(101.244 -4.49059 0)
(100.968 -5.27129 0)
(95.8786 -5.56741 0)
(99.7946 -6.64138 9.65157e-38)
(99.5213 -6.62915 0)
(99.3519 -6.20513 0)
(99.1534 -5.50666 0)
(98.9134 -4.706 0)
(98.6725 -3.91538 0)
(98.4086 -3.07356 0)
(98.2916 -2.42967 0)
(97.9865 -1.68486 1.70376e-18)
(97.8681 -1.17508 -1.62732e-18)
(97.786 -0.689944 -1.10519e-19)
(97.7428 -0.229488 1.03949e-19)
(102.739 -0.177335 0)
(102.731 -0.533565 0)
(102.718 -0.900735 0)
(102.692 -1.28164 0)
(102.563 -1.61022 0)
(102.483 -2.03071 0)
(102.38 -2.5005 0)
(102.235 -2.96694 0)
(102.108 -3.51454 0)
(101.864 -4.08342 0)
(101.609 -4.65216 0)
(95.5685 -4.70729 0)
(100.015 -5.50816 0)
(99.3678 -5.49205 0)
(98.9059 -5.2265 0)
(98.5469 -4.75646 0)
(98.2542 -4.17568 0)
(98.0298 -3.56107 0)
(97.8217 -2.85322 0)
(97.7436 -2.28951 0)
(97.502 -1.60531 0)
(97.4128 -1.12527 0)
(97.349 -0.664639 0)
(97.3154 -0.22162 0)
(103.069 -0.171382 0)
(103.067 -0.515575 0)
(103.062 -0.867634 0)
(103.051 -1.23109 0)
(102.942 -1.54405 0)
(102.887 -1.9323 0)
(102.813 -2.35557 0)
(102.698 -2.76723 0)
(102.583 -3.22386 0)
(102.334 -3.67095 0)
(102.065 -4.09498 0)
(95.5398 -4.05103 0)
(100.134 -4.65656 0)
(99.2651 -4.63283 0)
(98.6068 -4.44755 0)
(98.1155 -4.11371 0)
(97.7554 -3.68143 0)
(97.5137 -3.1997 0)
(97.3224 -2.60833 0)
(97.259 -2.12056 0)
(97.0577 -1.50243 0)
(96.9868 -1.05808 0)
(96.935 -0.628248 0)
(96.9086 -0.209569 0)
(103.385 -0.16343 0)
(103.387 -0.491591 0)
(103.389 -0.824685 0)
(103.387 -1.16674 0)
(103.294 -1.45994 0)
(103.254 -1.81364 0)
(103.195 -2.19018 0)
(103.092 -2.54925 0)
(102.968 -2.92805 0)
(102.695 -3.28208 0)
(102.39 -3.60565 0)
(95.6773 -3.52774 0)
(100.196 -3.98863 0)
(99.1848 -3.95873 0)
(98.3914 -3.81812 0)
(97.7968 -3.56889 0)
(97.3709 -3.23773 0)
(97.0972 -2.85473 0)
(96.8995 -2.36007 0)
(96.8346 -1.93999 0)
(96.6559 -1.38742 0)
(96.5943 -0.981284 0)
(96.5492 -0.585388 0)
(96.5273 -0.195192 0)
(103.685 -0.154147 0)
(103.689 -0.463633 0)
(103.695 -0.775449 0)
(103.698 -1.09391 0)
(103.616 -1.36524 0)
(103.583 -1.6846 0)
(103.528 -2.01719 0)
(103.425 -2.32873 0)
(103.28 -2.6435 0)
(102.979 -2.92757 0)
(102.623 -3.17927 0)
(95.9042 -3.0973 0)
(100.223 -3.44931 -5.23332e-34)
(99.116 -3.4151 0)
(98.227 -3.30166 0)
(97.5523 -3.1075 0)
(97.0681 -2.84668 0)
(96.7577 -2.53712 0)
(96.541 -2.12118 0)
(96.4645 -1.75943 0)
(96.2955 -1.26855 0)
(96.2364 -0.900685 0)
(96.194 -0.539514 0)
(96.1744 -0.179791 0)
(103.966 -0.144122 0)
(103.972 -0.433467 0)
(103.979 -0.722959 0)
(103.984 -1.01704 0)
(103.908 -1.26588 0)
(103.876 -1.55267 0)
(103.817 -1.84549 0)
(103.708 -2.11547 0)
(103.536 -2.37846 0)
(103.205 -2.6099 0)
(102.787 -2.80861 0)
(96.1729 -2.73578 0)
(100.228 -3.0049 0)
(99.0543 -2.96793 0)
(98.0953 -2.87239 0)
(97.3586 -2.71575 0)
(96.8245 -2.50518 0)
(96.4775 -2.25085 0)
(96.2358 -1.89862 0)
(96.142 -1.58632 0)
(95.9737 -1.15165 0)
(95.9126 -0.820459 0)
(95.8699 -0.493193 0)
(95.8508 -0.164259 0)
(104.228 -0.133837 0)
(104.234 -0.402539 0)
(104.241 -0.669648 0)
(104.244 -0.939597 0)
(104.173 -1.16639 0)
(104.136 -1.4232 0)
(104.069 -1.68085 0)
(103.948 -1.91509 0)
(103.748 -2.13647 0)
(103.391 -2.32804 0)
(102.902 -2.48665 0)
(96.4548 -2.428 0)
(100.219 -2.63349 -6.64269e-34)
(98.9976 -2.59492 0)
(97.9862 -2.51203 0)
(97.2009 -2.38205 0)
(96.6247 -2.20836 0)
(96.2433 -1.99623 0)
(95.9745 -1.69566 0)
(95.8606 -1.42497 0)
(95.6872 -1.0405 0)
(95.621 -0.743443 0)
(95.5759 -0.448231 0)
(95.5562 -0.149206 0)
(104.471 -0.123672 0)
(104.476 -0.371977 0)
(104.481 -0.617372 0)
(104.481 -0.86418 0)
(104.411 -1.07001 0)
(104.368 -1.29977 0)
(104.289 -1.52676 0)
(104.153 -1.73051 0)
(103.925 -1.91846 0)
(103.545 -2.07945 0)
(102.979 -2.2071 0)
(96.7332 -2.16375 0)
(100.201 -2.32006 0)
(98.9447 -2.28071 0)
(97.8932 -2.20727 0)
(97.0695 -2.09697 0)
(96.4579 -1.95108 0)
(96.0452 -1.77173 0)
(95.7493 -1.51331 0)
(95.6143 -1.27757 0)
(95.4324 -0.937391 0)
(95.3592 -0.671429 0)
(95.3103 -0.40582 0)
(95.2892 -0.135027 0)
(104.694 -0.113908 0)
(104.699 -0.34262 0)
(104.701 -0.567476 0)
(104.696 -0.792609 0)
(104.626 -0.978966 0)
(104.573 -1.18465 0)
(104.481 -1.38513 0)
(104.329 -1.56298 0)
(104.076 -1.724 0)
(103.674 -1.86116 0)
(103.03 -1.96461 0)
(96.9993 -1.9358 0)
(100.177 -2.05393 2.17398e-34)
(98.895 -2.01436 0)
(97.8123 -1.9483 0)
(96.958 -1.85302 0)
(96.3167 -1.72856 0)
(95.8759 -1.57509 0)
(95.5538 -1.35132 0)
(95.3979 -1.14493 0)
(95.2055 -0.843499 0)
(95.1243 -0.605437 0)
(95.0709 -0.366684 0)
(95.0479 -0.121963 0)
(104.9 -0.104748 0)
(104.903 -0.315067 0)
(104.902 -0.520891 0)
(104.891 -0.726104 0)
(104.819 -0.894665 0)
(104.757 -1.07913 0)
(104.65 -1.25682 0)
(104.482 -1.41271 0)
(104.205 -1.552 0)
(103.785 -1.67026 0)
(103.061 -1.7546 0)
(97.2485 -1.73881 0)
(100.148 -1.82719 0)
(98.8482 -1.78777 0)
(97.7409 -1.72767 0)
(96.8619 -1.64415 0)
(96.1955 -1.53655 0)
(95.7297 -1.4038 0)
(95.3831 -1.2087 0)
(95.2071 -1.02701 0)
(95.0031 -0.759288 0)
(94.9136 -0.54595 0)
(94.8553 -0.331209 0)
(94.83 -0.110137 0)
(105.089 -0.0963248 0)
(105.09 -0.289716 0)
(105.086 -0.478219 0)
(105.068 -0.665419 0)
(104.993 -0.817947 0)
(104.92 -0.983866 0)
(104.799 -1.14207 0)
(104.615 -1.27935 0)
(104.317 -1.40103 0)
(103.88 -1.50411 0)
(103.078 -1.57326 0)
(97.4792 -1.56872 0)
(100.117 -1.63387 0)
(98.8038 -1.59482 0)
(97.6771 -1.53963 0)
(96.7779 -1.46552 0)
(96.0903 -1.37139 0)
(95.6023 -1.25542 0)
(95.2329 -1.0842 0)
(95.038 -0.923286 0)
(94.8221 -0.684743 0)
(94.7243 -0.493085 0)
(94.6609 -0.299541 0)
(94.6332 -0.0995968 0)
(105.263 -0.088723 0)
(105.262 -0.266817 0)
(105.254 -0.439814 0)
(105.229 -0.610966 0)
(105.151 -0.749211 0)
(105.067 -0.899065 0)
(104.931 -1.04066 0)
(104.732 -1.1622 0)
(104.415 -1.26958 0)
(103.962 -1.36033 0)
(103.085 -1.41737 0)
(97.6913 -1.42233 0)
(100.083 -1.46932 0)
(98.7617 -1.43077 0)
(97.6193 -1.37969 0)
(96.7036 -1.31321 0)
(95.998 -1.22994 0)
(95.4903 -1.12766 0)
(95.0999 -0.976401 0)
(94.8872 -0.832981 0)
(94.6596 -0.619565 0)
(94.5536 -0.446725 0)
(94.4852 -0.271671 0)
(94.455 -0.0903341 0)
(105.423 -0.0819896 0)
(105.421 -0.24651 0)
(105.408 -0.405861 0)
(105.376 -0.56293 0)
(105.295 -0.688587 0)
(105.2 -0.824643 0)
(105.049 -0.952181 0)
(104.836 -1.06044 0)
(104.503 -1.15619 0)
(104.034 -1.23689 0)
(103.085 -1.28423 0)
(97.8858 -1.29708 0)
(100.049 -1.32989 0)
(98.7215 -1.29188 0)
(97.5667 -1.24426 0)
(96.6372 -1.18401 0)
(95.9162 -1.10959 0)
(95.3909 -1.01851 0)
(94.9812 -0.883956 0)
(94.752 -0.755209 0)
(94.5128 -0.56331 0)
(94.399 -0.406629 0)
(94.3257 -0.247498 0)
(94.2931 -0.0823127 0)
(105.571 -0.0761441 0)
(105.567 -0.228855 0)
(105.55 -0.376418 0)
(105.512 -0.521328 0)
(105.426 -0.636028 0)
(105.32 -0.760362 0)
(105.155 -0.876096 0)
(104.929 -0.9732 0)
(104.581 -1.05951 0)
(104.097 -1.13198 0)
(103.08 -1.17159 0)
(98.0638 -1.19089 0)
(100.013 -1.21265 0)
(98.683 -1.17519 0)
(97.5181 -1.13047 0)
(96.5773 -1.07533 0)
(95.8429 -1.0081 0)
(95.3019 -0.92619 0)
(94.8744 -0.805594 0)
(94.6299 -0.689086 0)
(94.3794 -0.515467 0)
(94.2582 -0.37249 0)
(94.1802 -0.226866 0)
(94.1451 -0.0754781 0)
(105.709 -0.0711968 0)
(105.703 -0.213881 0)
(105.682 -0.351497 0)
(105.636 -0.486146 0)
(105.546 -0.591391 0)
(105.43 -0.705908 0)
(105.252 -0.811845 0)
(105.014 -0.899635 0)
(104.652 -0.978327 0)
(104.154 -1.04409 0)
(103.072 -1.07755 0)
(98.2268 -1.10207 0)
(99.9763 -1.11526 -3.10496e-35)
(98.6461 -1.07832 0)
(97.473 -1.03602 0)
(96.5225 -0.985031 0)
(95.7766 -0.923625 0)
(95.2215 -0.849174 0)
(94.7775 -0.740194 0)
(94.5187 -0.633795 0)
(94.2573 -0.475575 0)
(94.129 -0.344004 0)
(94.0466 -0.209619 0)
(94.0091 -0.0697771 0)
(105.839 -0.0671265 0)
(105.831 -0.201543 0)
(105.805 -0.331015 0)
(105.753 -0.457148 0)
(105.658 -0.554502 0)
(105.532 -0.660949 0)
(105.341 -0.758889 0)
(105.091 -0.83897 0)
(104.717 -0.911582 0)
(104.205 -0.971925 0)
(103.062 -1.00055 0)
(98.3765 -1.02927 0)
(99.9395 -1.03586 0)
(98.6105 -0.999369 0)
(97.4308 -0.959051 0)
(96.472 -0.911404 0)
(95.7159 -0.854655 0)
(95.148 -0.786191 0)
(94.6886 -0.686787 0)
(94.4165 -0.588606 0)
(94.1441 -0.443063 0)
(94.009 -0.320839 0)
(93.9222 -0.195561 0)
(93.8824 -0.0651372 0)
(105.961 -0.0639766 0)
(105.95 -0.191922 0)
(105.92 -0.315062 0)
(105.862 -0.434762 0)
(105.763 -0.525202 0)
(105.626 -0.625178 0)
(105.423 -0.71674 0)
(105.162 -0.790516 0)
(104.778 -0.858375 0)
(104.251 -0.914417 0)
(103.051 -0.939315 0)
(98.5142 -0.971363 0)
(99.9026 -0.972942 0)
(98.5758 -0.936826 0)
(97.3907 -0.898081 0)
(96.4248 -0.853056 0)
(95.6596 -0.799946 0)
(95.08 -0.736188 0)
(94.6062 -0.644567 0)
(94.3214 -0.55293 0)
(94.0394 -0.417998 0)
(93.898 -0.302859 0)
(93.8071 -0.184638 0)
(93.7651 -0.0615563 0)
(106.083 -0.0615733 0)
(106.07 -0.184663 0)
(106.036 -0.303145 0)
(105.97 -0.417283 0)
(105.862 -0.503404 0)
(105.715 -0.598336 0)
(105.5 -0.684992 0)
(105.23 -0.753696 0)
(104.835 -0.817952 0)
(104.293 -0.870681 0)
(103.041 -0.89282 0)
(98.6414 -0.927518 0)
(99.8657 -0.925353 0)
(98.5421 -0.88951 0)
(97.3524 -0.851945 0)
(96.3802 -0.808889 0)
(95.6067 -0.758518 0)
(95.0162 -0.69833 0)
(94.5289 -0.612889 0)
(94.2322 -0.526237 0)
(93.9358 -0.398654 0)
(93.7876 -0.289454 0)
(93.6925 -0.176414 0)
(93.648 -0.0588322 0)
(106.179 -0.0603801 0)
(106.164 -0.180697 0)
(106.126 -0.296563 0)
(106.057 -0.410128 0)
(105.956 -0.489024 0)
(105.8 -0.580184 0)
(105.574 -0.663382 0)
(105.294 -0.728041 0)
(104.889 -0.789665 0)
(104.333 -0.839982 0)
(103.03 -0.860257 0)
(98.7594 -0.897121 0)
(99.8288 -0.892236 0)
(98.5088 -0.856515 0)
(97.3153 -0.819736 0)
(96.3375 -0.778048 0)
(95.5563 -0.729605 0)
(94.9557 -0.671987 0)
(94.4554 -0.591249 0)
(94.1471 -0.508319 0)
(93.853 -0.389758 0)
(93.7007 -0.281715 0)
(93.6023 -0.171728 0)
(93.5562 -0.0574041 0)
(106.345 -0.0590625 0)
(106.327 -0.177122 0)
(106.283 -0.290967 0)
(106.202 -0.399079 0)
(106.043 -0.481028 0)
(105.878 -0.570602 0)
(105.642 -0.652353 0)
(105.355 -0.713183 0)
(104.941 -0.772912 0)
(104.371 -0.821678 0)
(103.021 -0.841045 0)
(98.8692 -0.879937 0)
(99.7921 -0.873025 0)
(98.4759 -0.837159 0)
(97.2791 -0.800773 0)
(96.296 -0.759888 0)
(95.5076 -0.712627 0)
(94.8973 -0.656759 0)
(94.3875 -0.579433 0)
(94.0697 -0.49805 0)
(93.7152 -0.377588 0)
(93.5529 -0.275103 0)
(93.4492 -0.167442 0)
(93.3999 -0.0558324 0)
(89.9479 -2.79068 -9.6037e-22)
(132.003 12.4103 2.16593e-20)
(117.933 23.304 -2.83356e-18)
(91.7453 -3.37788 -1.5139e-20)
(132.58 -4.14638 -1.87391e-19)
(132.866 10.1708 -6.39749e-19)
(92.5306 -4.04333 -6.18514e-20)
(125.162 -14.2543 -5.90967e-19)
(131.891 -5.82756 1.13108e-18)
(93.0693 -4.94543 1.28779e-19)
(116.506 -18.43 3.53097e-18)
(124.084 -15.0437 -5.47488e-19)
(93.8931 -6.24995 -6.52003e-20)
(104.279 -27.5636 1.83483e-19)
(105.025 -27.1306 0)
(108.407 -18.4382 -1.73744e-18)
(115.439 -18.6474 -7.43912e-19)
(95.3119 -8.15268 0)
(96.01 -18.2042 0)
(103.921 -27.4653 0)
(97.4161 -18.4417 1.68303e-19)
(102.755 -15.7372 -6.52299e-19)
(107.499 -18.2686 -2.08748e-19)
(86.6087 2.00795 -2.86492e-18)
(91.6946 16.1398 -3.05478e-19)
(115.285 23.407 3.38399e-20)
(103.8 17.441 -8.15711e-19)
(136.524 30.2957 1.94386e-19)
(117.199 39.3235 5.05824e-18)
(129.62 11.3153 0)
(118.995 6.73662 2.77078e-19)
(114.28 10.8038 -2.21267e-19)
(93.2397 -2.37887 0)
(91.9185 -3.25283 2.00739e-20)
(90.5395 -2.56452 -6.34682e-20)
(143.799 1.6833 5.43195e-20)
(144.207 13.9447 0)
(130.62 -3.60887 3.77441e-19)
(120.85 -1.16253 -1.08768e-18)
(119.985 4.85465 -2.32319e-19)
(93.9524 -3.34851 -2.54754e-20)
(92.7109 -3.95995 -9.64132e-20)
(92.0354 -3.33762 -1.95455e-20)
(92.1764 -3.70653 8.11501e-20)
(91.4491 -4.08402 2.67845e-20)
(91.0391 -3.79077 -3.19021e-20)
(133.802 -15.3804 6.93605e-19)
(139.405 -9.06113 0)
(124.103 -13.1539 -1.68436e-18)
(118.151 -7.79169 -2.34846e-18)
(120.507 -3.05135 0)
(94.5997 -4.23918 3.49406e-19)
(93.2896 -4.86613 -1.59444e-19)
(92.7882 -4.05539 0)
(92.8043 -4.43914 4.23155e-20)
(91.7722 -4.61924 0)
(91.7755 -4.32463 5.75213e-20)
(122.842 -21.8696 -8.83503e-21)
(127.6 -19.7391 0)
(95.4131 -5.18147 -2.25327e-20)
(94.0573 -6.11318 -1.13886e-19)
(93.3681 -5.00471 0)
(93.4738 -5.56803 4.76552e-20)
(91.7453 -5.85021 5.92222e-20)
(91.7836 -5.24133 -5.58818e-20)
(109.104 -28.3048 0)
(112.387 -23.4274 0)
(116.903 -23.3051 3.57784e-19)
(96.6298 -6.09528 0)
(95.4694 -7.85793 0)
(94.1802 -6.2941 0)
(94.4386 -7.07785 0)
(90.5735 -7.31479 -1.15164e-18)
(91.5148 -6.58166 5.17489e-19)
(98.5847 -8.50173 0)
(97.616 -11.2329 1.02286e-27)
(96.0099 -17.4807 -1.68673e-22)
(86.6176 -5.75437 -5.61179e-20)
(89.9465 -4.69031 3.28987e-20)
(79.0951 -0.234851 4.59809e-18)
(85.7783 -5.71485 2.72706e-19)
(144.076 14.8676 2.61333e-18)
(137.359 29.4186 -1.54689e-19)
(127.616 18.6411 -1.53219e-18)
(136.216 27.6961 9.13441e-19)
(143.123 14.6886 -8.70334e-19)
(90.9981 -3.74025 0)
(90.7944 -3.64003 -3.67287e-20)
(91.3403 -3.18885 0)
(90.6861 -3.67374 0)
(90.8559 -3.78061 0)
(90.1224 -4.49503 -4.77745e-20)
(90.6593 -3.71204 0)
(139.733 -8.51728 2.67457e-20)
(143.646 0.948555 5.45394e-20)
(133.29 1.99987 1.84827e-19)
(142.989 1.14923 -2.6227e-20)
(139.317 -8.18336 0)
(143.285 13.7849 -1.08354e-19)
(143.133 1.8603 2.06301e-19)
(133.315 3.00842 1.20628e-20)
(91.7525 -4.29083 0)
(91.5028 -4.10941 -4.04015e-20)
(92.2739 -3.78955 -2.0473e-20)
(91.3454 -4.14678 7.82696e-20)
(91.5831 -4.31392 0)
(90.8742 -3.81125 5.55855e-21)
(91.3194 -4.13338 1.49738e-19)
(128.285 -19.345 0)
(133.41 -15.7279 -1.6881e-19)
(128.291 -11.3137 -4.42254e-21)
(132.922 -15.2366 6.16736e-19)
(128.012 -18.6407 0)
(139.001 -8.7255 0)
(133.669 -14.6068 -3.74289e-19)
(129.28 -10.126 0)
(91.7762 -5.20119 -3.88855e-23)
(91.7687 -4.65015 -1.26674e-19)
(92.8675 -4.55514 -1.47547e-19)
(91.5936 -4.64303 1.12806e-19)
(91.5054 -5.20626 0)
(91.592 -4.33218 2.66894e-20)
(91.6025 -4.61281 2.17148e-19)
(117.556 -23.2127 3.67616e-19)
(122.169 -22.0936 -9.60286e-19)
(91.5316 -6.53257 2.54379e-19)
(91.7404 -5.90041 -3.01969e-20)
(93.5204 -5.65071 6.35876e-20)
(107.249 -28.3427 0)
(91.2594 -5.88739 -2.2891e-19)
(90.6034 -6.49236 -3.46689e-19)
(91.5095 -5.24572 -6.14289e-20)
(91.281 -5.84145 0)
(107.012 -28.237 1.79148e-19)
(107.662 -22.8416 7.82755e-19)
(111.741 -23.439 0)
(109.033 -28.3197 1.65894e-19)
(78.1268 -7.64282 2.67782e-19)
(90.5229 -7.38581 -4.59922e-21)
(94.5261 -7.20445 4.02653e-22)
(98.3332 -23.4565 2.68002e-20)
(88.8733 -7.22323 0)
(52.7167 -8.13426 1.18352e-19)
(90.5661 -6.53458 7.16889e-20)
(88.9278 -7.15834 1.42159e-18)
(98.8929 -24.12 0)
(92.4176 -0.93775 -7.50639e-20)
(90.215 -2.39838 6.90125e-20)
(87.7749 1.09818 8.49503e-19)
(87.9337 -1.5356 -4.04066e-19)
(85.9818 -4.87142 -3.16516e-19)
(80.6406 0.181469 2.04331e-18)
(135.705 51.4064 3.51371e-17)
(111.573 57.9704 4.16124e-19)
(91.1553 -3.13409 -9.63326e-20)
(90.7536 -3.67158 1.81776e-20)
(90.0912 -4.31066 -2.98415e-21)
(122.218 -23.1791 -4.97417e-18)
(116.037 -17.3315 -1.54737e-18)
(113.368 -11.5654 0)
(117.064 -9.011 5.03891e-19)
(106.81 -27.2933 3.10323e-18)
(114.675 -26.2887 -7.76773e-19)
(116.94 -25.9383 2.04837e-19)
(99.7534 -23.5627 2.28072e-19)
(103.398 -20.5132 -9.41956e-20)
(106.501 -22.385 -1.84867e-18)
(89.8814 -4.44756 -1.29399e-20)
(86.7057 -4.98594 5.22202e-20)
(88.4826 -2.02637 6.15815e-21)
(89.3798 -6.73846 9.27415e-20)
(68.2102 -2.0614 9.58474e-18)
(78.5126 -11.3862 -1.61082e-18)
(117.409 36.2034 -9.35393e-19)
(134.599 29.4452 -2.09793e-19)
(125.53 20.3425 1.3119e-18)
(117.28 -25.8469 0)
(119.536 -25.4028 0)
(119.751 -17.388 0)
(121.985 -21.3961 4.56886e-19)
(117.464 -22.5329 -7.20265e-19)
(127.335 -19.0272 0)
(122.645 -21.1656 -2.45713e-19)
(120.839 -16.9089 -9.88104e-19)
(106.412 -28.357 1.24468e-19)
(90.691 -26.8933 0)
(101.458 -26.3395 0)
(83.8425 22.8907 4.41902e-20)
(82.77 10.293 -1.07009e-18)
(78.7885 1.42225 7.41402e-18)
(113.981 38.7466 4.29625e-21)
(100.58 29.0996 9.60295e-19)
(85.4709 25.4765 -4.16703e-20)
(137.892 48.946 -1.57684e-16)
(129.818 36.6423 -5.18373e-19)
(136.482 48.6648 2.26459e-17)
(112.584 54.2816 -4.89451e-19)
(133.999 50.2767 -3.45579e-18)
(126.944 37.9289 -1.00736e-18)
(144.295 7.07543 -2.3895e-19)
(144.341 7.88663 0)
(136.512 -12.8327 -1.89563e-19)
(136.892 -12.3968 7.71779e-19)
(121.933 -24.56 2.9047e-19)
(122.619 -23.2981 -4.9978e-19)
(124.869 -21.0843 0)
(124.276 -23.2101 2.35055e-18)
(122.525 -24.2438 1.39592e-19)
(125.387 -21.7551 6.358e-18)
(124.367 -23.0804 1.19363e-18)
(125.548 -20.7824 -4.20706e-19)
(91.8058 -5.53625 1.79922e-19)
(92.7528 -5.49164 1.39298e-19)
(92.8578 -5.74536 0)
(111.914 -26.2482 6.49232e-19)
(113.988 -26.312 9.29668e-19)
(107.611 -27.4621 -1.02585e-17)
(91.3829 -6.95654 -1.43395e-19)
(93.3868 -6.9922 1.01607e-19)
(93.5116 -7.37853 -8.88542e-20)
(93.2287 -6.56454 5.01318e-20)
(93.3479 -6.8776 -1.01079e-19)
(91.4158 -6.8911 -4.27791e-19)
(87.304 -9.66182 -4.18732e-18)
(89.176 -7.06684 5.72062e-18)
(88.541 -5.44653 1.97741e-20)
(89.2696 -6.98285 -2.40879e-18)
(87.18 -9.13654 7.158e-18)
(89.8734 -5.06174 -1.23462e-18)
(89.4537 -6.6925 -1.30116e-18)
(89.0088 -5.27276 0)
(81.65 -4.00306 0)
(78.8321 -9.92594 1.28542e-20)
(70.3602 -1.62543 -4.46197e-18)
(86.6335 -9.40583 -1.29485e-19)
(80.1024 -10.2252 1.42e-18)
(82.7505 -4.76167 2.75534e-19)
(79.9783 -11.617 -2.75949e-19)
(86.8309 -9.98211 3.58174e-19)
(142.019 21.4605 1.84907e-18)
(141.597 22.4671 -6.3506e-19)
(90.7768 -3.63498 2.09125e-20)
(89.644 -3.62316 -4.20543e-22)
(90.7833 -3.64248 0)
(90.4622 -4.03562 -3.93188e-20)
(89.9159 -4.04547 2.871e-18)
(89.8621 -4.91228 -1.28024e-18)
(89.6873 -3.62994 -2.38056e-20)
(89.8866 -3.94301 -5.65988e-21)
(90.5306 -3.92567 2.64146e-20)
(141.741 -4.35713 -7.22506e-19)
(141.989 -3.72178 1.19983e-18)
(141.496 -3.48702 0)
(137.547 -1.90681 2.10708e-19)
(138.239 1.57896 -4.36307e-21)
(136.024 -6.06635 6.99931e-19)
(137.227 -3.00572 0)
(141.259 -4.12409 0)
(143.65 7.91081 -1.13287e-19)
(138.329 8.01209 1.1027e-19)
(137.555 12.1511 -2.18422e-19)
(138.37 2.8102 -9.4257e-20)
(138.433 6.67614 -8.15562e-20)
(143.624 7.10429 4.41076e-19)
(91.492 -4.21151 1.51312e-19)
(91.508 -4.22381 9.20048e-20)
(91.0683 -4.00155 1.16279e-20)
(91.1009 -4.02658 1.16973e-20)
(130.476 -17.7999 7.5418e-20)
(125.651 -21.4774 0)
(130.831 -17.526 7.72739e-20)
(91.572 -4.89822 -1.18994e-19)
(91.5675 -4.93148 -2.95591e-20)
(91.6269 -4.44275 2.59429e-20)
(91.6275 -4.46282 -5.23726e-20)
(122.208 -24.3521 -2.69161e-19)
(120.009 -24.9827 0)
(120.176 -22.6684 -8.64179e-19)
(119.831 -25.3197 4.83717e-19)
(121.668 -24.6829 -2.83459e-19)