/*--------------------------------*- C++ -*----------------------------------*\
| =========                 |                                                 |
| \\      /  F ield         | OpenFOAM: The Open Source CFD Toolbox           |
|  \\    /   O peration     | Version:  v1912                                 |
|   \\  /    A nd           | Website:  www.openfoam.com                      |
|    \\/     M anipulation  |                                                 |
\*---------------------------------------------------------------------------*/
FoamFile
{
    version     2.0;
    format      ascii;
    class       volScalarField;
    location    "2.49";
    object      p;
}
// * * * * * * * * * * * * * * * * * * * * * * * * * * * * * * * * * * * * * //

dimensions      [0 2 -2 0 0 0 0];


internalField   nonuniform List<scalar> 
12556
(
824.8908641
824.2037031
822.3912354
818.4157455
812.2885119
799.0210717
776.7073265
740.3719958
685.0456753
604.4559936
493.5089329
351.0074109
182.8023964
2.14280757
-173.6581639
-330.0082831
-459.0459046
-559.3610353
-633.6257794
-685.9135127
-729.8517769
-749.884734
-761.4888388
-766.8804591
825.3250544
824.9690257
823.8159817
821.0922784
815.0106487
803.9310186
784.3989667
755.1178759
705.8135746
631.6648178
525.9636134
385.129957
212.8394456
24.86480867
-161.4038293
-326.1843101
-460.1711539
-562.8521693
-645.4573615
-694.5775322
-737.7080131
-755.320818
-765.57476
-770.3149351
826.3053338
826.6879384
827.0869492
826.8660991
823.2511344
816.87501
804.0256328
779.4173731
739.0634758
673.3170884
568.5941472
414.4185151
219.6213381
8.732880648
-191.6422177
-365.2205637
-501.1422547
-598.4503114
-678.0968948
-719.0716825
-755.8086284
-768.3108274
-775.5382339
-778.7732215
827.2467234
828.6738035
831.3397027
834.6637644
834.8488101
835.4397915
832.6907837
818.3413442
793.9506357
740.6463253
636.4670566
462.9906433
219.1588565
-47.24358687
-277.4185551
-450.7634509
-577.7626218
-664.3270697
-729.1368922
-756.2784775
-782.0519814
-787.3902039
-790.0773312
-791.1132432
827.1007715
829.7188492
834.9675808
842.6576303
846.9718282
856.9007385
866.8957209
868.6223139
866.5060533
839.4814548
756.2605411
562.2829006
224.4852371
-162.0933315
-445.1924893
-612.6901881
-705.1553096
-758.0886369
-796.5950242
-804.1388556
-812.5780058
-809.2422556
-806.3965056
-804.7928779
824.6866166
828.4879335
836.2371506
848.2366009
858.3226575
877.5685625
902.0562796
922.4604107
953.7653622
980.7712523
969.4787615
807.3983383
270.1225341
-403.8928881
-750.8024066
-863.1245304
-883.9880948
-880.0940694
-875.7802351
-857.0526426
-843.8388282
-830.6999832
-821.6390964
-817.2008259
818.878839
823.7072328
833.6128824
849.3781134
865.1102695
893.055071
930.8029279
970.9016647
1040.64571
1142.040462
1286.600856
1418.005538
533.4179058
-1058.255632
-1263.705462
-1196.857411
-1100.326913
-1016.83683
-957.4271292
-908.0170454
-871.7213498
-848.0032023
-832.9145128
-825.7972371
808.7109838
814.2765187
825.7232317
844.1315033
864.9629496
899.1915764
946.4054289
1003.080007
1102.679802
1261.007056
1532.977796
2075.844873
-2781.625325
-1973.294498
-1557.620883
-1308.454968
-1143.002372
-1025.256135
-948.4285636
-889.2069174
-857.1070416
-837.3307256
-828.0039014
793.4574438
799.3712371
811.529826
831.1445552
855.7062844
893.0381319
944.4797703
1010.3934
1121.118038
1284.600713
1516.196404
1789.833928
-4179.227139
-2475.687776
-1803.182967
-1446.746472
-1224.518165
-1063.485088
-968.3347653
-891.9419626
-854.7580783
-832.2889136
-821.619798
772.7317989
778.5660379
790.5276145
809.774398
836.4798395
873.4465476
923.6750345
990.867646
1094.869139
1234.601753
1394.337503
1531.731773
-3854.55503
-2458.853918
-1820.213022
-1460.136556
-1235.989324
-1061.134327
-961.6564497
-877.2457771
-839.204688
-816.3098729
-805.3808927
746.5415505
751.8998265
762.8182313
780.1606949
807.5555958
841.0594459
885.7383562
948.2509706
1037.644138
1148.653001
1263.715251
1361.820068
-2886.138506
-2070.572806
-1637.271307
-1365.875166
-1178.1957
-1017.421561
-927.8055605
-844.8411516
-810.2387053
-789.1911325
-779.0644029
715.2586392
719.8078571
729.0686575
743.014557
770.4127675
797.6711257
833.7866
887.5262261
958.6561916
1043.117958
1131.542421
1230.594187
-1882.98046
-1544.999453
-1342.706775
-1189.641444
-1065.73748
-940.3617227
-870.8336813
-797.1074052
-769.3958266
-751.9630545
-743.4872581
679.5895865
683.1022819
690.3831575
700.7268112
724.9541072
745.5134551
771.1432358
814.0138367
864.6388229
921.6462639
981.4539524
1076.685513
-749.8589
-966.1417689
-1039.449981
-1026.597429
-983.4566678
-925.7484083
-843.4694238
-797.771523
-738.7718118
-719.5616308
-706.6300694
-700.315971
640.4066751
642.7900484
647.9038208
654.8421392
674.8782987
688.2711866
703.1439246
733.3338556
762.3686462
788.3339164
804.6934129
850.1313204
262.6447484
-397.8638985
-648.183312
-752.0170168
-787.4136028
-780.4506447
-740.3698113
-716.5504415
-675.4562066
-663.9953597
-655.6907575
-651.7106111
598.7076215
599.8837064
602.510531
605.7835896
621.7603132
627.2876501
631.869058
647.2965539
654.5629135
650.0342507
617.7691663
522.8480591
225.8043302
-159.9026072
-405.7885129
-546.9425461
-620.9664538
-648.2086962
-639.7470372
-635.0906817
-610.1054771
-605.5226707
-601.6900602
-599.9249195
555.5093325
555.5582714
555.776082
555.5847008
567.5990693
566.2723779
561.971741
563.8005414
552.958982
526.2851928
468.1601692
358.1056646
168.4871473
-74.23232794
-270.468636
-407.2465675
-491.4758063
-535.8082892
-548.5452234
-557.6737546
-545.640089
-546.8148512
-546.8971055
-547.0131745
511.8165528
510.9124357
509.0809515
505.9545614
514.2147197
507.2839488
495.968238
487.6367034
462.306556
422.2936435
357.5837072
261.8633502
121.938957
-45.27477502
-195.0602628
-311.9865148
-392.7031236
-443.8413704
-468.582306
-486.6342545
-484.4617937
-490.0464374
-493.1693105
-494.6904616
468.5361591
466.8713669
463.4046722
457.9725475
462.9527608
451.8348331
435.4963332
421.0005999
387.3468239
340.6921739
277.4949133
195.8688414
87.29868855
-35.87360485
-150.5789067
-245.3029929
-316.9210826
-368.7225362
-399.8661972
-423.0519192
-427.9229967
-436.5114924
-441.8021697
-444.2981202
426.3941958
424.1560526
419.4557529
412.3378662
414.7200141
400.7711169
381.345731
363.2916258
327.3645444
279.7309398
220.5289225
150.7694202
63.50718743
-30.87378698
-119.7560195
-197.0180608
-260.0050448
-308.9568801
-341.9901727
-367.2572822
-376.5405408
-386.9224599
-393.5801873
-396.7468792
385.9388919
383.3095104
377.7642398
369.5364807
369.9933084
354.3928374
333.3041836
313.8226914
278.1234076
233.3083326
180.0253959
120.0969549
49.48314102
-25.70799572
-97.38799797
-161.6727979
-216.2952033
-260.8334513
-293.3896742
-318.7212272
-330.4157331
-341.6420699
-349.0163997
-352.5272665
347.5577434
344.7032008
338.6686574
329.826347
328.9711397
312.647996
291.0621902
271.4844145
237.4122498
196.3766518
149.350308
97.99107279
39.43048759
-21.99661691
-80.95093304
-134.8394691
-181.9415676
-221.6268187
-252.3840596
-276.6182173
-289.3380015
-300.6979397
-308.2860224
-311.9066241
311.4947829
308.5529571
302.3298841
293.287029
291.5795489
275.2583622
254.0565036
235.1622371
203.4683239
166.5154371
125.1804687
81.14907706
31.83971865
-19.17410608
-68.31034101
-113.7950302
-154.3474047
-189.3484678
-217.5368515
-240.0946226
-252.8962369
-263.9050728
-271.3543544
-274.915422
277.8655042
274.9434869
268.7658503
259.8475635
257.6507396
241.8487716
221.653733
203.8532192
174.8900822
141.9717464
105.7214669
67.90704162
25.98702376
-16.86840048
-58.22230401
-96.82817833
-131.7358936
-162.4017004
-187.7706453
-208.3401825
-220.6130248
-230.9681431
-238.0487593
-241.4378101
246.6805847
243.8584503
237.8975768
229.3404735
226.9384882
212.0009537
193.2221246
176.7252838
150.5941355
121.4825684
89.75973492
57.24652214
21.39358789
-14.8894916
-49.92806415
-82.82653922
-112.8748969
-139.6167948
-162.157194
-180.63855
-192.0148714
-201.5433856
-208.1142731
-211.261575
217.8742399
215.2097948
209.5862224
201.5523315
199.1603785
185.3047408
168.1079498
153.0886147
129.7478247
104.1453027
76.47474182
48.48482655
17.72966475
-13.1366275
-42.94688969
-71.04674291
-96.89905498
-120.1287181
-139.9572798
-156.3725721
-166.6521447
-175.2706112
-181.2542414
-184.1210204
191.3277616
188.8605455
183.655283
176.2489939
174.0244989
161.3734619
145.8349823
132.3572711
111.6946376
89.29657982
65.25183903
41.1537705
14.76087365
-11.55345143
-36.96006262
-60.97409078
-83.18400195
-103.2841932
-120.5755332
-135.0155329
-144.1082477
-151.7931854
-157.1571376
-159.7267317
166.8837848
164.6387529
159.9023989
153.1851618
151.2442966
139.8526351
125.9819376
114.049038
95.91588713
76.43810321
55.64157093
34.92389763
12.31911509
-10.10674422
-31.7486007
-52.24279795
-71.27072483
-88.58437217
-103.5341179
-116.123018
-124.0033102
-130.7690606
-135.5109287
-137.7815019
144.3584638
142.3495321
138.1098813
132.1122842
130.5389282
120.4176981
108.1841394
97.7607242
81.99475491
65.18172148
47.30730477
29.55564528
10.28104279
-8.775173311
-27.15484421
-44.58261414
-60.81028709
-75.63740207
-88.43942888
-99.3130162
-105.9945456
-111.8771805
-116.0128686
-117.9916675
123.5531454
121.7865098
118.0552169
112.7862608
111.6435738
102.7761875
92.13857696
83.15194986
69.59606794
55.2225059
39.99053633
24.87281486
8.554137518
-7.544071112
-23.06167764
-37.78885365
-51.53216858
-64.1313202
-74.96661195
-84.25914427
-89.7746951
-94.82132074
-98.37670749
-100.0759053
104.262801
102.7393479
99.51718894
94.97169148
94.30708403
86.65969556
77.591921
69.93975126
58.44675316
46.31599255
33.48721648
20.73827419
7.067361249
-6.402114135
-19.37806986
-31.70033656
-43.21870056
-53.80789916
-62.84310224
-70.67836189
-75.06832839
-79.32951483
-82.3349206
-83.76901555
86.27340323
84.99183181
82.27371953
78.43488741
78.30164405
71.82308429
64.26542641
57.89312331
48.32173556
38.26117705
27.63759248
17.04160217
5.764982947
-5.339956404
-16.03120252
-26.18746377
-35.69222303
-44.43829564
-51.83822689
-58.32310671
-61.62220508
-65.14928337
-67.63540609
-68.8186606
69.39880158
68.35402128
66.13184248
62.9813102
63.39627208
58.04317183
51.8778156
46.81647933
39.02814386
30.89006151
22.30149078
13.69175757
4.601730954
-4.349452571
-12.96108249
-21.14393678
-28.81043021
-35.86899281
-41.72574976
-46.96983781
-49.22542463
-52.06276738
-54.05884943
-55.00628721
53.34816397
52.54493062
50.81832915
48.32632466
49.43556155
45.11600338
40.23896685
36.49814911
30.38900738
24.05300778
17.36408216
10.60930042
3.539551908
-3.422895772
-10.11555042
-16.47717706
-22.44836033
-27.97661019
-32.31725791
-36.4171296
-37.61136536
-39.81300916
-41.34057844
-42.05819877
38.23689647
37.64914056
36.40545086
34.61762339
35.96329946
32.84955156
29.23529463
26.76104453
22.24680643
17.61481022
12.72172459
7.722718419
2.545849402
-2.552700708
-7.448070002
-12.10359428
-16.48475815
-20.55890586
-23.48867984
-26.45968645
-26.83217257
-28.38628906
-29.46853314
-29.98284783
22.72862692
22.44788099
21.7093705
20.63179282
23.10442113
21.08418075
18.68180376
17.45244708
14.46096569
11.44768998
8.271857475
4.964373335
1.592528086
-1.730678192
-4.915748489
-7.946895194
-10.81074502
-13.49804155
-15.07414746
-17.01937189
-15.99518897
-16.92751033
-17.56489791
-17.81272226
11.57167748
11.29073154
10.89550043
10.26816013
10.55113713
9.50675972
8.354465632
8.438705935
6.908298991
5.413905126
3.905217749
2.275238845
0.6594714218
-0.945763108
-2.477621495
-3.937699502
-5.326819522
-6.654126815
-6.844782857
-7.729941557
-7.830950921
-8.285396051
-8.582924373
-8.801799457
1835.340641
-4478.395607
-2951.127396
1557.135356
-4200.642503
-4532.098943
1379.798114
-3139.682792
-4090.745087
1247.288645
-2050.359546
-2998.4185
1088.567847
-803.1454462
-843.6096707
-1078.802212
-1921.113119
878.66562
350.7256744
-755.9125713
213.1112045
-407.9746464
-970.2650886
2040.837635
757.1133073
-2594.462198
-868.6604636
-5957.431614
-3802.531477
-4120.373793
-2650.672719
-2126.672162
1426.925606
1543.03008
1757.50231
-5977.434807
-6327.046393
-3947.266139
-2761.594579
-2743.359643
1296.195386
1369.502742
1518.457124
1460.869691
1491.284121
1583.117273
-4369.819001
-5203.50636
-3014.595128
-2358.956195
-2695.503895
1165.487991
1233.574575
1351.228418
1311.687311
1348.087235
1399.839606
-2871.403146
-3504.325159
1021.678665
1082.390733
1216.540132
1169.359669
1228.47064
1288.309231
-1597.819573
-1557.766501
-2115.432422
849.9734854
875.4550273
1060.368309
992.7144865
1053.516317
1142.455041
590.2412778
337.1069803
362.9312256
2285.314149
1892.791843
2802.123432
2365.540922
-6338.74772
-6014.43464
-4084.392322
-5749.484918
-6174.286948
1595.345743
1684.378002
1642.265785
1687.090473
1598.600441
1858.230607
1702.121268
-5253.816892
-5942.66344
-4397.682524
-5812.008033
-5164.13258
-6165.402659
-5844.980445
-4431.4974
1408.476868
1479.093618
1438.980319
1485.547761
1409.84406
1592.215081
1492.288763
-3598.313295
-4310.687486
-3561.745404
-4206.93302
-3527.626318
-5114.739783
-4313.861091
-3700.27328
1292.498626
1345.139189
1295.709082
1348.362912
1296.633152
1405.251364
1351.065313
-2197.214327
-2784.416362
1148.017457
1224.232461
1159.358713
-1553.519738
1229.442907
1152.968833
1292.329822
1233.731632
-1594.409041
-992.1716775
-1480.490739
-1548.232837
1048.485081
1047.470317
978.6468569
-25.17969919
1053.329336
943.2890454
1147.432028
1058.530275
-100.7309473
1537.760489
1796.05542
1963.326863
2028.341954
2322.896029
2656.810275
-7503.047708
-4756.6428
1674.533457
1699.893499
1860.577784
-3432.212813
-2004.276472
-1760.35554
-2217.699169
-1999.034653
-1945.440937
-2238.434189
-156.1596703
-473.5455969
-851.1306048
1894.63851
2254.310977
1983.677231
1982.17803
3681.659988
3135.031512
-3615.313331
-5609.588749
-3862.976612
-2286.497056
-2602.857666
-2448.544021
-2741.535222
-2171.964208
-3437.18549
-2825.752407
-2584.178714
-1151.060855
-285.4481376
-442.8866679
1196.200168
2015.539
2768.680653
-3328.972256
-990.7056036
893.7115361
-7614.461265
-5369.77282
-7339.766833
-4534.402021
-7179.389399
-5041.811216
-6146.050668
-6171.883291
-4764.122336
-4820.660254
-3032.618526
-3361.353015
-3136.742309
-3340.908215
-3005.501294
-3759.738036
-3391.239543
-3227.287398
1256.462014
1228.000615
1201.595525
-1587.532765
-1856.208647
-1920.66476
1097.735669
1063.485191
1024.98967
1109.721751
1075.460781
1103.036351
2304.473442
2015.916792
2080.505513
2026.984989
2328.288783
1839.823203
1995.504165
2025.327232
2700.33938
3076.775223
3527.174644
2391.028051
2977.725068
2621.863106
3016.170897
2379.02557
-6302.570884
-6288.404749
1644.434337
1693.955765
1638.275475
1776.441006
1748.982835
1828.696675
1697.522249
1740.926974
1755.011703
-5577.501996
-5620.313182
-5522.035417
-4933.100004
-5093.997732
-4663.63472
-4871.08908
-5479.841129
-6042.310949
-5260.619159
-5275.566788
-5138.053853
-5239.459937
-6017.814568
1446.805384
1441.355655
1546.31005
1538.951191
-3891.583684
-3800.09223
-3943.411164
1325.059329
1321.320144
1376.611503
1373.056102
-2954.976682
-2628.064489
-2528.777489
-2647.58654
-2976.540842
1181.068421
1152.256193
1120.531469
1192.270227
1162.663784
1187.386461
-1200.550862
1191.396828
1184.601621
1263.80984
1260.462944
-1928.200052
-1202.079128
-1234.258272
-1498.845204
1010.779799
966.6731325
948.8252591
968.4335816
496.2886742
200.2030447
1108.87732
-273.7064638
156.9090359
-188.3903548
1104.250732
-351.7940883
-222.1652326
123.8393441
-5960.266861
-2147.272683
-2300.447757
661.9998925
618.8156999
841.1046539
731.0651065
751.9469603
987.0099399
238.604279
-107.4980298
-294.6822992
4611.204741
-2334.2298
-2502.164264
-895.1028605
-1147.102214
-1154.04393
-122.5108598
-368.3440843
-84.22367743
1875.082089
2738.652855
3643.440562
-4141.328899
-1166.802599
1040.891625
-6060.052797
-6843.319088
-6733.657754
-6271.050332
-4537.010015
-4728.839181
-4530.501533
-5468.450141
-5299.008426
-5045.525952
1370.858072
1352.643623
1329.960784
1385.66598
1360.567186
1374.731625
1261.171315
1236.415102
1260.081296
1072.479487
1057.676542
1037.118637
887.9983439
658.6036811
395.4171095
-6337.738986
-6853.374249
-6885.613711
-6107.908004
-5089.105692
-4802.208
-5261.718531
-5151.731303
-6116.505327
-5399.015345
-5678.851359
-5526.185042
-5816.755012
1435.934289
1422.504479
1394.49279
1415.793858
1427.351454
1422.532951
-4468.49914
-4287.515779
-4149.760409
-3903.878211
-3660.497466
-3916.928164
-4749.09877
-4346.094291
-4587.863271
-4003.371179
-4261.780915
-4694.890091
1317.915962
1292.663221
1269.241962
1322.595064
1300.297152
1321.612512
1339.68022
1352.969969
1358.068282
1308.765134
1326.115261
1308.640496
1392.627783
1397.402946
1411.44581
1359.392356
1365.402539
1359.622111
-2445.260498
-2583.335362
-2280.361743
-1395.939826
-1401.772254
1215.539297
1159.258078
1279.047107
1286.656805
1305.023918
1263.834839
1245.273831
-1729.166931
825.9116039
953.0506113
915.9153159
1029.772383
1004.379499
1020.908059
166.7695316
403.8370195
168.0274213
1029.497189
459.4560511
714.6247518
532.746034
608.7299072
1126.300344
1078.457833
-6842.94923
-5760.92322
-6486.013739
-3570.733052
-3633.692621
-1962.559877
-2100.634024
-2112.376713
1914.131525
1892.715444
3573.906165
4046.611069
4315.900405
3866.368438
3482.982342
-2676.012335
-2507.62241
-2464.232181
-2509.739436
-2693.882905
-1160.612914
-986.3876622
-1000.032343
-989.4031178
-1162.656336
-770.6739341
-941.2959091
-533.7275328
-559.7802116
-721.7821145
-350.9223485
-506.9753558
-434.2968831
-7621.190624
-6642.171622
-6192.99194
-6969.673394
-6749.215565
-6009.264772
-5302.268238
-6376.082934
-6522.686109
-6426.197038
-6080.032781
-6248.384042
-6690.13684
-6563.408634
-4979.43821
-4792.736185
-4594.398244
-4849.914311
-5045.462881
-4589.969951
-4790.521117
-5105.494253
-4990.236417
-5243.810115
-5041.359307
-3172.003078
-3233.063432
-3202.230655
-3120.092152
-3258.851673
-3608.129237
-3501.301463
-3649.81477
-3305.274056
-3452.300009
-3553.448876
-1794.201097
-1772.111536
-1913.041846
1082.388174
1064.289103
1075.66415
1116.844392
1105.052255
1088.645451
2157.977115
2118.566669
2132.520188
2162.937793
2057.270311
2340.284509
2203.070299
2174.437595
1899.629411
1925.581349
1867.72132
2026.591077
1947.988858
1922.050725
2610.514561
2567.079694
2396.199309
2705.666504
2608.917327
-6909.871937
-6858.830897
-6332.497822
-7020.940077
-7115.028796
-6986.277961
-7073.496104
-7035.543314
-7153.326712
-7077.110557
-6206.718248
-6850.049246
-6926.415781
1666.387662
1667.231714
1652.049564
1693.031203
1673.621107
1674.474619
1630.988516
1617.579809
1648.416557
1635.201476
1777.92934
1796.40596
1763.712868
1851.651349
1808.88675
1788.371566
1717.299427
1721.280078
1699.507009
1754.170308
1729.132359
1725.333046
-5863.92639
-5727.343802
-5445.33547
-5765.501421
-6062.533392
-5901.730179
1467.237995
1452.057989
1491.571232
1471.562278
1428.490439
1418.044867
1446.197693
1431.805821
1582.754942
1559.258382
1612.126838
1590.529173
1519.86371
1497.462596
1551.404437
1527.894207
-3897.236198
-4058.733763
-3700.751572
-3849.070169
-3943.664046
-4336.654744
-4522.333855
-4111.03583
-4280.610826
1334.755999
1349.297265
1336.320604
1354.662493
1337.170886
1360.931593
1358.859784
1333.82162
1311.4675
1326.820305
1330.955694
1383.202828
1392.893645
1388.165187
1395.760035
1385.665671
1413.600387
1399.520831
1366.211097
1361.41438
1379.185336
1368.638004
1362.747526
1368.041057
1378.852322
-2701.373534
-2790.578894
-2855.394121
-2689.533839
-2905.99895
-2834.7607
-1173.041383
-1355.332193
-1382.754629
-1173.09059
1210.781944
1166.435432
1272.837051
1281.939819
1274.840153
1249.521996
1268.585273
1271.342901
-1811.908031
1007.698714
994.7456737
968.2331526
648.4740357
557.5881167
1018.42451
282.2426175
436.4631749
332.22093
1118.916309
-426.5417873
5.500618571
227.2454429
-39.22344637
1074.845799
-2488.363497
-1898.240872
-1259.728758
-2286.310217
-2339.369918
-1099.322925
-1165.133196
-1605.656714
-2347.90858
-951.6356041
-939.3401375
-776.5831272
-2092.517254
-1583.097934
-1543.485657
2226.161447
3410.438343
4389.994382
-4724.912778
-1358.957195
1263.017784
-1655.368518
-1289.869355
-3220.084439
-5692.793978
-6437.089964
-6680.400663
1530.492197
1510.802775
1475.532921
1560.159763
1522.97261
1543.917528
-1584.09083
-1724.468764
-1734.118714
-2191.599614
-1927.098239
-1872.271821
1127.535315
1111.180744
1123.329302
-6743.801979
-6832.479806
-6180.990524
1464.270163
1432.446462
1445.964938
1468.20676
1471.404163
1490.49752
1496.695778
1518.049964
1511.471726
1158.472767
1147.8775
1133.244381
-1566.271774
-1520.093394
-1509.517497
1157.622804
1164.073691
1157.610382
-1663.708664
-1675.088922
-1578.95986
-1400.797815
-1393.412309
-1536.356166
1047.054191
1141.978549
1148.357912
1152.559136
1061.491839
-7406.299515
-3468.635211
-1980.407226
-2048.377636
-2054.369941
-2282.638483
-2137.97182
-2104.031139
1953.182309
-4668.242033
-4147.925836
-4979.810048
-2419.892045
-2474.018943
-2325.981027
-770.9023506
-785.5666263
-608.470229
-614.2051666
-713.6878433
-2066.189022
-1530.719486
-4022.760217
-7497.116612
-7106.019443
-6954.136307
-7480.448362
-7467.868005
-3079.208819
-3110.887818
-3061.982377
-3377.981472
-3370.750526
-3343.64668
-2933.539395
-3071.165903
-3147.444509
-3722.881342
-3670.861414
-3721.717502
-1913.890606
-1891.548704
-1923.912057
2246.539142
2311.370178
2049.478065
2059.976995
2072.288331
2039.231233
1852.279635
1867.309195
1851.334795
2008.374303
1980.198616
1967.26242
2825.964621
2632.827489
2697.047449
2904.654257
2908.379487
3055.045318
2370.561409
2433.320415
2447.474259
1654.894062
1653.802067
1655.875517
1693.160514
1687.512814
1688.756292
1633.23889
1630.47506
1654.042317
1648.885308
1759.414269
1764.203387
1754.407311
1836.920619
1822.716709
1815.66403
1701.480189
1703.488879
1698.105059
1745.818659
1739.010505
1736.045727
1450.838665
1466.284085
1462.19788
1427.358716
1431.226929
1445.45928
1556.053515
1578.616995
1566.382199
1573.39871
1564.986162
1626.509321
1619.021247
1504.728279
1556.657738
1548.410425
1518.76582
1525.68162
1548.461176
-4067.776794
-4132.145945
-3772.392395
-3831.629255
-3856.940545
-4193.783593
-4213.819859
-4094.722051
-4231.890075
-4068.409372
1169.161253
1153.435401
1163.649391
1205.221548
1190.484548
1175.031165
1195.122494
1203.440197
1198.465029
1178.303711
1181.570406
1187.752937
-1927.269451
957.9942375
966.3911969
953.6720152
708.914703
967.6015054
373.8874493
503.7507659
624.4887821
1114.70057
1115.811507
1111.998519
-337.7962335
-180.9822961
-158.6705893
-174.2196476
1097.619438
1104.072781
1110.828
-73.89855888
-153.6918125
-299.0534073
-2182.728035
-2226.101605
-2325.127307
-2278.366119
-2256.787851
4649.04729
4937.067881
4475.06548
-2389.118617
-2414.367673
-2335.326617
-2520.335308
-2465.879671
-2453.858048
-2577.894828
-1792.304956
-4531.108805
-6314.149471
-6320.010454
-6244.177699
-6284.343829
-6804.988392
-6641.420717
-6672.910098
-6579.127082
-6611.00232
-6770.436284
-5415.759509
-5333.459361
-5387.333568
-5218.110195
-5278.503077
-5360.709714
-6901.065727
-6713.374272
-6694.84054
-6701.015931
-6714.734223
-6912.49428
-5625.579361
-5540.494733
-5590.038798
-5440.858174
-5490.96406
-5577.657466
-6175.061358
-6209.320241
-6073.248779
-6127.080814
1355.223439
1350.679338
1347.979916
1312.941024
1309.619536
1305.058313
1318.99229
1314.859325
1319.199971
-1523.102543
-1575.393581
-1390.90223
-1469.857345
1228.688536
1226.967197
1236.389895
1231.168773
1161.491945
1158.742494
1165.216346
1157.079636
1292.738411
1290.263956
1284.929456
1300.79897
1295.866756
1299.53434
1246.32314
1243.638626
1256.780146
1241.313577
1248.164638
-1735.979062
-1728.576876
-1718.194021
-1580.105684
958.3270756
999.6456322
1123.227282
1031.46852
1024.096217
1013.685273
1039.716844
403.4459186
388.3566187
1099.184635
978.5945424
750.9563678
1127.636659
1139.889159
1134.978579
1069.725602
-7181.372293
-7496.97333
-7157.684393
-6548.549293
-6227.452065
-5403.465284
-6998.279322
-6673.777549
-3513.711426
-3658.587748
-2109.818433
-2098.15251
-2106.53583
1932.314778
1866.901988
4193.580075
4020.050492
3897.748801
3358.225333
3215.535564
3732.742461
3526.347528
3653.353377
-2587.761754
-2522.796946
-2638.958031
-1005.319889
-1001.653797
-990.5967885
-1105.772791
-808.9051756
-788.0687258
-774.8303631
-930.8966292
-872.5283707
-871.3325855
-539.9902491
-595.3493241
-592.0808028
-414.7987486
-421.0190459
-468.1308145
-7332.282141
-7225.031547
-7563.973039
-6899.769242
-7197.76232
-7250.532433
-7462.018802
-7437.968175
-6480.454819
-6369.476723
-6400.740734
-6330.888944
-6343.332259
-6443.771824
-6643.838561
-6506.0219
-6543.903883
-6434.77259
-6469.395885
-6602.75701
-4919.164687
-4845.092955
-4904.437541
-4912.992617
-4982.79916
-4643.145379
-4671.487402
-4635.916449
-4730.650748
-5171.074938
-5213.748457
-5171.813356
-5087.875273
-5153.939312
-4965.317219
-5027.375549
-5108.610573
-3210.173015
-3127.799855
-3116.498908
-3141.42514
-3076.009688
-3131.221078
-3295.909244
-3322.121883
-3261.362698
-3568.965924
-3613.77977
-3640.505995
2200.34416
2082.606181
1909.148627
1886.19718
1871.213844
1943.484605
1955.054887
1931.877783
2690.970244
2787.338084
2805.82118
3078.310601
2950.765405
2523.040885
2508.682052
2597.436741
-6887.144122
-6690.208789
-6698.987903
-6683.160232
-6684.174298
-6869.978895
-7052.833871
-7079.783449
-7084.361992
-7336.199711
-7292.000022
-7336.315993
-7360.127415
-7073.905233
-7154.894112
-7283.057322
-7290.671937
-7098.637402
1667.177478
1661.769303
1660.817894
1682.147595
1681.036105
1674.114151
1638.213087
1635.638131
1644.294988
1641.004172
1784.222589
1774.063211
1768.967784
1801.343496
1808.622223
1795.598419
1718.297414
1710.392308
1708.354463
1731.450631
1732.766947
1725.977088
-5822.769885
-5730.260982
-5771.78534
-5637.21548
-5684.239533
-5773.550588
-6007.015239
-5921.510203
-6004.22346
-5811.982935
-5858.912667
-5949.412672
1462.761282
1464.110236
1467.643463
1453.279055
1459.3406
1457.6872
1484.000597
1482.128672
1491.724055
1470.437616
1474.6215
1476.914676
1425.351927
1427.102003
1429.391498
1420.654101
1424.269629
1421.929309
1440.685108
1440.485844
1446.607666
1431.766877
1435.391435
1435.813778
1590.485572
1581.984113
1574.986341
1578.697484
1586.764582
1562.351243
1570.514989
1567.1364
1608.731012
1599.032768
1524.300476
1517.008716
1511.946168
1514.440354
1522.064974
1498.229666
1499.947229
1502.939991
1543.569948
1546.198764
1554.251015
1530.261731
1538.216799
1535.746144
1540.377502
1532.432907
-3983.154476
-4018.142649
-3920.381246
-3887.91372
-3919.715227
-4391.094445
-4423.090591
-4374.915187
-4561.483285
-4484.33704
-4452.0162
-4158.522545
-4192.826984
-4158.721064
-4323.643039
-4272.07327
-4219.862166
1339.010965
1335.808726
1331.599799
1344.517138
1340.289339
1344.209983
1347.927585
1341.599548
1360.697056
1360.183642
1331.951121
1323.282593
1318.717194
1319.200928
1319.588465
1327.514746
1324.07728
1328.685711
1384.335593
1388.221418
1398.355616
1388.216597
1408.803336
1410.705556
1415.927402
1401.858309
1406.078254
1404.179297
1364.037676
1362.400292
1374.183768
1371.107641
-2800.917812
-2783.439427
-2843.174684
-2680.040747
-2729.240861
-2763.605676
-2973.11207
-3016.571105
-2888.313285
-2898.04917
-2909.47526
-1318.93307
-1323.144526
-1377.67841
-1187.813235
-1250.441035
-1258.704178
1208.19553
1197.989003
1224.195432
1217.995894
1170.902648
1175.504669
1172.041246
1178.04567
1173.650015
1189.882494
1183.725563
1275.227656
1273.395379
1270.580276
1280.420571
1276.648327
1278.243374
1270.384572
1264.246259
1260.937838
1268.239803
1266.278113
1270.768221
-1870.247051
1001.148512
987.4438811
992.8653982
606.5881263
623.2553829
684.3433134
563.2103453
570.7970362
553.3744653
1006.259433
378.1066889
326.080717
259.2765302
1114.654958
1116.114823
1118.794251
-404.7000898
96.73905562
38.01300087
209.7708252
197.6344289
210.2884286
19.50807334
-114.2007764
-94.90524882
7.073580222
1086.034533
1098.176724
1091.427372
771.774141
741.5359199
720.8292066
728.5281439
680.2162448
653.6394249
659.9755201
586.1413527
556.2807796
555.7256315
448.0602811
423.8400056
405.9228318
267.2388967
257.6051877
217.668057
67.32699412
70.49899672
15.88419764
-132.4441166
-117.3381479
-180.1961618
-312.0843199
-287.9675799
-352.4441755
-457.1967572
-429.427355
-487.7106265
-564.6780604
-539.3170829
807.3913111
787.4885315
751.2348465
778.3825554
739.4999504
692.8547983
721.4601386
647.8451613
599.4095335
615.9542596
496.0198078
457.7231145
448.0263826
280.6921046
270.1877266
219.4268002
32.32672618
61.55119574
-28.73460211
-198.4900042
-143.4951342
-249.4546494
-383.9865108
-324.6788504
-423.1087664
-525.2845948
-470.9417728
-554.417021
-626.1224774
-577.1381551
855.4404965
850.6286867
801.8868519
846.7333012
823.8460079
757.9050672
811.0653733
749.7460783
668.4609815
719.341534
587.9237828
513.197493
528.6052759
308.2619964
285.1596176
220.7622831
-43.35205282
17.79593535
-125.8629165
-336.7465003
-225.1435282
-393.5270653
-527.8008632
-412.4131185
-563.2579741
-647.0570303
-549.3942531
-668.518879
-719.0461306
-646.5918925
909.1434576
926.1235742
868.6560082
931.2912124
941.5173984
849.8876361
941.6749935
922.1656731
784.9848191
905.0576427
791.7098832
624.4801173
723.4683973
395.0649158
319.5099153
249.540819
-195.6881222
-71.37166846
-322.8673639
-596.8631911
-387.0136822
-657.2099543
-771.933272
-578.6066114
-792.7316851
-828.5541489
-687.0996245
-834.8736547
-845.4846118
-747.4573373
959.8701297
1003.293763
945.8237448
1020.246528
1079.730862
975.4630769
1102.68179
1178.187137
979.6233876
1202.887884
1240.804999
874.5506686
1214.079964
679.3411281
442.2781914
496.4262694
-617.8606257
-260.146855
-816.9406448
-1088.284416
-691.8348761
-1113.786439
-1117.519975
-848.2465914
-1106.583037
-1061.236701
-882.6246142
-1044.766243
-997.3323484
-881.8591277
997.1909753
1063.586921
1020.63452
1090.992499
1195.115425
1113.06584
1239.315147
1415.536658
1246.494884
1495.060152
1933.582905
1402.033861
1693.715069
1775.457332
1285.60615
678.1653889
-671.2913105
-192.6261766
-1472.878623
-1454.844741
-1175.550589
-1793.00655
-1539.382465
-1219.748203
-1471.843055
-1305.790623
-1124.006766
-1260.249319
-1146.091365
-1036.043233
1011.202093
1088.486644
1073.517501
1120.260018
1238.946232
1213.808709