/*--------------------------------*- C++ -*----------------------------------*\
| =========                 |                                                 |
| \\      /  F ield         | OpenFOAM: The Open Source CFD Toolbox           |
|  \\    /   O peration     | Version:  v1912                                 |
|   \\  /    A nd           | Website:  www.openfoam.com                      |
|    \\/     M anipulation  |                                                 |
\*---------------------------------------------------------------------------*/
FoamFile
{
    version     2.0;
    format      ascii;
    class       pointVectorField;
    location    "1.8";
    object      pointDisplacement;
}
// * * * * * * * * * * * * * * * * * * * * * * * * * * * * * * * * * * * * * //

dimensions      [0 1 0 0 0 0 0];


internalField   nonuniform List<vector> 
26316
(
(0 0 0)
(0 0 0)
(0 0 0)
(0 0 0)
(0 0 0)
(0 0 0)
(0 0 0)
(0 0 0)
(0 0 0)
(0 0 0)
(0 0 0)
(0 0 0)
(0 0 0)
(0 0 0)
(0 0 0)
(0 0 0)
(0 0 0)
(0 0 0)
(0 0 0)
(0 0 0)
(0 0 0)
(0 0 0)
(0 0 0)
(0 0 0)
(0 0 0)
(0 0 0)
(0 0 0)
(0 0 0)
(0 0 0)
(0 0 0)
(0 0 0)
(0 0 0)
(0 0 0)
(0 0 0)
(0 0 0)
(0 0 0)
(0 0 0)
(0 0 0)
(0 0 0)
(0 0 0)
(0 0 0)
(0 0 0)
(0 0 0)
(0 0 0)
(0 0 0)
(0 0 0)
(0 0 0)
(0 0 0)
(0 0 0)
(0 0 0)
(0 0 0)
(0 0 0)
(0 0 0)
(0 0 0)
(0 0 0)
(0 0 0)
(0 0 0)
(0 0 0)
(0 0 0)
(0 0 0)
(0 0 0)
(0 0 0)
(0 0 0)
(0 0 0)
(0 0 0)
(0 0 0)
(0 0 0)
(0 0 0)
(0 0 0)
(0 0 0)
(0 0 0)
(0 0 0)
(0 0 0)
(0 0 0)
(0 0 0)
(0 0 0)
(0 0 0)
(0 0 0)
(0 0 0)
(0 0 0)
(0 0 0)
(0 0 0)
(0 0 0)
(0 0 0)
(0 0 0)
(0 0 0)
(0 0 0)
(0 0 0)
(0 0 0)
(0 0 0)
(0 0 0)
(0 0 0)
(0 0 0)
(0 0 0)
(0 0 0)
(0 0 0)
(0 0 0)
(0 0 0)
(0 0 0)
(0 0 0)
(0 0 0)
(0 0 0)
(0 0 0)
(0 0 0)
(0 0 0)
(0 0 0)
(0 0 0)
(0 0 0)
(0 0 0)
(0 0 0)
(0 0 0)
(0 0 0)
(0 0 0)
(0 0 0)
(0 0 0)
(0 0 0)
(0 0 0)
(0 0 0)
(0 0 0)
(-2.699600299e-07 1.442656197e-06 2.775557562e-17)
(0 0 0)
(0 0 0)
(-1.493027171e-07 1.615971526e-05 3.469446952e-16)
(6.874692519e-07 1.373716232e-05 2.91433544e-16)
(0 0 0)
(0 0 0)
(0 0 0)
(0 0 0)
(0 0 0)
(0 0 0)
(0 0 0)
(0 0 0)
(0 0 0)
(0 0 0)
(0 0 0)
(0 0 0)
(0 0 0)
(0 0 0)
(0 0 0)
(0 0 0)
(0 0 0)
(0 0 0)
(0 0 0)
(0 0 0)
(0 0 0)
(0 0 0)
(0 0 0)
(0 0 0)
(0 0 0)
(0 0 0)
(0 0 0)
(0 0 0)
(0 0 0)
(0 0 0)
(0 0 0)
(0 0 0)
(0 0 0)
(0 0 0)
(0 0 0)
(0 0 0)
(0 0 0)
(0 0 0)
(0 0 0)
(0 0 0)
(0 0 0)
(0 0 0)
(0 0 0)
(0 0 0)
(0 0 0)
(0 0 0)
(0 0 0)
(0 0 0)
(0 0 0)
(0 0 0)
(0 0 0)
(0 0 0)
(0 0 0)
(0 0 0)
(0 0 0)
(0 0 0)
(0 0 0)
(0 0 0)
(0 0 0)
(0 0 0)
(0 0 0)
(-1.681860977e-05 1.816154528e-05 4.857225733e-16)
(-9.680114573e-05 0.0001139354216 3.080868893e-15)
(-1.265648012e-06 1.595231126e-06 2.775557562e-17)
(-0.0001838551862 0.0003172677789 8.007483565e-15)
(-0.0004568142684 0.0007368712653 1.99146255e-14)
(-0.0005423914075 0.0009982213383 2.69784195e-14)
(-0.0002527604598 0.000497452716 1.254552018e-14)
(-0.0003083284317 0.001048347836 2.645106356e-14)
(-0.0005414737032 0.001724775093 4.660161146e-14)
(-0.000452791221 0.001905815414 5.148659277e-14)
(-0.0002658733762 0.001193066254 3.010092176e-14)
(-1.308862861e-05 0.00139517843 3.520794767e-14)
(-1.922249851e-05 0.002153838521 5.820344207e-14)
(0.0001427867486 0.002125883499 5.745404152e-14)
(8.462803293e-05 0.001372278839 3.462508058e-14)
(0.0002887762616 0.001051742896 2.654820808e-14)
(0.0005100821074 0.001728429491 4.674038934e-14)
(0.0005602294608 0.001510123086 4.082845173e-14)
(0.0003041380172 0.0008804096678 2.221833828e-14)
(0.0001792650391 0.0003212264958 8.10462808e-15)
(0.0004444859633 0.0007427420896 2.008115896e-14)
(0.0003345897007 0.0004962561226 1.341982081e-14)
(0.0001047590051 0.0001665610193 4.204969706e-15)
(0 0 0)
(1.764265069e-05 1.955828608e-05 5.273559367e-16)
(0 0 0)
(0 0 0)
(0 0 0)
(0 0 0)
(0 0 0)
(0 0 0)
(0 0 0)
(0 0 0)
(0 0 0)
(0 0 0)
(0 0 0)
(0 0 0)
(0 0 0)
(0 0 0)
(0 0 0)
(0 0 0)
(0 0 0)
(0 0 0)
(0 0 0)
(0 0 0)
(0 0 0)
(0 0 0)
(0 0 0)
(0 0 0)
(0 0 0)
(0 0 0)
(0 0 0)
(0 0 0)
(0 0 0)
(0 0 0)
(0 0 0)
(0 0 0)
(0 0 0)
(0 0 0)
(0 0 0)
(0 0 0)
(0 0 0)
(0 0 0)
(0 0 0)
(0 0 0)
(0 0 0)
(0 0 0)
(0 0 0)
(0 0 0)
(0 0 0)
(0 0 0)
(-4.697209356e-05 2.728698847e-05 1.026956298e-15)
(-0.0002566172065 0.0001590057479 6.009082121e-15)
(-6.078204686e-05 4.139485243e-05 1.429412144e-15)
(-0.0008676898197 0.0007385574795 2.535471832e-14)
(-0.001388123213 0.001076127313 4.060640713e-14)
(-0.00177168109 0.00149902769 5.652422974e-14)
(-0.001193316832 0.001108205754 3.803901638e-14)
(-0.001858577978 0.002372866469 8.136546992e-14)
(-0.002460309132 0.002864526553 1.078859224e-13)
(-0.002477314572 0.003295861545 1.240951786e-13)
(-0.001911521396 0.00278773641 9.557632463e-14)
(-0.001502555117 0.003814333679 1.307842723e-13)
(-0.00187001146 0.004337482252 1.633831959e-13)
(-0.001484037029 0.004572157939 1.722788578e-13)
(-0.001202664709 0.004050450441 1.38916656e-13)
(-2.815695274e-05 0.004361425059 1.497552082e-13)
(-2.651805876e-05 0.004876816191 1.840472219e-13)
(0.0004881205857 0.004840241092 1.827704654e-13)
(0.0003902626864 0.004325198768 1.485755963e-13)
(0.001447752253 0.003810332482 1.310618281e-13)
(0.001815203985 0.004327177654 1.63702385e-13)
(0.002119002482 0.004031752437 1.525862769e-13)
(0.001675106517 0.003516319576 1.209865541e-13)
(0.001817900822 0.002375827121 8.178180355e-14)
(0.002413080865 0.002861586245 1.083855228e-13)
(0.002288140217 0.00241141302 9.132972156e-14)
(0.001678291377 0.00194874361 6.708522626e-14)
(0.000858082352 0.0007467205634 2.570166302e-14)
(0.001371636134 0.001084206378 4.103661855e-14)
(0.0009701608535 0.0007079246405 2.678413047e-14)
(0.0005388418 0.0004327532358 1.489086632e-14)
(0 0 0)
(4.662950805e-05 2.757818924e-05 1.040834086e-15)
(0 0 0)
(0 0 0)
(0 0 0)
(0 0 0)
(0 0 0)
(0 0 0)
(0 0 0)
(0 0 0)
(0 0 0)
(0 0 0)
(0 0 0)
(0 0 0)
(0 0 0)
(0 0 0)
(0 0 0)
(0 0 0)
(0 0 0)
(0 0 0)
(0 0 0)
(0 0 0)
(0 0 0)
(0 0 0)
(0 0 0)
(0 0 0)
(0 0 0)
(0 0 0)
(0 0 0)
(0 0 0)
(0 0 0)
(0 0 0)
(0 0 0)
(0 0 0)
(0 0 0)
(0 0 0)
(0 0 0)
(0 0 0)
(0 0 0)
(0 0 0)
(0 0 0)
(-2.020877941e-05 5.878554852e-06 3.747002708e-16)
(0 0 0)
(-0.000860385288 0.0003509590266 1.890154699e-14)
(-0.001278901523 0.0004466921003 2.806088695e-14)
(-0.002001883011 0.0007484276078 4.6893045e-14)
(-0.00146971131 0.0006404334381 3.444466934e-14)
(-0.003363069511 0.001840224669 9.858780459e-14)
(-0.004082349703 0.00192245737 1.197375532e-13)
(-0.004567984935 0.002350822006 1.462024946e-13)
(-0.003841875378 0.002296561029 1.22887811e-13)
(-0.004384372902 0.003614196048 1.930261506e-13)
(-0.005000177176 0.003550111654 2.20337637e-13)
(-0.004785099617 0.003884342316 2.410849298e-13)
(-0.004237274406 0.003993554255 2.13273843e-13)
(-0.002939487688 0.004841870145 2.589317649e-13)
(-0.003247478914 0.004606284353 2.864375404e-13)
(-0.002516033942 0.00475003083 2.957079026e-13)
(-0.002289001485 0.005018346111 2.68604583e-13)
(-1.519876564e-05 0.00523123273 2.809835697e-13)
(-1.31060324e-05 0.004914935772 3.073652444e-13)
(0.0008487713262 0.004887381495 3.06143999e-13)
(0.00077213022 0.005200123809 2.796790577e-13)
(0.002899768419 0.004802532428 2.59320343e-13)
(0.003211714113 0.004555533855 2.868261184e-13)
(0.003846328702 0.00435689062 2.747246874e-13)
(0.003452237014 0.00456762333 2.469136007e-13)
(0.004331419878 0.003575292385 1.9372004e-13)
(0.004948019975 0.003492326859 2.209205041e-13)
(0.004982959471 0.003126187813 1.97841743e-13)
(0.004313993022 0.0031655555 1.715710907e-13)
(0.003311339413 0.001819647816 9.860168237e-14)
(0.00412430888 0.001925011924 1.22304944e-13)
(0.003559134542 0.001528556747 9.738043705e-14)
(0.002822411897 0.001425566049 7.741030039e-14)
(0.0009802514269 0.0004015970325 2.184363801e-14)
(0.001464642944 0.0005130593425 3.261280135e-14)
(0.0008268246405 0.0002729796737 1.733335697e-14)
(0.0004725753488 0.0001823685978 9.908740495e-15)
(0 0 0)
(0 0 0)
(0 0 0)
(0 0 0)
(0 0 0)
(0 0 0)
(0 0 0)
(0 0 0)
(0 0 0)
(0 0 0)
(0 0 0)
(0 0 0)
(0 0 0)
(0 0 0)
(0 0 0)
(0 0 0)
(0 0 0)
(0 0 0)
(0 0 0)
(0 0 0)
(0 0 0)
(0 0 0)
(0 0 0)
(0 0 0)
(0 0 0)
(0 0 0)
(0 0 0)
(0 0 0)
(0 0 0)
(0 0 0)
(0 0 0)
(0 0 0)
(0 0 0)
(0 0 0)
(0 0 0)
(-9.34045379e-05 1.280127368e-05 1.637578961e-15)
(-0.0002124198195 1.926960568e-05 3.719247132e-15)
(-0.0007545700784 7.229651747e-05 1.391942117e-14)
(-0.0005072738236 7.328148899e-05 9.353628982e-15)
(-0.002983843515 0.0005166318684 6.530886942e-14)
(-0.003530235143 0.0004083187901 7.725764473e-14)
(-0.004553114612 0.0005651534731 1.062483435e-13)
(-0.003947058413 0.0007317527947 9.210687768e-14)
(-0.006246042218 0.00147179689 1.82145965e-13)
(-0.006898252935 0.001087102008 2.00978123e-13)
(-0.007278324262 0.001258440997 2.312317005e-13)
(-0.006652964446 0.00172209678 2.117334086e-13)
(-0.006606179453 0.00239342242 2.902261764e-13)
(-0.007012557241 0.001716477075 3.070044219e-13)
(-0.006487345806 0.001822826068 3.249622793e-13)
(-0.006133583674 0.002541530861 3.081285227e-13)
(-0.003908405278 0.002828096238 3.442246488e-13)
(-0.00403421515 0.001975932953 3.53758689e-13)
(-0.003055738738 0.001988152624 3.571309914e-13)
(-0.002982109015 0.002866277426 3.498035195e-13)
(-2.445202465e-05 0.002882575564 3.553546346e-13)
(-3.426691567e-05 0.001969402402 3.590322484e-13)
(0.0009779287931 0.001957678652 3.589767372e-13)
(0.0009751388351 0.002867456366 3.54868912e-13)
(0.00388652599 0.002751748114 3.449740493e-13)
(0.003997353378 0.001891356735 3.542444116e-13)
(0.004917747047 0.001845876656 3.484018629e-13)
(0.004749839252 0.002674235084 3.368416657e-13)
(0.006570700477 0.002276043765 2.908506769e-13)
(0.006988464789 0.001573729553 3.080730115e-13)
(0.007342035927 0.001448424572 2.877281746e-13)
(0.006833667929 0.00207810791 2.683409051e-13)
(0.006342300823 0.001437131386 1.87308502e-13)
(0.00698855333 0.001033979528 2.063071936e-13)
(0.00640872374 0.0008787660883 1.748601264e-13)
(0.005749167859 0.001206283161 1.569300245e-13)
(0.00313919494 0.0005414413178 6.980527267e-14)
(0.0036996543 0.0004190790052 8.223977055e-14)
(0.002668766443 0.0002861236148 5.587197371e-14)
(0.002186841364 0.000356376089 4.579669977e-14)
(0.0001444853846 2.013513109e-05 2.581268532e-15)
(0.0002482090679 2.276219397e-05 4.413136523e-15)
(6.301471636e-06 5.499527872e-07 1.110223025e-16)
(0 0 0)
(0 0 0)
(0 0 0)
(0 0 0)
(0 0 0)
(0 0 0)
(0 0 0)
(0 0 0)
(0 0 0)
(0 0 0)
(0 0 0)
(0 0 0)
(0 0 0)
(0 0 0)
(0 0 0)
(0 0 0)
(0 0 0)
(0 0 0)
(0 0 0)
(0 0 0)
(0 0 0)
(0 0 0)
(0 0 0)
(0 0 0)
(0 0 0)
(0 0 0)
(0 0 0)
(0 0 0)
(0 0 0)
(-8.890154343e-06 -1.146320016e-06 1.387778781e-16)
(-2.425876366e-07 -2.100289387e-08 0)
(0 0 0)
(-0.0006669153136 -3.219986143e-05 1.168509733e-14)
(-0.0008417663703 -7.959740008e-05 1.475208844e-14)
(-0.001746624115 -0.0001727920086 3.22103455e-14)
(-0.001490145876 -7.493356374e-05 2.749189765e-14)
(-0.004843859206 -0.000276767375 1.059430321e-13)
(-0.005272096415 -0.000605023061 1.152966611e-13)
(-0.006406874316 -0.0007779717594 1.493666302e-13)
(-0.006071055861 -0.0003634611401 1.41595069e-13)
(-0.008409881224 -0.0006073252028 2.446931546e-13)
(-0.008753710857 -0.001303231248 2.545325062e-13)
(-0.008991819453 -0.001454980424 2.848971059e-13)
(-0.008682076676 -0.000679900394 2.752936767e-13)
(-0.007859168982 -0.0008374285256 3.409217353e-13)
(-0.008015266222 -0.00177557382 3.470557175e-13)
(-0.007220056108 -0.001824328269 3.560762796e-13)
(-0.007128768344 -0.0008609678919 3.525513215e-13)
(-0.004186317455 -0.0008513729591 0)
(-0.004237459919 -0.001832515224 0)
(-0.003727472603 -0.001829359465 0)
(-0.003189836407 -0.00180433117 0)
(-0.003160005474 -0.001318694937 0)
(-0.003150118538 -0.0008446225712 0)
(-6.649333271e-05 -0.0008594255767 0)
(-7.172997918e-05 -0.001330879113 0)
(0.0004447698346 -0.00133620284 0)
(0.0004472087127 -0.0008647625687 0)
(0.004086361239 -0.0009441953876 0)
(0.004096397687 -0.001428572323 0)
(0.004110014081 -0.001920491629 0)
(0.00462364609 -0.001941010128 0)
(0.005129923251 -0.001952113023 0)
(0.005118366734 -0.0009795030783 0)
(0.007801737617 -0.001001670401 3.43294837e-13)
(0.007929881731 -0.001943274678 3.491373857e-13)
(0.008549797187 -0.001874709799 3.351346978e-13)
(0.008358670063 -0.0009630730222 3.275157923e-13)
(0.008490356061 -0.0007453498642 2.505079477e-13)
(0.008799470807 -0.001470590361 2.595701432e-13)
(0.008363406716 -0.00129196072 2.279565425e-13)
(0.007981881082 -0.0006475184536 2.176037128e-13)
(0.005166132655 -0.0003376426502 1.146999162e-13)
(0.005650209393 -0.0007033667301 1.254274462e-13)
(0.004454832626 -0.0005190310755 9.313383398e-14)
(0.004012216692 -0.00024439684 8.38912273e-14)
(0.0008945150857 -4.495506216e-05 1.591782262e-14)
(0.001118078258 -0.0001089175861 1.988686993e-14)
(0.000400636176 -3.703616421e-05 6.786238238e-15)
(0.0002725936308 -1.296760074e-05 4.62130334e-15)
(0 0 0)
(0 0 0)
(0 0 0)
(0 0 0)
(0 0 0)
(0 0 0)
(0 0 0)
(0 0 0)
(0 0 0)
(0 0 0)
(0 0 0)
(0 0 0)
(0 0 0)
(0 0 0)
(0 0 0)
(0 0 0)
(0 0 0)
(0 0 0)
(0 0 0)
(0 0 0)
(0 0 0)
(0 0 0)
(0 0 0)
(0 0 0)
(0 0 0)
(0 0 0)
(0 0 0)
(0 0 0)
(-8.010525778e-05 -2.390421156e-05 1.276756478e-15)
(-4.564964066e-05 -1.168686354e-05 7.21644966e-16)
(-3.734538433e-05 -7.982128157e-06 5.967448757e-16)
(-0.001209474146 -0.0002831347202 2.119138198e-14)
(-0.001254317179 -0.000351848932 2.198241589e-14)
(-0.002322694646 -0.0006839251065 4.281297539e-14)
(-0.002261468604 -0.0005555184816 4.168887457e-14)
(-0.006087996942 -0.001756037512 1.329908406e-13)
(-0.006183895306 -0.002141038351 1.350447532e-13)
(-0.007364960268 -0.002711265091 1.71418435e-13)
(-0.007263406882 -0.002226527816 1.691147222e-13)
(-0.009442404126 -0.003586591716 2.738781424e-13)
(-0.009534209722 -0.004352408439 2.763761442e-13)
(-0.009664731479 -0.00480304923 3.051170427e-13)
(-0.009583928406 -0.003962407538 3.027716966e-13)
(-0.008242599278 -0.004656355754 3.552019789e-13)
(-0.008273902066 -0.005618123941 3.560762796e-13)
(-0.007335611533 -0.005674102726 0)
(-0.007323659054 -0.004714461255 3.590322484e-13)
(-0.004303507342 -0.004736523036 0)
(-0.004311699129 -0.005222960742 0)
(-0.003808638608 -0.005225594036 0)
(-0.003800499405 -0.004739922146 0)
(0.00411155424 -0.004814903573 0)
(0.004109107181 -0.005296685359 0)
(0.004611981195 -0.005304222148 0)
(0.004614949936 -0.004823159333 0)
(0.008100395508 -0.004857358748 3.572697693e-13)
(0.008110167007 -0.00582116597 3.5814407e-13)
(0.008928487232 -0.005714485734 3.508582314e-13)
(0.008887031654 -0.004753942572 3.488598299e-13)
(0.009664784805 -0.00389878082 2.853967063e-13)
(0.009784431984 -0.004718963692 2.891298312e-13)
(0.009452835194 -0.00420895254 2.580158309e-13)
(0.009316173603 -0.003469547874 2.541300503e-13)
(0.006634972008 -0.001999969198 1.473265954e-13)
(0.006785739388 -0.002447088577 1.507127756e-13)
(0.005512368781 -0.00186778668 1.152689055e-13)
(0.005370029674 -0.00152006967 1.122713034e-13)
(0.001622237022 -0.0003876341962 2.885192085e-14)
(0.001831913951 -0.0005249504015 3.258504577e-14)
(0.0008738069624 -0.0002380765862 1.480759959e-14)
(0.0007193326266 -0.0001634043075 1.21846977e-14)
(0 0 0)
(0 0 0)
(0 0 0)
(0 0 0)
(0 0 0)
(0 0 0)
(0 0 0)
(0 0 0)
(0 0 0)
(0 0 0)
(0 0 0)
(0 0 0)
(0 0 0)
(0 0 0)
(0 0 0)
(0 0 0)
(0 0 0)
(0 0 0)
(0 0 0)
(0 0 0)
(0 0 0)
(0 0 0)
(0 0 0)
(0 0 0)
(0 0 0)
(0 0 0)
(0 0 0)
(0 0 0)
(-0.0001314967781 -6.146830625e-05 2.095545959e-15)
(-0.0001187681315 -5.05046106e-05 1.887379142e-15)
(-0.0001041935524 -3.990492182e-05 1.665334537e-15)
(-0.001490245534 -0.0006257542128 2.611799665e-14)
(-0.001540925226 -0.0007185414748 2.699229729e-14)
(-0.002687241802 -0.00131631223 4.95159469e-14)
(-0.00262393536 -0.0011572769 4.835021272e-14)
(-0.006565824605 -0.003412489473 1.433020369e-13)
(-0.00664363393 -0.003836215125 1.449673714e-13)
(-0.007811799157 -0.004799292424 1.816047313e-13)
(-0.007736361861 -0.004277717308 1.799116411e-13)
(-0.009796903275 -0.006722707391 2.835093271e-13)
(-0.009850481447 -0.007510491014 2.848971059e-13)
(-0.009919949099 -0.008231837869 3.122779813e-13)
(-0.009876419807 -0.007376828542 3.111261249e-13)
(-0.008335388932 -0.008491431891 3.574501806e-13)
(-0.008349635579 -0.009444917507 3.576722252e-13)
(-0.007375172886 -0.009491625768 0)
(-0.007365904499 -0.008539613686 0)
(-0.004350638482 -0.008572110678 0)
(-0.004355563167 -0.009048444522 0)
(-0.00385379032 -0.009053782295 0)
(-0.003848799441 -0.008577449181 0)
(0.004080554474 -0.008658473071 0)
(0.004075378225 -0.009137606683 0)
(0.004577057457 -0.009143428903 0)
(0.004582319287 -0.008664538975 0)
(0.008097803378 -0.0087048842 3.58990615e-13)
(0.008087069587 -0.009661856881 3.590322484e-13)
(0.008988421028 -0.009560935497 3.549105454e-13)
(0.008986230712 -0.008603127658 3.543554339e-13)
(0.01009291716 -0.007267747291 2.988997938e-13)
(0.01014627622 -0.00811281118 3.007455396e-13)
(0.009912183598 -0.007315131865 2.712274849e-13)
(0.009841228648 -0.006541250554 2.691041834e-13)
(0.007326633626 -0.003946917842 1.628697177e-13)
(0.007434361044 -0.00444658034 1.653399639e-13)
(0.006171071971 -0.003469104731 1.291744489e-13)
(0.006059663075 -0.003067890236 1.268013472e-13)
(0.002100857512 -0.0008998172727 3.738676035e-14)
(0.002186354056 -0.001040058369 3.889943923e-14)
(0.00112751843 -0.0005102073309 1.909583602e-14)
(0.001062932946 -0.0004330352789 1.801336857e-14)
(0 0 0)
(0 0 0)
(0 0 0)
(0 0 0)
(0 0 0)
(0 0 0)
(0 0 0)
(0 0 0)
(0 0 0)
(0 0 0)
(0 0 0)
(0 0 0)
(0 0 0)
(0 0 0)
(0 0 0)
(0 0 0)
(0 0 0)
(0 0 0)
(0 0 0)
(0 0 0)
(0 0 0)
(0 0 0)
(0 0 0)
(0 0 0)
(0 0 0)
(0 0 0)
(0 0 0)
(0 0 0)
(-0.000193973487 -0.0001234018427 3.094746681e-15)
(-0.0001748806629 -0.0001038768296 2.789435349e-15)
(-0.0001578811516 -8.712223862e-05 2.525757381e-15)
(-0.001667040315 -0.001009103367 2.919886555e-14)
(-0.001718124414 -0.001119587942 3.010092176e-14)
(-0.002906298323 -0.001989854045 5.354050536e-14)
(-0.002843560585 -0.001808488818 5.238864897e-14)
(-0.006834174759 -0.005126489189 1.490474411e-13)
(-0.006909507702 -0.005580107779 1.506572644e-13)
(-0.008069311064 -0.00693423962 1.874056466e-13)
(-0.007996600395 -0.006382724395 1.857680676e-13)
(-0.009982888537 -0.009886209786 2.882416528e-13)
(-0.01003376233 -0.01069640421 2.895461648e-13)
(-0.01006924621 -0.01167822436 3.161360063e-13)
(-0.01002823107 -0.01080552012 3.150535388e-13)
(-0.008387054616 -0.01230050941 3.581301922e-13)
(-0.008399441273 -0.01325348042 3.582967256e-13)
(-0.007410701799 -0.01329168072 0)
(-0.007401968651 -0.0123421784 0)
(-0.004388665408 -0.01237456547 0)
(-0.004393282803 -0.01284904905 0)
(-0.003892192741 -0.01285426895 0)
(-0.003889839671 -0.01261700558 0)
(-0.003887488792 -0.0123799408 0)
(0.004033674591 -0.01248728883 0)
(0.004027062042 -0.01296459708 0)
(0.00452817636 -0.01296961865 0)
(0.004534853398 -0.01249246558 0)
(0.008047673813 -0.0125269209 3.590044928e-13)
(0.008032477275 -0.01347683047 3.589351039e-13)
(0.008915885107 -0.01330313259 3.540778781e-13)
(0.008941140573 -0.01238061919 3.545358451e-13)
(0.01007674541 -0.01046828251 2.995104165e-13)
(0.01003042297 -0.01122128705 2.984140712e-13)
(0.009786883061 -0.01010035523 2.68673972e-13)
(0.009836739473 -0.009428407476 2.698119506e-13)
(0.007350294245 -0.005706927133 1.636885072e-13)
(0.007300663671 -0.006101603974 1.626615509e-13)
(0.006042267861 -0.004746391011 1.266625693e-13)
(0.006088494938 -0.004443185933 1.275785033e-13)
(0.002127461197 -0.001314365964 3.787248293e-14)
(0.002099722785 -0.001396455146 3.738676035e-14)
(0.00106363579 -0.0006730186088 1.804112415e-14)
(0.001083262387 -0.0006367125641 1.836031327e-14)
(0 0 0)
(0 0 0)
(0 0 0)
(0 0 0)
(0 0 0)
(0 0 0)
(0 0 0)
(0 0 0)
(0 0 0)
(0 0 0)
(0 0 0)
(0 0 0)
(0 0 0)
(0 0 0)
(0 0 0)
(0 0 0)
(0 0 0)
(0 0 0)
(0 0 0)
(0 0 0)
(0 0 0)
(0 0 0)
(0 0 0)
(0 0 0)
(0 0 0)
(0 0 0)
(0 0 0)
(0 0 0)
(-0.0002777802554 -0.0002236133749 4.427014311e-15)
(-0.0002550782711 -0.0001945739907 4.066191828e-15)
(-0.0002331204616 -0.0001679854399 3.719247132e-15)
(-0.001877827381 -0.001484587967 3.28903571e-14)
(-0.001934085446 -0.001618625184 3.388955783e-14)
(-0.003168656576 -0.002786403812 5.836997552e-14)
(-0.003100754429 -0.002575816859 5.712097462e-14)
(-0.007139855825 -0.006996381154 1.555838791e-13)
(-0.00721923467 -0.00748831832 1.572769692e-13)
(-0.008367030687 -0.009234080582 1.940808625e-13)
(-0.00829092655 -0.008644310895 1.923738946e-13)
(-0.01018720917 -0.01316975154 2.934735788e-13)
(-0.01023925657 -0.01400894772 2.947919686e-13)
(-0.01023362681 -0.01522673716 3.204381205e-13)
(-0.01019220984 -0.01433083527 3.193417752e-13)
(-0.008434254727 -0.01611510276 3.586853037e-13)
(-0.008445046008 -0.01706900585 3.587824482e-13)
(-0.007444643766 -0.01709190765 0)
(-0.007436323759 -0.01614184909 0)
(-0.00442487248 -0.01617408332 0)
(-0.004429207904 -0.01664901136 0)
(-0.003928978605 -0.01665424383 0)
(-0.003926755731 -0.01641678042 0)
(-0.003924511279 -0.01617936138 0)
(0.003977105665 -0.01630024166 0)
(0.003969132416 -0.01677687288 0)
(0.004469766912 -0.0167813816 0)
(0.004477849023 -0.01630488399 0)
(0.007969255163 -0.01629455571 3.581024366e-13)
(0.007937779889 -0.01720902801 3.573807916e-13)
(0.008726003036 -0.01680227162 3.487765632e-13)
(0.008791322446 -0.01597022086 3.508027202e-13)
(0.009691393295 -0.01317206111 2.891992201e-13)
(0.009492932842 -0.01366551442 2.835648383e-13)
(0.009216966015 -0.01223257759 2.538802502e-13)
(0.009380106109 -0.01175516742 2.581546088e-13)
(0.006767697813 -0.006862490969 1.509903313e-13)
(0.006598059876 -0.007082788637 1.472710842e-13)
(0.005348246476 -0.005395275282 1.122713034e-13)
(0.005506766104 -0.005247669692 1.155603391e-13)
(0.001716339689 -0.001384924578 3.058664433e-14)
(0.001624229749 -0.001387343508 2.894906537e-14)
(0.0007220413276 -0.0005868427739 1.225408663e-14)
(0.0007838315314 -0.0006018129804 1.329492072e-14)
(0 0 0)
(0 0 0)
(0 0 0)
(0 0 0)
(0 0 0)
(0 0 0)
(0 0 0)
(0 0 0)
(0 0 0)
(0 0 0)
(0 0 0)
(0 0 0)
(0 0 0)
(0 0 0)
(0 0 0)
(0 0 0)
(0 0 0)
(0 0 0)
(0 0 0)
(0 0 0)
(0 0 0)
(0 0 0)
(0 0 0)
(0 0 0)
(0 0 0)
(0 0 0)
(0 0 0)
(0 0 0)
(-0.0003510714069 -0.0003418621334 5.606626274e-15)
(-0.0003630663753 -0.0003382186088 5.787037516e-15)
(-0.0003314298564 -0.0002947655087 5.287437155e-15)
(-0.002117963829 -0.00206653642 3.709532681e-14)
(-0.002189857168 -0.002237969403 3.83582055e-14)
(-0.003473770274 -0.003730092206 6.397660179e-14)
(-0.003388568192 -0.00347398825 6.240841177e-14)
(-0.007472365619 -0.009034681034 1.626615509e-13)
(-0.007568757293 -0.009583953127 1.647293413e-13)
(-0.008700382939 -0.01171958746 2.015332345e-13)
(-0.008608776973 -0.01107315269 1.994793219e-13)
(-0.01040207879 -0.0165768726 2.98955305e-13)
(-0.01046244755 -0.01745689351 3.004818616e-13)
(-0.01040908376 -0.01888122684 3.249900349e-13)
(-0.01036206166 -0.01795357606 3.237687896e-13)
(-0.008474964468 -0.01992781519 3.590044928e-13)
(-0.008484174415 -0.02087960128 3.590322484e-13)
(-0.007477183249 -0.02089102463 0)
(-0.007469064257 -0.01994118452 0)
(-0.004458116568 -0.01997306012 0)
(-0.004462032279 -0.02044794866 0)
(-0.003962750539 -0.02045306034 0)
(-0.00396074758 -0.0202155283 0)
(-0.003958724505 -0.01997817302 0)
(0.003909758959 -0.02010400592 0)
(0.003900412926 -0.02057905522 0)
(0.004400875288 -0.02058316483 0)
(0.004410375773 -0.02010811724 0)
(0.007807676077 -0.01983897457 3.536893001e-13)
(0.007745107134 -0.02065230156 3.516215097e-13)
(0.008393489885 -0.0198463343 3.37799233e-13)
(0.008497286464 -0.01915460436 3.413797023e-13)
(0.008931923785 -0.01501489105 2.675776267e-13)
(0.008783869108 -0.01547726453 2.634281682e-13)
(0.008317501392 -0.01350005108 2.298300439e-13)
(0.008579560245 -0.0132893676 2.368938379e-13)
(0.005831712172 -0.007300457897 1.303401831e-13)
(0.005466215739 -0.007167641312 1.222077994e-13)
(0.004235043043 -0.005218089226 8.903988657e-14)
(0.00460161365 -0.00541300068 9.670042544e-14)
(0.001152338865 -0.001147769254 2.053912596e-14)
(0.001006366847 -0.001049985842 1.794397964e-14)
(0.0003267958513 -0.0003244843396 5.551115123e-15)
(0.0004113324708 -0.0003898903875 6.980527267e-15)
(0 0 0)
(0 0 0)
(0 0 0)
(0 0 0)
(0 0 0)
(0 0 0)
(0 0 0)
(0 0 0)
(0 0 0)
(0 0 0)
(0 0 0)
(0 0 0)
(0 0 0)
(0 0 0)
(0 0 0)
(0 0 0)
(0 0 0)
(0 0 0)
(0 0 0)
(0 0 0)
(0 0 0)
(0 0 0)
(0 0 0)
(0 0 0)
(0 0 0)
(0 0 0)
(0 0 0)
(0 0 0)
(-0.0006241118075 -0.0007130410041 9.950373858e-15)
(-0.0005690086871 -0.0006260038481 9.076073226e-15)
(-0.0004869897413 -0.0005152592621 7.771561172e-15)
(-0.002420843634 -0.002809637935 4.239664175e-14)
(-0.002600707481 -0.00313822728 4.55330218e-14)
(-0.003941908912 -0.004997227775 7.255307466e-14)
(-0.003722359873 -0.004538973592 6.852851619e-14)
(-0.007894502809 -0.01134728496 1.716404796e-13)
(-0.008038289207 -0.0120110564 1.747074707e-13)
(-0.009125101369 -0.01450155564 2.110256414e-13)
(-0.009008116778 -0.01377146365 2.084166173e-13)
(-0.01066067007 -0.0201741363 3.05561132e-13)
(-0.01069127567 -0.02102776485 3.06213388e-13)
(-0.01061528879 -0.02268804358 3.303746166e-13)
(-0.01056149865 -0.0217221941 3.289868378e-13)
(-0.008510661926 -0.02372923412 0)
(-0.008520081755 -0.0246789716 0)
(-0.007511592621 -0.02468961342 0)
(-0.007506972791 -0.02421490919 0)
(-0.007502484862 -0.02374015937 0)
(-0.00448838072 -0.02377195946 0)
(-0.004490268974 -0.02400909555 0)
(-0.004240560936 -0.02401156387 0)
(-0.004238695478 -0.02377449372 0)
(-0.0001567416179 -0.02387606885 0)
(-0.0001607984182 -0.02399430465 0)
(-0.0001640602545 -0.02411257128 0)
(8.045150353e-05 -0.02411248866 0)
(8.814549681e-05 -0.02387616691 0)
(0.003823977089 -0.0238985854 0)
(0.003810990247 -0.02437160847 0)
(0.003797806284 -0.02484449696 0)
(0.00480168401 -0.02485307978 0)
(0.004826778763 -0.02390669294 0)
(0.004325564988 -0.02390268537 0)
(0.007503773439 -0.02286054322 3.429756479e-13)
(0.007380198259 -0.02342742064 3.380906666e-13)
(0.007841187662 -0.02202917104 3.17856852e-13)
(0.008044428915 -0.02170008966 3.254896352e-13)
(0.00804425878 -0.0161269398 2.419175971e-13)
(0.007756312252 -0.01617850508 2.334660243e-13)
(0.007179285297 -0.01378599506 1.989935994e-13)
(0.007480933329 -0.0138088296 2.07195372e-13)
(0.004530494934 -0.006749337707 1.014188733e-13)
(0.004257771362 -0.006596748438 9.534040224e-14)
(0.003111552166 -0.00452925507 6.550315845e-14)
(0.003351565664 -0.004691130355 7.052691764e-14)
(0.000475822099 -0.0005639950461 8.493206138e-15)
(0.0003867910529 -0.0004768003383 6.911138328e-15)
(3.066299823e-05 -3.598009785e-05 5.134781489e-16)
(5.85839581e-05 -6.609717475e-05 9.992007222e-16)
(0 0 0)
(0 0 0)
(0 0 0)
(0 0 0)
(0 0 0)
(0 0 0)
(0 0 0)
(0 0 0)
(0 0 0)
(0 0 0)
(0 0 0)
(0 0 0)
(0 0 0)
(0 0 0)
(0 0 0)
(0 0 0)
(0 0 0)
(0 0 0)
(0 0 0)
(0 0 0)
(0 0 0)
(0 0 0)
(0 0 0)
(0 0 0)
(0 0 0)
(0 0 0)
(0 0 0)
(0 0 0)
(-0.0005918465264 -0.0007797360934 9.478529073e-15)
(-0.0006688282857 -0.0008527576778 1.071365219e-14)
(-0.0007146820853 -0.0008809077544 1.144917494e-14)
(-0.00287955343 -0.003894048278 5.06539255e-14)
(-0.002786947731 -0.003898569988 4.903022433e-14)
(-0.004153697077 -0.006105272945 7.681355552e-14)
(-0.004264643787 -0.006059758572 7.88813459e-14)
(-0.008391309503 -0.01406128904 1.833255769e-13)
(-0.008254760572 -0.01430720505 1.803002192e-13)
(-0.009321808657 -0.0171860683 2.166600233e-13)
(-0.009455617477 -0.01685541342 2.198519145e-13)
(-0.01087692047 -0.02402026091 3.13471471e-13)
(-0.01078497738 -0.02462555272 3.106404023e-13)
(-0.01062270378 -0.02636996749 3.326228182e-13)
(-0.01069094783 -0.02567185238 3.350097977e-13)
(-0.008436863386 -0.02753872644 0)
(-0.008447344018 -0.02848860669 0)
(-0.007436035974 -0.02849976509 0)
(-0.007430796875 -0.02802493529 0)
(-0.007425555341 -0.02754988485 0)
(-0.004391675338 -0.02758335957 0)
(-0.004396916871 -0.02805841002 0)
(-0.003891284914 -0.02806398898 0)
(-0.00388866293 -0.02782635343 0)
(-0.00388604338 -0.02758893853 0)
(-0.004138859359 -0.02758614905 0)
(-0.0003465100798 -0.02762799245 0)
(-0.0003491292066 -0.02786540735 0)
(-0.0003517509791 -0.0281030429 0)
(0.0001538965149 -0.02810862203 0)
(0.0001591380482 -0.02763357159 0)
(0.003698656629 -0.02767262534 0)
(0.003688175997 -0.02862250559 0)
(0.004682286885 -0.02852396877 3.576722252e-13)
(0.004706392539 -0.02766185164 3.587546926e-13)
(0.007016233143 -0.02499746163 3.238243007e-13)
(0.006847190096 -0.02529515679 3.169131624e-13)
(0.0071528242 -0.02334232594 2.924188669e-13)
(0.007358014237 -0.02317151613 3.001487947e-13)
(0.006754304875 -0.01573584699 2.038647029e-13)
(0.006481963207 -0.01563193802 1.958433415e-13)
(0.005763252368 -0.0127813736 1.601774269e-13)
(0.006158441739 -0.01320080928 1.710576125e-13)
(0.00321248845 -0.00555126225 7.202571872e-14)
(0.002799051249 -0.005003289247 6.276923425e-14)
(0.001900067938 -0.003190818301 4.005129561e-14)
(0.002165395152 -0.003515173106 4.563016631e-14)
(7.962476779e-05 -0.0001094920439 1.415534356e-15)
(3.59651123e-05 -5.116733858e-05 6.383782392e-16)
(0 0 0)
(0 0 0)
(0 0 0)
(0 0 0)
(0 0 0)
(0 0 0)
(0 0 0)
(0 0 0)
(0 0 0)
(0 0 0)
(0 0 0)
(0 0 0)
(0 0 0)
(0 0 0)
(0 0 0)
(0 0 0)
(0 0 0)
(0 0 0)
(0 0 0)
(0 0 0)
(0 0 0)
(0 0 0)
(0 0 0)
(0 0 0)
(0 0 0)
(0 0 0)
(0 0 0)
(0 0 0)
(0 0 0)
(0 0 0)
(-0.0001382631065 -0.0002056708924 2.206568261e-15)
(-0.000250866019 -0.0003625026974 4.024558464e-15)
(-0.0003726874262 -0.0005226822935 5.967448757e-15)
(-0.002135902382 -0.003287393591 3.758104938e-14)
(-0.001825120788 -0.002894726125 3.212707878e-14)
(-0.002970241742 -0.004950738585 5.495603972e-14)
(-0.003359383393 -0.005433280848 6.21447338e-14)
(-0.007233341641 -0.01379497293 1.579847364e-13)
(-0.006707339101 -0.01318438695 1.465216837e-13)
(-0.00776963226 -0.0162437009 1.80577775e-13)
(-0.008302985301 -0.01684191583 1.929428839e-13)
(-0.01000996325 -0.02512630953 2.880196082e-13)
(-0.009570002529 -0.02475469391 2.753630657e-13)
(-0.00962121286 -0.02704115054 3.008149285e-13)
(-0.0099971517 -0.02726973038 3.125832926e-13)
(-0.008384717208 -0.03100117717 3.551603456e-13)
(-0.008252511056 -0.03141517238 3.493039191e-13)
(-0.007412577231 -0.03202703825 3.559930128e-13)
(-0.007462901815 -0.0313312462 3.588240816e-13)
(-0.004433602736 -0.03138332186 0)
(-0.004444085803 -0.03233342275 0)
(-0.003432799823 -0.03234458091 0)
(-0.003422316756 -0.03139448002 0)
(-0.003927970778 -0.03138890081 0)
(-0.0003884367525 -0.03142795474 0)
(-0.0003989198193 -0.03237805564 0)
(0.0006123727797 -0.03238921387 0)
(0.0006228558465 -0.03143911298 0)