/*--------------------------------*- C++ -*----------------------------------*\
| =========                 |                                                 |
| \\      /  F ield         | OpenFOAM: The Open Source CFD Toolbox           |
|  \\    /   O peration     | Version:  v1912                                 |
|   \\  /    A nd           | Website:  www.openfoam.com                      |
|    \\/     M anipulation  |                                                 |
\*---------------------------------------------------------------------------*/
FoamFile
{
    version     2.0;
    format      ascii;
    class       volVectorField;
    location    "1.8";
    object      U;
}
// * * * * * * * * * * * * * * * * * * * * * * * * * * * * * * * * * * * * * //

dimensions      [0 1 -1 0 0 0 0];


internalField   nonuniform List<vector> 
12556
(
(99.99855861 0.003445086957 -3.91797276e-21)
(99.99814225 0.01146489751 3.380605639e-25)
(99.99697424 0.02374890325 -3.908186013e-21)
(99.99503743 0.04305412155 -3.879203775e-21)
(99.99978975 0.03352920556 3.734394163e-21)
(99.99755307 0.05445425141 0)
(99.99627606 0.0867233546 0)
(99.99589947 0.130871713 -6.463122326e-21)
(99.99478017 0.1889198808 7.48015791e-22)
(99.99403963 0.259072613 -4.769552578e-21)
(99.9942658 0.3330283146 6.825655605e-22)
(99.99597036 0.3959116357 0)
(99.99874704 0.429476079 0)
(100.0026261 0.4222095001 1.5714405e-21)
(100.0048767 0.3788827019 -2.045565898e-21)
(100.0057978 0.3143445562 1.059493763e-21)
(100.0055566 0.2447950816 0)
(100.0049642 0.1815733136 1.632292749e-21)
(100.0045826 0.1279631065 6.684535916e-21)
(100.0024512 0.08922550191 -1.851070771e-21)
(100.0096319 0.1009210477 -1.601547217e-20)
(100.0065085 0.06180610665 0)
(100.0047242 0.03271687394 -2.0015318e-21)
(100.0045105 0.01025840362 -1.408266667e-20)
(99.98723751 0.009106115114 1.57057852e-20)
(99.9824305 0.03072505775 3.920117907e-21)
(99.97160974 0.06433402282 2.73611794e-20)
(99.95309697 0.1175218797 -1.171788809e-20)
(99.95640551 0.1577296371 3.76401961e-21)
(99.92816275 0.2589727294 -4.973594488e-23)
(99.89140536 0.4128243492 0)
(99.87164639 0.5510322447 -6.538401309e-21)
(99.83113858 0.8046712952 -6.005732285e-21)
(99.80008873 1.120452634 -1.028591547e-20)
(99.79597464 1.465351694 -4.142208727e-21)
(99.83689923 1.768901489 -2.563863701e-21)
(99.9207169 1.943591077 4.010540883e-22)
(100.0197166 1.931218068 7.115350613e-22)
(100.102138 1.747536026 -6.564165951e-22)
(100.1444289 1.454412825 5.436457184e-21)
(100.1486041 1.13199772 -1.026651079e-20)
(100.1277806 0.8416585206 0)
(100.1326069 0.6268996443 -2.818821688e-20)
(100.0935957 0.424000928 5.411809708e-20)
(100.0907481 0.2880381756 1.550578687e-20)
(100.0624484 0.1757835167 3.182722111e-20)
(100.0462264 0.09342863749 -3.192152018e-20)
(100.0400517 0.02935835957 1.608485416e-20)
(99.96607897 0.01155302625 -1.567081144e-20)
(99.95252892 0.03997053561 -3.148238673e-20)
(99.92312452 0.08618400338 -7.049498053e-20)
(99.87396813 0.161726231 9.376785027e-20)
(99.85020716 0.2465346128 -7.741576719e-21)
(99.76569881 0.417181628 -7.502620796e-21)
(99.65261697 0.6792111962 -1.300826315e-20)
(99.58935133 0.9645970143 0)
(99.45925485 1.445527378 2.495491672e-20)
(99.35601073 2.064151689 1.151585181e-20)
(99.35169144 2.759772221 -1.731313395e-20)
(99.50494411 3.410015093 0)
(99.82253876 3.811338681 3.435561653e-20)
(100.2015297 3.794985812 2.244487365e-21)
(100.4840072 3.389119905 2.504683524e-20)
(100.6082826 2.774555807 3.280630743e-21)
(100.598989 2.12495608 -1.096590347e-20)
(100.5098262 1.541273606 -2.530854746e-20)
(100.4386752 1.06915105 -1.691983339e-19)
(100.3179385 0.7129288552 -3.731247164e-20)
(100.2501877 0.4354210251 -1.585382702e-20)
(100.1755128 0.2633191541 3.600522904e-20)
(100.130559 0.140099615 -4.039959638e-21)
(100.1109015 0.04379271336 0)
(99.94203745 0.008903126392 -7.906536197e-21)
(99.91613097 0.0333253201 5.533160031e-20)
(99.86081989 0.07984183616 -1.583257614e-20)
(99.77040687 0.1597320118 0)
(99.69855487 0.2778147867 0)
(99.53405981 0.4951407117 -6.083583146e-20)
(99.30474402 0.8407774235 -1.216146264e-19)
(99.122244 1.260324554 2.850424089e-20)
(98.81863468 1.957494955 2.699948876e-20)
(98.5650889 2.888612916 5.448262199e-20)
(98.48485499 4.050455942 -8.063976672e-20)
(98.78711948 5.254444346 0)
(99.57299175 6.046085492 -3.000099599e-20)
(100.5404904 6.00182655 2.457759943e-20)
(101.2089211 5.204962497 -1.303971174e-19)
(101.4296079 4.095012665 0)
(101.3477623 3.021181189 0)
(101.1334225 2.135256715 0)
(100.9087387 1.406936996 6.111800055e-20)
(100.6559506 0.9158952992 -4.702331063e-20)
(100.4727831 0.5175622822 -4.052240333e-20)
(100.3337287 0.3094716082 2.048290466e-20)
(100.2470988 0.1623903444 -4.106989513e-21)
(100.2075445 0.05027501256 0)
(99.92730916 -3.573573202e-06 0)
(99.88709923 0.00688680624 0)
(99.80201365 0.03862535155 8.011096284e-21)
(99.66223967 0.1032269502 1.207963493e-20)
(99.53189801 0.2372146693 1.995984215e-20)
(99.26276118 0.4668566404 0)
(98.8849915 0.8364609013 0)
(98.51790352 1.355257387 0)
(97.96504504 2.209037214 0)
(97.39007786 3.468009219 -2.380815673e-19)
(97.01503002 5.257533187 0)
(97.39508181 7.434450726 7.441290079e-20)
(99.06591932 9.064523114 -4.119253974e-20)
(101.2647955 8.900843393 0)
(102.5686095 7.284389671 0)
(102.8098145 5.344757798 -3.904173141e-19)
(102.4762825 3.7281313 1.141144523e-19)
(101.9844025 2.51941504 -4.604012181e-22)
(101.5159224 1.57822082 -1.002247827e-19)
(101.0787435 0.9975807178 8.324445587e-21)
(100.730634 0.5123085381 0)
(100.5110375 0.300686659 4.178413626e-21)
(100.3736168 0.153004761 -3.138269838e-21)
(100.3098582 0.046590478 -1.040359139e-21)
(99.93539728 -0.01552999789 0)
(99.88064383 -0.04056268214 0)
(99.76622327 -0.04166242934 -1.603552605e-20)
(99.57489341 -0.01087333321 3.271274577e-20)
(99.37852148 0.113717324 0)
(98.99629368 0.3106674236 0)
(98.44651286 0.6472462095 2.556455224e-20)
(97.86322171 1.185332797 1.670223113e-19)
(96.96980233 2.056080695 2.054502744e-19)
(95.82875138 3.50785639 2.740734138e-19)
(94.65164834 5.979758593 0)
(94.4819616 9.95172594 0)
(97.87736397 13.88368707 -9.585234569e-20)
(103.0514509 13.10483746 2.734033305e-19)
(105.1539042 9.486400441 4.941609894e-19)
(104.9648324 6.301049248 0)
(104.0133712 4.07184609 3.082374124e-19)
(103.028308 2.597543358 -5.98213297e-20)
(102.2039464 1.515967435 2.573819456e-20)
(101.5374771 0.9178936909 -1.717968083e-20)
(100.9897611 0.4059128251 0)
(100.6776921 0.227669981 0)
(100.485248 0.1073068972 -1.05300782e-21)
(100.3954118 0.03148112955 -3.15551548e-21)
(99.97923154 -0.03726065734 3.928088696e-21)
(99.91150222 -0.1072454339 -3.95802255e-21)
(99.77205262 -0.1579225945 8.077365271e-21)
(99.53596987 -0.1820994181 -2.952003988e-20)
(99.2675155 -0.09301061572 6.016234257e-23)
(98.78505584 0.02699724715 2.528527988e-20)
(98.07751745 0.2676606609 -5.243146039e-20)
(97.29428147 0.7067789616 7.195868328e-20)
(96.01289344 1.426821314 3.139126161e-19)
(94.13900394 2.705912213 4.248000676e-19)
(91.40775136 5.153910975 -1.493552463e-19)
(87.83448912 11.16342546 1.382946802e-18)
(93.65487273 23.08319524 1.439988888e-19)
(108.6429443 19.18126546 -4.568127567e-20)
(109.7933132 11.04101934 0)
(107.9462397 6.380335808 0)
(105.8634183 3.754018148 4.122433163e-19)
(104.1613327 2.227269727 -4.680749671e-19)
(102.864628 1.161308874 0)
(101.9692475 0.6443346618 9.314568733e-21)
(101.2042904 0.1976361311 2.758875055e-21)
(100.800416 0.08539981754 -3.264604122e-21)
(100.556539 0.0249113673 -3.712726605e-21)
(100.4413986 0.00499140754 8.951075039e-21)
(100.0698546 -0.06391045792 -3.928506907e-21)
(99.99240916 -0.1890165875 3.959448383e-21)
(99.83511567 -0.3020300633 -5.027945267e-21)
(99.56728739 -0.3973042465 -3.384749175e-21)
(99.23847576 -0.3686484626 1.443780419e-20)
(98.68039895 -0.3608778639 8.610305991e-21)
(97.86581607 -0.2817096903 -4.480425674e-21)
(96.93008905 -0.03302233909 2.976694131e-19)
(95.36510892 0.3360680162 -3.694467011e-21)
(92.96616773 0.961720938 -5.15765573e-19)
(89.01152862 1.898766518 1.535599123e-20)
(81.34755246 3.489010163 -1.058027842e-20)
(123.2154796 22.45022962 1.572060882e-18)
(116.3734016 9.397360293 -5.800087522e-19)
(111.2476126 4.778695006 -2.449382764e-20)
(107.652653 2.533400043 -1.976394366e-19)
(105.1786944 1.333114555 -6.753017381e-19)
(103.3785624 0.5058528178 -4.93741384e-21)
(102.2879067 0.1903541127 2.101004828e-20)
(101.3240417 -0.106685985 -3.356366699e-21)
(100.8464564 -0.1162554393 2.74711624e-21)
(100.5624022 -0.08903837599 -5.1521467e-22)
(100.4260419 -0.03173219389 -8.396951713e-21)
(100.2152492 -0.09354725783 -1.8975142e-21)
(100.1325096 -0.2798887954 -1.426349715e-21)
(99.96658509 -0.4626140294 -4.88831573e-22)
(99.68361064 -0.6383977502 1.482841994e-21)
(99.31139245 -0.6874427867 -2.754997362e-23)
(98.71686885 -0.8119332814 0)
(97.86667752 -0.9260065307 -1.481090982e-20)
(96.85998196 -0.9158707025 3.045141943e-19)
(95.21481825 -0.9698227968 -5.176530475e-19)
(92.80604732 -1.095956422 3.989632736e-19)
(89.3007201 -1.688659638 0)
(84.95095851 -3.744111844 -5.206070464e-19)
(136.1577966 7.449509208 3.558066902e-18)
(121.0827348 3.063957877 0)
(113.5153876 1.316198158 3.679301949e-20)
(108.8253625 0.4402584295 2.067243631e-19)
(105.8011306 -0.006463973003 -4.500404128e-19)
(103.6275201 -0.3731119804 -5.029870168e-21)
(102.4094179 -0.4065714983 1.178437424e-20)
(101.3113813 -0.4771275635 1.150156849e-21)
(100.789703 -0.3590910903 0)
(100.4818135 -0.2247785893 4.231446797e-21)
(100.3318229 -0.07565712003 4.183085874e-21)
(100.4192371 -0.1238773163 3.740137508e-21)
(100.3360864 -0.372803013 5.57108703e-23)
(100.1715233 -0.6264415462 0)
(99.89125189 -0.8848283292 1.950990473e-22)
(99.49695339 -1.019602395 -1.987329586e-21)
(98.90678881 -1.27821909 2.120456085e-21)
(98.0883931 -1.581511094 3.613993206e-20)
(97.09755993 -1.802387046 0)
(95.54747727 -2.215434563 -1.673784017e-19)
(93.4075856 -2.839133262 3.735273135e-19)
(90.65691323 -3.956812195 -1.258384164e-18)
(87.94148815 -5.682826758 5.371806034e-19)
(133.8572824 -8.55744959 0)
(120.9866091 -4.560453981 7.203079019e-19)
(113.6727769 -2.894247309 -1.353400449e-19)
(108.926173 -2.047447126 -2.041169744e-19)
(105.8230431 -1.562824402 0)
(103.527629 -1.352968023 4.249632459e-20)
(102.2898163 -1.068669316 0)
(101.1437557 -0.8726879091 -1.123080343e-21)
(100.6148019 -0.6179554296 -4.664586001e-21)
(100.3025018 -0.369238601 5.211190284e-22)
(100.1482754 -0.1225293253 0)
(100.6811128 -0.1526895051 -1.842462182e-21)
(100.6021244 -0.4608211133 1.859142573e-21)
(100.4479847 -0.7806562654 1.815344319e-21)
(100.1884145 -1.116985448 -1.698827371e-21)
(99.79067154 -1.336393808 -1.962713456e-21)
(99.24086544 -1.71471425 0)
(98.50365389 -2.181456918 -2.118046701e-21)
(97.58992678 -2.596156508 -3.241487499e-19)
(96.2135643 -3.267701087 -1.595357836e-19)
(94.37315358 -4.174844881 3.487649337e-19)
(92.08783922 -5.451984499 8.923936655e-21)
(89.86531372 -6.882420902 0)
(125.3325044 -17.52408424 8.117622616e-19)
(117.3317045 -10.24249949 4.889062306e-21)
(111.8928731 -6.458141113 2.349936745e-19)
(107.9587899 -4.304469686 2.974926925e-19)
(105.2213493 -3.03723918 0)
(103.0707105 -2.282413818 0)
(101.9285053 -1.707514087 -2.779631454e-20)
(100.8186205 -1.250084277 -1.405655975e-20)
(100.3205273 -0.8656534549 1.066203381e-21)
(100.0228822 -0.5082831866 -3.368371008e-21)
(99.87373408 -0.1678303777 4.934991626e-22)
(100.9958744 -0.1780509268 6.762483523e-21)
(100.9250227 -0.537797616 0)
(100.788133 -0.9124902384 -1.811794459e-21)
(100.5614553 -1.323918628 0)
(100.1728445 -1.614715081 0)
(99.69607995 -2.086854462 -5.845016004e-21)
(99.07113009 -2.680526192 6.240519606e-20)
(98.27310665 -3.243059822 0)
(97.10178765 -4.09136979 1.480927845e-19)
(95.53578685 -5.184923437 2.987677575e-20)
(93.53172148 -6.612219527 6.880619018e-19)
(91.41181676 -8.074466357 3.417354341e-19)
(116.147359 -20.8533039 -1.114625481e-18)
(112.2948043 -13.13834931 6.86203113e-19)
(109.0331945 -8.67747455 0)
(106.265043 -5.913061933 3.47485365e-19)
(104.1406067 -4.188194149 -3.055634308e-19)
(102.3228205 -3.039491882 2.216699296e-21)
(101.3618421 -2.248241227 -3.383976135e-20)
(100.3594851 -1.579390326 8.329074364e-21)
(99.92003611 -1.077322936 0)
(99.65161984 -0.6296374122 3.879039594e-21)
(99.51527567 -0.2075849423 0)
(101.3553919 -0.1992641848 6.753840997e-21)
(101.2950968 -0.6026488088 1.066683217e-19)
(101.1787572 -1.02180822 -2.149723598e-19)
(100.9882783 -1.490027799 -6.091339478e-22)
(100.6463388 -1.833424536 -1.704751291e-21)
(100.2455164 -2.372868571 0)
(99.74932897 -3.053786115 2.240671894e-19)
(99.08498097 -3.713770453 0)
(98.139258 -4.671812673 -4.056844683e-19)
(96.86098874 -5.899790329 2.610116359e-19)
(95.17502551 -7.551113891 -2.97419952e-19)
(93.24324209 -9.326803854 -4.90245459e-19)
(103.8192677 -30.12921507 -1.054286206e-19)
(107.6485645 -19.43567432 -2.133286738e-19)
(107.4108487 -13.57366721 -1.491431321e-19)
(105.9578086 -9.504835599 7.50498826e-20)
(104.2848804 -6.75044619 3.540341559e-20)
(102.8049109 -4.905945173 0)
(101.3961095 -3.553122963 -6.747720877e-20)
(100.6477928 -2.640222855 0)
(99.80507046 -1.826779929 0)
(99.43588311 -1.239667667 1.213024918e-20)
(99.20530458 -0.725287142 2.237069365e-21)
(99.08700794 -0.2389951561 -7.259363705e-21)
(101.7489125 -0.2143090519 0)
(101.7006136 -0.6492634365 0)
(101.6080507 -1.099232103 0)
(101.4559193 -1.599350145 0)
(101.161048 -1.993882215 0)
(100.838809 -2.582305033 0)
(100.4640031 -3.315603176 5.773296627e-20)
(99.95444054 -4.019271478 -2.199795566e-19)
(99.2372922 -5.022284399 1.806168828e-19)
(98.27865983 -6.308952355 1.797228134e-19)
(97.0664436 -8.115773037 0)
(95.84508765 -10.65452907 -5.72880725e-20)
(96.74365064 -19.68786346 -9.498296496e-22)
(102.4844428 -16.01355624 1.154314086e-19)
(103.6336244 -12.36151499 5.296427856e-20)
(103.2665341 -9.270949035 -2.143467306e-19)
(102.3759856 -6.920648413 4.926335197e-19)
(101.4146097 -5.205734079 -8.839863164e-20)
(100.4022027 -3.824802152 -9.397942837e-20)
(99.8611741 -2.879886759 -3.542384166e-20)
(99.19186098 -1.979805256 -1.974963118e-20)
(98.8941913 -1.34897902 1.944856516e-20)
(98.70519062 -0.7910751648 0)
(98.6073048 -0.2605705068 1.946522227e-20)
(102.1654883 -0.2231567635 0)
(102.1299513 -0.6769227151 0)
(102.0632568 -1.144613464 0)
(101.9509562 -1.655772562 0)
(101.7025924 -2.077881636 0)
(101.4682068 -2.683691358 0)
(101.2085801 -3.411107047 -1.311571387e-22)
(100.8529415 -4.129230833 2.935556252e-19)
(100.3556277 -5.102162117 -1.068979451e-22)
(99.71489254 -6.308127378 1.177285948e-20)
(99.06138021 -7.911640021 -9.443667419e-20)
(98.78845092 -10.22262738 -1.530699425e-19)
(98.13522427 -12.76018787 -5.874842782e-20)
(100.3559166 -12.32017066 5.369636927e-20)
(101.2336461 -10.49900553 -1.665476613e-20)
(101.2100874 -8.444736602 5.3160339e-21)
(100.7373085 -6.637290436 -9.343640971e-20)
(100.1313472 -5.189416693 -2.507633953e-20)
(99.42327614 -3.88937287 0)
(99.06918423 -2.979527582 0)
(98.55258723 -2.046698659 -3.673856526e-20)
(98.3219912 -1.405232964 1.813070545e-20)
(98.17362938 -0.8261401229 7.602519381e-22)
(98.09589564 -0.2721335453 -1.340726061e-20)
(102.5936052 -0.2261148361 0)
(102.5700976 -0.6860730169 0)
(102.5277869 -1.158801184 0)
(102.452743 -1.665733079 0)
(102.2482725 -2.098603118 0)
(102.0909396 -2.694933636 0)
(101.9294603 -3.385952874 -5.073647004e-22)
(101.6933434 -4.089278823 8.237622681e-20)
(101.3783602 -4.972058091 -1.598409889e-19)
(100.9626132 -6.007171165 2.201133288e-21)
(100.6153971 -7.232790915 -1.3522395e-19)
(98.13753366 -8.374256835 1.04200423e-19)
(98.98219983 -9.731074883 -1.082416796e-20)
(99.61611407 -9.666541818 4.020579194e-20)
(99.85490495 -8.738491037 0)
(99.74799063 -7.430276157 -7.093018531e-21)
(99.42447684 -6.109173916 -7.317738521e-20)
(99.01914847 -4.946785077 0)
(98.5275132 -3.797429281 -3.098036354e-20)
(98.31025386 -2.963978537 4.710867739e-20)
(97.9172231 -2.042260832 1.142844646e-20)
(97.74450444 -1.414752346 1.952744482e-20)
(97.63162448 -0.8337345065 -2.218278473e-20)
(97.57150929 -0.2745866143 0)
(103.0224853 -0.2239630202 0)
(103.0093979 -0.6791212806 0)
(102.9876881 -1.145783033 0)
(102.9442606 -1.636356078 0)
(102.7791402 -2.066032809 0)
(102.684588 -2.633212546 0)
(102.5989604 -3.267305114 0)
(102.446949 -3.923672278 1.086660649e-21)
(102.2495486 -4.697821468 6.478644332e-20)
(101.9507216 -5.53604674 6.175567989e-20)
(101.6717394 -6.410031339 -3.812278335e-19)
(96.37571512 -6.742346357 -4.047124008e-20)
(99.46822273 -7.829705862 1.691374286e-19)
(99.28181085 -7.824419948 4.69447595e-20)
(99.02819877 -7.285532371 0)
(98.73437004 -6.438835373 -1.467610681e-19)
(98.41117198 -5.497978949 9.883503574e-22)
(98.09680882 -4.584838319 0)
(97.74195916 -3.605510127 0)
(97.60694016 -2.859279648 0)
(97.30869518 -1.98240057 3.964490667e-20)
(97.1814436 -1.385980502 -3.708876332e-20)
(97.09658916 -0.8181821924 -2.507141442e-21)
(97.05030713 -0.2698662406 2.515521533e-21)
(103.4428198 -0.2176546352 0)
(103.4382632 -0.6591426538 0)
(103.4327874 -1.110769688 0)
(103.4142513 -1.575641472 0)
(103.2821673 -1.99063232 0)
(103.2340908 -2.516540056 0)
(103.199861 -3.084832299 0)
(103.0988348 -3.669701154 0)
(102.9565261 -4.325116236 3.412858893e-20)
(102.6807894 -4.989690861 0)
(102.4032626 -5.626369917 0)
(95.1820828 -5.656440666 2.081961427e-19)
(99.67845404 -6.50015312 7.879998747e-20)
(99.04935909 -6.478889689 5.183256761e-20)
(98.4789137 -6.134149298 -9.507484717e-20)
(98.02000502 -5.565108139 1.836474599e-22)
(97.64399469 -4.883483747 0)
(97.34964429 -4.170801151 0)
(97.06137581 -3.3472849 0)
(96.97129005 -2.692625156 0)
(96.73976091 -1.880949328 0)
(96.64538154 -1.326357757 0)
(96.58133941 -0.785511 0)
(96.54528101 -0.2601985816 0)
(103.847353 -0.2081435124 0)
(103.8493979 -0.6292112674 0)
(103.8558477 -1.05909175 0)
(103.855416 -1.49227323 0)
(103.7488687 -1.884403417 0)
(103.7316884 -2.363165993 0)
(103.7267752 -2.864522324 0)
(103.6503122 -3.374265836 0)
(103.5196473 -3.911582942 0)
(103.2229244 -4.433343633 2.269565059e-21)
(102.868786 -4.904458187 -1.740172094e-21)
(95.28152849 -4.949005339 6.423745965e-20)
(99.75726286 -5.48799324 0)
(98.87275764 -5.45486018 -3.070091424e-22)
(98.10377457 -5.217801563 0)
(97.50822993 -4.815933612 0)
(97.06069579 -4.306804336 0)
(96.74791938 -3.745545674 0)
(96.4821609 -3.057826549 0)
(96.40901385 -2.49222335 0)
(96.21800124 -1.754452399 0)
(96.14464323 -1.246778309 0)
(96.09392036 -0.7403003245 0)
(96.06568518 -0.2458733237 0)
(104.2308139 -0.1963595822 0)
(104.2375768 -0.5922997471 0)
(104.2518892 -0.9958697957 0)
(104.2632662 -1.394393457 0)
(104.1751263 -1.758700146 0)
(104.1755016 -2.188657271 0)
(104.1830131 -2.628762858 0)
(104.1116613 -3.065519809 0)
(103.9684225 -3.504553166 0)
(103.6370182 -3.912327086 0)
(103.1643766 -4.260607455 0)
(95.76822668 -4.337023412 0)
(99.8087562 -4.678425201 0)
(98.76006636 -4.646541605 0)
(97.84054204 -4.472355391 0)
(97.13014173 -4.174818576 0)
(96.61006311 -3.785329443 0)
(96.26054618 -3.337609571 0)
(95.99216774 -2.762781151 0)
(95.91672197 -2.277713597 0)
(95.74621855 -1.61553325 0)
(95.68405615 -1.155845734 0)
(95.64047879 -0.6878751532 0)
(95.61695499 -0.2289574149 0)
(104.5897244 -0.1831641848 0)
(104.599489 -0.5511387461 0)
(104.6180584 -0.9256949113 0)
(104.6357731 -1.28889004 0)
(104.5600261 -1.622954411 0)
(104.5673695 -2.005625729 0)
(104.5740093 -2.391129081 0)
(104.4965735 -2.761836034 0)
(104.327775 -3.121429454 0)
(103.956509 -3.443753371 0)
(103.362307 -3.705305263 0)
(96.20491349 -3.793315252 0)
(99.83484704 -4.020251834 -2.10974703e-35)
(98.6740649 -3.989563948 0)
(97.64381432 -3.855543174 0)
(96.84221321 -3.627567613 0)
(96.25580312 -3.322862104 0)
(95.86332075 -2.961895413 0)
(95.57709424 -2.4788387 0)
(95.48770774 -2.062971903 0)
(95.3235661 -1.473239912 0)
(95.26492793 -1.060211592 0)
(95.22366552 -0.6322144366 0)
(95.20249827 -0.2108856664 0)
(104.9221508 -0.1692911995 0)
(104.9334681 -0.5080566863 0)
(104.9533317 -0.8524748522 0)
(104.9728792 -1.181080411 0)
(104.9049815 -1.484469759 0)
(104.9113442 -1.82321576 0)
(104.9080693 -2.160007856 0)
(104.8179044 -2.473797482 0)
(104.617768 -2.769810425 0)
(104.2071108 -3.027923732 0)
(103.5012343 -3.228744712 0)
(96.58460322 -3.324614461 0)
(99.84061413 -3.477254792 0)
(98.60428403 -3.446549815 0)
(97.49116866 -3.339634822 0)
(96.61712868 -3.159959696 0)
(95.97259183 -2.91677797 0)
(95.53732938 -2.622252143 0)
(95.22417941 -2.214311279 0)
(95.1144125 -1.856699189 0)
(94.94704379 -1.333907399 0)
(94.88638511 -0.9647762787 0)
(94.84392155 -0.5762800016 0)
(94.82328488 -0.19264784 0)
(105.2274654 -0.1553220857 0)
(105.2391769 -0.4648833895 0)
(105.2580785 -0.7792979376 0)
(105.275998 -1.074978046 0)
(105.212369 -1.348565913 0)
(105.2123104 -1.647530388 0)
(105.1932728 -1.940393154 0)
(105.0868422 -2.207183138 0)
(104.8538831 -2.452216465 0)
(104.4070444 -2.661539902 0)
(103.6013983 -2.818562814 0)
(96.91244603 -2.921455672 0)
(99.83329656 -3.022585913 -1.927828113e-35)
(98.54579219 -2.992015213 0)
(97.36924403 -2.904461518 0)
(96.43724591 -2.759591649 0)
(95.742624 -2.562121535 0)
(95.26689336 -2.318856409 0)
(94.92327084 -1.97250162 0)
(94.78945946 -1.66397571 0)
(94.61265669 -1.201713952 0)
(94.54624458 -0.872888023 0)
(94.50019379 -0.5221328188 0)
(94.47875618 -0.1749259157 0)
(105.5060666 -0.1416963278 0)
(105.5172783 -0.4229712389 0)
(105.5335947 -0.7084314792 0)
(105.547403 -0.973452114 0)
(105.4853417 -1.218904709 0)
(105.4753497 -1.482284873 0)
(105.4377863 -1.736150761 0)
(105.3126023 -1.964252782 0)
(105.047872 -2.16839202 0)
(104.5689605 -2.340187039 0)
(103.675833 -2.46488741 0)
(97.19595624 -2.573583613 0)
(99.81722734 -2.638282459 0)
(98.49572848 -2.608123014 0)
(97.2696856 -2.535061039 0)
(96.29081136 -2.41613291 0)
(95.55328815 -2.253419291 0)
(95.04030472 -2.050283487 0)
(94.66549397 -1.754611773 0)
(94.50613739 -1.487452061 0)
(94.3161296 -1.079170202 0)
(94.2416136 -0.786681066 0)
(94.19045489 -0.47112089 0)
(94.16728832 -0.1581701699 0)
(105.7590727 -0.1287340293 0)
(105.7691152 -0.3832783185 0)
(105.7817324 -0.6414548036 0)
(105.7897525 -0.8784457168 0)
(105.7272691 -1.097865281 0)
(105.7051988 -1.329676843 0)
(105.6479306 -1.549870193 0)
(105.5030369 -1.745562816 0)
(105.2086868 -1.916793145 0)
(104.7016662 -2.059327353 0)
(103.7329641 -2.15970645 0)
(97.44339421 -2.272729813 0)
(99.79514359 -2.311653342 3.385250592e-36)
(98.45226004 -2.282073846 0)
(97.1870315 -2.220238828 0)
(96.16980341 -2.121206658 0)
(95.39555613 -1.985474276 0)
(94.84878369 -1.814214347 0)
(94.44351977 -1.560448749 0)
(94.25851613 -1.32817362 0)
(94.05323074 -0.9675817134 0)
(93.96926271 -0.7074069425 0)
(93.91211148 -0.4240646592 0)
(93.88660027 -0.142660303 0)
(105.9880836 -0.1166578479 0)
(105.9964749 -0.3464528237 0)
(106.004672 -0.5794111885 0)
(106.0058472 -0.7911731507 0)
(105.9415354 -0.9868601844 0)
(105.906234 -1.190941076 0)
(105.8289889 -1.382314551 0)
(105.664513 -1.550693383 0)
(105.3432096 -1.695301905 0)
(104.8115029 -1.814692095 0)
(103.7783383 -1.896522749 0)
(97.66272405 -2.012405623 0)
(99.76884981 -2.033261339 0)
(98.41408521 -2.004324742 0)
(97.11751389 -1.951397717 0)
(96.06855612 -1.867974245 0)
(95.26279272 -1.753557274 0)
(94.68561074 -1.607934534 0)
(94.25135559 -1.38900743 0)
(94.04142623 -1.186174358 0)
(93.81992506 -0.8674365893 0)
(93.72585888 -0.6356868253 0)
(93.66228745 -0.3813989023 0)
(93.63405259 -0.1285505824 0)
(106.1950219 -0.1056112338 0)
(106.2014308 -0.3128993379 0)
(106.2047856 -0.5229350345 0)
(106.1985192 -0.7123060695 0)
(106.1313784 -0.8866370954 0)
(106.0823739 -1.066552609 0)
(105.985496 -1.233381695 0)
(105.8021644 -1.378682255 0)
(105.4567169 -1.501663735 0)
(104.9031943 -1.602530255 0)
(103.8156252 -1.670062535 0)
(97.86095931 -1.787474713 0)
(99.73957995 -1.795923661 0)
(98.38022363 -1.767618 0)
(97.05842592 -1.721869356 0)
(95.98295521 -1.650894332 0)
(95.15002997 -1.553541527 0)
(94.54557388 -1.428732621 0)
(94.08411499 -1.238905802 0)
(93.85042441 -1.060920697 0)
(93.61244869 -0.7787007493 0)
(93.50810722 -0.5717073237 0)
(93.43799921 -0.3432840202 0)
(93.4068332 -0.1159048346 0)
(106.3820186 -0.09567630604 0)
(106.3862293 -0.2828371411 0)
(106.3845362 -0.4723556754 0)
(106.3705579 -0.6421251753 0)
(106.2998878 -0.7974414963 0)
(106.2371512 -0.9564603205 0)
(106.1213451 -1.102468379 0)
(105.9201955 -1.228270834 0)
(105.5533101 -1.333634557 0)
(104.9803796 -1.419551776 0)
(103.8472908 -1.475961181 0)
(98.04399572 -1.593673659 0)
(99.70820298 -1.593992407 0)
(98.34989166 -1.566271866 0)
(97.00772751 -1.526355751 0)
(95.90989289 -1.465413215 0)
(95.05342828 -1.38184077 0)
(94.42452037 -1.274031765 0)
(93.93772058 -1.108580467 0)
(93.68162903 -0.9515404768 0)
(93.42733143 -0.701016412 0)
(93.31283262 -0.5153699134 0)
(93.23626776 -0.3096971093 0)
(93.20207991 -0.1047256238 0)
(106.5512792 -0.08689221215 0)
(106.5531607 -0.2563567289 0)
(106.5463641 -0.4277942053 0)
(106.5246256 -0.5806647146 0)
(106.4499304 -0.7192204195 0)
(106.3737058 -0.860322305 0)
(106.2398442 -0.988730698 0)
(106.0220751 -1.098122258 0)
(105.6362032 -1.189131881 0)
(105.0458965 -1.262929168 0)
(103.8749784 -1.310631617 0)
(98.2167145 -1.427514081 0)
(99.67539028 -1.423016878 0)
(98.32244659 -1.395823821 0)
(96.96382902 -1.360648081 0)
(95.84695735 -1.307821131 0)
(94.96996158 -1.235414644 0)
(94.31909585 -1.141509105 0)
(93.80876481 -0.9964790968 0)
(93.53167258 -0.8570335041 0)
(93.26142432 -0.6338666339 0)
(93.13705661 -0.4664134033 0)
(93.05422755 -0.2805079071 0)
(93.01700368 -0.09497913162 0)
(106.7050862 -0.07926726855 0)
(106.7045617 -0.2334591717 0)
(106.6926986 -0.3892305701 0)
(106.6632975 -0.5277907355 0)
(106.5841654 -0.6517405172 0)
(106.4948568 -0.7776529413 0)
(106.3437459 -0.8910579444 0)
(106.1107214 -0.9869544115 0)
(105.7079712 -1.06625961 0)
(105.1020027 -1.130206018 0)
(103.8998024 -1.171059089 0)
(98.3830464 -1.286114008 0)
(99.64165626 -1.279446722 0)
(98.29733198 -1.252710445 0)
(96.92543065 -1.221346205 0)
(95.79220325 -1.175058802 0)
(94.89716557 -1.111683561 0)
(94.22648018 -1.029094523 0)
(93.69435743 -0.9011478348 0)
(93.3975962 -0.7763830811 0)
(93.11181436 -0.5766551736 0)
(92.97795555 -0.4244893422 0)
(92.88910619 -0.2555250641 0)
(92.8488733 -0.08660961273 0)
(106.8455226 -0.0727960147 0)
(106.8425648 -0.2141005467 0)
(106.8257321 -0.3565585729 0)
(106.7888604 -0.4833350484 0)
(106.7050413 -0.5946633745 0)
(106.6031624 -0.7078697542 0)
(106.4356465 -0.8083270487 0)
(106.1884987 -0.8935751857 0)
(105.7706925 -0.9633441454 0)
(105.1504944 -1.019282702 0)
(103.9225505 -1.054709567 0)
(98.54600084 -1.167083301 0)
(99.60744729 -1.160471803 9.302729307e-37)
(98.27403682 -1.13409431 0)
(96.89142544 -1.105700353 0)
(95.74402187 -1.064610542 0)
(94.83301399 -1.008494134 0)
(94.14433318 -0.9352620749 0)
(93.59194002 -0.8214152038 0)
(93.2767681 -0.708604228 0)
(92.97598635 -0.5288292745 0)
(92.83304558 -0.3892189549 0)
(92.73843945 -0.2345425803 0)
(92.69526022 -0.07955735967 0)
(106.9752883 -0.06744820125 0)
(106.969847 -0.1981856812 0)
(106.9481246 -0.3296157182 0)
(106.9039876 -0.4469400358 0)
(106.8148678 -0.5476177449 0)
(106.7009354 -0.6503154511 0)
(106.5181036 -0.7400911529 0)
(106.2574144 -0.8168093564 0)
(105.8261008 -0.8789427499 0)
(105.192824 -0.9284469632 0)
(103.9437078 -0.9595392869 0)
(98.70787764 -1.068676822 0)
(99.57312659 -1.063979242 0)
(98.2520315 -1.037728095 0)
(96.86082748 -1.011484918 0)
(95.7010454 -0.9744069361 0)
(94.77582043 -0.9240160108 0)
(94.07089067 -0.8584645943 0)
(93.49914145 -0.7561838536 0)
(93.16682301 -0.6528219187 0)
(92.85111828 -0.4897252262 0)
(92.6994854 -0.3602241099 0)
(92.59933481 -0.2173317496 0)
(92.55323055 -0.07374688634 0)
(107.0945563 -0.0632418816 0)
(107.0867281 -0.1857073388 0)
(107.0602846 -0.3082800466 0)
(107.0091638 -0.4187688961 0)
(106.915783 -0.5101377974 0)
(106.7902652 -0.6043833649 0)
(106.5932932 -0.6865235234 0)
(106.3193688 -0.7555016031 0)
(105.875746 -0.8118306539 0)
(105.2302445 -0.8563131514 0)
(103.9634788 -0.8839402817 0)
(98.87108619 -0.9895421055 0)
(99.53880714 -0.9882942437 0)
(98.23071474 -0.9617527565 0)
(96.83272696 -0.9368631526 0)
(95.66206243 -0.9027358522 0)
(94.72405724 -0.8566844977 0)
(94.00429083 -0.7967716051 0)
(93.41411463 -0.7040518275 0)
(93.06554887 -0.6080424253 0)
(92.736635 -0.4592785867 0)
(92.57671995 -0.33719488 0)
(92.47129224 -0.2037813584 0)
(92.4224312 -0.0691639767 0)
(107.2127036 -0.06002292731 0)
(107.2021297 -0.1763605126 0)
(107.1707793 -0.2922727556 0)
(107.1120524 -0.3967343935 0)
(107.0103179 -0.4820314384 0)
(106.8729931 -0.56992673 0)
(106.6623841 -0.6467761832 0)
(106.3761775 -0.7090265601 0)
(105.9210186 -0.7610352431 0)
(105.2638408 -0.8017388753 0)
(103.9818533 -0.8265717821 0)
(99.0377509 -0.9281603351 0)
(99.50434894 -0.9318103588 0)
(98.20948663 -0.9045287295 0)
(96.80632025 -0.880321395 0)
(95.62600642 -0.8482306319 0)
(94.67634038 -0.8053106863 0)
(93.94261618 -0.7494780599 0)
(93.33527744 -0.66417911 0)
(92.97115413 -0.57433093 0)
(92.62477785 -0.4351249655 0)
(92.45606331 -0.3197097104 0)
(92.34522489 -0.1934841676 0)
(92.29324438 -0.06561218234 0)
(107.3034583 -0.05823015154 0)
(107.2911043 -0.170899573 0)
(107.2559667 -0.2824890904 0)
(107.1923772 -0.3857115335 0)
(107.098187 -0.4626044978 0)
(106.9507171 -0.5462928907 0)
(106.7270209 -0.6199486085 0)
(106.4292322 -0.6767401309 0)
(105.9631452 -0.7257806144 0)
(105.2945973 -0.7638764417 0)
(103.9988274 -0.7867069715 0)
(99.20804711 -0.883427972 0)
(99.46965296 -0.8926668451 0)
(98.18795072 -0.8645659747 0)
(96.78096183 -0.8406283997 0)
(95.59195126 -0.8098167385 0)
(94.63148594 -0.7689668482 0)
(93.88464029 -0.7159045631 0)
(93.2610018 -0.6360658 0)
(92.88219483 -0.5507183708 0)
(92.5366747 -0.4222776934 0)
(92.36197222 -0.3087021007 0)
(92.24696926 -0.1872767791 0)
(92.19301991 -0.06358547606 0)
(107.4750807 -0.05637360349 0)
(107.4589375 -0.1663714578 0)
(107.4165166 -0.2747507738 0)
(107.339918 -0.3728136953 0)
(107.1796 -0.4525743897 0)
(107.0214033 -0.5336380428 0)
(106.7860822 -0.6061503414 0)
(106.4798241 -0.6581053997 0)
(106.003239 -0.7054517376 0)
(105.3235767 -0.7421188056 0)