/*--------------------------------*- C++ -*----------------------------------*\
| =========                 |                                                 |
| \\      /  F ield         | OpenFOAM: The Open Source CFD Toolbox           |
|  \\    /   O peration     | Version:  v1912                                 |
|   \\  /    A nd           | Website:  www.openfoam.com                      |
|    \\/     M anipulation  |                                                 |
\*---------------------------------------------------------------------------*/
FoamFile
{
    version     2.0;
    format      ascii;
    class       surfaceScalarField;
    location    "0.17";
    object      meshPhi;
}
// * * * * * * * * * * * * * * * * * * * * * * * * * * * * * * * * * * * * * //

dimensions      [0 3 -1 0 0 0 0];
oriented        oriented;


internalField   nonuniform List<scalar> 
25162
(
0
0
0
0
0
0
0
0
0
0
0
0
0
0
0
0
0
0
0
0
0
0
0
0
0
0
0
0
0
0
0
0
0
0
0
0
0
0
0
0
0
0
0
0
0
0
0
0
0
0
0
0
0
0
0
0
0
0
0
0
0
0
0
0
0
0
0
0
0
0
0
0
0
0
0
0
0
0
0
0
0
0
0
0
0
0
0
0
0
0
0
0
0
0
0
0
0
0
0
0
0
0
0
0
2.419005456e-10
3.400686236e-08
-3.808196264e-07
0
-1.997113324e-11
3.237621795e-07
0
0
0
0
0
0
0
0
0
0
0
0
0
0
0
0
0
0
0
0
0
0
0
0
0
0
0
0
0
0
0
0
0
0
0
0
0
0
0
0
0
0
0
0
0
0
0
0
0
0
0
0
0
0
0
0
0
0
0
0
0
0
0
0
0
0
-1.048617368e-09
-5.532242917e-07
1.286923954e-07
3.484976633e-06
-5.377771104e-07
-3.055069689e-05
1.322946293e-06
4.317006224e-05
-2.019871354e-07
-8.030562696e-05
-2.112698175e-07
9.017252958e-05
8.475802423e-07
-0.0001053193909
-2.304655761e-06
0.0001045529873
5.443195592e-07
-8.463479778e-05
-1.335795022e-06
7.308995721e-05
1.145827102e-07
-3.270625213e-05
-1.719553453e-07
2.037079696e-05
0
-5.97986475e-07
-1.307237065e-08
0
0
0
0
0
0
0
0
0
0
0
0
0
0
0
0
0
0
0
0
0
0
0
0
0
0
0
0
0
0
0
0
0
0
0
0
0
0
0
0
0
0
0
0
0
0
0
0
0
0
0
-6.062988381e-08
-1.167842322e-06
4.309430347e-07
8.274408797e-06
-4.223778816e-06
-7.079022687e-05
7.136651948e-06
0.0001008362092
-4.143321441e-06
-0.0002015195075
4.305767452e-06
0.0002350168545
7.697688037e-06
-0.0003222725925
-1.31893262e-05
0.0003443197949
1.514952581e-05
-0.0003810059805
-2.287100441e-05
0.0003820926379
8.985246274e-06
-0.000349346906
-1.405321887e-05
0.0003266833049
8.613480966e-08
-0.0002302865525
-3.525983483e-07
0.0001920391104
-4.473745776e-07
-8.003734288e-05
1.438258529e-06
4.956229879e-05
0
-1.196448785e-06
-4.930748765e-08
0
0
0
0
0
0
0
0
0
0
0
0
0
0
0
0
0
0
0
0
0
0
0
0
0
0
0
0
0
0
0
0
0
0
0
0
0
0
0
0
0
0
0
0
0
1.842254009e-08
4.373985206e-07
-5.937161291e-06
-5.19329469e-05
9.867792312e-06
8.828285199e-05
-1.857670306e-05
-0.0002311298997
2.242055225e-05
0.0002848110676
1.106741555e-06
-0.0004436463456
-5.116213248e-06
0.0004914960159
3.778051324e-05
-0.000605811664
-4.725020558e-05
0.0006323147115
5.337049787e-05
-0.0006753723481
-6.393892086e-05
0.0006778472706
3.730835765e-05
-0.0006478886033
-4.700696558e-05
0.0006241119756
4.712148688e-06
-0.0005071641847
-7.90452961e-06
0.0004541036019
-2.007725014e-06
-0.0002810943511
4.163174065e-06
0.0002211077307
-7.927858124e-07
-6.579239933e-05
2.081677428e-06
3.246430696e-05
0
0
0
0
0
0
0
0
0
0
0
0
0
0
0
0
0
0
0
0
0
0
0
0
0
0
0
0
0
0
0
0
0
0
0
0
0
0
0
0
0
0
-1.032627271e-06
-6.132047321e-06
1.945022877e-06
2.623743569e-05
-2.387842651e-05
-0.0001554605788
2.906046547e-05
0.0002149938572
-3.485166456e-05
-0.0004215955561
3.309928088e-05
0.0004927775833
2.244115539e-05
-0.0006688773653
-2.243618381e-05
0.0007078296518
7.091807699e-05
-0.0007929856676
-7.504763069e-05
0.000805561766
8.60792419e-05
-0.0008178929888
-8.821403073e-05
0.0008184787741
7.885172724e-05
-0.000814561309
-8.719503059e-05
0.0008041057137
4.244056928e-05
-0.0007403938071
-4.945442494e-05
0.0006914119015
-1.695284387e-05
-0.000486699002
1.824395438e-05
0.0004107221432
-9.321240875e-06
-0.0001863794738
1.234692426e-05
0.000123728518
-8.262964683e-06
7.909654963e-08
-8.614908444e-08
1.250794827e-07
0
0
0
0
0
0
0
0
0
0
0
0
0
0
0
0
0
0
0
0
0
0
0
0
0
0
0
0
0
0
0
0
0
0
0
1.582444628e-08
4.516830633e-09
1.707826488e-07
-5.646684134e-06
-3.026239846e-05
7.236292518e-06
6.77144388e-05
-4.577957422e-05
-0.000246641465
4.567043051e-05
0.0003279680796
-2.927511805e-05
-0.0005612981022
2.880369876e-05
0.0006315087379
3.959756706e-05
-0.0007926097053
-5.125897457e-05
0.0008275966887
6.75800994e-05
-0.0008573630408
-1.632772947e-05
-3.315581249e-05
0.0004150974902
0.0004241689931
-0.0004131189775
4.416471881e-05
-4.436894924e-05
0.0004133232079
-0.0004257543313
0.0001172882985
0.0008546220158
-0.000433037091
-5.231647521e-05
-6.08024168e-05
-0.0008153547756
5.63027131e-05
-6.411618586e-05
0.0007867861083
-1.583639376e-05
-0.0006212140492
1.197871971e-05
0.0005467731694
-2.090908279e-05
-0.0002945126655
2.441729815e-05
0.0002159829573
-4.269501066e-05
-6.424904101e-07
1.144492404e-06
1.347160072e-05
0
0
0
0
0
0
0
0
0
0
0
0
0
0
0
0
0
0
0
0
0
0
0
0
0
0
0
0
0
0
0
0
0
-6.678042902e-08
0
1.431963165e-07
1.554871565e-06
2.36177046e-06
-1.079600292e-05
-5.053618858e-05
1.125110341e-05
9.874692846e-05
-5.344847635e-05
-0.0003120656375
5.446306085e-05
0.0003961909329
-2.458992392e-05
-0.0006403790648
2.367707689e-05
0.0007086171031
6.507061535e-05
-0.0008363783224
-6.76859964e-05
0.0008469314039
3.83823363e-05
-0.0004289951186
-3.770568668e-05
0.000428318469
-0.0004253100215
4.921216046e-05
-4.85374622e-05
0.0004246353232
-0.0008410178574
8.116805667e-05
-8.466851394e-05
0.000825706205
-1.007333514e-05
-0.0006838289946
8.837168127e-06
0.0006108771584
-3.101688646e-05
-0.0003564036431
3.15971554e-05
0.0002722552127
-7.431561048e-05
-2.685354167e-06
3.440193747e-06
3.245533414e-05
0
0
0
0
0
0
0
0
0
0
0
0
0
0
0
0
0
0
0
0
0
0
0
0
0
0
0
0
0
0
0
0
0
-1.845679498e-07
0
2.374603918e-07
4.199609832e-06
4.718563626e-06
-1.351266328e-05
-6.248561612e-05
1.40084108e-05
0.0001150101765
-5.731395939e-05
-0.000338116146
5.79317981e-05
0.0004240171336
-2.126497404e-05
-0.0006673444562
2.092565359e-05
0.0007323955407
7.11837541e-05
-0.000842085311
-7.16500281e-05
0.0008460159655
4.000672686e-05
-0.0004231072796
-4.000151099e-05
0.0004231020637
-0.0004255761916
4.71543348e-05
-4.69308994e-05
0.0004253527562
-0.0008493477969
8.986029838e-05
-9.072801816e-05
0.0008397854061
-2.957936484e-06
-0.0007140466166
1.524180562e-06
0.0006448034115
-3.468695375e-05
-0.0003934946248
3.505976104e-05
0.0003070729032
-9.127664588e-05
-4.56090885e-06
4.93110589e-06
4.431734927e-05
0
0
0
0
0
0
0
0
0
0
0
0
0
0
0
0
0
0
0
0
0
0
0
0
0
0
0
0
0
0
0
0
0
-2.939965111e-07
0
3.7544814e-07
6.29543083e-06
6.989720572e-06
-1.525648037e-05
-7.00942074e-05
1.576559395e-05
0.0001250609577
-5.958356778e-05
-0.0003531378595
6.02007439e-05
0.0004396575457
-2.035802826e-05
-0.0006813484697
2.003736275e-05
0.0007447562645
7.259726961e-05
-0.0008471469192
-7.288816459e-05
0.0008493699343
3.999477299e-05
-0.0004242580192
-3.98498898e-05
0.000211924544
0.000212188592
-0.0004266444438
4.630944091e-05
-4.616381039e-05
0.0004264988133
-0.0008512885415
8.962036108e-05
-8.865820585e-05
0.0008393353684
-1.250396988e-06
-0.0007072357244
1.26491713e-06
0.0006369063796
-3.442672405e-05
-0.0003860590962
3.398620036e-05
0.0003009508975
-8.928653421e-05
-4.690471828e-06
4.567426332e-06
4.321774387e-05
0
0
0
0
0
0
0
0
0
0
0
0
0
0
0
0
0
0
0
0
0
0
0
0
0
0
0
0
0
0
0
0
0
-4.679410167e-07
0
5.807204274e-07
9.295445557e-06
1.015996583e-05
-1.737408028e-05
-7.943419268e-05
1.794587609e-05
0.0001372110272
-6.205512155e-05
-0.0003710100524
6.268596747e-05
0.000458279202
-1.896802616e-05
-0.0006983872601
1.856288208e-05
0.0007600392004
7.375917396e-05
-0.0008544972901
-7.399342804e-05
0.0008554469705
3.98531883e-05
-0.000427450792
-3.980332583e-05
0.0002136363677
0.0002137645618
-0.0004287210989
4.577860731e-05
-4.564637641e-05
0.000428588868
-0.0008522551952
8.284215241e-05
-7.994580814e-05
0.0008307581813
-4.853260352e-06
-0.0006716842684
2.355363178e-06
0.0006027498577
-3.11887605e-05
-0.000350766263
2.998792167e-05
0.0002682744668
-7.052814519e-05
-3.066897962e-06
2.722095669e-06
3.036791343e-05
0
0
0
0
0
0
0
0
0
0
0
0
0
0
0
0
0
0
0
0
0
0
0
0
0
0
0
0
0
0
0
0
0
-7.293838551e-07
0
7.877571445e-07
1.329465501e-05
1.374932229e-05
-1.983069662e-05
-9.017991874e-05
2.057333352e-05
0.0001508241148
-6.463129085e-05
-0.0003899652957
6.533793769e-05
0.0004777323841
-1.71141654e-05
-0.0007153712825
1.647299303e-05
0.0007749966323
7.454124015e-05
-0.0008607070013
-7.458560698e-05
0.0008608130695
3.964046974e-05
-0.0004302190234
-3.963231723e-05
0.0002149812547
0.0002152296161
-0.0004299616783
4.526207027e-05
-4.524346086e-05
0.0004299430689
-0.0008412101068
7.145144985e-05
-6.78872426e-05
0.000807088647
-6.222084958e-06
-0.0006292136512
1.232492141e-05
0.0005471168109
-2.561462928e-05
-0.0002930869759
2.390068037e-05
0.0002154852371
-4.567017296e-05
-1.286754326e-06
9.300289544e-07
1.49566688e-05
0
0
0
0
0
0
0
0
0
0
0
0
0
0
0
0
0
0
0
0
0
0
0
0
0
0
0
0
0
0
0
0
0
-1.246587763e-06
0
1.958404513e-06
2.024132543e-05
2.307840723e-05
-2.258530947e-05
-0.000104589264
2.465004274e-05
0.0001670933196
-6.758168002e-05
-0.0004130446913
6.752172515e-05
0.0005013983401
-1.400799967e-05
-0.0007369570383
1.633872407e-05
0.0007919379507
7.474775966e-05
-0.0008661828749
-7.451051652e-05
0.0004328246081
0.0004331210237
1.975461433e-05
-0.0002161770793
-1.969624006e-05
0.000216118705
1.882797522e-05
-0.0001075497185
-1.863159403e-05
0.0002150133905
-0.0001076600533
-0.0004305850869
4.529048256e-05
-9.134820009e-05
0.0008618713377
-0.0004307902309
4.556169766e-05
5.90323343e-05
-0.000812330832
-5.211248001e-05
0.0007616094233
-1.613055501e-05
-0.0005585411141
1.61569639e-05
0.0004766518707
-1.835471694e-05
-0.0002315920398
1.652238048e-05
0.0001606506459
-1.846437241e-05
-7.410277547e-08
2.176306541e-09
1.829923077e-06
0
0
0
0
0
0
0
0
0
0
0
0
0
0
0
0
0
0
0
0
0
0
0
0
0
0
0
0
0
0
0
0
0
-2.114038186e-06
0
1.60814706e-06
2.715644124e-05
2.48667335e-05
-2.77867591e-05
-0.0001227050721
2.671570633e-05
0.0001919938473
-7.011850211e-05
-0.0004493975641
6.929339404e-05
0.0005392011276
-8.209873682e-06
-0.0007668518018
1.037105822e-05
0.0008180003292
7.534414905e-05
-0.0008718094125
-7.534414904e-05
0.0004358325003
0.0004359769122
2.026064315e-05
-0.0004358325003
-4.06195887e-05
2.035894556e-05
0.0002177716495
0.0002180608508
4.376675695e-05
-0.0002177716859
-4.37667023e-05
0.0004358325003
-0.000218060869
-0.0008718094125
9.396076282e-05
-9.299931206e-05
0.0008689773191
4.175693976e-05
-0.0007626740506
-3.897609647e-05
0.0007035414613
-1.458214734e-05
-0.0004728107635
1.841819977e-05
0.0003875449276
-1.06626252e-05
-0.000157248724
7.464330206e-06
0.0001014839765
-2.501965709e-06
4.765624983e-08
-2.514938371e-08
0
0
0
0
0
0
0
0
0
0
0
0
0
0
0
0
0
0
0
0
0
0
0
0
0
0
0
0
0
0
0
0
0
0
-8.523368459e-07
0
2.525738368e-07
1.241221042e-05
7.748876693e-06
-1.937437246e-05
-8.821817249e-05
1.605513259e-05
0.0001493566648
-6.12895612e-05
-0.0003939271945
5.667146496e-05
0.0004837351124
-2.170892225e-05
-0.0007234151695
2.553983469e-05
0.0007825784364
6.575591921e-05
-0.0008754792517
-5.67219982e-05
0.000880003881
4.061958871e-05
-0.0008775647836
-8.163418534e-05
0.0008775647836
4.101459661e-05
8.792642899e-05
-0.0008775647836
-8.792642894e-05
0.0008775647836
8.595425936e-05
-0.0008606882488
-8.136980955e-05
0.0008347491903
2.556530237e-05
-0.000682086915
-2.154586056e-05
0.0006108721675
-1.759511393e-05
-0.000369687119
1.610504741e-05
0.000289548824
-3.262873321e-06
-8.938121066e-05
2.85219305e-06
4.665866036e-05
0
0
0
0
0
0
0
0
0
0
0
0
0
0
0
0
0
0
0
0
0
0
0
0
0
0
0
0
0
0
0
0
0
0
0
0
0
-5.304977327e-09
0
0
6.720763325e-08
0
-6.359651443e-06
-2.962378379e-05
3.886555414e-06
6.719366979e-05
-3.806645868e-05
-0.0002529570773
3.104656601e-05
0.000330370158
-3.104231248e-05
-0.0005635698466
3.017588312e-05
0.0006315339078
2.888600046e-05
-0.0007797675193
-2.066029686e-05
0.000809418895
7.179447986e-05
-0.0008514538411
-6.394477878e-05
0.0008542486066
8.204279681e-05
-0.0008375747136
-7.482273921e-05
0.0008220113873
5.995562494e-05
-0.0007319755679
-5.087760531e-05
0.0006858377829
9.219117624e-06
-0.0005062647275
-5.822900307e-06
0.0004374469069
-1.010733895e-05
-0.0002307107408
7.840108729e-06
0.0001685831383
-4.648645536e-07
-3.141898238e-05
1.002119692e-07
8.684651288e-06
0
0
0
0
0
0
0
0
0
0
0
0
0
0
0
0
0
0
0
0
0
0
0
0
0
0
0
0
0
0
0
0
0
0
0
0
0
0
0
0
0
0
-2.18032247e-07
-6.524677937e-08
2.601571436e-08
4.955826971e-06
-1.208921215e-05
-8.810216987e-05
7.474308294e-06
0.0001351183337
-2.080113013e-05
-0.0003044841587
1.649331592e-05
0.0003623011713
3.034937568e-06
-0.0005109107474
1.668285536e-07
0.000547704447
3.503665866e-05
-0.0006120952578
-2.58265872e-05
0.0006182000335
4.377018638e-05
-0.0005928207542
-3.3073191e-05
0.0005704873275
2.392671204e-05
-0.0004666735147
-1.665600948e-05
0.0004219439387
-8.7225487e-08
-0.0002715709518
6.421533827e-07
0.0002203791158
-2.054105936e-06
-8.387792035e-05
8.943514958e-07
4.924954609e-05
5.887435209e-09
-2.164007739e-07
0
0
0
0
0
0
0
0
0
0
0
0
0
0
0
0
0
0
0
0
0
0
0
0
0
0
0
0
0
0
0
0
0
0
0
0
0
0
0
0
0
0
0
0
0
0
0
0
-4.925767528e-07
-2.17989707e-06
5.394716591e-08
1.020530105e-05
-5.085993738e-06
-7.219206668e-05
2.640977614e-06
0.0001007844691
-3.053604723e-06
-0.0001884912027
2.548921744e-06
0.0002137135956
6.302233737e-06
-0.0002635099316
-2.981283368e-06
0.0002697559437
9.317804038e-06
-0.0002561273124
-4.99684231e-06
0.0002416742894
3.464468119e-06
-0.0001762555192
-1.659710238e-06
0.0001497000525
-1.89804503e-07
-6.918414209e-05
-2.101346786e-08
4.572739297e-05
3.753996919e-08
-2.673192565e-06
-1.563148148e-10
2.892850467e-08
0
0
0
0
0
0
0
0
0
0
0
0
0
0
0
0
0
0
0
0
0
0
0
0
0
0
0
0
0
0
0
0
0
0
0
0
0
0
0
0
0
0
0
0
0
0
0
0
0
0
0
0
0
0
-7.193568837e-09
0
0
3.548339261e-07
-3.672759275e-07
-9.785154483e-06
5.126948983e-08
1.51731828e-05
-1.270696638e-07
-2.949750113e-05
8.224209446e-08
3.196733111e-05
2.078103159e-07
-2.94927792e-05
-2.452262684e-08
2.566800317e-05
8.050641693e-08
-1.017226664e-05
-7.921377911e-09
5.611552133e-06
0
0
0
0
0
0
0
0
0
0
0
0
0
0
0
0
0
0
0
0
0
0
0
0
0
0
0
0
0
0
0
0
0
0
0
0
0
0
0
0
0
0
0
0
0
0
0
0
0
0
0
0
0
0
0
0
0
0
0
0
0
0
0
0
0
0
0
0
0
0
0
0
0
0
0
0
0
0
0
0
0
0
0
0
0
0
0
0
0
0
0
0
0
0
0
0
0
0
0
0
0
0
0
0
0
0
0
0
0
0
0
0
0
0
0
0
0
0
0
0
0
0
0
0
0
0
0
0
0
0
0
0
0
0
0
0
0
0
0
0
0
0
0
0
0
0
0
0
0
0
0
0
0
0
0
0
0
0
0
0
0
0
0
0
0
0
0
0
0
0
0
0
0
0
0
0
0
0
0
0
0
0
0
0
0
0
0
0
0
0
0
0
0
0
0
0
0
0
0
0
0
0
0
0
0
0
0
0
0
0
0
0
0
0
0
0
0
0
0
0
0
0
0
0
0
0
0
0
0
0
0
0
0
0
0
0
0
0
0
0
0
0
0
0
0
0
0
0
0
0
0
0
0
0
0
0
0
0
0
0
0
0
0
0
0
0
0
0
0
0
0
0
0
0
0
0
0
0
0
0
0
0
0
0
0
0
0
0
0
0
0
0
0
0
0
0
0
0
0
0
0
0
0
0
0
0
0
0
0
0
0
0
0
0
0
0
0
0
0
0
0
0
0
0
0
0
0
0
0
0
0
0
0
0
0
0
0
0
0
0
0
0
0
0
0
0
0
0
0
0
0
0
0
0
0
0
0
0
0
0
0
0
0
0
0
0
0
0
0
0
0
0
0
0
0
0
0
0
0
0
0
0
0
0
0
0
0
0
0
0
0
0
0
0
0
0
0
0
0
0
0
0
0
0
0
0
0
0
0
0
0
0
0
0
0
0
0
0
0
0
0
0
0
0
0
0
0
0
0
0
0
0
0
0
0
0
0
0
0
0
0
0
0
0
0
0
0
0
0
0
0
0
0
0
0
0
0
0
0
0
0
0
0
0
0
0
0
0
0
0
0
0
0
0
0
0
0
0
0
0
0
0
0
0
0
0
0
0
0
0
0
0
0
0
0
0
0
0
0
0
0
0
0
0
0
0
0
0
0
0
0
0
0
0
0
0
0
0
0
0
0
0
0
0
0
0
0
0
0
0
0
0
0
0
0
0
0
0
0
0
0
0
0
0
0
0
0
0
0
0
0
0
0
0
0
0
0
0
0
0
0
0
0
0
0
0
0
0
0
0
0
0
0
0
0
0
0
0
0
0
0
0
0
0
0
0
0
0
0
0
0
0
0
0
0
0
0
0
0
0
0
0
0
0
0
0
0
0
0
0
0
0
0
0
0
0
0
0
0
0
0
0
0
0
0
0
0
0
0
0
0
0
0
0
0
0
0
0
0
0
0
0
0
0
0
0
0
0
0
0
0
0
0
0
0
0
0
0
0
0
0
0
0
0
0
0
0
0
0
0
0
0
0
0
0
0
0
0
0
0
0
0
0
0
0
0
0
0
0
0
0
0
0
0
0
0
0
0
0
0
0
0
0
0
0
0
0
0
0
0
0
0
0
0
0
0
0
0
0
0
0
0
0
0
0
0
0
0
0
0
0
0
0
0
0
0
0
0
0
0
0
0
0
0
0
0
0
0
0
0
0
0
0
0
0
0
0
0
0
0
0
0
0
0
0
0
0
0
0
0
0
0
0
0
0
0
0
0
0
0
0
0
0
0
0
0
0
0
0
0
0
0
0
0
0
0
0
0
0
0
0
0
0
0
0
0
0
0
0
0
0
0
0
0
0
0
0
0
0
0
0
0
0
0
0
0
0
0
0
0
0
0
0
0
0
0
0
0
0
0
0
0
0
0
0
0
0
0
0
0
0
0
0
0
0
0
0
0
0
0
0
0
0
0
0
0
0
0
0
0
0
0
0
0
0
0
0
0
0
0
0
0
0
0
0
0
0
0
0
0
0
0
0
0
0
0
0
0
0
0
0
0
0
0
0
0
0
0
0
0
0
0
0
0
0
0
0
0
0
0
0
0
0
0
0
0
0
0
0
0
0
0
0
0
0
0
0
0
0
0
0
0
0
0
0
0
0
0
0
0
0
0
0
0
0
0
0
0
0
0
0
0
0
0
0
0
0
0
0
0
0
0
0
0
0
0
0
0
0
0
0
0
0
0
0
0
0
0
0
0
0
0
0
0
0
0
0
0
0
0
0
0
0
0
0
0
0
0
0
0
0
0
0
0
0
0
0
0
0
0
0
0
0
0
0
0
0
0
0
0
0
0
0
0
0
0
0
0
0
0
0
0
0
0
0
0
0
0
0
0
0
0
0
0
0
0
0
0
0
0
0
0
0
0
0
0
0
0
0
0
0
0
0
0
0
0
0
0
0
0
0
0
0
0
0
0
0
0
0
0
0
0
0
0
0
0
0
0
0
0
0
0
0
0
0
0
0
0
0
0
0
0
0
0
0
0
0
0
0
0
0
0
0
0
0
0
0
0
0
0
0
0
0
0
0
0
0
0
0
0
0
0
0
0
0
0
0
0
0
0
0
0
0
0
0
0
0
0
0
0
0
0
0
0
0
0
0
0
0
0
0
0
0
0
0
0
0
0
0
0
0
0
0
0
0
0
0
0
0
0
0
0
0
0
0
0
0
0
0
0
0
0
0
0
0
0
0
0
0
0
0
0
0
0
0
0
0
0
0
0
0
0
0
0
0
0
0
0
0
0
0
0
0
0
0
0
0
0
0
0
0
0
0
0
0
0
0
0
0
0
0
0
0
0
0
0
0
0
0
0
0
0
0
0
0
0
0
0
0
0
0
0
0
0
0
0
0
0
0
0
0
0
0
0
0
0
0
0
0
0
0
0
0
0
0
0
0
0
0
0
0
0
0
0
0
0
0
0
0
0
0
0
0
0
0
0
0
0
0
0
0
0
0
0
0
0
0
0
0
0
0
0
0
0
0
0
0
0
0
0
0
0
0
0
0
0
0
0
0
0
0
0
0
0
0
0
0
0
0
0
0
0
0
0
0
0
0
0
0
0
0
0
0
0
0
0
0
0
0
0
0
0
0
0
0
0
0
0
0
0
0
0
0
0
0
0
0
0
0
0
0
0
0
0
0
0
0
0
0
0
0
0
0
0
0
0
0
0
0
-0.0004233954641
0.0004234097366
3.999245436e-05
-4.730142573e-05
0.0004245657986
4.754544553e-05
-0.0002128172937
-0.0002119925247
5.140796808e-05
-0.0004271697295
-4.954826007e-05
-0.0004239314752
4.010002501e-05
0.0002119881121
0.0002118381111
-4.569350153e-05
0.0004268144931
4.590003478e-05
-0.0002135218529
-0.0002134991735
-4.657829819e-05
-0.0002132213096
-0.0002130780095
-0.0004270607196
3.992107615e-05
0.0002135026741
0.0002134901577
-4.53508352e-05
0.0004280260841
4.506174961e-05
-0.0002138276082
-0.0002139093903
-4.554983865e-05
-0.0002131627091
-0.0002136253975
-0.000429748913
3.972849823e-05
0.0002148062098
0.0002148546747
-4.447100272e-05
0.0004294348463
4.472864615e-05
-0.0004296924897
-0.0004289087179
-4.516321625e-05
-0.000216293333
0.0002162953082
1.97526391e-05
0.0001077670232
-9.447476086e-06
9.48956327e-06
-0.0001078091104
-0.0001077375018
0.0002152551455
1.907735466e-05
-4.449655208e-05
0.0004307868607
4.444452792e-05
-0.0004307348365
-0.0004300510095
-4.438167155e-05
-0.0002178872282
0.0002178872282
2.026064315e-05
0.0002178873295
-2.1736106e-05
2.173638325e-05
-0.0002178876067
-0.0001076967877
-9.300406885e-06
0.0004354854163
-0.0001974505584
1.01388483e-05
1.348038018e-05
-8.417924687e-05
0.0008592954983
-0.0004339485198
-0.0004309764657
4.499985145e-05
4.480888263e-05
-0.000430525889
-4.455574997e-05
-0.0004285126591
0.0004283306792
3.856431614e-05
4.317507305e-05
-0.0004131721762
-4.312187438e-05
0.000427083184
5.074548083e-05
-0.0004264206967
5.493115863e-05
-0.0004224900364
-5.819545348e-05
-1.134996148e-05
0.0001071515599
1.13913014e-05
-0.0001071928999
0.0002159525506
2.572776134e-05
-0.0002165717471
-2.510856489e-05
0.0004243932629
4.73268705e-05
-9.917373839e-05
0.0008465659783
0.0001001912916
-0.0008478128847
9.980867731e-05
-0.0008452155128
-9.885940763e-05
-0.0008455041979
0.0008480571774
7.23293428e-05
-3.96166077e-05
3.964118679e-05
-0.0004239560543
3.963506846e-05
-0.0004230714398
-3.967090822e-05
-1.268515904e-05
0.0001065057916
1.261043711e-05
-0.0001064310697
1.13036826e-05
0.0001065910838
-0.0001065894153
-1.130535111e-05
0.0004267106249
4.641330913e-05
-9.792762901e-05
0.0008517875343
9.829167124e-05
-0.00085219739
-0.0008498092614
-9.879152377e-05
-0.0008528915484
0.0008541099862
7.350774862e-05
-3.952978338e-05
3.955433799e-05
-0.0004270852742
-0.000424284372
-3.959025491e-05
-3.986543661e-05
-0.000425836717
3.989552309e-05
0.0002128212668
0.0002129853637
-2.058812038e-05
0.0001065400613
2.051932607e-05
-0.0002130019921
0.000106530725
2.057674258e-05
0.0001057829156
-0.0002118295921
-2.048320938e-05
0.0001059531433
-1.09875207e-05
0.0001070852291
1.105037878e-05
-0.0001071480872
1.169390251e-05
0.0001066423919
-0.0001063686715
-1.196762292e-05
0.0004280667846
4.573790676e-05
-9.496569435e-05
0.0008519147262
9.625222462e-05
-0.0008548449157
-0.0008518639089
-9.750103892e-05
-0.0008589755833
0.0008593075522
7.439804227e-05
-3.940823669e-05
3.943266371e-05
-0.00042977334
-0.0004274572226
-3.952335273e-05
-3.98960521e-05
-0.0004285238519
3.9824644e-05
0.000214283217
0.0002143120431
-1.033469412e-05
0.0001070902725
1.038515061e-05
-0.000107140729
2.030958569e-05
0.0001067539549
-0.0002136168087
-2.031296658e-05
0.0001068662346
-2.137501514e-05
0.0002143777151
2.145893236e-05
-0.0002144616323
2.177683076e-05
0.00021437848
-2.131889476e-05
-0.0001075419205
-0.0001072944955
-0.0008649018907
7.461898196e-05
0.0004323385422
0.0004326921262
-3.930521552e-05
0.0002163910146
3.934371113e-05
-0.0004327228432
-0.0004302417071
-3.938555296e-05
-1.977121946e-05
-0.0002158002875
0.0002158187687
1.97527383e-05
-1.13096978e-05
0.0001082687957
1.111395159e-05
-0.0001080730495
1.085280675e-05
0.0001071663502
-0.0001072765439
-1.074261308e-05
-0.0001087273937
-1.019401093e-05
0.0001083425451
1.057885953e-05
-2.102799192e-05
0.0002153826789
2.096671649e-05
-0.0002153214035
2.124694976e-05
0.000214973282
-0.000214964788
-2.125544376e-05
-0.0008645198818
7.626911624e-05
0.0004281094983
0.0004354854163
-4.022812588e-05
0.0002175981881
4.022812588e-05
-0.0004354854163
0.0002166790815
-0.0004328484608
-3.931291548e-05
-1.976800569e-05
-0.0002169733695
0.000216953254
1.978812114e-05
-1.045380205e-05
0.000107172279
1.094096645e-05
-0.0001076594434
1.162524804e-05
0.0001071717479
-0.0001074539419
-1.134305404e-05
-0.0004382617658
0.0004382617658
4.06195887e-05
0.0004382617658
-4.337346078e-05
4.337346077e-05
-0.0004382617658
-0.0002177718388
-2.173595315e-05
2.069527758e-05
-0.0002117528211
-2.053694642e-05
0.000105665373
0.000105929117
-2.092972121e-05
-0.0002115860956
2.085829403e-05
0.000105992255
0.0001056652678
-0.0002157736446
1.676012184e-05
-1.632114253e-05
0.0002153346653
-0.0002122496381
0.0002124126334
2.05322823e-05
0.000106613977
1.12810714e-05
-0.0001065913658
0.0001068557218
-0.0001069530047
-1.125267859e-05
4.83257706e-05
0.0004254076953
-4.785040912e-05
-0.0002133748803
-0.0002125081765
2.364833966e-05
-0.0001065951226
-2.325610433e-05
0.000213058609
-1.132916279e-05
0.0001066273528
1.131578697e-05
0.0001057128103
2.068626964e-05
-0.0002117432237
0.0001059208863
0.0002114857567
2.056711609e-05
-0.0002115109049
-2.054196792e-05
4.003977355e-05
-0.0004233941062
-4.001507168e-05
0.0004233694043
2.066274566e-05
-2.05021576e-05
0.0001056668509
0.0001056583177
-1.040737285e-05
0.00010570711
1.041307314e-05
-0.0002113808296
-2.082844536e-05
0.0001056321644
0.0001056473893
-0.0002116060772
2.065011565e-05
0.0001058594737
0.0001057592335
0.0001064352658
1.139814966e-05
-0.0001061395129
0.0001068826251
-0.0001067415561
-1.282622806e-05
2.319079876e-05
0.0002134041455
-0.0002134476621
-2.314728212e-05
1.244562342e-05
-1.247604712e-05
0.0001069130488
-1.149364396e-05
0.0001066087769
1.132013281e-05
-1.132131875e-05
0.0001065832398
0.0001065818448
1.236957027e-05
0.0002130273197
2.319292853e-05
-0.0002130294495
0.000106678238
2.042373371e-05
-0.0002134001723
0.0001066077863
0.0001066818899
-0.0002132505571
-2.069290166e-05
0.0001066734485
-0.0004263439884
-3.995768244e-05
0.000213214258
0.0002132219763
1.059792027e-05
-1.063616211e-05
0.0001067201317
-1.012083185e-05
0.0001066283199
1.017074991e-05
-1.037263491e-05
0.0001057481777
0.0001066584368
1.04795448e-05
0.0002140224077
2.17344231e-05
-0.0001070001019
-0.0001069798981
0.000107041151
-0.0001070200116
-1.10086601e-05
4.504581628e-05
0.0004271649288
-4.51125019e-05
-0.0002134224746
-0.0002136757686
2.205219595e-05
-0.0001067460294
-2.188387743e-05
0.0002136188618
-2.183204284e-05
0.0002139956197
2.185883087e-05
-1.16634363e-05
0.0001068121843
-0.0001069013558
0.0002137471661
1.108256778e-05
1.120904697e-05
0.0004270401243
4.540533067e-05
-0.0002136969218
-0.000213702717
0.000107165763
1.093111806e-05
-0.0001072440743
0.00010709222
-0.0001071262295
-1.030068461e-05
-0.0004285571976
-3.974842703e-05
0.0002142593395
0.000214150233
1.051512497e-05
-1.039302586e-05
0.0001069701209
-1.131283435e-05
0.000107004212
1.147438541e-05
-1.010538945e-05
0.0001067385125
0.0001070083776
1.059701982e-05
0.0002150270762
2.126508738e-05
-0.0002150452139
0.0002146201364
-0.0002146132994
-2.138185222e-05
0.0001078102222
1.180267134e-05
-0.0001079876455
0.0001078775771
-0.0001079435125
-1.124376248e-05
-0.0002158269438
-1.977143499e-05
0.0002158271593
9.393129918e-06
0.0001078425417
-0.0001074056599
-9.83001177e-06
1.175157804e-05
-1.160963485e-05
0.000107735634
-1.138951643e-05
0.0001074450734
1.175466523e-05
-1.111859891e-05
0.0001069721148
0.0001084257166
1.159465719e-05
1.011573118e-05
-0.0001094499949
-4.223862092e-05
0.0004303915686
4.208200654e-05
-0.0002150199127
-0.0002152150415
0.0002152644594
-0.0002151867091
-2.110574218e-05
-1.018972402e-05
0.0001078382548
0.0002197458264
-2.029869736e-05
-0.0002186541084
9.423084211e-06
9.783895123e-06
0.0001071557555
-0.0001074797255
-1.01298321e-05
-0.0002169722774
-1.972942996e-05
0.0002169337017
1.710955729e-05
0.0002136440129
-0.0002137788658
-1.69747044e-05
8.706368725e-06
-8.551196934e-06
0.0001070005837
-2.09959123e-05
0.0002198769093
9.754205396e-06
1.111062401e-05
-1.102929293e-05
0.0001068115244
9.050188657e-06
0.0001068284591
0.0002137019493
1.739335891e-05
-0.000213985751
-0.000840798186
0.0008456957743
7.037114981e-05
3.960111997e-05
-0.0004233615156
3.814635532e-05
-0.0004284089276
-3.873254637e-05
-3.952562526e-05
-0.0004247288752
0.0004246931279
3.956137255e-05
-2.050861844e-05
2.047940774e-05
-0.0002122204274
1.938068958e-05
-0.0002163827225
-1.877161165e-05
-2.17992976e-05
0.0001060665632
4.943833843e-06
-8.921109947e-05
0.0001110088164
1.403356897e-05
-0.000112527689
-1.251469632e-05
-0.0004232808912
0.0004233133443
4.000732047e-05
2.057991548e-05
-0.0002116188765
2.063359587e-05
-0.0002113808615
-2.0633564e-05
-4.007203307e-05
0.0001083936365
1.975418537e-05
-8.807578882e-05
0.0004293294233
4.53674933e-05
-8.77472551e-05
0.0008458496114
9.026262668e-05
-0.0008588301253
-0.0008562344629
-9.398693694e-05
-3.9689899e-05
0.0001080893009
1.89220471e-05
-8.732144902e-05
-2.051517506e-05
0.000215142461
2.067102161e-05
-0.0001076533352
-0.0001076449724
1.037982055e-05
0.0001074881235
-0.0001074676639
-1.040028021e-05
-1.816758569e-05
0.0002135999186
1.826961643e-05
-4.47263483e-05
0.0004300742902
4.36624591e-05
-0.000429010401
0.0004302686058
-4.243115324e-05
-0.0002149856006
-0.0002150904728
2.061900013e-05
-0.0002115714999
-0.0002117645759
-2.049686366e-05
-0.0004224972405
-3.979190687e-05
0.0004227635221
9.120170467e-06
-0.0001051707062
-9.260950229e-06
0.000105311486
-0.0001112938859
6.351529869e-06
-7.817287287e-06
0.0001127596433
-0.0001077055949
-9.192033747e-06
0.000107739842
9.157786733e-06
2.713545354e-05
-2.531157908e-05
0.0002141286762
-0.0001067610404
0.0002134556713
2.41052687e-05
0.0004248625505
4.754226595e-05
-0.0002121927948
-0.0002118862511
0.0001076657952
1.046869097e-05
-0.0001077546656
1.177674588e-05
0.0001076560516
-0.0001080231719
-1.140962555e-05
4.499508364e-05
0.0004287124841
-0.0004288435992
-4.486396852e-05
2.164674278e-05
-2.156774806e-05
0.0002145411417
-2.144612066e-05
0.0002149764218
2.149677505e-05
-2.169319978e-05
0.0002142396369
0.0002143884885
2.163596942e-05
0.0004290121584
4.5026435e-05
-0.0004290435098
1.073688589e-05
0.0001080773813
-0.00010851583
-1.029843717e-05
-0.0001068220287
-1.140996538e-05
0.0001068876105
1.13443836e-05
-1.776637782e-05
0.0002145955524
1.784296039e-05
-0.0001072306102
-0.0001074415248
0.0002073652537
2.160379291e-05
-0.0002073728829
-2.159616367e-05
-0.0004428502607
3.228442686e-05
-9.821778207e-06
-1.51380196e-05
0.0002160303779
0.0002194952537
-0.0002138319692
0.0002180762279
1.25158632e-05
0.000215423162
2.60635196e-05
-0.0002157589202
0.0004364106666
6.080465931e-05
-0.0002189911793
-0.0002101760646
-3.005271201e-05
-3.799537001e-05
2.619135745e-05
-2.655578927e-05
0.0002077296855
0.0001333297975
-0.0001551290951
2.394464141e-05
0.0002146816417
-2.351255782e-05
-0.0001074791556
-0.0001076345697
1.340980496e-05
1.140859204e-05
0.0001085114005
1.275438598e-05
-1.200868672e-05
0.0001102631171
0.0001084360933
1.104027492e-05
0.0002138839146
2.329498503e-05
-0.0001067795728
-0.0001064546854
1.095971444e-05
0.00010649375
-0.0001065052406
-1.09482238e-05
0.0001066747985
1.100918523e-05
-0.0001067242693
1.082659203e-05
0.0001071503537
-0.0001070903881
-1.08865577e-05
0.0001074818591
1.099395753e-05
-0.0001076492246
0.0001070104717
-1.18200769e-05
1.091519283e-05
-0.0001061055876
0.0001103117391
-0.0001416391853
-8.744586919e-06
2.157618235e-05
0.0002140997482
-0.0002140886857
-2.158724484e-05
1.293600216e-05
-1.117824395e-05
0.0001085539809
-1.175055029e-05
0.0001072635104
1.14975115e-05
1.155267675e-05
-1.945196785e-05
0.0001058229907
-9.79236996e-05
0.0001076808765
1.36487622e-05
0.0002141895495
2.159582246e-05
-0.0001070820161
-0.0001071271735
0.0001075348133
9.884450946e-06
-0.0001076388953
-9.780368973e-06
1.99851194e-05
-0.0002153083289
-1.995802834e-05
0.0002152812378
-1.995120834e-05
-0.0002157720933
0.0002157886633
1.993463834e-05
-2.013576503e-05
0.0002152407571
2.020558966e-05
-0.0002153105817
0.000215139621
-2.035445892e-05
-0.0001076952895
-0.0001076050476
-0.0001413685229
-8.530389921e-06
0.0001102090139
8.992197899e-06
0.0001078216458
-0.0001081363615
-8.677482186e-06
1.973662423e-05
-0.0002166360232
-1.972556772e-05
0.0002166249667
-1.972916542e-05
-0.000216929531
1.983903548e-05
0.0001083997387
0.0001084199222
1.986691306e-05
-0.0002160718526
-1.979048231e-05
0.0002159954219
-0.0002165275221
0.0002164948551
1.976929117e-05
0.0001073318915
9.36208041e-06
-0.000107701774
-0.0001098776907
8.299441682e-06
-3.908915651e-05
0.0001406674055
-0.0001046578314
9.267909648e-06
0.0001045100922
-2.057302856e-05
-0.0002117805469
2.06714169e-05
0.0001056759719
0.0001060061866
-1.023308171e-05
1.058563408e-05
-0.0001050103838
1.03526341e-05
-0.0001082670406
-1.196328422e-05
-1.14580816e-05
1.851050386e-05
-0.0001062755448
9.922312254e-05
-0.0001054609222
-9.942865724e-06
-0.0002120517969
-2.079316308e-05
0.0001062461279
0.0001060258034
-2.003539222e-05
-0.0002159599685
0.0002161101966
1.988516409e-05
-1.008963148e-05
1.019876669e-05
-0.0001078147302
4.066941664e-06
-0.0001080034717
-7.357355848e-06
0.000108102938
9.759387872e-06
-0.0001075096918
0.0001077452044
-0.0001076542456
-1.018059036e-05