/*--------------------------------*- C++ -*----------------------------------*\
| =========                 |                                                 |
| \\      /  F ield         | OpenFOAM: The Open Source CFD Toolbox           |
|  \\    /   O peration     | Version:  v1912                                 |
|   \\  /    A nd           | Website:  www.openfoam.com                      |
|    \\/     M anipulation  |                                                 |
\*---------------------------------------------------------------------------*/
FoamFile
{
    version     2.0;
    format      ascii;
    class       volScalarField;
    location    "0.17";
    object      nut;
}
// * * * * * * * * * * * * * * * * * * * * * * * * * * * * * * * * * * * * * //

dimensions      [0 2 -1 0 0 0 0];


internalField   nonuniform List<scalar> 
12556
(
1.155893572
1.155865763
1.155835969
1.155811452
1.156031684
1.156028195
1.156046744
1.156094357
1.156188904
1.156352959
1.156586845
1.017486379
0.9276363961
0.9258459136
1.01344441
1.156630268
1.156382869
1.156239198
1.15611399
1.156066574
1.1558209
1.155830181
1.155853029
1.155877877
1.155164988
1.155076949
1.15498754
1.154918106
1.155130266
1.155156536
1.155274171
1.155571942
1.156018807
1.156802951
1.150750574
0.9481470523
0.8551238542
0.8440065007
0.905110084
1.054221973
1.157240445
1.156336707
1.155683426
1.155360939
1.155006848
1.154987224
1.15504263
1.155121491
1.154393801
1.154248739
1.154108066
1.154021721
1.154253317
1.154368421
1.154667161
1.155291447
1.156404707
1.10112631
0.8548307468
0.7218458601
0.6562312476
0.6597642425
0.7132991819
0.8335062207
1.034060762
1.157140982
1.155635756
1.154866484
1.154237708
1.15417922
1.154240783
1.154359643
1.153615207
1.153413375
1.153231386
1.153150241
1.153429601
1.153722449
1.154443205
1.15562526
1.098179395
0.7922381396
0.6077295827
0.4818455333
0.4425136515
0.451989599
0.5051096889
0.6049280243
0.7645163235
1.030352652
1.156298964
1.154763538
1.153676433
1.153442503
1.15346551
1.153614907
1.152799334
1.152551797
1.152353306
1.152325342
1.152714402
1.153304181
1.154678169
1.156825381
0.8249330269
0.5641786024
0.4004807148
0.3085621737
0.2626026994
0.2786011987
0.3358906292
0.4274963903
0.5646523468
0.7835122206
1.108081074
1.155200863
1.153332038
1.152782867
1.152708634
1.152850258
1.152001887
1.151717235
1.151520471
1.151564184
1.15215987
1.15320103
1.155570834
0.9883408469
0.6431671057
0.4147351734
0.2626565704
0.168107762
0.1330189146
0.1558578213
0.2175669294
0.305683401
0.4281402578
0.6147935576
0.9223120079
1.156290185
1.153235525
1.152208395
1.151961491
1.152075302
1.151183773
1.150877843
1.150724786
1.150959674
1.151806625
1.153484056
1.157127225
0.8357621702
0.5333308598
0.3253889036
0.1819551351
0.08450532922
0.04882813098
0.07847517402
0.1451215633
0.2300599726
0.3419785889
0.5020669785
0.7809571785
1.14712042
1.153411226
1.151730747
1.151217699
1.151254052
1.150460722
1.150145718
1.150054718
1.150531453
1.151619098
1.154198935
1.051312581
0.7501564367
0.4814075421
0.2936807513
0.1622742485
0.06706416258
0.04617573983
0.1132794069
0.1916757946
0.2939976265
0.4389323697
0.690208653
1.036342698
1.153896279
1.15139711
1.150517838
1.150443976
1.149793891
1.14948952
1.149519869
1.150303907
1.151761483
1.155349319
0.9757027809
0.7060432078
0.4711611933
0.3109165115
0.2030737913
0.1395206059
0.06004793235
0.1137393053
0.18288061
0.2763392236
0.4074342657
0.6412407179
0.9543650996
1.154681659
1.151247801
1.149922723
1.149695135
1.14931122
1.149033139
1.149194409
1.150331981
1.152254885
1.156876094
0.9356369475
0.695381359
0.4900786818
0.3499917898
0.2700520992
0.2556069742
0.0864110587
0.1321647627
0.1958412635
0.2838304916
0.4097241279
0.6220549221
0.9030963226
1.155758341
1.151385581
1.149556999
1.149155811
1.148973641
1.148741691
1.149093802
1.150673898
1.153079919
1.158520272
0.9206162764
0.7049167452
0.5219264433
0.3974331547
0.3337582203
0.3570140961
0.1182450478
0.1627168169
0.22352065
0.305614257
0.422873088
0.6270233955
0.8785927982
1.157075224
1.151828016
1.149493432
1.148893173
1.148861302
1.148682456
1.149222588
1.151222461
1.154181525
1.160334012
0.9238252794
0.7312198868
0.5639164392
0.4450456419
0.3730280267
0.3745064146
0.1564641317
0.2060082801
0.2674681557
0.3484720092
0.4608766668
0.6547060698
0.8828525917
1.158707953
1.15262853
1.149800469
1.149013501
1.148907337
1.148795492
1.149598561
1.152096049
1.155479506
1.151151328
0.9430011846
0.777131541
0.619504564
0.5023955644
0.4168085747
0.3252626962
0.03434738083
0.2103921917
0.270237654
0.3344411806
0.4123832233
0.5245962585
0.6997182819
0.9029831078
1.160423133
1.153725508
1.15045561
1.149488059
1.149163049
1.149119246
1.150156517
1.153071911
1.157031103
1.164175133
1.002065267
0.8351974353
0.6983552597
0.5874443654
0.5148749525
0.2861477617
0.06956624837
0.311416614
0.3802852452
0.4352781914
0.5028126946
0.6053623538
0.7632561633
0.9429193566
1.162137156
1.155062841
1.151427845
1.150327444
1.149500156
1.149517313
1.150775697
1.154114944
1.158541064
1.165963826
1.067667664
0.9285097599
0.8072022124
0.7106713455
0.6640932963
0.1453235315
0.1072219987
0.348002711
0.5785204396
0.5870463851
0.6300014198
0.7192950785
0.8585726463
1.009483909
1.16380163
1.156489327
1.152577404
1.151358329
1.149968606
1.150045461
1.151500042
1.155214642
1.160028049
1.167648495
1.166989137
1.056100463
0.9512278003
0.8876706005
0.793486921
0.08307569936
0.1234721101
0.3743491809
0.6515734185
0.8031752199
0.8000160885
0.8647079725
0.9827109813
1.102673233
1.165479513
1.157930422
1.153862227
1.152581063
1.150417372
1.150538283
1.152161192
1.156237738
1.161404467
1.169125019
1.170635031
1.157105057
1.111638499
1.002344314
0.6708199909
0.03857068346
0.1669060052
0.421192928
0.6990595858
0.9291546383
1.027296324
1.043996426
1.137649215
1.173291886
1.166960239
1.159301944
1.155108172
1.153775503
1.150929623
1.151091665
1.152853265
1.157219793
1.162642208
1.170420824
1.171684649
1.15699857
1.101496711
0.9477768438
0.4108996734
0.03673586249
0.2327866175
0.4820028419
0.74632175
0.9492779531
1.073878368
1.139505087
1.170738221
1.174932273
1.168161325
1.160538386
1.156333032
1.154974349
1.15135476
1.151544064
1.153415283
1.158048366
1.163722335
1.171467923
1.172343952
1.156477857
1.095273675
0.8917454529
0.2299912458
0.04890950055
0.2829628283
0.5278758278
0.7714966977
0.959814282
1.079751612
1.142964175
1.172544671
1.176139134
1.169093493
1.161568995
1.157391969
1.156022076
1.151818133
1.152039908
1.154000392
1.158821358
1.164631204
1.172309275
1.172837163
1.155706546
1.088817593
0.8457948858
0.1910605062
0.06028500268
0.301638155
0.5427185163
0.7836849944
0.96812645
1.084304838
1.145483699
1.173789439
1.176965413
1.169842149
1.162481272
1.158356023
1.156976282
1.15215049
1.152399897
1.15443518
1.15943218
1.165388191
1.172975679
1.173102409
1.154733724
1.081711408
0.7912132813
0.169766611
0.07104338143
0.3144261184
0.5542975781
0.792629876
0.9746637874
1.08788295
1.14733315
1.174606578
1.17749202
1.170357629
1.163175538
1.159113773
1.157728288
1.152525464
1.152816764
1.154925619
1.160035169
1.166020059
1.173506362
1.17324623
1.153683465
1.073534412
0.7376271326
0.1560444922
0.08267158116
0.3254823849
0.5639933939
0.7993395666
0.9795874823
1.090665265
1.148688739
1.175101267
1.177791662
1.170765186
1.163791928
1.159793939
1.158397378
1.152748206
1.153081907
1.155264531
1.160501061
1.166563261
1.173942219
1.17331697
1.152540903
1.063216492
0.6934289188
0.1468860812
0.09427939214
0.3350366141
0.5721850628
0.8045762887
0.9831120546
1.092735192
1.149650109
1.175353472
1.17792182
1.170997513
1.164216343
1.1602791
1.158872386
1.153042583
1.153434743
1.155699403
1.161015259
1.167043134
1.174317336
1.173337977
1.151219968
1.049771912
0.6585550696
0.1404406481
0.1052384114
0.3433073373
0.5791387257
0.8087653867
0.9855473446
1.094166445
1.150275005
1.175419012
1.177924986
1.171191706
1.164616318
1.16073163
1.159306919
1.153177697
1.153626917
1.15597496
1.161398406
1.167482557
1.174652
1.17330986
1.149557319
1.03365988
0.6308299616
0.136222323
0.1151937095
0.3504844595
0.5850499635
0.8121296318
0.9871777949
1.095055669
1.150609816
1.175337124
1.177831628
1.171229023
1.164822356
1.160983538
1.159541745
1.153406647
1.153927377
1.156370682
1.161863989
1.167886978
1.174956824
1.173221038
1.147374328
1.016419418
0.6086690796
0.1337061003
0.1240861218
0.3567206165
0.5900667242
0.8147998067
0.9882044591
1.095504738
1.150699678
1.175138237
1.177662765
1.171281373
1.165055984
1.161254101
1.159788025
1.153462406
1.154048472
1.156582894
1.162177723
1.168267744
1.175237741
1.173053802
1.144551931
0.9994296081
0.5909886909
0.1325211714
0.1318553465
0.3621325115
0.5943007547
0.8168673112
0.9887583592
1.09560143
1.150587544
1.174847298
1.177434487
1.171179847
1.165093895
1.16132501
1.159838027
1.153632971
1.154298368
1.1569394
1.162606137
1.168621324
1.175497834
1.172785321
1.141070508
0.9834494728
0.5769430135
0.1324331838
0.1385458387
0.3668232009
0.5978531956
0.8184098104
0.98892788
1.095414223
1.150310488
1.174483998
1.177159035
1.171152445
1.165226447
1.161483532
1.159970159
1.153623297
1.154356233
1.157089985
1.162851925
1.168957771
1.175737115
1.172390165
1.137010143
0.9687981744
0.5658582388
0.1332489778
0.1442814411
0.3708999014
0.6008181043
0.8194960157
0.9887766735
1.094995243
1.149898139
1.174063269
1.176846359
1.170958486
1.165151949
1.161434366
1.159900218
1.153764066
1.154579333
1.157423942
1.163259312
1.169270532
1.175954471
1.171845956
1.132507785
0.9555467717
0.557187612
0.134835766
0.1492058213
0.3744421732
0.6032720669
0.8201895642
0.9883572559
1.094386421
1.149374427
1.173596505
1.176503607
1.17087087
1.165194269
1.161491998
1.159931099
1.153727492
1.154606901
1.157537594
1.163451217
1.169572913
1.176147497
1.171139715
1.127714837
0.9436418123
0.5505459438
0.1370854907
0.1534570348
0.37751777
0.605294494
0.8205571597
0.9877196972
1.093624367
1.148760308
1.173092735
1.176134206
1.170597463
1.165023681
1.161340998
1.159761358
1.153836746
1.154800412
1.15784527
1.163843072
1.16985404
1.176312976
1.170269597
1.122763801
0.9329925508
0.5455416324
0.1398954522
0.1571767827
0.3802082249
0.606974474
0.820669358
0.9869132507
1.092742442
1.148073939
1.172559164
1.175743506
1.170446524
1.164968039
1.161292882
1.159686801
1.153801038
1.154821777
1.157943729
1.163998838
1.170127701
1.176445936
1.169241191
1.117762015
0.9234922246
0.5418683379
0.1431832526
0.160501366
0.3826023174
0.6083967086
0.8205942083
0.9859844998
1.091771316
1.147332074
1.172001751
1.175330411
1.170141315
1.164762116
1.161103657
1.159482825
1.153830623
1.154940822
1.15818705
1.164351475
1.170379125
1.17654413
1.168067999
1.112792144
0.9150360092
0.5393035713
0.146876617
0.1635353266
0.3847745245
0.6096463595
0.8203934095
0.9849760503
1.090739072
1.146551632
1.171427501
1.174907975
1.169914234
1.164617236
1.160969
1.159323414
1.15381929
1.15497696
1.158289667
1.164502379
1.170625498
1.17660871
1.166779848
1.107909057
0.9075154362
0.5376502404
0.1509064442
0.1663575998
0.3867861404
0.6107744347
0.820119769
0.9839245324
1.089669559
1.145745239
1.17085156
1.174477504
1.16968794
1.164459421
1.160818657
1.159161232
1.153842837
1.155110025
1.15857642
1.164926158
1.170872758
1.176659195
1.165462411
1.103158371
0.9008385429
0.5367226692
0.1551832991
0.1690327163
0.3886884073
0.6118193745
0.8198053001
0.9828538291
1.088577213
1.144919346
1.170338777
1.174107593
1.1693124
1.164171143
1.160538507
1.158851803
0.1255167993
0.05397189303
0.03947114257
0.2423024838
0.07964559774
0.05712958892
0.3459233191
0.1120957617
0.08344961258
0.3778600377
0.1432037273
0.1168408718
0.3349767514
0.0249561704
0.03253103502
0.1862645036
0.1475852313
0.3237480233
0.04955524472
0.02577556534
0.06557519695
0.2564987459
0.1900116178
0.06543538012
0.0493890713
0.04054109536
0.07474578858
0.02843430801
0.01692981668
0.05733912871
0.09645641628
0.09577250819
0.2526769057
0.2385108022
0.1447218978
0.01832951121
0.02856346987
0.08287461697
0.1139019144
0.0994653502
0.3195265726
0.3330377553
0.2507822042
0.2945086557
0.1886415868
0.2079123829
0.03347233457
0.02311874698
0.1141069572
0.1427162325
0.1201531465
0.366304505
0.370580486
0.3429467254
0.3793502532
0.1296121539
0.1635656816
0.06852149661
0.04757273572
0.4023424189
0.3412156557
0.3690304416
0.3608896831
0.08058488824
0.1036961269
0.01763615933
0.1168356724
0.09832641359
0.4839116432
0.3916041578
0.3369227517
0.3069402728
0.03338283363
0.0536407205
0.3048834563
0.07080581064
0.0507311513
0.05528507419
0.1201350452
0.02635138579
0.05007898681
0.02943081615
0.03035127835
0.04478266369
0.03102644014
0.0425127022
0.2104025373
0.2279755551
0.200945249
0.1801149073
0.1716885092
0.1323520866
0.1819137876
0.02286081217
0.01820921188
0.06878301894
0.02816272648
0.03224349433
0.04118666295
0.02833143678
0.06710094685
0.1657950202
0.185660777
0.3079108181
0.1473274038
0.1272751894
0.1703893472
0.1489767001
0.04495075233
0.03434989329
0.09966768966
0.05040013687
0.06737726018
0.03261690148
0.04813460906
0.09542199004
0.1049630085
0.1281857201
0.3815923002
0.1044075778
0.08131291767
0.126089038
0.105599612
0.09486525536
0.07196388188
0.05460655467
0.07892482573
0.350458027
0.01813204346
0.05638991141
0.03474944084
0.0803375515
0.05791096488
0.01804603568
0.1282348459
0.1189973731
0.01783155008
0.00492894378
0.03314369821
0.3031005198
0.04052436552
0.02069017467
0.01291579731
0.03438672936
0.02098988346
0.03865328988
0.1890537903
0.1321262819
0.07843359636
0.08220928461
0.05423651615
0.03112435324
0.01037296661
0.007977274949
0.1856995401
0.2188154072
0.1291304913
0.01514806665
0.1493011442
0.1810155234
0.1513499813
0.01652062917
0.03681137164
0.03218081152
0.04882525074
0.1460220873
0.1331118012
0.1181421746
0.06014484747
0.09106776601
0.04147071547
0.01138324847
0.02088507126
0.01937609071
0.02847867014
0.04283119253
0.03132217296
0.02299469886
0.131250895
0.09251654891
0.1102591
0.07019232737
0.08963126605
0.1280646035
0.01878442388
0.01801056645
0.03012543784
0.01951457869
0.03270307427
0.02567146506
0.0169800474
0.02609340686
0.01886024186
0.009130072551
0.02015319382
0.01225186555
0.009258072741
0.01081630137
0.01899565854
0.02396932149
0.02449289629
0.02829605974
0.0275671134
0.01435138651
0.01511760916
0.05895402403
0.01353448725
0.01823751686
0.01471083019
0.01365753727
0.05586234772
0.0939044276
0.2458541537
0.2357000567
0.04670152412
0.03928454437
0.01674764234
0.04890639516
0.1901334444
0.1798175149
0.2044263137
0.194353596
0.04922275512
0.04859856322
0.04185404082
0.07840123592
0.06297293455
0.05002324761
0.04040403854
0.06256460454
0.08771469259
0.032054169
0.02151813408
0.01322305295
0.0464903598
0.023846244
0.03535803633
0.02341985746
0.05011123903
0.03825595049
0.03863454972
0.1796456358
0.03238282292
0.1792587776
0.1765392042
0.03571799985
0.03946256263
0.03274924899
0.03526675273
0.1893690123
0.02180287812
0.02160570155
0.03048092087
0.0691527398
0.06429609246
0.07569822259
0.07092069933
0.03068639371
0.0347800997
0.0553805622
0.04989922777
0.06245952598
0.0569774751
0.03402957128
0.1376512457
0.1363510303
0.1608610894
0.159534322
0.04208630112
0.01445714113
0.04103946351
0.09606855526
0.09441226592
0.115450085
0.1140692311
0.0193453867
0.02783537337
0.08204486348
0.0213758022
0.0146606726
0.07048892028
0.2185185399
0.2080908453
0.2322200921
0.2219442166
0.07173291703
0.01854141046
0.05207129226
0.05107803034
0.07381003123
0.07300967162
0.01192988897
0.02053641908
0.05776094148
0.04939983753
0.175806659
0.1690839555
0.02698908381
0.01340781401
0.02219167174
0.01941641898
0.03298806926
0.01500783332
0.01917660513
0.01625850996
0.03306791674
0.0324268138
0.01833346034
0.01962883849
0.004294165305
0.01629646787
0.0162592622
0.6198287489
0.397365833
0.3856896013
0.2717049832
0.01059836977
0.005490376752
0.1031557783
0.2842411711
0.2693057689
0.005612176289
0.01629671916
0.01630407191
0.06948409546
0.06095447131
0.02208560597
0.1596569423
0.1506449476
0.0507810129
0.008258658942
0.01392288237
0.01101155959
0.007982953006
0.01113361564
0.007997515634
0.01986750089
0.008252191588
0.008072800332
0.02647839989
0.03093999019
0.01138257703
0.01352976459
0.0112408579
0.01165084904
0.0242623917
0.14174033
0.2951824785
0.2863913672
0.3065273616
0.2980634053
0.1445553082
0.2587820954
0.2490185706
0.09507975544
0.03657733925
0.1014929026
0.09679932891
0.01498371237
0.02515746413
0.05459860127
0.03396371542
0.009317735383
0.008329431225
0.04021158739
0.04097202162
0.03599503297
0.04811016243
0.04268419907
0.04189569416
0.02233016843
0.01050916527
0.01112515649
0.01901143821
0.1744341008
0.3171821461
0.3092464241
0.06126533246
0.06302243603
0.1311806549
0.01418822211
0.01524840603
0.03692763602
0.05704924661
0.1010963064
0.09408839173
0.03717595076
0.08309289433
0.07762552323
0.09151929058
0.08516817078
0.03807388942
0.1168817558
0.2713122204
0.2619177809
0.2834244418
0.2743955648
0.11846804
0.1009327276
0.03904419456
0.03975882697
0.02283433832
0.02371078546
0.08533667109
0.1217580078
0.05735342418
0.06088047343
0.04004863739
0.04070987537
0.1091588065
0.08553034656
0.02917589997
0.03896248937
0.0121864727
0.01801090428
0.05414420091
0.04211337587
0.07752513908
0.02220926381
0.02268675297
0.02172295622
0.0669288174
0.01710051855
0.004474055337
0.1333848933
0.120182749
0.09523193357
0.09156314215
0.03296081792
0.01978186885
0.02263188659
0.04572447649
0.02050716492
0.01358289501
0.02364869279
0.02427061811
0.002820977903
0.03395016497
0.0220915327
0.01067063885
0.006777736652
0.01111078016
0.01446264598
0.01398525982
0.01761179626
0.01641682304
0.01173567597
0.03891917767
0.04032066208
0.01380740947
0.0105706736
0.006626642855
0.01110013079
0.01508041744
0.01600674221
0.01570578565
0.02669668972
0.01617377073
0.01563098794
0.01761891956
0.01845239622
0.02079032616
0.01755192365
0.01622167289
0.01845421662
0.01779914575
0.01541093274
0.01882289363
0.01843242524
0.01936302179
0.01871215814
0.0163964131
0.008971235184
0.01784507497
0.01588756659
0.01753800354
0.01803074393
0.01544286609
0.01369098696
0.01182425692
0.008110265641
0.008139698399
0.02116074347
0.02594178663
0.008041519674
0.008083478334
0.01103937281
0.01132482156
0.03010760217
0.01281792981
0.01225478948
0.01201133186
0.01288618518
0.01203410926
0.02504164091
0.01168316419
0.01100140237
0.01428719717
0.01430631835
0.01461298124
0.03214376531
0.02897307648
0.01405811756
0.02407294227
0.02103000518
0.02792390739
0.02525631506
0.01387568439
0.0174437483
0.02186700121
0.01878397075
0.1091215354
0.1031205863
0.04069541364
0.05132692149
0.1155877383
0.1107278024
0.04449401467
0.04375601761
0.06431545552
0.06696677895
0.07976743791
0.05030762457
0.06296669039
0.06493531231
0.05849878578
0.1144120398
0.1142118309
0.0853763532
0.1057714117
0.05844976706
0.0355063467
0.03716265803
0.04633549748
0.03079152163
0.03440392719
0.01330046265
0.0123885576
0.03574852626
0.008679553753
0.008854984269
0.007274465411
0.01334844937
0.01594471125
0.009250411763
0.01344073337
0.03603072498
0.01879921012
0.01396967973
0.03066793473
0.0908847083
0.08088212326
0.09596014261
0.09289446802
0.03173471538
0.07377947054
0.07193941307
0.07800193567
0.07443607662
0.03706337301
0.1076963066
0.1046709036
0.1124160045
0.1087391193
0.03761014555
0.03377126457
0.09978678704
0.09697847026
0.1036713898
0.1007419856
0.03408665868
0.009695066228
0.01027349585
0.02217128271
0.0198710578
0.006242122431
0.00955796665
0.04501222979
0.04430126215
0.04705563867
0.04525633922
0.04295980487
0.04196548691
0.04406057448
0.0432242723
0.06910806312
0.0674236285
0.07136559316
0.06968409975
0.06255058479
0.04964194962
0.06672917441
0.06487357153
0.01618251914
0.01418646231
0.02010820197
0.01730402938
0.009462705649
0.01208584276
0.01189696893
0.0135345485
0.01206117537
0.03810967626
0.03870141793
0.0997412325
0.02287702356
0.02264815165
0.0235476425
0.02306191655
0.02194324114
0.08750653107
0.02444230829
0.03592024762
0.04279407115
0.05556434455
0.1202297687
0.03922386557
0.0257715287
0.04182887979
0.03891940684
0.02433742811
0.02378095407
0.0253099391
0.0245628858
0.1103564829
0.04092756524
0.04178377719
0.01103990076
0.0178556189
0.01579279746
0.01596846575
0.01522034258
0.01682007995
0.01217952499
0.01828070863
0.01615913289
0.01710088873
0.05352521198
0.04712227181
0.02160003652
0.02209337596
0.07665028503
0.06904274895
0.0206790929
0.02153715357
0.01633292734
0.0318712095
0.08922723613
0.08151266268
0.01662391028
0.0150138593
0.01977255534
0.0139404304
0.01692079766
0.02042234502
0.03384671805
0.01152768589
0.01834361203
0.01377769688
0.01814876426
0.02295159944
0.04707966649
0.09943503619
0.1266719327
0.01623673049
0.01601193269
0.1915560683
0.2366980942
0.1928259372
0.01156068965
0.02173902986
0.01841034332
0.01862449153
0.1132566991
0.1373136861
0.1615556963
0.004484707915
0.006586016245
0.004875704066
0.00500380778
0.005303625657
0.004222138624
0.04973105221
0.03101988601
0.01964445797
0.0231168718
0.02087345389
0.022979624
0.197304321
0.2909681687
0.3108380978
0.2702764142
0.2841919331
0.2000292235
0.02758402639
0.02375760769
0.01772991566
0.04150537038
0.04942984004
0.106281183
0.1220186911
0.1171327449
0.0517964506
0.02328067871
0.01952129375
0.03446926371
0.3205823726
0.3197453875
0.1771565695
0.1429970414
0.06804186596
0.07141702533
0.07417159018
0.08375314073
0.1538645509
0.06222719513
0.1293527365
0.1237283103
0.0173523446
0.01750844336
0.0181088864
0.02153393872
0.0218466543
0.035636715
0.01772614231
0.0163922493
0.01681372503
0.01849475641
0.03394180974
0.02913204585
0.02062819188
0.03418760006
0.02107791147
0.02125815286
0.02105025583
0.01032887864
0.0151794076
0.01707518011
0.01694115464
0.01656724272
0.01632331423
0.01826609596
0.03646717887
0.04058302886
0.03433192187
0.0306670125
0.02219227683
0.02799127647
0.01564296035
0.01587641703
0.01591322302
0.01194750868
0.01181147744
0.01667589246
0.01560823688
0.02011451533
0.01295349497
0.009258146185
0.01091592644
0.01285424997
0.01236525581
0.008726044911
0.01070203394
0.01410298255
0.01511269611
0.01505627425
0.01026236955
0.01456555148
0.01457459434
0.03664279255
0.03311386351
0.01531230822
0.0147835029
0.01309455363
0.01318264477
0.01708250746
0.0174394874
0.01730659258
0.04692415717
0.03710568047
0.04242602291
0.0634347304
0.0815786492
0.0848124664
0.0418538721
0.064841407
0.06178013331
0.08405653396
0.08283708437
0.06161256367
0.02787617304
0.03396220754
0.03231207937
0.02513927515
0.02549992234
0.02098286983
0.04554330032
0.04451865993
0.04404874042
0.02492814919
0.03523787012
0.03365529918
0.05247670223
0.05212964661
0.03213079088
0.03008274336
0.02969912213
0.03262078815
0.03193253352
0.03619270906
0.05755150821
0.05705012793
0.06044532684
0.05985393184
0.03876835167
0.03305940229
0.05351872243
0.05306583793
0.05652827999
0.05601209575
0.03485981539
0.06574513297
0.06742452903
0.1416248088
0.1324242144
0.0635535075
0.06520769377
0.08958273919
0.0921784144
0.164992966
0.0281756733
0.02802497308
0.02947633068
0.02926422123
0.02168372576
0.02777662571
0.02766182648
0.1553196339
0.08568557082
0.08861150945
0.01390765211
0.01347993275
0.01327230837
0.01326312789
0.01395809012
0.01299588834
0.008994718939
0.03783674604
0.01578302729
0.01886036858
0.1365617257
0.1312305739
0.06542924726
0.07449678667
0.1428416093
0.1381399145
0.03478259576
0.03483915114
0.05241288993
0.05077422472
0.0343836248
0.03430171065
0.01639313878
0.02555875078
0.04101852609
0.03968521921
0.01006957471
0.01627062926
0.02071366057
0.01777638762
0.01885295168
0.020171967
0.0204113636
0.03345671803
0.01537337761
0.01109557245
0.01487838217
0.01703175425
0.03135831752
0.01966609242
0.02027017999
0.0187215329
0.02085257836
0.01987046076
0.01643056742
0.01645801677
0.01659735783
0.01664158971
0.01624127541
0.006127749006
0.004086066029
0.006895052716
0.01635003207
0.01620031655
0.01649355987
0.01587535655
0.0162952126
0.01622210622
0.009247926246
0.006088394889
0.005277925698
0.008583711428
0.008648271937
0.008717247563
0.008628943561
0.008154186622
0.01217549031
0.01233750159
0.01187388448
0.01201523341
0.008097561394
0.01149380073
0.01068391774
0.01066945579
0.01100629425
0.01082735636
0.01166355876
0.008803627487
0.01393313833
0.01561860261
0.01258373316
0.0130070692
0.008544061338
0.01069156196
0.01048255559
0.01047036415
0.01056840855
0.01055572998
0.01084542289
0.008918681987
0.008804455081
0.009025603338
0.009079517438
0.03920851479
0.05828123745
0.0578395357
0.02307532345
0.03823654426
0.03798692469
0.03956212672
0.03860466111
0.02330020752
0.01652563466
0.0162478751
0.01691164592
0.01638911069
0.02162946979
0.02143997681
0.02206422775
0.02183215411
0.01695503315
0.03784305645
0.02250485833
0.02351896914
0.02238226776
0.03748944781
0.03727490388
0.03782447755
0.03764565183
0.02251687828
0.02310684376
0.02241114681
0.03395998029
0.02422508355
0.01719107029
0.01213349269
0.01647250974
0.01730047818
0.01208083093
0.04758810542
0.03391641037
0.002961985029
0.03292536905
0.05003650434
0.04976873494
0.02044704022
0.01344332611
0.009951945657
0.002962994987
0.01733776433
0.0175779513
0.02083902712
0.02100590078
0.03412789569
0.0214555172
0.007786188661
0.008444368415
0.0112253404
0.005865844809
0.009575091925
0.006896616906
0.007408687849
0.007395481258
0.01493266163
0.009884031939
0.01633158112
0.01681449936
0.01663063492
0.04030321314
0.0318361809
0.008367833916
0.00972102462
0.01080558588
0.0177654645
0.01975858905
0.01169667737
0.01446785681
0.01387411525
0.01620812357
0.01126229636
0.01615412284
0.01675759656
0.01205857935
0.01581422034
0.01601003951
0.0184927848
0.01688293187
0.01745386278
0.0161271806
0.01577723985
0.01846827244
0.01816714225
0.017312934
0.01571512783
0.0173067577
0.01847247811
0.01841491066
0.01146563793
0.01308869999
0.01142136149
0.02025884415
0.01438103304
0.01105939743
0.0103000152
0.01097075473
0.008124321853
0.01065957028
0.01128720958
0.008954200879
0.01077076695
0.007853673484
0.008047284005
0.0116047651
0.01172747802
0.01131366771
0.01149014239
0.008039421186
0.01115885375
0.01510111448
0.01487937939
0.01268668995
0.01245730438
0.01237241931
0.008404225122
0.01234657851
0.01286685068
0.01154165974
0.007848701482
0.01114188718
0.01275228253
0.01168438063
0.0145093896
0.01382374401
0.01092295962
0.01540313027
0.01549173212
0.01393520434
0.01057161999
0.01549858836
0.01489459713
0.01454144278
0.01523953835
0.01544897914
0.0134932354
0.01310336509
0.01441852695
0.04545225421
0.04294531024
0.07750897432
0.07055427927
0.04364664308
0.06137306905
0.0822491514
0.07966390434
0.03292320133
0.03049567256
0.02802660518
0.02142791961
0.02767316714
0.03911250281
0.03999761517
0.03560198753
0.01317840102
0.01956501331
0.01992442791
0.0175075504
0.01829957416
0.01236247456
0.008378673721
0.00890049428
0.01426456636
0.009891287925
0.009390089784
0.01056904684
0.01004602292
0.01451606841
0.009518894563
0.009915571057
0.007835426004
0.01031084416
0.0485276738
0.04868036097
0.0319603773
0.03173223407
0.0513140827
0.05130061765
0.03073631914
0.0303665373
0.0314816759
0.03107611754
0.0584695542
0.05800507944
0.036566658
0.03816876516
0.05939499353
0.05893906175
0.05453170544
0.05406218595
0.03344828288
0.03441918238
0.05548360245
0.0550015996
0.009946362477
0.01037693294
0.0103744961
0.01041867192
0.01041647827
0.01009596832
0.009263381757
0.009923575601
0.009402897226
0.01032778344
0.01021855566
0.009445590025
0.04476516703
0.02692911615
0.02719773884
0.02650506792
0.02670885575
0.04453760985
0.0459950036
0.02814349858
0.02864454184
0.02746470867
0.02777675731
0.04554994826
0.0426043687
0.02529290325
0.02551992258
0.02492279075
0.02514683584
0.04237597896
0.04380231347
0.02611113698
0.02629781068
0.02569324084
0.02591685338
0.04354039994
0.02859490818
0.02840999601
0.06855547439
0.04734082609
0.04763459329
0.04671004231
0.04697350994
0.06794771119
0.02901960887
0.02881806882
0.02652274742
0.0277619416
0.06064143146
0.04321752253
0.04294275165
0.02955981963
0.03097257989
0.05464574946
0.06629109626
0.04607992292
0.04627059783
0.04542828056
0.04538684757
0.06522597353
0.02735448517
0.02738939325
0.01425797389
0.0141715137
0.013507041
0.0134428049
0.0138190641
0.01196451184
0.01331754827
0.01360031724
0.01278926059
0.01304727496
0.01197156138
0.0127257202
0.01324224121
0.01285847313
0.01371382891
0.01373227318
0.01223994626
0.03802907695
0.05587910688
0.055595678
0.05720269574
0.05686067007
0.03860562721
0.02282643354
0.02258107211
0.02341699508
0.02314436636
0.02303057599
0.01797797202
0.02572105897
0.04642105362
0.04187735384
0.05347097779
0.05175306686
0.03623625881
0.02792289599
0.01949597539
0.02499546472
0.02658867628
0.04118443708
0.02456173253
0.02485083065
0.02383560162
0.02461053797
0.04124599123
0.02416016401
0.02393647931
0.02502324368
0.0247697967
0.01599104481
0.01548724552
0.01556437996
0.01521132026
0.01536896056
0.01604219376
0.0156991868
0.01575298597
0.01562052696
0.01582085672
0.01084058152
0.01643801765
0.01770440199
0.01756126624
0.01846309567
0.0182612764
0.0161325421
0.02100636579
0.02096593486
0.02124640775
0.02118396024
0.0326156237
0.03251672633
0.04875306794
0.02020000705
0.02126082178
0.02073466433
0.0208127043
0.02181533356
0.03668535194
0.03632842815
0.03710893651
0.03683687294
0.02190199308
0.02126027224
0.03564886221
0.03365923176
0.03620788537
0.03561432766
0.02124788128
0.016614792
0.04822664763
0.04773564937
0.03167101349
0.0169049493
0.01347458823
0.0134882651
0.009931662433
0.01339272499
0.01564045301
0.02034038732
0.01518417655
0.01781068552
0.01720627569
0.03355969273
0.0205157953
0.02071689763
0.01503771433
0.01421399438
0.01433585069
0.01649842334
0.01554214415
0.01020852588
0.01064901903
0.01775202978
0.01461526893
0.01589172358
0.0167406329
0.02060002571
0.03139971153
1.155313296
1.155945481
1.155885121
1.156220755
1.157323612
1.156576985
1.157765571
0.9723199952
1.157622038
0.9261841063
0.7934049179
0.9679445194
0.7723876373
0.7343405245
0.8613660771
0.7134940242
0.7064030934
0.8420072689
0.7099573668
0.7491545421
0.8908263501
0.765025893
0.8583665496
1.030089942
0.8918221576
1.049971722
1.157522491
1.104273675
1.15717965
1.156527354
1.155468167
1.15681569
1.156061865
1.157402599
0.9309611304
1.157727808
0.8628220093